Title
34384
    1SER      N    1   5.604   4.443   3.468 -0.4734 -0.0165  0.4004
    1SER    HT1    2   5.681   4.374   3.454  0.1168  1.1143 -2.1425
    1SER    HT2    3   5.650   4.523   3.516 -0.4283 -0.0051  0.3355
    1SER    HT3    4   5.589   4.473   3.370  0.8842 -2.8824 -0.7531
    1SER     CA    5   5.486   4.394   3.544  0.2788 -1.0170  0.1448
    1SER     HA    6   5.510   4.405   3.649  1.3263 -2.1764  0.0376
    1SER     CB    7   5.377   4.504   3.536  0.1470 -0.6643  0.3944
    1SER    HB1    8   5.355   4.531   3.431  0.0531  0.9329  0.8104
    1SER    HB2    9   5.418   4.593   3.589  0.5407 -0.0920 -0.8551
    1SER     OG   10   5.249   4.485   3.603  0.0903 -0.3994  0.1582
    1SER    HG1   11   5.187   4.558   3.600 -0.0633 -0.5438 -0.1689
    1SER      C   12   5.430   4.264   3.502 -0.3315  0.7713 -0.3237
    1SER      O   13   5.436   4.228   3.383  0.2213 -0.1937 -0.3778
    2GLY      N   14   5.384   4.176   3.594 -0.0978 -0.1174 -0.4020
    2GLY     HN   15   5.407   4.190   3.690  0.0358 -1.2824 -0.2603
    2GLY     CA   16   5.334   4.043   3.565  0.2191 -0.0034 -0.2407
    2GLY    HA1   17   5.327   3.990   3.658 -2.6177 -1.9811 -1.5091
    2GLY    HA2   18   5.398   3.996   3.492  1.1585 -0.1188  0.6391
    2GLY      C   19   5.203   4.039   3.500 -0.4087 -0.3425 -1.0013
    2GLY      O   20   5.144   4.143   3.476 -0.3417  0.0294 -0.1861
    3ASP      N   21   5.142   3.918   3.471 -0.7807 -0.1937 -0.5489
    3ASP     HN   22   5.196   3.839   3.498 -0.4707  0.2743  0.2088
    3ASP     CA   23   5.006   3.909   3.414  0.0209 -0.0929  0.0867
    3ASP     HA   24   5.008   3.972   3.326 -0.6568 -0.9143 -0.5246
    3ASP     CB   25   4.982   3.762   3.368  0.1209  0.0649  0.4794
    3ASP    HB1   26   5.051   3.749   3.281 -1.4533 -0.7191 -0.6889
    3ASP    HB2   27   4.879   3.757   3.327  0.1863  0.4492  0.2620
    3ASP     CG   28   5.019   3.647   3.464 -0.1003  0.2419  0.5681
    3ASP    OD1   29   5.128   3.649   3.536 -0.2201  0.1041 -0.3600
    3ASP    OD2   30   4.950   3.545   3.466  0.0936 -0.0932  0.1565
    3ASP      C   31   4.904   3.957   3.513 -0.5502 -0.0080 -0.0225
    3ASP      O   32   4.919   3.929   3.635  0.3007  0.0029 -0.4706
    4SER      N   33   4.791   4.019   3.467 -0.7771 -0.0056  0.6116
    4SER     HN   34   4.795   4.049   3.373 -1.1810 -1.0058  0.2611
    4SER     CA   35   4.686   4.067   3.557  0.0183 -0.0889  0.3168
    4SER     HA   36   4.730   4.130   3.633 -3.9987  1.2204  1.6965
    4SER     CB   37   4.584   4.167   3.488 -0.4666  0.1696 -0.1669
    4SER    HB1   38   4.524   4.115   3.411  0.4047 -2.7692  1.0783
    4SER    HB2   39   4.656   4.236   3.438 -0.2862 -1.1307 -1.7522
    4SER     OG   40   4.487   4.227   3.574 -0.1627  0.0640  0.5518
    4SER    HG1   41   4.453   4.300   3.522 -1.8720 -0.8569  0.3348
    4SER      C   42   4.617   3.964   3.639 -0.3526  1.3167  0.6237
    4SER      O   43   4.583   3.854   3.588  0.5980 -0.0684 -0.2436
    5GLY      N   44   4.590   3.986   3.771  0.5826 -0.4411 -0.0956
    5GLY     HN   45   4.599   4.074   3.818  2.5078 -0.2047 -0.8785
    5GLY     CA   46   4.519   3.886   3.853  0.4322 -0.1433 -0.1594
    5GLY    HA1   47   4.511   3.923   3.954  1.6377 -0.0993 -0.0795
    5GLY    HA2   48   4.570   3.791   3.846 -1.3360 -1.4065  2.9402
    5GLY      C   49   4.369   3.853   3.806 -0.4612 -0.0666  0.6943
    5GLY      O   50   4.317   3.930   3.725  1.0069 -0.2190 -0.2044
    6PRO      N   51   4.299   3.744   3.846 -0.2445 -0.2684  0.1374
    6PRO     CD   52   4.347   3.663   3.958  0.3283 -0.2821 -0.0410
    6PRO    HD1   53   4.366   3.727   4.047 -0.7052  2.6665 -1.8619
    6PRO    HD2   54   4.441   3.608   3.937 -0.5034 -2.7385  2.4098
    6PRO     CA   55   4.161   3.706   3.808  0.8071 -0.3129 -0.1732
    6PRO     HA   56   4.150   3.709   3.701 -0.5780  3.0098 -0.0107
    6PRO     CB   57   4.143   3.568   3.868  0.0444  0.2308  0.1242
    6PRO    HB1   58   4.190   3.485   3.811 -1.1851 -0.0762 -0.4759
    6PRO    HB2   59   4.039   3.541   3.898  0.3355  1.3664  2.2298
    6PRO     CG   60   4.232   3.581   3.999 -0.0913  0.5091  0.0539
    6PRO    HG1   61   4.175   3.633   4.080  0.1359 -0.0994  0.6019
    6PRO    HG2   62   4.241   3.484   4.052 -3.6540 -1.4771 -2.7323
    6PRO      C   63   4.061   3.809   3.867 -0.5248 -0.3363  0.5000
    6PRO      O   64   4.066   3.840   3.984 -0.3368 -0.0596 -0.0008
    7GLY      N   65   3.980   3.860   3.777  0.1193 -0.7843  0.0467
    7GLY     HN   66   3.994   3.817   3.688 -2.2289 -4.0253  1.1629
    7GLY     CA   67   3.872   3.952   3.802  0.6187  0.9531  0.1540
    7GLY    HA1   68   3.811   3.934   3.715  0.8372  2.7115 -0.3649
    7GLY    HA2   69   3.903   4.054   3.818  0.3569  0.5625  3.4698
    7GLY      C   70   3.792   3.917   3.925  0.2118 -0.2731  0.1359
    7GLY      O   71   3.781   3.804   3.966  0.1238 -0.2780 -0.1588
    8ASP      N   72   3.718   4.016   3.969 -0.1975 -0.3600 -0.2079
    8ASP     HN   73   3.717   4.101   3.918  1.7037 -0.0739  0.1961
    8ASP     CA   74   3.633   4.000   4.091  0.0370  0.4263  0.0012
    8ASP     HA   75   3.691   3.956   4.171 -0.8107  1.2943  1.1140
    8ASP     CB   76   3.584   4.132   4.153 -0.6726 -0.0532  0.2360
    8ASP    HB1   77   3.566   4.112   4.261 -1.0532 -0.7334  0.0573
    8ASP    HB2   78   3.493   4.169   4.101 -0.7360  1.9569  1.7391
    8ASP     CG   79   3.694   4.242   4.151  0.2654  0.5931  0.4171
    8ASP    OD1   80   3.665   4.355   4.100 -0.5875  0.5465 -0.2073
    8ASP    OD2   81   3.805   4.208   4.200 -0.7841  0.1368 -0.4650
    8ASP      C   82   3.513   3.901   4.058  0.0186  0.4640  0.2441
    8ASP      O   83   3.432   3.911   3.965  0.3394 -0.4729  0.2352
    9PRO      N   84   3.497   3.791   4.136  0.3276  0.2065 -0.0224
    9PRO     CD   85   3.569   3.754   4.257  0.5645  0.7031  0.7446
    9PRO    HD1   86   3.600   3.838   4.323 -0.5059  1.2113  0.6182
    9PRO    HD2   87   3.653   3.685   4.234  1.3253  2.5768 -2.3902
    9PRO     CA   88   3.381   3.699   4.106 -0.7696 -0.4103  0.0166
    9PRO     HA   89   3.414   3.657   4.012  0.0658  0.2554  0.0095
    9PRO     CB   90   3.387   3.603   4.223  0.4107  0.2976 -0.0612
    9PRO    HB1   91   3.446   3.516   4.188  1.6693  1.1028  0.0491
    9PRO    HB2   92   3.297   3.553   4.264  0.6097 -0.1845 -0.2114
    9PRO     CG   93   3.461   3.675   4.335 -0.1612 -0.0750  0.3105
    9PRO    HG1   94   3.389   3.743   4.384 -0.9158 -1.6250  1.3871
    9PRO    HG2   95   3.507   3.595   4.397 -1.6226 -2.3104 -1.3798
    9PRO      C   96   3.240   3.758   4.102 -0.1361  0.7313  0.2039
    9PRO      O   97   3.199   3.830   4.195  0.1265 -0.4882  0.1171
   10GLY      N   98   3.169   3.727   3.996 -0.0252 -0.0448 -0.4335
   10GLY     HN   99   3.197   3.657   3.931  0.3345  0.2861 -0.6338
   10GLY     CA  100   3.045   3.787   3.959  0.6650  0.7083  0.4200
   10GLY    HA1  101   3.001   3.731   3.878  1.7638  0.8085 -0.2495
   10GLY    HA2  102   3.060   3.894   3.952 -2.3080  1.0557 -1.2656
   10GLY      C  103   2.929   3.793   4.057 -0.4301  0.7997 -0.1265
   10GLY      O  104   2.931   3.725   4.157  0.5399 -0.5469 -0.8055
   11ASP      N  105   2.824   3.864   4.026  0.5011  0.2061 -0.2217
   11ASP     HN  106   2.822   3.900   3.932 -0.1421  0.8060  0.0136
   11ASP     CA  107   2.710   3.880   4.118 -0.2482 -0.2345 -0.2932
   11ASP     HA  108   2.746   3.927   4.208 -1.7131 -1.5102  1.0018
   11ASP     CB  109   2.616   3.983   4.059 -0.5913 -0.5408 -0.4384
   11ASP    HB1  110   2.531   4.002   4.128 -1.0132  1.3249 -1.4136
   11ASP    HB2  111   2.567   3.953   3.964  1.2573 -0.9178 -1.2847
   11ASP     CG  112   2.687   4.120   4.038  0.0178 -0.3281 -0.7863
   11ASP    OD1  113   2.774   4.148   4.125  0.4071 -0.7234  0.3831
   11ASP    OD2  114   2.651   4.196   3.944  0.6139 -0.6506  1.1984
   11ASP      C  115   2.632   3.747   4.155  0.6523 -0.3511  0.3078
   11ASP      O  116   2.599   3.670   4.065 -0.3402 -0.1599 -0.0649
   12SER      N  117   2.600   3.724   4.287  0.3518 -1.0517  0.0744
   12SER     HN  118   2.648   3.774   4.358 -0.4793  1.4461 -1.0726
   12SER     CA  119   2.498   3.627   4.328 -0.8000  0.1687 -0.3027
   12SER     HA  120   2.538   3.539   4.280  2.2403  1.6810 -0.6663
   12SER     CB  121   2.507   3.612   4.481  0.5615 -0.1659  0.2690
   12SER    HB1  122   2.602   3.589   4.533 -1.2880  0.0938  3.9297
   12SER    HB2  123   2.435   3.533   4.511 -1.1596  1.0216 -0.6592
   12SER     OG  124   2.462   3.730   4.549 -0.1574  0.1154  0.1268
   12SER    HG1  125   2.495   3.717   4.639 -0.8241 -1.8996  0.0979
   12SER      C  126   2.360   3.653   4.279 -0.9455  0.1855 -0.5524
   12SER      O  127   2.315   3.768   4.261 -0.3082 -0.2910  0.0491
   13GLY      N  128   2.289   3.540   4.251 -0.2673 -0.4743 -0.7042
   13GLY     HN  129   2.329   3.451   4.270 -0.9554 -0.7930 -0.7531
   13GLY     CA  130   2.152   3.529   4.208  0.9760  0.2729  0.4141
   13GLY    HA1  131   2.130   3.448   4.141  0.4397 -0.6019  1.6261
   13GLY    HA2  132   2.139   3.623   4.155 -0.5679 -0.5369 -0.6675
   13GLY      C  133   2.052   3.531   4.329 -0.1380  0.3089 -0.1060
   13GLY    OT1  134   2.015   3.425   4.382 -0.0842 -0.2319  0.5654
   13GLY    OT2  135   2.007   3.640   4.354  0.1705 -0.3375 -0.1048
   14LIT    LIT  136   1.307   4.810   3.992  0.6903 -0.0885 -1.3650
   15LIT    LIT  137   7.405   3.175   4.437  0.8018  0.4633 -1.0511
   16LIT    LIT  138   0.251   6.012   0.739  0.4840 -0.1856 -0.5085
   17LIT    LIT  139   3.935   5.114   4.149  0.0239 -1.3274  0.4965
   18LIT    LIT  140   1.583   2.818   3.435 -0.8853  0.3168 -0.1245
   19LIT    LIT  141   5.709   2.243   1.126  0.0682 -0.2020  0.2320
   20LIT    LIT  142   2.347   1.377   2.317  0.8266  0.5590  0.7109
   21LIT    LIT  143   6.693   4.628   0.314  0.1838  0.2695  0.7612
   22LIT    LIT  144   0.996   1.143   2.964  0.6315  0.3897  0.7460
   23LIT    LIT  145   0.470   2.505   2.311 -0.3777 -0.4209  0.9091
   24LIT    LIT  146   7.305   1.638   6.302 -0.5456 -0.8276  0.4758
   25LIT    LIT  147   5.426   5.266   5.336 -0.4978  0.3209 -0.3576
   26LIT    LIT  148   2.196   6.029   0.842  0.0600 -0.5500  0.2540
   27LIT    LIT  149   7.746   2.471   3.037  0.0260 -0.4289  0.0868
   28LIT    LIT  150   4.777   6.741   1.053 -1.0252 -0.4826 -0.2120
   29LIT    LIT  151   2.289   4.133   4.448  0.4865 -0.3270  0.5790
   30LIT    LIT  152   4.212   1.228   4.431  0.1914  0.6932 -0.5560
   31LIT    LIT  153   4.963   1.288   3.655 -0.7666  0.6425  0.1125
   32LIT    LIT  154   2.026   0.057   1.243  0.3838 -0.9074 -0.3874
   33LIT    LIT  155   4.869   6.023   1.496  0.3123 -0.1743 -0.2430
   34LIT    LIT  156   1.908   6.792   3.563 -0.3857  0.0546 -0.5254
   35LIT    LIT  157   3.866   6.717   3.289 -0.2618 -0.8816  0.6070
   36LIT    LIT  158   4.523   2.214   1.731  0.6712 -0.6676  0.2889
   37LIT    LIT  159   0.164   4.240   2.055 -0.2362 -0.4581 -0.2296
   38LIT    LIT  160   6.394   4.431   2.230  0.1245  0.6807  0.9439
   39LIT    LIT  161   5.212   1.082   1.256  0.4728 -0.3949 -0.2208
   40LIT    LIT  162   2.268   3.038   0.896  0.3457 -0.1259 -0.1056
   41LIT    LIT  163   4.979   5.706   6.134  0.3444  0.3060 -0.4048
   42LIT    LIT  164   3.534   0.352   2.162 -0.2754 -0.0014  0.1356
   43LIT    LIT  165   0.293   6.858   1.678  0.1943 -0.1126 -1.2223
   44LIT    LIT  166   2.324   0.698   5.882 -1.4765  0.9143  0.3822
   45LIT    LIT  167   4.115   5.714   3.228  1.4694 -0.3989 -0.2921
   46LIT    LIT  168   7.708   5.215   0.650 -1.2550 -0.7247  0.4971
   47LIT    LIT  169   3.130   3.950   4.312 -0.8919  0.0253 -0.3143
   48LIT    LIT  170   4.394   1.009   1.378 -0.0378 -1.4019  0.5532
   49CLA    CLA  171   5.276   0.008   0.666  0.1403  0.1722 -0.0609
   50CLA    CLA  172   6.412   1.194   2.497  0.0838  0.5319  0.4357
   51CLA    CLA  173   3.261   2.943   2.911 -0.2173  0.2943  0.3293
   52CLA    CLA  174   4.136   1.210   4.644 -0.1182  0.0038  0.2257
   53CLA    CLA  175   5.114   1.572   5.694 -0.2828 -0.1147 -0.4663
   54CLA    CLA  176   0.829   0.622   0.740  0.1269 -0.6351  0.1491
   55CLA    CLA  177   4.350   6.821   5.726  0.1262  0.1158  0.4087
   56CLA    CLA  178   6.482   5.071   1.078 -0.0072 -0.0873  0.2267
   57CLA    CLA  179   2.332   6.947   3.766  0.0510 -0.2143  0.1117
   58CLA    CLA  180   4.839   5.180   5.693  0.5369  0.0029  0.0311
   59CLA    CLA  181   1.223   2.030   0.035 -0.0354 -0.3032  0.4316
   60CLA    CLA  182   3.868   2.322   1.594 -0.1325  0.2828  0.7397
   61CLA    CLA  183   4.184   1.513   0.117 -0.4883  0.1352 -0.3865
   62CLA    CLA  184   0.144   7.013   3.111  0.3706 -0.6290  0.0026
   63CLA    CLA  185   1.786   3.950   3.070 -0.4339 -0.0356  0.4178
   64CLA    CLA  186   0.445   2.736   6.224  0.7177 -0.2093 -0.0615
   65CLA    CLA  187   2.201   2.990   0.652 -0.1660  0.3605  0.0577
   66CLA    CLA  188   5.457   4.713   2.688 -0.4770 -0.0085 -0.2000
   67CLA    CLA  189   2.208   1.210   2.382  0.2564 -0.1407 -0.2169
   68CLA    CLA  190   6.630   1.159   5.097 -0.0112  0.5559 -0.0311
   69CLA    CLA  191   2.137   0.374   0.318 -0.2875 -0.0215  0.4494
   70CLA    CLA  192   0.479   2.913   2.943  0.3848 -0.6402  0.1272
   71CLA    CLA  193   4.873   5.851   5.286  0.4772 -0.1837 -0.1813
   72CLA    CLA  194   4.379   1.048   1.611 -0.1627  0.0989 -0.3461
   73CLA    CLA  195   0.980   5.330   1.443 -0.0518 -0.0806  0.1335
   74CLA    CLA  196   2.294   1.621   2.296  0.2777 -0.4348  0.1458
   75CLA    CLA  197   2.156   0.688   6.035  0.4983 -0.1937  0.2013
   76CLA    CLA  198   6.447   6.439   1.814  0.3350  0.1825 -0.3692
   77CLA    CLA  199   2.600   6.251   0.720  0.3097  0.1303 -0.1498
   78CLA    CLA  200   5.748   6.657   4.836  0.3667 -0.1950 -0.2027
   79CLA    CLA  201   0.638   6.757   2.001  0.0503 -0.2245 -0.5777
   80CLA    CLA  202   1.516   2.607   3.521 -0.0839  0.0517 -0.3316
   81TIP3   OH2  203   1.373   7.225   1.811  0.3921  0.1667 -0.6671
   81TIP3    H1  204   1.466   7.245   1.801  0.2778  0.7898 -0.4803
   81TIP3    H2  205   1.329   7.288   1.754 -0.0889  1.7866  1.4626
   82TIP3   OH2  206   0.448   0.402   1.401 -0.6826  0.3863  0.2613
   82TIP3    H1  207   0.524   0.378   1.348 -0.3348 -2.3897  1.9161
   82TIP3    H2  208   0.472   0.485   1.442  1.8266 -0.8821  1.4477
   83TIP3   OH2  209   1.302   6.396   1.836 -0.5413 -0.3512  0.1640
   83TIP3    H1  210   1.303   6.346   1.917  3.3577  0.2293  0.6052
   83TIP3    H2  211   1.321   6.332   1.767 -0.7924 -0.3591  0.1037
   84TIP3   OH2  212   0.824   7.293   3.803  0.1399 -0.2999  0.1172
   84TIP3    H1  213   0.811   7.318   3.894 -0.7509  0.0356 -0.0987
   84TIP3    H2  214   0.810   7.198   3.801  0.2861 -0.3249  0.3523
   85TIP3   OH2  215   5.344   6.122   0.559 -0.6531 -0.2387  0.5338
   85TIP3    H1  216   5.304   6.068   0.491 -0.1903  0.5994 -0.4083
   85TIP3    H2  217   5.433   6.140   0.527 -0.6951  0.8174  0.9914
   86TIP3   OH2  218   6.278   5.707   1.112 -0.0521 -0.4267 -0.5613
   86TIP3    H1  219   6.270   5.680   1.020  2.8182  0.7560 -1.2215
   86TIP3    H2  220   6.361   5.755   1.115 -1.1416  1.3760  2.2257
   87TIP3   OH2  221   3.339   0.721   1.827 -0.1469  0.1228  0.0033
   87TIP3    H1  222   3.432   0.725   1.849 -0.0747  0.8949 -0.4219
   87TIP3    H2  223   3.329   0.785   1.756 -0.2549 -2.7405 -2.6507
   88TIP3   OH2  224   7.538   7.037   2.606  0.4640 -0.5280  0.9529
   88TIP3    H1  225   7.508   6.989   2.529 -1.1319  1.1475  0.5041
   88TIP3    H2  226   7.467   7.029   2.670  0.7743  0.0622  1.3886
   89TIP3   OH2  227   3.692   0.282   1.603  0.2360 -0.5410  0.2676
   89TIP3    H1  228   3.699   0.241   1.517 -1.2620 -0.9828  0.3531
   89TIP3    H2  229   3.722   0.372   1.589  0.3305 -0.7103 -0.6376
   90TIP3   OH2  230   7.564   6.385   1.025  0.1817 -0.2053  0.1829
   90TIP3    H1  231   7.569   6.387   1.121  0.4902 -1.2077  0.1907
   90TIP3    H2  232   7.474   6.360   1.006  0.4362 -1.2019  0.2340
   91TIP3   OH2  233   2.780   0.585   1.231 -0.5624 -0.1280 -0.2802
   91TIP3    H1  234   2.702   0.548   1.190 -2.0582  2.3181  0.2605
   91TIP3    H2  235   2.818   0.512   1.279 -3.2649 -1.0860  0.5240
   92TIP3   OH2  236   2.898   1.747   1.763  0.8645 -0.2368  0.2596
   92TIP3    H1  237   2.846   1.689   1.818  1.3148  0.0577  1.0063
   92TIP3    H2  238   2.845   1.760   1.684  0.6486 -1.4577  0.1903
   93TIP3   OH2  239   7.774   6.362   1.247 -0.5546 -0.2069  0.2701
   93TIP3    H1  240   7.764   6.444   1.295 -0.3334  0.3394 -0.5869
   93TIP3    H2  241   7.839   6.383   1.179 -1.4338 -0.7230 -0.7509
   94TIP3   OH2  242   3.095   0.286   1.174 -0.2302 -0.5286  0.5233
   94TIP3    H1  243   3.125   0.309   1.262  0.4093  1.4292 -0.1792
   94TIP3    H2  244   3.096   0.369   1.126  1.0354 -1.8543 -1.8162
   95TIP3   OH2  245   7.637   6.923   3.654  0.0349 -0.0473  0.0679
   95TIP3    H1  246   7.604   6.907   3.743  1.6114 -1.6480  0.3957
   95TIP3    H2  247   7.695   6.998   3.663 -1.1002  0.8482  0.0609
   96TIP3   OH2  248   3.917   1.886   1.009 -0.5845 -0.0012 -0.0670
   96TIP3    H1  249   3.856   1.939   0.959 -1.2751  0.4309  1.2203
   96TIP3    H2  250   3.878   1.880   1.097  1.2557  0.3688  0.7989
   97TIP3   OH2  251   0.636   6.747   0.732 -0.2752 -0.0724 -0.0761
   97TIP3    H1  252   0.594   6.734   0.817 -0.4707 -1.6930 -0.4099
   97TIP3    H2  253   0.565   6.775   0.674 -0.0985  1.2720  0.3229
   98TIP3   OH2  254   2.469   6.878   0.365  0.6564  0.1692 -0.1010
   98TIP3    H1  255   2.497   6.940   0.298  0.5828 -0.5922 -0.8330
   98TIP3    H2  256   2.389   6.917   0.401  1.2522  1.0729  0.2389
   99TIP3   OH2  257   7.649   5.694   0.156  0.3219 -0.2048  0.2934
   99TIP3    H1  258   7.685   5.659   0.074 -0.6635  0.2606 -0.3464
   99TIP3    H2  259   7.703   5.770   0.175  1.9598 -1.5746  1.2591
  100TIP3   OH2  260   0.610   6.779   0.095 -0.3378 -0.4311 -0.8803
  100TIP3    H1  261   0.647   6.868   0.089 -0.4556 -0.0511  2.7852
  100TIP3    H2  262   0.674   6.730   0.147 -2.3326 -1.2631  0.8443
  101TIP3   OH2  263   7.703   3.197   6.240  0.0131 -0.1918 -0.6795
  101TIP3    H1  264   7.618   3.241   6.239 -0.2173 -0.6620 -1.5695
  101TIP3    H2  265   7.683   3.104   6.249  0.3980 -0.3797 -1.7096
  102TIP3   OH2  266   6.548   2.732   6.205 -0.6518 -0.1870 -0.2006
  102TIP3    H1  267   6.643   2.732   6.204 -0.5622 -0.4650  2.6383
  102TIP3    H2  268   6.523   2.647   6.169  0.2047 -0.5508  0.0517
  103TIP3   OH2  269   0.098   6.884   1.714  0.2181  0.0208  0.2174
  103TIP3    H1  270   0.011   6.844   1.718  0.2639 -0.0227  0.7259
  103TIP3    H2  271   0.084   6.975   1.740  0.1616  0.2708 -0.6653
  104TIP3   OH2  272   6.226   4.463   6.130 -0.3188  0.1464 -0.5653
  104TIP3    H1  273   6.188   4.375   6.137 -0.2721  0.1606 -0.1468
  104TIP3    H2  274   6.300   4.462   6.190 -0.5804  0.6113 -0.2380
  105TIP3   OH2  275   2.742   1.162   0.175  0.7523 -0.1192 -0.3111
  105TIP3    H1  276   2.734   1.195   0.085  0.2301 -0.1880 -0.2871
  105TIP3    H2  277   2.681   1.214   0.226  0.5666 -0.5307 -0.1114
  106TIP3   OH2  278   2.255   0.517   3.769 -0.2579 -0.3057 -0.0544
  106TIP3    H1  279   2.292   0.536   3.855  0.3273 -2.3897  0.1850
  106TIP3    H2  280   2.303   0.573   3.708  0.8922 -0.4779  0.6907
  107TIP3   OH2  281   2.236   0.322   1.219 -0.0157  0.1482  0.2651
  107TIP3    H1  282   2.223   0.236   1.259 -1.2469  0.7309  1.1414
  107TIP3    H2  283   2.296   0.367   1.278  0.6720 -0.1162 -0.2221
  108TIP3   OH2  284   2.369   0.967   1.531 -0.4918  0.1222 -0.2497
  108TIP3    H1  285   2.368   0.880   1.571 -0.7259 -0.0947 -0.7226
  108TIP3    H2  286   2.415   1.022   1.595  0.2993 -0.5034 -0.2667
  109TIP3   OH2  287   0.128   5.593   0.625 -0.5873 -0.1276 -0.1040
  109TIP3    H1  288   0.087   5.674   0.595  0.3393  0.5629  0.4358
  109TIP3    H2  289   0.204   5.583   0.568  1.3339  1.3332  2.0937
  110TIP3   OH2  290   1.560   6.278   1.481  0.3224  0.1878  0.1080
  110TIP3    H1  291   1.592   6.338   1.549  0.6354  0.0691  0.0656
  110TIP3    H2  292   1.484   6.322   1.444  0.0177  0.1591  0.6834
  111TIP3   OH2  293   4.532   3.789   6.291  0.0366 -0.2592  0.0702
  111TIP3    H1  294   4.588   3.805   6.215  0.9138 -0.7001  0.6152
  111TIP3    H2  295   4.543   3.696   6.310 -0.5545 -0.2557  0.4456
  112TIP3   OH2  296   2.838   1.157   1.952 -0.1385 -0.4224 -0.1759
  112TIP3    H1  297   2.765   1.111   1.911 -0.1001  0.0584 -0.7812
  112TIP3    H2  298   2.881   1.090   2.006 -0.6121 -0.8746 -0.3606
  113TIP3   OH2  299   5.093   3.425   1.827  0.9166 -0.2348  0.3400
  113TIP3    H1  300   5.026   3.427   1.896  0.6294  0.0865  0.0549
  113TIP3    H2  301   5.081   3.507   1.780 -0.1922 -1.3218 -1.3350
  114TIP3   OH2  302   3.145   1.666   1.867 -0.1272  0.2117  0.1990
  114TIP3    H1  303   3.072   1.648   1.808 -0.8659 -0.0301  1.1667
  114TIP3    H2  304   3.152   1.761   1.869 -1.2352  0.2814  1.0734
  115TIP3   OH2  305   3.389   1.398   2.174  0.5283  0.3510 -0.0765
  115TIP3    H1  306   3.347   1.332   2.229 -0.0952  1.3107  0.6195
  115TIP3    H2  307   3.405   1.472   2.233 -0.0688  1.3575 -1.1563
  116TIP3   OH2  308   3.444   2.064   2.426 -0.4086  0.2803 -0.7002
  116TIP3    H1  309   3.515   2.057   2.362  0.4648 -0.8011  0.3661
  116TIP3    H2  310   3.371   2.103   2.377  0.1673 -0.7402 -2.4083
  117TIP3   OH2  311   0.923   4.299   5.595  0.0732 -0.3586 -0.1507
  117TIP3    H1  312   0.840   4.344   5.609  0.1649 -0.0454 -0.6031
  117TIP3    H2  313   0.900   4.206   5.595 -0.0354 -0.3391  1.2972
  118TIP3   OH2  314   6.164   0.584   2.861  0.2515 -0.2191  0.2322
  118TIP3    H1  315   6.071   0.571   2.882  0.3672  0.1719  1.0202
  118TIP3    H2  316   6.211   0.530   2.924  0.5470 -0.8001 -0.4844
  119TIP3   OH2  317   4.199   0.644   2.898  0.0490  0.1612 -0.3244
  119TIP3    H1  318   4.132   0.596   2.850  1.3536 -0.7697 -1.2576
  119TIP3    H2  319   4.228   0.583   2.966 -1.4866  1.3161  1.4042
  120TIP3   OH2  320   5.706   0.956   3.192 -0.0379  0.1186  0.0960
  120TIP3    H1  321   5.788   0.972   3.238  0.8152  0.5493 -1.5597
  120TIP3    H2  322   5.690   0.862   3.204 -0.0070  0.2841  1.5435
  121TIP3   OH2  323   3.748   0.529   0.729  0.3472 -0.4106 -0.5419
  121TIP3    H1  324   3.686   0.599   0.749 -1.4115 -2.1827  0.4372
  121TIP3    H2  325   3.764   0.487   0.814  0.5784 -1.7933 -1.2516
  122TIP3   OH2  326   3.700   0.118   2.464  0.4484  0.0418 -0.1243
  122TIP3    H1  327   3.678   0.039   2.415 -0.0499  1.7529 -2.7911
  122TIP3    H2  328   3.795   0.113   2.476  0.2824 -1.4745  0.7202
  123TIP3   OH2  329   2.353   6.505   3.496  0.2086 -0.7282  0.7642
  123TIP3    H1  330   2.438   6.546   3.482 -0.9845  1.6491  0.2674
  123TIP3    H2  331   2.327   6.532   3.584  0.2024 -1.9380  1.1512
  124TIP3   OH2  332   6.463   4.837   6.117  0.0921  0.1243 -0.6501
  124TIP3    H1  333   6.496   4.914   6.164 -1.2961  0.8106 -0.7629
  124TIP3    H2  334   6.493   4.762   6.169  0.7705  0.7780 -0.0952
  125TIP3   OH2  335   5.501   1.271   2.015 -0.2710 -0.3584  0.4766
  125TIP3    H1  336   5.461   1.320   2.087 -2.3011 -1.0865 -0.1265
  125TIP3    H2  337   5.431   1.261   1.951  0.5712 -2.6747 -0.1266
  126TIP3   OH2  338   3.585   0.916   2.374 -0.2234 -0.2999 -0.0485
  126TIP3    H1  339   3.617   0.841   2.425  2.4017  0.0585 -1.1046
  126TIP3    H2  340   3.621   0.993   2.417 -1.9512  0.3208  0.3386
  127TIP3   OH2  341   3.746   2.587   1.736 -0.3586  0.0316  0.3228
  127TIP3    H1  342   3.721   2.555   1.822 -0.1915  0.8297  0.6732
  127TIP3    H2  343   3.766   2.508   1.685 -2.0893 -0.5277  0.5020
  128TIP3   OH2  344   4.118   3.181   6.226  0.0930  0.3641 -0.8830
  128TIP3    H1  345   4.180   3.139   6.166  0.0048 -3.3487  1.4152
  128TIP3    H2  346   4.145   3.149   6.313 -1.0081  3.9657  0.8597
  129TIP3   OH2  347   1.804   6.805   1.125  0.2336 -0.0346  0.1823
  129TIP3    H1  348   1.881   6.817   1.071  0.2414  0.6796  0.3379
  129TIP3    H2  349   1.732   6.792   1.063  0.2930  0.4733  0.0022
  130TIP3   OH2  350   2.983   2.036   2.241  0.2104 -0.1644  0.2186
  130TIP3    H1  351   2.959   2.010   2.152 -1.3412  0.9346  0.3009
  130TIP3    H2  352   2.899   2.051   2.285  1.0089  1.7234  1.1346
  131TIP3   OH2  353   0.471   6.096   5.838  0.1690 -0.1025  0.2582
  131TIP3    H1  354   0.471   6.119   5.745  0.2271  0.6065  0.4265
  131TIP3    H2  355   0.493   6.178   5.882  0.6882 -0.5650  0.8670
  132TIP3   OH2  356   1.184   7.158   0.211  0.7247 -0.6562  0.1215
  132TIP3    H1  357   1.219   7.098   0.144  0.7906 -0.9082  0.3813
  132TIP3    H2  358   1.114   7.205   0.166  1.6497  0.1207 -0.5190
  133TIP3   OH2  359   7.227   5.230   6.248  0.7896  0.8208 -0.5697
  133TIP3    H1  360   7.141   5.247   6.212  1.0088  1.4760 -0.7811
  133TIP3    H2  361   7.221   5.259   6.339 -0.0019 -1.5489  0.1777
  134TIP3   OH2  362   3.353   3.212   1.507 -0.6847 -0.0819 -0.2346
  134TIP3    H1  363   3.369   3.183   1.417  1.4766 -0.0771  0.1099
  134TIP3    H2  364   3.344   3.132   1.557 -0.6198 -0.0962 -0.2460
  135TIP3   OH2  365   3.975   0.532   2.016  0.1651  0.9035  0.1687
  135TIP3    H1  366   3.933   0.510   1.933 -0.2842  1.0714  0.3478
  135TIP3    H2  367   3.911   0.587   2.061 -0.5691 -1.0438  1.6028
  136TIP3   OH2  368   5.077   0.805   1.550 -0.4406 -0.2522 -0.3453
  136TIP3    H1  369   5.106   0.754   1.626 -2.2845 -0.0582  0.5133
  136TIP3    H2  370   5.063   0.740   1.481  0.6946 -0.4931 -0.3526
  137TIP3   OH2  371   4.166   0.419   1.397  0.7046 -0.5050  0.0491
  137TIP3    H1  372   4.103   0.407   1.325  0.8042 -0.4315 -0.0500
  137TIP3    H2  373   4.112   0.445   1.471  0.6430 -0.2108 -0.0972
  138TIP3   OH2  374   7.378   4.117   4.079  0.5863  0.6972 -0.1230
  138TIP3    H1  375   7.285   4.133   4.069  0.9931  4.3887  1.3582
  138TIP3    H2  376   7.415   4.135   3.993 -0.1444 -1.8722 -1.0210
  139TIP3   OH2  377   2.035   6.011   0.700  0.3218 -0.2565 -0.3859
  139TIP3    H1  378   1.991   6.064   0.634  0.1710 -0.1458 -0.1960
  139TIP3    H2  379   1.986   5.929   0.701  0.9862 -0.6767 -1.1871
  140TIP3   OH2  380   4.122   2.083   1.158  0.5118  0.2127  0.0137
  140TIP3    H1  381   4.050   2.044   1.110  1.1844  0.8354 -1.5249
  140TIP3    H2  382   4.090   2.089   1.248 -1.3089  0.3757 -0.6226
  141TIP3   OH2  383   1.223   6.352   1.004  0.2896  0.2093  0.3035
  141TIP3    H1  384   1.177   6.362   0.920 -1.0973 -1.3836  0.8428
  141TIP3    H2  385   1.315   6.344   0.980 -0.2412 -1.6848 -1.1998
  142TIP3   OH2  386   0.820   5.973   2.854 -0.2583  0.6132  0.0863
  142TIP3    H1  387   0.836   5.893   2.804 -1.8883  0.2881  0.0535
  142TIP3    H2  388   0.868   6.041   2.808 -1.5568  0.2796 -1.7904
  143TIP3   OH2  389   3.884   1.179   0.523 -0.1892 -0.2859 -0.3212
  143TIP3    H1  390   3.963   1.226   0.549  0.5185 -0.9854 -1.1739
  143TIP3    H2  391   3.915   1.091   0.501 -1.3270 -0.8123  0.1424
  144TIP3   OH2  392   5.117   1.230   1.173 -0.0548  0.0312 -0.0248
  144TIP3    H1  393   5.029   1.220   1.139  0.1033 -0.3840 -0.3102
  144TIP3    H2  394   5.170   1.255   1.097  0.0133  0.5770  0.2044
  145TIP3   OH2  395   0.259   5.600   1.910 -0.7444  0.1649 -0.3310
  145TIP3    H1  396   0.258   5.602   2.006  0.5775 -0.6375 -0.2808
  145TIP3    H2  397   0.239   5.689   1.883 -0.4522  0.5477  0.7091
  146TIP3   OH2  398   0.266   7.102   1.944 -0.0335  0.1175  0.3537
  146TIP3    H1  399   0.287   7.030   2.003 -4.6311  0.0949  2.2043
  146TIP3    H2  400   0.295   7.181   1.991 -0.9055 -0.1176  1.3110
  147TIP3   OH2  401   4.282   2.981   0.032  0.4471 -0.5963 -0.2840
  147TIP3    H1  402   4.361   3.032   0.044 -0.3102  0.7487 -0.9196
  147TIP3    H2  403   4.306   2.893   0.061  1.7924  0.0763  0.6995
  148TIP3   OH2  404   5.308   1.638   2.840 -0.1764  0.2859 -0.1164
  148TIP3    H1  405   5.379   1.609   2.782 -0.1794  1.2818 -0.6381
  148TIP3    H2  406   5.333   1.727   2.865  0.1924 -0.3821  2.0258
  149TIP3   OH2  407   7.326   3.810   5.928  0.4258 -0.0135  0.1999
  149TIP3    H1  408   7.340   3.903   5.908 -0.1438  0.3385  1.3364
  149TIP3    H2  409   7.414   3.774   5.938  0.6368  0.8976  1.8313
  150TIP3   OH2  410   4.168   0.982   3.020  0.1987  0.2681  0.0871
  150TIP3    H1  411   4.199   1.026   2.941 -1.5136 -1.1137 -1.4029
  150TIP3    H2  412   4.247   0.955   3.066  1.2198  1.5193 -0.9038
  151TIP3   OH2  413   0.998   7.190   2.500  0.8287 -0.1120 -0.1462
  151TIP3    H1  414   1.035   7.189   2.412 -0.0814  0.4145 -0.5375
  151TIP3    H2  415   0.904   7.181   2.486  0.7296 -0.5607  0.7994
  152TIP3   OH2  416   5.201   3.167   5.913  0.1238 -0.9650 -0.1203
  152TIP3    H1  417   5.159   3.082   5.897 -1.0105 -0.7582  1.6395
  152TIP3    H2  418   5.189   3.183   6.006  0.4998  1.0458 -0.3923
  153TIP3   OH2  419   4.671   0.106   3.021  0.0018 -0.6136  0.5267
  153TIP3    H1  420   4.620   0.061   3.088  1.6018 -1.6791  1.0515
  153TIP3    H2  421   4.635   0.073   2.938 -0.3088 -1.1886  0.8855
  154TIP3   OH2  422   3.787   2.778   0.271 -0.1947  0.2111 -0.6246
  154TIP3    H1  423   3.698   2.765   0.238 -0.5907 -0.2679  0.5808
  154TIP3    H2  424   3.808   2.868   0.248 -1.0109  0.3375 -0.8981
  155TIP3   OH2  425   4.263   1.866   1.071 -0.1046 -0.0605 -0.0715
  155TIP3    H1  426   4.261   1.799   1.139  2.1627  2.3843  2.5301
  155TIP3    H2  427   4.236   1.946   1.116  0.4787  1.4344 -2.3028
  156TIP3   OH2  428   1.317   6.727   0.889 -0.3960 -0.2075  0.4128
  156TIP3    H1  429   1.289   6.796   0.828  2.2348  0.2615 -0.3243
  156TIP3    H2  430   1.240   6.671   0.899 -1.3232  0.5259 -2.2235
  157TIP3   OH2  431   7.771   6.992   4.552  1.1817 -0.1655  0.1628
  157TIP3    H1  432   7.813   7.031   4.628  0.1703  1.0963  0.0921
  157TIP3    H2  433   7.730   6.912   4.586  0.7338  0.3906  0.9503
  158TIP3   OH2  434   4.384   0.230   1.393 -0.4774 -0.3200 -0.2314
  158TIP3    H1  435   4.341   0.146   1.382 -1.1391 -0.0795  0.4321
  158TIP3    H2  436   4.312   0.293   1.399 -0.1372 -0.1174  2.6889
  159TIP3   OH2  437   1.346   7.077   4.149 -0.2090 -0.0340 -0.0117
  159TIP3    H1  438   1.375   7.168   4.150  0.6619 -0.3025  1.8827
  159TIP3    H2  439   1.250   7.082   4.150 -0.2554  0.8432 -3.1227
  160TIP3   OH2  440   2.995   2.592   0.198 -0.1397 -0.7135 -0.3896
  160TIP3    H1  441   2.998   2.688   0.190  0.1761 -0.5594  1.2987
  160TIP3    H2  442   2.907   2.569   0.170 -0.5539  0.1775  0.1406
  161TIP3   OH2  443   1.812   5.721   1.566  0.7074  0.0393  0.3068
  161TIP3    H1  444   1.725   5.683   1.558  0.5451  0.3044  0.7867
  161TIP3    H2  445   1.822   5.738   1.660  0.6367  1.4746  0.0664
  162TIP3   OH2  446  -0.021   6.982   1.953 -0.4380 -0.0403  0.3931
  162TIP3    H1  447   0.041   7.018   1.890 -0.7182  0.1051  0.1969
  162TIP3    H2  448  -0.005   7.031   2.034  0.5213 -0.8282  0.6933
  163TIP3   OH2  449   4.598   0.455   0.948 -0.2969  0.6245  0.6278
  163TIP3    H1  450   4.568   0.386   1.007 -1.1871  0.3657 -0.1073
  163TIP3    H2  451   4.526   0.466   0.886  1.3869 -0.4927 -1.5838
  164TIP3   OH2  452   0.025   7.109   2.188 -0.4864  0.8396  0.3448
  164TIP3    H1  453   0.054   7.101   2.279  0.0207  1.4943  0.2446
  164TIP3    H2  454  -0.018   7.195   2.185 -0.7878  0.6748  0.0456
  165TIP3   OH2  455   4.461   0.716   0.412  0.3379 -0.1572 -0.7080
  165TIP3    H1  456   4.515   0.773   0.357 -0.7814 -0.7114 -2.4380
  165TIP3    H2  457   4.491   0.732   0.501  2.2789  0.6905 -1.4919
  166TIP3   OH2  458   1.389   6.669   0.572 -0.7064  0.2066 -0.1261
  166TIP3    H1  459   1.302   6.677   0.612 -0.8552  0.1653 -0.4412
  166TIP3    H2  460   1.372   6.672   0.478 -0.3636  0.2156 -0.1854
  167TIP3   OH2  461   1.801   7.337   3.134 -0.6374  0.3037 -0.2274
  167TIP3    H1  462   1.744   7.281   3.187 -2.2432  3.5582  1.6011
  167TIP3    H2  463   1.775   7.320   3.043 -0.0667 -2.9379  0.1504
  168TIP3   OH2  464   3.112   0.317   0.636  0.3303  0.0065 -0.0736
  168TIP3    H1  465   3.099   0.224   0.650 -2.5634  0.6452  1.9693
  168TIP3    H2  466   3.078   0.333   0.547  1.4889 -0.9710 -0.7027
  169TIP3   OH2  467   1.155   6.054   0.724  0.2539 -0.1181 -0.6857
  169TIP3    H1  468   1.104   6.042   0.804 -0.9652  1.1718 -1.2504
  169TIP3    H2  469   1.231   5.997   0.736 -0.4452 -0.7588  0.9191
  170TIP3   OH2  470   2.914   1.409   2.054 -0.1894 -0.5580  0.4045
  170TIP3    H1  471   2.914   1.318   2.027 -0.2451 -0.7371  0.9889
  170TIP3    H2  472   2.910   1.406   2.150  0.9814  0.0348  0.4918
  171TIP3   OH2  473   4.340   1.717   0.407 -0.4392  0.3187  0.8111
  171TIP3    H1  474   4.259   1.669   0.424 -0.8919  1.6288  2.6327
  171TIP3    H2  475   4.319   1.772   0.331 -0.7855 -0.3852  0.3874
  172TIP3   OH2  476   3.392   0.238   1.629 -0.9201 -0.3103 -0.3397
  172TIP3    H1  477   3.482   0.216   1.605 -0.8366  0.4529 -0.7375
  172TIP3    H2  478   3.399   0.318   1.680 -1.4289  0.1402 -0.9626
  173TIP3   OH2  479   4.086   7.324   0.773 -0.3476  0.1882  0.2227
  173TIP3    H1  480   4.146   7.300   0.702 -0.4107 -2.3307  0.9886
  173TIP3    H2  481   4.002   7.285   0.748 -0.4986 -0.2647  1.4156
  174TIP3   OH2  482   5.091   0.765   0.321 -0.2365 -0.5062  0.0944
  174TIP3    H1  483   5.063   0.850   0.289  2.3657 -0.4524 -2.1936
  174TIP3    H2  484   5.016   0.707   0.306 -0.4955  0.4322 -2.3681
  175TIP3   OH2  485   5.540   0.921   2.447  0.1735  0.3424  0.0703
  175TIP3    H1  486   5.566   0.901   2.536 -0.0855 -1.3427 -0.2107
  175TIP3    H2  487   5.622   0.943   2.402  0.3992  0.4429  0.5329
  176TIP3   OH2  488   5.366   2.066   1.808 -0.4043 -0.4620  0.2426
  176TIP3    H1  489   5.282   2.037   1.844 -1.1221  2.2153  0.8480
  176TIP3    H2  490   5.351   2.070   1.713 -0.4996 -1.3614  0.2131
  177TIP3   OH2  491   4.514   1.178   3.111 -0.0568 -0.0974  0.3738
  177TIP3    H1  492   4.507   1.103   3.052 -1.3531  0.7831 -0.6478
  177TIP3    H2  493   4.446   1.164   3.177  0.0907 -0.1283  0.5170
  178TIP3   OH2  494   1.847   6.887   1.587 -0.3418 -0.1649  0.1834
  178TIP3    H1  495   1.757   6.892   1.618 -0.2026  1.0140  0.4113
  178TIP3    H2  496   1.897   6.855   1.662 -0.3181  0.7502  0.5608
  179TIP3   OH2  497   6.425   2.279   3.118  0.1301  0.3876  0.0916
  179TIP3    H1  498   6.378   2.197   3.112  1.3922 -0.3597  0.2797
  179TIP3    H2  499   6.405   2.312   3.206  0.0616  0.0074  0.2181
  180TIP3   OH2  500   4.419   0.115   0.328  0.6338  0.5001  0.0493
  180TIP3    H1  501   4.498   0.133   0.277  0.6737  2.1680  0.6447
  180TIP3    H2  502   4.449   0.061   0.401  1.0801  0.4877 -0.1442
  181TIP3   OH2  503   6.215   4.431   5.172 -0.0349  0.3751  0.5358
  181TIP3    H1  504   6.250   4.343   5.187  1.7502  0.8105 -0.8645
  181TIP3    H2  505   6.229   4.477   5.255 -1.9557 -0.9501  1.6298
  182TIP3   OH2  506   3.841   2.350   1.297  0.0813  0.3831 -0.0207
  182TIP3    H1  507   3.932   2.358   1.267  0.6817 -0.7009  1.4902
  182TIP3    H2  508   3.847   2.352   1.392 -1.3235 -1.2892  0.1186
  183TIP3   OH2  509   5.729   0.565   1.646  0.3101  0.0338  0.1470
  183TIP3    H1  510   5.783   0.643   1.635  0.3620  0.0168  0.2867
  183TIP3    H2  511   5.676   0.583   1.723  0.3665 -0.0954  0.2153
  184TIP3   OH2  512   5.046   1.431   0.384  0.4310 -0.5973 -0.4283
  184TIP3    H1  513   5.027   1.471   0.469  1.2559 -2.5437  0.6953
  184TIP3    H2  514   5.140   1.443   0.372  0.1441  0.6166 -1.5789
  185TIP3   OH2  515   3.415   0.559   0.951  0.3472  0.0573  0.2594
  185TIP3    H1  516   3.329   0.545   0.910 -0.0987  1.7583  0.5828
  185TIP3    H2  517   3.454   0.630   0.899  0.5700  0.9142  1.5915
  186TIP3   OH2  518   3.559   0.286   0.363 -0.0284 -0.1200  0.1142
  186TIP3    H1  519   3.612   0.326   0.294 -1.7143 -0.3661 -1.3638
  186TIP3    H2  520   3.490   0.350   0.380 -0.4034 -0.6562  0.6135
  187TIP3   OH2  521   3.076   1.583   0.348 -0.3524 -0.6120  0.1533
  187TIP3    H1  522   3.044   1.673   0.341  0.0510 -0.2407  2.7836
  187TIP3    H2  523   3.021   1.534   0.287 -0.0232  1.5314 -1.9419
  188TIP3   OH2  524   4.693   1.054   1.562 -0.1738 -0.0825  0.0353
  188TIP3    H1  525   4.693   1.141   1.521 -2.4611 -0.0958 -0.0577
  188TIP3    H2  526   4.605   1.044   1.597  0.4010 -1.9327  1.0325
  189TIP3   OH2  527   0.602   6.991   1.520  0.2850 -0.5455 -0.4835
  189TIP3    H1  528   0.599   6.983   1.616  0.4093 -1.3347 -0.5351
  189TIP3    H2  529   0.579   7.082   1.502 -0.1252 -0.4940  0.2784
  190TIP3   OH2  530   5.294   2.246   1.363 -0.1213  0.2624  0.2957
  190TIP3    H1  531   5.224   2.250   1.298  1.9636  0.4135 -2.0067
  190TIP3    H2  532   5.309   2.338   1.387 -0.3603  0.2672  0.4352
  191TIP3   OH2  533   1.450   6.282   2.912 -0.3421  0.4757  0.1010
  191TIP3    H1  534   1.489   6.337   2.981  0.1844  0.2612 -0.0226
  191TIP3    H2  535   1.524   6.262   2.853 -0.6712  0.1828 -0.2126
  192TIP3   OH2  536   6.054   0.845   2.477 -0.1896  0.0532  0.0226
  192TIP3    H1  537   6.087   0.915   2.533 -0.9266 -0.6409  1.3381
  192TIP3    H2  538   5.959   0.847   2.490 -0.4083  0.0676 -1.4334
  193TIP3   OH2  539   5.008   2.560   1.400 -0.1711 -0.6053 -0.2229
  193TIP3    H1  540   5.017   2.626   1.469  0.4477 -1.0683  0.1375
  193TIP3    H2  541   4.916   2.566   1.374 -0.3083 -0.1421  0.3544
  194TIP3   OH2  542   1.645   3.840   6.194 -0.3055  0.2694 -0.3813
  194TIP3    H1  543   1.667   3.830   6.286 -1.3906  0.1507 -0.1218
  194TIP3    H2  544   1.683   3.764   6.151  2.0051  1.3873 -0.3723
  195TIP3   OH2  545   7.110   1.218   5.005  0.0570 -0.2695  0.6897
  195TIP3    H1  546   7.084   1.274   4.932 -1.6205  0.7789  2.0680
  195TIP3    H2  547   7.195   1.253   5.032  0.1529  0.0566 -0.0043
  196TIP3   OH2  548   2.924   0.115   5.292  0.4138  0.1162 -0.2577
  196TIP3    H1  549   2.994   0.052   5.308 -1.0039 -1.7405 -1.1918
  196TIP3    H2  550   2.939   0.184   5.356  1.7549 -1.3669  1.0589
  197TIP3   OH2  551   1.166   4.929   0.380 -0.2468  0.2428 -0.1328
  197TIP3    H1  552   1.071   4.924   0.371 -0.1520 -2.9797  0.0481
  197TIP3    H2  553   1.184   4.896   0.468  1.1517 -1.0840 -0.8838
  198TIP3   OH2  554   5.388   1.145   1.312  0.0288  0.0941 -0.2686
  198TIP3    H1  555   5.413   1.150   1.405 -0.3723  0.6934 -0.1895
  198TIP3    H2  556   5.466   1.175   1.265 -0.4431  1.7255 -0.0331
  199TIP3   OH2  557   5.531   1.110   1.579  0.1205  0.3849  0.0038
  199TIP3    H1  558   5.618   1.104   1.539 -1.3486  1.4068 -3.5251
  199TIP3    H2  559   5.518   1.203   1.595 -1.1354  0.4821 -1.4654
  200TIP3   OH2  560   4.742   0.752   1.319  0.4948 -0.6650 -0.0394
  200TIP3    H1  561   4.831   0.737   1.350  1.2600 -0.3875 -2.0043
  200TIP3    H2  562   4.740   0.712   1.232 -0.9092  0.4424 -0.5391
  201TIP3   OH2  563   4.932   0.930   2.411  0.2121 -0.5579 -0.0885
  201TIP3    H1  564   4.850   0.961   2.373 -0.0150 -1.3192 -0.2116
  201TIP3    H2  565   4.978   0.887   2.339 -0.2762 -2.1221  0.5140
  202TIP3   OH2  566   4.718   2.182   1.130  0.0648  0.3307 -0.4279
  202TIP3    H1  567   4.773   2.228   1.194  1.2053 -1.1330 -0.3257
  202TIP3    H2  568   4.633   2.175   1.173  0.1880  1.3521  0.0089
  203TIP3   OH2  569   5.494   4.022   0.020 -0.0219  0.2751 -0.4111
  203TIP3    H1  570   5.494   4.116   0.003  0.0610  0.3033 -0.2489
  203TIP3    H2  571   5.411   4.006   0.064  0.1751  0.3455 -0.0185
  204TIP3   OH2  572   6.462   1.334   1.932 -0.5039 -0.3172  0.4642
  204TIP3    H1  573   6.555   1.355   1.944 -1.2383  2.7839  1.3094
  204TIP3    H2  574   6.449   1.341   1.837 -0.1140  0.3925  0.4569
  205TIP3   OH2  575   2.208   6.064   0.428  0.0883  0.6356 -0.0878
  205TIP3    H1  576   2.182   6.155   0.417 -0.9308  0.6070  1.8450
  205TIP3    H2  577   2.304   6.067   0.430  0.0581  1.6688  0.0479
  206TIP3   OH2  578   3.182   6.059   1.292 -0.4922 -0.0353  0.0289
  206TIP3    H1  579   3.106   6.085   1.239 -0.7689  1.4922  1.1535
  206TIP3    H2  580   3.154   6.072   1.382  0.4155 -1.4415  0.5308
  207TIP3   OH2  581   6.599   1.812   2.486  0.2068  0.1057  0.2274
  207TIP3    H1  582   6.567   1.857   2.408  0.0504  1.4566  1.0381
  207TIP3    H2  583   6.526   1.755   2.512 -0.3113  0.7363  0.1965
  208TIP3   OH2  584   1.345   5.866   6.188  0.3107 -0.0924 -0.2751
  208TIP3    H1  585   1.394   5.916   6.122 -0.5186  2.8941  1.2593
  208TIP3    H2  586   1.254   5.891   6.174 -0.3878 -2.7805 -0.7364
  209TIP3   OH2  587   5.103   1.889   2.605  0.7376 -0.4821  0.3718
  209TIP3    H1  588   5.098   1.823   2.675 -2.2062 -0.4831  0.2440
  209TIP3    H2  589   5.150   1.845   2.535 -0.3861 -2.1723  0.6378
  210TIP3   OH2  590   6.069   1.455   2.138  0.2182  0.2309  0.0318
  210TIP3    H1  591   6.080   1.547   2.161  0.3179  0.4710 -0.9617
  210TIP3    H2  592   6.154   1.416   2.156 -0.1503  0.0917  1.5303
  211TIP3   OH2  593   6.391   3.851   4.396 -0.3586 -0.3199  0.5133
  211TIP3    H1  594   6.389   3.856   4.492  1.1113  1.0728  0.4988
  211TIP3    H2  595   6.462   3.910   4.371 -1.3695  0.0776 -1.4964
  212TIP3   OH2  596   0.306   0.303   0.756  0.0050  0.2000  0.0909
  212TIP3    H1  597   0.344   0.293   0.843  3.3757  0.6494 -1.2628
  212TIP3    H2  598   0.294   0.213   0.725  0.1460  0.0600  0.4359
  213TIP3   OH2  599   1.722   3.202   2.104 -0.2969 -0.3770 -0.1703
  213TIP3    H1  600   1.692   3.292   2.095  0.0609  0.0042  2.0957
  213TIP3    H2  601   1.773   3.185   2.025 -2.5458  0.5092 -1.8602
  214TIP3   OH2  602   1.217   1.044   1.708 -0.4448  0.1782 -0.6877
  214TIP3    H1  603   1.212   1.084   1.795 -0.3910  1.6436 -1.3533
  214TIP3    H2  604   1.131   1.059   1.670 -0.7659 -1.2508 -0.5701
  215TIP3   OH2  605   0.487   3.963   2.216  0.2490  0.6308 -0.1281
  215TIP3    H1  606   0.578   3.948   2.188 -0.1610 -2.4257  0.0485
  215TIP3    H2  607   0.492   3.971   2.311  0.1711 -0.7983 -0.0062
  216TIP3   OH2  608   0.572   2.003   2.833 -0.0861  0.2010 -0.1071
  216TIP3    H1  609   0.634   2.029   2.765  0.6743 -1.3168 -0.0066
  216TIP3    H2  610   0.508   1.948   2.787 -0.8749  1.0469 -0.0368
  217TIP3   OH2  611   0.761   2.177   1.732 -0.0638  0.2387 -0.3152
  217TIP3    H1  612   0.748   2.151   1.824 -0.5939  3.1600  0.4966
  217TIP3    H2  613   0.797   2.100   1.690 -0.6335 -1.4435  2.1744
  218TIP3   OH2  614   2.623   2.061   3.032  0.0312 -0.1713  0.0195
  218TIP3    H1  615   2.679   1.986   3.011 -0.8272 -0.6908 -0.4642
  218TIP3    H2  616   2.616   2.109   2.949 -0.0191  0.0419  0.1460
  219TIP3   OH2  617   7.624   1.871   4.207  0.3413 -0.1417  0.3059
  219TIP3    H1  618   7.625   1.866   4.303  1.7709  1.8559  0.4275
  219TIP3    H2  619   7.557   1.937   4.188 -0.3297 -0.9347 -0.1101
  220TIP3   OH2  620   6.591   0.193   2.742  0.2589 -0.0498 -0.0763
  220TIP3    H1  621   6.518   0.140   2.710  1.2779 -0.3530 -1.9369
  220TIP3    H2  622   6.597   0.171   2.835 -1.8557 -0.1931  0.0406
  221TIP3   OH2  623   1.334   3.327   1.438 -0.0086  0.1306  0.4308
  221TIP3    H1  624   1.373   3.258   1.492  3.2561  0.4186 -1.4013
  221TIP3    H2  625   1.376   3.317   1.352 -1.9289  2.3345 -0.8306
  222TIP3   OH2  626   1.007   2.801   2.823 -0.3498 -0.3124 -0.0543
  222TIP3    H1  627   1.075   2.735   2.836  1.9625  1.7190 -1.3416
  222TIP3    H2  628   1.024   2.866   2.892 -0.3363  0.7074 -0.9994
  223TIP3   OH2  629   0.185   0.920   1.899 -0.3704  1.0524  0.2470
  223TIP3    H1  630   0.091   0.932   1.882 -1.0835 -3.6447  0.1959
  223TIP3    H2  631   0.191   0.905   1.993 -0.0104 -0.8607 -0.0540
  224TIP3   OH2  632   4.802   2.226   0.478  0.3715 -0.1156 -0.1087
  224TIP3    H1  633   4.774   2.303   0.428  1.0848  1.2598  1.5843
  224TIP3    H2  634   4.721   2.178   0.495 -0.0439  0.1062 -1.4166
  225TIP3   OH2  635   3.163   2.079   0.937  0.0086 -0.3035  0.2891
  225TIP3    H1  636   3.193   2.137   0.867  1.0762 -0.5149  0.5598
  225TIP3    H2  637   3.122   2.005   0.891 -3.6885  1.8498 -0.0191
  226TIP3   OH2  638   0.163   1.987   1.850 -0.3098  0.3671  0.1252
  226TIP3    H1  639   0.177   1.968   1.757  0.3880 -0.4135  0.3830
  226TIP3    H2  640   0.087   1.933   1.874  0.3069 -0.4194  0.3196
  227TIP3   OH2  641   1.194   1.389   1.907 -0.0917 -0.0520 -0.5945
  227TIP3    H1  642   1.251   1.463   1.889 -0.7278  0.4495 -0.5595
  227TIP3    H2  643   1.118   1.427   1.951 -0.2312 -0.7774 -0.2016
  228TIP3   OH2  644   3.324   2.375   1.641  0.3531 -0.0198 -0.1450
  228TIP3    H1  645   3.378   2.419   1.708 -0.8574 -0.1257  0.9208
  228TIP3    H2  646   3.238   2.366   1.682 -0.8779  1.3702 -2.3379
  229TIP3   OH2  647   5.863   4.445   6.246 -0.4828 -0.3127 -0.1311
  229TIP3    H1  648   5.937   4.484   6.199 -0.0250  0.8916  1.5678
  229TIP3    H2  649   5.883   4.457   6.339 -2.1737 -1.1869  0.3821
  230TIP3   OH2  650   3.378   2.843   1.128  0.1332  0.1224 -0.0618
  230TIP3    H1  651   3.428   2.838   1.210 -0.7642  1.0357  0.5569
  230TIP3    H2  652   3.409   2.768   1.077 -0.4215 -1.4047  1.7583
  231TIP3   OH2  653   0.849   1.523   1.672 -0.2566  0.3794 -0.0488
  231TIP3    H1  654   0.888   1.578   1.604  0.0712  0.8368  0.4987
  231TIP3    H2  655   0.922   1.475   1.709 -0.1620  1.4004  1.1258
  232TIP3   OH2  656   0.455   0.633   1.537  0.0549  0.4925 -0.2356
  232TIP3    H1  657   0.402   0.638   1.616 -0.1302  1.6923 -0.4372
  232TIP3    H2  658   0.537   0.678   1.559  1.2675 -1.8562  0.2703
  233TIP3   OH2  659   1.889   4.447   5.490  0.0325 -0.9297  0.1984
  233TIP3    H1  660   1.806   4.405   5.512 -0.0809  0.6184  2.9363
  233TIP3    H2  661   1.955   4.394   5.533  0.1290 -0.1239  1.0806
  234TIP3   OH2  662   3.765   1.361   0.804  0.1203 -0.0147  0.1607
  234TIP3    H1  663   3.799   1.440   0.847 -2.1657  2.0178 -1.6549
  234TIP3    H2  664   3.721   1.394   0.726  0.5498 -3.2763 -1.5043
  235TIP3   OH2  665   3.535   2.484   1.184 -0.0618  0.1944 -0.6123
  235TIP3    H1  666   3.470   2.490   1.254 -0.4925 -0.0426 -0.9864
  235TIP3    H2  667   3.524   2.563   1.132  0.2695  0.3790 -0.4043
  236TIP3   OH2  668   1.148   1.477   2.368  0.2218 -0.2338  0.4617
  236TIP3    H1  669   1.236   1.513   2.352 -0.0766 -0.3692 -1.6983
  236TIP3    H2  670   1.093   1.554   2.380  0.4898 -0.1250  1.0128
  237TIP3   OH2  671   7.546   6.707   0.511  0.2311  0.3792 -0.0963
  237TIP3    H1  672   7.483   6.765   0.467 -0.3375 -1.2740 -1.5279
  237TIP3    H2  673   7.503   6.621   0.511  1.2371 -0.1365  1.6210
  238TIP3   OH2  674   3.104   2.622   1.289 -0.1795 -0.3135  0.0028
  238TIP3    H1  675   3.151   2.570   1.224  0.0767 -1.3042  0.9745
  238TIP3    H2  676   3.163   2.628   1.363 -2.3069 -3.2633  2.0442
  239TIP3   OH2  677   3.501   0.587   2.534 -0.2998 -0.3324 -0.9362
  239TIP3    H1  678   3.449   0.566   2.611  0.7502 -2.3253 -0.7407
  239TIP3    H2  679   3.577   0.634   2.568  0.1206 -1.1363 -0.7490
  240TIP3   OH2  680   2.597   1.595   2.200 -0.0401 -0.4269 -0.3385
  240TIP3    H1  681   2.650   1.612   2.278  0.1863  1.1501 -0.8276
  240TIP3    H2  682   2.507   1.609   2.228 -0.1624 -2.1240  0.2251
  241TIP3   OH2  683   7.448   2.788   0.159  0.3352  0.7588  0.1646
  241TIP3    H1  684   7.392   2.832   0.095 -4.0302 -2.3852  1.5385
  241TIP3    H2  685   7.480   2.711   0.113 -0.9074 -0.2628  0.9569
  242TIP3   OH2  686   3.995   3.349   2.899 -0.5142  0.1761  0.0343
  242TIP3    H1  687   3.940   3.272   2.885  0.8993 -1.0113  0.8759
  242TIP3    H2  688   4.026   3.340   2.989 -1.1405  2.2769  0.4845
  243TIP3   OH2  689   4.406   4.379   6.269 -0.2817  0.4998  0.4263
  243TIP3    H1  690   4.327   4.389   6.321  0.9656 -2.8297  3.1280
  243TIP3    H2  691   4.425   4.285   6.270  2.8763  1.0289 -1.3450
  244TIP3   OH2  692   1.074   3.882   1.666 -0.0988 -0.0674  0.2172
  244TIP3    H1  693   1.060   3.793   1.698  1.9764 -0.7978 -0.7771
  244TIP3    H2  694   1.130   3.923   1.732 -1.1229  0.5561  0.7181
  245TIP3   OH2  695   5.930   4.113   6.012  0.1896  0.1685  0.2625
  245TIP3    H1  696   5.900   4.145   5.927  0.6798 -2.9527 -1.1688
  245TIP3    H2  697   5.851   4.109   6.066 -0.6178 -0.3740 -0.9300
  246TIP3   OH2  698   0.931   2.187   2.829  0.4822  0.2701  0.5291
  246TIP3    H1  699   0.979   2.151   2.904  0.5979  1.0643  0.8443
  246TIP3    H2  700   0.869   2.249   2.868 -0.8812 -0.8345  0.1313
  247TIP3   OH2  701   4.878   0.004   4.212  0.0647  0.0065  0.3330
  247TIP3    H1  702   4.837   0.060   4.278 -0.4004  0.2829 -0.1935
  247TIP3    H2  703   4.854   0.043   4.128  2.9665  1.2894  0.0452
  248TIP3   OH2  704   1.671   1.814   1.662  0.2795 -0.2555  0.8136
  248TIP3    H1  705   1.661   1.794   1.755  1.7969  0.7917  1.2274
  248TIP3    H2  706   1.762   1.844   1.654 -0.2492  0.9891 -0.7686
  249TIP3   OH2  707   1.469   1.487   0.784 -0.1046 -0.1445 -0.8579
  249TIP3    H1  708   1.549   1.436   0.797 -0.1038  0.2018  0.5812
  249TIP3    H2  709   1.499   1.576   0.769 -0.1589 -0.3255 -2.0832
  250TIP3   OH2  710   2.430   0.287   0.703  0.1804  0.2626  0.0319
  250TIP3    H1  711   2.377   0.331   0.769  2.3700  0.3791  1.7958
  250TIP3    H2  712   2.379   0.210   0.678 -0.3128 -0.2426  2.5032
  251TIP3   OH2  713   0.196   1.596   1.593  0.1914 -0.0949 -0.4028
  251TIP3    H1  714   0.234   1.617   1.508 -1.5397  1.4396 -0.8385
  251TIP3    H2  715   0.132   1.666   1.608 -0.3478 -0.9939  1.6207
  252TIP3   OH2  716   4.198   1.256   2.783  0.2464 -0.2848 -0.1540
  252TIP3    H1  717   4.252   1.210   2.719  0.9267  0.1498  0.1086
  252TIP3    H2  718   4.121   1.200   2.793 -0.3957  0.1791 -2.1881
  253TIP3   OH2  719   2.290   1.684   2.600 -0.3094 -0.4989 -0.0234
  253TIP3    H1  720   2.269   1.654   2.511  1.2767  1.0101 -0.9257
  253TIP3    H2  721   2.346   1.615   2.635  0.6144 -0.2100 -0.8976
  254TIP3   OH2  722   0.104   7.145   0.822 -0.2539  0.7280  0.6686
  254TIP3    H1  723   0.153   7.066   0.800 -1.2489  0.5683 -1.0590
  254TIP3    H2  724   0.109   7.199   0.743 -2.7553  0.7504  0.4845
  255TIP3   OH2  725   2.157   1.527   2.005 -0.3905 -0.0979  0.3796
  255TIP3    H1  726   2.192   1.548   2.091  1.8077 -1.2534 -0.1945
  255TIP3    H2  727   2.147   1.432   2.005 -0.5904 -0.0856 -0.5434
  256TIP3   OH2  728   3.031   0.900   2.484 -0.2210  0.1042  0.4101
  256TIP3    H1  729   3.094   0.940   2.544 -0.4015  0.3834  0.4182
  256TIP3    H2  730   3.009   0.816   2.524  0.6714 -0.3079  0.0528
  257TIP3   OH2  731   0.343   1.327   1.156  0.2367 -0.0476 -0.1242
  257TIP3    H1  732   0.413   1.338   1.221 -1.8660 -0.9652  2.3797
  257TIP3    H2  733   0.306   1.241   1.174 -0.4812 -0.2753 -2.4915
  258TIP3   OH2  734   1.111   0.011   2.850  0.4450  0.1955 -0.4341
  258TIP3    H1  735   1.130   0.081   2.788  0.0981 -2.2742 -3.4335
  258TIP3    H2  736   1.197  -0.028   2.868  0.6249  1.2442  1.1697
  259TIP3   OH2  737   0.373   5.931   2.436 -0.2047  0.0409 -0.3132
  259TIP3    H1  738   0.283   5.911   2.409 -0.5446  0.6078  0.3875
  259TIP3    H2  739   0.382   6.025   2.420  0.0981  0.0796  0.0820
  260TIP3   OH2  740   4.288   3.835   3.454  0.2731 -0.4861 -0.2552
  260TIP3    H1  741   4.289   3.739   3.456  0.7642 -0.4983 -0.9329
  260TIP3    H2  742   4.350   3.861   3.522 -0.3010 -0.6381  0.3354
  261TIP3   OH2  743   7.602   5.050   4.236 -0.2480 -0.4114  0.3356
  261TIP3    H1  744   7.655   5.093   4.169 -0.7265 -0.5086 -0.1081
  261TIP3    H2  745   7.512   5.077   4.217 -0.4888 -1.1729  0.3871
  262TIP3   OH2  746   1.555   0.375   1.847 -0.3683 -0.0459 -0.2668
  262TIP3    H1  747   1.560   0.419   1.931  0.7437 -1.3001  0.3328
  262TIP3    H2  748   1.579   0.443   1.783 -0.0573  0.5804  0.5095
  263TIP3   OH2  749   2.004   0.525   1.287  0.1669  0.5764  0.6027
  263TIP3    H1  750   2.005   0.610   1.243  1.3365 -0.2295 -0.9761
  263TIP3    H2  751   2.072   0.475   1.243 -0.6141 -1.2340  1.4243
  264TIP3   OH2  752   0.993   0.986   2.302  0.3108  0.2653 -0.5306
  264TIP3    H1  753   1.009   1.076   2.275 -2.9589  1.7359  2.2371
  264TIP3    H2  754   0.921   0.957   2.246  0.7021 -0.3472 -0.7294
  265TIP3   OH2  755   0.948   0.977   1.005 -0.0424 -0.2580 -0.2858
  265TIP3    H1  756   0.961   1.056   1.058 -0.8195  0.0008 -0.4750
  265TIP3    H2  757   0.883   0.926   1.054 -3.3904  1.5624 -2.6344
  266TIP3   OH2  758   5.898   5.773   5.457  0.5449 -0.6018  0.0458
  266TIP3    H1  759   5.888   5.681   5.434  3.4645 -1.1541  0.7878
  266TIP3    H2  760   5.887   5.775   5.553 -1.2222  0.1241 -0.1427
  267TIP3   OH2  761   6.706   1.472   1.977 -0.1559  0.0928 -0.2333
  267TIP3    H1  762   6.667   1.530   2.042  0.7499 -0.2504  0.6345
  267TIP3    H2  763   6.734   1.531   1.907 -2.2001  0.3378 -0.8662
  268TIP3   OH2  764   1.019   1.935   3.777  0.1532  0.3194  0.1534
  268TIP3    H1  765   1.044   1.998   3.844  2.1678  1.3709 -1.5291
  268TIP3    H2  766   1.077   1.861   3.791  0.3940  0.4312 -0.2458
  269TIP3   OH2  767   3.896   0.218   0.080  0.0920 -0.4076  0.2287
  269TIP3    H1  768   3.900   0.171  -0.003 -2.0771 -1.5360  0.7104
  269TIP3    H2  769   3.916   0.152   0.147  1.6465  0.4451  0.6205
  270TIP3   OH2  770   1.266   0.085   0.295  0.1959 -0.4083 -0.7528
  270TIP3    H1  771   1.273   0.146   0.221  0.0377  0.0551 -0.3870
  270TIP3    H2  772   1.173   0.064   0.299 -0.2297  1.6168  0.9466
  271TIP3   OH2  773   4.707   4.326   5.601 -0.5310  0.5915  0.0309
  271TIP3    H1  774   4.636   4.344   5.662  1.1624  1.2631  1.8471
  271TIP3    H2  775   4.712   4.405   5.547 -2.4018 -0.2300 -1.3906
  272TIP3   OH2  776   7.341   0.355   1.348 -0.2084 -0.6300  0.0456
  272TIP3    H1  777   7.345   0.426   1.412 -2.6659 -1.5381  1.2753
  272TIP3    H2  778   7.418   0.301   1.368 -0.5742 -0.5408  1.8010
  273TIP3   OH2  779   0.084   0.951   1.347 -0.1585  0.1129  0.2251
  273TIP3    H1  780   0.061   0.862   1.318  0.3096  0.5275 -1.4844
  273TIP3    H2  781   0.099   0.999   1.265 -0.1212  1.6906  1.1480
  274TIP3   OH2  782   1.577   2.072   1.614 -0.0259 -0.2403 -0.4717
  274TIP3    H1  783   1.482   2.082   1.620  0.2308  0.6362  3.7617
  274TIP3    H2  784   1.592   1.979   1.627 -0.2349 -0.1844  0.1773
  275TIP3   OH2  785   4.980   1.401   2.779  0.2449  0.0155 -0.4150
  275TIP3    H1  786   5.044   1.451   2.728 -0.1018  0.8719 -0.0177
  275TIP3    H2  787   5.025   1.380   2.861  1.2910 -2.5578 -1.5914
  276TIP3   OH2  788   0.434   0.810   1.995 -0.3120  0.2515  0.1483
  276TIP3    H1  789   0.424   0.728   2.043  2.9887 -1.6688 -2.2127
  276TIP3    H2  790   0.361   0.811   1.933 -0.7987 -0.4751  0.7009
  277TIP3   OH2  791   1.805   1.169   1.756 -0.1659  0.4470 -0.2264
  277TIP3    H1  792   1.754   1.237   1.713  0.4479  1.6157  0.8738
  277TIP3    H2  793   1.754   1.145   1.834  0.7443  1.3474  0.6695
  278TIP3   OH2  794   1.162   0.923   3.472 -0.3158 -0.0868  0.0828
  278TIP3    H1  795   1.147   0.907   3.565  1.4993  3.1846  1.0210
  278TIP3    H2  796   1.241   0.977   3.469 -0.7344  0.4622 -3.3185
  279TIP3   OH2  797   7.439   0.962   1.769 -0.0584  0.2548 -0.6428
  279TIP3    H1  798   7.420   0.976   1.676 -1.8763  1.0516 -0.1645
  279TIP3    H2  799   7.418   0.870   1.784  1.9022 -0.3473 -1.3895
  280TIP3   OH2  800   1.783   1.683   0.194 -0.5966 -0.1826 -0.7214
  280TIP3    H1  801   1.852   1.633   0.151  1.5755  1.8654  0.2836
  280TIP3    H2  802   1.828   1.732   0.262 -3.5978 -1.5310  2.3815
  281TIP3   OH2  803   0.890   6.938   0.812 -0.0305  0.2300  0.6925
  281TIP3    H1  804   0.841   6.873   0.761  0.8335 -0.1168  0.2910
  281TIP3    H2  805   0.833   7.015   0.815 -0.6159 -0.1891  0.2657
  282TIP3   OH2  806   1.499   6.843   1.285  0.3964  0.3758  0.0944
  282TIP3    H1  807   1.564   6.792   1.334  0.1853 -0.4972 -0.5235
  282TIP3    H2  808   1.538   6.855   1.199 -0.0502  0.2721 -0.1235
  283TIP3   OH2  809   5.118   6.618   1.719 -0.3323  0.6679  0.0628
  283TIP3    H1  810   5.112   6.691   1.781  4.2995  0.8677  0.4376
  283TIP3    H2  811   5.130   6.661   1.634  3.2338  0.4444  0.3890
  284TIP3   OH2  812   1.150   2.582   0.208  0.2884 -0.5334  0.0569
  284TIP3    H1  813   1.159   2.493   0.243  0.0120 -0.0991  1.2569
  284TIP3    H2  814   1.227   2.628   0.239  0.6326 -0.4585 -0.9048
  285TIP3   OH2  815   6.793   7.207   0.721 -0.0641 -0.1660 -0.0231
  285TIP3    H1  816   6.792   7.166   0.634  0.2375  0.7247 -0.4643
  285TIP3    H2  817   6.855   7.280   0.711  0.9789 -0.8467  1.3129
  286TIP3   OH2  818   1.384   7.243   1.364 -0.7012 -0.1026  0.0744
  286TIP3    H1  819   1.382   7.338   1.357 -2.3424  0.0321  1.9731
  286TIP3    H2  820   1.320   7.212   1.299 -1.6557  0.1980  0.8598
  287TIP3   OH2  821   1.857   2.553   2.393  0.0724  0.4524  0.0349
  287TIP3    H1  822   1.800   2.486   2.355 -1.2847  1.6405 -0.0823
  287TIP3    H2  823   1.796   2.618   2.429  1.3345  2.4526 -1.3082
  288TIP3   OH2  824   3.343   0.271   1.101 -0.0785  0.3859 -0.7022
  288TIP3    H1  825   3.363   0.352   1.149  0.9259  0.1319 -0.6711
  288TIP3    H2  826   3.256   0.245   1.131  0.1179  0.7846  0.2192
  289TIP3   OH2  827   0.992   1.136   1.593  0.2062 -0.4894 -0.1255
  289TIP3    H1  828   0.948   1.210   1.553  1.0840 -0.7268 -1.5543
  289TIP3    H2  829   0.954   1.059   1.551  0.1869 -0.8117  0.4638
  290TIP3   OH2  830   7.704   1.008   2.798  0.2730 -0.1120 -0.0880
  290TIP3    H1  831   7.672   1.066   2.730  0.2419 -0.4254 -0.3410
  290TIP3    H2  832   7.671   1.045   2.880  0.9914  0.7246 -0.1711
  291TIP3   OH2  833   4.334   0.433   0.852  0.1250 -0.9522 -0.4367
  291TIP3    H1  834   4.360   0.342   0.862  0.6787 -0.8194 -0.6408
  291TIP3    H2  835   4.244   0.429   0.818  0.7452 -1.4279 -2.0702
  292TIP3   OH2  836   6.401   6.032   1.585  0.4641 -0.1613 -0.1519
  292TIP3    H1  837   6.454   6.105   1.554  0.7990  0.1663  1.2015
  292TIP3    H2  838   6.384   5.980   1.506  0.9102  0.9265 -0.9725
  293TIP3   OH2  839   3.578   2.220   0.577 -0.1863  0.0488 -0.0150
  293TIP3    H1  840   3.632   2.212   0.497 -0.1397  1.2967 -0.1221
  293TIP3    H2  841   3.492   2.245   0.545 -0.1441  0.6432  0.3309
  294TIP3   OH2  842   1.709   1.322   2.253  0.0905  0.0177  0.0960
  294TIP3    H1  843   1.651   1.282   2.317  0.6105  1.3160  1.4201
  294TIP3    H2  844   1.787   1.347   2.304  1.3139 -0.6406 -1.4094
  295TIP3   OH2  845   1.409   1.199   2.672  0.2485  0.1872 -0.3733
  295TIP3    H1  846   1.333   1.208   2.614 -0.2982  0.9433  0.4454
  295TIP3    H2  847   1.472   1.263   2.640  0.4607 -0.3006 -0.9303
  296TIP3   OH2  848   2.758   1.323   1.122  0.0592 -0.3170  0.2292
  296TIP3    H1  849   2.760   1.232   1.152 -0.2200 -0.2135  0.5747
  296TIP3    H2  850   2.767   1.318   1.027 -2.2384 -0.8502 -0.0033
  297TIP3   OH2  851   2.230   0.376   0.933  0.5210 -0.8510  0.0277
  297TIP3    H1  852   2.238   0.361   1.027  0.0358  0.1151  0.2254
  297TIP3    H2  853   2.140   0.406   0.921  0.7477 -0.4281 -0.6678
  298TIP3   OH2  854   1.112   0.787   2.797  0.2765 -0.5278  0.2107
  298TIP3    H1  855   1.202   0.819   2.792 -0.9929  3.7147  1.6897
  298TIP3    H2  856   1.071   0.819   2.716 -0.5168 -0.1526  0.7473
  299TIP3   OH2  857   2.585   0.686   1.414 -1.2831  0.0252 -0.0441
  299TIP3    H1  858   2.621   0.719   1.496 -0.5169 -1.2287  0.1400
  299TIP3    H2  859   2.656   0.633   1.377 -1.5323  0.7837 -1.6387
  300TIP3   OH2  860   2.597   2.919   1.868  0.1381  0.3092  0.0434
  300TIP3    H1  861   2.674   2.927   1.812 -0.1353  1.7677 -0.1427
  300TIP3    H2  862   2.594   3.001   1.917 -2.0182  0.8195 -0.8984
  301TIP3   OH2  863   3.480   6.220   6.061  0.6130  0.5966 -0.1382
  301TIP3    H1  864   3.422   6.158   6.106  0.4336  1.0309  0.2346
  301TIP3    H2  865   3.501   6.178   5.978 -0.8262  0.7554 -0.5898
  302TIP3   OH2  866   2.570   0.751   0.663  0.0439 -0.0120  0.3599
  302TIP3    H1  867   2.540   0.765   0.573  1.0647  0.0370  0.0113
  302TIP3    H2  868   2.491   0.728   0.712 -0.8531  2.0301 -0.0980
  303TIP3   OH2  869   6.404   4.479   6.334  0.0332  0.2011 -0.4611
  303TIP3    H1  870   6.475   4.543   6.324  3.1606 -3.0249  0.2189
  303TIP3    H2  871   6.404   4.458   6.427 -1.0910 -0.6960 -0.6545
  304TIP3   OH2  872   5.722   2.882   2.042  0.1407 -0.1150 -0.0409
  304TIP3    H1  873   5.776   2.867   1.964 -0.9315 -1.5327 -0.5459
  304TIP3    H2  874   5.708   2.795   2.078 -0.3501  0.4214  1.0820
  305TIP3   OH2  875   0.236   0.589   3.119 -0.3050 -0.4597  0.8756
  305TIP3    H1  876   0.322   0.561   3.150 -0.6241 -0.2141  1.9993
  305TIP3    H2  877   0.200   0.641   3.190 -0.5226  1.2074 -0.4345
  306TIP3   OH2  878   3.879   0.728   2.195  0.0579 -0.1024 -0.1213
  306TIP3    H1  879   3.971   0.732   2.221  0.2657  1.0356 -1.0080
  306TIP3    H2  880   3.854   0.819   2.180 -0.8032 -0.5177 -1.2883
  307TIP3   OH2  881   7.770   6.144   2.729 -0.3551 -0.4071 -0.2063
  307TIP3    H1  882   7.820   6.225   2.735 -0.0333 -0.6510  0.4693
  307TIP3    H2  883   7.784   6.113   2.640  0.2114 -0.1551 -0.2054
  308TIP3   OH2  884   4.273   5.712   6.261 -0.3637  0.6653 -0.0799
  308TIP3    H1  885   4.232   5.663   6.332  1.1224 -2.1709 -1.0972
  308TIP3    H2  886   4.214   5.699   6.186 -0.2591  0.9404 -0.2137
  309TIP3   OH2  887   0.381   0.633   2.870  0.3325  0.1648  0.2027
  309TIP3    H1  888   0.355   0.725   2.873  0.8060  0.2774  1.0006
  309TIP3    H2  889   0.322   0.589   2.931  1.3937  0.2807  1.3521
  310TIP3   OH2  890   0.762   2.195   0.388  0.1468  0.2319  0.4825
  310TIP3    H1  891   0.771   2.129   0.457 -1.1120 -0.3166  0.1382
  310TIP3    H2  892   0.830   2.171   0.324  1.0640  0.5133  1.3321
  311TIP3   OH2  893   2.917   6.112   5.664 -0.1161  0.5781  0.7686
  311TIP3    H1  894   2.999   6.152   5.635  0.0350 -0.9894 -1.0223
  311TIP3    H2  895   2.919   6.121   5.759  2.5666 -0.2480  0.8409
  312TIP3   OH2  896   7.723   1.323   0.803  0.7731 -0.0080  0.4326
  312TIP3    H1  897   7.698   1.244   0.756  0.2679 -0.2067  1.0390
  312TIP3    H2  898   7.816   1.311   0.823  0.8081 -0.2454  0.1352
  313TIP3   OH2  899   7.507   6.318   2.523  0.2173  0.8196  0.4746
  313TIP3    H1  900   7.493   6.341   2.431  1.0051  2.6691  0.7883
  313TIP3    H2  901   7.554   6.235   2.519  0.0830  0.7845 -0.7916
  314TIP3   OH2  902   1.928   2.063   1.536  0.4630 -0.1334  0.6807
  314TIP3    H1  903   1.926   1.996   1.604  2.4714  0.1544  1.0474
  314TIP3    H2  904   1.959   2.142   1.580 -0.7797  0.7582  0.0001
  315TIP3   OH2  905   5.246   5.852   5.548 -0.2624 -0.3261  0.0839
  315TIP3    H1  906   5.313   5.918   5.562 -1.1090  0.4992  0.2790
  315TIP3    H2  907   5.259   5.823   5.457 -1.1104  1.4996 -0.6409
  316TIP3   OH2  908   2.530   0.857   2.310  0.4704 -0.2528 -0.4520
  316TIP3    H1  909   2.525   0.940   2.262  0.3126 -0.4447 -0.7697
  316TIP3    H2  910   2.449   0.853   2.360  0.9798  0.3064  0.4184
  317TIP3   OH2  911   2.314   2.228   3.008 -0.1815 -0.4246  0.4531
  317TIP3    H1  912   2.381   2.196   2.948  0.4728 -0.3584  1.1360
  317TIP3    H2  913   2.302   2.320   2.985 -1.0744 -0.7962 -0.6081
  318TIP3   OH2  914   3.159   3.204   0.908  0.2521  0.0744  0.7309
  318TIP3    H1  915   3.145   3.275   0.971  1.2375  0.2046  0.8030
  318TIP3    H2  916   3.249   3.175   0.924 -0.1021 -1.1027  0.6075
  319TIP3   OH2  917   0.132   3.172   1.888 -0.1640 -0.1020  0.0825
  319TIP3    H1  918   0.144   3.262   1.860 -1.3414 -0.0483 -0.2625
  319TIP3    H2  919   0.038   3.164   1.904 -0.1819 -1.4792 -0.6371
  320TIP3   OH2  920   0.495   1.590   2.629 -0.1115  0.4708 -0.4659
  320TIP3    H1  921   0.585   1.575   2.600 -0.6049  1.1181 -2.3584
  320TIP3    H2  922   0.458   1.502   2.637  1.4481  0.0262  2.9357
  321TIP3   OH2  923   2.747   1.032   2.837 -0.5137 -0.0548 -0.4519
  321TIP3    H1  924   2.707   1.091   2.901  0.2260 -0.2150  0.1707
  321TIP3    H2  925   2.841   1.050   2.843 -0.4813  0.3077 -1.8840
  322TIP3   OH2  926   7.794   0.449   2.834 -0.0185  0.4204  0.7089
  322TIP3    H1  927   7.789   0.453   2.930  0.8522  1.3670  0.7277
  322TIP3    H2  928   7.744   0.525   2.804 -0.9869 -0.3439  0.3834
  323TIP3   OH2  929   2.850   1.100   1.263  0.1903 -0.1033  0.2737
  323TIP3    H1  930   2.929   1.059   1.227  0.2201  1.0978 -1.0674
  323TIP3    H2  931   2.783   1.032   1.255  1.0127 -1.0376  1.1631
  324TIP3   OH2  932   0.444   1.266   2.143 -0.4401 -0.8788 -0.4870
  324TIP3    H1  933   0.415   1.317   2.067 -1.9436  0.4782  0.9442
  324TIP3    H2  934   0.506   1.324   2.188 -1.3954 -0.6770  0.6062
  325TIP3   OH2  935   5.383   2.749   0.255 -0.3107 -0.4604 -0.2618
  325TIP3    H1  936   5.376   2.781   0.165 -0.8257  0.2895  0.0412
  325TIP3    H2  937   5.361   2.656   0.249  1.7107 -0.9003 -1.2325
  326TIP3   OH2  938   3.098   2.889   1.191 -0.0325  0.6293  0.0899
  326TIP3    H1  939   3.175   2.904   1.136 -0.9023 -0.7788 -1.5109
  326TIP3    H2  940   3.100   2.796   1.210 -1.2076  0.6450  0.2791
  327TIP3   OH2  941   6.180   2.728   3.170 -0.1490  0.4675  0.0176
  327TIP3    H1  942   6.110   2.723   3.106  0.6132  1.0437 -0.8859
  327TIP3    H2  943   6.151   2.794   3.233 -0.0999  1.2528 -0.7723
  328TIP3   OH2  944   3.231   4.125   2.380 -0.1841  0.3801  1.2865
  328TIP3    H1  945   3.321   4.152   2.362 -0.4982 -0.1415 -1.2854
  328TIP3    H2  946   3.233   4.029   2.371 -0.5261  0.1271  3.5744
  329TIP3   OH2  947   5.780   5.149   5.537  0.3242  0.0679 -0.2864
  329TIP3    H1  948   5.825   5.101   5.468  1.2487  2.0531 -1.0730
  329TIP3    H2  949   5.850   5.175   5.598  0.0116  1.5559 -0.5512
  330TIP3   OH2  950   2.555   0.389   2.074  0.2310  0.0183 -0.4905
  330TIP3    H1  951   2.562   0.314   2.134  1.8683  0.5409  0.0004
  330TIP3    H2  952   2.557   0.466   2.131 -0.8943  0.4524 -1.0333
  331TIP3   OH2  953   4.796   5.733   6.137 -0.5774 -0.0138 -0.0292
  331TIP3    H1  954   4.748   5.674   6.078 -1.9072  1.6421 -0.6538
  331TIP3    H2  955   4.728   5.770   6.193  0.4556 -0.2094  1.3652
  332TIP3   OH2  956   4.316   4.370   5.397  1.1128 -0.5180  0.5902
  332TIP3    H1  957   4.320   4.354   5.491  1.2904 -2.5494  0.2681
  332TIP3    H2  958   4.232   4.415   5.384  1.0827 -0.2314  1.7063
  333TIP3   OH2  959   4.282   1.205   0.031 -0.8697  0.1449 -0.2161
  333TIP3    H1  960   4.275   1.301   0.032 -1.5395  0.0955 -0.6596
  333TIP3    H2  961   4.267   1.180   0.122 -0.6099  0.4632 -0.0814
  334TIP3   OH2  962   3.567   1.898   0.815 -0.7473 -0.5260 -0.0393
  334TIP3    H1  963   3.487   1.857   0.849 -0.8215  0.4960  1.0413
  334TIP3    H2  964   3.594   1.958   0.884 -0.2152  0.6960 -1.2858
  335TIP3   OH2  965   2.017   6.671   0.057 -0.0867  0.1443 -0.4845
  335TIP3    H1  966   2.072   6.712   0.123  1.5576 -3.3194  0.3774
  335TIP3    H2  967   1.942   6.731   0.048  0.5258  1.5721  3.1746
  336TIP3   OH2  968   4.274   0.830   0.734  0.0597  0.0473 -0.5404
  336TIP3    H1  969   4.207   0.780   0.688  1.3689 -0.9870 -1.3474
  336TIP3    H2  970   4.286   0.783   0.816 -1.9979  1.6747  0.7597
  337TIP3   OH2  971   1.155   7.338   1.999  0.5018 -0.3690 -0.1341
  337TIP3    H1  972   1.206   7.378   1.929  0.3514 -1.0595 -0.6436
  337TIP3    H2  973   1.100   7.273   1.955 -2.0690  1.5135  0.1823
  338TIP3   OH2  974   3.969   4.852   4.884 -0.5072  0.1964  0.1292
  338TIP3    H1  975   3.943   4.890   4.800 -1.4151  0.3557  0.4773
  338TIP3    H2  976   3.897   4.794   4.907  0.0071 -0.2878  0.5249
  339TIP3   OH2  977   4.753   0.742   1.591 -0.2655 -0.2436  0.5246
  339TIP3    H1  978   4.781   0.824   1.632  1.6512 -1.0294  0.8386
  339TIP3    H2  979   4.716   0.769   1.507  1.6434  0.8394  0.0015
  340TIP3   OH2  980   2.524   7.348   2.271 -0.0393 -0.1200 -0.5588
  340TIP3    H1  981   2.495   7.257   2.277 -2.1724  0.6532  2.0115
  340TIP3    H2  982   2.492   7.378   2.186 -1.9953 -0.9326 -0.1447
  341TIP3   OH2  983   3.927   3.006   1.047 -0.2224 -0.7172 -0.2402
  341TIP3    H1  984   3.881   2.923   1.034  0.6602 -1.2443 -0.1028
  341TIP3    H2  985   3.987   2.988   1.120 -1.4452  0.6417  1.1090
  342TIP3   OH2  986   7.432   7.167   3.026 -0.7719  0.5602 -0.0535
  342TIP3    H1  987   7.517   7.180   2.983 -1.9252  0.5072 -2.4161
  342TIP3    H2  988   7.451   7.107   3.099  1.0642 -0.0914 -1.0279
  343TIP3   OH2  989   1.956   2.046   1.123  0.0613 -0.4229 -0.1317
  343TIP3    H1  990   1.960   2.008   1.036  0.1093 -1.5209  0.3475
  343TIP3    H2  991   1.872   2.093   1.125 -0.5241 -1.4578 -0.3286
  344TIP3   OH2  992   2.607   1.547   0.263 -0.3462 -0.5665 -0.5464
  344TIP3    H1  993   2.632   1.595   0.342 -2.3113  2.3277 -1.6230
  344TIP3    H2  994   2.690   1.528   0.219  0.7662 -2.0411  2.0554
  345TIP3   OH2  995   2.248   0.809   1.905  0.1122 -0.3258 -0.1156
  345TIP3    H1  996   2.281   0.879   1.962 -0.1744 -0.3551  0.0918
  345TIP3    H2  997   2.158   0.835   1.886  0.1098 -0.4747 -0.3069
  346TIP3   OH2  998   7.520   3.819   5.540  0.1662 -0.0367 -0.2952
  346TIP3    H1  999   7.505   3.853   5.452  0.1647  0.5802 -0.0623
  346TIP3    H2 1000   7.476   3.882   5.598  1.3466  0.3348  0.2278
  347TIP3   OH2 1001   4.618   3.192   0.414  0.2226  0.3134  0.0834
  347TIP3    H1 1002   4.544   3.145   0.453  1.1964 -0.0791  1.4867
  347TIP3    H2 1003   4.634   3.147   0.331 -0.6680 -0.0270  0.0930
  348TIP3   OH2 1004   3.079   1.428   2.591  0.0563  0.1756 -0.5167
  348TIP3    H1 1005   3.159   1.387   2.623  1.0880  1.8023 -0.9729
  348TIP3    H2 1006   3.009   1.372   2.623  1.3183 -0.6770  0.7972
  349TIP3   OH2 1007   2.084   1.766   0.136 -0.7427 -0.1511  0.5160
  349TIP3    H1 1008   2.167   1.757   0.183  0.0728  0.4951 -0.7583
  349TIP3    H2 1009   2.050   1.677   0.129  0.5643 -0.5986 -0.2207
  350TIP3   OH2 1010   3.594   3.805   1.805  0.4982  0.3309  0.1641
  350TIP3    H1 1011   3.659   3.858   1.759 -0.4691  0.4108 -1.1495
  350TIP3    H2 1012   3.617   3.715   1.782  0.3848  0.3391  0.0155
  351TIP3   OH2 1013   5.056   1.560   0.607  0.8569  0.0839  0.0880
  351TIP3    H1 1014   5.052   1.587   0.699  0.5402 -0.6812  0.3050
  351TIP3    H2 1015   5.031   1.638   0.558 -1.3266 -0.1552  0.7543
  352TIP3   OH2 1016   4.125   2.032   0.848  0.5812  0.3248  0.1853
  352TIP3    H1 1017   4.144   2.025   0.942  1.0660  2.0349  0.2322
  352TIP3    H2 1018   4.033   2.008   0.840  0.6283 -0.1639  1.0540
  353TIP3   OH2 1019   3.883   1.480   0.501 -0.5587  0.2949 -0.2451
  353TIP3    H1 1020   3.863   1.497   0.409  0.4244 -1.2987 -0.7795
  353TIP3    H2 1021   3.874   1.385   0.510  0.7631  0.2718  0.9415
  354TIP3   OH2 1022   0.240   5.077   6.399  0.0320  0.2797 -0.1262
  354TIP3    H1 1023   0.263   4.991   6.366 -0.0231  0.8557 -1.7096
  354TIP3    H2 1024   0.184   5.115   6.331  1.2081  2.1090 -0.1179
  355TIP3   OH2 1025   5.073   1.478   1.330  0.3147 -0.3506  0.1002
  355TIP3    H1 1026   5.104   1.547   1.271  1.7625 -0.3508  0.8345
  355TIP3    H2 1027   5.109   1.397   1.294  0.3865 -0.4638  0.4205
  356TIP3   OH2 1028   4.460   2.457   0.536 -0.1575 -0.5937 -0.3864
  356TIP3    H1 1029   4.416   2.535   0.569  3.0235  0.7396  0.8623
  356TIP3    H2 1030   4.494   2.414   0.614  0.4709 -1.7885 -1.3074
  357TIP3   OH2 1031   7.470   5.790   5.136 -0.0787 -0.5779  0.5347
  357TIP3    H1 1032   7.464   5.697   5.160  0.0453  0.3111  4.2113
  357TIP3    H2 1033   7.389   5.829   5.169 -0.1391  0.6527 -1.0010
  358TIP3   OH2 1034   3.366   1.026   0.163  0.1139 -0.0057 -0.5232
  358TIP3    H1 1035   3.355   1.052   0.072  2.0186 -1.4579 -1.2130
  358TIP3    H2 1036   3.357   0.931   0.162 -1.1391  0.0751  1.0357
  359TIP3   OH2 1037   2.286   0.653   0.646  0.1574 -0.1442 -0.1039
  359TIP3    H1 1038   2.235   0.583   0.687 -1.5573  1.7216  1.0864
  359TIP3    H2 1039   2.269   0.645   0.553  0.0127 -1.3207  0.0213
  360TIP3   OH2 1040   4.421   1.786   2.639 -0.2039  0.1998 -0.2412
  360TIP3    H1 1041   4.432   1.711   2.698 -0.2796  2.0751  2.2212
  360TIP3    H2 1042   4.502   1.836   2.648  0.4709 -0.3163 -2.9971
  361TIP3   OH2 1043   4.155   3.473   1.215 -0.0733 -0.5627 -0.2066
  361TIP3    H1 1044   4.182   3.508   1.130 -2.0159 -0.8942 -0.9705
  361TIP3    H2 1045   4.128   3.550   1.265 -0.8903 -0.5890 -0.6105
  362TIP3   OH2 1046   3.891   6.220   1.399 -0.0594  0.6179 -0.4059
  362TIP3    H1 1047   3.816   6.269   1.364  0.1963  1.1942 -0.1616
  362TIP3    H2 1048   3.855   6.137   1.428 -0.5038  0.6606 -0.8359
  363TIP3   OH2 1049   3.198   2.582   0.610  0.1611  0.2185 -0.0815
  363TIP3    H1 1050   3.113   2.625   0.606  0.2091  0.2547 -0.9853
  363TIP3    H2 1051   3.206   2.537   0.526  1.5687  1.2466 -0.5307
  364TIP3   OH2 1052   2.632   1.732   1.155  0.3036  0.8357  0.1634
  364TIP3    H1 1053   2.564   1.669   1.133 -0.0815  1.1421  0.4676
  364TIP3    H2 1054   2.637   1.790   1.079 -1.0130  1.8820  0.8409
  365TIP3   OH2 1055   4.922   1.794   0.477  0.1747  0.0161  0.3205
  365TIP3    H1 1056   4.835   1.821   0.506  0.1559  0.1877  0.1065
  365TIP3    H2 1057   4.975   1.873   0.485 -0.0675  0.3393 -1.0728
  366TIP3   OH2 1058   4.222   3.529   0.150  0.2183  0.0522 -0.1953
  366TIP3    H1 1059   4.314   3.557   0.148  0.7991 -1.7513 -0.3011
  366TIP3    H2 1060   4.177   3.588   0.090  0.9149  2.2690  1.4240
  367TIP3   OH2 1061   2.557   3.985   0.644  0.0240 -0.5517 -0.4866
  367TIP3    H1 1062   2.641   3.976   0.600  0.7036 -0.0840  0.7117
  367TIP3    H2 1063   2.578   3.986   0.737 -1.2394  0.2510 -0.1990
  368TIP3   OH2 1064   4.812   4.192   0.466 -0.0543 -0.1737 -0.2781
  368TIP3    H1 1065   4.826   4.099   0.483  0.7536  0.2160  1.2131
  368TIP3    H2 1066   4.717   4.203   0.473 -0.4212 -1.3307 -2.8690
  369TIP3   OH2 1067   1.942   0.985   2.415 -0.0720 -0.0285 -0.7980
  369TIP3    H1 1068   1.986   1.070   2.429 -0.8947  0.4303 -0.9679
  369TIP3    H2 1069   1.929   0.981   2.320  1.0886 -0.9216 -0.9393
  370TIP3   OH2 1070   1.710   1.685   1.140 -0.5198  0.1367  0.1139
  370TIP3    H1 1071   1.783   1.740   1.110 -1.0221  1.0177  0.4746
  370TIP3    H2 1072   1.643   1.748   1.166 -2.1791 -0.6948 -2.0825
  371TIP3   OH2 1073   4.938   3.420   3.212  0.3265 -0.2992  0.0638
  371TIP3    H1 1074   4.992   3.365   3.269  0.3536  0.3540  0.6857
  371TIP3    H2 1075   4.919   3.497   3.266 -0.3324 -0.0456 -0.5338
  372TIP3   OH2 1076   1.906   3.351   1.367  0.2173 -0.1849 -0.1004
  372TIP3    H1 1077   1.964   3.384   1.298 -0.1903  0.3760 -0.1863
  372TIP3    H2 1078   1.934   3.397   1.446  1.0176 -1.2127  0.2093
  373TIP3   OH2 1079   7.210   5.564   6.111 -0.1814 -0.3079  0.2744
  373TIP3    H1 1080   7.301   5.534   6.112 -0.1900 -0.3871 -1.0200
  373TIP3    H2 1081   7.169   5.517   6.184  0.3953 -1.6212 -0.2366
  374TIP3   OH2 1082   3.725   3.438   1.022  0.6569  0.0100 -0.1240
  374TIP3    H1 1083   3.800   3.405   0.972  0.5446 -1.2352  0.5074
  374TIP3    H2 1084   3.654   3.443   0.958  0.9760  0.0834 -0.4718
  375TIP3   OH2 1085   4.639   0.875   0.290  0.0552  0.4739  0.7007
  375TIP3    H1 1086   4.604   0.952   0.247  0.3480  1.7107  2.6164
  375TIP3    H2 1087   4.709   0.845   0.233 -0.9120  0.8407 -0.7107
  376TIP3   OH2 1088   0.726   0.588   4.679  0.3454 -0.1058 -0.1856
  376TIP3    H1 1089   0.710   0.495   4.667  0.0216 -0.1022  0.1942
  376TIP3    H2 1090   0.821   0.596   4.684  0.4102 -0.3049 -1.0526
  377TIP3   OH2 1091   4.286   2.806   1.739 -0.4827  0.0363 -0.5659
  377TIP3    H1 1092   4.294   2.896   1.710  0.7240  0.2027  0.2221
  377TIP3    H2 1093   4.371   2.786   1.778 -1.1282 -1.0580  0.3217
  378TIP3   OH2 1094   5.553   6.510   6.379  0.4250  0.6235  0.1828
  378TIP3    H1 1095   5.568   6.544   6.291  0.8978 -0.9857 -0.3896
  378TIP3    H2 1096   5.460   6.486   6.381  0.0077  2.2633  0.7077
  379TIP3   OH2 1097   0.896   7.133   6.151 -0.5963 -0.2829 -0.2021
  379TIP3    H1 1098   0.900   7.083   6.070  2.4415 -0.3352 -0.0989
  379TIP3    H2 1099   0.948   7.212   6.132  1.3260 -0.9328  2.0565
  380TIP3   OH2 1100   4.362   2.161   1.457 -0.6200  0.2243 -0.0983
  380TIP3    H1 1101   4.349   2.067   1.469 -1.1043  0.1314 -1.2994
  380TIP3    H2 1102   4.363   2.173   1.362 -1.1621  1.5163  0.0486
  381TIP3   OH2 1103   4.165   2.364   0.448 -0.0274 -0.4044 -0.1617
  381TIP3    H1 1104   4.147   2.417   0.371 -0.2471 -0.2687 -0.0167
  381TIP3    H2 1105   4.187   2.427   0.516  1.6800 -0.5819 -0.5076
  382TIP3   OH2 1106   6.898   6.090   5.857 -0.2504  0.2127  0.1457
  382TIP3    H1 1107   6.905   6.184   5.841 -0.7901  0.6496  2.2115
  382TIP3    H2 1108   6.986   6.064   5.887 -0.4489  0.3608  0.8852
  383TIP3   OH2 1109   7.732   4.667   6.129 -0.2727 -0.6688  0.1498
  383TIP3    H1 1110   7.679   4.588   6.114 -0.4282 -0.6382  0.5226
  383TIP3    H2 1111   7.804   4.660   6.067  1.1141 -2.3870  1.8691
  384TIP3   OH2 1112   4.245   1.901   1.409  0.2345  0.2084 -0.1107
  384TIP3    H1 1113   4.149   1.892   1.404  0.2415 -0.0662  0.2203
  384TIP3    H2 1114   4.279   1.816   1.382  0.3094 -0.7017  2.7478
  385TIP3   OH2 1115   2.937   1.490   0.577 -0.3728 -0.1833 -0.3234
  385TIP3    H1 1116   2.983   1.539   0.647  1.4757 -2.2560 -0.0327
  385TIP3    H2 1117   2.970   1.529   0.496 -0.0920  0.1188 -0.0707
  386TIP3   OH2 1118   4.546   2.009   0.213  0.1102  0.1875 -0.4892
  386TIP3    H1 1119   4.549   2.062   0.293  0.4504  0.3765 -0.6247
  386TIP3    H2 1120   4.459   1.969   0.215 -0.0526  0.5393 -0.2476
  387TIP3   OH2 1121   1.705   1.321   0.836 -0.3333  0.3789  0.4011
  387TIP3    H1 1122   1.779   1.265   0.811 -0.3566  0.1662  0.8067
  387TIP3    H2 1123   1.745   1.401   0.868 -0.2950  0.5070  0.0419
  388TIP3   OH2 1124   3.947   4.376   0.444  0.2667 -0.2194 -0.2925
  388TIP3    H1 1125   4.000   4.380   0.364  0.4466 -3.2233 -0.3883
  388TIP3    H2 1126   3.973   4.294   0.485 -2.6356 -0.6201  0.8494
  389TIP3   OH2 1127   4.781   1.807   2.264 -0.1550 -0.5202 -0.1352
  389TIP3    H1 1128   4.733   1.885   2.236  0.4956  0.6099  1.7971
  389TIP3    H2 1129   4.735   1.776   2.341  1.1684 -0.4262  0.7185
  390TIP3   OH2 1130   5.685   6.743   5.948  0.4151  0.1423  0.3226
  390TIP3    H1 1131   5.649   6.658   5.922  0.4388 -0.5629  2.4865
  390TIP3    H2 1132   5.630   6.807   5.902 -0.2226 -1.0168 -0.5628
  391TIP3   OH2 1133   3.270   1.730   1.506 -0.1723  0.1373 -0.0695
  391TIP3    H1 1134   3.228   1.777   1.578  0.4996 -1.0067  1.0892
  391TIP3    H2 1135   3.338   1.677   1.548 -0.3386 -1.2027 -1.4361
  392TIP3   OH2 1136   4.064   0.504   0.333 -0.6290  0.0137 -0.0749
  392TIP3    H1 1137   4.123   0.432   0.355 -0.5584  0.2233  0.4345
  392TIP3    H2 1138   3.984   0.485   0.384 -0.9612 -0.2132 -0.6770
  393TIP3   OH2 1139   5.749   2.706   0.751 -0.3353 -0.2908  0.0049
  393TIP3    H1 1140   5.662   2.740   0.772 -0.1036  1.0662 -1.1184
  393TIP3    H2 1141   5.784   2.768   0.687  0.6065 -2.0034 -1.1944
  394TIP3   OH2 1142   0.749   6.574   0.262 -0.2850 -0.1425 -0.2330
  394TIP3    H1 1143   0.809   6.500   0.250  0.0562  0.1639 -0.4385
  394TIP3    H2 1144   0.771   6.608   0.349  0.6846  0.7208 -0.7999
  395TIP3   OH2 1145   2.874   1.458   0.121  0.7654 -0.3070  0.0329
  395TIP3    H1 1146   2.839   1.434   0.035  0.8651 -0.5601  0.0611
  395TIP3    H2 1147   2.933   1.386   0.144  1.1064 -0.0044  0.0998
  396TIP3   OH2 1148   2.924   2.739   1.866 -0.1407  0.8684  0.0393
  396TIP3    H1 1149   2.847   2.686   1.888  0.7891 -0.7338 -0.4948
  396TIP3    H2 1150   2.968   2.752   1.950 -0.9344  1.6966  0.3311
  397TIP3   OH2 1151   3.271   0.851   3.066  0.5081 -0.7386  0.5687
  397TIP3    H1 1152   3.178   0.846   3.090  0.3462 -0.3984  0.0057
  397TIP3    H2 1153   3.310   0.907   3.133 -0.0766  0.7786 -0.3597
  398TIP3   OH2 1154   2.055   6.398   1.102 -0.1623  0.4307  0.4722
  398TIP3    H1 1155   1.980   6.405   1.160  0.0204  2.7335  0.4855
  398TIP3    H2 1156   2.120   6.458   1.139  1.0990 -0.3563 -0.4069
  399TIP3   OH2 1157   0.343   2.065   5.208 -0.1363 -0.1621  0.5364
  399TIP3    H1 1158   0.309   2.082   5.120 -1.0338 -0.2538  0.8624
  399TIP3    H2 1159   0.420   2.121   5.216 -1.0131  1.0690  0.3084
  400TIP3   OH2 1160   5.600   4.657   5.704  0.6289  0.5797 -0.2993
  400TIP3    H1 1161   5.525   4.710   5.730 -1.7580 -2.6289 -0.3183
  400TIP3    H2 1162   5.669   4.720   5.684 -1.8993  3.6022  0.2352
  401TIP3   OH2 1163   7.520   6.493   1.357  0.2775  1.0279 -0.2308
  401TIP3    H1 1164   7.447   6.431   1.361  1.9680 -1.0626 -0.5203
  401TIP3    H2 1165   7.552   6.499   1.447  0.5557  0.9434 -0.3245
  402TIP3   OH2 1166   6.776   6.539   5.915  0.0785 -0.5529  0.2684
  402TIP3    H1 1167   6.785   6.450   5.949  1.5891  0.5707  2.9725
  402TIP3    H2 1168   6.686   6.564   5.937  0.2188 -0.7783  1.1230
  403TIP3   OH2 1169   1.915   7.032   1.333  0.3933 -0.8816 -0.4760
  403TIP3    H1 1170   1.875   6.989   1.408 -0.7532  0.3700 -0.3528
  403TIP3    H2 1171   1.885   6.981   1.258  0.0827 -1.0707 -0.2247
  404TIP3   OH2 1172   3.437   2.879   2.272  0.2267  0.5907 -0.4730
  404TIP3    H1 1173   3.400   2.817   2.210  0.5913  2.3178 -2.4519
  404TIP3    H2 1174   3.532   2.863   2.269  0.1509 -0.2140  0.6671
  405TIP3   OH2 1175   3.322   1.791   0.504 -0.0117 -0.3176 -0.3816
  405TIP3    H1 1176   3.392   1.853   0.523  1.4542 -2.1465  0.2685
  405TIP3    H2 1177   3.318   1.789   0.408 -0.5402  1.2565 -0.4198
  406TIP3   OH2 1178   2.703   1.739   1.557  0.7468  0.0772 -0.2306
  406TIP3    H1 1179   2.687   1.658   1.510  0.8876 -0.3286  0.4135
  406TIP3    H2 1180   2.684   1.808   1.493 -1.9722 -0.4022 -0.0277
  407TIP3   OH2 1181   5.892   4.825   0.623 -0.0145  0.3416 -0.3453
  407TIP3    H1 1182   5.871   4.868   0.706 -1.2288 -0.3741 -0.2698
  407TIP3    H2 1183   5.852   4.881   0.556  0.4862  0.6207 -0.4111
  408TIP3   OH2 1184   3.904   0.833   1.843  0.0428  0.7487 -0.3284
  408TIP3    H1 1185   3.912   0.918   1.799  2.3270  2.1201  2.5148
  408TIP3    H2 1186   3.981   0.829   1.900 -0.7410 -2.6696  0.5897
  409TIP3   OH2 1187   4.880   2.896   1.767 -0.2193 -0.2416 -0.2190
  409TIP3    H1 1188   4.924   2.971   1.808 -1.3124  1.0689 -1.3937
  409TIP3    H2 1189   4.926   2.883   1.684 -0.0342 -0.8800 -0.0205
  410TIP3   OH2 1190   4.722   0.926   2.218  0.0740  0.2723  0.3664
  410TIP3    H1 1191   4.765   0.847   2.186  0.9543  1.4254 -1.3995
  410TIP3    H2 1192   4.647   0.894   2.268  1.3391 -1.7056  1.0439
  411TIP3   OH2 1193   2.042   4.767   3.056 -0.1987  0.0327  0.1748
  411TIP3    H1 1194   2.054   4.858   3.029  2.6678 -0.6495 -0.9794
  411TIP3    H2 1195   2.070   4.764   3.148  0.4452  0.1735 -0.0156
  412TIP3   OH2 1196   4.335   3.477   0.461 -0.1494 -0.1078 -0.2365
  412TIP3    H1 1197   4.261   3.495   0.402 -0.3502 -0.4531 -0.0894
  412TIP3    H2 1198   4.409   3.464   0.402 -0.3987 -0.6916 -0.4248
  413TIP3   OH2 1199   5.609   1.912   0.341  0.3568  0.2192  0.5529
  413TIP3    H1 1200   5.626   1.872   0.426 -0.5550 -0.2509  0.5169
  413TIP3    H2 1201   5.519   1.945   0.347  0.5406  0.8347  0.0264
  414TIP3   OH2 1202   4.081   1.277   0.701 -0.3575  0.1416  0.4980
  414TIP3    H1 1203   4.172   1.306   0.710 -1.0762  2.6429 -0.0342
  414TIP3    H2 1204   4.035   1.318   0.774 -1.6446  1.3512 -0.9677
  415TIP3   OH2 1205   0.318   6.299   5.384  0.4576 -0.1857  0.3134
  415TIP3    H1 1206   0.277   6.244   5.317  1.3192  0.5693 -0.8469
  415TIP3    H2 1207   0.250   6.311   5.450 -0.7260 -0.0901 -0.9124
  416TIP3   OH2 1208   5.237   2.394   0.743  0.3863  0.0187  0.1185
  416TIP3    H1 1209   5.151   2.372   0.708  0.9611 -0.9462 -0.6907
  416TIP3    H2 1210   5.284   2.432   0.669  1.3832 -1.4210 -0.0090
  417TIP3   OH2 1211   3.392   2.100   1.340  0.0035 -0.6416 -0.2735
  417TIP3    H1 1212   3.446   2.171   1.375 -0.7441 -0.1650 -0.0761
  417TIP3    H2 1213   3.316   2.144   1.302 -0.5671 -1.3506  0.0272
  418TIP3   OH2 1214   5.124   6.816   4.392 -0.2154  0.2851  0.2272
  418TIP3    H1 1215   5.140   6.765   4.471  0.5337  2.2638  1.3583
  418TIP3    H2 1216   5.203   6.867   4.379 -1.1075  1.4796 -0.6694
  419TIP3   OH2 1217   3.207   1.564   1.125 -0.6058  0.2541  0.1298
  419TIP3    H1 1218   3.142   1.522   1.068 -1.2045  1.1909  0.1261
  419TIP3    H2 1219   3.156   1.609   1.192  0.0076  1.5643 -0.2688
  420TIP3   OH2 1220   0.221   5.175   4.170 -0.8749  0.1197 -0.0910
  420TIP3    H1 1221   0.278   5.180   4.093 -1.6192 -0.6396 -0.7102
  420TIP3    H2 1222   0.270   5.217   4.240 -0.1810  0.8180 -0.9888
  421TIP3   OH2 1223   4.116   2.399   1.210  0.2804 -0.4133  0.2175
  421TIP3    H1 1224   4.083   2.337   1.144 -0.4962 -0.1349  0.3428
  421TIP3    H2 1225   4.209   2.380   1.215  0.1906 -1.0364 -0.3308
  422TIP3   OH2 1226   4.072   4.726   1.155  0.1643 -0.1828  0.0064
  422TIP3    H1 1227   4.157   4.715   1.198 -0.4164 -1.8511  0.7702
  422TIP3    H2 1228   4.009   4.732   1.227 -0.4668  0.1068 -0.5665
  423TIP3   OH2 1229   1.963   3.041   1.300  0.1004 -0.0525 -0.4311
  423TIP3    H1 1230   1.929   3.100   1.233 -0.6722  0.9586  0.8359
  423TIP3    H2 1231   1.918   3.067   1.380  0.5510 -1.6577  0.3639
  424TIP3   OH2 1232   4.386   1.373   0.291  0.1395  0.2963  0.5406
  424TIP3    H1 1233   4.320   1.422   0.242 -0.9875 -3.2157 -1.6133
  424TIP3    H2 1234   4.338   1.302   0.332  2.2806 -1.2358  0.4890
  425TIP3   OH2 1235   5.543   5.095   6.208 -0.3649  0.0646  0.8410
  425TIP3    H1 1236   5.639   5.092   6.209 -0.3647 -0.0310  0.4789
  425TIP3    H2 1237   5.517   5.015   6.164 -0.5999  0.3632  0.4380
  426TIP3   OH2 1238   6.102   6.259   5.549 -0.3517  0.9517  0.4719
  426TIP3    H1 1239   6.113   6.235   5.457  0.0474  0.8048  0.5586
  426TIP3    H2 1240   6.011   6.288   5.555 -0.6273  0.1433  0.2115
  427TIP3   OH2 1241   6.957   5.427   5.426 -0.1256  0.3448  0.3102
  427TIP3    H1 1242   6.892   5.378   5.376 -0.5283 -0.0480  1.2152
  427TIP3    H2 1243   6.907   5.488   5.479  0.2556  0.1262  0.9198
  428TIP3   OH2 1244   2.499   4.523   0.913  1.1627  0.0745 -0.3730
  428TIP3    H1 1245   2.495   4.494   0.822  1.2172  1.3504 -0.7877
  428TIP3    H2 1246   2.552   4.457   0.957  0.2469 -1.1238 -1.0377
  429TIP3   OH2 1247   4.089   1.354   1.343 -0.0471  0.2154 -0.3540
  429TIP3    H1 1248   4.002   1.390   1.358 -0.4038 -1.0247  0.5886
  429TIP3    H2 1249   4.074   1.277   1.289  0.7230  1.4560 -2.4077
  430TIP3   OH2 1250   7.244   3.797   4.989  0.1300  0.2793  0.0464
  430TIP3    H1 1251   7.334   3.831   4.991  0.3461 -0.2811 -0.0393
  430TIP3    H2 1252   7.241   3.743   4.911 -0.0408 -0.3561  0.4901
  431TIP3   OH2 1253   2.989   2.445   0.431 -0.1023 -0.3283 -0.7000
  431TIP3    H1 1254   3.023   2.482   0.349  0.4531 -0.0876 -0.3650
  431TIP3    H2 1255   2.911   2.395   0.405  1.0535 -1.6823 -1.6115
  432TIP3   OH2 1256   2.720   1.829   0.046 -0.3713  0.0159 -0.3386
  432TIP3    H1 1257   2.717   1.754  -0.013  1.3596 -1.0108  0.8083
  432TIP3    H2 1258   2.630   1.840   0.077 -0.7426 -1.2049 -0.9822
  433TIP3   OH2 1259   3.306   0.439   0.407 -0.1382  0.9661  0.1875
  433TIP3    H1 1260   3.217   0.406   0.396 -0.1597  0.5432  1.5072
  433TIP3    H2 1261   3.299   0.533   0.393 -0.7472  0.9088  0.0834
  434TIP3   OH2 1262   1.994   1.517   0.120  0.1451 -0.0217 -0.2614
  434TIP3    H1 1263   1.990   1.443   0.181  0.3282  0.9907  1.0022
  434TIP3    H2 1264   2.052   1.487   0.051  1.1029 -0.6633  0.7897
  435TIP3   OH2 1265  -0.025   6.241   6.106 -0.2052  0.2512 -0.2164
  435TIP3    H1 1266   0.065   6.210   6.096 -0.7104 -1.1361 -0.5231
  435TIP3    H2 1267  -0.036   6.306   6.037  0.2784 -0.2370 -0.7617
  436TIP3   OH2 1268   3.144   2.671   1.707 -0.1986 -0.0884 -0.2829
  436TIP3    H1 1269   3.142   2.579   1.680 -1.4731  0.1871 -1.1677
  436TIP3    H2 1270   3.080   2.676   1.778  1.5479 -0.3512  1.3449
  437TIP3   OH2 1271   4.279   2.508   1.005  0.4863 -0.0988 -0.8104
  437TIP3    H1 1272   4.221   2.438   1.034  0.0400  0.4097 -0.4680
  437TIP3    H2 1273   4.223   2.585   0.996  1.3853  0.8287  1.1666
  438TIP3   OH2 1274   7.042   5.525   5.753  0.6158  0.0981  0.2608
  438TIP3    H1 1275   6.972   5.571   5.708  1.4270 -1.4308 -2.6447
  438TIP3    H2 1276   7.096   5.595   5.790  0.1397  1.4177 -1.4850
  439TIP3   OH2 1277   5.508   1.375   1.627  0.2795 -0.2678 -0.4503
  439TIP3    H1 1278   5.417   1.401   1.640  0.0301 -1.6077  0.5628
  439TIP3    H2 1279   5.559   1.450   1.656 -0.4940  0.5624 -1.2017
  440TIP3   OH2 1280   4.995   4.332   0.934  0.1155  0.0716 -0.2224
  440TIP3    H1 1281   4.994   4.328   0.838  1.8142  1.7724 -0.3555
  440TIP3    H2 1282   5.070   4.278   0.959  0.5291  0.7582  0.0440
  441TIP3   OH2 1283   0.012   0.787   0.997  0.3646 -0.4770 -0.0670
  441TIP3    H1 1284   0.105   0.799   1.019 -0.1919  1.1819  1.4156
  441TIP3    H2 1285  -0.024   0.738   1.071  0.4217 -2.7936 -1.4999
  442TIP3   OH2 1286   2.393   0.524   2.476 -0.1634  0.0282 -0.2030
  442TIP3    H1 1287   2.298   0.530   2.463 -0.3770  2.1832  1.9389
  442TIP3    H2 1288   2.407   0.436   2.514 -1.2933 -0.3156 -0.5799
  443TIP3   OH2 1289   4.123   3.291   2.290 -0.1867 -0.0720 -0.1530
  443TIP3    H1 1290   4.172   3.299   2.372 -0.3495  0.1391 -0.0754
  443TIP3    H2 1291   4.190   3.294   2.222  0.0296 -1.1310  0.0045
  444TIP3   OH2 1292   2.874   1.845   0.796  0.2494 -0.5575  0.7899
  444TIP3    H1 1293   2.852   1.935   0.773  0.1858 -0.5282  0.9649
  444TIP3    H2 1294   2.969   1.841   0.787  0.3331 -0.2664  1.5052
  445TIP3   OH2 1295   7.570   4.407   6.197 -0.4493 -0.2105  0.1475
  445TIP3    H1 1296   7.544   4.315   6.186  1.2327 -0.6048 -0.6496
  445TIP3    H2 1297   7.517   4.438   6.270 -0.9519 -1.8573  0.5050
  446TIP3   OH2 1298   5.118   3.058   3.248 -0.1427 -0.2552 -0.0453
  446TIP3    H1 1299   5.097   3.128   3.311 -2.5804  0.5398 -1.6811
  446TIP3    H2 1300   5.184   3.097   3.191  0.2246 -0.1108  0.4694
  447TIP3   OH2 1301   5.148   1.932   0.988  0.3541 -0.5836  0.8649
  447TIP3    H1 1302   5.102   2.012   1.012  1.6165  0.1868  0.7588
  447TIP3    H2 1303   5.203   1.957   0.914 -1.7967 -2.3787 -1.4334
  448TIP3   OH2 1304   3.674   2.289   1.829  0.7992 -0.1397  0.5036
  448TIP3    H1 1305   3.649   2.197   1.824  0.9284 -0.1637  0.3130
  448TIP3    H2 1306   3.742   2.300   1.763  1.5563 -0.1654  1.2761
  449TIP3   OH2 1307   4.816   4.431   5.930  0.0879 -0.2748 -0.7130
  449TIP3    H1 1308   4.901   4.470   5.909  1.9005 -4.4832 -1.6582
  449TIP3    H2 1309   4.771   4.425   5.846  0.2544 -1.2512 -0.7276
  450TIP3   OH2 1310   5.005   2.556   3.528  0.5782 -0.1224  0.2511
  450TIP3    H1 1311   5.011   2.560   3.433 -0.1660 -1.8468  0.0976
  450TIP3    H2 1312   4.985   2.645   3.555  0.8832  0.3963 -1.2061
  451TIP3   OH2 1313   5.895   3.312   0.768  0.1095  0.4137  0.2789
  451TIP3    H1 1314   5.801   3.304   0.751 -0.0878  2.6497  0.1429
  451TIP3    H2 1315   5.901   3.342   0.859  0.6351  1.2750 -0.0332
  452TIP3   OH2 1316   2.994   2.331   1.168 -0.0298 -0.5247  0.5774
  452TIP3    H1 1317   2.945   2.271   1.225 -0.1903 -0.3772  0.5917
  452TIP3    H2 1318   3.084   2.299   1.173 -0.1787 -0.9943  0.2901
  453TIP3   OH2 1319   3.242   1.005   1.811  0.3798 -0.6073  0.5478
  453TIP3    H1 1320   3.296   1.050   1.746 -0.2540  0.9055  1.0496
  453TIP3    H2 1321   3.241   1.064   1.886  0.9888 -2.2805  1.9011
  454TIP3   OH2 1322   4.738   2.522   0.317  0.6695 -0.2278 -1.0469
  454TIP3    H1 1323   4.691   2.461   0.261  1.2098  0.0791 -1.8359
  454TIP3    H2 1324   4.753   2.599   0.262 -0.5612  0.8808  0.1228
  455TIP3   OH2 1325   3.741   2.485   2.433 -0.5202 -0.0225  0.0848
  455TIP3    H1 1326   3.767   2.490   2.341 -1.8323  0.5617 -0.2657
  455TIP3    H2 1327   3.741   2.391   2.453  0.6465 -0.1011 -0.2381
  456TIP3   OH2 1328   6.394   2.752   5.440  0.5294 -0.5205  0.7435
  456TIP3    H1 1329   6.348   2.686   5.388 -0.7551 -0.9154  2.3372
  456TIP3    H2 1330   6.485   2.746   5.411 -0.0802 -1.0349 -1.1224
  457TIP3   OH2 1331   4.150   2.885   0.827 -0.1086  0.0332  0.3190
  457TIP3    H1 1332   4.102   2.816   0.873  1.3954  0.0652  1.9972
  457TIP3    H2 1333   4.160   2.955   0.891  4.0347 -0.8504  0.8322
  458TIP3   OH2 1334   4.270   0.005   1.587  0.3268  0.1105 -0.2210
  458TIP3    H1 1335   4.294  -0.039   1.669 -1.3305 -0.8955 -0.2496
  458TIP3    H2 1336   4.216   0.079   1.615  0.5682  0.3256 -0.3344
  459TIP3   OH2 1337   3.067   2.386   1.704 -0.5391 -0.0488  0.0351
  459TIP3    H1 1338   3.057   2.305   1.653 -1.0863  1.0108 -1.5810
  459TIP3    H2 1339   2.983   2.396   1.749 -0.0138 -1.0507  1.2548
  460TIP3   OH2 1340   4.351   2.152   1.783  0.1720 -0.2919 -0.2046
  460TIP3    H1 1341   4.263   2.188   1.796 -0.0287 -1.2396  1.2588
  460TIP3    H2 1342   4.338   2.058   1.777  1.1805 -0.5479  1.1874
  461TIP3   OH2 1343   5.619   1.531   1.062  0.2202  0.6159 -0.0884
  461TIP3    H1 1344   5.646   1.516   1.153 -1.3628 -3.0988 -0.1291
  461TIP3    H2 1345   5.700   1.546   1.014  1.4397 -1.3517  1.2963
  462TIP3   OH2 1346   7.168   4.028   3.545 -0.1370  0.7898  0.5536
  462TIP3    H1 1347   7.148   3.934   3.549 -1.4327  1.0671  0.7781
  462TIP3    H2 1348   7.211   4.046   3.628  1.8527  0.0079 -0.2873
  463TIP3   OH2 1349   6.355   4.073   6.122  0.1049  0.0163  0.0762
  463TIP3    H1 1350   6.339   4.025   6.203  3.4411 -0.2493  0.6346
  463TIP3    H2 1351   6.416   4.143   6.146 -1.4117  1.9467 -1.5815
  464TIP3   OH2 1352   3.097   1.121   0.560  0.2752  0.0815  0.1798
  464TIP3    H1 1353   3.147   1.142   0.482  1.7200 -0.9608  0.8028
  464TIP3    H2 1354   3.068   1.030   0.547 -1.8646  0.8072 -0.3748
  465TIP3   OH2 1355   3.336   2.785   0.757  0.3583  0.4964 -0.2318
  465TIP3    H1 1356   3.306   2.719   0.694 -1.0332  0.7160  0.1667
  465TIP3    H2 1357   3.258   2.839   0.773  0.3887 -0.1777  2.4505
  466TIP3   OH2 1358   1.566   6.795   2.468  0.2607  0.1599 -0.1051
  466TIP3    H1 1359   1.619   6.844   2.405 -0.4398  1.0548 -0.0080
  466TIP3    H2 1360   1.486   6.774   2.421 -0.1659  0.6328  0.4033
  467TIP3   OH2 1361   4.636   2.944   2.740  0.0337 -0.2813  0.2926
  467TIP3    H1 1362   4.559   3.000   2.739 -1.0681 -1.7765  0.4102
  467TIP3    H2 1363   4.680   2.966   2.822 -0.7268 -0.0442  0.6425
  468TIP3   OH2 1364   2.321   7.003   2.075 -0.3041 -0.0949  0.4870
  468TIP3    H1 1365   2.406   7.046   2.077 -0.3921  0.1064 -0.0690
  468TIP3    H2 1366   2.312   6.964   2.162 -0.0918  0.7391  0.8878
  469TIP3   OH2 1367   4.349   5.027   6.224  0.2771  0.1627 -0.2126
  469TIP3    H1 1368   4.398   5.104   6.193  2.5722 -0.9544  0.5695
  469TIP3    H2 1369   4.409   4.954   6.212 -1.5539 -1.4056 -0.0714
  470TIP3   OH2 1370   1.509   2.179   0.611 -0.2210  0.1450 -0.0283
  470TIP3    H1 1371   1.501   2.173   0.516  0.6214 -0.7590 -0.0493
  470TIP3    H2 1372   1.440   2.122   0.645 -2.6958  3.0088 -0.0310
  471TIP3   OH2 1373   2.485   3.424   1.299 -0.2216 -0.0098 -0.2543
  471TIP3    H1 1374   2.451   3.513   1.305  0.3363  0.1059  1.4160
  471TIP3    H2 1375   2.424   3.371   1.350  0.4203 -0.2966  0.2161
  472TIP3   OH2 1376   7.101   7.248   1.868 -0.1521 -0.0913 -0.2744
  472TIP3    H1 1377   7.073   7.337   1.890  1.5105  0.4186 -0.1507
  472TIP3    H2 1378   7.057   7.229   1.785  0.0206  1.1143 -0.6576
  473TIP3   OH2 1379   7.365   3.039   1.684 -0.1804 -0.2251  0.2349
  473TIP3    H1 1380   7.300   3.109   1.676 -1.2844 -1.1469  0.8434
  473TIP3    H2 1381   7.408   3.055   1.768  2.5839  2.1727 -1.5602
  474TIP3   OH2 1382   5.975   6.772   5.181 -0.1309  0.3307  0.0187
  474TIP3    H1 1383   5.919   6.721   5.240 -1.4983 -0.1685 -1.6584
  474TIP3    H2 1384   5.933   6.858   5.176 -0.9834 -0.1419 -1.4928
  475TIP3   OH2 1385   4.956   4.633   5.595 -0.7655 -0.3243  0.1157
  475TIP3    H1 1386   4.951   4.721   5.557 -1.8574 -0.4757 -0.1101
  475TIP3    H2 1387   4.978   4.576   5.521  4.3047  0.2601  1.0028
  476TIP3   OH2 1388   6.167   5.158   5.282  0.4596 -0.4306 -0.3695
  476TIP3    H1 1389   6.108   5.198   5.219 -0.5370 -1.2296  0.0384
  476TIP3    H2 1390   6.253   5.162   5.241 -0.0653 -0.3070 -1.4620
  477TIP3   OH2 1391   0.368   5.268   4.376  0.2397 -0.1747  0.2415
  477TIP3    H1 1392   0.351   5.362   4.388 -0.9897 -0.6304  2.3373
  477TIP3    H2 1393   0.456   5.256   4.412  0.0210  0.0269  0.8629
  478TIP3   OH2 1394   6.002   3.311   2.465 -0.0261  0.1926 -0.3451
  478TIP3    H1 1395   5.926   3.268   2.427 -0.0857  0.7315 -0.8452
  478TIP3    H2 1396   6.005   3.279   2.555  0.1258 -1.1065 -0.7998
  479TIP3   OH2 1397   4.529   2.586   3.536 -1.0925 -0.0854  0.6441
  479TIP3    H1 1398   4.595   2.523   3.507 -2.0989 -0.9154  0.1324
  479TIP3    H2 1399   4.482   2.540   3.606 -1.1996  0.4667  0.9359
  480TIP3   OH2 1400   5.738   2.145   0.721  0.0952  0.4131  0.6044
  480TIP3    H1 1401   5.734   2.241   0.720 -0.7278  0.3800  0.3546
  480TIP3    H2 1402   5.663   2.117   0.668  0.5226 -0.3631  0.4067
  481TIP3   OH2 1403   5.796   5.859   5.051 -0.2454  0.2631  0.1462
  481TIP3    H1 1404   5.822   5.947   5.024 -0.1415  0.3004  0.3705
  481TIP3    H2 1405   5.759   5.870   5.138 -1.6354  0.3143 -0.4277
  482TIP3   OH2 1406   2.120   2.501   0.411 -0.2800  0.4836 -0.5075
  482TIP3    H1 1407   2.033   2.524   0.379 -1.0439  0.7986  1.7047
  482TIP3    H2 1408   2.180   2.543   0.349 -1.6885  3.3899  0.0253
  483TIP3   OH2 1409   5.586   2.718   0.472 -0.1687  0.7841  0.1004
  483TIP3    H1 1410   5.528   2.749   0.403  0.2745  0.6554 -0.3294
  483TIP3    H2 1411   5.663   2.773   0.465  0.6615 -0.4585 -0.7233
  484TIP3   OH2 1412   7.215   4.551   5.142 -0.0532  0.1150  0.4538
  484TIP3    H1 1413   7.167   4.478   5.181  0.4037 -1.2546 -1.4574
  484TIP3    H2 1414   7.260   4.592   5.216 -1.2959 -0.7578  1.7389
  485TIP3   OH2 1415   3.680   2.634   0.587 -0.4271 -0.1981 -0.1967
  485TIP3    H1 1416   3.646   2.724   0.579 -1.5877 -0.6816 -0.8377
  485TIP3    H2 1417   3.642   2.601   0.668  0.4274  0.0655  0.3152
  486TIP3   OH2 1418   4.739   0.683   1.044  0.1134  0.4416  0.0378
  486TIP3    H1 1419   4.678   0.614   1.018  0.1861  0.1701  0.5752
  486TIP3    H2 1420   4.789   0.703   0.964  0.1763 -0.2142 -0.0854
  487TIP3   OH2 1421   4.029   0.930   0.462  0.1767 -0.0013 -0.8199
  487TIP3    H1 1422   3.990   0.842   0.465  0.2204  0.0196  2.7502
  487TIP3    H2 1423   4.123   0.914   0.460  0.2031 -0.0423  0.6129
  488TIP3   OH2 1424   4.261   0.474   2.203 -0.7718  0.2419  0.3189
  488TIP3    H1 1425   4.205   0.550   2.215  2.7497  3.0745 -0.4428
  488TIP3    H2 1426   4.306   0.490   2.119  2.6841 -0.8758  1.8572
  489TIP3   OH2 1427   7.669   6.909   6.149  0.1647 -0.3394  0.1132
  489TIP3    H1 1428   7.603   6.973   6.176  0.2879 -0.1041 -0.1338
  489TIP3    H2 1429   7.728   6.958   6.091  1.1152 -0.3100  1.0924
  490TIP3   OH2 1430   0.578   7.290   0.175 -0.9388 -0.2703  0.1346
  490TIP3    H1 1431   0.587   7.276   0.269  1.0320  1.0885  0.1612
  490TIP3    H2 1432   0.632   7.222   0.135 -0.1906  0.3828  0.0299
  491TIP3   OH2 1433   3.243   0.610   2.074  0.1974  0.3932 -0.1243
  491TIP3    H1 1434   3.292   0.609   1.992 -1.6103  0.6297 -1.2509
  491TIP3    H2 1435   3.305   0.640   2.140  2.2247 -1.6666 -1.0429
  492TIP3   OH2 1436   1.562   6.394   3.158 -0.9760  0.5206 -0.1964
  492TIP3    H1 1437   1.572   6.485   3.129  0.5035 -0.2557 -2.2804
  492TIP3    H2 1438   1.647   6.371   3.195 -1.1104 -0.2357 -0.3490
  493TIP3   OH2 1439   6.034   1.192   0.174 -0.1813  0.1145  0.6614
  493TIP3    H1 1440   5.954   1.231   0.138  0.4009  0.9093  0.2232
  493TIP3    H2 1441   6.021   1.194   0.269 -0.3305  1.0198  0.6301
  494TIP3   OH2 1442   7.559   5.777   6.120 -0.1553 -0.0253 -0.5009
  494TIP3    H1 1443   7.528   5.803   6.033 -1.0348  1.0308  0.1245
  494TIP3    H2 1444   7.487   5.801   6.179  0.0055 -1.6756  0.3935
  495TIP3   OH2 1445   2.720   0.927   1.617  0.2796 -0.4081  0.3855
  495TIP3    H1 1446   2.693   1.011   1.579  0.2715 -1.9576 -3.2970
  495TIP3    H2 1447   2.665   0.916   1.694 -1.7985  1.6217 -0.7349
  496TIP3   OH2 1448   5.002   2.147   1.060  0.1885 -0.1163 -0.0622
  496TIP3    H1 1449   4.946   2.181   0.991  0.1587  1.2239  0.6162
  496TIP3    H2 1450   4.983   2.201   1.136  1.3913 -0.5481  0.5586
  497TIP3   OH2 1451   2.362   1.660   2.934  0.5525  0.3321  0.2915
  497TIP3    H1 1452   2.272   1.630   2.946  0.8461 -1.6218 -2.2032
  497TIP3    H2 1453   2.353   1.755   2.920 -1.0845  0.2140  0.4178
  498TIP3   OH2 1454   5.581   2.508   2.368  0.1302 -0.0404  0.0842
  498TIP3    H1 1455   5.497   2.518   2.413 -0.0341  1.1836 -0.4771
  498TIP3    H2 1456   5.646   2.514   2.438 -0.3261 -5.2615  1.1722
  499TIP3   OH2 1457   0.239   6.896   6.174 -0.0674 -0.2798  0.8637
  499TIP3    H1 1458   0.154   6.937   6.191 -0.8168 -1.8411  0.9492
  499TIP3    H2 1459   0.301   6.947   6.226 -0.6449  2.0240 -0.6287
  500TIP3   OH2 1460   4.533   1.472   1.493  0.2272 -0.6563  0.2761
  500TIP3    H1 1461   4.595   1.534   1.457 -0.1540 -0.2917  0.2512
  500TIP3    H2 1462   4.450   1.491   1.449  0.4343 -2.1311 -0.8054
  501TIP3   OH2 1463   5.144   3.239   2.812 -0.3394 -0.2561  0.5266
  501TIP3    H1 1464   5.213   3.285   2.764 -0.0390 -0.4472  0.7804
  501TIP3    H2 1465   5.105   3.180   2.747  0.5230 -1.0186  0.6883
  502TIP3   OH2 1466   6.651   5.663   6.091 -0.7501 -0.5039 -0.3357
  502TIP3    H1 1467   6.746   5.675   6.091 -0.7815 -0.2348 -0.6457
  502TIP3    H2 1468   6.620   5.712   6.166 -0.3155 -3.3660  1.7865
  503TIP3   OH2 1469   7.803   5.880   6.206  0.4579  0.0110 -0.0749
  503TIP3    H1 1470   7.712   5.856   6.187  0.7121 -0.3711 -0.7918
  503TIP3    H2 1471   7.805   5.975   6.198 -0.1138  0.1137  0.9320
  504TIP3   OH2 1472   5.156   3.015   0.410  0.3899 -0.2492  0.3500
  504TIP3    H1 1473   5.061   3.023   0.398  0.3921 -0.5827  0.1102
  504TIP3    H2 1474   5.171   2.922   0.422  0.4732 -0.0002  2.3137
  505TIP3   OH2 1475   3.402   5.339   1.374 -0.3697 -0.0410 -0.5913
  505TIP3    H1 1476   3.386   5.401   1.445 -0.4710 -0.3083 -0.3784
  505TIP3    H2 1477   3.321   5.340   1.323  0.3350  1.4773 -1.7358
  506TIP3   OH2 1478   7.008   6.529   6.119 -0.0114  0.1589  0.0652
  506TIP3    H1 1479   6.964   6.601   6.163  1.7597  0.3759  1.5578
  506TIP3    H2 1480   6.938   6.471   6.090 -1.4854  2.5829 -1.3754
  507TIP3   OH2 1481   2.360   2.408   1.496 -0.2083 -0.3257  0.3378
  507TIP3    H1 1482   2.421   2.382   1.428  0.6985  1.5852  0.3884
  507TIP3    H2 1483   2.387   2.497   1.520 -2.4346  0.2065  0.9957
  508TIP3   OH2 1484   2.695   5.022   2.009 -0.3780  0.1393 -0.1212
  508TIP3    H1 1485   2.603   5.009   1.990 -0.2256  0.2031 -0.9028
  508TIP3    H2 1486   2.702   5.007   2.104 -1.4832  1.8955  0.2648
  509TIP3   OH2 1487   1.454   6.351   4.758  0.4511 -0.3874  0.1128
  509TIP3    H1 1488   1.412   6.427   4.799  4.4589  2.3944 -0.6223
  509TIP3    H2 1489   1.513   6.317   4.825  1.9968  0.0015 -1.0042
  510TIP3   OH2 1490   4.474   0.831   1.364  0.0211 -0.1279  0.3754
  510TIP3    H1 1491   4.568   0.812   1.358  0.2075  1.4835 -2.4562
  510TIP3    H2 1492   4.432   0.754   1.328  0.2801 -0.3990  0.6430
  511TIP3   OH2 1493   4.479   1.146   1.280 -0.1253  0.7880  0.1338
  511TIP3    H1 1494   4.559   1.158   1.228 -1.1323  1.1796 -1.3799
  511TIP3    H2 1495   4.439   1.233   1.280 -0.3366  0.6884  1.2501
  512TIP3   OH2 1496   2.651   0.944   1.037  0.0621 -0.1504 -0.3799
  512TIP3    H1 1497   2.580   0.989   0.991 -0.9483 -0.7015  0.6190
  512TIP3    H2 1498   2.627   0.950   1.129  0.0727 -2.4462 -0.2065
  513TIP3   OH2 1499   5.625   3.685   6.339 -0.2632 -0.1506  0.8428
  513TIP3    H1 1500   5.666   3.624   6.401  2.0119 -0.2128 -0.6760
  513TIP3    H2 1501   5.664   3.770   6.359  0.8792 -0.2665 -0.8144
  514TIP3   OH2 1502   1.808   0.028   0.760 -0.0297 -0.4216  0.4812
  514TIP3    H1 1503   1.829   0.107   0.809 -1.3155 -0.3685  0.9678
  514TIP3    H2 1504   1.868   0.029   0.685  1.0255  0.1933  1.3151
  515TIP3   OH2 1505   5.710   3.595   5.950 -0.6275  0.5114 -0.1890
  515TIP3    H1 1506   5.657   3.645   6.012 -0.2375 -1.0969  1.4981
  515TIP3    H2 1507   5.648   3.535   5.909 -0.2226 -1.2165  1.6237
  516TIP3   OH2 1508   7.318   5.902   6.240  0.7690  0.4676  0.0907
  516TIP3    H1 1509   7.332   5.987   6.198 -0.0859 -0.2822 -1.7830
  516TIP3    H2 1510   7.225   5.884   6.228  0.8375 -0.4892  0.9138
  517TIP3   OH2 1511   1.470   6.821   0.029  0.2807 -0.1593  0.0853
  517TIP3    H1 1512   1.551   6.845  -0.016 -0.6951  1.5390 -0.8200
  517TIP3    H2 1513   1.499   6.790   0.115  2.0793 -2.3337 -1.2433
  518TIP3   OH2 1514   5.341   4.949   4.215 -0.0315  0.1924 -0.6491
  518TIP3    H1 1515   5.395   4.871   4.227 -0.6840 -0.1461  0.1491
  518TIP3    H2 1516   5.353   5.000   4.294 -2.2320 -0.7348  0.3329
  519TIP3   OH2 1517   4.618   1.145   0.175 -0.2740 -0.7340 -0.4079
  519TIP3    H1 1518   4.549   1.203   0.208 -0.1221 -1.4702  1.2716
  519TIP3    H2 1519   4.699   1.187   0.204 -0.0525 -0.4482 -1.4301
  520TIP3   OH2 1520   3.541   2.724   1.570 -0.6677  0.1082  0.0086
  520TIP3    H1 1521   3.614   2.686   1.619  0.0191  1.5525  0.1426
  520TIP3    H2 1522   3.488   2.768   1.635 -0.2750  1.2118 -0.4011
  521TIP3   OH2 1523   6.119   1.068   1.058 -0.1400 -0.1401 -0.5222
  521TIP3    H1 1524   6.201   1.117   1.051  0.5608 -0.9586  1.5587
  521TIP3    H2 1525   6.145   0.977   1.041 -0.2564 -0.6610  1.9351
  522TIP3   OH2 1526   4.987   7.120   5.228  0.0831  0.0909 -0.0896
  522TIP3    H1 1527   5.045   7.122   5.305  0.5468 -1.4088 -0.3867
  522TIP3    H2 1528   4.929   7.195   5.240 -1.1869 -1.2737  2.7713
  523TIP3   OH2 1529   3.216   2.220   2.022  0.0758  0.8950 -0.0376
  523TIP3    H1 1530   3.277   2.263   1.962  1.8424  1.4662  2.0751
  523TIP3    H2 1531   3.131   2.256   1.999  1.1185  3.3296 -0.3091
  524TIP3   OH2 1532   3.724   4.400   1.488 -0.4844 -0.0003 -0.0565
  524TIP3    H1 1533   3.664   4.450   1.432  2.0645  1.7630 -1.2953
  524TIP3    H2 1534   3.765   4.465   1.544  0.7880 -1.1021  0.3164
  525TIP3   OH2 1535   4.599   0.549   4.828 -0.2756 -0.2057 -0.4544
  525TIP3    H1 1536   4.645   0.629   4.852 -0.3604  0.8313 -3.4523
  525TIP3    H2 1537   4.536   0.535   4.898  1.2646  1.0992  1.2345
  526TIP3   OH2 1538   6.843   1.150   0.063  0.3985  0.1417  0.1283
  526TIP3    H1 1539   6.779   1.080   0.052  1.1327 -0.3672 -1.0674
  526TIP3    H2 1540   6.927   1.105   0.069  0.9451  0.9444 -1.2973
  527TIP3   OH2 1541   3.457   1.066   0.978 -0.0151  0.0181  0.0743
  527TIP3    H1 1542   3.374   1.029   1.006  0.6678 -0.7374  1.1175
  527TIP3    H2 1543   3.437   1.110   0.895 -1.1843 -1.2311 -0.3260
  528TIP3   OH2 1544   2.181   1.145   5.362 -0.4284 -0.0306 -0.5922
  528TIP3    H1 1545   2.118   1.094   5.413 -0.0678 -0.1151 -0.2368
  528TIP3    H2 1546   2.131   1.221   5.333 -1.4819 -1.4343 -2.6027
  529TIP3   OH2 1547   2.967   4.446   0.672  0.4104  0.4881 -0.0687
  529TIP3    H1 1548   2.878   4.450   0.637  0.2594 -3.5868 -0.4735
  529TIP3    H2 1549   3.023   4.476   0.600 -0.5388  1.3823 -0.4352
  530TIP3   OH2 1550   4.897   2.973   0.336  0.3387 -0.2254  0.4506
  530TIP3    H1 1551   4.868   2.885   0.311  0.2206 -0.1703  0.3912
  530TIP3    H2 1552   4.898   3.022   0.253  2.6138 -0.7912  0.1102
  531TIP3   OH2 1553   4.729   0.371   5.326  0.1064 -0.1953 -0.0417
  531TIP3    H1 1554   4.760   0.280   5.325  1.7921  0.3710 -2.2252
  531TIP3    H2 1555   4.783   0.416   5.261  0.8372  2.9118  2.5743
  532TIP3   OH2 1556   7.253   4.879   0.782  0.3300  0.3016 -0.0848
  532TIP3    H1 1557   7.287   4.791   0.766 -0.4771  0.1030 -0.7695
  532TIP3    H2 1558   7.308   4.936   0.728  0.6072  0.1746  0.0615
  533TIP3   OH2 1559   5.963   1.836   1.299 -0.3562 -0.2724 -0.3280
  533TIP3    H1 1560   6.035   1.884   1.341  0.2599 -2.0507  0.6517
  533TIP3    H2 1561   5.985   1.744   1.311 -0.9677 -0.8307 -3.1831
  534TIP3   OH2 1562   6.460   1.541   0.673  0.1082  0.7071 -0.3182
  534TIP3    H1 1563   6.481   1.517   0.582  0.7590 -0.5726  0.1583
  534TIP3    H2 1564   6.529   1.501   0.725  1.1461  3.5660  0.5403
  535TIP3   OH2 1565   4.235   1.575   0.715  0.2576 -0.1064  0.1568
  535TIP3    H1 1566   4.246   1.552   0.623  0.9440 -1.8350  0.6597
  535TIP3    H2 1567   4.142   1.597   0.723 -0.7167 -3.8248 -0.1305
  536TIP3   OH2 1568   1.650   7.055   0.240  0.1255  0.0959 -0.0372
  536TIP3    H1 1569   1.623   7.144   0.262  1.0222  0.4713 -0.4112
  536TIP3    H2 1570   1.702   7.065   0.160  1.1566 -0.6263  0.5207
  537TIP3   OH2 1571   0.375   5.838   5.903  0.1615 -0.6700  0.3508
  537TIP3    H1 1572   0.424   5.918   5.883  2.6107 -2.4027 -0.8108
  537TIP3    H2 1573   0.441   5.776   5.932 -1.6444 -2.4746  0.7113
  538TIP3   OH2 1574   3.753   1.863   0.148  0.2435 -0.3318 -0.6788
  538TIP3    H1 1575   3.845   1.845   0.125  0.1494 -2.3623  0.3544
  538TIP3    H2 1576   3.740   1.814   0.230 -1.1214  1.7954  0.4044
  539TIP3   OH2 1577   3.893   0.114   5.403  0.0808  0.4435 -0.3775
  539TIP3    H1 1578   3.820   0.107   5.464 -0.8981  0.3843 -1.5354
  539TIP3    H2 1579   3.881   0.040   5.343  1.1182  0.3996 -0.5411
  540TIP3   OH2 1580   5.069   3.266   0.431 -0.2366  0.3310  0.0068
  540TIP3    H1 1581   5.123   3.186   0.428  1.2554  1.3267 -0.1183
  540TIP3    H2 1582   5.026   3.262   0.517  1.3126  0.3250  0.8048
  541TIP3   OH2 1583   5.484   1.668   0.530 -0.0031  0.2091 -0.4581
  541TIP3    H1 1584   5.445   1.609   0.595  0.4930 -0.6248 -0.9142
  541TIP3    H2 1585   5.575   1.641   0.524  0.3232  1.2817 -0.3870
  542TIP3   OH2 1586   6.108   3.607   0.101  0.6021 -0.2930  0.0556
  542TIP3    H1 1587   6.132   3.606   0.008 -0.6635  0.4583 -0.2859
  542TIP3    H2 1588   6.087   3.698   0.119 -0.6213 -0.7000  0.6988
  543TIP3   OH2 1589   5.448   0.187   4.735  0.3474 -0.1240 -0.2144
  543TIP3    H1 1590   5.499   0.203   4.814  0.0396  0.7617 -0.1848
  543TIP3    H2 1591   5.362   0.225   4.754  0.3177  0.2379 -1.0297
  544TIP3   OH2 1592   6.359   1.864   0.234 -0.4928  0.1987  0.8270
  544TIP3    H1 1593   6.263   1.865   0.233 -0.5197 -1.4137 -0.6277
  544TIP3    H2 1594   6.382   1.774   0.211  1.4108  1.6883 -3.5731
  545TIP3   OH2 1595   7.380   4.015   5.694  0.5243  0.3022 -0.1557
  545TIP3    H1 1596   7.295   4.001   5.650  0.8889  0.4756 -0.9331
  545TIP3    H2 1597   7.433   4.062   5.629  1.0742  0.5769  0.4872
  546TIP3   OH2 1598   6.481   2.595   0.927  0.4707 -0.1473  0.5251
  546TIP3    H1 1599   6.525   2.510   0.925 -0.8238 -0.8697  1.8299
  546TIP3    H2 1600   6.547   2.656   0.960  0.6859 -1.1064  1.9022
  547TIP3   OH2 1601   7.090   0.416   0.478  0.3209  0.2813  0.0571
  547TIP3    H1 1602   7.001   0.446   0.457 -0.7646 -3.0489 -0.4561
  547TIP3    H2 1603   7.080   0.368   0.560  1.5940 -0.2437 -0.0876
  548TIP3   OH2 1604   4.984   4.131   1.282  0.3179  0.2701  0.8425
  548TIP3    H1 1605   5.030   4.129   1.198 -0.5398 -1.0624  0.3861
  548TIP3    H2 1606   5.043   4.179   1.341  1.8967 -0.6487  0.0476
  549TIP3   OH2 1607   4.305   2.106   0.627  0.0756  0.2089  0.5764
  549TIP3    H1 1608   4.245   2.094   0.701  0.5153  1.6813  1.1901
  549TIP3    H2 1609   4.265   2.177   0.577  0.1428 -0.3245 -0.2410
  550TIP3   OH2 1610   5.837   3.104   0.160  0.1115 -0.9217  0.0490
  550TIP3    H1 1611   5.750   3.070   0.138 -0.6865  3.2217 -4.1268
  550TIP3    H2 1612   5.890   3.086   0.083  0.9395  2.6720 -0.3321
  551TIP3   OH2 1613   1.093   6.643   5.754 -0.0835  0.2858  0.4438
  551TIP3    H1 1614   1.173   6.603   5.790 -0.1791  0.2924  0.6671
  551TIP3    H2 1615   1.054   6.574   5.700  0.0988  0.2997  0.2939
  552TIP3   OH2 1616   2.614   5.342   4.838 -0.3908  0.3612 -0.6261
  552TIP3    H1 1617   2.638   5.250   4.827 -1.6312  0.0958 -1.1653
  552TIP3    H2 1618   2.520   5.340   4.857 -0.6783  1.5865 -1.8266
  553TIP3   OH2 1619   3.207   0.276   4.922 -0.0464  0.6780  0.2489
  553TIP3    H1 1620   3.282   0.241   4.971 -0.8852 -1.4896  0.0411
  553TIP3    H2 1621   3.242   0.350   4.874  1.1301  2.0374  3.0563
  554TIP3   OH2 1622   3.986   3.298   1.417  0.1198  0.5156  0.1689
  554TIP3    H1 1623   3.917   3.361   1.435 -0.1442 -0.3293  2.3454
  554TIP3    H2 1624   4.042   3.341   1.353 -0.8390  2.3859  0.5487
  555TIP3   OH2 1625   6.604   3.276   0.971  0.1725 -0.0011  0.4534
  555TIP3    H1 1626   6.654   3.326   0.907 -0.2311 -0.8676 -0.5680
  555TIP3    H2 1627   6.640   3.187   0.965  0.1967 -0.0678  1.5039
  556TIP3   OH2 1628   4.303   1.875   1.820  0.4351  0.0710  0.0697
  556TIP3    H1 1629   4.329   1.806   1.759  1.2630  0.9606 -0.5878
  556TIP3    H2 1630   4.213   1.854   1.843  0.2871 -0.5612 -1.0610
  557TIP3   OH2 1631   3.680   0.975   1.573  0.0469  0.0004 -0.4106
  557TIP3    H1 1632   3.671   0.984   1.667 -1.4907 -0.5117 -0.5072
  557TIP3    H2 1633   3.594   0.997   1.537 -0.1565 -2.4685 -1.5040
  558TIP3   OH2 1634   6.000   2.652   0.071 -0.1596 -0.2423 -0.1211
  558TIP3    H1 1635   6.034   2.569   0.037  0.9416  0.0257  0.3026
  558TIP3    H2 1636   6.013   2.646   0.166  1.5341  1.1141 -0.2546
  559TIP3   OH2 1637   4.124   2.747  -0.007  0.1757 -0.3828  0.3271
  559TIP3    H1 1638   4.111   2.828   0.041 -1.0070 -0.4574  0.1600
  559TIP3    H2 1639   4.202   2.708   0.031 -0.1779  0.0465  1.5001
  560TIP3   OH2 1640   5.905   2.989   0.889 -0.2410  0.1784  0.0964
  560TIP3    H1 1641   5.898   2.982   0.984  1.7385 -0.8840  0.2051
  560TIP3    H2 1642   5.973   3.055   0.875 -0.8609  0.6714 -0.5748
  561TIP3   OH2 1643   6.787   2.842   1.323  0.1045 -0.3753  0.0196
  561TIP3    H1 1644   6.804   2.935   1.338 -0.5437 -0.0489 -1.1750
  561TIP3    H2 1645   6.779   2.805   1.411  1.0658  0.5587  0.5198
  562TIP3   OH2 1646   3.831   2.622   1.199 -0.0790 -0.2408 -0.1071
  562TIP3    H1 1647   3.882   2.630   1.279 -1.2060  1.9030  0.4625
  562TIP3    H2 1648   3.774   2.547   1.213 -2.1004  1.6480  2.2330
  563TIP3   OH2 1649   6.579   2.709   1.783 -0.1150  0.2387 -0.8017
  563TIP3    H1 1650   6.612   2.756   1.859 -0.4490 -1.4524  0.4090
  563TIP3    H2 1651   6.623   2.624   1.787  0.3984  0.3820 -2.8904
  564TIP3   OH2 1652   5.317   1.727   2.457 -0.7276 -0.2596  0.6378
  564TIP3    H1 1653   5.386   1.677   2.413 -1.1529 -1.4104  1.2571
  564TIP3    H2 1654   5.364   1.789   2.513 -0.1961 -0.2939  0.2314
  565TIP3   OH2 1655   0.824   5.145   5.828  0.4748  0.0080 -0.4500
  565TIP3    H1 1656   0.755   5.143   5.761  1.0136 -2.6736 -0.9686
  565TIP3    H2 1657   0.800   5.076   5.890  1.7170  0.2953  0.3700
  566TIP3   OH2 1658   1.215   6.771   1.344  1.0500 -0.1706 -0.6566
  566TIP3    H1 1659   1.198   6.823   1.422 -0.1108  1.6874 -2.1331
  566TIP3    H2 1660   1.307   6.788   1.324  0.8393  0.8413 -0.7817
  567TIP3   OH2 1661   6.026   0.273   1.340 -0.0172  0.1817 -0.1711
  567TIP3    H1 1662   5.942   0.318   1.329  0.5567  1.1760 -0.6010
  567TIP3    H2 1663   6.018   0.227   1.423 -1.0735  0.0859 -0.3199
  568TIP3   OH2 1664   6.607   3.841   4.907  0.0538 -0.1614 -0.3618
  568TIP3    H1 1665   6.604   3.778   4.835  2.2923 -0.6025 -0.1108
  568TIP3    H2 1666   6.637   3.789   4.982  1.6951  1.1367 -0.0941
  569TIP3   OH2 1667   0.775   6.933   5.689 -0.3690 -0.4768 -0.1821
  569TIP3    H1 1668   0.684   6.906   5.680 -0.9460  1.8352 -1.5799
  569TIP3    H2 1669   0.780   7.018   5.644  2.0592  0.2686  1.3834
  570TIP3   OH2 1670   3.974   0.379   1.176 -0.4866 -0.5305  0.6747
  570TIP3    H1 1671   3.987   0.438   1.102 -0.2520 -0.5028  0.7383
  570TIP3    H2 1672   3.886   0.401   1.208 -0.8984 -1.0792 -0.0742
  571TIP3   OH2 1673   4.218   1.020   1.303  0.2614  0.4658  0.3320
  571TIP3    H1 1674   4.198   1.054   1.216  0.8668 -1.0894 -0.4397
  571TIP3    H2 1675   4.133   0.992   1.338  0.0775  0.6742  0.0511
  572TIP3   OH2 1676   5.412   0.486   0.425  0.1447  0.1892  0.3607
  572TIP3    H1 1677   5.496   0.493   0.381  0.0861 -0.1507  0.1924
  572TIP3    H2 1678   5.424   0.416   0.489 -0.3461 -0.6545 -0.4502
  573TIP3   OH2 1679   0.090   5.850   0.271  0.4327  0.4171 -0.2284
  573TIP3    H1 1680   0.179   5.831   0.241  0.1538 -0.8512 -0.2886
  573TIP3    H2 1681   0.054   5.908   0.204  0.7033 -0.2962 -1.0058
  574TIP3   OH2 1682   6.913   1.147   0.502 -0.4392  0.4152 -0.1012
  574TIP3    H1 1683   6.947   1.077   0.446  0.1276  0.4464  0.1948
  574TIP3    H2 1684   6.973   1.148   0.577 -0.3355  1.3422 -0.1951
  575TIP3   OH2 1685   2.275   1.111   5.660  0.2217  0.2426  0.4901
  575TIP3    H1 1686   2.211   1.074   5.600  0.0990  1.3033 -0.0363
  575TIP3    H2 1687   2.258   1.205   5.660  0.9593  0.3889  1.3086
  576TIP3   OH2 1688   4.466   2.836   1.518  0.5229  0.0557 -0.1845
  576TIP3    H1 1689   4.400   2.768   1.505  1.1639 -0.0527 -3.1602
  576TIP3    H2 1690   4.418   2.918   1.507  0.8778 -0.0249 -2.6144
  577TIP3   OH2 1691   1.995   6.407   0.104  0.5975 -0.7141  0.1481
  577TIP3    H1 1692   2.051   6.373   0.034  0.4570  1.7245 -1.2132
  577TIP3    H2 1693   2.004   6.502   0.097 -2.2721 -0.3439  1.1069
  578TIP3   OH2 1694   6.108   0.956   0.505  0.3824  0.3980 -0.7071
  578TIP3    H1 1695   6.025   0.924   0.539  0.0285  2.3672  0.3094
  578TIP3    H2 1696   6.173   0.929   0.570  0.4520 -0.4470 -1.1140
  579TIP3   OH2 1697   1.673   4.292   4.602  0.3106  0.1724 -0.4382
  579TIP3    H1 1698   1.588   4.335   4.614  0.9266  0.7860  2.1274
  579TIP3    H2 1699   1.673   4.264   4.511 -1.4923  2.6540 -1.2665
  580TIP3   OH2 1700   5.523   3.743   0.618  0.2268  0.6262  0.0825
  580TIP3    H1 1701   5.604   3.793   0.622  0.2390  0.5780  0.4435
  580TIP3    H2 1702   5.534   3.674   0.683  0.7166 -0.6005 -1.2671
  581TIP3   OH2 1703   7.267   5.029   2.197 -0.4494  0.9847  0.2442
  581TIP3    H1 1704   7.316   5.082   2.135  0.4712 -1.0468 -0.8411
  581TIP3    H2 1705   7.189   5.000   2.148 -0.2033  0.1621  0.3224
  582TIP3   OH2 1706   3.540   0.908   0.381 -0.2933 -0.0356  0.4537
  582TIP3    H1 1707   3.611   0.925   0.319 -0.8604  0.2323 -0.1283
  582TIP3    H2 1708   3.471   0.969   0.356 -0.1447  0.7695  1.9885
  583TIP3   OH2 1709   5.758   0.650   1.960  0.1124  0.1236  0.2360
  583TIP3    H1 1710   5.843   0.672   1.921  0.2087  0.1524  0.4573
  583TIP3    H2 1711   5.780   0.600   2.039  0.0122  2.0333  1.5150
  584TIP3   OH2 1712   1.483   5.656   6.289  0.3608  0.2289  1.0272
  584TIP3    H1 1713   1.430   5.580   6.266  0.0855 -0.0942  2.7277
  584TIP3    H2 1714   1.437   5.730   6.249  0.0568 -0.3517  0.2847
  585TIP3   OH2 1715   1.478   5.980   5.748  0.8811  0.4267  0.0815
  585TIP3    H1 1716   1.514   5.910   5.803  0.0081 -0.9948 -1.1240
  585TIP3    H2 1717   1.401   6.010   5.796 -0.0118 -0.9676 -0.4315
  586TIP3   OH2 1718   0.157   2.376   1.626 -0.0557 -0.4550 -0.1879
  586TIP3    H1 1719   0.231   2.419   1.584  0.7602  2.0457  3.6084
  586TIP3    H2 1720   0.196   2.305   1.678 -0.2273  1.1052  2.1206
  587TIP3   OH2 1721   3.774   1.130   0.967  0.2567  0.7124  0.3158
  587TIP3    H1 1722   3.750   1.193   0.899  1.2004 -0.0412 -0.7422
  587TIP3    H2 1723   3.691   1.107   1.008 -0.1656  2.1812  0.3050
  588TIP3   OH2 1724   4.891   1.682   1.171  0.6675 -0.3424  0.2968
  588TIP3    H1 1725   4.986   1.692   1.165  0.8794 -1.3087  1.9722
  588TIP3    H2 1726   4.860   1.765   1.207  0.9954 -0.4613  0.8532
  589TIP3   OH2 1727   6.374   6.009   5.492 -0.4558 -0.3582  0.3136
  589TIP3    H1 1728   6.464   6.039   5.479 -0.3371 -0.7095  0.3365
  589TIP3    H2 1729   6.339   6.068   5.559 -0.4173  0.1320 -0.0986
  590TIP3   OH2 1730   0.179   3.833   4.639  0.0821 -0.5839  0.0587
  590TIP3    H1 1731   0.140   3.920   4.637 -0.6969 -0.9295  0.2763
  590TIP3    H2 1732   0.246   3.836   4.571  0.3409  0.3161  0.3481
  591TIP3   OH2 1733   6.692   3.439   0.766  0.6621  0.3945  0.0845
  591TIP3    H1 1734   6.633   3.514   0.778  2.0384  1.2893  1.3624
  591TIP3    H2 1735   6.751   3.467   0.696 -0.5817 -0.6261 -1.4188
  592TIP3   OH2 1736   7.363   4.961   6.302  0.2039 -0.0681  0.6643
  592TIP3    H1 1737   7.316   5.021   6.245  1.2337  1.4721  1.3971
  592TIP3    H2 1738   7.297   4.898   6.331 -0.9747  0.9379  0.1799
  593TIP3   OH2 1739   1.783   6.655   5.011 -0.2319 -0.2257  0.2561
  593TIP3    H1 1740   1.843   6.729   5.002 -1.3884  1.0445  2.5286
  593TIP3    H2 1741   1.703   6.683   4.967 -0.8629  0.1431  1.5957
  594TIP3   OH2 1742   6.694   2.510   1.488  0.5337 -0.3682 -0.1217
  594TIP3    H1 1743   6.778   2.465   1.500 -0.3051 -1.4794  1.9161
  594TIP3    H2 1744   6.666   2.487   1.400  2.5047  0.2679 -0.9348
  595TIP3   OH2 1745   4.414   3.026   2.470 -0.3396 -0.1510 -0.3613
  595TIP3    H1 1746   4.428   3.058   2.559  2.7040 -1.2266 -0.3680
  595TIP3    H2 1747   4.413   2.931   2.479  0.6188 -0.2906 -1.5153
  596TIP3   OH2 1748   5.662   2.434   0.798 -0.1969  0.3023 -0.2664
  596TIP3    H1 1749   5.627   2.450   0.710  2.7864 -0.2186 -1.5811
  596TIP3    H2 1750   5.726   2.503   0.812 -0.0127 -0.1355  1.1758
  597TIP3   OH2 1751   6.689   0.619   0.054 -0.7560 -0.3868 -0.1414
  597TIP3    H1 1752   6.708   0.579   0.139  0.7786  3.2226  1.3300
  597TIP3    H2 1753   6.774   0.641   0.018 -1.5216  1.4712 -0.8789
  598TIP3   OH2 1754   0.393   4.513   6.179 -0.0011  0.6576 -0.1942
  598TIP3    H1 1755   0.480   4.532   6.216 -0.0384  1.6988 -0.6218
  598TIP3    H2 1756   0.335   4.514   6.255  0.4316 -0.5737  0.1692
  599TIP3   OH2 1757   6.373   1.382   1.671 -0.1828  0.1778  0.7819
  599TIP3    H1 1758   6.288   1.351   1.701 -0.7917 -0.5744 -1.6357
  599TIP3    H2 1759   6.417   1.303   1.638  0.8347  0.8342  0.5473
  600TIP3   OH2 1760   6.257   1.351   0.173 -0.1956 -0.5096  0.5316
  600TIP3    H1 1761   6.169   1.334   0.139  0.3037 -1.4309 -0.3289
  600TIP3    H2 1762   6.312   1.285   0.131  1.0121  0.4106  0.6363
  601TIP3   OH2 1763   5.434   0.819   0.043 -0.1630  0.3491 -0.0975
  601TIP3    H1 1764   5.394   0.733   0.057  1.0850 -0.3488 -0.7193
  601TIP3    H2 1765   5.374   0.880   0.084 -3.2447 -0.3940 -3.3117
  602TIP3   OH2 1766   7.308   2.924   6.195 -0.2650  0.0177 -0.1269
  602TIP3    H1 1767   7.229   2.950   6.147  0.4563  0.8593 -0.8739
  602TIP3    H2 1768   7.297   2.964   6.281 -0.2407  0.8878 -0.5216
  603TIP3   OH2 1769   5.866   4.373   0.161 -0.4924  0.0802 -0.0789
  603TIP3    H1 1770   5.890   4.424   0.085  0.7594 -1.2892 -0.6384
  603TIP3    H2 1771   5.868   4.435   0.234 -1.0706  1.2539 -1.0591
  604TIP3   OH2 1772   1.308   6.498   5.040  0.1763 -0.4570 -0.0046
  604TIP3    H1 1773   1.331   6.588   5.066 -0.9813  0.1906 -1.1648
  604TIP3    H2 1774   1.299   6.452   5.123 -1.8755  1.1933  0.7435
  605TIP3   OH2 1775   7.650   3.142   1.801 -0.2039  0.1564 -0.3288
  605TIP3    H1 1776   7.696   3.215   1.758 -1.4768  0.9302 -0.4097
  605TIP3    H2 1777   7.568   3.181   1.832 -0.2793 -0.9281  0.8472
  606TIP3   OH2 1778   6.300   2.237   1.281 -0.8889 -0.1233 -0.1493
  606TIP3    H1 1779   6.339   2.235   1.368  1.6319 -1.9655 -1.2415
  606TIP3    H2 1780   6.325   2.323   1.246  2.4803 -1.3119 -0.8746
  607TIP3   OH2 1781   6.411   1.611   0.127 -0.1894 -0.4122  0.4296
  607TIP3    H1 1782   6.496   1.569   0.115 -0.2064 -0.4993  0.6238
  607TIP3    H2 1783   6.354   1.542   0.161 -0.2419 -0.2579  0.6563
  608TIP3   OH2 1784   4.574   1.982   3.624 -0.3664 -0.3482 -0.2276
  608TIP3    H1 1785   4.497   1.984   3.681  0.0343 -1.6517  0.3762
  608TIP3    H2 1786   4.630   1.914   3.661  1.1775  0.7157 -0.5440
  609TIP3   OH2 1787   6.945   5.349   6.229  0.3975 -0.0898 -0.2078
  609TIP3    H1 1788   6.865   5.372   6.183 -0.4636 -3.4945 -0.5352
  609TIP3    H2 1789   6.916   5.295   6.303  2.2853 -0.2529  0.4517
  610TIP3   OH2 1790   4.256   3.353   2.854  0.1008 -0.0726 -0.0098
  610TIP3    H1 1791   4.164   3.363   2.880 -0.1851 -2.6828  0.1039
  610TIP3    H2 1792   4.306   3.382   2.930 -0.6048  1.1355  0.0139
  611TIP3   OH2 1793   4.939   2.821   3.581  0.3475 -0.0971 -0.2231
  611TIP3    H1 1794   4.893   2.895   3.541  1.1132  0.3725 -0.2653
  611TIP3    H2 1795   4.949   2.845   3.673  0.9267  0.0334 -0.3140
  612TIP3   OH2 1796   4.740   1.240   1.191 -0.2226 -0.3050 -0.0192
  612TIP3    H1 1797   4.767   1.303   1.257  0.3639 -0.0369 -0.5121
  612TIP3    H2 1798   4.696   1.292   1.124 -0.0900 -0.4747 -0.2371
  613TIP3   OH2 1799   6.174   3.425   1.905  0.8818 -0.2289 -0.0702
  613TIP3    H1 1800   6.249   3.410   1.962  0.5691  1.4028  0.8103
  613TIP3    H2 1801   6.176   3.353   1.842  1.8641 -1.4513  1.3323
  614TIP3   OH2 1802   3.797   3.925   0.214 -0.3458 -0.1795  0.4978
  614TIP3    H1 1803   3.806   4.018   0.190 -0.2584 -0.3550 -0.1639
  614TIP3    H2 1804   3.886   3.898   0.239 -0.2633 -0.2215  0.1690
  615TIP3   OH2 1805   6.839   1.499   2.425 -0.2477  0.0597 -0.2314
  615TIP3    H1 1806   6.756   1.524   2.466  0.0456  1.3876 -0.4044
  615TIP3    H2 1807   6.816   1.485   2.333  0.0180  2.2277 -0.6655
  616TIP3   OH2 1808   1.232   7.269   5.222 -0.6813  0.1329  0.3252
  616TIP3    H1 1809   1.239   7.177   5.245 -1.5144  0.7324  3.1730
  616TIP3    H2 1810   1.140   7.280   5.196 -0.6234  0.1840  0.1431
  617TIP3   OH2 1811   6.048   1.892   1.036  0.2801 -0.2089 -0.4577
  617TIP3    H1 1812   5.964   1.899   0.991 -0.1445  0.4436  0.4136
  617TIP3    H2 1813   6.024   1.870   1.127  1.0724 -0.5638 -0.3351
  618TIP3   OH2 1814   6.390   3.822   1.309 -0.1223 -0.2980  0.1383
  618TIP3    H1 1815   6.394   3.910   1.345 -0.3711 -0.3244  0.2318
  618TIP3    H2 1816   6.437   3.768   1.373  3.0993  0.3066 -1.6175
  619TIP3   OH2 1817   6.738   2.949   2.765  0.7214 -0.2724 -0.1149
  619TIP3    H1 1818   6.699   2.935   2.678 -1.3623 -2.6798  1.1590
  619TIP3    H2 1819   6.793   2.872   2.779  1.9579  0.6603  0.2594
  620TIP3   OH2 1820   6.974   3.977   2.592  0.1091 -0.0257  0.1382
  620TIP3    H1 1821   7.024   3.953   2.514  0.3781 -0.7595  0.5379
  620TIP3    H2 1822   6.905   3.912   2.598  1.0966 -0.9726  1.4663
  621TIP3   OH2 1823   6.907   1.795   2.142 -0.4130 -0.6855  0.2623
  621TIP3    H1 1824   6.984   1.751   2.104  0.7948  0.8885  0.8113
  621TIP3    H2 1825   6.833   1.741   2.116  0.5132 -0.4273 -3.1689
  622TIP3   OH2 1826   5.447   3.104   1.062 -0.4105  0.2520 -0.2245
  622TIP3    H1 1827   5.522   3.098   1.002  0.1200 -1.2278  0.5568
  622TIP3    H2 1828   5.379   3.052   1.018 -0.9897  1.5641 -0.9155
  623TIP3   OH2 1829   5.073   1.758   2.877 -0.4742  0.0020 -0.5700
  623TIP3    H1 1830   5.153   1.711   2.856  0.1029  0.9833 -0.6033
  623TIP3    H2 1831   5.043   1.720   2.959  0.3874  0.0722 -0.2157
  624TIP3   OH2 1832   3.042   3.140   1.911 -0.0130  0.8174  0.3621
  624TIP3    H1 1833   2.984   3.087   1.857  0.1628 -0.2260  1.1754
  624TIP3    H2 1834   3.003   3.228   1.911 -1.9025 -0.0036  1.3678
  625TIP3   OH2 1835   2.237   6.116   1.829  0.0855 -0.5086  0.6912
  625TIP3    H1 1836   2.198   6.044   1.780  0.8324 -1.9039  2.0844
  625TIP3    H2 1837   2.169   6.183   1.833 -1.3726 -1.9809  1.1459
  626TIP3   OH2 1838   4.917   1.934   1.274  0.7627  0.5470  0.3078
  626TIP3    H1 1839   4.962   1.892   1.348  1.4554 -1.3760 -1.1550
  626TIP3    H2 1840   4.983   1.937   1.204 -0.2814  1.1020 -0.6820
  627TIP3   OH2 1841   1.593   6.776   0.282  0.1101 -0.4794  0.0431
  627TIP3    H1 1842   1.685   6.754   0.293  0.0250 -1.6292 -1.3360
  627TIP3    H2 1843   1.590   6.872   0.285  1.0333 -0.4871  2.2356
  628TIP3   OH2 1844   5.410   1.421   0.658 -0.3557 -0.1669 -0.4428
  628TIP3    H1 1845   5.459   1.339   0.649 -2.2365 -1.4718  0.9315
  628TIP3    H2 1846   5.319   1.394   0.667 -0.9312  2.0479  0.7437
  629TIP3   OH2 1847   1.054   1.391   5.949  0.1930  0.3544  0.5765
  629TIP3    H1 1848   1.075   1.451   6.021  0.6767  1.7478 -0.6908
  629TIP3    H2 1849   0.995   1.327   5.988  1.4607  0.3193  2.5358
  630TIP3   OH2 1850   4.819   0.609   4.539  0.1747  0.2934  0.1400
  630TIP3    H1 1851   4.754   0.677   4.553 -0.7195 -0.5204 -0.0356
  630TIP3    H2 1852   4.778   0.529   4.572  0.4677 -0.5129 -1.4218
  631TIP3   OH2 1853   2.676   5.152   5.595 -0.0387  0.7604 -0.0812
  631TIP3    H1 1854   2.758   5.126   5.636  0.7117  2.1967 -0.6325
  631TIP3    H2 1855   2.622   5.185   5.667  1.0428  2.6910 -0.1016
  632TIP3   OH2 1856  -0.007   3.263   1.216 -0.2190  0.7492  0.1014
  632TIP3    H1 1857   0.009   3.216   1.134  1.2487 -0.4662  1.0716
  632TIP3    H2 1858   0.061   3.331   1.217  0.4491  0.0709  0.8329
  633TIP3   OH2 1859   0.297   5.652   6.191 -0.5674 -0.1605  0.0698
  633TIP3    H1 1860   0.383   5.613   6.178  0.1799  1.2828  0.5741
  633TIP3    H2 1861   0.261   5.605   6.267  0.2250 -0.0396  0.5291
  634TIP3   OH2 1862   7.006   1.300   0.952  0.0775  0.2896 -0.0158
  634TIP3    H1 1863   7.046   1.272   1.034 -0.4423  0.8675  0.4487
  634TIP3    H2 1864   6.920   1.333   0.978  0.2797  1.3686 -0.6533
  635TIP3   OH2 1865   0.505   4.115   5.974  0.3521  0.3212 -0.1359
  635TIP3    H1 1866   0.568   4.053   6.010  1.9152  2.6335  1.2950
  635TIP3    H2 1867   0.456   4.146   6.049 -0.4563  0.7548 -0.8361
  636TIP3   OH2 1868   0.109   5.663   5.997  0.0381 -0.3517 -0.4749
  636TIP3    H1 1869   0.041   5.702   6.053 -0.2024 -1.6755  0.1706
  636TIP3    H2 1870   0.180   5.642   6.057  0.2829 -0.6359 -0.8631
  637TIP3   OH2 1871   0.036   7.302   6.068 -0.6312  0.6391  0.0408
  637TIP3    H1 1872   0.047   7.242   6.142  0.2506 -0.6525 -1.1223
  637TIP3    H2 1873   0.069   7.386   6.100  0.1131 -0.0083  0.9771
  638TIP3   OH2 1874   5.288   0.592   2.674 -0.3503  0.0552  0.7680
  638TIP3    H1 1875   5.214   0.648   2.651 -0.6520 -0.1924  1.1151
  638TIP3    H2 1876   5.343   0.590   2.596 -0.3725  0.7785  0.7294
  639TIP3   OH2 1877   5.740   2.430   1.150 -0.3007  0.3591 -0.2112
  639TIP3    H1 1878   5.659   2.467   1.114 -0.1518 -0.8979 -1.9224
  639TIP3    H2 1879   5.803   2.501   1.148 -0.2460  0.2616 -2.6612
  640TIP3   OH2 1880   7.298   7.129   6.396 -0.2378 -0.1477 -0.5281
  640TIP3    H1 1881   7.260   7.217   6.394  2.1498  0.9190 -0.8903
  640TIP3    H2 1882   7.352   7.124   6.316  0.1049 -1.7233 -0.2234
  641TIP3   OH2 1883   6.286   1.067   1.314  0.1311  0.1467 -0.1024
  641TIP3    H1 1884   6.205   1.021   1.337 -0.5535  1.0393 -0.7076
  641TIP3    H2 1885   6.257   1.151   1.278  1.3104  0.2266 -0.8932
  642TIP3   OH2 1886   2.982   4.926   0.211  0.3462  0.0283  0.2449
  642TIP3    H1 1887   2.990   4.941   0.305 -0.2156  0.6218  0.1995
  642TIP3    H2 1888   3.007   5.009   0.171  1.7660 -0.5933 -0.1758
  643TIP3   OH2 1889   5.615   3.171   0.360  0.3065 -0.1440 -0.2251
  643TIP3    H1 1890   5.647   3.180   0.450  0.2378  0.3323 -0.2469
  643TIP3    H2 1891   5.693   3.148   0.309  1.0279  2.8151 -0.5901
  644TIP3   OH2 1892   7.081   4.511   0.363  0.2503 -0.0332  0.7780
  644TIP3    H1 1893   7.169   4.548   0.372 -0.9061  2.3430  2.9525
  644TIP3    H2 1894   7.066   4.465   0.446  0.5616 -3.0525 -0.7784
  645TIP3   OH2 1895   6.816   2.798   1.595 -0.3872 -0.1841 -0.6685
  645TIP3    H1 1896   6.735   2.820   1.640  0.2698  0.4903  0.2172
  645TIP3    H2 1897   6.832   2.707   1.617 -0.0113  0.1677  0.5966
  646TIP3   OH2 1898   7.407   6.185   6.137  1.0757 -0.4622 -0.4108
  646TIP3    H1 1899   7.436   6.205   6.048  0.1561 -2.5187 -1.1984
  646TIP3    H2 1900   7.328   6.239   6.149  1.1101 -0.2989 -0.9027
  647TIP3   OH2 1901   7.342   4.635   0.811 -0.2749 -0.5403  0.1842
  647TIP3    H1 1902   7.415   4.582   0.778  0.4077  0.2854  0.3433
  647TIP3    H2 1903   7.300   4.580   0.876  0.3686 -0.9257  0.2795
  648TIP3   OH2 1904   5.271   1.172   6.257 -0.0858  0.1159 -0.6372
  648TIP3    H1 1905   5.256   1.119   6.179 -0.7192  2.3288 -2.0519
  648TIP3    H2 1906   5.206   1.241   6.252  0.5493  0.8785  1.3243
  649TIP3   OH2 1907   2.338   6.877   5.534  0.1365  0.3013 -0.2517
  649TIP3    H1 1908   2.395   6.836   5.468  0.6626  1.1130 -0.3011
  649TIP3    H2 1909   2.266   6.815   5.543  0.9191 -0.6539 -0.3343
  650TIP3   OH2 1910   2.295   3.421   0.258 -0.6196 -0.6110  0.2625
  650TIP3    H1 1911   2.371   3.364   0.272  0.8661  1.0913 -0.6036
  650TIP3    H2 1912   2.324   3.483   0.191 -1.9998  1.5313  1.5955
  651TIP3   OH2 1913   6.380   6.582   5.968  0.7246 -0.4293 -0.2430
  651TIP3    H1 1914   6.411   6.639   5.897 -0.5023  0.8809  0.2491
  651TIP3    H2 1915   6.285   6.586   5.962  0.6304 -2.1042  0.0822
  652TIP3   OH2 1916   7.695   6.665   6.274  0.2218  0.0553 -0.1046
  652TIP3    H1 1917   7.686   6.689   6.366 -0.1109 -1.8042  0.3652
  652TIP3    H2 1918   7.669   6.744   6.226 -1.1078  0.5390  1.3725
  653TIP3   OH2 1919   0.054   4.702   4.378  0.4281  0.7260  1.0115
  653TIP3    H1 1920   0.070   4.780   4.324  2.6839 -0.6240 -0.3573
  653TIP3    H2 1921  -0.039   4.707   4.401 -0.5350  1.5034 -2.7550
  654TIP3   OH2 1922   5.149   1.904   0.203 -0.1366 -0.9915 -0.1569
  654TIP3    H1 1923   5.119   1.975   0.259  2.5635  0.4932 -0.5293
  654TIP3    H2 1924   5.075   1.843   0.199 -2.0830  1.2522  1.0501
  655TIP3   OH2 1925   3.691   1.684   0.749 -0.1472 -0.6100  0.0806
  655TIP3    H1 1926   3.786   1.672   0.747 -0.3806 -2.6069 -0.7826
  655TIP3    H2 1927   3.678   1.775   0.775  1.9658 -0.7165  1.5965
  656TIP3   OH2 1928   4.972   1.394   4.092 -0.0701  0.3971 -0.1497
  656TIP3    H1 1929   4.982   1.433   4.179 -2.2239 -1.5673  1.0112
  656TIP3    H2 1930   4.997   1.303   4.103 -1.4506 -0.1407 -1.3197
  657TIP3   OH2 1931   4.496   2.245   2.233 -0.3027 -0.3448  0.5330
  657TIP3    H1 1932   4.519   2.161   2.192 -0.6737  0.1840 -0.8048
  657TIP3    H2 1933   4.413   2.228   2.277  0.5261 -1.1500  1.8032
  658TIP3   OH2 1934   5.920   2.907   3.561 -0.5073  0.5628 -0.6381
  658TIP3    H1 1935   5.883   2.942   3.642 -2.4696 -0.1309 -1.2074
  658TIP3    H2 1936   5.951   2.820   3.584  0.1955  0.8950 -0.3143
  659TIP3   OH2 1937   6.916   2.014   0.953  0.0587 -0.2915 -0.0017
  659TIP3    H1 1938   6.932   2.106   0.934 -0.3505 -0.3920 -0.8672
  659TIP3    H2 1939   6.929   1.970   0.869 -1.4934 -0.8070  0.0228
  660TIP3   OH2 1940   4.725   7.213   6.307  0.4482 -0.1274  0.1519
  660TIP3    H1 1941   4.788   7.214   6.380 -1.6267  0.4150  2.0078
  660TIP3    H2 1942   4.686   7.126   6.311  1.1184 -0.4801 -1.0165
  661TIP3   OH2 1943   6.927   3.060   0.710  0.9388 -0.0988  0.2183
  661TIP3    H1 1944   6.859   3.086   0.647  0.1817 -2.3177  0.0815
  661TIP3    H2 1945   6.878   3.031   0.787  1.6425 -2.8608 -0.3172
  662TIP3   OH2 1946   5.931   1.764   1.864  0.0850  0.5415 -0.1838
  662TIP3    H1 1947   5.973   1.797   1.784  0.1524  0.9641  0.0234
  662TIP3    H2 1948   5.975   1.811   1.935  1.0854 -0.9373  0.2005
  663TIP3   OH2 1949   1.357   5.722   4.648 -0.1387 -0.0071  0.9442
  663TIP3    H1 1950   1.356   5.626   4.642 -1.3102 -0.0577  1.7032
  663TIP3    H2 1951   1.434   5.741   4.702 -0.4813 -0.5899  1.6528
  664TIP3   OH2 1952   1.894   5.592   6.074 -0.0262 -0.1070  0.4485
  664TIP3    H1 1953   1.854   5.506   6.059 -1.7985  0.4204  2.1064
  664TIP3    H2 1954   1.968   5.574   6.132  0.7402 -0.7404 -0.6880
  665TIP3   OH2 1955   6.345   1.770   0.731  0.5113  0.5138 -0.0658
  665TIP3    H1 1956   6.267   1.714   0.735  0.8643 -0.1603 -1.9244
  665TIP3    H2 1957   6.418   1.709   0.744  0.8162  0.7706 -0.5406
  666TIP3   OH2 1958   0.210   2.347   0.820 -0.8391 -0.6833 -0.3905
  666TIP3    H1 1959   0.147   2.278   0.801 -0.9647 -0.4277 -0.9038
  666TIP3    H2 1960   0.245   2.324   0.906 -0.6650 -1.5479 -0.6846
  667TIP3   OH2 1961   6.969   4.473   1.344  0.2026 -0.6820 -0.0447
  667TIP3    H1 1962   7.046   4.512   1.302  0.3118 -0.8275  0.0209
  667TIP3    H2 1963   6.895   4.516   1.302  0.3315 -0.0001  0.4127
  668TIP3   OH2 1964   7.385   3.736   0.321 -0.7976  0.4546 -0.5767
  668TIP3    H1 1965   7.302   3.691   0.308 -0.1407 -1.7737  2.3574
  668TIP3    H2 1966   7.445   3.697   0.258 -0.8603 -1.1137  0.3212
  669TIP3   OH2 1967   7.310   1.918   1.803  0.1682 -0.5671 -0.4869
  669TIP3    H1 1968   7.389   1.867   1.823  0.6177 -0.3542 -1.6754
  669TIP3    H2 1969   7.297   1.906   1.709 -0.7312  0.0905 -0.4513
  670TIP3   OH2 1970   6.881   1.574   0.553 -0.0816  0.2542  0.5126
  670TIP3    H1 1971   6.919   1.519   0.484 -0.1476  0.8353  0.0055
  670TIP3    H2 1972   6.879   1.662   0.514  1.0739  0.8310  1.7082
  671TIP3   OH2 1973   3.182   0.311   5.528  0.0587  0.0056  0.1246
  671TIP3    H1 1974   3.093   0.281   5.511 -0.1424  1.3918 -1.3381
  671TIP3    H2 1975   3.180   0.405   5.511  1.7843  0.0773  0.1678
  672TIP3   OH2 1976   6.613   3.446   0.081  0.5863 -0.2551 -0.8103
  672TIP3    H1 1977   6.562   3.499   0.019 -1.7260 -3.3222 -1.6568
  672TIP3    H2 1978   6.669   3.392   0.025  1.4480 -0.1515 -0.0521
  673TIP3   OH2 1979   6.758   3.843   0.341  0.1159  0.1742  0.7907
  673TIP3    H1 1980   6.715   3.775   0.288  0.9340 -0.3580  0.7959
  673TIP3    H2 1981   6.739   3.818   0.431 -0.3949  0.4951  0.7745
  674TIP3   OH2 1982   0.618   5.828   0.659 -0.0405 -0.4365 -0.3163
  674TIP3    H1 1983   0.679   5.898   0.681 -0.1456 -0.1816 -0.8101
  674TIP3    H2 1984   0.663   5.748   0.684 -0.4473 -0.1226  1.4544
  675TIP3   OH2 1985   5.371   0.579   6.372  0.0923 -0.2790  0.4516
  675TIP3    H1 1986   5.309   0.506   6.370  0.2192 -0.3532 -0.9254
  675TIP3    H2 1987   5.451   0.544   6.334  0.4289  0.3213  0.6032
  676TIP3   OH2 1988   7.732   0.927   2.110 -0.3239 -0.6214  0.4226
  676TIP3    H1 1989   7.774   1.013   2.113 -1.1772 -0.2239  0.9252
  676TIP3    H2 1990   7.646   0.940   2.149 -0.6879 -1.5761 -0.0426
  677TIP3   OH2 1991   7.035   2.597   2.738  0.3873  0.2375 -0.4622
  677TIP3    H1 1992   6.968   2.631   2.798  0.0620 -0.2900 -0.5185
  677TIP3    H2 1993   7.010   2.633   2.652  1.1794  1.4549 -0.1916
  678TIP3   OH2 1994   5.973   1.836   5.974 -0.2892  0.0833  0.2257
  678TIP3    H1 1995   5.951   1.890   6.050  1.0218 -0.2657  0.8669
  678TIP3    H2 1996   6.046   1.782   6.004 -0.3584 -0.7011 -1.0078
  679TIP3   OH2 1997   2.105   4.264   0.115 -0.0868 -0.4386 -0.1844
  679TIP3    H1 1998   2.178   4.214   0.080  0.6378 -0.7698  1.7283
  679TIP3    H2 1999   2.028   4.226   0.074  0.8929  1.0867 -3.6049
  680TIP3   OH2 2000   0.629   1.693   1.548 -0.2655 -0.0110 -0.4697
  680TIP3    H1 2001   0.612   1.782   1.580  1.2687  0.0551  0.2073
  680TIP3    H2 2002   0.617   1.638   1.625  2.0206 -0.0136 -0.0816
  681TIP3   OH2 2003   7.355   3.088   1.963 -0.0461  0.5299  0.0852
  681TIP3    H1 2004   7.407   3.114   2.039 -0.6506 -1.8743  1.3851
  681TIP3    H2 2005   7.354   2.992   1.966 -1.6195  0.4291 -1.9293
  682TIP3   OH2 2006   7.400   4.948   2.734  0.3732 -0.1477 -0.3373
  682TIP3    H1 2007   7.309   4.919   2.741  0.5369 -0.6134 -0.0998
  682TIP3    H2 2008   7.395   5.037   2.701 -0.1365 -0.4803 -1.1707
  683TIP3   OH2 2009   2.568   7.314   5.028 -0.0614  0.4966 -0.2848
  683TIP3    H1 2010   2.628   7.299   4.954 -1.1032 -1.7245 -0.7316
  683TIP3    H2 2011   2.623   7.352   5.096  1.4670  0.2165 -1.3294
  684TIP3   OH2 2012   1.799   5.763   2.427  0.2328  0.3430 -0.4486
  684TIP3    H1 2013   1.869   5.732   2.485 -0.3691 -0.0120  0.0850
  684TIP3    H2 2014   1.805   5.706   2.350  0.5391  0.3267 -0.4139
  685TIP3   OH2 2015   6.832   3.558   1.885 -0.4591  0.0616 -0.0162
  685TIP3    H1 2016   6.872   3.505   1.816 -2.1557 -0.4717 -0.5930
  685TIP3    H2 2017   6.907   3.591   1.935  0.7055 -1.1150 -0.9405
  686TIP3   OH2 2018   2.537   6.003   6.183 -0.5611  0.3771 -0.2543
  686TIP3    H1 2019   2.505   5.929   6.235  0.4065  0.4476  0.4515
  686TIP3    H2 2020   2.618   6.030   6.226  0.2724  0.4257 -1.8063
  687TIP3   OH2 2021   0.462   1.957   1.382 -0.0697  0.5334  0.9247
  687TIP3    H1 2022   0.550   1.978   1.351  0.4265 -1.7497  0.6934
  687TIP3    H2 2023   0.472   1.944   1.476 -0.1436  0.2018  0.8863
  688TIP3   OH2 2024   0.989   3.000   3.013  0.1561 -0.0807  0.0172
  688TIP3    H1 2025   0.911   2.946   3.025  0.6859 -0.5096  1.7423
  688TIP3    H2 2026   1.012   3.029   3.102  0.4537  2.1723 -0.7504
  689TIP3   OH2 2027   0.054   3.426   2.367 -0.5327 -0.0857  0.4158
  689TIP3    H1 2028  -0.011   3.464   2.427  0.5905  0.4466  1.3060
  689TIP3    H2 2029   0.105   3.366   2.422  0.3946  0.2711 -0.0590
  690TIP3   OH2 2030   7.516   1.515   1.535 -0.3196  0.0052  0.5032
  690TIP3    H1 2031   7.503   1.533   1.442  1.9524 -0.5868  0.0289
  690TIP3    H2 2032   7.593   1.458   1.538 -1.5060 -1.5553  2.6232
  691TIP3   OH2 2033   1.593   4.632   0.925  0.3503  0.0939 -0.0500
  691TIP3    H1 2034   1.522   4.691   0.899  1.1531  1.0673 -0.0877
  691TIP3    H2 2035   1.662   4.691   0.957  1.2585 -0.8095 -0.3264
  692TIP3   OH2 2036   0.498   2.275   1.948 -0.4089 -0.0507  0.6646
  692TIP3    H1 2037   0.580   2.230   1.968 -0.4722 -0.1718  0.6516
  692TIP3    H2 2038   0.520   2.368   1.951 -0.1344 -0.0927  0.0967
  693TIP3   OH2 2039   7.729   1.820   0.394 -0.3873  0.0808 -0.0312
  693TIP3    H1 2040   7.743   1.726   0.401  1.6845  0.1458 -2.3855
  693TIP3    H2 2041   7.642   1.835   0.432 -2.1089 -3.2009 -2.4219
  694TIP3   OH2 2042   0.996   4.031   0.689 -0.0748  0.2515  0.1618
  694TIP3    H1 2043   0.974   3.938   0.688 -2.3815  0.6899  3.7912
  694TIP3    H2 2044   0.966   4.063   0.603 -0.2490 -2.0966 -0.6923
  695TIP3   OH2 2045   1.252   2.903   1.604  0.1852 -0.0919 -0.4816
  695TIP3    H1 2046   1.210   2.823   1.572 -0.5593 -0.1755  0.6689
  695TIP3    H2 2047   1.287   2.945   1.525 -2.3115  0.1291 -1.5234
  696TIP3   OH2 2048   7.465   4.503   1.373 -0.3016  0.0131  0.3981
  696TIP3    H1 2049   7.432   4.509   1.462  1.1209  2.3816  0.7987
  696TIP3    H2 2050   7.557   4.479   1.383  0.2865  1.9047 -0.3539
  697TIP3   OH2 2051   0.243   1.681   2.068  0.6239 -0.2988 -0.6275
  697TIP3    H1 2052   0.211   1.592   2.084  0.1001  0.2258  1.4198
  697TIP3    H2 2053   0.164   1.732   2.053  0.8259  0.0762 -0.4223
  698TIP3   OH2 2054   1.837   4.980   2.699  0.3664 -0.4576 -0.4210
  698TIP3    H1 2055   1.896   5.039   2.652  0.5259 -1.2380 -1.2122
  698TIP3    H2 2056   1.751   5.024   2.696  0.7080  0.2463 -0.0482
  699TIP3   OH2 2057   7.092   6.658   1.950  0.1861  0.1561  0.2632
  699TIP3    H1 2058   7.026   6.657   2.020 -1.0082  0.8282 -0.8285
  699TIP3    H2 2059   7.174   6.682   1.994 -0.3730 -0.3142  1.5749
  700TIP3   OH2 2060   0.177   3.792   0.507  0.2058 -0.0882 -0.1897
  700TIP3    H1 2061   0.151   3.840   0.586 -0.7678  1.1133 -1.2225
  700TIP3    H2 2062   0.215   3.859   0.450  0.4485 -0.8586 -0.9435
  701TIP3   OH2 2063   1.854   3.187   2.339 -0.3949 -0.3332  0.7281
  701TIP3    H1 2064   1.805   3.208   2.259  0.9061 -1.2195 -0.3276
  701TIP3    H2 2065   1.927   3.133   2.309  0.5761 -0.0105  2.4251
  702TIP3   OH2 2066   1.698   4.932   2.384 -0.0078 -0.4745 -0.0848
  702TIP3    H1 2067   1.706   4.996   2.314 -2.3639  0.1236  0.1487
  702TIP3    H2 2068   1.661   4.981   2.458 -0.5198 -1.7807  0.5505
  703TIP3   OH2 2069   7.041   5.984   3.345  0.1614 -0.1747  0.3558
  703TIP3    H1 2070   7.124   5.988   3.394  0.6096 -0.5133 -0.3623
  703TIP3    H2 2071   7.026   5.890   3.333  0.2945 -0.0775 -0.5548
  704TIP3   OH2 2072   0.227   5.267   0.051  0.1167 -0.1557  0.5974
  704TIP3    H1 2073   0.170   5.245  -0.023  0.1745  0.4198  0.3809
  704TIP3    H2 2074   0.272   5.347   0.024  2.3708 -1.5631  0.0154
  705TIP3   OH2 2075   0.911   5.288   2.152 -0.1442 -0.3043 -0.3331
  705TIP3    H1 2076   0.984   5.234   2.123 -0.2204 -0.1865 -0.7406
  705TIP3    H2 2077   0.941   5.326   2.235  0.7093  0.6427 -1.0625
  706TIP3   OH2 2078   0.737   3.668   1.281  0.1886  0.1421 -0.1483
  706TIP3    H1 2079   0.675   3.604   1.317  0.5027  0.1640  0.4261
  706TIP3    H2 2080   0.785   3.619   1.214 -1.6858  0.5988 -1.9011
  707TIP3   OH2 2081   6.687   2.719   0.385 -0.5361  0.0977 -0.3256
  707TIP3    H1 2082   6.774   2.734   0.347 -0.6592  1.5596 -0.0640
  707TIP3    H2 2083   6.680   2.624   0.391  1.8588 -0.0198  1.4896
  708TIP3   OH2 2084   7.130   1.670   3.018  0.6910 -0.7776 -0.5083
  708TIP3    H1 2085   7.216   1.708   2.997 -0.2125  0.9751 -1.0880
  708TIP3    H2 2086   7.145   1.623   3.100  2.3059 -0.8387 -0.8068
  709TIP3   OH2 2087   1.620   5.103   4.117  0.1465 -0.0038  0.4301
  709TIP3    H1 2088   1.598   5.079   4.206 -1.0471  0.0807  0.1666
  709TIP3    H2 2089   1.692   5.044   4.093 -0.5587 -1.0665  0.9047
  710TIP3   OH2 2090   1.063   3.325   1.359  0.4998 -0.2933  0.4876
  710TIP3    H1 2091   1.143   3.342   1.409 -0.1552 -0.0130  1.4498
  710TIP3    H2 2092   1.092   3.270   1.286  1.6408  0.1434  0.5962
  711TIP3   OH2 2093   0.930   2.069   2.206 -0.3607 -0.7379 -0.0309
  711TIP3    H1 2094   1.005   2.068   2.266  0.1867 -0.3659 -0.7059
  711TIP3    H2 2095   0.886   1.985   2.221  0.5518 -1.2285 -0.0862
  712TIP3   OH2 2096   0.756   4.325   3.474  0.4141 -0.3628  0.2557
  712TIP3    H1 2097   0.778   4.232   3.475 -1.1681 -0.7761 -0.5421
  712TIP3    H2 2098   0.813   4.365   3.540  1.5112 -1.8022  0.1862
  713TIP3   OH2 2099   7.469   3.532   2.293 -0.5881  0.0699  0.1695
  713TIP3    H1 2100   7.389   3.566   2.332  0.2314  2.6706 -0.3121
  713TIP3    H2 2101   7.535   3.542   2.361 -0.0256  0.8566 -0.4777
  714TIP3   OH2 2102   1.080   2.497   2.660 -0.1738  0.3798 -0.1873
  714TIP3    H1 2103   1.090   2.538   2.745  0.6095  0.4229 -0.2977
  714TIP3    H2 2104   1.085   2.570   2.597 -0.0958  0.2688 -0.3098
  715TIP3   OH2 2105   0.587   2.698   0.473  0.8035  0.6409  0.2789
  715TIP3    H1 2106   0.679   2.682   0.452  0.1549 -0.6367 -1.6294
  715TIP3    H2 2107   0.545   2.713   0.389 -0.5206  2.5068  1.2368
  716TIP3   OH2 2108   0.345   3.517   3.303 -0.4515  0.2595 -0.1305
  716TIP3    H1 2109   0.413   3.538   3.367  1.0381  0.5398 -1.7727
  716TIP3    H2 2110   0.378   3.440   3.257 -0.1850  1.6730 -2.4096
  717TIP3   OH2 2111   7.564   4.832   0.674  0.1870 -0.1378  0.0270
  717TIP3    H1 2112   7.586   4.808   0.763  0.3269  0.3850  0.1339
  717TIP3    H2 2113   7.646   4.864   0.636  0.3350 -1.1718 -0.5658
  718TIP3   OH2 2114   7.709   4.190   2.790  0.5880 -0.1863 -0.3331
  718TIP3    H1 2115   7.651   4.258   2.754 -0.6219 -0.0131  1.8573
  718TIP3    H2 2116   7.652   4.114   2.803  1.3192 -0.7058 -0.1634
  719TIP3   OH2 2117   0.218   2.715   3.348  0.7750 -0.6394 -0.1005
  719TIP3    H1 2118   0.181   2.740   3.264 -1.7368 -0.1791  1.1049
  719TIP3    H2 2119   0.288   2.779   3.363 -1.1261  1.5382 -0.2208
  720TIP3   OH2 2120   0.489   5.430   1.753 -0.3017 -0.0746  0.3140
  720TIP3    H1 2121   0.454   5.488   1.685 -0.9077  0.4925  1.1038
  720TIP3    H2 2122   0.452   5.464   1.835  0.9575 -0.3345  1.0042
  721TIP3   OH2 2123   4.213   6.713   6.225  0.8868  0.1582  0.1056
  721TIP3    H1 2124   4.268   6.646   6.185 -1.5535 -1.2792 -0.9503
  721TIP3    H2 2125   4.195   6.775   6.155  0.4734  0.1861  0.2360
  722TIP3   OH2 2126   6.610   4.307   0.705 -0.0861  0.2071  0.2256
  722TIP3    H1 2127   6.697   4.334   0.675  0.0060 -0.6700 -0.2957
  722TIP3    H2 2128   6.590   4.367   0.778  0.8198  0.6022  0.1499
  723TIP3   OH2 2129   6.695   2.439   1.805 -0.1316  0.4701  0.3305
  723TIP3    H1 2130   6.770   2.451   1.747  0.2252  0.8642  0.8717
  723TIP3    H2 2131   6.645   2.368   1.765 -1.0509  2.1800 -1.6472
  724TIP3   OH2 2132   7.459   1.418   0.860 -0.2520  0.1841 -0.3906
  724TIP3    H1 2133   7.416   1.340   0.825  0.4624 -0.4885  0.2354
  724TIP3    H2 2134   7.552   1.405   0.841  0.2138 -0.3669  2.0430
  725TIP3   OH2 2135   0.127   2.762   1.337 -0.4047 -0.1098  0.2018
  725TIP3    H1 2136   0.109   2.732   1.248 -1.0811  0.6823  0.0633
  725TIP3    H2 2137   0.220   2.782   1.337 -0.7888  1.7986 -0.9114
  726TIP3   OH2 2138   2.539   3.129   1.368  0.3233 -0.4208  0.1319
  726TIP3    H1 2139   2.534   3.155   1.276  0.1511 -1.1406 -0.0640
  726TIP3    H2 2140   2.519   3.209   1.417 -2.1897 -0.6571 -0.4715
  727TIP3   OH2 2141   0.569   3.876   1.109 -0.0352 -0.2352 -0.0376
  727TIP3    H1 2142   0.652   3.860   1.065  0.9597  0.1831  1.6135
  727TIP3    H2 2143   0.586   3.853   1.201 -1.6373  0.2030  0.3869
  728TIP3   OH2 2144   4.390   0.031   6.109 -0.5277  0.3224 -0.0047
  728TIP3    H1 2145   4.381   0.051   6.015 -1.3948 -0.7586 -0.1555
  728TIP3    H2 2146   4.332  -0.043   6.123  1.6924 -1.2919  0.8370
  729TIP3   OH2 2147   7.508   5.884   2.302  0.8149  0.8481 -0.3047
  729TIP3    H1 2148   7.512   5.851   2.212  0.4554  0.8595 -0.3252
  729TIP3    H2 2149   7.518   5.806   2.356 -1.5950  0.4928 -0.3488
  730TIP3   OH2 2150   6.986   4.581   2.025 -0.6000 -0.4311 -0.3906
  730TIP3    H1 2151   7.017   4.510   1.970  1.1717 -1.0155  1.3043
  730TIP3    H2 2152   7.014   4.661   1.980  0.3169 -0.8866 -0.6311
  731TIP3   OH2 2153   2.459   1.151   0.891 -0.2471 -0.4467  0.2067
  731TIP3    H1 2154   2.434   1.140   0.799 -0.3596  1.6654 -0.0373
  731TIP3    H2 2155   2.379   1.130   0.940 -0.8989  0.7637 -0.3072
  732TIP3   OH2 2156   5.347   3.525   0.810  0.4251 -0.0534 -0.6091
  732TIP3    H1 2157   5.343   3.434   0.840 -0.6555  0.2383  0.1555
  732TIP3    H2 2158   5.438   3.551   0.828  0.4610 -0.6580  0.1375
  733TIP3   OH2 2159   1.096   5.141   2.741  0.0844 -0.1915  0.0610
  733TIP3    H1 2160   1.033   5.145   2.669  1.8228 -0.0683 -1.4850
  733TIP3    H2 2161   1.142   5.225   2.738  1.5954 -0.9948 -0.0390
  734TIP3   OH2 2162   5.118   0.392   5.773 -0.2997 -0.1654  0.0164
  734TIP3    H1 2163   5.028   0.398   5.806  0.3489 -0.1696  1.8480
  734TIP3    H2 2164   5.114   0.433   5.686 -1.8129  1.0046  0.5974
  735TIP3   OH2 2165   7.728   1.075   1.538  0.3068  0.1907  0.6331
  735TIP3    H1 2166   7.668   1.051   1.467  0.5076  1.0179  0.1666
  735TIP3    H2 2167   7.813   1.043   1.508  0.4823  0.9971  0.2518
  736TIP3   OH2 2168   0.429   2.815   2.097 -0.3792 -0.2078 -0.0246
  736TIP3    H1 2169   0.375   2.894   2.095  2.2647  1.6868  0.7273
  736TIP3    H2 2170   0.495   2.829   2.030 -0.1816 -2.0407 -0.2309
  737TIP3   OH2 2171   2.536   4.215   2.344 -0.3110 -0.3128  0.1321
  737TIP3    H1 2172   2.600   4.156   2.305  0.2223  1.6066 -1.9780
  737TIP3    H2 2173   2.574   4.239   2.429  0.0033 -2.0821  0.4976
  738TIP3   OH2 2174   4.716   5.021   5.425  0.5133  0.0675 -0.0340
  738TIP3    H1 2175   4.734   5.067   5.508 -0.3529  1.1094 -0.4170
  738TIP3    H2 2176   4.621   5.017   5.420  0.5588  0.2257 -1.0986
  739TIP3   OH2 2177   6.166   0.949   6.163 -0.0074  0.1660  0.0887
  739TIP3    H1 2178   6.222   0.878   6.131 -1.1615 -0.5645 -0.3314
  739TIP3    H2 2179   6.226   1.005   6.213  1.4128  0.2457 -1.6464
  740TIP3   OH2 2180   3.519   1.482   0.675  0.2533 -0.8960  0.6212
  740TIP3    H1 2181   3.561   1.568   0.678  1.5782 -1.2855 -3.1956
  740TIP3    H2 2182   3.445   1.494   0.616 -1.4340 -1.6615  2.5510
  741TIP3   OH2 2183   1.536   2.446   1.658 -0.3771 -0.1279  0.3503
  741TIP3    H1 2184   1.537   2.542   1.656 -0.7097 -0.1267  0.0993
  741TIP3    H2 2185   1.610   2.420   1.604 -0.5299 -0.0128  0.0836
  742TIP3   OH2 2186   5.888   1.028   5.475  0.1034 -0.4750  0.0410
  742TIP3    H1 2187   5.900   1.096   5.541  0.6663 -1.4150  0.9231
  742TIP3    H2 2188   5.914   1.070   5.393  1.0113  0.2038  0.6613
  743TIP3   OH2 2189   0.016   3.880   1.135 -0.0901  0.6066 -0.2632
  743TIP3    H1 2190  -0.015   3.891   1.225 -0.0669  0.2063 -0.2045
  743TIP3    H2 2191   0.110   3.867   1.143  0.0674  1.5941 -0.4250
  744TIP3   OH2 2192   0.073   2.601   0.800  0.1274  0.1018 -0.2508
  744TIP3    H1 2193   0.132   2.671   0.771  0.6628 -0.1000  0.3231
  744TIP3    H2 2194   0.131   2.525   0.810 -0.4708 -0.4536 -0.9868
  745TIP3   OH2 2195   5.610   7.035   6.178 -0.5378 -0.0988 -0.1951
  745TIP3    H1 2196   5.647   6.970   6.238  0.2397 -0.5434 -1.1399
  745TIP3    H2 2197   5.555   7.091   6.234 -0.9499 -1.3529  0.6864
  746TIP3   OH2 2198   2.168   3.306   1.933 -0.3381 -0.1657  0.2814
  746TIP3    H1 2199   2.230   3.238   1.960  0.6988  0.7785  0.3087
  746TIP3    H2 2200   2.220   3.387   1.932 -1.5522  0.6270  0.2457
  747TIP3   OH2 2201   1.944   2.536   1.070  0.2542  0.7707  0.5580
  747TIP3    H1 2202   1.933   2.618   1.119  0.4634  0.2381  1.5074
  747TIP3    H2 2203   1.955   2.564   0.979 -0.4746  1.7537  0.7640
  748TIP3   OH2 2204   1.661   3.281   3.194 -0.1939 -0.1505 -0.1604
  748TIP3    H1 2205   1.713   3.233   3.130 -0.4191  0.2497 -0.6474
  748TIP3    H2 2206   1.701   3.368   3.198 -0.1742 -0.1743  0.2528
  749TIP3   OH2 2207   0.796   1.677   0.902 -1.2801  0.0080  0.4103
  749TIP3    H1 2208   0.717   1.651   0.950 -1.3679 -0.6513 -0.0867
  749TIP3    H2 2209   0.769   1.753   0.851 -1.8975 -0.8762 -0.5976
  750TIP3   OH2 2210   1.337   4.468   1.380 -0.0312  0.0165  0.4065
  750TIP3    H1 2211   1.404   4.445   1.315  0.0135 -0.0062  0.4603
  750TIP3    H2 2212   1.383   4.520   1.445 -0.6978  2.5309 -1.0733
  751TIP3   OH2 2213   1.162   3.114   0.768 -0.3671 -0.1832  0.2451
  751TIP3    H1 2214   1.156   3.124   0.863  0.6821 -1.6653  0.4897
  751TIP3    H2 2215   1.085   3.063   0.744  0.2160 -1.1990  0.5237
  752TIP3   OH2 2216   7.098   2.053   3.836  0.8738  0.6004  0.0149
  752TIP3    H1 2217   7.155   2.113   3.883  0.6528  1.3039 -0.6135
  752TIP3    H2 2218   7.027   2.108   3.802  0.2077 -0.1437  0.1735
  753TIP3   OH2 2219   7.184   0.029   5.289  0.1314  0.6258 -0.1999
  753TIP3    H1 2220   7.110   0.031   5.228 -0.9446  2.1372  1.1109
  753TIP3    H2 2221   7.154  -0.028   5.360  1.2238 -0.7997 -0.8684
  754TIP3   OH2 2222   1.993   2.750   1.212  0.6475 -0.6533 -0.3362
  754TIP3    H1 2223   2.079   2.730   1.249  1.7761  0.9582 -1.9532
  754TIP3    H2 2224   1.959   2.822   1.266  0.5492 -0.9246 -0.0344
  755TIP3   OH2 2225   3.223   3.546   3.800 -0.1559 -0.4540 -0.3029
  755TIP3    H1 2226   3.309   3.505   3.789  0.2449  0.6492 -1.4089
  755TIP3    H2 2227   3.215   3.605   3.726 -2.5354 -1.6543 -1.0566
  756TIP3   OH2 2228   1.145   1.423   1.175  0.4721 -0.1834  0.2280
  756TIP3    H1 2229   1.168   1.451   1.087  0.2530 -1.2286 -0.1752
  756TIP3    H2 2230   1.051   1.440   1.183  0.9836  2.3279  1.1992
  757TIP3   OH2 2231   2.346   3.112   1.811 -0.2693  0.2502  0.3388
  757TIP3    H1 2232   2.371   3.046   1.875  2.0185  0.2125 -0.5552
  757TIP3    H2 2233   2.309   3.062   1.738 -3.4962  0.3332  1.8359
  758TIP3   OH2 2234   3.657   5.416   1.426 -0.0536  0.3996  0.2533
  758TIP3    H1 2235   3.710   5.337   1.429 -1.3223 -0.6441 -2.7309
  758TIP3    H2 2236   3.567   5.384   1.415 -0.7131  2.2353  0.1649
  759TIP3   OH2 2237   1.231   1.996   0.334 -0.0433 -0.7680 -0.0062
  759TIP3    H1 2238   1.254   2.017   0.243  0.7076 -0.7815  0.1747
  759TIP3    H2 2239   1.226   1.900   0.336  1.4093 -0.8537  0.2981
  760TIP3   OH2 2240   0.542   1.026   0.734 -0.8406  0.2561 -0.1380
  760TIP3    H1 2241   0.624   1.003   0.691 -2.4320 -1.5025 -2.3454
  760TIP3    H2 2242   0.542   1.122   0.737  0.8686  0.2943 -0.9292
  761TIP3   OH2 2243   1.030   3.074   2.583 -0.4648 -0.8922 -0.5152
  761TIP3    H1 2244   1.093   3.040   2.519  1.8244  2.2828 -0.1117
  761TIP3    H2 2245   1.007   3.161   2.549 -0.3226  0.2427  2.1546
  762TIP3   OH2 2246   4.422   3.034   0.476  0.0509 -0.8718  0.2225
  762TIP3    H1 2247   4.343   3.061   0.429  0.7595  2.3337  0.7433
  762TIP3    H2 2248   4.391   3.012   0.563 -0.3583 -0.0079  0.3070
  763TIP3   OH2 2249   3.884   3.266   0.013 -0.0035  0.2216 -0.1254
  763TIP3    H1 2250   3.949   3.236  -0.051  0.2541  2.1832 -0.8315
  763TIP3    H2 2251   3.937   3.297   0.087 -0.2196 -0.0609  0.1483
  764TIP3   OH2 2252   0.355   1.678   0.162 -0.3682  0.2374 -0.5983
  764TIP3    H1 2253   0.395   1.600   0.200 -2.2067  0.2152  1.4062
  764TIP3    H2 2254   0.280   1.645   0.113  0.8036  0.4710 -2.6124
  765TIP3   OH2 2255   2.736   4.753   0.861 -0.4155 -0.6229 -0.1048
  765TIP3    H1 2256   2.755   4.845   0.845 -0.2535 -0.2056  2.2775
  765TIP3    H2 2257   2.820   4.716   0.890 -0.6682 -1.3231 -0.2546
  766TIP3   OH2 2258   1.972   2.566   0.070  0.5909 -0.4258 -0.5208
  766TIP3    H1 2259   1.895   2.514   0.094 -0.3163  0.6267 -1.0842
  766TIP3    H2 2260   1.963   2.646   0.120  3.1926 -1.6783  2.1080
  767TIP3   OH2 2261   1.746   1.881   0.827  0.5662 -0.1667  0.5003
  767TIP3    H1 2262   1.747   1.785   0.826  0.5023 -0.1651 -1.2187
  767TIP3    H2 2263   1.743   1.906   0.734 -3.0414  1.4551  0.9560
  768TIP3   OH2 2264   1.253   4.678   0.221 -0.2651  0.1717  0.0332
  768TIP3    H1 2265   1.331   4.637   0.259 -0.4734 -0.6578 -0.4190
  768TIP3    H2 2266   1.235   4.753   0.278  1.9643  1.4842 -0.9021
  769TIP3   OH2 2267   6.501   5.575   0.341  0.3491 -0.0018 -0.1891
  769TIP3    H1 2268   6.585   5.554   0.383 -0.1332 -1.0926  0.2642
  769TIP3    H2 2269   6.447   5.610   0.411 -0.3519 -1.5256  0.0631
  770TIP3   OH2 2270   1.671   3.801   1.681 -0.2339  0.6370  0.4687
  770TIP3    H1 2271   1.672   3.724   1.623  0.4569  0.8035  0.2597
  770TIP3    H2 2272   1.581   3.804   1.714 -1.2092  1.7023 -2.1378
  771TIP3   OH2 2273   2.519   1.152   1.697 -0.1263 -0.2342 -0.3325
  771TIP3    H1 2274   2.564   1.206   1.632  0.1434 -0.3519 -0.2468
  771TIP3    H2 2275   2.465   1.213   1.747 -0.9131 -0.2536 -1.1521
  772TIP3   OH2 2276   0.612   4.608   3.515 -0.0038 -0.0984  0.0695
  772TIP3    H1 2277   0.519   4.597   3.497 -0.0259 -1.0211  0.7171
  772TIP3    H2 2278   0.644   4.520   3.533  0.8823  0.2827  0.4079
  773TIP3   OH2 2279   1.951   0.463   0.908 -0.1742 -0.8151  0.0391
  773TIP3    H1 2280   1.982   0.545   0.869  0.5045  0.5208  3.2057
  773TIP3    H2 2281   1.856   0.468   0.904 -0.1177 -0.6151 -1.2037
  774TIP3   OH2 2282   1.436   4.956   1.258 -0.5945  1.0384 -0.0189
  774TIP3    H1 2283   1.505   4.931   1.320 -0.5775 -0.1941 -0.5167
  774TIP3    H2 2284   1.382   4.877   1.250 -0.7562  1.2688 -1.3437
  775TIP3   OH2 2285   1.816   0.368   0.596 -0.2016 -0.0508 -0.0786
  775TIP3    H1 2286   1.820   0.294   0.536 -1.1755  0.4845 -0.8095
  775TIP3    H2 2287   1.731   0.360   0.638  0.7628 -0.8449  1.7936
  776TIP3   OH2 2288   2.234   3.156   2.517  0.0469  0.2995  0.4958
  776TIP3    H1 2289   2.148   3.186   2.547  0.1174 -1.2842  2.4200
  776TIP3    H2 2290   2.294   3.226   2.543 -0.5951  1.1944 -0.4270
  777TIP3   OH2 2291   1.011   0.034   5.683  0.1974  0.4791  0.2275
  777TIP3    H1 2292   0.943   0.090   5.646 -1.4334 -1.3968  0.2859
  777TIP3    H2 2293   1.047  -0.013   5.608  1.4630  1.4756  0.1954
  778TIP3   OH2 2294   0.785   0.120   1.064  0.0117 -0.1288  0.1205
  778TIP3    H1 2295   0.788   0.185   0.994 -0.3076  0.7027  0.8674
  778TIP3    H2 2296   0.846   0.052   1.037  3.1051  2.1816  0.9714
  779TIP3   OH2 2297   2.290   3.767   3.355 -0.5076 -0.3165 -0.1669
  779TIP3    H1 2298   2.357   3.699   3.354 -0.9939 -0.8007  0.3966
  779TIP3    H2 2299   2.311   3.822   3.280  0.8042 -0.1996  0.2791
  780TIP3   OH2 2300   1.216   5.115   1.462 -0.1797  0.3814  0.6988
  780TIP3    H1 2301   1.144   5.178   1.469  1.0425  1.8282  0.2630
  780TIP3    H2 2302   1.221   5.096   1.368  0.2585  0.5545  0.6905
  781TIP3   OH2 2303   1.319   3.841   0.474 -0.5714  0.2414  0.2315
  781TIP3    H1 2304   1.329   3.750   0.499  1.6343  0.4460  0.1646
  781TIP3    H2 2305   1.363   3.848   0.390  0.8727  1.7438  1.0830
  782TIP3   OH2 2306   2.253   5.145   1.689 -0.0117  0.8258 -0.2691
  782TIP3    H1 2307   2.254   5.051   1.673  0.7948  0.7428  0.2322
  782TIP3    H2 2308   2.312   5.181   1.622  1.0023  0.7924  0.5957
  783TIP3   OH2 2309   2.772   4.677   2.730 -0.0889 -0.2700 -0.2823
  783TIP3    H1 2310   2.776   4.661   2.636 -0.6818 -0.9484 -0.1947
  783TIP3    H2 2311   2.822   4.606   2.769  1.2061  0.7075 -0.1482
  784TIP3   OH2 2312   6.013   1.191   5.249 -0.7277  0.1454  0.3212
  784TIP3    H1 2313   6.067   1.218   5.175 -1.0075 -0.3952 -0.0892
  784TIP3    H2 2314   5.963   1.269   5.273  0.8794  0.8871  1.2726
  785TIP3   OH2 2315   1.113   3.372   2.505  0.5929  0.5546 -0.6576
  785TIP3    H1 2316   1.067   3.392   2.586  0.9714 -2.4924  0.3841
  785TIP3    H2 2317   1.204   3.359   2.532  0.9235  0.5661 -1.7306
  786TIP3   OH2 2318   2.625   3.130   0.781 -0.0790  0.2468  0.1386
  786TIP3    H1 2319   2.589   3.204   0.830 -0.8942  0.4359 -0.7180
  786TIP3    H2 2320   2.580   3.134   0.696  1.1517 -0.1937 -0.5441
  787TIP3   OH2 2321   0.890   4.257   1.928  0.1090  0.2627 -0.0569
  787TIP3    H1 2322   0.940   4.194   1.979 -0.5615  0.6947  1.1631
  787TIP3    H2 2323   0.955   4.302   1.875  0.5821 -1.5160 -1.0272
  788TIP3   OH2 2324   6.698   6.862   1.728 -0.3160  0.0178  0.4667
  788TIP3    H1 2325   6.644   6.788   1.700  0.4069 -0.5142  0.4422
  788TIP3    H2 2326   6.664   6.937   1.679  0.3030 -0.7056 -1.1194
  789TIP3   OH2 2327   2.052   2.684   0.627  0.3102 -0.0429  0.5081
  789TIP3    H1 2328   2.110   2.760   0.634 -0.4584  0.7727 -1.3848
  789TIP3    H2 2329   2.095   2.628   0.561  0.1698 -0.5902  0.8822
  790TIP3   OH2 2330   0.627   2.851   1.928 -0.3433  0.3895  0.2188
  790TIP3    H1 2331   0.578   2.837   1.847  0.3773 -1.0575  0.0273
  790TIP3    H2 2332   0.704   2.902   1.901 -0.5160  0.6089  0.1347
  791TIP3   OH2 2333   3.001   6.339   6.145 -0.5278 -0.0179 -0.3386
  791TIP3    H1 2334   3.030   6.296   6.064  0.9025 -0.3137  0.3290
  791TIP3    H2 2335   3.058   6.415   6.154 -0.7715  0.0843  0.3366
  792TIP3   OH2 2336   0.744   2.094   1.994  0.0172 -0.4027 -0.7020
  792TIP3    H1 2337   0.823   2.081   2.046  0.6512 -1.2065 -1.8490
  792TIP3    H2 2338   0.684   2.026   2.024 -0.3603  0.3557  0.3377
  793TIP3   OH2 2339   5.857   0.628   6.308 -0.1356 -0.1462 -0.1828
  793TIP3    H1 2340   5.855   0.706   6.253  1.0097 -0.4721 -0.7073
  793TIP3    H2 2341   5.950   0.604   6.312 -0.1169  0.1309  2.2333
  794TIP3   OH2 2342   4.786   4.651   6.126 -0.5753 -0.0567 -0.5776
  794TIP3    H1 2343   4.766   4.609   6.042  0.0689 -2.5117  0.4555
  794TIP3    H2 2344   4.882   4.649   6.131 -0.4787  2.4726 -0.9465
  795TIP3   OH2 2345   1.835   3.149   1.001 -0.0828 -0.6578 -0.2994
  795TIP3    H1 2346   1.854   3.128   0.909 -0.2633  0.3256 -0.5687
  795TIP3    H2 2347   1.751   3.104   1.018 -0.5015 -0.1110 -0.8854
  796TIP3   OH2 2348   3.043   3.707   2.396 -0.4400  0.2977 -0.4210
  796TIP3    H1 2349   3.128   3.673   2.368 -1.0593 -0.5723 -1.2920
  796TIP3    H2 2350   3.057   3.737   2.485  0.6871 -0.2244 -0.4160
  797TIP3   OH2 2351   1.457   4.391   1.106 -0.4743  0.0366  0.2533
  797TIP3    H1 2352   1.509   4.455   1.058  3.5812 -2.5343  0.9290
  797TIP3    H2 2353   1.429   4.328   1.040 -0.4102 -0.0055  0.2653
  798TIP3   OH2 2354   1.460   3.847   1.047  0.2706  0.1431 -0.0305
  798TIP3    H1 2355   1.489   3.835   1.138  0.2169 -0.0088 -0.0338
  798TIP3    H2 2356   1.532   3.896   1.006  0.6526 -0.4755 -0.1097
  799TIP3   OH2 2357   2.563   2.083   0.697  0.3719 -0.4259  0.5708
  799TIP3    H1 2358   2.524   2.120   0.775  0.1544 -1.2342  0.8486
  799TIP3    H2 2359   2.655   2.069   0.720  0.5919  0.4591  0.2746
  800TIP3   OH2 2360   7.499   6.809   1.424  0.4563  0.1675  0.3152
  800TIP3    H1 2361   7.449   6.729   1.437 -0.5528  1.2325  3.5550
  800TIP3    H2 2362   7.558   6.813   1.499  2.5418  1.0190 -1.3096
  801TIP3   OH2 2363   3.132   3.030   0.441 -0.7904  0.2416 -0.4186
  801TIP3    H1 2364   3.201   3.090   0.415 -2.1729  0.5693 -3.5384
  801TIP3    H2 2365   3.162   2.943   0.413 -1.7246  0.4202 -2.0203
  802TIP3   OH2 2366   2.913   3.058   0.274  0.0741  0.6966  0.1002
  802TIP3    H1 2367   2.970   3.042   0.350  0.3793 -0.0522 -0.2846
  802TIP3    H2 2368   2.825   3.036   0.306  0.2690 -0.1407  0.0882
  803TIP3   OH2 2369   7.717   2.650   0.368 -0.2737 -0.0121  0.7123
  803TIP3    H1 2370   7.666   2.593   0.310  1.1852  0.8933 -1.5630
  803TIP3    H2 2371   7.802   2.607   0.376 -0.2068  0.2696  1.5654
  804TIP3   OH2 2372   0.390   4.604   3.828  0.6842  0.2514  0.2093
  804TIP3    H1 2373   0.422   4.690   3.801  0.6464 -0.1063 -1.0287
  804TIP3    H2 2374   0.372   4.613   3.921 -1.1382  2.1418 -0.2786
  805TIP3   OH2 2375   4.298   3.091   0.693 -0.3474 -0.3249  0.5986
  805TIP3    H1 2376   4.260   3.176   0.715  0.6196 -0.5147  3.1302
  805TIP3    H2 2377   4.238   3.027   0.732 -0.7130 -0.7858 -0.7141
  806TIP3   OH2 2378   2.947   2.735   0.662 -0.2147  0.1076  0.3048
  806TIP3    H1 2379   2.983   2.824   0.664  1.1118 -0.4307  1.5869
  806TIP3    H2 2380   2.853   2.747   0.666 -0.1634  1.5228 -1.8200
  807TIP3   OH2 2381   3.484   3.160   2.911 -0.2023  0.2497  0.0901
  807TIP3    H1 2382   3.447   3.072   2.906  2.0700 -0.6688 -1.1395
  807TIP3    H2 2383   3.480   3.182   3.004  0.1519 -1.5671  0.5541
  808TIP3   OH2 2384   1.078   4.406   1.737  0.1173  0.3416 -0.2664
  808TIP3    H1 2385   1.142   4.335   1.741  0.7320  0.8306 -1.2133
  808TIP3    H2 2386   1.122   4.475   1.687 -2.3679 -0.5930 -3.9014
  809TIP3   OH2 2387   2.289   0.636   0.367  0.0178  0.2742 -0.1046
  809TIP3    H1 2388   2.250   0.689   0.298 -1.6844  0.7993  1.2230
  809TIP3    H2 2389   2.261   0.546   0.347  0.9936  0.1798 -1.0665
  810TIP3   OH2 2390   2.807   6.746   5.346  0.0436 -0.3453  0.1795
  810TIP3    H1 2391   2.714   6.756   5.361  0.3297  1.3879  0.9401
  810TIP3    H2 2392   2.837   6.685   5.414 -0.0924  1.1513  1.6166
  811TIP3   OH2 2393   1.202   3.355   0.211  0.2238  0.5513  0.0980
  811TIP3    H1 2394   1.124   3.409   0.220  1.0274  1.6125  0.8342
  811TIP3    H2 2395   1.196   3.293   0.283  0.1260  0.7231  0.2393
  812TIP3   OH2 2396   1.923   2.999   2.773 -0.0270  0.1930 -0.2154
  812TIP3    H1 2397   1.975   3.020   2.851 -0.5406  1.5454 -0.2212
  812TIP3    H2 2398   1.950   3.064   2.708 -0.4366 -0.2080 -0.7895
  813TIP3   OH2 2399   1.422   3.197   1.889 -0.1620  0.6858 -0.3460
  813TIP3    H1 2400   1.384   3.273   1.934  2.5853  1.3190  1.0371
  813TIP3    H2 2401   1.516   3.204   1.906  0.2092 -2.7691 -0.6231
  814TIP3   OH2 2402   0.803   4.187   1.238 -0.2934 -0.2531  0.1650
  814TIP3    H1 2403   0.788   4.104   1.282  1.9010  0.2743  1.9923
  814TIP3    H2 2404   0.748   4.250   1.284  2.5204  0.4401  2.7656
  815TIP3   OH2 2405   1.202   3.114   1.760 -0.6170  0.0793 -0.1801
  815TIP3    H1 2406   1.279   3.132   1.813 -0.6859  0.0123 -0.0562
  815TIP3    H2 2407   1.218   3.027   1.723 -0.5939  0.1023 -0.2232
  816TIP3   OH2 2408   1.960   3.624   2.169  0.7462  0.2290 -0.5251
  816TIP3    H1 2409   2.035   3.585   2.214 -0.0796 -0.6403  0.1307
  816TIP3    H2 2410   1.887   3.614   2.231  0.0983  1.1071 -1.1297
  817TIP3   OH2 2411   7.182   6.686   5.992 -0.0245  0.3742  0.4190
  817TIP3    H1 2412   7.135   6.613   6.031  1.5934 -0.5338  0.7207
  817TIP3    H2 2413   7.127   6.714   5.920 -0.2089 -1.8016 -0.3267
  818TIP3   OH2 2414   6.836   0.473   4.836 -0.0951  0.1914 -0.1749
  818TIP3    H1 2415   6.755   0.518   4.810  1.1545  1.5527 -1.8011
  818TIP3    H2 2416   6.863   0.517   4.916 -0.3712  0.4672 -0.2310
  819TIP3   OH2 2417   3.184   6.736   5.898 -0.3969  0.2443  0.0232
  819TIP3    H1 2418   3.226   6.818   5.873  0.8628 -0.7345 -1.1719
  819TIP3    H2 2419   3.255   6.671   5.895 -1.6221 -1.1145 -0.2944
  820TIP3   OH2 2420   1.267   0.862   0.333 -0.2055  0.9982  0.6883
  820TIP3    H1 2421   1.269   0.911   0.251  0.1579 -0.1229  0.0192
  820TIP3    H2 2422   1.190   0.895   0.379 -0.9350  0.9792 -0.5085
  821TIP3   OH2 2423   0.846   3.751   0.539 -0.2636 -0.2525 -0.2743
  821TIP3    H1 2424   0.776   3.688   0.557 -0.4663 -0.1144 -0.5652
  821TIP3    H2 2425   0.817   3.796   0.459 -0.5154  0.7775  0.3935
  822TIP3   OH2 2426   3.092   3.214   0.029  0.5098  0.2559  0.3539
  822TIP3    H1 2427   3.149   3.280   0.070 -0.5845  0.3617  1.7451
  822TIP3    H2 2428   3.081   3.147   0.096 -0.1298 -0.2936 -0.2940
  823TIP3   OH2 2429   1.737   3.695   4.364  0.0984  0.1445 -0.2389
  823TIP3    H1 2430   1.722   3.652   4.449 -2.3803 -0.6319 -1.0299
  823TIP3    H2 2431   1.822   3.662   4.335 -0.3447 -1.8453  0.6190
  824TIP3   OH2 2432   3.168   3.386   1.645 -0.4540 -0.3864 -0.1660
  824TIP3    H1 2433   3.095   3.359   1.589 -0.0280 -2.1048  0.0906
  824TIP3    H2 2434   3.244   3.339   1.609  0.3100  0.4888  0.2833
  825TIP3   OH2 2435   7.751   0.260   6.193  0.2099 -0.6344 -0.5789
  825TIP3    H1 2436   7.671   0.214   6.215 -0.7106 -0.1544 -2.8449
  825TIP3    H2 2437   7.763   0.246   6.099  2.4467 -0.1997 -0.3883
  826TIP3   OH2 2438   6.082   6.791   5.992 -0.0122 -0.1759 -0.7174
  826TIP3    H1 2439   6.008   6.771   6.050 -0.2769 -0.8983 -1.2976
  826TIP3    H2 2440   6.136   6.852   6.043 -0.6072 -0.2462  0.0127
  827TIP3   OH2 2441   7.511   1.229   1.320  0.5032  0.0003 -0.3372
  827TIP3    H1 2442   7.470   1.282   1.252 -0.5183  1.3660  1.3033
  827TIP3    H2 2443   7.604   1.253   1.317  0.2319  1.0651 -0.3614
  828TIP3   OH2 2444   5.241   7.007   5.384 -0.0139  0.0372 -0.2878
  828TIP3    H1 2445   5.287   7.049   5.457 -0.6587  3.0818 -1.5331
  828TIP3    H2 2446   5.310   6.963   5.334  0.8919  0.6426  0.4050
  829TIP3   OH2 2447   6.153   2.911   5.917 -0.1277 -0.0642 -0.0226
  829TIP3    H1 2448   6.201   2.913   5.834 -1.3770  0.7375 -0.7336
  829TIP3    H2 2449   6.120   3.000   5.928 -0.9537 -0.4655  0.7493
  830TIP3   OH2 2450   0.834   4.437   0.549 -0.1126 -0.5954  0.0997
  830TIP3    H1 2451   0.848   4.371   0.482 -1.2294 -0.9233  0.1720
  830TIP3    H2 2452   0.910   4.431   0.607  0.7394 -0.4621 -1.0107
  831TIP3   OH2 2453   1.345   1.400   1.624 -0.5160 -0.1564 -0.1354
  831TIP3    H1 2454   1.296   1.398   1.542  0.4176  0.6025 -0.7222
  831TIP3    H2 2455   1.299   1.338   1.681  0.5956 -3.0272 -2.2154
  832TIP3   OH2 2456   1.823   2.545   1.876 -1.1096  0.6256  0.2097
  832TIP3    H1 2457   1.819   2.458   1.837  1.5594  0.8305 -0.6058
  832TIP3    H2 2458   1.890   2.539   1.944 -1.8289  1.7083  1.0455
  833TIP3   OH2 2459   7.677   1.212   1.064 -0.1386 -0.1306 -0.3567
  833TIP3    H1 2460   7.646   1.122   1.055 -1.4906  0.1337  1.2791
  833TIP3    H2 2461   7.693   1.241   0.974 -0.3713 -1.7607 -0.9473
  834TIP3   OH2 2462   4.049   5.554   6.226 -0.3495 -0.1343  0.5301
  834TIP3    H1 2463   3.978   5.615   6.246 -1.5654 -0.8835 -1.3198
  834TIP3    H2 2464   4.045   5.490   6.298  0.5923  1.5943  2.1843
  835TIP3   OH2 2465   0.098   3.515   1.482 -0.5417 -0.7740  0.0845
  835TIP3    H1 2466   0.009   3.545   1.497 -0.0240 -0.4142  2.8313
  835TIP3    H2 2467   0.088   3.432   1.435 -2.2864 -0.2449 -0.4938
  836TIP3   OH2 2468   2.984   1.034   0.228 -1.3652  0.5649  0.5352
  836TIP3    H1 2469   2.892   1.060   0.228 -1.6682 -0.4623 -0.6151
  836TIP3    H2 2470   2.997   0.989   0.312 -1.6427  1.6241  1.1432
  837TIP3   OH2 2471   0.122   2.026   1.363  0.2450  0.2554 -0.1752
  837TIP3    H1 2472   0.087   1.987   1.283  0.2909 -2.2391  0.9617
  837TIP3    H2 2473   0.214   2.044   1.343  0.1484  0.0246 -0.8167
  838TIP3   OH2 2474   2.644   2.465   1.143 -0.4001  0.1498  0.1831
  838TIP3    H1 2475   2.704   2.441   1.072 -1.4775 -0.8163 -0.4098
  838TIP3    H2 2476   2.682   2.545   1.181  1.5374 -0.7305  0.1514
  839TIP3   OH2 2477   2.069   2.059   0.633  0.0586  0.2442 -0.7380
  839TIP3    H1 2478   2.091   2.142   0.591 -0.7181  0.3161 -1.0006
  839TIP3    H2 2479   1.979   2.041   0.606 -0.3305  0.1207  0.6059
  840TIP3   OH2 2480   0.913   5.799   1.067  0.7436 -0.3121 -0.1693
  840TIP3    H1 2481   0.955   5.736   1.126 -0.6547  0.0601  1.2613
  840TIP3    H2 2482   0.821   5.772   1.065  0.5585  0.3893 -1.2614
  841TIP3   OH2 2483   1.525   2.197   1.195  0.1945  0.6380  0.3468
  841TIP3    H1 2484   1.582   2.199   1.273  0.6281  0.7984  0.0265
  841TIP3    H2 2485   1.586   2.198   1.121 -0.0808 -2.5613 -0.0074
  842TIP3   OH2 2486   7.527   2.663   1.776 -0.4481 -0.1421  0.1462
  842TIP3    H1 2487   7.579   2.584   1.765 -0.2741 -0.2503  1.7328
  842TIP3    H2 2488   7.522   2.700   1.687  0.2236 -1.4363 -0.4493
  843TIP3   OH2 2489   7.006   3.938   1.452  0.2947  0.0689  0.4105
  843TIP3    H1 2490   6.957   3.898   1.380 -2.4776  3.5470  0.2140
  843TIP3    H2 2491   7.025   3.866   1.512 -0.9515 -2.1771 -1.7862
  844TIP3   OH2 2492   1.286   5.945   1.502  1.1821  0.1010  0.0614
  844TIP3    H1 2493   1.281   5.967   1.409  1.3050  0.6223  0.1731
  844TIP3    H2 2494   1.199   5.965   1.536  1.6937  1.7796  0.4450
  845TIP3   OH2 2495   4.713   1.823   4.435 -0.4777 -0.1896  0.8556
  845TIP3    H1 2496   4.805   1.846   4.424  0.1142 -1.5026  2.6929
  845TIP3    H2 2497   4.676   1.895   4.486 -0.3000  0.0214  0.6846
  846TIP3   OH2 2498   3.328   0.616   1.247  0.4604  0.3377 -0.1303
  846TIP3    H1 2499   3.239   0.605   1.215  0.6324  0.4198 -0.6417
  846TIP3    H2 2500   3.380   0.633   1.169  1.2682 -1.8452 -0.1142
  847TIP3   OH2 2501   4.017   1.587   1.025 -0.5710 -0.4150 -0.2702
  847TIP3    H1 2502   3.944   1.529   1.047 -0.6334 -0.6461 -1.0669
  847TIP3    H2 2503   3.976   1.663   0.984 -0.3070 -0.9120 -1.4653
  848TIP3   OH2 2504   1.817   5.349   1.375  0.1063 -0.7614  0.3785
  848TIP3    H1 2505   1.850   5.259   1.378 -0.7620 -1.0917  0.1436
  848TIP3    H2 2506   1.723   5.340   1.391  0.0676  0.1365  0.6567
  849TIP3   OH2 2507   4.507   4.074   0.735  0.0848 -0.0083 -0.1073
  849TIP3    H1 2508   4.459   4.083   0.653 -0.1104 -1.1096 -0.1227
  849TIP3    H2 2509   4.518   4.164   0.767  1.0974  0.5159 -1.8664
  850TIP3   OH2 2510   1.356   3.529   2.025  0.1421 -0.5697  0.0578
  850TIP3    H1 2511   1.301   3.505   1.950  0.2880 -1.1384  0.1311
  850TIP3    H2 2512   1.296   3.574   2.085 -0.2316 -1.1352  0.1095
  851TIP3   OH2 2513   4.444   3.150   1.201  0.3148  0.5143  0.7814
  851TIP3    H1 2514   4.455   3.225   1.142 -0.8157  0.6281  0.7051
  851TIP3    H2 2515   4.445   3.188   1.288  0.5592  0.5208  0.7752
  852TIP3   OH2 2516   0.989   2.850   3.633 -0.3556 -0.1352 -0.5003
  852TIP3    H1 2517   0.945   2.931   3.656 -0.3547 -0.1217 -0.5461
  852TIP3    H2 2518   1.003   2.805   3.716  0.4580  0.3327 -0.3762
  853TIP3   OH2 2519   2.537   4.445   2.218  0.1004  0.1735 -0.0782
  853TIP3    H1 2520   2.629   4.424   2.206  0.7064  1.9472  1.3343
  853TIP3    H2 2521   2.499   4.364   2.252  1.2267 -0.4251 -0.2189
  854TIP3   OH2 2522   3.331   3.670   1.616 -0.7022  0.0034  0.0347
  854TIP3    H1 2523   3.255   3.719   1.648 -0.1715  0.5950  0.4039
  854TIP3    H2 2524   3.392   3.669   1.690 -1.2240 -2.3182  0.4609
  855TIP3   OH2 2525   3.180   6.252   5.922  0.5470  0.2246 -0.1553
  855TIP3    H1 2526   3.188   6.187   5.853 -2.8628 -0.1669 -0.2971
  855TIP3    H2 2527   3.231   6.217   5.995  0.1031 -1.8137 -0.7973
  856TIP3   OH2 2528   1.538   0.867   1.983  0.4679  0.0499  0.3199
  856TIP3    H1 2529   1.500   0.896   1.900  0.9182  0.3787  0.2289
  856TIP3    H2 2530   1.605   0.804   1.957  2.5024  2.1746  0.2682
  857TIP3   OH2 2531   2.740   3.385   1.217  0.1343  0.0137 -0.6316
  857TIP3    H1 2532   2.647   3.372   1.235 -0.1552  1.1874 -1.2527
  857TIP3    H2 2533   2.742   3.441   1.140  1.3231  1.4679  0.4169
  858TIP3   OH2 2534   7.547   4.896   2.960 -0.3208 -0.1021  0.1273
  858TIP3    H1 2535   7.513   4.899   2.870  0.0488  0.1596 -0.0046
  858TIP3    H2 2536   7.545   4.987   2.989 -0.5440 -0.2005  0.4265
  859TIP3   OH2 2537   3.152   2.124   1.237 -0.1359  0.5064  0.1425
  859TIP3    H1 2538   3.118   2.108   1.149  0.9104 -1.5504  0.0637
  859TIP3    H2 2539   3.075   2.122   1.293 -0.5364 -0.7856 -0.4314
  860TIP3   OH2 2540   4.005   2.811   0.599 -0.0401 -0.6271  0.1722
  860TIP3    H1 2541   3.916   2.802   0.634 -0.2152  0.0907 -0.0815
  860TIP3    H2 2542   4.058   2.837   0.675 -0.4225  0.9435 -0.0758
  861TIP3   OH2 2543   2.094   2.970   1.970  0.6062 -0.8659 -0.0025
  861TIP3    H1 2544   2.030   2.924   1.916 -0.2835  0.9198 -0.5062
  861TIP3    H2 2545   2.042   3.036   2.016  2.0331  0.2742 -0.0384
  862TIP3   OH2 2546   1.069   3.492   4.225  0.0614 -0.5212  0.0173
  862TIP3    H1 2547   1.089   3.514   4.134 -0.2994  0.6806  0.2199
  862TIP3    H2 2548   0.978   3.520   4.237 -0.4277 -2.1506  0.2902
  863TIP3   OH2 2549   1.388   3.443   3.877 -0.6779 -1.1573 -0.3724
  863TIP3    H1 2550   1.410   3.536   3.868 -1.8435 -0.8522 -0.1551
  863TIP3    H2 2551   1.459   3.398   3.833 -0.0059 -0.1648 -0.3293
  864TIP3   OH2 2552   2.132   3.203   3.351  0.4698  0.1008  0.4048
  864TIP3    H1 2553   2.166   3.113   3.358 -4.3674 -1.6858  2.5543
  864TIP3    H2 2554   2.112   3.213   3.258  0.8523 -1.1243  0.1749
  865TIP3   OH2 2555   2.852   2.515   0.961  0.5718  0.3739 -0.5861
  865TIP3    H1 2556   2.891   2.449   1.018  1.0109 -0.6847 -2.0777
  865TIP3    H2 2557   2.865   2.481   0.872  1.7046  2.9353 -1.4572
  866TIP3   OH2 2558   2.695   2.351   3.106 -0.5110 -0.3528  0.0067
  866TIP3    H1 2559   2.655   2.278   3.059  0.7796  0.6963 -2.8131
  866TIP3    H2 2560   2.695   2.323   3.198  0.1122 -3.9414 -1.0140
  867TIP3   OH2 2561   2.186   1.909   1.206 -0.1434 -0.2655 -0.2410
  867TIP3    H1 2562   2.162   1.819   1.224  0.2685 -0.7510 -2.0459
  867TIP3    H2 2563   2.105   1.949   1.173  0.0143 -0.3139 -0.6789
  868TIP3   OH2 2564   1.360   5.031   2.641 -0.0969  0.3466  0.1948
  868TIP3    H1 2565   1.345   4.975   2.565 -0.0442  1.5417 -0.7154
  868TIP3    H2 2566   1.273   5.063   2.665  0.0706  1.3295 -0.4475
  869TIP3   OH2 2567   2.145   3.555   1.300  0.1274  0.9324 -0.2084
  869TIP3    H1 2568   2.197   3.620   1.348 -1.6402  2.2082 -0.0087
  869TIP3    H2 2569   2.146   3.586   1.209 -1.2538  1.6007 -0.0013
  870TIP3   OH2 2570   0.313   5.053   0.191 -0.2548 -0.0193  0.9911
  870TIP3    H1 2571   0.279   5.133   0.152  1.4256 -0.3377 -1.2279
  870TIP3    H2 2572   0.239   4.992   0.190 -1.2623  1.1709  1.7942
  871TIP3   OH2 2573   4.245   0.422   6.270 -0.1669  0.2917 -0.2068
  871TIP3    H1 2574   4.199   0.479   6.208  0.8601  0.0467 -1.2258
  871TIP3    H2 2575   4.333   0.459   6.276  0.6006 -1.3054 -1.0941
  872TIP3   OH2 2576   3.212   3.534   0.335 -0.1400  0.4071 -0.4503
  872TIP3    H1 2577   3.276   3.500   0.397 -0.5415  1.4691  0.5694
  872TIP3    H2 2578   3.209   3.628   0.353 -1.2167  0.5286 -1.2059
  873TIP3   OH2 2579   2.412   2.720   1.819  0.6844 -0.0426  0.2322
  873TIP3    H1 2580   2.373   2.697   1.903 -3.2142  1.3355 -1.0878
  873TIP3    H2 2581   2.458   2.802   1.836 -0.5817  0.5419  0.9229
  874TIP3   OH2 2582   3.873   3.548   1.479  0.6624  0.0662  0.1989
  874TIP3    H1 2583   3.932   3.601   1.424 -1.6118  0.3205 -2.0860
  874TIP3    H2 2584   3.794   3.601   1.486 -0.4610 -1.6408  0.6134
  875TIP3   OH2 2585   3.962   2.518   0.757 -0.0512  0.2748  0.2266
  875TIP3    H1 2586   3.983   2.548   0.669 -0.4806  0.2335  0.1060
  875TIP3    H2 2587   3.869   2.495   0.753 -0.3796  1.4054  0.9938
  876TIP3   OH2 2588   2.869   2.833   1.525  0.0717  0.1838  0.1181
  876TIP3    H1 2589   2.944   2.891   1.511  1.0628 -0.9224  0.7817
  876TIP3    H2 2590   2.905   2.745   1.523 -1.0751 -0.3430  1.2552
  877TIP3   OH2 2591   7.533   2.839   3.206  0.3082  0.1220  0.1635
  877TIP3    H1 2592   7.513   2.913   3.263  1.6224 -0.3656  1.2862
  877TIP3    H2 2593   7.452   2.823   3.157 -0.1442  1.9503  0.2900
  878TIP3   OH2 2594   1.087   3.291   1.924  0.3989 -0.1673  0.1852
  878TIP3    H1 2595   1.040   3.283   2.006  0.3733 -0.4795  0.1402
  878TIP3    H2 2596   1.076   3.206   1.881 -2.4345  1.0437 -1.6529
  879TIP3   OH2 2597   1.567   5.008   1.564  0.3953 -0.4206 -0.0551
  879TIP3    H1 2598   1.633   4.963   1.512  0.8040 -0.1065  0.1861
  879TIP3    H2 2599   1.595   4.996   1.654 -0.5887 -1.4060  0.1348
  880TIP3   OH2 2600   2.327   3.994   0.461 -0.1887 -0.4081  0.0352
  880TIP3    H1 2601   2.408   4.009   0.510  0.6545  0.1513 -1.5097
  880TIP3    H2 2602   2.299   4.081   0.433 -0.6950 -0.7161 -0.4312
  881TIP3   OH2 2603   3.294   4.158   0.565  0.5358 -0.1811 -0.3299
  881TIP3    H1 2604   3.345   4.240   0.568 -1.6387  1.3765 -3.2102
  881TIP3    H2 2605   3.331   4.111   0.490 -1.1875  0.2736 -1.4888
  882TIP3   OH2 2606   6.356   2.165   1.548  0.0528 -0.1318  0.1281
  882TIP3    H1 2607   6.347   2.084   1.597  1.4291 -0.0307  0.5604
  882TIP3    H2 2608   6.277   2.215   1.569 -0.5113 -1.1073  0.3197
  883TIP3   OH2 2609   3.077   4.345   2.217  0.0566  0.8886 -0.5882
  883TIP3    H1 2610   3.126   4.311   2.292 -0.6544  1.5385  0.1696
  883TIP3    H2 2611   2.995   4.297   2.218 -0.1665  1.2694 -0.6480
  884TIP3   OH2 2612   1.865   1.577   1.345 -0.6190 -0.1310  0.1099
  884TIP3    H1 2613   1.812   1.540   1.274 -0.3371 -2.8186  1.2418
  884TIP3    H2 2614   1.802   1.604   1.411 -0.8470  1.8220 -0.8710
  885TIP3   OH2 2615   0.989   1.280   0.470  0.3874  0.1475 -0.0213
  885TIP3    H1 2616   0.944   1.197   0.452  0.4194 -0.0576  0.8244
  885TIP3    H2 2617   1.028   1.304   0.387 -0.8449  0.0506 -0.6358
  886TIP3   OH2 2618   1.036   2.906   1.026  0.0597  0.2091 -0.0955
  886TIP3    H1 2619   1.070   2.876   0.942 -1.0248 -1.3256 -0.0087
  886TIP3    H2 2620   1.067   2.997   1.034 -0.6065  0.6774 -2.5632
  887TIP3   OH2 2621   3.196   3.156   3.136  0.4288  0.2066  0.1453
  887TIP3    H1 2622   3.240   3.099   3.073  1.0117 -0.2821  0.9835
  887TIP3    H2 2623   3.267   3.203   3.180  0.0283  0.5047  0.4810
  888TIP3   OH2 2624   3.019   3.024   0.678  0.2698 -0.0471  0.6717
  888TIP3    H1 2625   3.055   3.026   0.589 -1.9273 -0.9583 -0.2747
  888TIP3    H2 2626   3.033   3.112   0.711  0.7210  0.4292 -0.7464
  889TIP3   OH2 2627   0.505   2.795   4.256  0.0393 -0.6789  0.4411
  889TIP3    H1 2628   0.477   2.776   4.345 -0.7715 -0.8413  0.1504
  889TIP3    H2 2629   0.528   2.710   4.219  0.4287 -0.6058  0.5076
  890TIP3   OH2 2630   2.927   4.363   1.141  0.4927  0.6404 -0.0397
  890TIP3    H1 2631   2.839   4.324   1.136  0.7617  0.1101 -0.7490
  890TIP3    H2 2632   2.967   4.341   1.057  1.7455 -0.2014  0.7597
  891TIP3   OH2 2633   2.714   1.231   1.503  0.3164 -0.3046  0.3228
  891TIP3    H1 2634   2.733   1.171   1.431  2.0273 -0.3221  0.7630
  891TIP3    H2 2635   2.800   1.252   1.540 -0.2844  1.8955  0.5838
  892TIP3   OH2 2636   1.939   2.737   2.853  0.3300 -0.3028 -0.4436
  892TIP3    H1 2637   2.001   2.701   2.789  0.8985  0.6625 -0.4514
  892TIP3    H2 2638   1.916   2.823   2.818 -1.2831 -0.7915 -0.6106
  893TIP3   OH2 2639   1.510   6.668   3.045  0.5102 -0.5035  0.0426
  893TIP3    H1 2640   1.484   6.650   2.954  4.0357  0.4959 -1.2694
  893TIP3    H2 2641   1.459   6.745   3.070 -0.6180 -0.8897 -1.0395
  894TIP3   OH2 2642   3.658   3.116   0.334 -0.1527 -0.0842  0.0795
  894TIP3    H1 2643   3.674   3.168   0.255  0.3013  3.2223  2.2778
  894TIP3    H2 2644   3.745   3.104   0.372 -0.6064  0.2509  1.2374
  895TIP3   OH2 2645   0.963   3.670   0.829 -0.0780 -0.0765 -0.0368
  895TIP3    H1 2646   1.024   3.648   0.899 -0.8442  0.0186  0.6685
  895TIP3    H2 2647   0.984   3.608   0.759 -0.1736 -1.0393  0.7701
  896TIP3   OH2 2648   1.991   2.565   2.108  0.0225 -0.6135  0.4736
  896TIP3    H1 2649   1.927   2.628   2.141 -1.2421 -1.5100 -0.2665
  896TIP3    H2 2650   1.965   2.481   2.145  1.4831 -0.7980  1.1474
  897TIP3   OH2 2651   0.518   2.171   0.282  0.8106 -0.1939  0.8291
  897TIP3    H1 2652   0.518   2.075   0.285  1.6627 -0.2432 -0.5980
  897TIP3    H2 2653   0.588   2.197   0.341  0.5301 -0.4345  1.2759
  898TIP3   OH2 2654   2.300   5.026   2.716  0.6437  0.5641 -0.1681
  898TIP3    H1 2655   2.328   4.936   2.697  1.4127  0.8412 -0.3731
  898TIP3    H2 2656   2.208   5.018   2.742  1.1814 -0.4875  1.5067
  899TIP3   OH2 2657   1.629   3.986   0.547  0.6805 -0.7367  0.2929
  899TIP3    H1 2658   1.559   4.003   0.484 -0.5351  0.9371  2.0332
  899TIP3    H2 2659   1.709   4.006   0.500 -0.1765 -0.0062 -0.8828
  900TIP3   OH2 2660   0.554   3.478   0.941 -0.3008  0.5747  0.2163
  900TIP3    H1 2661   0.637   3.505   0.982  0.0265  0.4453 -0.3608
  900TIP3    H2 2662   0.552   3.383   0.951  0.4037  0.4063 -1.2419
  901TIP3   OH2 2663   1.257   2.827   2.456  0.9753 -0.2018 -0.5666
  901TIP3    H1 2664   1.167   2.795   2.468  1.0865 -0.4833 -0.4891
  901TIP3    H2 2665   1.264   2.842   2.361  0.1859  1.7696 -0.3376
  902TIP3   OH2 2666   7.557   1.287   1.821  0.4128 -0.3679 -0.2348
  902TIP3    H1 2667   7.610   1.316   1.747  1.4034 -0.1559  0.5534
  902TIP3    H2 2668   7.615   1.294   1.897 -0.9185  0.4223  0.7232
  903TIP3   OH2 2669   1.451   3.283   1.167  0.1497 -0.0998 -0.0966
  903TIP3    H1 2670   1.535   3.275   1.212 -0.1041 -1.1978  0.1930
  903TIP3    H2 2671   1.454   3.370   1.126  0.8100  0.4850  1.1576
  904TIP3   OH2 2672   2.921   6.621   6.317  0.0991  0.4303  0.2872
  904TIP3    H1 2673   2.918   6.717   6.312  1.5680  0.4741  0.0094
  904TIP3    H2 2674   2.895   6.592   6.230 -1.2342  0.5511  0.6393
  905TIP3   OH2 2675   1.637   1.507   0.392 -0.2041  0.0962 -0.1241
  905TIP3    H1 2676   1.681   1.550   0.319 -1.1581  0.7152 -0.3434
  905TIP3    H2 2677   1.703   1.449   0.429  0.1444 -0.6253 -1.8160
  906TIP3   OH2 2678   7.165   0.619   6.086  0.1899  0.3934  0.4042
  906TIP3    H1 2679   7.119   0.621   6.002 -0.6770 -1.1641  0.8121
  906TIP3    H2 2680   7.233   0.686   6.078 -1.2184  1.7412 -0.7564
  907TIP3   OH2 2681   6.425   0.484   6.150  0.3121 -0.3102 -0.3973
  907TIP3    H1 2682   6.515   0.455   6.165  0.1546 -0.8199 -0.4315
  907TIP3    H2 2683   6.376   0.404   6.131 -0.6913 -0.3464  2.1533
  908TIP3   OH2 2684   6.248   2.959   0.588  0.0167 -0.0853 -0.6651
  908TIP3    H1 2685   6.291   3.045   0.586  0.9542 -0.5560 -0.7585
  908TIP3    H2 2686   6.313   2.899   0.551 -1.3114 -0.5423 -2.3048
  909TIP3   OH2 2687   2.780   3.425   0.841 -0.4799  0.1622 -0.0084
  909TIP3    H1 2688   2.689   3.398   0.849 -0.0623 -1.2039  0.1534
  909TIP3    H2 2689   2.794   3.484   0.915 -0.9944 -0.2792  0.4446
  910TIP3   OH2 2690   1.195   2.622   1.263 -0.2116  0.2736 -0.1394
  910TIP3    H1 2691   1.243   2.586   1.338  0.1819  0.5616 -0.2473
  910TIP3    H2 2692   1.262   2.668   1.212 -0.4568  0.0060 -0.7149
  911TIP3   OH2 2693   7.045   3.658   1.296  0.1550  0.8016 -0.2105
  911TIP3    H1 2694   6.980   3.695   1.236 -0.2674  1.3874  0.6111
  911TIP3    H2 2695   7.006   3.667   1.383  0.6218 -0.3526  0.1297
  912TIP3   OH2 2696   1.673   3.707   2.280  0.3567 -0.5616  0.5489
  912TIP3    H1 2697   1.579   3.718   2.268  0.8012 -0.1894 -3.0828
  912TIP3    H2 2698   1.698   3.778   2.340 -1.4460  0.3186  0.2914
  913TIP3   OH2 2699   3.927   0.382   0.561  0.4546 -0.6057 -0.0457
  913TIP3    H1 2700   4.006   0.355   0.607  1.0010  0.1764 -0.5104
  913TIP3    H2 2701   3.867   0.409   0.630 -0.0642 -2.8341  0.4276
  914TIP3   OH2 2702   1.163   1.305   0.691  0.0480 -0.0064 -0.1904
  914TIP3    H1 2703   1.205   1.227   0.728 -1.7569 -0.1731  1.6364
  914TIP3    H2 2704   1.107   1.271   0.621  0.3031 -0.1907 -0.3058
  915TIP3   OH2 2705   0.800   1.247   0.968  0.3823  0.3861 -0.2905
  915TIP3    H1 2706   0.717   1.284   0.938  0.3679  0.5338 -0.0628
  915TIP3    H2 2707   0.866   1.309   0.939  0.4025  0.3394 -0.3461
  916TIP3   OH2 2708   4.566   2.749   1.764 -0.3301  0.2886  0.5290
  916TIP3    H1 2709   4.657   2.772   1.781 -0.3458  0.2013  0.7456
  916TIP3    H2 2710   4.551   2.773   1.673 -0.2753  0.9022  0.6790
  917TIP3   OH2 2711   0.862   4.975   0.609  0.4625  0.7343 -0.7640
  917TIP3    H1 2712   0.776   4.996   0.646 -0.0010  0.3847 -1.6151
  917TIP3    H2 2713   0.852   4.885   0.577  0.8638  1.0100 -1.6728
  918TIP3   OH2 2714   0.685   1.894  -0.014  0.6846  0.0414 -0.3396
  918TIP3    H1 2715   0.722   1.831   0.049  0.0837  0.7651  0.7444
  918TIP3    H2 2716   0.597   1.859  -0.033  0.8095 -0.0963 -0.6638
  919TIP3   OH2 2717   0.986   5.636   0.804 -0.0313 -0.3907 -0.3702
  919TIP3    H1 2718   0.918   5.626   0.737 -0.6539  0.4742  0.1343
  919TIP3    H2 2719   0.990   5.730   0.821 -0.1693 -0.6404  1.1025
  920TIP3   OH2 2720   0.628   3.580   0.597 -0.0592  0.5610 -0.5695
  920TIP3    H1 2721   0.577   3.563   0.518  0.3227  1.0869 -0.9312
  920TIP3    H2 2722   0.569   3.559   0.669  0.1046 -1.4763 -0.9895
  921TIP3   OH2 2723   1.101   3.761   3.306  0.5079  0.2789 -0.6693
  921TIP3    H1 2724   1.073   3.709   3.231 -0.1058 -0.3751  0.0056
  921TIP3    H2 2725   1.191   3.786   3.286  0.4139 -0.0730 -1.5272
  922TIP3   OH2 2726   1.214   1.447   0.912 -0.1838  0.0019 -0.3768
  922TIP3    H1 2727   1.171   1.383   0.856  1.0764 -1.4947  0.3120
  922TIP3    H2 2728   1.292   1.473   0.863 -1.1523  1.7141 -1.0488
  923TIP3   OH2 2729   4.398   5.157   2.682 -0.3579  1.7618  0.7942
  923TIP3    H1 2730   4.404   5.153   2.778 -0.4038  0.6603  0.7555
  923TIP3    H2 2731   4.489   5.160   2.653 -0.3026  0.4053  0.8100
  924TIP3   OH2 2732   5.781   2.298   1.505  0.6345  0.1417 -0.0040
  924TIP3    H1 2733   5.693   2.325   1.530  0.2967 -0.7062 -0.2856
  924TIP3    H2 2734   5.835   2.376   1.520 -0.1394  0.6255  0.2700
  925TIP3   OH2 2735   1.422   0.855   6.356  0.4437 -0.0210 -0.6226
  925TIP3    H1 2736   1.423   0.948   6.378  0.5556 -0.6093  2.0142
  925TIP3    H2 2737   1.514   0.835   6.337  0.7931 -0.0503  0.9948
  926TIP3   OH2 2738   1.917   2.538   3.226  0.3929  0.3559  0.6231
  926TIP3    H1 2739   1.883   2.490   3.150  1.7164 -1.1703  0.9624
  926TIP3    H2 2740   1.856   2.516   3.297  0.1218  0.4263  0.4165
  927TIP3   OH2 2741   2.939   5.462   0.426  0.1615 -0.4913 -0.1915
  927TIP3    H1 2742   2.894   5.423   0.352 -2.0102  1.1220  0.2406
  927TIP3    H2 2743   2.951   5.389   0.488  0.3354 -1.4357 -1.3319
  928TIP3   OH2 2744   1.982   4.863   1.824 -0.7741 -0.5811 -0.5721
  928TIP3    H1 2745   2.055   4.879   1.883 -1.5624  1.1353 -0.0311
  928TIP3    H2 2746   1.961   4.771   1.836 -1.6745 -0.0265  2.7308
  929TIP3   OH2 2747   7.472   5.491   6.124 -0.3354  0.1081 -0.0299
  929TIP3    H1 2748   7.486   5.452   6.211 -0.4825  0.1344  0.0061
  929TIP3    H2 2749   7.537   5.561   6.119 -0.8345  0.6054  0.3655
  930TIP3   OH2 2750   4.354   1.396   1.248 -0.1381 -0.4119  0.3078
  930TIP3    H1 2751   4.342   1.382   1.154 -0.5639 -0.3253  0.3499
  930TIP3    H2 2752   4.265   1.401   1.283  0.0258 -0.8742  0.7788
  931TIP3   OH2 2753   3.145   4.671   0.137  0.6474  0.4787 -0.5161
  931TIP3    H1 2754   3.200   4.642   0.211 -0.2862 -0.2360 -0.0869
  931TIP3    H2 2755   3.092   4.742   0.173  2.6964  2.5631 -1.4799
  932TIP3   OH2 2756   1.374   1.241   6.071 -0.0197  0.1361 -0.1949
  932TIP3    H1 2757   1.433   1.232   5.996  1.2660  0.1163  0.7893
  932TIP3    H2 2758   1.334   1.155   6.080  0.8711 -0.2700 -0.0201
  933TIP3   OH2 2759   0.889   5.791   5.427 -0.4848  0.0498  0.0766
  933TIP3    H1 2760   0.828   5.813   5.498 -0.4697 -0.5934  0.2930
  933TIP3    H2 2761   0.971   5.832   5.453 -0.1265 -1.2572  1.0920
  934TIP3   OH2 2762   4.831   3.921   0.503 -0.4402  0.4141  0.7103
  934TIP3    H1 2763   4.771   3.848   0.492  0.3436  0.0004 -0.9382
  934TIP3    H2 2764   4.868   3.908   0.591 -1.0759 -0.5794  0.8431
  935TIP3   OH2 2765   2.163   0.060   5.561 -0.1938  0.0819 -0.2103
  935TIP3    H1 2766   2.152  -0.023   5.515 -0.1820  0.2314 -0.4856
  935TIP3    H2 2767   2.234   0.104   5.514 -0.3791  0.3613 -0.2295
  936TIP3   OH2 2768   3.763   0.749   0.227 -0.1297  0.1988  0.4342
  936TIP3    H1 2769   3.770   0.840   0.255 -2.8401  0.5437  0.1148
  936TIP3    H2 2770   3.773   0.698   0.307 -1.6706  0.9347  1.1206
  937TIP3   OH2 2771   5.597   6.456   5.016 -0.3769 -0.5097  0.3036
  937TIP3    H1 2772   5.672   6.400   5.037 -0.9732 -0.9500  1.2763
  937TIP3    H2 2773   5.634   6.525   4.961  1.1013  0.2632  2.1848
  938TIP3   OH2 2774   4.079   3.134   1.612 -0.3943 -0.0040  0.0584
  938TIP3    H1 2775   4.014   3.076   1.651 -0.2546  0.0485  0.3750
  938TIP3    H2 2776   4.032   3.180   1.542  0.5763 -3.6885 -3.1712
  939TIP3   OH2 2777   4.638   3.706   0.457 -0.5514  0.2159 -0.3335
  939TIP3    H1 2778   4.578   3.756   0.400 -0.1276  1.6531  0.4414
  939TIP3    H2 2779   4.609   3.615   0.449 -1.0445  0.5190 -2.1700
  940TIP3   OH2 2780   5.457   5.661   6.177  0.0615  0.0437  0.9955
  940TIP3    H1 2781   5.403   5.607   6.235 -0.0099  1.5553  2.3759
  940TIP3    H2 2782   5.510   5.714   6.236  0.4467  1.1654 -0.3316
  941TIP3   OH2 2783   4.125   3.757   0.502 -0.9406 -0.6313  0.6335
  941TIP3    H1 2784   4.160   3.809   0.575 -1.0128  0.2247  0.0623
  941TIP3    H2 2785   4.071   3.691   0.545 -1.7310  0.4408  1.3410
  942TIP3   OH2 2786   0.804   1.314   5.240 -0.9771 -1.2490  0.4474
  942TIP3    H1 2787   0.761   1.252   5.181  1.1189 -1.9779 -0.3852
  942TIP3    H2 2788   0.821   1.263   5.320 -0.4310 -1.3792  0.2527
  943TIP3   OH2 2789   6.933   5.880   0.295  0.1645  0.1946  0.6011
  943TIP3    H1 2790   6.934   5.785   0.301 -0.5389  0.1642  0.2427
  943TIP3    H2 2791   6.883   5.899   0.215  2.8019  0.7812 -0.9919
  944TIP3   OH2 2792   2.956  -0.005   1.683  0.3103 -0.6719 -0.2049
  944TIP3    H1 2793   2.957   0.054   1.759  0.9774 -1.0427  0.0738
  944TIP3    H2 2794   2.882   0.026   1.630  0.6394  0.4069 -0.0474
  945TIP3   OH2 2795   5.277   2.073   0.784 -0.2992 -0.0552  0.0748
  945TIP3    H1 2796   5.361   2.082   0.739 -1.4359 -0.1117 -2.1419
  945TIP3    H2 2797   5.256   2.162   0.814  1.5120 -0.3928  2.5273
  946TIP3   OH2 2798   3.775   4.527   0.944  0.8021 -0.0210  0.5654
  946TIP3    H1 2799   3.839   4.584   0.901  1.6071 -1.4071 -0.1087
  946TIP3    H2 2800   3.823   4.491   1.019  0.4158 -0.1149  0.7641
  947TIP3   OH2 2801   3.833   3.773   2.102  0.4336  0.7256  0.8894
  947TIP3    H1 2802   3.741   3.749   2.090  0.5648  0.7824 -0.2927
  947TIP3    H2 2803   3.872   3.762   2.015  1.7728 -0.3112  1.6028
  948TIP3   OH2 2804   0.068   1.507   6.084  0.2363  0.1524  0.2171
  948TIP3    H1 2805   0.145   1.454   6.104 -0.9659 -1.2476  1.2345
  948TIP3    H2 2806   0.073   1.580   6.145  1.1951  0.5268 -0.2959
  949TIP3   OH2 2807   2.526   0.783   0.356 -0.2121 -0.4705  0.1627
  949TIP3    H1 2808   2.442   0.738   0.350 -1.1340  1.1574  0.3336
  949TIP3    H2 2809   2.557   0.790   0.266  0.1355 -1.7778  0.1741
  950TIP3   OH2 2810   5.745   2.507   0.083 -0.3526  0.4604  0.2215
  950TIP3    H1 2811   5.781   2.447   0.149 -0.9653  1.4218  1.4446
  950TIP3    H2 2812   5.822   2.553   0.049  0.2747 -1.7882 -1.5598
  951TIP3   OH2 2813   5.426   6.467   4.613  0.9434 -0.1328  1.1509
  951TIP3    H1 2814   5.392   6.503   4.695 -0.5616  1.5542 -0.1592
  951TIP3    H2 2815   5.348   6.432   4.569  1.3101  1.3081 -0.6766
  952TIP3   OH2 2816   7.065   0.640   5.812 -0.1680  0.3464  0.6807
  952TIP3    H1 2817   7.140   0.634   5.752 -0.1581  0.9100  0.6369
  952TIP3    H2 2818   6.994   0.593   5.767  0.0775  0.0493  0.6009
  953TIP3   OH2 2819   3.261   4.986   1.505 -0.2133  0.1149 -0.1142
  953TIP3    H1 2820   3.347   5.021   1.482  0.0692  0.2263  1.0594
  953TIP3    H2 2821   3.265   4.972   1.600 -0.7490 -1.9168 -0.3569
  954TIP3   OH2 2822   5.839   5.557   5.302 -0.2848 -0.0347 -0.1705
  954TIP3    H1 2823   5.876   5.492   5.362  2.5958  2.1201  0.4955
  954TIP3    H2 2824   5.823   5.508   5.221  1.2445 -1.7130  0.5115
  955TIP3   OH2 2825   5.709   4.973   1.314  0.1190 -0.1869 -0.0327
  955TIP3    H1 2826   5.760   4.958   1.394 -0.7677  0.1839  0.6116
  955TIP3    H2 2827   5.685   5.066   1.319 -1.0111 -0.4773 -0.1000
  956TIP3   OH2 2828   2.793   0.085   4.847 -0.4284  0.4413 -0.4221
  956TIP3    H1 2829   2.871   0.130   4.879 -0.0774  0.0478 -0.7200
  956TIP3    H2 2830   2.811   0.067   4.755 -0.7141  0.0043 -0.3958
  957TIP3   OH2 2831   3.409   4.237   1.781  0.5352  0.0439 -0.0733
  957TIP3    H1 2832   3.455   4.313   1.817  2.1644  0.0745 -2.0945
  957TIP3    H2 2833   3.457   4.217   1.700 -2.4314 -0.5261 -1.7492
  958TIP3   OH2 2834   3.163   3.826   1.075  0.6275 -0.4765  0.0307
  958TIP3    H1 2835   3.109   3.900   1.046  0.4987 -0.7172 -0.3455
  958TIP3    H2 2836   3.243   3.866   1.109 -1.6435  0.2200  4.9338
  959TIP3   OH2 2837   6.596   5.846   6.263 -0.0204 -0.4751 -0.0198
  959TIP3    H1 2838   6.619   5.852   6.356  2.3106 -1.0492 -0.5345
  959TIP3    H2 2839   6.611   5.934   6.229  0.3602 -0.5823 -0.1268
  960TIP3   OH2 2840   3.261   0.851   1.496  0.0856  0.3211 -0.1994
  960TIP3    H1 2841   3.285   0.912   1.426  1.9357  1.0818  1.0285
  960TIP3    H2 2842   3.175   0.880   1.526  0.6809  1.9850 -0.0413
  961TIP3   OH2 2843   2.271   2.979   5.510  0.1855  0.3755 -0.5246
  961TIP3    H1 2844   2.345   2.927   5.543 -0.4328  0.6246  1.3153
  961TIP3    H2 2845   2.299   3.008   5.424  1.4154 -1.2276 -0.6866
  962TIP3   OH2 2846   3.948   4.720   0.895 -0.2001  0.5235  0.1652
  962TIP3    H1 2847   3.930   4.806   0.857 -0.5583  0.8262  1.0179
  962TIP3    H2 2848   3.975   4.738   0.984 -0.3793 -0.2568  0.3814
  963TIP3   OH2 2849   3.267   4.081   1.110  0.1175 -0.4124  0.8389
  963TIP3    H1 2850   3.357   4.052   1.094 -0.5581 -1.5753 -0.9174
  963TIP3    H2 2851   3.262   4.167   1.068  1.0174  0.6359  2.8087
  964TIP3   OH2 2852   1.409   1.687   1.678 -0.9693  0.4434  0.4564
  964TIP3    H1 2853   1.374   1.617   1.624 -0.4336 -0.9424  1.8490
  964TIP3    H2 2854   1.457   1.743   1.618 -2.0125  0.0071 -0.7888
  965TIP3   OH2 2855   2.043   0.272   6.167 -0.5497  0.1298 -0.5209
  965TIP3    H1 2856   2.010   0.347   6.118 -1.9307  0.0061  0.1833
  965TIP3    H2 2857   2.093   0.222   6.103 -0.9389  0.8305 -1.3938
  966TIP3   OH2 2858   5.106   7.082   6.106 -0.2377  0.2473 -0.0135
  966TIP3    H1 2859   5.021   7.041   6.120 -0.6714  1.1474  0.0687
  966TIP3    H2 2860   5.086   7.164   6.061  0.7716 -0.5557 -1.9890
  967TIP3   OH2 2861   3.649   2.105   0.090  0.3070 -0.1702  0.0085
  967TIP3    H1 2862   3.716   2.119   0.023  0.3719  1.0638  0.3250
  967TIP3    H2 2863   3.663   2.014   0.119  0.9624 -0.3554 -0.8867
  968TIP3   OH2 2864   3.877   3.015   0.127 -0.1415  0.1597  0.3786
  968TIP3    H1 2865   3.886   2.956   0.052 -2.3168  0.8790 -0.4976
  968TIP3    H2 2866   3.871   3.103   0.089 -1.7001  0.4974  1.3316
  969TIP3   OH2 2867   2.713   3.010   0.457  0.2490 -0.3853 -0.5114
  969TIP3    H1 2868   2.626   3.027   0.493  0.2917  0.3413 -0.7442
  969TIP3    H2 2869   2.773   3.030   0.529  0.2441 -0.5296 -0.4669
  970TIP3   OH2 2870   6.766   6.662   5.162 -0.3131  0.6057 -0.1793
  970TIP3    H1 2871   6.833   6.605   5.198  0.7899  1.8999 -0.1728
  970TIP3    H2 2872   6.805   6.697   5.081 -1.4110  0.4680 -0.7801
  971TIP3   OH2 2873   1.603   1.176   3.917  0.3372  0.2730  0.2551
  971TIP3    H1 2874   1.544   1.177   3.841  1.1749 -1.0623 -0.4422
  971TIP3    H2 2875   1.545   1.187   3.992 -1.0178 -2.4628 -0.3053
  972TIP3   OH2 2876   3.405   3.075   0.976  0.1657  0.4839  0.1457
  972TIP3    H1 2877   3.387   2.988   1.012 -2.0722  1.5455  1.7123
  972TIP3    H2 2878   3.444   3.123   1.049 -2.1050  1.8945  0.4882
  973TIP3   OH2 2879   5.091   3.704   1.702  0.3480  0.8110 -0.1562
  973TIP3    H1 2880   5.104   3.760   1.779  1.0751 -0.1128  0.3913
  973TIP3    H2 2881   4.997   3.712   1.684  0.2687  1.4681  0.4858
  974TIP3   OH2 2882   7.560   6.342   5.050 -0.2099  0.0463 -0.5783
  974TIP3    H1 2883   7.572   6.354   4.955 -1.5530  0.2348 -0.7244
  974TIP3    H2 2884   7.649   6.347   5.085  0.4504 -1.2430 -1.9611
  975TIP3   OH2 2885   3.881   4.699   0.411  0.2639  0.4528  0.0320
  975TIP3    H1 2886   3.919   4.620   0.449  1.8683  0.4878 -1.4350
  975TIP3    H2 2887   3.820   4.667   0.345  0.3867  0.4463 -0.0771
  976TIP3   OH2 2888   4.147   6.108  -0.004  0.1657  0.2643  0.0291
  976TIP3    H1 2889   4.224   6.144  -0.047 -0.7972  2.6849  0.2342
  976TIP3    H2 2890   4.115   6.178   0.053 -2.8796 -0.1876 -0.9821
  977TIP3   OH2 2891   2.414   0.576   5.730  0.1204 -0.4583 -0.4719
  977TIP3    H1 2892   2.366   0.507   5.685 -0.8706 -0.4899  0.6199
  977TIP3    H2 2893   2.477   0.608   5.665  0.2978 -2.0948 -1.1206
  978TIP3   OH2 2894   2.593   0.531   5.150  0.4698 -0.0519 -0.0213
  978TIP3    H1 2895   2.566   0.591   5.080  0.7369 -0.3260 -0.3635
  978TIP3    H2 2896   2.646   0.465   5.105 -1.0296 -1.3636  0.1325
  979TIP3   OH2 2897   4.672   3.786   1.058 -0.6532  0.3595  0.6296
  979TIP3    H1 2898   4.754   3.792   1.107 -0.6649  0.9072  0.5821
  979TIP3    H2 2899   4.689   3.720   0.990  0.1030  1.2507 -0.0629
  980TIP3   OH2 2900   3.911   5.490   2.016  0.3300 -0.1254 -0.0895
  980TIP3    H1 2901   3.886   5.455   1.931  0.6662  0.2384 -0.3438
  980TIP3    H2 2902   3.922   5.584   2.000  1.4676 -0.2239  0.1045
  981TIP3   OH2 2903   6.503   6.786   5.800  0.0939  0.1872  0.2659
  981TIP3    H1 2904   6.560   6.787   5.723  1.4609 -1.5324  1.2362
  981TIP3    H2 2905   6.538   6.856   5.856  3.1181 -2.6569  2.1223
  982TIP3   OH2 2906   7.203   4.804   5.534  0.0695  0.1632  0.1820
  982TIP3    H1 2907   7.153   4.748   5.593  2.1113 -1.4126  0.4967
  982TIP3    H2 2908   7.236   4.875   5.589 -1.2437  0.8429  0.1049
  983TIP3   OH2 2909   2.117   3.935   1.808 -0.5682 -0.5500 -0.6180
  983TIP3    H1 2910   2.111   3.902   1.898 -1.4307 -0.9738 -0.8234
  983TIP3    H2 2911   2.027   3.958   1.785 -0.6280 -1.9971 -1.9408
  984TIP3   OH2 2912   3.878   3.055   0.543 -0.1926 -0.0173  0.0157
  984TIP3    H1 2913   3.944   2.987   0.554  0.2763  0.4412  0.0187
  984TIP3    H2 2914   3.810   3.033   0.607 -1.1538 -1.8163 -1.5807
  985TIP3   OH2 2915   1.878   4.437   2.047 -0.5511 -0.6858 -0.0947
  985TIP3    H1 2916   1.814   4.365   2.048 -1.9387  0.4979 -1.0276
  985TIP3    H2 2917   1.827   4.514   2.071  0.7005  0.1623 -0.1357
  986TIP3   OH2 2918   3.047   3.714   1.304  0.4107  0.8218 -0.1432
  986TIP3    H1 2919   3.132   3.694   1.342  0.0563 -0.3257  0.0676
  986TIP3    H2 2920   3.067   3.744   1.215  0.8722 -2.4066 -1.2095
  987TIP3   OH2 2921   4.623   3.490   1.280 -0.0661  0.4447  0.4341
  987TIP3    H1 2922   4.581   3.576   1.283 -0.0057  0.4403  1.6881
  987TIP3    H2 2923   4.705   3.506   1.234 -1.0914  0.5983 -1.3808
  988TIP3   OH2 2924   2.086   0.180   5.009  0.2103 -0.4772  0.3098
  988TIP3    H1 2925   2.076   0.244   5.079  0.7268 -1.1642  1.0282
  988TIP3    H2 2926   1.997   0.167   4.975  0.3360  1.7956 -0.9228
  989TIP3   OH2 2927   2.790   2.071   0.203  0.3331 -0.5867  0.9351
  989TIP3    H1 2928   2.729   2.000   0.225 -1.9588  0.8882 -0.4415
  989TIP3    H2 2929   2.804   2.116   0.286 -0.5172 -0.9007  1.2582
  990TIP3   OH2 2930   7.608   7.314   1.500  0.2984  0.0266  0.4025
  990TIP3    H1 2931   7.613   7.277   1.412 -2.7703 -0.9584  0.6090
  990TIP3    H2 2932   7.622   7.408   1.487  2.0412 -0.3750 -0.8469
  991TIP3   OH2 2933   5.270   3.073   0.732  0.0294 -0.2941 -0.2060
  991TIP3    H1 2934   5.314   3.013   0.792  1.1946 -0.1309 -0.8692
  991TIP3    H2 2935   5.341   3.112   0.681 -0.8953 -0.0133 -1.3055
  992TIP3   OH2 2936   4.334   3.327   1.363  0.5559 -0.0541  0.6927
  992TIP3    H1 2937   4.323   3.364   1.451  0.7131 -1.2695  1.2344
  992TIP3    H2 2938   4.299   3.394   1.304 -0.2646  0.4534  1.7348
  993TIP3   OH2 2939   2.402   1.755   0.231 -0.4251  0.0332  0.2572
  993TIP3    H1 2940   2.457   1.813   0.283 -0.5645  1.5185 -1.1919
  993TIP3    H2 2941   2.451   1.673   0.226 -0.0781  0.1070  2.0802
  994TIP3   OH2 2942   2.819   3.717   1.967  0.3544 -0.3245 -0.5776
  994TIP3    H1 2943   2.856   3.757   2.046 -0.5624 -2.4902  0.9968
  994TIP3    H2 2944   2.895   3.694   1.914  0.9888  0.9309 -0.2453
  995TIP3   OH2 2945   0.413   0.276   5.774  0.2451 -0.4392 -0.6783
  995TIP3    H1 2946   0.394   0.221   5.850 -0.2414  1.3231  0.5189
  995TIP3    H2 2947   0.484   0.231   5.728 -0.4284 -2.2527  0.0435
  996TIP3   OH2 2948   6.977   6.090   4.955 -0.1998 -0.1206  0.1846
  996TIP3    H1 2949   6.982   6.185   4.953  1.1486 -0.1382  1.8944
  996TIP3    H2 2950   6.914   6.068   4.886 -1.1795  2.0377  0.3520
  997TIP3   OH2 2951   3.527   5.242   2.132 -0.0319 -0.3840 -0.2622
  997TIP3    H1 2952   3.585   5.182   2.085  0.4663 -0.6323  0.6562
  997TIP3    H2 2953   3.447   5.192   2.147 -0.1994 -0.2951 -0.8731
  998TIP3   OH2 2954   1.986   2.728   2.560 -0.5351  0.5471 -0.5338
  998TIP3    H1 2955   1.960   2.672   2.487 -2.6953 -2.8262  2.7044
  998TIP3    H2 2956   1.914   2.791   2.569  0.0457  1.4013 -1.6539
  999TIP3   OH2 2957   2.647   2.702   0.967  0.2380 -0.7066 -0.4111
  999TIP3    H1 2958   2.700   2.776   0.938 -0.6358  0.1813  0.2225
  999TIP3    H2 2959   2.711   2.633   0.987  1.0541 -0.1338 -1.0020
 1000TIP3   OH2 2960   4.273   5.864   4.316  0.6538  0.3150 -0.0166
 1000TIP3    H1 2961   4.361   5.827   4.306 -0.2366 -1.9248  0.3578
 1000TIP3    H2 2962   4.273   5.900   4.405  0.9163 -0.4240  0.2847
 1001TIP3   OH2 2963   3.401   3.952   0.420 -0.3805 -0.2846 -0.5247
 1001TIP3    H1 2964   3.478   4.009   0.414 -0.8322  0.3747 -0.0377
 1001TIP3    H2 2965   3.434   3.865   0.395  0.8611 -0.2996  1.0714
 1002TIP3   OH2 2966   1.687   0.656   5.898  0.2251 -0.1453 -0.0410
 1002TIP3    H1 2967   1.761   0.603   5.866 -0.5784 -0.2502 -1.7641
 1002TIP3    H2 2968   1.609   0.607   5.872 -0.4859  0.2045  1.3541
 1003TIP3   OH2 2969   2.420   4.980   1.892 -0.4342 -0.6857  0.7928
 1003TIP3    H1 2970   2.438   4.925   1.817  0.4175 -1.0282  1.2416
 1003TIP3    H2 2971   2.383   5.060   1.855 -2.5109 -1.9025  0.2024
 1004TIP3   OH2 2972   4.032   4.588   0.655 -0.0095  0.0694 -0.2904
 1004TIP3    H1 2973   3.996   4.500   0.666  0.5681  0.1203  2.5252
 1004TIP3    H2 2974   4.043   4.620   0.745  3.8711  1.3180 -1.1051
 1005TIP3   OH2 2975   1.725   4.939   0.774 -0.5446  0.2018 -0.1591
 1005TIP3    H1 2976   1.763   4.857   0.741 -1.6597 -0.5750  0.4685
 1005TIP3    H2 2977   1.763   5.007   0.718 -0.4138 -0.8390 -1.3648
 1006TIP3   OH2 2978   6.527   4.227   6.245 -0.2595  0.2205  0.1288
 1006TIP3    H1 2979   6.606   4.195   6.289 -0.7222 -0.0447  0.7793
 1006TIP3    H2 2980   6.519   4.318   6.275 -0.9574 -0.1647  1.1662
 1007TIP3   OH2 2981   3.379   3.695   0.652  0.0647  0.4140  0.2661
 1007TIP3    H1 2982   3.353   3.724   0.739  2.2742 -0.1744  1.1602
 1007TIP3    H2 2983   3.329   3.615   0.637  0.1109  0.2013  1.2371
 1008TIP3   OH2 2984   7.711   6.382   5.871 -0.3094 -0.5859  0.2477
 1008TIP3    H1 2985   7.780   6.447   5.858 -0.5413 -0.6140 -1.1411
 1008TIP3    H2 2986   7.701   6.340   5.786 -1.3327 -1.2912  0.7111
 1009TIP3   OH2 2987   1.010   1.276   2.217  0.1474 -0.2584  0.3105
 1009TIP3    H1 2988   0.988   1.319   2.134  0.3842 -0.6746  0.0336
 1009TIP3    H2 2989   1.072   1.335   2.259 -1.6113  1.0195  1.1751
 1010TIP3   OH2 2990   5.153   2.531   0.422 -0.3806 -0.2684  0.4058
 1010TIP3    H1 2991   5.223   2.484   0.468  0.7609  0.2837 -0.7562
 1010TIP3    H2 2992   5.138   2.480   0.343  2.1701  2.2385 -1.8190
 1011TIP3   OH2 2993   4.142   3.625   2.420  0.4227  0.2838  0.2922
 1011TIP3    H1 2994   4.148   3.572   2.500  0.3608 -0.1077  0.0389
 1011TIP3    H2 2995   4.211   3.691   2.430 -0.0282  0.6593  0.9807
 1012TIP3   OH2 2996   3.923   5.398   0.393  0.3185 -0.0222 -0.0995
 1012TIP3    H1 2997   3.835   5.435   0.390  0.2222 -0.2310  0.1469
 1012TIP3    H2 2998   3.937   5.374   0.484  0.3763 -0.5926 -0.2503
 1013TIP3   OH2 2999   5.079   3.606   0.765  0.4510 -0.8157  0.6793
 1013TIP3    H1 3000   5.116   3.574   0.683 -0.4066  2.9457 -1.2567
 1013TIP3    H2 3001   5.156   3.619   0.822  1.4755  0.3735 -0.9319
 1014TIP3   OH2 3002   4.989   5.970   0.149 -0.0156 -0.5761  0.2369
 1014TIP3    H1 3003   4.938   5.999   0.074 -0.3300 -1.2041  0.2037
 1014TIP3    H2 3004   4.923   5.948   0.216  0.2469 -0.3683  0.5666
 1015TIP3   OH2 3005   3.514   3.094   3.199 -0.2121  0.2265  0.6037
 1015TIP3    H1 3006   3.538   3.031   3.268 -1.2914  0.2537  1.0244
 1015TIP3    H2 3007   3.484   3.171   3.247 -1.2524  0.1364  0.1239
 1016TIP3   OH2 3008   2.251   3.964   1.249 -0.0127  0.3321  0.1713
 1016TIP3    H1 3009   2.277   3.928   1.334  2.1881  2.5005  0.4658
 1016TIP3    H2 3010   2.178   4.023   1.269 -0.9474 -0.8120  0.2229
 1017TIP3   OH2 3011   3.302   2.518   0.355 -0.5144 -0.1872 -0.1930
 1017TIP3    H1 3012   3.396   2.511   0.370 -0.5204  0.6472  0.2949
 1017TIP3    H2 3013   3.294   2.530   0.261 -0.1425 -0.4202 -0.2575
 1018TIP3   OH2 3014   2.195   2.021   3.444  0.4091  0.2694 -0.1241
 1018TIP3    H1 3015   2.101   2.039   3.438  0.3616 -0.0835 -0.4943
 1018TIP3    H2 3016   2.237   2.106   3.435  0.1987  0.1824 -2.0326
 1019TIP3   OH2 3017   2.631   1.061   2.595 -0.9244  0.2825 -0.1435
 1019TIP3    H1 3018   2.678   1.054   2.678 -0.4494 -0.5068 -0.4744
 1019TIP3    H2 3019   2.538   1.058   2.619 -0.7853 -1.3717  0.2490
 1020TIP3   OH2 3020   4.099   4.357   1.974  0.2786 -0.2711  0.2613
 1020TIP3    H1 3021   4.171   4.362   2.037 -0.2944 -0.0699  0.9056
 1020TIP3    H2 3022   4.095   4.444   1.934 -0.3361  0.0684  1.0459
 1021TIP3   OH2 3023   0.768   0.602   5.026  0.1872  0.2545  0.1117
 1021TIP3    H1 3024   0.786   0.682   4.976  0.2038 -0.2846 -0.7691
 1021TIP3    H2 3025   0.675   0.607   5.046  0.1062  0.3220 -0.2695
 1022TIP3   OH2 3026   6.108   4.668   0.648  0.1491  0.5994 -0.1251
 1022TIP3    H1 3027   6.064   4.583   0.649  0.1695  0.5686 -1.1746
 1022TIP3    H2 3028   6.039   4.730   0.623  0.2187  0.8425  0.2806
 1023TIP3   OH2 3029   4.964   6.984   5.827  0.0306  0.1789 -0.1693
 1023TIP3    H1 3030   4.939   6.972   5.919  2.5679  0.3409  0.5664
 1023TIP3    H2 3031   4.953   6.897   5.788  2.4053 -0.7881  1.1953
 1024TIP3   OH2 3032   3.442   3.818   2.362  0.4821 -0.3148 -0.2959
 1024TIP3    H1 3033   3.386   3.797   2.287  0.9134 -0.8174 -0.4854
 1024TIP3    H2 3034   3.481   3.734   2.386  1.2492  0.0550 -0.2464
 1025TIP3   OH2 3035   7.704   6.726   4.166 -0.2579  0.2293 -0.0721
 1025TIP3    H1 3036   7.719   6.722   4.260 -0.1796  0.4265 -0.0753
 1025TIP3    H2 3037   7.690   6.635   4.140 -0.1192  0.1580  0.1035
 1026TIP3   OH2 3038   3.552   4.141   1.389  0.0798 -0.5488  0.1498
 1026TIP3    H1 3039   3.624   4.198   1.363 -1.3524  0.7400 -1.1384
 1026TIP3    H2 3040   3.481   4.164   1.329 -1.0928 -2.4752  0.7472
 1027TIP3   OH2 3041   3.368   4.021   0.830  0.1452  0.2508  0.0749
 1027TIP3    H1 3042   3.402   4.027   0.741  0.0228 -1.6573 -0.1128
 1027TIP3    H2 3043   3.377   4.110   0.865  1.2749  0.7485 -1.4326
 1028TIP3   OH2 3044   4.193   6.356   1.987  0.7120  0.6969  0.2780
 1028TIP3    H1 3045   4.230   6.277   1.948 -0.7654 -1.2754  2.6842
 1028TIP3    H2 3046   4.157   6.406   1.914  2.5883 -0.3299 -1.3891
 1029TIP3   OH2 3047   2.489   3.697   0.831  0.1220  0.6236 -0.1091
 1029TIP3    H1 3048   2.436   3.744   0.896  0.9017  0.8109  0.3956
 1029TIP3    H2 3049   2.469   3.742   0.748 -0.6820  0.5455  0.0365
 1030TIP3   OH2 3050   3.357   4.910   1.080  0.8726  0.1088  0.7258
 1030TIP3    H1 3051   3.346   4.845   1.010 -0.6157 -0.3288  1.3526
 1030TIP3    H2 3052   3.448   4.938   1.072  0.7367  0.0386 -1.3601
 1031TIP3   OH2 3053   4.537   4.394   0.196 -0.3886  0.0796  0.6411
 1031TIP3    H1 3054   4.551   4.439   0.279 -0.6896  1.4129 -0.0031
 1031TIP3    H2 3055   4.617   4.411   0.145 -0.6929  0.2972  0.2242
 1032TIP3   OH2 3056   1.609   5.127   2.553 -0.2154  0.4295 -0.1370
 1032TIP3    H1 3057   1.548   5.189   2.511  0.6803  2.1455  1.0353
 1032TIP3    H2 3058   1.553   5.072   2.607 -0.8492  1.3095  0.1165
 1033TIP3   OH2 3059   1.909   2.988   0.790 -0.2912  0.4354 -0.7717
 1033TIP3    H1 3060   2.004   2.993   0.778 -0.1689  1.7847  0.6169
 1033TIP3    H2 3061   1.878   2.940   0.714  1.5417 -0.3024 -1.0934
 1034TIP3   OH2 3062   4.929   3.864   2.178 -0.2635  0.2207  0.4605
 1034TIP3    H1 3063   4.934   3.903   2.091  1.7037  1.8091  1.2366
 1034TIP3    H2 3064   4.837   3.873   2.204 -0.6083  0.8197 -0.9605
 1035TIP3   OH2 3065   4.993   6.324   5.270 -0.1331 -0.0321 -0.4932
 1035TIP3    H1 3066   5.041   6.294   5.194  1.2294 -0.7107  0.6155
 1035TIP3    H2 3067   5.006   6.255   5.336 -0.1053  1.2126  0.8233
 1036TIP3   OH2 3068   6.592   7.320   5.366 -0.2762  0.1228 -0.0988
 1036TIP3    H1 3069   6.655   7.316   5.437  0.3405 -0.3137 -0.6687
 1036TIP3    H2 3070   6.594   7.233   5.326 -1.0379  0.1853 -0.2921
 1037TIP3   OH2 3071   1.491   0.955   6.075 -0.4367  0.3273 -0.2251
 1037TIP3    H1 3072   1.449   0.908   6.003  1.6999  0.8685 -1.8582
 1037TIP3    H2 3073   1.489   0.893   6.148 -1.5740 -0.6623 -1.0643
 1038TIP3   OH2 3074   4.051   2.641   1.707 -0.2501 -0.2589 -0.2667
 1038TIP3    H1 3075   3.959   2.660   1.725 -0.3928  0.0153 -1.2740
 1038TIP3    H2 3076   4.097   2.721   1.731 -0.3552 -0.1595 -0.3928
 1039TIP3   OH2 3077   4.878   6.921   6.082 -0.1888  0.1328  0.0050
 1039TIP3    H1 3078   4.918   6.835   6.069  1.2428  0.8113 -0.1716
 1039TIP3    H2 3079   4.800   6.903   6.135 -1.1808 -1.5424 -1.9618
 1040TIP3   OH2 3080   1.219   0.691   6.211 -0.1994  0.5464 -0.4176
 1040TIP3    H1 3081   1.172   0.764   6.171  0.4813  1.1324 -0.1499
 1040TIP3    H2 3082   1.305   0.726   6.234  0.4696 -0.5896 -1.1345
 1041TIP3   OH2 3083   3.331   1.748   0.943 -0.2682 -0.2903  0.1416
 1041TIP3    H1 3084   3.303   1.669   0.990 -1.7067 -0.3506 -0.7978
 1041TIP3    H2 3085   3.339   1.814   1.011  1.4161 -1.3464  1.0141
 1042TIP3   OH2 3086   3.130   5.167   0.107  0.4260 -0.5593  0.8277
 1042TIP3    H1 3087   3.186   5.216   0.046  2.9049  1.0028  4.1425
 1042TIP3    H2 3088   3.071   5.233   0.144  1.7805 -0.5417  3.1175
 1043TIP3   OH2 3089   2.365   6.184   1.430 -0.0568  0.3898 -0.0473
 1043TIP3    H1 3090   2.380   6.278   1.423  1.1518  0.2411  0.5273
 1043TIP3    H2 3091   2.397   6.148   1.347  1.4702  0.2347  0.6101
 1044TIP3   OH2 3092   2.847   4.001   3.498  0.5995  0.5863 -0.2305
 1044TIP3    H1 3093   2.936   3.969   3.481  0.5045 -0.2571  0.8090
 1044TIP3    H2 3094   2.809   4.013   3.411  1.5937  0.5690 -0.6772
 1045TIP3   OH2 3095   3.811   4.780   2.683  0.4135 -0.0330 -0.7761
 1045TIP3    H1 3096   3.886   4.806   2.629  1.2747 -1.7210 -0.4311
 1045TIP3    H2 3097   3.782   4.697   2.646  0.5277 -0.8197  0.8372
 1046TIP3   OH2 3098   1.742   7.360   0.647  0.4876 -0.4446  0.2131
 1046TIP3    H1 3099   1.828   7.336   0.612 -0.1261 -1.2163 -0.8052
 1046TIP3    H2 3100   1.698   7.276   0.663 -0.7536 -0.0517 -1.0214
 1047TIP3   OH2 3101   6.874   0.446   5.695 -0.4641  0.0337 -0.5988
 1047TIP3    H1 3102   6.783   0.438   5.665 -0.3545  0.7446 -1.1277
 1047TIP3    H2 3103   6.921   0.378   5.648 -0.3208  1.0432 -1.9730
 1048TIP3   OH2 3104   2.377   4.747   0.663  0.0062  0.1121 -0.1268
 1048TIP3    H1 3105   2.409   4.805   0.732 -0.8769  0.8709 -0.3468
 1048TIP3    H2 3106   2.313   4.690   0.707 -0.1332  0.2117 -0.2016
 1049TIP3   OH2 3107   1.388   4.483   1.795  0.3707  0.2715 -0.7892
 1049TIP3    H1 3108   1.344   4.559   1.756  1.7562  1.1729 -0.6169
 1049TIP3    H2 3109   1.439   4.520   1.867 -0.7115 -1.1269  0.7352
 1050TIP3   OH2 3110   4.517   4.494   2.033 -0.0134 -0.5675 -0.0132
 1050TIP3    H1 3111   4.550   4.567   1.981 -0.7706 -0.7337 -0.7314
 1050TIP3    H2 3112   4.590   4.471   2.090  0.3933  0.4490 -0.1015
 1051TIP3   OH2 3113   2.885   3.203   1.359  0.3651 -0.2133  0.4399
 1051TIP3    H1 3114   2.852   3.277   1.308  2.0638 -0.5270 -1.1505
 1051TIP3    H2 3115   2.838   3.127   1.324  1.3661 -0.3973 -0.5187
 1052TIP3   OH2 3116   2.055   2.630   1.683 -0.6348 -0.1990 -0.2304
 1052TIP3    H1 3117   2.110   2.553   1.667 -1.8650 -1.4997  1.5773
 1052TIP3    H2 3118   2.117   2.697   1.714  0.0256 -1.4915  1.3220
 1053TIP3   OH2 3119   0.075   6.964   5.714  0.0214  0.5567 -0.2480
 1053TIP3    H1 3120   0.047   6.971   5.805 -1.5643  0.3410 -0.6986
 1053TIP3    H2 3121   0.162   7.004   5.712 -0.5448  1.8887  1.0764
 1054TIP3   OH2 3122   3.653   4.712   2.282 -0.0460  0.2512  0.2084
 1054TIP3    H1 3123   3.630   4.803   2.297 -0.3582  0.4521 -1.3887
 1054TIP3    H2 3124   3.748   4.709   2.291 -0.1557  0.4860  1.4640
 1055TIP3   OH2 3125   7.427   6.348   5.917 -0.5608  0.8213 -0.2717
 1055TIP3    H1 3126   7.519   6.345   5.891 -0.6132 -0.8499 -0.2775
 1055TIP3    H2 3127   7.381   6.372   5.836 -0.2642  0.3110 -0.5950
 1056TIP3   OH2 3128   4.800   3.826   1.518  0.2299  0.0748  0.0415
 1056TIP3    H1 3129   4.829   3.738   1.543 -0.6087 -0.1976  0.0720
 1056TIP3    H2 3130   4.714   3.835   1.559  0.0788  0.7084 -0.4123
 1057TIP3   OH2 3131   3.593   4.520   0.739 -0.5187 -0.3140 -0.0076
 1057TIP3    H1 3132   3.646   4.516   0.819 -0.6693  1.4823  0.2093
 1057TIP3    H2 3133   3.632   4.591   0.689 -1.2263 -0.5881 -0.9529
 1058TIP3   OH2 3134   2.262   4.067   2.089 -0.5515  0.5862 -0.7719
 1058TIP3    H1 3135   2.318   4.009   2.037 -1.7342 -0.6025 -0.7430
 1058TIP3    H2 3136   2.186   4.013   2.111 -1.0336  1.7322  0.4179
 1059TIP3   OH2 3137   3.277   5.139   2.153 -0.3272 -0.4811  0.0583
 1059TIP3    H1 3138   3.212   5.147   2.083 -0.5499 -0.6071  0.2498
 1059TIP3    H2 3139   3.238   5.077   2.215 -0.1541 -0.3311  0.3191
 1060TIP3   OH2 3140   3.647   0.055   5.511 -0.3727  0.4858 -0.0910
 1060TIP3    H1 3141   3.599   0.028   5.434 -1.2535 -1.6216  1.1570
 1060TIP3    H2 3142   3.658  -0.025   5.563 -0.7048  2.0125  2.4399
 1061TIP3   OH2 3143   1.702   1.018   0.517  0.4454 -0.2499  0.2011
 1061TIP3    H1 3144   1.669   1.046   0.431  2.4886 -2.5371 -1.4078
 1061TIP3    H2 3145   1.767   1.084   0.541  1.0337 -0.4568 -0.7968
 1062TIP3   OH2 3146   4.910   2.648   0.534 -0.2437 -0.1168  0.2533
 1062TIP3    H1 3147   4.824   2.636   0.496  0.3707  0.9091 -1.4858
 1062TIP3    H2 3148   4.967   2.590   0.483  0.8683  2.4116 -1.4304
 1063TIP3   OH2 3149   5.592   3.506   0.248  0.1152  0.4301  0.2200
 1063TIP3    H1 3150   5.665   3.565   0.267  0.0773  0.8728 -0.9607
 1063TIP3    H2 3151   5.520   3.540   0.300  0.5286  0.4845  0.7592
 1064TIP3   OH2 3152   6.695   1.633   2.204  0.4021 -0.0692  0.1801
 1064TIP3    H1 3153   6.629   1.672   2.148 -0.6267 -2.8798 -0.6471
 1064TIP3    H2 3154   6.653   1.624   2.289  0.4089  0.0352  0.1938
 1065TIP3   OH2 3155   3.997   4.438   1.135 -0.8228  0.3737  0.0085
 1065TIP3    H1 3156   4.065   4.505   1.139 -0.6767  0.2054  0.3801
 1065TIP3    H2 3157   3.971   4.424   1.226 -3.0656  2.1709 -0.2993
 1066TIP3   OH2 3158   5.955   7.013   6.207 -0.1771  0.0036 -0.4205
 1066TIP3    H1 3159   5.927   7.017   6.298 -0.6512  0.9412 -0.6035
 1066TIP3    H2 3160   6.048   6.992   6.211 -0.4765 -1.2971  0.2363
 1067TIP3   OH2 3161   1.968   1.873   3.188 -0.5394  0.4972 -0.8929
 1067TIP3    H1 3162   1.905   1.901   3.255 -0.3000 -0.4810 -0.2439
 1067TIP3    H2 3163   2.040   1.936   3.194  0.1097 -0.3736  0.7213
 1068TIP3   OH2 3164   5.284   6.458   6.368  0.4435 -0.3870 -0.1998
 1068TIP3    H1 3165   5.216   6.506   6.414  2.0125  1.8696 -0.1204
 1068TIP3    H2 3166   5.242   6.429   6.287 -1.1004 -0.6091  0.6641
 1069TIP3   OH2 3167   7.761   6.276   5.290 -0.0995  0.2390 -0.0118
 1069TIP3    H1 3168   7.823   6.214   5.253  0.3186  0.3795  0.4482
 1069TIP3    H2 3169   7.696   6.221   5.334 -0.4459  0.0825 -0.7044
 1070TIP3   OH2 3170   4.343   6.125   3.396 -0.8725 -0.8221  0.0680
 1070TIP3    H1 3171   4.358   6.174   3.477  0.2919 -2.3131  0.7933
 1070TIP3    H2 3172   4.428   6.121   3.353 -1.2368 -1.0429 -0.6407
 1071TIP3   OH2 3173   1.677   0.278   6.090 -0.1477 -0.4314 -0.2653
 1071TIP3    H1 3174   1.751   0.338   6.084  0.7643 -1.3578  1.4221
 1071TIP3    H2 3175   1.668   0.242   6.002  3.6061 -2.8745  0.2568
 1072TIP3   OH2 3176   2.619   2.647   5.754  0.0887  0.3434 -0.2680
 1072TIP3    H1 3177   2.713   2.642   5.737  0.2668  0.1214  0.7339
 1072TIP3    H2 3178   2.606   2.736   5.787 -0.0169  0.3039 -0.2044
 1073TIP3   OH2 3179   6.053   3.474   3.129 -0.4051  0.4171 -0.0890
 1073TIP3    H1 3180   6.128   3.415   3.134 -0.0285  0.8327 -0.7015
 1073TIP3    H2 3181   5.999   3.452   3.205  0.3236  0.0964  0.3375
 1074TIP3   OH2 3182   4.049   4.868   2.537 -0.1046 -0.9453  0.3989
 1074TIP3    H1 3183   4.097   4.857   2.619  0.5763 -1.4397 -0.0638
 1074TIP3    H2 3184   4.104   4.925   2.484 -1.8846  1.7850  1.3610
 1075TIP3   OH2 3185   4.442   6.151   0.886  0.2923 -0.6213 -0.3433
 1075TIP3    H1 3186   4.400   6.224   0.931 -0.3984 -0.2546 -1.5762
 1075TIP3    H2 3187   4.370   6.102   0.847  0.8922 -0.8739 -1.1557
 1076TIP3   OH2 3188   4.230   3.915   0.703  0.0785 -0.3179  0.0506
 1076TIP3    H1 3189   4.314   3.912   0.749  0.6250  1.9819 -0.7300
 1076TIP3    H2 3190   4.164   3.916   0.773  0.8542  1.7902  0.7954
 1077TIP3   OH2 3191   3.819   3.968   1.784 -0.3107 -0.1395  0.5067
 1077TIP3    H1 3192   3.776   4.033   1.728  0.0856  0.2563  0.6516
 1077TIP3    H2 3193   3.891   4.017   1.825 -0.5419 -0.4454  1.2823
 1078TIP3   OH2 3194   2.422   1.930   0.976  0.3885  0.0469  0.0004
 1078TIP3    H1 3195   2.481   2.002   0.999  0.0058  0.5782 -0.6777
 1078TIP3    H2 3196   2.356   1.930   1.045 -1.0807  1.9981 -1.3557
 1079TIP3   OH2 3197   4.407   5.307   1.264 -0.3130 -0.0819 -0.0898
 1079TIP3    H1 3198   4.344   5.322   1.194  0.9669  2.0404 -0.8266
 1079TIP3    H2 3199   4.482   5.266   1.221 -0.2881 -0.5636  0.3999
 1080TIP3   OH2 3200   3.086   4.268   1.873 -0.4127  0.0008 -0.0832
 1080TIP3    H1 3201   3.005   4.280   1.823  0.3519 -0.9954 -1.6142
 1080TIP3    H2 3202   3.136   4.348   1.856  0.6176 -1.0922 -2.4607
 1081TIP3   OH2 3203   3.629   5.842   2.399  0.0651  0.2036 -0.1870
 1081TIP3    H1 3204   3.681   5.921   2.390  0.7200 -0.0817  0.9483
 1081TIP3    H2 3205   3.617   5.810   2.310 -2.3596  2.9272 -0.9027
 1082TIP3   OH2 3206   2.510   0.634   6.221  0.1912 -0.3144 -0.3898
 1082TIP3    H1 3207   2.418   0.622   6.245 -0.4942 -0.8026 -3.1297
 1082TIP3    H2 3208   2.550   0.672   6.299 -2.5964  1.0712  0.4286
 1083TIP3   OH2 3209   6.941   2.761   2.497 -0.0490 -0.0429 -0.1699
 1083TIP3    H1 3210   6.937   2.743   2.403  1.2452 -1.6148  0.0393
 1083TIP3    H2 3211   6.972   2.851   2.504 -0.1063  0.0615 -1.2468
 1084TIP3   OH2 3212   2.233   1.938   2.031 -0.2019 -0.4799  0.4676
 1084TIP3    H1 3213   2.242   1.844   2.047 -1.4319 -0.6382  0.2983
 1084TIP3    H2 3214   2.209   1.944   1.939  2.9980  0.1994 -0.3897
 1085TIP3   OH2 3215   4.109   3.586   2.121  0.1264 -0.6293  0.1339
 1085TIP3    H1 3216   4.199   3.604   2.148 -0.0930  0.2492  0.2792
 1085TIP3    H2 3217   4.105   3.490   2.114  1.2186 -0.6465 -0.4002
 1086TIP3   OH2 3218   4.542   4.770   2.151 -0.2995  0.5619  0.1344
 1086TIP3    H1 3219   4.448   4.758   2.165 -0.1487 -1.6039 -0.6540
 1086TIP3    H2 3220   4.584   4.713   2.215  0.4557 -0.5669 -1.3589
 1087TIP3   OH2 3221   3.994   3.586   1.754  0.3325 -0.3002  0.1516
 1087TIP3    H1 3222   3.977   3.538   1.673  2.0859  0.6849 -0.8213
 1087TIP3    H2 3223   3.996   3.519   1.822 -2.2454 -1.0134 -0.4396
 1088TIP3   OH2 3224   0.502   3.275   2.120  0.3732 -0.0820  0.2118
 1088TIP3    H1 3225   0.553   3.316   2.050  0.8944 -1.7721 -0.4267
 1088TIP3    H2 3226   0.563   3.267   2.193  0.2497  0.3586  0.3616
 1089TIP3   OH2 3227   3.086   3.953   0.588 -0.1247  0.2172 -0.5586
 1089TIP3    H1 3228   3.096   3.887   0.519  0.0889 -0.8573  0.4927
 1089TIP3    H2 3229   3.149   4.020   0.566  2.3328 -1.7027  0.4178
 1090TIP3   OH2 3230   3.316   0.706   0.370  0.7240 -0.4219  0.0220
 1090TIP3    H1 3231   3.395   0.745   0.333  2.3755 -1.7051  2.1014
 1090TIP3    H2 3232   3.315   0.734   0.461 -0.3894 -1.6925  0.4167
 1091TIP3   OH2 3233   3.646   3.325   0.772  0.2251  0.6027 -0.3602
 1091TIP3    H1 3234   3.630   3.233   0.753  0.7259  0.5856 -0.7078
 1091TIP3    H2 3235   3.562   3.358   0.804  0.1207 -0.0394  0.0386
 1092TIP3   OH2 3236   5.010   7.297   4.658  0.0380 -0.1887 -0.5806
 1092TIP3    H1 3237   5.091   7.251   4.680  0.7724  0.8759 -1.0321
 1092TIP3    H2 3238   5.030   7.347   4.579 -0.0065  2.7661  1.1952
 1093TIP3   OH2 3239   2.116   1.642   1.230 -0.1489 -0.5340 -0.1150
 1093TIP3    H1 3240   2.174   1.572   1.259  0.1783 -0.1987  0.0348
 1093TIP3    H2 3241   2.043   1.639   1.292 -0.6986 -1.4989 -0.8057
 1094TIP3   OH2 3242   1.705   2.163   0.955  0.1256 -0.4691  0.1803
 1094TIP3    H1 3243   1.755   2.211   0.889 -0.0142 -0.0988  0.3414
 1094TIP3    H2 3244   1.693   2.076   0.917  0.3265 -0.3593 -0.1409
 1095TIP3   OH2 3245   5.982   6.427   6.169  0.4766  0.2367 -0.3425
 1095TIP3    H1 3246   6.062   6.478   6.158  0.7380 -0.0283  0.3196
 1095TIP3    H2 3247   5.912   6.488   6.145  0.6491  1.5736  2.3837
 1096TIP3   OH2 3248   7.140   1.302   4.720  0.3995  0.0896 -0.1283
 1096TIP3    H1 3249   7.218   1.268   4.675  0.3959 -1.6309  1.1283
 1096TIP3    H2 3250   7.088   1.341   4.650  2.1096  0.7634 -1.0690
 1097TIP3   OH2 3251   5.897   4.599   2.588 -0.7123 -0.1204 -0.3422
 1097TIP3    H1 3252   5.829   4.609   2.522 -1.0302 -0.5506 -0.0834
 1097TIP3    H2 3253   5.905   4.504   2.600  0.0668 -0.0854 -0.5099
 1098TIP3   OH2 3254   1.607   4.496   0.651 -0.9998 -0.1003 -0.1844
 1098TIP3    H1 3255   1.581   4.411   0.615  2.3997 -2.3097  2.1825
 1098TIP3    H2 3256   1.557   4.504   0.732  0.2157 -0.9260  0.6766
 1099TIP3   OH2 3257   6.845   3.010   5.999 -0.2511 -0.4554  0.1440
 1099TIP3    H1 3258   6.935   2.979   5.986 -0.9213 -2.2493 -0.3529
 1099TIP3    H2 3259   6.805   3.002   5.913 -0.9914  0.0449  0.4392
 1100TIP3   OH2 3260   2.824   4.661   1.942 -0.0436  0.3689 -0.4249
 1100TIP3    H1 3261   2.860   4.712   1.869  0.0229  0.5769 -0.2482
 1100TIP3    H2 3262   2.842   4.714   2.020 -0.8215  0.5240 -0.3430
 1101TIP3   OH2 3263   3.404   5.338   1.906  0.9372 -0.2192 -0.1555
 1101TIP3    H1 3264   3.333   5.401   1.921  0.7449  0.2265 -2.5735
 1101TIP3    H2 3265   3.438   5.319   1.993 -1.0922  0.8006  0.9177
 1102TIP3   OH2 3266   5.674   1.279   5.895  0.9633 -0.3651 -0.0384
 1102TIP3    H1 3267   5.753   1.250   5.941 -0.1245 -2.1465  0.7700
 1102TIP3    H2 3268   5.604   1.269   5.959 -0.2636 -0.9294 -1.4365
 1103TIP3   OH2 3269   2.022   4.588   1.018 -0.9832  0.1162  0.6453
 1103TIP3    H1 3270   1.970   4.668   1.015 -0.1149  0.6443 -0.7663
 1103TIP3    H2 3271   1.958   4.517   1.011 -1.8448  0.6237  2.8120
 1104TIP3   OH2 3272   2.391   0.241   6.311  0.2802 -0.1885 -0.5070
 1104TIP3    H1 3273   2.362   0.150   6.312 -0.4597  0.0397 -0.5819
 1104TIP3    H2 3274   2.384   0.269   6.403 -0.3083  0.0431 -0.6221
 1105TIP3   OH2 3275   3.363   3.144   0.327 -0.0301 -0.0413 -0.2057
 1105TIP3    H1 3276   3.457   3.126   0.329  0.0737  0.5634  0.6379
 1105TIP3    H2 3277   3.339   3.135   0.235  0.6038 -1.4399 -0.2475
 1106TIP3   OH2 3278   1.743   4.305   0.178  0.4714 -0.2385 -0.8439
 1106TIP3    H1 3279   1.792   4.265   0.106  1.8231 -1.6418  0.8045
 1106TIP3    H2 3280   1.750   4.400   0.162  2.7767 -0.4490 -1.2845
 1107TIP3   OH2 3281   3.808   4.511   0.154 -0.3251  0.7437 -0.2664
 1107TIP3    H1 3282   3.792   4.431   0.105 -0.0207  0.3212  0.3119
 1107TIP3    H2 3283   3.875   4.557   0.104 -0.4800  0.6219 -0.5857
 1108TIP3   OH2 3284   3.667   5.003   1.087  0.2654  0.2578 -0.2486
 1108TIP3    H1 3285   3.715   5.081   1.116  0.4750  0.3719 -0.8826
 1108TIP3    H2 3286   3.714   4.974   1.008  0.4340 -0.7459  0.2095
 1109TIP3   OH2 3287   4.684   6.610   1.890 -0.0156  0.0167  0.0667
 1109TIP3    H1 3288   4.664   6.686   1.836  0.0363  0.0923  0.1526
 1109TIP3    H2 3289   4.635   6.538   1.850  0.1674  0.0333 -0.1832
 1110TIP3   OH2 3290   4.608   5.099   4.271  0.7047 -0.1318  0.4715
 1110TIP3    H1 3291   4.595   5.194   4.262  1.1319 -0.0092  1.0772
 1110TIP3    H2 3292   4.656   5.090   4.354 -0.1641 -0.9507  0.8852
 1111TIP3   OH2 3293   5.923   7.046   2.497 -0.3716 -0.0158  0.5393
 1111TIP3    H1 3294   5.955   7.115   2.555  0.4147  0.2110 -0.1490
 1111TIP3    H2 3295   6.001   7.015   2.451 -1.0298  0.0175 -0.6156
 1112TIP3   OH2 3296   6.835   4.425   6.175  0.6698  0.3290  0.1182
 1112TIP3    H1 3297   6.860   4.355   6.236  0.1048  1.6880  1.9768
 1112TIP3    H2 3298   6.898   4.495   6.192  2.2831 -0.2920 -2.9222
 1113TIP3   OH2 3299   4.000   0.185   5.125 -0.2558  0.0290 -0.2874
 1113TIP3    H1 3300   3.988   0.109   5.182 -1.5447  0.6572  0.2867
 1113TIP3    H2 3301   4.055   0.152   5.053  0.1406 -1.1486  0.5282
 1114TIP3   OH2 3302   5.334   3.385   1.987 -0.2891  0.1490  0.2826
 1114TIP3    H1 3303   5.250   3.377   1.943 -0.3593 -0.2590  0.4898
 1114TIP3    H2 3304   5.389   3.432   1.925  0.0981 -1.8513 -0.9492
 1115TIP3   OH2 3305   2.655   3.757   1.249 -0.4296 -0.3330  0.3231
 1115TIP3    H1 3306   2.665   3.692   1.319 -1.7778 -0.7213  0.1581
 1115TIP3    H2 3307   2.669   3.708   1.168  1.5689  0.2021  0.3079
 1116TIP3   OH2 3308   1.696   2.139   1.896 -0.5048  0.4317  0.4392
 1116TIP3    H1 3309   1.734   2.209   1.843  0.4559 -0.5286 -0.1513
 1116TIP3    H2 3310   1.647   2.086   1.833 -0.7065  0.2018  0.7884
 1117TIP3   OH2 3311   5.354   6.330   5.833  0.7963  0.3584  0.3791
 1117TIP3    H1 3312   5.264   6.339   5.864  0.1462 -0.8077 -1.1134
 1117TIP3    H2 3313   5.360   6.241   5.799  2.5178  0.4182  0.4501
 1118TIP3   OH2 3314   4.570   2.826   0.553  0.4308  0.3440 -0.5554
 1118TIP3    H1 3315   4.519   2.881   0.493  0.1953  0.3910 -0.3106
 1118TIP3    H2 3316   4.530   2.740   0.548  0.1945  0.4341 -0.2003
 1119TIP3   OH2 3317   3.466   1.939   3.281 -0.7945  0.5465 -0.1405
 1119TIP3    H1 3318   3.453   2.030   3.307  0.0094  0.8491 -0.7764
 1119TIP3    H2 3319   3.552   1.938   3.239 -1.0287 -0.3983 -0.6103
 1120TIP3   OH2 3320   0.575   0.348   5.047 -0.1047 -0.0648 -0.0505
 1120TIP3    H1 3321   0.666   0.320   5.034  0.0215 -0.3572  1.3861
 1120TIP3    H2 3322   0.523   0.268   5.036  0.2593 -0.9621  4.0981
 1121TIP3   OH2 3323   0.902   0.215   5.907  0.2512 -0.3335  0.2871
 1121TIP3    H1 3324   0.947   0.193   5.988 -2.9131  0.5493  2.3532
 1121TIP3    H2 3325   0.864   0.132   5.878 -0.1337 -0.2978  0.6852
 1122TIP3   OH2 3326   5.473   6.056   2.933  0.1043 -0.5568  0.3189
 1122TIP3    H1 3327   5.446   6.135   2.980 -0.7038 -0.2505 -0.6405
 1122TIP3    H2 3328   5.538   6.087   2.869  1.0156 -0.9313  1.0534
 1123TIP3   OH2 3329   1.786   1.210   5.432  0.1688  0.2825 -0.2956
 1123TIP3    H1 3330   1.748   1.125   5.452 -1.5072  1.1533  0.3427
 1123TIP3    H2 3331   1.815   1.244   5.516  2.9992 -0.6091 -0.8347
 1124TIP3   OH2 3332   3.238   1.178   4.382  0.7314 -0.1303 -0.3089
 1124TIP3    H1 3333   3.323   1.182   4.426  0.5197  0.7273  0.0242
 1124TIP3    H2 3334   3.250   1.231   4.303  0.4812  0.0680 -0.2134
 1125TIP3   OH2 3335   3.284   6.458   5.521  0.5059 -0.0387  0.0288
 1125TIP3    H1 3336   3.231   6.459   5.441  0.3777  1.0512  0.1092
 1125TIP3    H2 3337   3.336   6.538   5.515  1.2572 -0.4908  0.5320
 1126TIP3   OH2 3338   3.052   4.294   0.896 -0.3099 -0.6387  0.5060
 1126TIP3    H1 3339   3.033   4.200   0.889 -0.5117 -0.5349 -0.4029
 1126TIP3    H2 3340   2.997   4.334   0.829 -0.2102  0.1333  0.8843
 1127TIP3   OH2 3341   6.736   1.257   1.428 -0.1569 -0.1885  0.0338
 1127TIP3    H1 3342   6.779   1.206   1.496  0.1621 -0.0784 -0.0874
 1127TIP3    H2 3343   6.772   1.345   1.438 -0.6210 -0.0108  0.1690
 1128TIP3   OH2 3344   5.006   5.314   6.113  0.2907  0.1842 -0.0405
 1128TIP3    H1 3345   4.988   5.338   6.022  1.1688  2.9147  0.4553
 1128TIP3    H2 3346   4.925   5.274   6.144 -0.0512 -0.6830 -1.9807
 1129TIP3   OH2 3347   4.775   4.404   0.065 -0.3862 -0.4293 -0.3745
 1129TIP3    H1 3348   4.810   4.470   0.006 -0.8943  1.3231  1.2162
 1129TIP3    H2 3349   4.803   4.321   0.028  1.1218  0.7166 -1.8826
 1130TIP3   OH2 3350   0.240   7.334   5.865  0.2129 -0.1016 -0.6036
 1130TIP3    H1 3351   0.201   7.259   5.909  0.6553 -1.2137 -2.0602
 1130TIP3    H2 3352   0.166   7.391   5.843 -0.0430  0.2628  1.1875
 1131TIP3   OH2 3353   5.006   5.036   0.074  0.4152 -0.2804  0.3678
 1131TIP3    H1 3354   5.087   5.012   0.029  2.5783  2.5733  2.5035
 1131TIP3    H2 3355   4.970   5.108   0.023  2.1623  2.0551  2.2828
 1132TIP3   OH2 3356   2.475   4.707   5.962  0.4771 -0.4998 -0.1309
 1132TIP3    H1 3357   2.445   4.766   5.893  0.2580 -0.1269  0.2788
 1132TIP3    H2 3358   2.491   4.764   6.037  1.7542 -0.7661 -0.2001
 1133TIP3   OH2 3359   7.034   4.615   0.018 -0.2186  0.0059 -0.3398
 1133TIP3    H1 3360   6.998   4.546   0.074 -1.5853  0.0918 -1.0926
 1133TIP3    H2 3361   7.127   4.617   0.039 -0.4823 -0.8814  0.9504
 1134TIP3   OH2 3362   0.198   7.180   5.542 -0.5328  0.2446  0.2650
 1134TIP3    H1 3363   0.199   7.127   5.462 -0.4571  1.2898 -0.4338
 1134TIP3    H2 3364   0.154   7.261   5.518  1.9509  1.7172  0.5171
 1135TIP3   OH2 3365   4.647   4.615   2.341  0.3913 -0.4345  0.0340
 1135TIP3    H1 3366   4.716   4.637   2.404 -0.7968  0.5941  1.0031
 1135TIP3    H2 3367   4.616   4.529   2.369  0.3528 -0.2961  0.4182
 1136TIP3   OH2 3368   1.299   5.545   5.685  0.5129  0.5641 -0.1476
 1136TIP3    H1 3369   1.256   5.562   5.769 -0.2922 -0.6854 -0.2886
 1136TIP3    H2 3370   1.340   5.459   5.696 -1.0724 -0.4050 -1.5909
 1137TIP3   OH2 3371   5.273   3.864   1.046  0.0565  0.1189  1.1583
 1137TIP3    H1 3372   5.319   3.899   0.970  0.5588 -0.4937  1.1756
 1137TIP3    H2 3373   5.185   3.844   1.013  0.2141  0.0304  0.7828
 1138TIP3   OH2 3374   4.547   0.788   5.642  0.6608  0.1940 -0.3411
 1138TIP3    H1 3375   4.485   0.722   5.610  0.9791  0.0659 -0.6968
 1138TIP3    H2 3376   4.506   0.872   5.622  1.0559  0.1153 -1.4703
 1139TIP3   OH2 3377   5.584   2.156   0.103 -0.3636 -0.0297  0.3842
 1139TIP3    H1 3378   5.493   2.127   0.103 -0.8663  1.4516  1.6587
 1139TIP3    H2 3379   5.588   2.222   0.035 -0.2603 -0.0474  0.3731
 1140TIP3   OH2 3380   5.346   6.061   0.218 -0.1833  0.3171  0.0210
 1140TIP3    H1 3381   5.313   6.053   0.128  0.0871  0.7910 -0.1214
 1140TIP3    H2 3382   5.267   6.074   0.271 -0.3330  0.1564 -0.1636
 1141TIP3   OH2 3383   5.384   3.273   0.285 -0.0058  0.6822  0.2177
 1141TIP3    H1 3384   5.398   3.349   0.228  1.0712  0.6841  0.4863
 1141TIP3    H2 3385   5.472   3.247   0.313 -0.4613  0.0836  1.1057
 1142TIP3   OH2 3386   5.550   5.871   5.603 -0.5514 -0.2410 -0.3625
 1142TIP3    H1 3387   5.584   5.807   5.541 -0.3224 -0.1278 -0.3550
 1142TIP3    H2 3388   5.606   5.948   5.592 -0.2471 -0.3658  0.2791
 1143TIP3   OH2 3389   5.451   3.038   1.343  0.1338  0.3385  0.2569
 1143TIP3    H1 3390   5.475   3.123   1.381 -1.3785  0.6514  0.5709
 1143TIP3    H2 3391   5.445   3.054   1.249  2.6364 -0.1292 -0.0180
 1144TIP3   OH2 3392   2.792   1.294   5.276 -0.7487 -0.4351 -0.5097
 1144TIP3    H1 3393   2.797   1.280   5.371  0.8840 -0.4208 -0.5899
 1144TIP3    H2 3394   2.776   1.388   5.267  0.0743 -0.2734 -0.2797
 1145TIP3   OH2 3395   4.076   5.334   1.349 -0.8831 -0.0261 -0.2732
 1145TIP3    H1 3396   4.152   5.308   1.298  0.2304  1.9376  0.2995
 1145TIP3    H2 3397   4.053   5.421   1.315 -0.9936  0.6920  1.5624
 1146TIP3   OH2 3398   6.007   3.912   0.485 -0.3288  0.0036 -0.1340
 1146TIP3    H1 3399   6.085   3.944   0.441  0.0053  0.1154  0.5204
 1146TIP3    H2 3400   6.040   3.870   0.565 -0.7533 -2.1638 -1.0667
 1147TIP3   OH2 3401   3.556   2.908   0.499  0.0553 -0.2022  0.4062
 1147TIP3    H1 3402   3.582   2.982   0.444  2.4939 -0.4626  1.1371
 1147TIP3    H2 3403   3.468   2.886   0.469  0.0462  1.7472 -1.1452
 1148TIP3   OH2 3404   6.244   2.421   0.613 -0.1570  0.3265 -0.5235
 1148TIP3    H1 3405   6.165   2.368   0.618  1.7204 -2.4670  1.7627
 1148TIP3    H2 3406   6.315   2.357   0.604  2.0391  2.5820  0.0786
 1149TIP3   OH2 3407   4.913   4.805   0.380  0.2538  0.2088  0.1209
 1149TIP3    H1 3408   4.830   4.850   0.398 -1.2016 -2.1730 -0.3616
 1149TIP3    H2 3409   4.886   4.719   0.346  2.9351 -0.5105 -0.2626
 1150TIP3   OH2 3410   6.422   1.863   1.537  0.5337  0.1848  0.1256
 1150TIP3    H1 3411   6.490   1.839   1.475 -0.0717  1.3604 -1.0236
 1150TIP3    H2 3412   6.395   1.780   1.576  0.5929 -0.6408 -1.5320
 1151TIP3   OH2 3413   4.960   3.654  -0.004 -0.2255 -0.2919 -0.6171
 1151TIP3    H1 3414   4.922   3.572  -0.038 -0.4831 -0.2039 -0.5434
 1151TIP3    H2 3415   5.034   3.626   0.049 -0.8169 -0.5256  0.0882
 1152TIP3   OH2 3416   6.400   3.470   0.922 -0.5775  0.1222  0.1723
 1152TIP3    H1 3417   6.488   3.431   0.929  0.2220  1.7525 -0.4095
 1152TIP3    H2 3418   6.393   3.526   1.000 -0.7359  0.6893 -0.2470
 1153TIP3   OH2 3419   3.789   5.675   1.575  0.1384  0.0506 -0.0119
 1153TIP3    H1 3420   3.725   5.611   1.545 -0.2809  0.3465  0.2410
 1153TIP3    H2 3421   3.859   5.622   1.616  0.1563 -0.2815 -0.4700
 1154TIP3   OH2 3422   4.025   4.147   1.791  0.3211 -0.1762  0.2994
 1154TIP3    H1 3423   4.042   4.229   1.838  0.7115 -0.7706  1.2080
 1154TIP3    H2 3424   4.099   4.091   1.813 -0.3391 -1.0543  0.3242
 1155TIP3   OH2 3425   4.179   5.098   0.864  0.0497 -0.7483 -0.4835
 1155TIP3    H1 3426   4.102   5.041   0.871  0.4965 -1.0877  2.1098
 1155TIP3    H2 3427   4.207   5.111   0.954  0.9352  2.2753 -1.1583
 1156TIP3   OH2 3428   1.782   6.594   6.156 -0.4090 -0.3554 -0.2385
 1156TIP3    H1 3429   1.821   6.641   6.231 -0.5354 -1.5493  0.5964
 1156TIP3    H2 3430   1.822   6.634   6.079 -1.9034  2.3882  0.3584
 1157TIP3   OH2 3431   5.297   3.924   0.244 -0.1295  0.2071  0.0453
 1157TIP3    H1 3432   5.321   3.902   0.334 -1.7074 -1.8518  0.0060
 1157TIP3    H2 3433   5.246   4.005   0.252  1.1791  0.9753  0.7976
 1158TIP3   OH2 3434   4.066   5.288   0.074  0.2342  0.1642 -0.5396
 1158TIP3    H1 3435   4.066   5.238   0.156  1.0750  0.4475 -0.3676
 1158TIP3    H2 3436   4.025   5.229   0.011 -0.1295 -0.1774  0.0053
 1159TIP3   OH2 3437   7.687   2.807   0.896  1.0073  0.2387 -0.7091
 1159TIP3    H1 3438   7.767   2.753   0.899 -0.7395 -2.3694  1.0686
 1159TIP3    H2 3439   7.685   2.853   0.980  0.8089  0.5579 -0.8870
 1160TIP3   OH2 3440   7.418   6.598   5.688  0.3929  0.0353 -0.2797
 1160TIP3    H1 3441   7.401   6.610   5.594  1.6158  0.0886 -0.4981
 1160TIP3    H2 3442   7.509   6.624   5.700  0.6087 -1.1093  0.7172
 1161TIP3   OH2 3443   5.758   2.149   1.283  0.3586  0.0023 -0.2944
 1161TIP3    H1 3444   5.757   2.200   1.363  1.3373  0.7150 -0.7274
 1161TIP3    H2 3445   5.775   2.059   1.311 -0.7864 -0.0044  0.4154
 1162TIP3   OH2 3446   0.915   0.665   5.927  0.2580  0.4883 -0.0487
 1162TIP3    H1 3447   0.892   0.723   6.000 -1.1161  0.3711 -0.3797
 1162TIP3    H2 3448   1.011   0.669   5.923  0.4781 -0.6624  2.7216
 1163TIP3   OH2 3449   0.390   6.874   5.552  0.5082  0.9076  0.0868
 1163TIP3    H1 3450   0.330   6.911   5.487 -0.1800  0.2583  0.3546
 1163TIP3    H2 3451   0.361   6.784   5.563  1.5696  0.5764  0.1752
 1164TIP3   OH2 3452   4.348   4.259   0.070 -0.1416 -0.8106 -0.2715
 1164TIP3    H1 3453   4.356   4.167   0.045  1.2262 -1.2014  1.4507
 1164TIP3    H2 3454   4.436   4.282   0.102 -0.5909  0.9638 -0.2857
 1165TIP3   OH2 3455   5.460   4.860   1.229 -0.4255 -0.0730  0.0622
 1165TIP3    H1 3456   5.402   4.856   1.305 -0.5368  0.1280 -0.0084
 1165TIP3    H2 3457   5.539   4.905   1.260 -0.4364 -0.0680  0.0819
 1166TIP3   OH2 3458   3.052   0.878   5.984  0.0001 -0.1388  0.0677
 1166TIP3    H1 3459   3.006   0.821   6.046  0.5950  1.0224  1.5727
 1166TIP3    H2 3460   3.131   0.830   5.961  0.4671  0.0494  1.2833
 1167TIP3   OH2 3461   0.565   7.242   5.322  0.6160 -0.6547 -0.8092
 1167TIP3    H1 3462   0.559   7.257   5.228  2.9223 -0.7771 -0.9901
 1167TIP3    H2 3463   0.576   7.148   5.331 -1.9043 -0.9410 -0.2642
 1168TIP3   OH2 3464   1.421   7.142   5.746  0.3657 -0.2453  0.2769
 1168TIP3    H1 3465   1.510   7.163   5.773  0.7267  0.6448 -1.5468
 1168TIP3    H2 3466   1.430   7.108   5.656 -1.2051  0.7151 -0.2701
 1169TIP3   OH2 3467   3.565   2.556   0.351 -0.3138  0.0146 -0.3235
 1169TIP3    H1 3468   3.627   2.585   0.417 -0.9243 -0.0739  0.2926
 1169TIP3    H2 3469   3.618   2.544   0.272  0.4498 -0.0736  0.1958
 1170TIP3   OH2 3470   2.688   7.123   6.306  0.2301 -0.5815  0.1160
 1170TIP3    H1 3471   2.602   7.165   6.314 -0.3419 -1.9377  1.1898
 1170TIP3    H2 3472   2.679   7.063   6.232  0.4300 -0.3060 -0.1327
 1171TIP3   OH2 3473   7.617   6.101   6.275  0.5475  0.3624  0.0062
 1171TIP3    H1 3474   7.690   6.150   6.238  1.3792 -0.6752  0.2222
 1171TIP3    H2 3475   7.545   6.116   6.215  1.1962  0.6869 -0.7017
 1172TIP3   OH2 3476   5.281   2.838   1.472 -0.6483 -0.3124  0.7750
 1172TIP3    H1 3477   5.255   2.786   1.395 -2.5571  0.2087  1.0274
 1172TIP3    H2 3478   5.348   2.897   1.440 -1.7521  0.2171 -0.6212
 1173TIP3   OH2 3479   2.919   0.703   6.132  0.0340  0.4098 -0.2359
 1173TIP3    H1 3480   2.847   0.720   6.193 -0.0974 -0.7430 -0.0598
 1173TIP3    H2 3481   2.881   0.645   6.066  0.5344  0.5766 -0.6691
 1174TIP3   OH2 3482   3.377   5.562   5.680 -0.7692 -0.4395 -0.0501
 1174TIP3    H1 3483   3.310   5.598   5.738 -2.2265 -1.1258 -1.2745
 1174TIP3    H2 3484   3.388   5.629   5.612  0.5045  0.1024  0.6831
 1175TIP3   OH2 3485   5.219   3.627   1.483  0.2567 -0.5103  0.0396
 1175TIP3    H1 3486   5.189   3.683   1.554 -1.6069 -1.5804  0.1138
 1175TIP3    H2 3487   5.242   3.688   1.413 -0.9482  0.3995  0.4189
 1176TIP3   OH2 3488   4.768   4.445   1.045 -0.7357  0.5937  0.2757
 1176TIP3    H1 3489   4.801   4.461   1.134 -0.7515  0.0112  0.3881
 1176TIP3    H2 3490   4.832   4.387   1.005 -1.6710 -0.6480  0.5358
 1177TIP3   OH2 3491   4.210   5.168   1.932  0.2427  0.0495  0.4615
 1177TIP3    H1 3492   4.295   5.134   1.961  0.1769  0.8979  1.6880
 1177TIP3    H2 3493   4.164   5.190   2.012  0.2313  2.9099 -0.2575
 1178TIP3   OH2 3494   3.371   1.281   5.516 -0.6823  0.0024 -0.4856
 1178TIP3    H1 3495   3.363   1.314   5.606 -2.2190  1.7857 -1.2456
 1178TIP3    H2 3496   3.341   1.190   5.522  1.8404 -0.7884  1.2939
 1179TIP3   OH2 3497   5.572   3.875   1.088  0.2504 -0.2820  0.5042
 1179TIP3    H1 3498   5.617   3.806   1.136  0.5589 -1.7384 -1.7748
 1179TIP3    H2 3499   5.481   3.847   1.084  0.6314 -1.3310 -1.6475
 1180TIP3   OH2 3500   5.633   4.280   2.124  0.0880  0.2835 -0.2244
 1180TIP3    H1 3501   5.582   4.333   2.184  1.7491  1.1646  0.4262
 1180TIP3    H2 3502   5.659   4.203   2.175  1.4315  0.9932  0.1854
 1181TIP3   OH2 3503   0.262   3.637   0.159  0.0791  0.1475 -0.3826
 1181TIP3    H1 3504   0.216   3.721   0.152  0.3379  0.2075 -1.4732
 1181TIP3    H2 3505   0.339   3.657   0.211  1.3353  1.1364 -2.5237
 1182TIP3   OH2 3506   5.612   3.038   0.054  0.0639 -0.0419 -0.2539
 1182TIP3    H1 3507   5.528   3.052   0.098 -0.3509 -0.3996 -0.9348
 1182TIP3    H2 3508   5.638   3.125   0.025 -0.0601  0.0713 -0.0332
 1183TIP3   OH2 3509   6.615   4.706   0.479  0.2126  0.0251  0.2767
 1183TIP3    H1 3510   6.653   4.770   0.538 -1.8550  1.7985 -0.2676
 1183TIP3    H2 3511   6.525   4.694   0.509 -0.1032 -0.9707 -0.9612
 1184TIP3   OH2 3512   5.247   3.788   2.191  0.3399 -0.0796 -0.0883
 1184TIP3    H1 3513   5.290   3.828   2.267  3.3866 -0.9663 -1.2863
 1184TIP3    H2 3514   5.199   3.713   2.227 -1.6573  1.8663  1.4957
 1185TIP3   OH2 3515   4.741   2.696   2.031  0.0454 -0.1370  0.4423
 1185TIP3    H1 3516   4.798   2.638   1.980 -0.3025 -1.9962  2.1164
 1185TIP3    H2 3517   4.703   2.639   2.098 -1.1018  1.8290  1.4909
 1186TIP3   OH2 3518   4.502   4.171   0.409  0.0820 -0.7565  0.3075
 1186TIP3    H1 3519   4.414   4.169   0.447 -0.1646 -1.2020 -0.2807
 1186TIP3    H2 3520   4.495   4.230   0.334 -0.1513 -2.1762 -0.8031
 1187TIP3   OH2 3521   7.057   7.232   6.072  0.1255 -0.0711 -0.6639
 1187TIP3    H1 3522   7.138   7.281   6.054  0.2149 -0.7184 -2.0376
 1187TIP3    H2 3523   7.067   7.150   6.024 -1.4529 -0.0664 -1.0224
 1188TIP3   OH2 3524   5.840   3.226   1.109  0.2558 -0.0914  0.2219
 1188TIP3    H1 3525   5.931   3.237   1.081 -0.3491 -0.3688 -2.0273
 1188TIP3    H2 3526   5.835   3.135   1.138  0.5288 -0.3117 -0.4085
 1189TIP3   OH2 3527   7.103   6.613   5.643  0.4226 -0.1317 -0.1337
 1189TIP3    H1 3528   7.193   6.636   5.666  0.1369  1.9916 -1.0289
 1189TIP3    H2 3529   7.108   6.587   5.551  0.3240 -1.2724  0.1783
 1190TIP3   OH2 3530   6.300   2.048   3.126  0.3030 -0.3251  0.6558
 1190TIP3    H1 3531   6.341   2.029   3.210 -0.7477 -2.5666  0.6897
 1190TIP3    H2 3532   6.301   1.965   3.079 -0.4889  0.5456 -0.9497
 1191TIP3   OH2 3533   7.391   3.836   2.035 -0.0504 -0.3272 -0.3722
 1191TIP3    H1 3534   7.393   3.929   2.058 -0.1958 -0.2394 -0.7152
 1191TIP3    H2 3535   7.367   3.792   2.116  2.2024 -0.2537  0.3517
 1192TIP3   OH2 3536   1.880   2.087   4.554 -0.4637  0.4192 -0.2752
 1192TIP3    H1 3537   1.940   2.124   4.619 -1.0774  1.2005 -0.1486
 1192TIP3    H2 3538   1.888   2.145   4.478  0.3265 -0.5474 -0.9465
 1193TIP3   OH2 3539   3.144   1.195   5.733  0.3013 -0.0414  0.2144
 1193TIP3    H1 3540   3.231   1.216   5.768  0.3679  1.1328 -0.6309
 1193TIP3    H2 3541   3.146   1.100   5.719  1.5512  0.0211 -0.0712
 1194TIP3   OH2 3542   4.775   4.292   1.602  1.0627 -0.1078  0.0854
 1194TIP3    H1 3543   4.783   4.388   1.605  1.0600 -0.1149  0.3415
 1194TIP3    H2 3544   4.766   4.272   1.509  1.3447  0.1186  0.0080
 1195TIP3   OH2 3545   2.582   0.444   5.986  0.1602 -0.0927 -0.3611
 1195TIP3    H1 3546   2.592   0.487   5.902 -1.2628  0.4366 -0.2805
 1195TIP3    H2 3547   2.574   0.516   6.049  2.1915 -0.4802  0.3585
 1196TIP3   OH2 3548   7.071   2.593   0.391  0.2906  0.3191  0.4708
 1196TIP3    H1 3549   7.159   2.601   0.426 -0.1820  0.9504  1.5248
 1196TIP3    H2 3550   7.013   2.604   0.466 -0.6668 -1.4132  0.0147
 1197TIP3   OH2 3551   5.782   3.933   0.926  0.3686 -0.2408 -0.4093
 1197TIP3    H1 3552   5.704   3.909   0.977 -0.5163  0.8402 -1.2301
 1197TIP3    H2 3553   5.782   3.873   0.852 -0.3958  0.5603 -1.0737
 1198TIP3   OH2 3554   2.666   5.016   1.174  0.5505  0.0004  0.5360
 1198TIP3    H1 3555   2.677   5.091   1.116 -1.9963  0.2343  0.3355
 1198TIP3    H2 3556   2.576   4.986   1.160  0.8958 -1.8783  2.0582
 1199TIP3   OH2 3557   6.360   3.141   1.067 -0.8274  0.2939 -0.1835
 1199TIP3    H1 3558   6.441   3.178   1.032 -0.6461 -0.9209 -1.0990
 1199TIP3    H2 3559   6.334   3.075   1.003 -0.9847 -1.3561  1.5035
 1200TIP3   OH2 3560   4.380   2.772   2.601 -0.2269 -0.0019 -0.2378
 1200TIP3    H1 3561   4.415   2.711   2.536 -1.3330 -0.0308 -0.8074
 1200TIP3    H2 3562   4.418   2.743   2.684  3.8225  1.9419 -1.2558
 1201TIP3   OH2 3563   2.693   0.542   4.433  0.0517 -0.2065 -0.0030
 1201TIP3    H1 3564   2.761   0.579   4.377  0.2578 -0.5373  0.0210
 1201TIP3    H2 3565   2.694   0.596   4.512 -0.2208  0.2430 -0.3067
 1202TIP3   OH2 3566   1.298   0.118   5.131  0.0742 -0.4550  0.2110
 1202TIP3    H1 3567   1.280   0.073   5.048  0.9617 -0.1468 -0.1578
 1202TIP3    H2 3568   1.382   0.081   5.160 -0.1114 -0.3815  0.8505
 1203TIP3   OH2 3569   2.569   5.944   5.912  0.2600  0.1746 -0.5704
 1203TIP3    H1 3570   2.481   5.945   5.876  0.2969  2.0577 -0.6311
 1203TIP3    H2 3571   2.557   5.961   6.006  0.6923  2.4668 -0.9131
 1204TIP3   OH2 3572   5.471   2.583   1.880 -0.4099  0.5717  0.1811
 1204TIP3    H1 3573   5.559   2.547   1.875 -0.2231  1.1337 -0.6960
 1204TIP3    H2 3574   5.469   2.629   1.964 -1.2293 -2.8982  2.1627
 1205TIP3   OH2 3575   0.188   4.958   0.473  0.1188  0.1020  0.4797
 1205TIP3    H1 3576   0.261   4.906   0.507 -0.0119 -0.7538 -0.5488
 1205TIP3    H2 3577   0.191   4.946   0.378 -2.1974 -1.0512  0.5295
 1206TIP3   OH2 3578   3.833   3.780  -0.014  0.1708  0.0380 -0.1246
 1206TIP3    H1 3579   3.821   3.841   0.059 -0.0750  1.2345 -1.1504
 1206TIP3    H2 3580   3.884   3.708   0.023  1.8506  1.6115  0.7042
 1207TIP3   OH2 3581   0.635   7.145   6.292 -0.3936  0.3808 -0.3207
 1207TIP3    H1 3582   0.714   7.134   6.346 -0.2372 -0.2314 -0.6775
 1207TIP3    H2 3583   0.668   7.147   6.202 -0.9877 -1.8497 -0.5894
 1208TIP3   OH2 3584   6.764   2.663   0.069 -0.0819  0.0939  0.5217
 1208TIP3    H1 3585   6.684   2.666   0.122  0.0459  2.3320  0.6331
 1208TIP3    H2 3586   6.823   2.726   0.111  0.7911  0.3414 -1.0473
 1209TIP3   OH2 3587   2.174   7.124   6.006 -0.0855  0.0436  0.1508
 1209TIP3    H1 3588   2.218   7.043   5.981  0.9316  0.9457 -1.0615
 1209TIP3    H2 3589   2.091   7.123   5.960 -0.2645 -0.5110  0.4848
 1210TIP3   OH2 3590   3.820   3.787   2.797 -0.0471  0.4533 -0.3667
 1210TIP3    H1 3591   3.846   3.840   2.722 -1.0276  1.0739 -0.2720
 1210TIP3    H2 3592   3.869   3.824   2.871  0.4051  0.2684 -0.5701
 1211TIP3   OH2 3593   0.744   1.532   5.876 -1.0297 -0.1364 -0.6092
 1211TIP3    H1 3594   0.780   1.472   5.941 -0.7083 -1.3019 -1.8400
 1211TIP3    H2 3595   0.715   1.608   5.927 -0.9958 -1.1199  0.9137
 1212TIP3   OH2 3596   4.112   4.285   0.191 -0.1468  0.6114 -0.0384
 1212TIP3    H1 3597   4.192   4.275   0.138  1.1885 -0.1493  2.0837
 1212TIP3    H2 3598   4.042   4.255   0.134  0.9486  2.1008 -2.2683
 1213TIP3   OH2 3599   0.579   5.198   5.705 -0.0464  0.5582 -0.3613
 1213TIP3    H1 3600   0.530   5.126   5.745 -0.3995 -0.0920 -1.9149
 1213TIP3    H2 3601   0.555   5.194   5.612  0.9975  1.8217 -0.6948
 1214TIP3   OH2 3602   1.301   1.635   5.069 -0.1338 -0.0708  0.0903
 1214TIP3    H1 3603   1.313   1.608   4.978  1.1455 -1.2154  0.5865
 1214TIP3    H2 3604   1.298   1.554   5.119  2.4283  0.5924  1.4443
 1215TIP3   OH2 3605   4.066   1.796   6.094 -0.0374  0.2035 -0.0903
 1215TIP3    H1 3606   4.162   1.792   6.087  0.0353 -2.6679  1.5614
 1215TIP3    H2 3607   4.036   1.793   6.003  1.4178 -1.2313 -0.5567
 1216TIP3   OH2 3608   0.423   1.432   5.348 -0.0363  0.0920  0.3932
 1216TIP3    H1 3609   0.428   1.405   5.439  1.4395 -0.6333  0.1097
 1216TIP3    H2 3610   0.492   1.498   5.338 -0.1651  0.1394 -0.2149
 1217TIP3   OH2 3611   3.834   1.205   5.757  0.3751 -0.2376  0.0049
 1217TIP3    H1 3612   3.853   1.111   5.764 -1.1115 -0.5898 -0.4667
 1217TIP3    H2 3613   3.741   1.209   5.734  0.4444  1.3554 -0.0596
 1218TIP3   OH2 3614   4.331   3.572   1.015  0.8438  0.0821  0.3947
 1218TIP3    H1 3615   4.362   3.655   0.980 -0.4576  0.2899 -0.2874
 1218TIP3    H2 3616   4.275   3.536   0.946 -0.6053 -0.1749  1.6657
 1219TIP3   OH2 3617   4.454   0.128   4.763  0.1319  0.0280  0.0000
 1219TIP3    H1 3618   4.448   0.217   4.729  0.5036 -0.4796 -1.4233
 1219TIP3    H2 3619   4.367   0.091   4.749  0.6394 -0.6024 -1.6409
 1220TIP3   OH2 3620   4.841   4.563   0.303  0.0247 -0.1849 -1.0385
 1220TIP3    H1 3621   4.910   4.501   0.325 -0.4648 -0.1913  0.4935
 1220TIP3    H2 3622   4.813   4.537   0.215 -0.5634 -2.4965 -0.2021
 1221TIP3   OH2 3623   1.851   5.703   5.814  0.5461 -0.2018 -0.0004
 1221TIP3    H1 3624   1.867   5.611   5.794 -0.2878 -0.5578  0.9347
 1221TIP3    H2 3625   1.900   5.719   5.895  1.8040  0.5532 -0.8794
 1222TIP3   OH2 3626   0.566   7.277   5.035  0.5695  0.3182  0.3548
 1222TIP3    H1 3627   0.532   7.233   4.957  1.4936  0.2478 -0.0099
 1222TIP3    H2 3628   0.508   7.352   5.048  0.5789  0.4845 -0.5637
 1223TIP3   OH2 3629   6.051   3.676   1.824 -0.1367 -0.5552  0.4785
 1223TIP3    H1 3630   6.115   3.708   1.761 -0.5939 -0.4560  0.0656
 1223TIP3    H2 3631   6.075   3.584   1.837 -1.3378 -1.1622 -1.4563
 1224TIP3   OH2 3632   1.930   1.967   5.767  0.1126 -0.0072 -0.1470
 1224TIP3    H1 3633   1.968   2.044   5.808  1.3386 -1.2500  1.1177
 1224TIP3    H2 3634   1.857   1.943   5.824  0.8193 -0.7954  0.4335
 1225TIP3   OH2 3635   5.838   0.420   2.121  0.0915  0.1950 -0.2718
 1225TIP3    H1 3636   5.856   0.455   2.209 -0.3709  1.4137 -0.6585
 1225TIP3    H2 3637   5.915   0.365   2.102  0.9391  1.1727  0.2527
 1226TIP3   OH2 3638   3.317   1.712   4.982  0.1863  0.5166 -0.0665
 1226TIP3    H1 3639   3.377   1.696   5.054 -0.0139 -0.4788 -0.1185
 1226TIP3    H2 3640   3.269   1.630   4.971 -0.7033  1.0779 -0.4731
 1227TIP3   OH2 3641   6.391   4.636   0.664 -0.4978  0.8749 -0.6597
 1227TIP3    H1 3642   6.297   4.624   0.649 -0.8334  1.2778  0.9967
 1227TIP3    H2 3643   6.395   4.695   0.740  1.0851  3.7464 -2.8846
 1228TIP3   OH2 3644   4.484   2.155   5.649 -0.0912 -0.1564  0.2934
 1228TIP3    H1 3645   4.513   2.225   5.590  2.2843 -0.2816  1.2553
 1228TIP3    H2 3646   4.559   2.096   5.655 -1.6020 -2.1033  0.5639
 1229TIP3   OH2 3647   7.543   4.161   0.422  0.5225  0.6698  0.3062
 1229TIP3    H1 3648   7.543   4.093   0.489 -2.6593  0.7245  0.4227
 1229TIP3    H2 3649   7.534   4.114   0.340 -1.1049  0.8883  0.3452
 1230TIP3   OH2 3650   6.464   3.201   2.501  0.2697 -0.6391  0.1209
 1230TIP3    H1 3651   6.513   3.127   2.537 -1.3321 -1.4673  0.6821
 1230TIP3    H2 3652   6.386   3.162   2.461 -0.4770  0.7056  0.1948
 1231TIP3   OH2 3653   2.726   2.476   4.915 -0.2392  0.2952 -0.2758
 1231TIP3    H1 3654   2.741   2.556   4.865  0.6938  0.7848  0.7623
 1231TIP3    H2 3655   2.656   2.498   4.977  0.0316  0.3258  0.0245
 1232TIP3   OH2 3656   6.691   3.716   0.564 -0.1928 -0.6735 -0.3462
 1232TIP3    H1 3657   6.746   3.638   0.568 -0.4144 -0.9364 -2.2208
 1232TIP3    H2 3658   6.602   3.683   0.565 -0.3261 -0.3255  0.8721
 1233TIP3   OH2 3659   3.744   0.248   5.760  0.1674 -0.2381  0.1076
 1233TIP3    H1 3660   3.678   0.192   5.717  0.1938 -0.7758  0.7517
 1233TIP3    H2 3661   3.701   0.275   5.841 -0.4211  1.9270 -0.9052
 1234TIP3   OH2 3662   5.607   3.329   0.022  0.3913  0.0295  0.6357
 1234TIP3    H1 3663   5.689   3.368  -0.009  0.1339  0.5667  0.6191
 1234TIP3    H2 3664   5.582   3.383   0.096  0.3419 -0.4803  0.9902
 1235TIP3   OH2 3665   6.204   4.536   1.090  0.4670  0.5236 -0.0521
 1235TIP3    H1 3666   6.110   4.550   1.102  0.7556  2.1766  0.3361
 1235TIP3    H2 3667   6.241   4.550   1.177  1.1665  0.6966 -0.3785
 1236TIP3   OH2 3668   6.196   4.943   3.008 -1.0122  0.8346 -0.7041
 1236TIP3    H1 3669   6.222   4.931   2.917 -2.2586  0.6586 -1.0559
 1236TIP3    H2 3670   6.101   4.958   3.004 -1.6412 -2.3367  0.8163
 1237TIP3   OH2 3671   0.934   5.437   0.996  0.3238  0.4973 -0.9248
 1237TIP3    H1 3672   0.963   5.508   0.939  0.5865 -0.4134 -1.9403
 1237TIP3    H2 3673   1.014   5.389   1.018  0.0303 -0.0633 -1.0537
 1238TIP3   OH2 3674   1.158   3.747   1.935  0.4031  0.2727  0.1515
 1238TIP3    H1 3675   1.103   3.694   1.877  0.0645  0.9684 -0.1776
 1238TIP3    H2 3676   1.102   3.765   2.011  0.7014 -0.2890  0.5035
 1239TIP3   OH2 3677   6.215   2.445   6.250 -0.0443 -0.3262  0.1125
 1239TIP3    H1 3678   6.264   2.387   6.309  0.0093 -0.6827 -0.2758
 1239TIP3    H2 3679   6.135   2.397   6.231 -0.1299 -0.1440  0.0158
 1240TIP3   OH2 3680   0.972   4.807   1.649 -0.2288 -0.1483  0.1323
 1240TIP3    H1 3681   0.990   4.776   1.560 -0.3420 -1.9544  0.7245
 1240TIP3    H2 3682   0.900   4.752   1.680  0.0967  0.1642  1.4968
 1241TIP3   OH2 3683   7.833   6.116   2.123 -0.4238 -0.1931 -0.6562
 1241TIP3    H1 3684   7.774   6.189   2.142 -2.1030 -1.2026 -1.7797
 1241TIP3    H2 3685   7.788   6.067   2.054  0.9948 -1.8900 -0.4025
 1242TIP3   OH2 3686   1.045   4.559   1.961  0.3771  0.1538 -0.2277
 1242TIP3    H1 3687   1.031   4.504   1.884 -3.2695  0.0467  0.4098
 1242TIP3    H2 3688   1.083   4.640   1.926 -1.3024  0.1452 -2.1787
 1243TIP3   OH2 3689   6.865   4.202   2.730 -0.0599  0.1434 -0.2166
 1243TIP3    H1 3690   6.789   4.203   2.672 -0.7987  0.1651  0.7298
 1243TIP3    H2 3691   6.926   4.140   2.689 -0.9933 -0.6174 -0.4879
 1244TIP3   OH2 3692   5.689   5.340   0.840 -0.0194 -0.4390  0.1615
 1244TIP3    H1 3693   5.620   5.325   0.776  1.2824  0.6565 -1.5667
 1244TIP3    H2 3694   5.712   5.433   0.829  1.4862 -0.7075  0.9325
 1245TIP3   OH2 3695   6.756   6.108   0.797  0.3044  0.0987  0.0839
 1245TIP3    H1 3696   6.807   6.030   0.821  0.8291  1.0580  2.1852
 1245TIP3    H2 3697   6.675   6.073   0.759  0.6523 -1.4831  0.7520
 1246TIP3   OH2 3698   7.371   4.401   0.427  0.2866 -0.4076  0.4293
 1246TIP3    H1 3699   7.429   4.329   0.403  0.3687 -0.2164  0.0635
 1246TIP3    H2 3700   7.411   4.479   0.389  0.7519 -0.0109  1.6958
 1247TIP3   OH2 3701   2.856   7.136   1.140  0.7315  0.7015  0.2421
 1247TIP3    H1 3702   2.827   7.177   1.222 -0.6986 -1.4844  0.9009
 1247TIP3    H2 3703   2.932   7.187   1.113  0.3393  2.3870  2.1539
 1248TIP3   OH2 3704   6.529   2.934   2.114 -0.1392 -0.4404 -0.0112
 1248TIP3    H1 3705   6.529   2.878   2.191  0.0743  0.2848  0.5263
 1248TIP3    H2 3706   6.592   2.895   2.055  0.6362 -0.2879  0.7142
 1249TIP3   OH2 3707   0.762   5.351   1.199  0.0022 -0.3376  0.5794
 1249TIP3    H1 3708   0.806   5.325   1.280  0.4053 -3.0173 -0.4258
 1249TIP3    H2 3709   0.833   5.360   1.135 -0.5056 -0.5157 -0.0183
 1250TIP3   OH2 3710   6.641   4.608   1.703  0.0726  0.4312  0.1852
 1250TIP3    H1 3711   6.730   4.588   1.674 -0.0888  0.9921 -0.6922
 1250TIP3    H2 3712   6.615   4.530   1.752  0.2175 -0.6626 -1.4597
 1251TIP3   OH2 3713   6.538   5.779   1.626  0.0663  0.1247 -0.3908
 1251TIP3    H1 3714   6.543   5.767   1.531  0.0829  2.7428 -0.7528
 1251TIP3    H2 3715   6.477   5.852   1.638  0.0582 -0.1747  1.6199
 1252TIP3   OH2 3716   0.729   6.419   0.912 -0.0843  0.4017 -0.1809
 1252TIP3    H1 3717   0.811   6.460   0.940 -0.3819  1.4039 -0.7295
 1252TIP3    H2 3718   0.707   6.358   0.982  1.3783 -0.2315 -0.2502
 1253TIP3   OH2 3719   5.656   0.487   5.810  0.5874 -0.2941  1.0446
 1253TIP3    H1 3720   5.629   0.553   5.873  0.2339  0.1910  0.3954
 1253TIP3    H2 3721   5.605   0.409   5.833  0.1505  0.0079  1.0889
 1254TIP3   OH2 3722   7.305   4.682   0.514  0.0572 -0.1955 -0.0197
 1254TIP3    H1 3723   7.266   4.765   0.540 -1.8035 -1.2086  0.5004
 1254TIP3    H2 3724   7.341   4.646   0.595  1.2397  0.2719 -0.3195
 1255TIP3   OH2 3725   3.296   2.088   6.154 -0.5661 -0.0656 -0.0475
 1255TIP3    H1 3726   3.260   2.046   6.231  0.6874  0.2903  0.7405
 1255TIP3    H2 3727   3.235   2.160   6.135 -2.7303 -2.1861 -1.4273
 1256TIP3   OH2 3728   0.929   4.866   2.265  0.4387 -0.0214  0.6470
 1256TIP3    H1 3729   0.850   4.842   2.314  0.0787 -2.8739 -1.1795
 1256TIP3    H2 3730   0.896   4.916   2.190  0.2390 -1.8455 -0.5157
 1257TIP3   OH2 3731   6.588   5.258   3.388  0.1469 -0.5885  0.0580
 1257TIP3    H1 3732   6.643   5.327   3.426  0.8620 -0.3842 -1.3131
 1257TIP3    H2 3733   6.650   5.197   3.348 -0.4677 -2.1567  1.4281
 1258TIP3   OH2 3734   6.873   6.171   2.618  0.1797  0.0304 -0.0277
 1258TIP3    H1 3735   6.892   6.143   2.529  3.3995  1.4331  0.1487
 1258TIP3    H2 3736   6.885   6.266   2.617 -0.4474  0.1524  1.7363
 1259TIP3   OH2 3737   1.116   6.726   0.100  0.1134  0.7132  0.0459
 1259TIP3    H1 3738   1.138   6.633   0.091  1.0493  0.9489 -0.2094
 1259TIP3    H2 3739   1.023   6.731   0.078  0.1069 -0.1267 -0.1570
 1260TIP3   OH2 3740   0.960   4.666   1.396 -0.4354 -0.1188 -0.0089
 1260TIP3    H1 3741   0.881   4.713   1.367 -0.8414  0.3420  1.8188
 1260TIP3    H2 3742   0.927   4.587   1.438  0.2023 -1.3248 -1.6954
 1261TIP3   OH2 3743   7.788   4.794   1.344  0.0642  0.2182 -0.4516
 1261TIP3    H1 3744   7.715   4.801   1.405  0.9880 -0.0654  0.7056
 1261TIP3    H2 3745   7.779   4.707   1.306  1.4666 -0.9992  1.8857
 1262TIP3   OH2 3746   0.400   6.027   0.862 -0.0167 -0.2671 -0.5016
 1262TIP3    H1 3747   0.419   5.949   0.915  0.0807  1.3896  1.9990
 1262TIP3    H2 3748   0.482   6.076   0.862 -0.9900  1.4039  0.7318
 1263TIP3   OH2 3749   1.723   5.365   3.925 -0.0396  0.3408 -0.0613
 1263TIP3    H1 3750   1.803   5.387   3.877 -0.6693  4.0427  0.4004
 1263TIP3    H2 3751   1.753   5.347   4.015  0.4342  0.0568 -0.2755
 1264TIP3   OH2 3752   0.005   4.579   1.200  0.0009 -0.4817 -0.4867
 1264TIP3    H1 3753   0.084   4.577   1.147 -0.1023  2.5136 -0.8255
 1264TIP3    H2 3754  -0.066   4.576   1.136 -0.1257  3.3244 -0.6247
 1265TIP3   OH2 3755   1.991   5.954   3.617  0.1945  0.1626  0.0882
 1265TIP3    H1 3756   1.972   5.986   3.529 -0.1174 -1.1031 -0.3225
 1265TIP3    H2 3757   1.928   5.999   3.673  0.9857  1.6550 -0.1951
 1266TIP3   OH2 3758   6.660   5.345   0.653  0.4181 -0.2766 -0.0257
 1266TIP3    H1 3759   6.730   5.386   0.602  0.3732  0.0396  0.1618
 1266TIP3    H2 3760   6.600   5.417   0.672 -0.0011 -0.5627 -0.2588
 1267TIP3   OH2 3761   5.735   1.578   6.229  0.1581 -0.6319 -0.2092
 1267TIP3    H1 3762   5.804   1.612   6.286  0.1300  0.7251 -0.9683
 1267TIP3    H2 3763   5.675   1.652   6.216 -0.4474 -1.2611 -1.0502
 1268TIP3   OH2 3764   0.620   2.680   1.225 -0.2114  0.6706  0.0942
 1268TIP3    H1 3765   0.694   2.736   1.201  0.4819 -0.4958 -0.5000
 1268TIP3    H2 3766   0.660   2.599   1.257 -1.2193  0.3204  0.4907
 1269TIP3   OH2 3767   1.582   4.871   3.635 -0.1726 -0.5598  0.4448
 1269TIP3    H1 3768   1.546   4.912   3.556 -0.3959 -2.0162 -0.2449
 1269TIP3    H2 3769   1.617   4.943   3.686 -1.5733  0.5956 -0.1851
 1270TIP3   OH2 3770   1.001   1.420   4.450 -0.3977  0.1710 -0.2469
 1270TIP3    H1 3771   1.066   1.453   4.513  0.7836  2.4193 -2.5650
 1270TIP3    H2 3772   0.934   1.488   4.446 -1.2253 -0.6353 -0.3497
 1271TIP3   OH2 3773   5.348   3.247   2.206  0.1842  0.6176  0.1414
 1271TIP3    H1 3774   5.314   3.296   2.281 -0.5263  1.5180 -0.7478
 1271TIP3    H2 3775   5.340   3.308   2.132  1.0714 -0.1772 -0.6248
 1272TIP3   OH2 3776   3.340   6.466   1.695  0.0200 -0.1994 -0.3979
 1272TIP3    H1 3777   3.302   6.451   1.608 -0.2487  0.7740 -0.4638
 1272TIP3    H2 3778   3.289   6.540   1.730 -1.6276 -2.2134  1.6440
 1273TIP3   OH2 3779   3.784   0.196   0.838 -0.0273  0.1272  0.4592
 1273TIP3    H1 3780   3.781   0.105   0.869  0.0276 -0.0810 -0.1373
 1273TIP3    H2 3781   3.716   0.240   0.887 -1.9211 -0.8590 -1.2172
 1274TIP3   OH2 3782   0.509   6.322   0.779 -0.0436  0.2616 -0.2554
 1274TIP3    H1 3783   0.580   6.382   0.804 -0.1213 -0.1709  1.0462
 1274TIP3    H2 3784   0.434   6.379   0.764  1.2117  0.9889 -4.2438
 1275TIP3   OH2 3785   2.143   4.486   0.264 -0.1132  0.0544  0.0049
 1275TIP3    H1 3786   2.141   4.406   0.212  1.7709  0.0932 -0.1781
 1275TIP3    H2 3787   2.137   4.456   0.354 -1.9203 -0.1126 -0.1598
 1276TIP3   OH2 3788   0.493   5.032   0.406  0.3741  0.2673  0.1889
 1276TIP3    H1 3789   0.425   5.037   0.339 -0.6379  1.3624  1.2764
 1276TIP3    H2 3790   0.544   4.954   0.382  0.9039  1.4076 -2.6289
 1277TIP3   OH2 3791   2.301   4.310   2.588 -0.1008  0.5245  0.2809
 1277TIP3    H1 3792   2.220   4.261   2.573 -0.4313  1.7269 -2.1285
 1277TIP3    H2 3793   2.278   4.400   2.565  1.7561  0.9767  0.1774
 1278TIP3   OH2 3794   1.488   1.485   5.592  0.0923  0.3030 -0.7891
 1278TIP3    H1 3795   1.528   1.551   5.649 -0.4144  0.2684 -0.3955
 1278TIP3    H2 3796   1.397   1.512   5.584 -0.0140 -0.1048 -0.9865
 1279TIP3   OH2 3797   6.950   5.362   0.489  0.1743 -0.3205 -0.0177
 1279TIP3    H1 3798   7.009   5.391   0.558  0.9305 -0.8446 -0.4453
 1279TIP3    H2 3799   7.006   5.320   0.425 -0.7404 -1.4184 -0.1148
 1280TIP3   OH2 3800   7.221   4.492   2.263  0.0903 -0.3836  0.9844
 1280TIP3    H1 3801   7.140   4.496   2.315 -0.2279  0.8962  0.3920
 1280TIP3    H2 3802   7.205   4.551   2.189  1.3791 -0.5204  0.5953
 1281TIP3   OH2 3803   2.374   4.140   1.005 -0.0617 -0.0892 -0.2418
 1281TIP3    H1 3804   2.315   4.168   1.075  0.2115 -0.9903  0.3486
 1281TIP3    H2 3805   2.316   4.097   0.942 -0.3061  0.7179 -0.5707
 1282TIP3   OH2 3806   0.871   4.445   1.164 -0.0625  0.4355 -0.5086
 1282TIP3    H1 3807   0.886   4.371   1.222  1.3931  2.0029  1.1535
 1282TIP3    H2 3808   0.821   4.507   1.217 -0.1335  1.2053 -1.4628
 1283TIP3   OH2 3809   2.062   5.045   3.294  0.2193 -0.2208 -0.2540
 1283TIP3    H1 3810   2.021   5.101   3.229 -0.5773  0.4592  0.8181
 1283TIP3    H2 3811   1.993   4.986   3.323  1.1428 -1.9925 -1.6173
 1284TIP3   OH2 3812   6.362   1.637   5.751 -0.1216 -0.1171 -0.1130
 1284TIP3    H1 3813   6.342   1.704   5.816 -3.2566 -0.7731 -0.3563
 1284TIP3    H2 3814   6.374   1.557   5.802  1.0443  0.0880 -0.0516
 1285TIP3   OH2 3815   0.693   6.446   2.003 -0.4831 -0.1328  0.4203
 1285TIP3    H1 3816   0.785   6.422   1.999 -0.7851 -1.3970  0.7816
 1285TIP3    H2 3817   0.691   6.539   1.981  0.6670 -0.5531 -1.6008
 1286TIP3   OH2 3818   7.610   3.789   3.269 -0.3156  0.2058 -0.5310
 1286TIP3    H1 3819   7.558   3.775   3.348  0.1440  0.8537 -0.1099
 1286TIP3    H2 3820   7.648   3.876   3.281  0.5857 -0.1225 -0.9975
 1287TIP3   OH2 3821   1.526   5.946   0.845  0.4998  0.2907 -0.4195
 1287TIP3    H1 3822   1.540   5.907   0.758 -0.0427 -1.2444  0.1830
 1287TIP3    H2 3823   1.581   6.025   0.843 -0.3026  0.8482 -2.5352
 1288TIP3   OH2 3824   6.428   0.760   6.138  0.0696 -0.2165  1.1247
 1288TIP3    H1 3825   6.446   0.667   6.127  1.0799  0.2584 -1.5688
 1288TIP3    H2 3826   6.496   0.790   6.198  2.6179 -0.3491 -1.5778
 1289TIP3   OH2 3827   6.304   1.976   5.777  0.2151 -0.2029  0.1333
 1289TIP3    H1 3828   6.224   2.016   5.811  0.0738 -0.8672  0.6017
 1289TIP3    H2 3829   6.275   1.922   5.704  0.0082 -1.6899  1.2904
 1290TIP3   OH2 3830   1.207   6.205   0.228 -0.2349 -0.4465  0.4232
 1290TIP3    H1 3831   1.191   6.188   0.321 -2.1166  1.5465  0.5065
 1290TIP3    H2 3832   1.184   6.124   0.184  0.9194 -1.5010  1.6980
 1291TIP3   OH2 3833   0.858   6.410   0.681  0.1716 -0.1973  0.0623
 1291TIP3    H1 3834   0.948   6.409   0.713  0.3880 -1.8397 -0.5413
 1291TIP3    H2 3835   0.804   6.410   0.761  0.6458  3.3209  0.4750
 1292TIP3   OH2 3836   1.832   5.651   2.034  0.4107  0.1009  0.1454
 1292TIP3    H1 3837   1.809   5.627   2.124 -0.7693  1.4639  0.2284
 1292TIP3    H2 3838   1.878   5.735   2.043 -2.5833  1.8875 -0.7679
 1293TIP3   OH2 3839   1.495   4.589   0.388  0.6430  0.1963  0.1079
 1293TIP3    H1 3840   1.521   4.679   0.371 -0.8118  0.7784  0.9374
 1293TIP3    H2 3841   1.544   4.565   0.467 -0.8784  1.1018  1.3375
 1294TIP3   OH2 3842   1.377   5.936   1.078 -0.2985 -0.9798 -0.2439
 1294TIP3    H1 3843   1.432   5.876   1.127 -0.4581 -0.6497  0.3362
 1294TIP3    H2 3844   1.416   5.937   0.990  0.4309 -0.9900  0.0748
 1295TIP3   OH2 3845   2.842   4.820   1.250 -0.2512 -0.0754  0.5888
 1295TIP3    H1 3846   2.761   4.865   1.225 -0.5018 -0.2738  1.0346
 1295TIP3    H2 3847   2.911   4.885   1.235 -0.7192  0.8057  2.1707
 1296TIP3   OH2 3848   1.160   5.191   2.257 -0.2332 -0.0111  0.5505
 1296TIP3    H1 3849   1.227   5.259   2.245 -0.9813  0.3114 -2.0414
 1296TIP3    H2 3850   1.126   5.207   2.345  0.9606  1.7536  0.7239
 1297TIP3   OH2 3851   0.395   5.504   2.394  0.6529  0.5762  0.1338
 1297TIP3    H1 3852   0.484   5.538   2.402  0.2265  1.9388 -0.5840
 1297TIP3    H2 3853   0.353   5.529   2.476  1.1591 -0.8197  0.8315
 1298TIP3   OH2 3854   0.562   5.493   0.214 -0.3459 -0.5121  0.0225
 1298TIP3    H1 3855   0.627   5.562   0.224 -1.0581  0.2910 -0.7978
 1298TIP3    H2 3856   0.527   5.480   0.302 -1.8621  1.8272 -0.1925
 1299TIP3   OH2 3857   6.324   6.848   5.532  0.7032 -0.3731 -0.2175
 1299TIP3    H1 3858   6.369   6.838   5.616 -0.6877 -2.1449  0.3493
 1299TIP3    H2 3859   6.244   6.896   5.554 -0.5080 -2.3456 -0.1973
 1300TIP3   OH2 3860   7.757   5.177   0.228  0.8132  0.1916  0.3060
 1300TIP3    H1 3861   7.776   5.085   0.207 -1.2462 -0.2920  0.4108
 1300TIP3    H2 3862   7.683   5.199   0.171  0.7680  1.5474  0.8741
 1301TIP3   OH2 3863   4.349   0.152   1.920 -0.1965 -0.0604 -0.9066
 1301TIP3    H1 3864   4.440   0.124   1.926 -1.2770 -3.6013  0.1141
 1301TIP3    H2 3865   4.349   0.243   1.949  2.7527 -0.5149  0.6099
 1302TIP3   OH2 3866   4.411   0.573   1.302  0.3114  0.2289 -0.2041
 1302TIP3    H1 3867   4.444   0.499   1.251  0.9315  1.2131 -1.2327
 1302TIP3    H2 3868   4.336   0.537   1.350  1.0532 -1.2607 -0.1180
 1303TIP3   OH2 3869   2.166   3.542   2.558 -0.2615 -0.3786 -0.2059
 1303TIP3    H1 3870   2.190   3.574   2.471  2.1149 -0.2103  0.4820
 1303TIP3    H2 3871   2.132   3.619   2.603  0.8980  0.1186 -0.1567
 1304TIP3   OH2 3872   1.331   5.404   2.207 -0.1266 -0.0408 -0.6135
 1304TIP3    H1 3873   1.304   5.492   2.181 -0.6341 -0.2681 -0.8607
 1304TIP3    H2 3874   1.342   5.357   2.125 -1.2920 -0.6335 -0.4348
 1305TIP3   OH2 3875   7.378   0.041   6.062 -0.1705  0.0560  0.3234
 1305TIP3    H1 3876   7.363   0.018   6.154  1.5329 -0.6902  0.4291
 1305TIP3    H2 3877   7.386   0.136   6.062 -0.4481  0.0795  0.9096
 1306TIP3   OH2 3878   2.838   4.481   1.375 -0.2302 -0.2379  0.4344
 1306TIP3    H1 3879   2.818   4.526   1.293 -1.6066 -1.0648  0.3065
 1306TIP3    H2 3880   2.893   4.407   1.349 -0.7042 -0.5255  0.2470
 1307TIP3   OH2 3881   7.601   4.994   1.038  0.4008  0.1727 -0.3604
 1307TIP3    H1 3882   7.507   4.979   1.051 -0.0426  0.9009 -2.5416
 1307TIP3    H2 3883   7.606   5.083   1.004  2.0037  0.6257  1.0438
 1308TIP3   OH2 3884   2.505   1.302   0.208  0.0545  0.1312 -0.4081
 1308TIP3    H1 3885   2.536   1.261   0.288 -1.4103 -0.2774 -0.0338
 1308TIP3    H2 3886   2.521   1.396   0.220 -0.2692  0.0800  0.4140
 1309TIP3   OH2 3887   1.348   4.241   1.889 -0.5574 -0.2778  0.2242
 1309TIP3    H1 3888   1.350   4.324   1.842 -0.8550 -1.0904 -1.2323
 1309TIP3    H2 3889   1.329   4.265   1.980  0.8632  1.3730  0.1052
 1310TIP3   OH2 3890   3.157   3.848   0.333  0.1255  0.4059 -0.2757
 1310TIP3    H1 3891   3.127   3.892   0.253  1.1990  2.4600  0.3872
 1310TIP3    H2 3892   3.229   3.903   0.364  0.7183 -1.2066  1.2847
 1311TIP3   OH2 3893   7.541   0.463   5.770  0.3399 -0.0629 -0.7367
 1311TIP3    H1 3894   7.581   0.468   5.857 -0.9593  0.2657 -0.1305
 1311TIP3    H2 3895   7.549   0.371   5.745  0.3505 -0.2469 -0.0735
 1312TIP3   OH2 3896   2.039   6.490   3.117  0.5088  0.0488  0.1916
 1312TIP3    H1 3897   2.117   6.509   3.169 -0.0657  1.0207  0.7124
 1312TIP3    H2 3898   2.025   6.569   3.064 -1.4975  0.8512  1.8660
 1313TIP3   OH2 3899   0.603   4.889   1.604 -0.3324  0.1413  0.7640
 1313TIP3    H1 3900   0.561   4.916   1.523  2.2128 -1.7288 -1.2680
 1313TIP3    H2 3901   0.691   4.927   1.599  0.8480 -2.4533  1.2283
 1314TIP3   OH2 3902   5.599   2.038   6.233 -0.1242  0.4981  0.2440
 1314TIP3    H1 3903   5.570   2.030   6.142  1.2902 -2.3333 -0.0020
 1314TIP3    H2 3904   5.693   2.021   6.231 -0.0333  0.5885  2.2244
 1315TIP3   OH2 3905   6.323   2.095   6.279 -0.1978 -0.6893  0.1464
 1315TIP3    H1 3906   6.348   2.004   6.299 -0.8753 -1.0631 -0.6480
 1315TIP3    H2 3907   6.351   2.106   6.188 -0.6769 -0.2978  0.0507
 1316TIP3   OH2 3908   2.667   3.952   0.314  0.1512  0.4314  0.0588
 1316TIP3    H1 3909   2.725   3.954   0.390 -0.9426  1.9259  0.9061
 1316TIP3    H2 3910   2.676   4.038   0.274  0.6125 -0.3000 -1.4371
 1317TIP3   OH2 3911   0.559   1.191   5.688 -0.0341 -0.3546 -0.5821
 1317TIP3    H1 3912   0.548   1.095   5.691  0.7406 -0.4208  0.4697
 1317TIP3    H2 3913   0.477   1.223   5.650 -1.7980 -1.2089  2.2616
 1318TIP3   OH2 3914   2.069   3.621   3.201 -0.2589  0.7793 -0.5197
 1318TIP3    H1 3915   2.074   3.678   3.125  2.8841 -1.0148 -1.7405
 1318TIP3    H2 3916   2.112   3.670   3.272  0.7441  0.7100 -1.0724
 1319TIP3   OH2 3917   0.948   5.618   1.300  0.5854  0.3679  0.3296
 1319TIP3    H1 3918   0.921   5.528   1.317 -0.4854  0.4891 -0.6437
 1319TIP3    H2 3919   0.952   5.658   1.386 -0.8998 -0.0808  0.6179
 1320TIP3   OH2 3920   0.927   4.116   1.013 -0.6445  0.4598 -0.2668
 1320TIP3    H1 3921   0.884   4.144   1.093 -0.0993 -1.6365  0.8045
 1320TIP3    H2 3922   0.900   4.024   1.002 -0.3358  0.5696 -2.2267
 1321TIP3   OH2 3923   7.378   4.637   1.136  0.3017  0.2167  0.2388
 1321TIP3    H1 3924   7.408   4.595   1.217  1.3193  2.4439  1.0466
 1321TIP3    H2 3925   7.294   4.595   1.117  1.3285 -2.2255  0.9672
 1322TIP3   OH2 3926   1.304   4.450   0.854 -0.1205  0.1038  0.5215
 1322TIP3    H1 3927   1.227   4.465   0.798  0.3348  0.7429  0.0656
 1322TIP3    H2 3928   1.284   4.498   0.935 -0.5786 -0.4445  0.7357
 1323TIP3   OH2 3929   0.759   6.175   1.370  0.1584 -0.2968  0.0585
 1323TIP3    H1 3930   0.772   6.087   1.407 -0.4104 -0.3376  0.1600
 1323TIP3    H2 3931   0.748   6.232   1.446  1.9589  0.0952  0.0356
 1324TIP3   OH2 3932   1.240   4.597   1.599  0.3345 -0.1535 -0.1798
 1324TIP3    H1 3933   1.250   4.692   1.594  0.8582 -0.2164 -0.2930
 1324TIP3    H2 3934   1.230   4.568   1.509  1.4068 -0.3396 -0.2488
 1325TIP3   OH2 3935   7.342   1.705   5.010  0.2430 -0.4126  0.3979
 1325TIP3    H1 3936   7.295   1.633   5.051 -0.8209  0.0795  0.0766
 1325TIP3    H2 3937   7.352   1.678   4.918 -1.2914  0.3822 -0.0217
 1326TIP3   OH2 3938   1.818   4.769   1.001 -0.2438  0.4434 -0.2628
 1326TIP3    H1 3939   1.841   4.830   0.931  3.4625 -0.8236 -0.2542
 1326TIP3    H2 3940   1.857   4.808   1.080 -0.4995 -0.4011  0.2799
 1327TIP3   OH2 3941   2.455   3.784   0.319  0.9638 -0.5965 -0.3093
 1327TIP3    H1 3942   2.544   3.818   0.307  1.6498 -1.3720  2.2558
 1327TIP3    H2 3943   2.406   3.857   0.357  1.2509 -1.0393  0.9249
 1328TIP3   OH2 3944   0.211   4.873   2.974 -0.0305  0.1835 -0.3042
 1328TIP3    H1 3945   0.169   4.959   2.981  1.3769  0.9489 -1.0320
 1328TIP3    H2 3946   0.149   4.819   2.926 -0.3366  1.1998 -1.0555
 1329TIP3   OH2 3947   0.742   5.399   1.617 -0.5943 -0.3821 -0.1935
 1329TIP3    H1 3948   0.705   5.320   1.656 -0.3563 -0.3134  0.1719
 1329TIP3    H2 3949   0.807   5.366   1.554  0.3344 -0.4662  0.7830
 1330TIP3   OH2 3950   6.162   0.292   2.942  0.5683 -0.0545  0.0974
 1330TIP3    H1 3951   6.169   0.359   3.009  0.0987  1.9183 -1.7757
 1330TIP3    H2 3952   6.085   0.240   2.967 -0.4299  1.5113  0.3410
 1331TIP3   OH2 3953   2.654   0.330   4.965 -0.7777  0.1669  0.6166
 1331TIP3    H1 3954   2.724   0.266   4.981 -0.4612  0.5023  0.5841
 1331TIP3    H2 3955   2.578   0.277   4.942 -0.0666 -0.1394 -1.1123
 1332TIP3   OH2 3956   2.620   0.398   0.076 -0.0441  0.1055  0.4853
 1332TIP3    H1 3957   2.530   0.429   0.083 -0.3559 -0.9954  1.3936
 1332TIP3    H2 3958   2.640   0.402  -0.018 -1.9239 -2.1506 -0.0440
 1333TIP3   OH2 3959   5.643   2.634   6.011 -0.2730  0.0778 -0.0729
 1333TIP3    H1 3960   5.641   2.723   6.045  0.4498 -0.0334  0.2692
 1333TIP3    H2 3961   5.661   2.579   6.087 -0.5493 -0.3479 -0.3100
 1334TIP3   OH2 3962   2.180   5.531   1.287 -0.2875 -0.7659 -0.4216
 1334TIP3    H1 3963   2.171   5.472   1.212 -1.0523 -1.1033 -0.0607
 1334TIP3    H2 3964   2.093   5.569   1.299 -0.6109 -2.0127  1.3663
 1335TIP3   OH2 3965   1.035   4.514   0.165  0.2021 -0.6948 -0.2451
 1335TIP3    H1 3966   1.064   4.428   0.134 -0.2469 -0.8942 -0.1180
 1335TIP3    H2 3967   1.115   4.565   0.172  0.4237 -0.9708 -0.7344
 1336TIP3   OH2 3968   1.074   5.031   1.018 -0.7131 -0.2239  0.2834
 1336TIP3    H1 3969   1.007   4.963   1.011 -1.2596  0.5108 -2.0522
 1336TIP3    H2 3970   1.026   5.113   1.004  0.1824  0.5504  1.6411
 1337TIP3   OH2 3971   6.193   4.655   0.184 -0.2725  0.3952 -0.4850
 1337TIP3    H1 3972   6.260   4.627   0.121 -0.1861 -0.4937  0.0074
 1337TIP3    H2 3973   6.209   4.603   0.262 -0.6047  1.2513  0.1596
 1338TIP3   OH2 3974   1.489   5.385   0.837  0.0052  0.0692 -0.6092
 1338TIP3    H1 3975   1.534   5.421   0.761  0.7836 -1.4417 -0.8755
 1338TIP3    H2 3976   1.433   5.457   0.868 -0.3301  0.6985 -2.5960
 1339TIP3   OH2 3977   0.917   2.406   6.238 -0.3867  0.0232  0.5754
 1339TIP3    H1 3978   0.968   2.382   6.160 -0.1483 -2.7826  1.5068
 1339TIP3    H2 3979   0.837   2.446   6.203 -0.6596 -1.9255 -1.1723
 1340TIP3   OH2 3980   0.876   5.054   2.582  0.1263 -0.1388  0.3450
 1340TIP3    H1 3981   0.903   5.017   2.498 -1.3299 -0.4920  0.0111
 1340TIP3    H2 3982   0.891   4.984   2.646  3.4715  0.9083  0.8267
 1341TIP3   OH2 3983   1.626   4.071   0.968  0.4255 -0.2995  0.3549
 1341TIP3    H1 3984   1.568   4.137   0.931 -0.2925  0.5032  2.8375
 1341TIP3    H2 3985   1.713   4.094   0.935 -0.0953  0.7230 -0.3373
 1342TIP3   OH2 3986   1.386   0.634   3.641  0.7256  0.2519 -0.1056
 1342TIP3    H1 3987   1.335   0.563   3.603  0.5730 -0.7723  1.9340
 1342TIP3    H2 3988   1.417   0.684   3.566  1.3315 -2.3111 -1.6163
 1343TIP3   OH2 3989   2.475   4.514   3.687  0.2249  0.0713 -0.8106
 1343TIP3    H1 3990   2.497   4.567   3.610 -1.6200  3.5240  0.8891
 1343TIP3    H2 3991   2.560   4.486   3.722  1.3452  2.5382 -1.4177
 1344TIP3   OH2 3992   6.035   0.719   1.962  0.5759 -0.3564  0.0582
 1344TIP3    H1 3993   6.068   0.753   2.045 -0.0878  0.4064  0.0048
 1344TIP3    H2 3994   6.096   0.753   1.896 -0.5850  1.4831 -0.0995
 1345TIP3   OH2 3995   0.783   3.254   1.415 -0.1970 -0.2081 -0.6609
 1345TIP3    H1 3996   0.861   3.288   1.372  1.1479 -1.5978  0.6135
 1345TIP3    H2 3997   0.761   3.176   1.365 -0.9247  0.3140 -1.1629
 1346TIP3   OH2 3998   7.653   3.950   1.886  0.3375 -0.5151 -0.9003
 1346TIP3    H1 3999   7.639   3.856   1.900  0.6609 -0.2630  1.2376
 1346TIP3    H2 4000   7.667   3.986   1.974 -1.1524  1.7566 -1.5348
 1347TIP3   OH2 4001   5.474   3.095   5.230  0.3000 -0.5976 -0.4472
 1347TIP3    H1 4002   5.440   3.150   5.301  1.6418 -0.5623  0.1807
 1347TIP3    H2 4003   5.405   3.097   5.163  0.2248  1.6230 -0.3240
 1348TIP3   OH2 4004   2.260   6.718   2.490  0.5842 -0.1483 -0.8157
 1348TIP3    H1 4005   2.205   6.667   2.431  1.1400 -0.2259 -1.2694
 1348TIP3    H2 4006   2.286   6.656   2.558 -0.2296 -0.0060 -0.3639
 1349TIP3   OH2 4007   3.277   6.004   1.636 -0.5079 -0.0192  0.2695
 1349TIP3    H1 4008   3.194   5.961   1.659 -0.6780  0.2660  0.1759
 1349TIP3    H2 4009   3.320   5.942   1.577 -0.1694 -0.6605  1.1784
 1350TIP3   OH2 4010   1.526   5.729   2.448  0.4627 -0.5454  0.6410
 1350TIP3    H1 4011   1.616   5.761   2.447  0.2337  0.1188  0.9009
 1350TIP3    H2 4012   1.480   5.787   2.389 -0.1178  0.0776  1.6968
 1351TIP3   OH2 4013   3.115   6.283   2.138 -0.5201  0.4736  0.1217
 1351TIP3    H1 4014   3.110   6.187   2.144 -1.2007  0.5629  1.0024
 1351TIP3    H2 4015   3.069   6.303   2.056  1.0735 -0.0649 -0.9355
 1352TIP3   OH2 4016   0.518   6.453   1.395 -0.4025  0.1487  0.6202
 1352TIP3    H1 4017   0.533   6.472   1.488  1.7315  2.0185 -0.0534
 1352TIP3    H2 4018   0.445   6.509   1.370  0.0591  0.8485  0.8128
 1353TIP3   OH2 4019   1.704   4.849   3.224  0.3107  0.2016 -0.1377
 1353TIP3    H1 4020   1.755   4.768   3.222 -0.6556 -0.3788 -1.5738
 1353TIP3    H2 4021   1.644   4.842   3.150  1.5862  3.1479 -1.5218
 1354TIP3   OH2 4022   1.672   4.213   4.334 -0.3248 -0.5830 -0.1983
 1354TIP3    H1 4023   1.742   4.151   4.309  0.2107  0.3388 -1.0204
 1354TIP3    H2 4024   1.709   4.299   4.316 -2.2466 -0.1315 -2.1048
 1355TIP3   OH2 4025   2.643   5.908   1.565  0.1010  0.0333  0.2773
 1355TIP3    H1 4026   2.675   5.961   1.638 -0.8161  1.9900 -0.7141
 1355TIP3    H2 4027   2.549   5.922   1.564 -0.1785 -1.7734  0.0977
 1356TIP3   OH2 4028   1.868   4.372   0.647 -0.0394 -0.2410  0.2188
 1356TIP3    H1 4029   1.819   4.330   0.576 -1.2151 -0.1457  0.9452
 1356TIP3    H2 4030   1.807   4.436   0.683  1.2856  1.1760 -0.0363
 1357TIP3   OH2 4031   0.833   6.008   0.727 -0.3212  0.2925  0.2106
 1357TIP3    H1 4032   0.847   6.033   0.818  1.4190 -0.7802  0.2549
 1357TIP3    H2 4033   0.904   6.051   0.679  1.6394 -2.9347  0.0432
 1358TIP3   OH2 4034   2.998   4.942   2.255  0.1231  0.2934  0.0751
 1358TIP3    H1 4035   3.027   4.904   2.172 -2.4625 -0.2631 -0.6241
 1358TIP3    H2 4036   2.915   4.898   2.274 -0.3851  1.9358  1.8922
 1359TIP3   OH2 4037   1.337   5.865   2.326 -0.5051 -0.3369  0.5043
 1359TIP3    H1 4038   1.265   5.886   2.386 -1.1012  2.0300 -0.9461
 1359TIP3    H2 4039   1.299   5.802   2.264 -1.4857  1.1344 -0.4432
 1360TIP3   OH2 4040   2.856   6.039   3.486  0.8621 -0.3266 -0.0979
 1360TIP3    H1 4041   2.831   6.099   3.416  1.7008  0.7655  0.5192
 1360TIP3    H2 4042   2.816   5.955   3.462  0.8517  0.1264 -1.6896
 1361TIP3   OH2 4043   1.281   4.154   2.414 -0.7714 -0.3088 -0.2447
 1361TIP3    H1 4044   1.213   4.097   2.380  0.3003 -1.7575 -0.0356
 1361TIP3    H2 4045   1.350   4.153   2.347 -1.1276  1.5153 -0.6756
 1362TIP3   OH2 4046   1.452   5.241   1.933 -0.1065 -0.4476  0.3302
 1362TIP3    H1 4047   1.491   5.323   1.966  1.8656 -1.1129 -0.2547
 1362TIP3    H2 4048   1.438   5.258   1.840  1.4998 -1.1989 -0.0595
 1363TIP3   OH2 4049   1.767   6.085   0.304 -0.0959  0.0213 -0.6993
 1363TIP3    H1 4050   1.740   6.172   0.335  0.2232  0.3941 -1.4450
 1363TIP3    H2 4051   1.685   6.044   0.277 -0.1537  0.4164 -1.1387
 1364TIP3   OH2 4052   6.937   2.442   5.660 -0.3605  0.1179  0.1599
 1364TIP3    H1 4053   6.905   2.490   5.583 -1.1787  0.2788  0.5967
 1364TIP3    H2 4054   6.964   2.357   5.625 -0.2668  0.3685 -0.3881
 1365TIP3   OH2 4055   1.895   4.111   0.828  0.0610  0.2398 -0.9906
 1365TIP3    H1 4056   1.930   4.184   0.778 -0.0875  0.0049 -1.4376
 1365TIP3    H2 4057   1.909   4.034   0.772 -2.3747  0.3080 -1.7458
 1366TIP3   OH2 4058   7.090   5.586   1.471 -0.3014 -0.4149 -0.0190
 1366TIP3    H1 4059   7.092   5.675   1.438  1.4972 -1.0339 -1.6408
 1366TIP3    H2 4060   7.101   5.595   1.566  0.2188  1.0607 -0.2102
 1367TIP3   OH2 4061   0.533   6.035   2.950  0.3482  0.7895  0.2421
 1367TIP3    H1 4062   0.518   6.005   2.860  0.2518 -1.8036  1.0885
 1367TIP3    H2 4063   0.592   5.970   2.988  1.2009  2.3976  1.7793
 1368TIP3   OH2 4064   2.699   1.266   0.826  0.5908  0.1096  0.0582
 1368TIP3    H1 4065   2.618   1.219   0.845  0.2832  0.4678 -0.3376
 1368TIP3    H2 4066   2.721   1.239   0.737  1.4018 -0.6912  0.5019
 1369TIP3   OH2 4067   0.470   5.781   2.096  0.2056  0.1612  0.0868
 1369TIP3    H1 4068   0.410   5.753   2.165  0.3634  0.2222  0.2489
 1369TIP3    H2 4069   0.516   5.701   2.072  1.6595  0.5279  1.5304
 1370TIP3   OH2 4070   6.430   2.201   5.350  0.6979 -0.0763  0.1689
 1370TIP3    H1 4071   6.397   2.240   5.269  0.6228  0.6673  0.5492
 1370TIP3    H2 4072   6.512   2.159   5.325  0.1546 -0.7478 -0.5035
 1371TIP3   OH2 4073   0.573   4.392   2.034 -0.0333 -0.0932  0.6782
 1371TIP3    H1 4074   0.647   4.372   1.977 -0.0382  0.1358  0.5921
 1371TIP3    H2 4075   0.592   4.344   2.115  1.7569  2.3716  1.7933
 1372TIP3   OH2 4076   6.750   6.208   3.202 -0.8194  0.2121 -0.3657
 1372TIP3    H1 4077   6.802   6.132   3.175  0.0886  0.7853 -0.2399
 1372TIP3    H2 4078   6.659   6.177   3.198 -0.3993 -1.2910  0.9719
 1373TIP3   OH2 4079   1.150   3.108   0.350  0.8052  0.0376  0.0649
 1373TIP3    H1 4080   1.209   3.052   0.299 -0.8918  0.6754 -2.7542
 1373TIP3    H2 4081   1.080   3.050   0.379  0.3266  0.1902 -0.7565
 1374TIP3   OH2 4082   5.366   7.007   6.014 -0.0517  0.5598  0.0939
 1374TIP3    H1 4083   5.417   6.960   6.079 -0.5263 -0.7467 -0.4485
 1374TIP3    H2 4084   5.300   7.055   6.064 -1.0716 -1.2620  0.5355
 1375TIP3   OH2 4085   2.230   4.582   0.831  0.3236  0.2459 -0.0844
 1375TIP3    H1 4086   2.312   4.571   0.880  0.8102  0.5551 -0.8184
 1375TIP3    H2 4087   2.162   4.559   0.893  0.9461  0.4849  0.7014
 1376TIP3   OH2 4088   5.703   1.307   6.322  0.4535 -0.5327 -0.4291
 1376TIP3    H1 4089   5.748   1.382   6.283  1.0073 -0.4556  0.3506
 1376TIP3    H2 4090   5.654   1.344   6.396 -1.4169 -0.5113 -1.6431
 1377TIP3   OH2 4091   6.316   1.419   5.939  0.6329  0.5429 -0.4915
 1377TIP3    H1 4092   6.285   1.329   5.943 -0.6982  0.9885 -0.3914
 1377TIP3    H2 4093   6.396   1.420   5.993 -0.9061  0.0365  1.8729
 1378TIP3   OH2 4094   4.027   3.339   0.216  0.0956 -0.1828 -0.4953
 1378TIP3    H1 4095   4.073   3.302   0.292  0.0380 -1.8046 -1.2466
 1378TIP3    H2 4096   4.090   3.400   0.178  0.2713  0.3491  0.6195
 1379TIP3   OH2 4097   1.714   3.792   0.755  0.6970  0.3380  0.1131
 1379TIP3    H1 4098   1.808   3.810   0.752  0.7307  0.1028 -0.1869
 1379TIP3    H2 4099   1.674   3.858   0.698  0.5100  1.5747  1.6341
 1380TIP3   OH2 4100   3.175   2.202   2.964 -0.3641 -0.8486  0.0286
 1380TIP3    H1 4101   3.154   2.113   2.991  1.1277 -0.6052  2.0760
 1380TIP3    H2 4102   3.253   2.194   2.911 -0.4662 -0.8071 -0.1280
 1381TIP3   OH2 4103   1.005   3.456   0.663  0.3702  0.2878 -0.4742
 1381TIP3    H1 4104   1.075   3.422   0.719  0.8680  0.1343 -1.1740
 1381TIP3    H2 4105   1.050   3.517   0.603  0.2683 -1.3603 -2.2827
 1382TIP3   OH2 4106   4.503   5.166   0.224 -0.0671 -0.2293 -0.3674
 1382TIP3    H1 4107   4.452   5.196   0.149 -1.1150 -2.2818 -0.5248
 1382TIP3    H2 4108   4.540   5.082   0.195 -1.2505 -1.5028  1.7098
 1383TIP3   OH2 4109   3.266   5.642   1.191 -0.3126 -0.4279 -0.1919
 1383TIP3    H1 4110   3.264   5.548   1.204 -1.4122 -0.5504 -1.1464
 1383TIP3    H2 4111   3.316   5.654   1.110  0.8157 -0.1102  0.5421
 1384TIP3   OH2 4112   1.397   5.195   1.666  0.2319  0.6829 -0.3309
 1384TIP3    H1 4113   1.311   5.184   1.626 -0.4283 -0.3261  1.3082
 1384TIP3    H2 4114   1.452   5.129   1.624  0.2348  1.3396 -1.3920
 1385TIP3   OH2 4115   0.250   6.262   2.189  0.1769 -0.6571 -0.5994
 1385TIP3    H1 4116   0.191   6.205   2.140  0.7199 -2.8630  1.2052
 1385TIP3    H2 4117   0.337   6.227   2.170  0.7368  1.1693 -1.4584
 1386TIP3   OH2 4118   2.591   4.739   2.917 -0.4283  0.3555 -0.0169
 1386TIP3    H1 4119   2.637   4.687   2.982  0.3872 -0.7384 -1.4279
 1386TIP3    H2 4120   2.643   4.730   2.837 -0.9611  2.3265 -0.6250
 1387TIP3   OH2 4121   6.639   0.343   5.589 -0.2904 -0.0459  0.1842
 1387TIP3    H1 4122   6.639   0.248   5.602 -0.2602 -0.0388  0.2363
 1387TIP3    H2 4123   6.571   0.375   5.648 -2.6123 -0.3561 -2.1932
 1388TIP3   OH2 4124   1.738   2.030   0.588  0.3343 -0.2700 -0.1524
 1388TIP3    H1 4125   1.701   2.109   0.626  0.9244 -0.4132  0.7390
 1388TIP3    H2 4126   1.679   2.008   0.515  0.0634  0.8675 -0.2830
 1389TIP3   OH2 4127   2.438   2.425   1.838  1.0002  0.0932  0.3413
 1389TIP3    H1 4128   2.453   2.331   1.852  1.0966  0.1954  0.9103
 1389TIP3    H2 4129   2.438   2.434   1.743  1.9042 -0.3399  0.2905
 1390TIP3   OH2 4130   2.831   3.538   2.709 -0.0987  0.4013  0.4259
 1390TIP3    H1 4131   2.883   3.613   2.680  0.6162 -0.2841 -0.0527
 1390TIP3    H2 4132   2.769   3.576   2.772 -0.8391  1.6727 -1.0413
 1391TIP3   OH2 4133   7.057   7.146   4.712  0.5443 -0.1583 -0.3378
 1391TIP3    H1 4134   7.128   7.172   4.653  0.5621 -0.2344 -0.3498
 1391TIP3    H2 4135   7.004   7.086   4.660  0.0701  0.4538 -0.5700
 1392TIP3   OH2 4136   5.401   0.936   5.861 -0.5674 -0.0366  0.1470
 1392TIP3    H1 4137   5.365   0.860   5.816 -0.5844  0.5486 -0.8471
 1392TIP3    H2 4138   5.324   0.983   5.893 -0.7239  1.2015 -1.9583
 1393TIP3   OH2 4139   0.871   4.856   1.029 -0.3349  0.0314 -0.2796
 1393TIP3    H1 4140   0.834   4.883   1.113 -1.5428  0.7045 -1.0104
 1393TIP3    H2 4141   0.837   4.768   1.015  0.7234 -0.4944  0.4307
 1394TIP3   OH2 4142   1.881   6.515   0.598  0.1426  0.1291 -0.1543
 1394TIP3    H1 4143   1.874   6.539   0.691  1.8643  0.1057 -0.0043
 1394TIP3    H2 4144   1.975   6.520   0.579 -0.1963  0.1484 -1.9059
 1395TIP3   OH2 4145   2.031   1.365   1.438  0.1300  0.4747  0.0891
 1395TIP3    H1 4146   1.974   1.440   1.423 -0.2516  0.4793  1.5418
 1395TIP3    H2 4147   1.974   1.289   1.427  0.4766  0.3865 -1.2024
 1396TIP3   OH2 4148   5.732   0.108   2.294 -0.0468  0.3714  0.0739
 1396TIP3    H1 4149   5.793   0.155   2.351 -1.3008  0.8808  1.0273
 1396TIP3    H2 4150   5.670   0.067   2.354 -0.5403 -0.2882 -0.8766
 1397TIP3   OH2 4151   0.758   3.935   1.415 -0.0270  0.1518  0.0050
 1397TIP3    H1 4152   0.815   3.863   1.388  0.2388  0.8284 -1.3154
 1397TIP3    H2 4153   0.670   3.907   1.393 -0.2877 -1.0891  2.4727
 1398TIP3   OH2 4154   2.886   6.928   0.240 -0.0037 -0.6701  0.0005
 1398TIP3    H1 4155   2.823   6.867   0.201 -0.4555 -0.2004 -0.0084
 1398TIP3    H2 4156   2.865   7.013   0.200 -0.0296 -0.3161  0.7597
 1399TIP3   OH2 4157   2.008   3.102   0.449  0.2477  0.6932  0.5038
 1399TIP3    H1 4158   2.070   3.092   0.522  0.2774 -0.3175  0.3437
 1399TIP3    H2 4159   1.991   3.013   0.419 -0.5347  1.0316 -0.0913
 1400TIP3   OH2 4160   4.800   5.605   2.088 -0.0416  0.1471 -0.5153
 1400TIP3    H1 4161   4.865   5.537   2.105  0.2997  0.4405 -0.6432
 1400TIP3    H2 4162   4.830   5.680   2.139  0.0323  0.4688 -1.0287
 1401TIP3   OH2 4163   5.677   6.265   2.949  0.2303 -0.3846  0.4768
 1401TIP3    H1 4164   5.692   6.343   3.003  0.7190 -0.3826  0.3370
 1401TIP3    H2 4165   5.590   6.279   2.912  0.8816  0.7764 -0.6788
 1402TIP3   OH2 4166   0.081   4.209   1.499 -0.1504  0.1195  0.4680
 1402TIP3    H1 4167   0.131   4.145   1.551  1.5358  0.8578 -0.2069
 1402TIP3    H2 4168   0.122   4.206   1.413  0.4627  2.6846  0.6535
 1403TIP3   OH2 4169   0.884   1.037   5.120  0.4376 -0.2716 -0.0900
 1403TIP3    H1 4170   0.942   1.009   5.191 -1.8749 -0.0085  1.9812
 1403TIP3    H2 4171   0.914   0.989   5.044  2.7115 -0.9127  1.1625
 1404TIP3   OH2 4172   6.565   2.068   5.743 -0.3526  0.7371 -0.6945
 1404TIP3    H1 4173   6.609   2.033   5.821 -0.3763  2.8849  0.3236
 1404TIP3    H2 4174   6.476   2.031   5.747  0.3471 -1.0160 -0.9887
 1405TIP3   OH2 4175   1.661   4.347   1.342 -0.3753  0.3266  0.3743
 1405TIP3    H1 4176   1.629   4.336   1.432  0.0467  0.7762  0.5866
 1405TIP3    H2 4177   1.613   4.282   1.291 -0.1734 -0.3481  1.0351
 1406TIP3   OH2 4178   0.772   5.139   0.326  0.5759 -0.3288  0.0830
 1406TIP3    H1 4179   0.696   5.125   0.382 -0.9040  1.5439 -1.3553
 1406TIP3    H2 4180   0.798   5.051   0.297 -1.2863 -0.9678  0.3058
 1407TIP3   OH2 4181   1.490   4.345   3.592  0.1107 -0.1208 -0.4454
 1407TIP3    H1 4182   1.543   4.423   3.608 -0.0815  0.2709 -1.6833
 1407TIP3    H2 4183   1.424   4.347   3.661  1.6467 -0.5745  1.0661
 1408TIP3   OH2 4184   1.878   5.324   0.832 -0.4505  0.5425 -0.5376
 1408TIP3    H1 4185   1.806   5.301   0.891  0.5967 -0.9448  0.1865
 1408TIP3    H2 4186   1.840   5.387   0.771 -2.3936 -0.3311 -0.2434
 1409TIP3   OH2 4187   1.593   4.978   1.837  0.4096 -0.7759 -0.6808
 1409TIP3    H1 4188   1.498   4.975   1.840  0.3213  1.7249  0.9248
 1409TIP3    H2 4189   1.616   5.055   1.890  3.1656  0.5514 -3.6390
 1410TIP3   OH2 4190   1.672   7.252   1.844 -0.1312  0.1348 -0.4655
 1410TIP3    H1 4191   1.682   7.336   1.889 -2.5201  0.3207 -0.1947
 1410TIP3    H2 4192   1.706   7.188   1.906  1.1221  0.8453 -0.4123
 1411TIP3   OH2 4193   7.404   1.890   5.357 -0.4177 -0.5707  0.1399
 1411TIP3    H1 4194   7.432   1.835   5.283  2.5269  0.1215  0.6689
 1411TIP3    H2 4195   7.411   1.980   5.323 -1.8793 -0.3746  0.3547
 1412TIP3   OH2 4196   0.771   4.630   1.668  0.3638 -0.4235 -0.4567
 1412TIP3    H1 4197   0.766   4.547   1.619 -1.0033 -1.1706  0.8927
 1412TIP3    H2 4198   0.688   4.673   1.649 -0.4786 -1.0373  1.7223
 1413TIP3   OH2 4199   2.677   6.583   0.831 -0.2834 -0.2137 -0.3937
 1413TIP3    H1 4200   2.621   6.619   0.763 -0.0403 -1.9904 -1.5623
 1413TIP3    H2 4201   2.618   6.531   0.886 -0.2278  0.0760 -0.0529
 1414TIP3   OH2 4202   1.873   0.720   5.101  0.4412 -0.1172  0.2814
 1414TIP3    H1 4203   1.827   0.789   5.053  1.5350  1.0902  0.9566
 1414TIP3    H2 4204   1.817   0.643   5.090 -1.3985  1.1545  0.5084
 1415TIP3   OH2 4205   6.414   2.991   6.175 -0.0794  0.2729 -0.7782
 1415TIP3    H1 4206   6.489   2.964   6.228 -0.6212 -0.1074 -0.1882
 1415TIP3    H2 4207   6.442   2.978   6.085  0.4324 -0.2168 -0.5505
 1416TIP3   OH2 4208   6.860   1.765   6.233  0.2691  0.1866  0.0885
 1416TIP3    H1 4209   6.937   1.818   6.210  0.5391 -0.0933  0.3278
 1416TIP3    H2 4210   6.885   1.722   6.315 -0.4822  0.7741  0.6378
 1417TIP3   OH2 4211   4.884   5.226   0.474 -0.4492 -0.1811 -0.3054
 1417TIP3    H1 4212   4.879   5.186   0.560 -0.7013  2.1213  0.7848
 1417TIP3    H2 4213   4.943   5.169   0.425  0.3234 -1.0903  1.6295
 1418TIP3   OH2 4214   6.024   0.131   1.903  0.1227 -0.1859  0.0493
 1418TIP3    H1 4215   6.049   0.197   1.837 -0.2589  0.7791  0.8646
 1418TIP3    H2 4216   6.009   0.051   1.852 -0.8560  0.7294 -1.1405
 1419TIP3   OH2 4217   0.899   1.522   4.994 -0.1761 -0.1268 -0.2031
 1419TIP3    H1 4218   0.990   1.502   4.974  0.4365  1.5229  0.7705
 1419TIP3    H2 4219   0.878   1.467   5.069  0.6983  0.9765  0.8810
 1420TIP3   OH2 4220   0.139   1.018   5.436 -0.0744 -0.5341 -0.5645
 1420TIP3    H1 4221   0.098   0.950   5.382 -0.8129 -0.0563 -0.6115
 1420TIP3    H2 4222   0.192   1.068   5.375  0.0362 -0.7332 -0.6317
 1421TIP3   OH2 4223   0.580   2.163   5.619 -0.2371 -0.0841 -0.0618
 1421TIP3    H1 4224   0.563   2.256   5.629  0.3171 -0.0748  0.8290
 1421TIP3    H2 4225   0.669   2.158   5.584 -0.2888 -0.2779 -0.1674
 1422TIP3   OH2 4226   1.233   2.568   4.760  0.3986 -0.3218 -0.8464
 1422TIP3    H1 4227   1.192   2.505   4.701  0.7946 -1.2981 -0.1024
 1422TIP3    H2 4228   1.319   2.584   4.722 -0.0047  0.3746 -1.4616
 1423TIP3   OH2 4229   1.021   0.167   5.213  0.6458 -0.0644 -0.1191
 1423TIP3    H1 4230   1.113   0.155   5.237  0.8857 -0.9064 -1.4009
 1423TIP3    H2 4231   1.019   0.253   5.170  0.8115  0.0120  0.0256
 1424TIP3   OH2 4232   5.091   5.076   1.064 -0.1382 -0.0600 -0.0112
 1424TIP3    H1 4233   5.069   4.991   1.103 -0.4189 -0.0014 -0.0447
 1424TIP3    H2 4234   5.182   5.065   1.035 -0.5545 -0.7337 -1.0741
 1425TIP3   OH2 4235   1.917   1.449   6.161  0.0580  0.2025 -0.1860
 1425TIP3    H1 4236   1.847   1.437   6.226  1.5711  0.5198  1.5222
 1425TIP3    H2 4237   1.976   1.375   6.176  1.7837  1.7229  0.5701
 1426TIP3   OH2 4238   0.274   1.618   4.679 -0.1201  0.2724  0.4152
 1426TIP3    H1 4239   0.335   1.675   4.727  1.9167 -0.1229 -1.6058
 1426TIP3    H2 4240   0.193   1.668   4.675  0.5105  1.4615  1.8731
 1427TIP3   OH2 4241   2.823   4.765   0.040  0.2010 -0.5352  0.1795
 1427TIP3    H1 4242   2.876   4.820   0.097  1.8386 -0.3987 -1.4026
 1427TIP3    H2 4243   2.876   4.687   0.025 -0.4636 -0.8506 -0.6305
 1428TIP3   OH2 4244   3.682   7.170   4.275 -0.0432  0.3912  0.0154
 1428TIP3    H1 4245   3.700   7.262   4.294 -1.0736  0.7168 -0.5468
 1428TIP3    H2 4246   3.767   7.127   4.283  0.6175  1.5483 -0.6389
 1429TIP3   OH2 4247   1.648   0.703   6.210 -0.7784 -0.3581 -0.0583
 1429TIP3    H1 4248   1.601   0.633   6.164 -0.7261  0.0509 -0.7499
 1429TIP3    H2 4249   1.684   0.661   6.288  0.2578 -1.3919 -1.0662
 1430TIP3   OH2 4250   4.057   4.237   0.961 -0.3268 -0.5150  0.0889
 1430TIP3    H1 4251   4.012   4.299   1.018  0.9178  0.4456  0.0357
 1430TIP3    H2 4252   4.056   4.154   1.009 -1.7684 -0.4007  0.2685
 1431TIP3   OH2 4253   1.947   5.628   1.020 -0.4990 -0.1827  0.0964
 1431TIP3    H1 4254   1.983   5.615   1.107  0.8908 -0.6664 -0.5354
 1431TIP3    H2 4255   1.854   5.645   1.034 -0.0785  0.7879  1.7345
 1432TIP3   OH2 4256   5.936   5.522   5.959  0.3222  0.5823 -0.2376
 1432TIP3    H1 4257   6.002   5.583   5.990  1.7589 -1.0765  0.0984
 1432TIP3    H2 4258   5.874   5.514   6.032  0.6040  0.9876  0.0458
 1433TIP3   OH2 4259   2.422   5.553   0.537 -0.5483  0.0666 -0.6915
 1433TIP3    H1 4260   2.511   5.568   0.569 -1.9137  1.6831  2.6089
 1433TIP3    H2 4261   2.397   5.469   0.574 -0.3934 -0.4273 -1.6887
 1434TIP3   OH2 4262   1.013   0.866   4.336  0.3093 -0.0897  0.0466
 1434TIP3    H1 4263   1.061   0.834   4.260  2.6839  0.0937  1.4202
 1434TIP3    H2 4264   1.056   0.949   4.359  0.2415 -0.6053  2.1574
 1435TIP3   OH2 4265   5.526   5.587   1.835  0.3938  0.0254  0.0621
 1435TIP3    H1 4266   5.529   5.639   1.915  2.4927  0.5890 -0.3398
 1435TIP3    H2 4267   5.617   5.583   1.806  0.0739 -2.6595 -0.7074
 1436TIP3   OH2 4268   2.145   3.823   0.545  0.0182 -0.1458 -0.2704
 1436TIP3    H1 4269   2.175   3.743   0.502 -0.0339  0.3730 -1.2916
 1436TIP3    H2 4270   2.202   3.892   0.509  0.5319  0.1797  1.1216
 1437TIP3   OH2 4271   6.043   1.567   6.023 -0.2644  0.8030  0.3337
 1437TIP3    H1 4272   6.052   1.549   6.117  0.6117  0.2799  0.1554
 1437TIP3    H2 4273   6.130   1.551   5.987 -1.0821 -1.0654 -0.9108
 1438TIP3   OH2 4274   3.390   6.802   2.045  0.3597 -0.5738 -0.1604
 1438TIP3    H1 4275   3.479   6.786   2.016  0.4442  1.3943 -1.0472
 1438TIP3    H2 4276   3.389   6.894   2.070 -1.4967 -0.4896 -0.4803
 1439TIP3   OH2 4277   7.694   1.160   6.076 -0.2656  0.1313 -0.4929
 1439TIP3    H1 4278   7.710   1.069   6.052  2.0437 -0.0862  1.7651
 1439TIP3    H2 4279   7.602   1.161   6.104  0.3051 -2.0217  1.6425
 1440TIP3   OH2 4280   1.561   3.257   0.445  0.3838  0.0839  0.2451
 1440TIP3    H1 4281   1.469   3.232   0.456  0.3953  0.2375  0.7185
 1440TIP3    H2 4282   1.583   3.302   0.527  0.6578  0.7258 -0.1791
 1441TIP3   OH2 4283   7.468   7.208   5.393  0.0482  0.2214  0.6126
 1441TIP3    H1 4284   7.441   7.164   5.313 -0.2087  1.8451 -0.2146
 1441TIP3    H2 4285   7.556   7.173   5.410  0.1536 -0.0613 -0.4392
 1442TIP3   OH2 4286   7.389   1.181   6.148 -0.0210 -0.6279  0.1552
 1442TIP3    H1 4287   7.331   1.216   6.216  0.6203  0.7710 -0.0044
 1442TIP3    H2 4288   7.329   1.147   6.082 -0.6972  1.1622 -0.1903
 1443TIP3   OH2 4289   1.645   0.558   5.130 -0.5132  0.0785  0.3566
 1443TIP3    H1 4290   1.575   0.497   5.107 -0.0897 -0.4059  0.3497
 1443TIP3    H2 4291   1.600   0.633   5.169 -1.1567  0.3960 -0.9741
 1444TIP3   OH2 4292   3.901   6.861   1.970  0.3000  0.0293  0.4819
 1444TIP3    H1 4293   3.936   6.886   2.056  1.0398 -0.8174  0.4432
 1444TIP3    H2 4294   3.810   6.838   1.987  0.5773 -0.5990  1.1355
 1445TIP3   OH2 4295   5.429   7.152   2.799  0.4896  0.3940  0.5080
 1445TIP3    H1 4296   5.460   7.134   2.888  0.3742  0.3343  0.5359
 1445TIP3    H2 4297   5.471   7.235   2.776 -0.7815  1.2792  1.2526
 1446TIP3   OH2 4298   3.076   5.517   1.491  0.3249 -0.3140  0.0625
 1446TIP3    H1 4299   3.067   5.609   1.466  1.6300 -0.7593 -2.1654
 1446TIP3    H2 4300   3.023   5.470   1.426  1.6101 -1.3102 -0.2769
 1447TIP3   OH2 4301   3.898   6.521   1.158 -0.2377  0.2091  0.5034
 1447TIP3    H1 4302   3.859   6.608   1.167  0.0241  0.3606  0.1667
 1447TIP3    H2 4303   3.884   6.497   1.066 -0.9614 -0.4144  0.7707
 1448TIP3   OH2 4304   2.416   4.194   3.312  0.4290 -0.2876  0.6028
 1448TIP3    H1 4305   2.376   4.244   3.383 -1.3291  0.0989 -0.6493
 1448TIP3    H2 4306   2.377   4.229   3.232  3.8358  0.6603 -0.7389
 1449TIP3   OH2 4307   2.319   5.325   0.969  0.3759 -0.6607 -0.4741
 1449TIP3    H1 4308   2.336   5.413   0.934 -1.2456  0.5189  1.5767
 1449TIP3    H2 4309   2.261   5.285   0.904  0.3880  0.1118 -0.9758
 1450TIP3   OH2 4310   7.661   6.274   5.625  0.2135  0.1101  0.2440
 1450TIP3    H1 4311   7.607   6.303   5.552  0.0219 -0.1763  0.2709
 1450TIP3    H2 4312   7.641   6.181   5.634  0.4252  0.0892  0.4994
 1451TIP3   OH2 4313   2.616   4.818   0.583  0.2864 -0.2931 -0.5169
 1451TIP3    H1 4314   2.522   4.806   0.594  0.0487  1.0651 -0.9490
 1451TIP3    H2 4315   2.654   4.793   0.667 -0.5455  0.0502 -0.0338
 1452TIP3   OH2 4316   0.150   0.908   5.996  0.0233  0.7634 -0.3645
 1452TIP3    H1 4317   0.174   0.925   5.904  0.4098  0.7644 -0.2638
 1452TIP3    H2 4318   0.223   0.943   6.046  0.4628 -0.5042 -0.1187
 1453TIP3   OH2 4319   2.542   5.069   0.779 -0.0091 -0.1417  0.6078
 1453TIP3    H1 4320   2.636   5.054   0.776 -0.0405 -0.1417 -1.1354
 1453TIP3    H2 4321   2.509   5.005   0.842  0.9398 -1.3854 -0.1406
 1454TIP3   OH2 4322   4.259   4.001   1.851 -0.0755  0.2379  0.8117
 1454TIP3    H1 4323   4.283   4.016   1.760 -0.7145 -0.4557  0.5241
 1454TIP3    H2 4324   4.252   3.905   1.859  1.2526  0.2030  1.9166
 1455TIP3   OH2 4325   4.854   6.513   5.410  0.4755  0.2244 -0.3815
 1455TIP3    H1 4326   4.937   6.537   5.451 -0.2732  2.5790 -0.1563
 1455TIP3    H2 4327   4.878   6.458   5.336  2.2115  0.5777 -0.0965
 1456TIP3   OH2 4328   3.333   3.353   0.120 -0.4433  0.4113  0.3158
 1456TIP3    H1 4329   3.420   3.359   0.160 -0.0772 -0.0519 -0.4076
 1456TIP3    H2 4330   3.286   3.429   0.154  0.3988  0.9241  0.3472
 1457TIP3   OH2 4331   1.171   0.905   6.050  0.3975  0.2985  1.1126
 1457TIP3    H1 4332   1.191   0.863   5.967 -1.0630 -0.8969  1.3426
 1457TIP3    H2 4333   1.115   0.979   6.027 -0.9129 -0.6751  1.1056
 1458TIP3   OH2 4334   3.549   3.786   0.266  0.3064  0.5231  0.6481
 1458TIP3    H1 4335   3.637   3.808   0.236  0.0994  0.6294  0.0994
 1458TIP3    H2 4336   3.501   3.765   0.185  0.0041 -0.1481  0.9968
 1459TIP3   OH2 4337   3.415   5.005   0.119 -0.5293 -0.2311  0.5924
 1459TIP3    H1 4338   3.384   5.092   0.144  0.6660  0.2854  0.2864
 1459TIP3    H2 4339   3.415   4.955   0.201 -4.1044 -0.8659  0.2915
 1460TIP3   OH2 4340   3.154   5.719   0.227  0.2979  0.3830  0.0240
 1460TIP3    H1 4341   3.099   5.745   0.153 -1.9829 -1.1793  1.1296
 1460TIP3    H2 4342   3.143   5.624   0.232  0.3962  0.4798  2.4155
 1461TIP3   OH2 4343   3.476   4.076   2.281  0.4751  0.0254  0.5413
 1461TIP3    H1 4344   3.487   3.991   2.325  1.1796  1.2092  2.7240
 1461TIP3    H2 4345   3.501   4.059   2.190 -1.3198 -2.5563  0.4805
 1462TIP3   OH2 4346   1.009   3.325   5.355 -0.1688 -0.0040 -0.5357
 1462TIP3    H1 4347   1.033   3.368   5.273 -1.4047  0.0603 -0.8760
 1462TIP3    H2 4348   0.931   3.275   5.333  0.1571 -0.8897  0.3322
 1463TIP3   OH2 4349   1.362   5.846   0.620  0.0729 -0.0911 -0.7314
 1463TIP3    H1 4350   1.456   5.862   0.616 -0.2390  1.4034 -2.9448
 1463TIP3    H2 4351   1.328   5.885   0.540 -2.4344 -0.6720  0.0189
 1464TIP3   OH2 4352   3.680   5.986   1.035 -0.6946  0.3337 -0.3714
 1464TIP3    H1 4353   3.651   5.977   0.944 -1.0428 -1.0685 -0.1316
 1464TIP3    H2 4354   3.776   5.982   1.030 -0.7521 -2.3306 -0.4611
 1465TIP3   OH2 4355   3.274   3.533   2.486  0.3462 -0.4195  0.1609
 1465TIP3    H1 4356   3.352   3.545   2.540  0.7760 -0.2398 -0.4869
 1465TIP3    H2 4357   3.240   3.447   2.510  0.6445 -0.4184  0.5763
 1466TIP3   OH2 4358   2.090   1.798   5.921 -0.1628 -0.2423 -0.4663
 1466TIP3    H1 4359   2.127   1.866   5.978 -0.1316 -0.2603 -0.4646
 1466TIP3    H2 4360   2.071   1.844   5.839 -0.7059 -0.0986 -0.2608
 1467TIP3   OH2 4361   4.866   2.265   5.853  0.8028  0.5200  0.2975
 1467TIP3    H1 4362   4.906   2.193   5.804  0.0388  1.0822 -1.1705
 1467TIP3    H2 4363   4.918   2.270   5.933  1.0867 -1.4279  0.2672
 1468TIP3   OH2 4364   2.787   2.395   5.563  0.0045  0.2886  0.5577
 1468TIP3    H1 4365   2.819   2.314   5.522  1.9478  1.5877 -0.6183
 1468TIP3    H2 4366   2.735   2.366   5.637 -0.4248 -2.0673 -0.6268
 1469TIP3   OH2 4367   3.073   4.733   0.831  0.1280  0.1062  0.3533
 1469TIP3    H1 4368   3.055   4.644   0.858 -0.4242 -0.4529 -1.7412
 1469TIP3    H2 4369   3.168   4.742   0.838  0.2227 -0.7669  0.2250
 1470TIP3   OH2 4370   3.553   4.592   1.359  0.0093  0.0212  0.5565
 1470TIP3    H1 4371   3.596   4.677   1.363 -0.5169  0.4535 -1.8514
 1470TIP3    H2 4372   3.459   4.612   1.358 -0.1723 -0.6985  1.7459
 1471TIP3   OH2 4373   1.681   4.858   1.363 -0.2169 -0.6773  0.0511
 1471TIP3    H1 4374   1.668   4.772   1.324  1.0720 -0.6708 -0.4097
 1471TIP3    H2 4375   1.767   4.886   1.332 -0.7788  0.9335 -0.0956
 1472TIP3   OH2 4376   1.327   5.470   1.676 -0.0770 -0.1421 -0.2088
 1472TIP3    H1 4377   1.393   5.418   1.629  0.4758  0.9932 -0.7154
 1472TIP3    H2 4378   1.248   5.461   1.624 -0.1798 -1.0653  0.1003
 1473TIP3   OH2 4379   0.523   0.499   5.889 -0.0355  0.0567 -0.4323
 1473TIP3    H1 4380   0.465   0.425   5.870 -0.6025 -0.1523  1.9459
 1473TIP3    H2 4381   0.611   0.463   5.881 -0.2557 -0.2955 -1.4223
 1474TIP3   OH2 4382   6.168   1.057   2.619 -0.0420  0.0101 -0.8468
 1474TIP3    H1 4383   6.126   1.137   2.651 -0.0389  0.8389 -2.8509
 1474TIP3    H2 4384   6.245   1.088   2.572  0.7575 -1.2745 -0.3985
 1475TIP3   OH2 4385   4.293   6.092   0.563  0.5466  0.0305 -0.6744
 1475TIP3    H1 4386   4.294   6.157   0.633  0.9876  1.2830 -1.8342
 1475TIP3    H2 4387   4.204   6.056   0.566  1.1707 -1.4856  1.8956
 1476TIP3   OH2 4388   2.387   6.514   1.219 -0.2355 -0.2797 -0.1705
 1476TIP3    H1 4389   2.458   6.484   1.163 -0.7766 -1.2052 -0.3776
 1476TIP3    H2 4390   2.411   6.483   1.307 -0.1235 -0.1393 -0.1521
 1477TIP3   OH2 4391   3.200   5.440   0.260  0.4353  0.2133 -0.6318
 1477TIP3    H1 4392   3.115   5.413   0.296  0.3242 -0.2365 -1.2301
 1477TIP3    H2 4393   3.220   5.375   0.193  1.3510  0.2057 -0.3594
 1478TIP3   OH2 4394   1.032   5.680   2.297 -0.1523 -0.6781  0.6935
 1478TIP3    H1 4395   0.944   5.672   2.261 -0.7041 -1.1932  2.1525
 1478TIP3    H2 4396   1.090   5.664   2.222 -1.2799  0.4028 -0.4353
 1479TIP3   OH2 4397   0.132   1.703   6.276 -0.1174  0.1186 -0.1626
 1479TIP3    H1 4398   0.135   1.653   6.357 -1.3037  1.3963  0.7023
 1479TIP3    H2 4399   0.183   1.782   6.294 -0.6753  0.5723 -0.5271
 1480TIP3   OH2 4400   4.908   5.173   2.715 -0.1216 -0.0720  0.1974
 1480TIP3    H1 4401   5.003   5.163   2.716 -0.1224 -0.1506  2.1506
 1480TIP3    H2 4402   4.893   5.267   2.720 -0.1662  0.1641 -3.3621
 1481TIP3   OH2 4403   1.613   4.902   0.146 -0.2362 -1.0007  0.2113
 1481TIP3    H1 4404   1.646   4.866   0.064  1.7897  3.0743 -0.9171
 1481TIP3    H2 4405   1.690   4.943   0.186 -2.0081  0.3963  2.2777
 1482TIP3   OH2 4406   4.218   0.286   0.380  0.2790 -0.2950 -0.4015
 1482TIP3    H1 4407   4.143   0.227   0.390  0.8553 -0.8466  0.8329
 1482TIP3    H2 4408   4.291   0.228   0.355  1.0503 -0.2669  1.6544
 1483TIP3   OH2 4409   3.448   4.388   0.538  0.0123  0.1723  0.4504
 1483TIP3    H1 4410   3.523   4.390   0.478 -0.3593  1.9661  0.0317
 1483TIP3    H2 4411   3.479   4.431   0.617  0.4267 -1.9868  1.4857
 1484TIP3   OH2 4412   6.292   3.628   3.718 -0.1689 -0.1487  0.0330
 1484TIP3    H1 4413   6.240   3.548   3.726  2.2646 -1.8397 -0.4543
 1484TIP3    H2 4414   6.357   3.607   3.651  0.8748  2.0737  0.3085
 1485TIP3   OH2 4415   3.880   6.198   1.805  0.3247 -0.3263 -0.1797
 1485TIP3    H1 4416   3.791   6.162   1.805 -0.1709  0.8222  1.7224
 1485TIP3    H2 4417   3.868   6.290   1.783  1.0123 -0.1106  0.3269
 1486TIP3   OH2 4418   3.675   4.159   1.634 -0.6365  0.0055  0.0399
 1486TIP3    H1 4419   3.691   4.250   1.608  0.7696 -0.4270 -0.6756
 1486TIP3    H2 4420   3.635   4.119   1.557  0.9429 -0.5670 -0.5048
 1487TIP3   OH2 4421   0.906   4.908   0.274 -0.2374 -0.0628  0.3876
 1487TIP3    H1 4422   0.900   4.936   0.183  2.2599 -0.4337  0.0529
 1487TIP3    H2 4423   0.860   4.824   0.276  1.8870 -1.3205 -1.1642
 1488TIP3   OH2 4424   4.678   4.470   0.710 -0.1044  0.7757 -0.4259
 1488TIP3    H1 4425   4.729   4.411   0.765  1.7396  1.7584 -1.0427
 1488TIP3    H2 4426   4.728   4.551   0.707 -0.7167  1.1269 -2.6262
 1489TIP3   OH2 4427   3.866   2.204   3.304 -0.3847  0.2660  0.5261
 1489TIP3    H1 4428   3.955   2.236   3.290  0.6127 -1.6795  2.2856
 1489TIP3    H2 4429   3.824   2.272   3.356  0.6549  0.3144  1.3096
 1490TIP3   OH2 4430   3.887   3.600   0.542  0.2527 -0.0413  0.1089
 1490TIP3    H1 4431   3.860   3.508   0.537 -1.2888  0.3484  1.0682
 1490TIP3    H2 4432   3.806   3.649   0.539  0.9572  1.2387  1.3079
 1491TIP3   OH2 4433   3.958   5.866   1.061  0.3958  0.2977 -0.4779
 1491TIP3    H1 4434   4.010   5.933   1.106  0.4731 -0.9737  1.3702
 1491TIP3    H2 4435   3.951   5.898   0.971 -0.0027  3.0326  0.4740
 1492TIP3   OH2 4436   5.658   3.126   5.035 -0.2574 -0.1915 -0.7594
 1492TIP3    H1 4437   5.608   3.103   5.114 -1.1605 -1.0984 -1.5810
 1492TIP3    H2 4438   5.592   3.131   4.966  0.6238 -0.0793 -1.5942
 1493TIP3   OH2 4439   1.506   5.989   2.609 -0.0716  0.3105  0.0966
 1493TIP3    H1 4440   1.419   6.000   2.648 -0.7955  1.3129 -1.7591
 1493TIP3    H2 4441   1.514   5.894   2.596 -1.2797  0.2903 -0.5763
 1494TIP3   OH2 4442   3.141   4.720   2.757  0.1580  1.0160  0.1579
 1494TIP3    H1 4443   3.227   4.757   2.735  0.4271  0.4110  0.1778
 1494TIP3    H2 4444   3.144   4.708   2.852  0.7879 -0.7957 -0.0627
 1495TIP3   OH2 4445   5.157   1.817   6.340  0.4924  0.4225 -0.3239
 1495TIP3    H1 4446   5.128   1.737   6.295  1.2301 -0.8240  1.3543
 1495TIP3    H2 4447   5.230   1.788   6.395  0.6185  2.2221  0.4908
 1496TIP3   OH2 4448   3.125   6.324   3.505  0.1182  0.7251  0.3204
 1496TIP3    H1 4449   3.040   6.367   3.518  1.4067  4.0210 -1.6676
 1496TIP3    H2 4450   3.123   6.293   3.415 -0.1520 -2.1080  1.2410
 1497TIP3   OH2 4451   3.975   4.951   2.110 -0.0483  0.4584 -0.0112
 1497TIP3    H1 4452   3.907   5.017   2.120 -1.1737 -0.5132 -0.9868
 1497TIP3    H2 4453   3.952   4.883   2.173 -0.3265 -0.1388 -0.7460
 1498TIP3   OH2 4454   4.755   5.559   1.782 -0.1881 -0.2440 -0.2517
 1498TIP3    H1 4455   4.823   5.493   1.795  0.1936 -0.0054 -1.0130
 1498TIP3    H2 4456   4.775   5.627   1.846  1.0693  0.4403 -1.3478
 1499TIP3   OH2 4457   2.652   1.805   2.770  0.8783 -0.0642  0.8155
 1499TIP3    H1 4458   2.713   1.798   2.844 -0.7406 -1.5280  2.0429
 1499TIP3    H2 4459   2.565   1.795   2.809 -0.1058  0.9165 -1.0589
 1500TIP3   OH2 4460   2.762   4.668   2.425 -0.4579  0.0262  0.3762
 1500TIP3    H1 4461   2.726   4.738   2.371  0.0751  0.1104  0.1248
 1500TIP3    H2 4462   2.750   4.589   2.374 -0.0451  0.0919  0.1734
 1501TIP3   OH2 4463   2.322   5.236   0.334 -0.7700 -0.0147  0.1667
 1501TIP3    H1 4464   2.287   5.308   0.387 -1.5478 -0.3402  0.0953
 1501TIP3    H2 4465   2.352   5.171   0.398 -1.0637 -0.0995  0.2190
 1502TIP3   OH2 4466   2.379   1.119   6.091 -0.1175  0.3099  0.6958
 1502TIP3    H1 4467   2.414   1.131   6.003  1.3109 -0.9029  1.0699
 1502TIP3    H2 4468   2.365   1.208   6.123  0.5958  0.7921 -0.2856
 1503TIP3   OH2 4469   4.168   6.415   2.434 -0.1382  0.0919 -0.5977
 1503TIP3    H1 4470   4.176   6.327   2.471 -2.9028  0.0657  0.0207
 1503TIP3    H2 4471   4.111   6.403   2.358  1.1788  1.0367 -1.7636
 1504TIP3   OH2 4472   4.941   4.349   2.534 -0.2911  0.5413 -0.2619
 1504TIP3    H1 4473   4.935   4.323   2.442 -0.1341 -0.3894 -0.0076
 1504TIP3    H2 4474   4.889   4.284   2.581  1.4320 -0.2550  0.5567
 1505TIP3   OH2 4475   4.542   3.523   2.487 -0.6512  0.2402  0.3761
 1505TIP3    H1 4476   4.490   3.542   2.409  0.0702  1.1045  0.0858
 1505TIP3    H2 4477   4.492   3.560   2.560 -1.4516 -0.8004  0.3522
 1506TIP3   OH2 4478   2.195   5.786   0.428  0.1074 -0.1115 -0.0894
 1506TIP3    H1 4479   2.266   5.770   0.367  0.6003 -0.5390  0.5855
 1506TIP3    H2 4480   2.200   5.879   0.449  0.4916 -0.1516 -0.0090
 1507TIP3   OH2 4481   1.927   1.405   5.159  0.2747  0.1934 -0.2813
 1507TIP3    H1 4482   1.991   1.441   5.220 -1.3214  1.4943  0.6464
 1507TIP3    H2 4483   1.864   1.359   5.214  0.9391 -1.9512 -1.2681
 1508TIP3   OH2 4484   3.447   4.567   2.619  0.1744 -0.2279 -0.1052
 1508TIP3    H1 4485   3.396   4.592   2.542 -1.5147 -0.1442  1.0211
 1508TIP3    H2 4486   3.455   4.648   2.669 -1.5752 -0.9643  1.4111
 1509TIP3   OH2 4487   3.500   5.086   1.440  0.1205 -0.0912 -0.0819
 1509TIP3    H1 4488   3.459   5.163   1.401  1.4287  0.1848 -0.9510
 1509TIP3    H2 4489   3.522   5.112   1.529  1.2914  0.8189 -0.6267
 1510TIP3   OH2 4490   3.085   2.009   0.514 -0.0789  0.5969 -0.2495
 1510TIP3    H1 4491   3.093   1.981   0.605 -0.4029  1.5051  0.0682
 1510TIP3    H2 4492   3.171   2.044   0.491 -0.2812  1.2991  0.0375
 1511TIP3   OH2 4493   3.676   2.908   2.532  0.0799 -0.4138 -0.2142
 1511TIP3    H1 4494   3.614   2.976   2.503  1.4129 -1.0265 -4.8488
 1511TIP3    H2 4495   3.751   2.957   2.566 -0.2192  0.3947 -0.7042
 1512TIP3   OH2 4496   3.848   3.999   3.374  0.2928 -0.5818  0.1395
 1512TIP3    H1 4497   3.888   3.933   3.430  0.2202  1.2786  2.4413
 1512TIP3    H2 4498   3.762   4.014   3.412 -0.0042  0.2575 -0.8367
 1513TIP3   OH2 4499   2.273   5.547   1.815  0.0689 -0.5428  0.2002
 1513TIP3    H1 4500   2.184   5.523   1.841 -0.1471  0.1454  0.1273
 1513TIP3    H2 4501   2.316   5.571   1.896 -0.0490 -0.1428  0.1470
 1514TIP3   OH2 4502   0.920   6.368   0.240 -0.1895  0.1438  0.1604
 1514TIP3    H1 4503   0.974   6.359   0.319 -1.3207  0.0313  0.9225
 1514TIP3    H2 4504   0.903   6.278   0.213 -1.8232  0.1178  1.1864
 1515TIP3   OH2 4505   4.806   0.574   3.043  0.4252  0.3184 -0.0096
 1515TIP3    H1 4506   4.794   0.563   3.138 -0.0151  1.1398  0.0366
 1515TIP3    H2 4507   4.737   0.521   3.004 -0.6368  1.5512  0.1725
 1516TIP3   OH2 4508   3.542   5.456   2.288 -0.6141  0.0841 -0.0460
 1516TIP3    H1 4509   3.544   5.378   2.233 -1.0751 -0.4681  0.7137
 1516TIP3    H2 4510   3.568   5.528   2.230  0.5727 -0.7520 -0.5496
 1517TIP3   OH2 4511   2.718   4.523   0.139 -0.0095  0.1114  0.1597
 1517TIP3    H1 4512   2.785   4.527   0.071  1.5455 -1.8507  1.5410
 1517TIP3    H2 4513   2.702   4.615   0.161  0.4009  0.7192 -1.8972
 1518TIP3   OH2 4514   3.673   5.030   2.585 -0.8153  0.0806  0.6945
 1518TIP3    H1 4515   3.627   5.094   2.639  1.0544  2.5453 -0.5268
 1518TIP3    H2 4516   3.745   4.999   2.639 -1.9048 -1.3183  1.4031
 1519TIP3   OH2 4517   4.765   5.702   2.648 -0.0234 -0.6440  0.1777
 1519TIP3    H1 4518   4.686   5.753   2.630 -0.3551 -0.1840  2.7430
 1519TIP3    H2 4519   4.821   5.717   2.572 -0.9622  1.8731 -0.0683
 1520TIP3   OH2 4520   5.968   7.322   5.873 -0.0569 -0.5107  0.2993
 1520TIP3    H1 4521   5.932   7.260   5.809  0.4256 -0.6080  0.1198
 1520TIP3    H2 4522   5.947   7.283   5.958 -1.4340  0.0347  0.2205
 1521TIP3   OH2 4523   1.671   6.060   1.977 -0.4196  0.1654  0.6281
 1521TIP3    H1 4524   1.581   6.030   1.986 -0.2237 -0.5787  0.1547
 1521TIP3    H2 4525   1.704   6.015   1.899 -0.0020  1.3191  0.1222
 1522TIP3   OH2 4526   1.650   4.712   1.772 -0.5474  0.1502 -0.0263
 1522TIP3    H1 4527   1.641   4.645   1.840  0.9267 -1.1072 -1.0482
 1522TIP3    H2 4528   1.645   4.795   1.819 -1.6801 -0.6793  1.3502
 1523TIP3   OH2 4529   6.884   6.058   4.396  0.1712 -0.0196  0.2660
 1523TIP3    H1 4530   6.916   6.099   4.316  0.9983  0.9427  1.0922
 1523TIP3    H2 4531   6.850   6.130   4.448  0.0874 -0.5870  1.0033
 1524TIP3   OH2 4532   2.458   3.849   3.009  0.0961  0.2323 -0.2776
 1524TIP3    H1 4533   2.379   3.886   3.050  0.5144 -0.4783  1.2106
 1524TIP3    H2 4534   2.426   3.776   2.956 -0.0299 -1.6249  2.2702
 1525TIP3   OH2 4535   0.366   5.920   0.605 -0.0535 -0.6317 -0.3052
 1525TIP3    H1 4536   0.456   5.917   0.637 -0.1746 -0.3803  0.0485
 1525TIP3    H2 4537   0.368   5.867   0.525  0.4107 -0.6176 -0.3035
 1526TIP3   OH2 4538   5.968   7.192   2.729 -0.5690 -0.2089  0.1047
 1526TIP3    H1 4539   6.000   7.201   2.819  1.1416 -0.2661 -0.4869
 1526TIP3    H2 4540   6.009   7.264   2.682 -0.3338 -1.0313 -0.9492
 1527TIP3   OH2 4541   1.868   4.577   0.143 -0.2744  0.2436  0.1907
 1527TIP3    H1 4542   1.858   4.595   0.237  1.2744  0.8391  0.2522
 1527TIP3    H2 4543   1.947   4.523   0.137  0.1830  1.0120 -0.8527
 1528TIP3   OH2 4544   1.046   3.613   1.070  0.0130 -0.4178 -0.0687
 1528TIP3    H1 4545   1.084   3.701   1.068  0.7883 -0.6441  2.9207
 1528TIP3    H2 4546   1.022   3.599   1.161 -3.6170 -1.8702 -1.1530
 1529TIP3   OH2 4547   3.583   5.972   1.284  0.2701  0.3554 -0.0153
 1529TIP3    H1 4548   3.615   5.964   1.194  3.3690 -0.5143  1.1054
 1529TIP3    H2 4549   3.661   5.963   1.339 -1.6786 -0.0739  2.8243
 1530TIP3   OH2 4550   0.820   1.378   6.112 -0.0662  0.2479  0.3724
 1530TIP3    H1 4551   0.875   1.375   6.190 -1.5957 -3.4090  1.3834
 1530TIP3    H2 4552   0.732   1.355   6.142 -0.9986  0.1879 -2.1962
 1531TIP3   OH2 4553   2.421   5.255   2.759  0.0123  0.2067 -0.4146
 1531TIP3    H1 4554   2.502   5.249   2.709 -0.3739  0.2576 -1.0414
 1531TIP3    H2 4555   2.373   5.175   2.737 -0.7573  0.8771 -1.1758
 1532TIP3   OH2 4556   2.133   6.571   0.522 -0.5645 -0.3078 -0.2131
 1532TIP3    H1 4557   2.170   6.598   0.438 -0.5094  1.4198  0.3622
 1532TIP3    H2 4558   2.209   6.550   0.576 -0.5637 -0.2921 -0.2084
 1533TIP3   OH2 4559   6.746   7.231   4.913 -0.3208  0.3692  0.0018
 1533TIP3    H1 4560   6.715   7.274   4.833 -1.4562  0.2823  0.3856
 1533TIP3    H2 4561   6.675   7.172   4.937 -0.6684  1.5696  1.9641
 1534TIP3   OH2 4562   3.771   5.280   1.770  0.1224 -0.4567 -0.1106
 1534TIP3    H1 4563   3.845   5.304   1.713 -0.4455 -0.3241 -0.7957
 1534TIP3    H2 4564   3.706   5.349   1.756  0.3075  0.0210  1.3332
 1535TIP3   OH2 4565   2.365   6.538   0.673  0.5103 -0.0431  0.4889
 1535TIP3    H1 4566   2.381   6.455   0.718 -0.7291 -1.0262 -0.8359
 1535TIP3    H2 4567   2.387   6.605   0.738  0.7996 -1.4041  1.8320
 1536TIP3   OH2 4568   2.278   4.266   0.679 -0.2475 -0.2557  0.2681
 1536TIP3    H1 4569   2.258   4.200   0.746 -1.0433  1.0997  1.4021
 1536TIP3    H2 4570   2.359   4.307   0.710 -2.0506  2.2372  1.9130
 1537TIP3   OH2 4571   3.756   5.443   2.433  0.0461  0.2692  0.1952
 1537TIP3    H1 4572   3.676   5.453   2.381 -0.1853 -0.3447  0.4200
 1537TIP3    H2 4573   3.780   5.351   2.421  0.0057  0.1303  1.1423
 1538TIP3   OH2 4574   6.756   2.243   5.042 -0.2685 -0.9028  0.3388
 1538TIP3    H1 4575   6.768   2.332   5.010 -0.7714 -0.6242  0.9027
 1538TIP3    H2 4576   6.823   2.192   4.998  0.1876 -0.1942  0.2027
 1539TIP3   OH2 4577   6.566   0.596   5.509 -0.1777  0.1916 -0.4669
 1539TIP3    H1 4578   6.621   0.521   5.486  2.2077  1.3253  1.4344
 1539TIP3    H2 4579   6.616   0.672   5.482 -1.0869  1.2209  0.6898
 1540TIP3   OH2 4580   1.842   3.557   1.904 -0.2527 -0.2645 -0.0187
 1540TIP3    H1 4581   1.897   3.587   1.976  0.5182  1.4626 -1.2894
 1540TIP3    H2 4582   1.753   3.555   1.940  0.0321  1.2377  0.7937
 1541TIP3   OH2 4583   4.369   7.065   5.538 -0.3542  0.0851  0.6862
 1541TIP3    H1 4584   4.362   7.006   5.614  1.5967  0.2593  1.0198
 1541TIP3    H2 4585   4.418   7.140   5.571 -0.9821  0.9352 -0.3123
 1542TIP3   OH2 4586   2.230   0.236   5.875  0.5688  0.2734 -0.6476
 1542TIP3    H1 4587   2.212   0.265   5.786 -0.5117  2.4370  0.2190
 1542TIP3    H2 4588   2.258   0.315   5.921  0.7311 -0.7261  1.0200
 1543TIP3   OH2 4589   3.727   4.013   0.648  0.1421  0.0300  0.4263
 1543TIP3    H1 4590   3.728   3.989   0.741  0.3679 -1.3407  0.0732
 1543TIP3    H2 4591   3.685   3.939   0.604  1.7297 -0.1538 -0.7986
 1544TIP3   OH2 4592   2.977   3.401   0.342 -0.3952  0.1666 -0.0484
 1544TIP3    H1 4593   2.976   3.309   0.314  1.2320  0.0731  0.1401
 1544TIP3    H2 4594   3.066   3.415   0.375 -1.3290  1.1338  2.1797
 1545TIP3   OH2 4595   1.438   1.145   6.370 -0.2130 -0.7357 -0.4015
 1545TIP3    H1 4596   1.423   1.180   6.282  2.2363 -2.2622 -1.4699
 1545TIP3    H2 4597   1.533   1.135   6.376 -0.3242 -0.5307  2.4899
 1546TIP3   OH2 4598   5.212   6.748   6.182 -0.4854 -0.0415  0.1880
 1546TIP3    H1 4599   5.145   6.680   6.179  0.8511 -1.3507 -0.3001
 1546TIP3    H2 4600   5.164   6.830   6.169 -2.1015 -0.8786  0.7703
 1547TIP3   OH2 4601   2.026   0.577   3.528 -0.2330  0.5363 -0.3190
 1547TIP3    H1 4602   2.028   0.506   3.464 -0.3485 -0.7222  1.0461
 1547TIP3    H2 4603   2.109   0.623   3.515  2.7078 -3.4522  2.7101
 1548TIP3   OH2 4604   0.780   3.459   4.741  0.8250  0.3229 -0.4863
 1548TIP3    H1 4605   0.810   3.426   4.825 -0.1356  0.3026 -0.1457
 1548TIP3    H2 4606   0.752   3.381   4.693  0.8521  0.3913 -0.6150
 1549TIP3   OH2 4607   2.257   3.321   1.384 -0.0678 -0.4384 -0.0855
 1549TIP3    H1 4608   2.198   3.382   1.340 -0.5978 -0.2580  0.8747
 1549TIP3    H2 4609   2.221   3.311   1.472 -0.6022 -2.9636 -0.5453
 1550TIP3   OH2 4610   6.752   1.614   6.032  0.0848 -0.0282 -0.4252
 1550TIP3    H1 4611   6.721   1.704   6.025  0.7074  0.1431 -1.0979
 1550TIP3    H2 4612   6.821   1.617   6.098 -1.8282 -0.5543  1.6385
 1551TIP3   OH2 4613   4.562   5.500   0.413 -0.0288 -0.0572  0.1807
 1551TIP3    H1 4614   4.637   5.488   0.471  0.9347  3.6003 -0.1593
 1551TIP3    H2 4615   4.586   5.456   0.332  1.6575  0.8022  0.1918
 1552TIP3   OH2 4616   2.618   3.985   0.932  0.5671 -0.4502 -0.3132
 1552TIP3    H1 4617   2.675   3.947   0.998  1.5702 -0.9428 -1.4384
 1552TIP3    H2 4618   2.540   4.012   0.980  2.3087  1.5209  1.4731
 1553TIP3   OH2 4619   1.838   0.867   6.057 -0.7981 -0.2042  0.3206
 1553TIP3    H1 4620   1.896   0.798   6.089  0.4824  0.5982 -0.2414
 1553TIP3    H2 4621   1.750   0.830   6.066 -0.0721 -2.4397 -1.2457
 1554TIP3   OH2 4622   4.109   5.243   3.594  0.3973  0.6040  0.3105
 1554TIP3    H1 4623   4.014   5.248   3.599  0.3803  1.0499 -0.3611
 1554TIP3    H2 4624   4.132   5.169   3.650 -0.3449  0.4548  0.4278
 1555TIP3   OH2 4625   2.987   1.678   5.342 -0.3706 -0.0784  0.1053
 1555TIP3    H1 4626   3.073   1.652   5.376 -0.1197  0.2190 -0.2912
 1555TIP3    H2 4627   2.965   1.610   5.278  0.3211  0.7048 -0.9898
 1556TIP3   OH2 4628   5.007   5.513   0.936 -0.0573 -0.0320  0.7184
 1556TIP3    H1 4629   5.020   5.429   0.982 -1.5330 -0.1842  0.8793
 1556TIP3    H2 4630   5.083   5.520   0.878  1.1830 -0.4655  2.2419
 1557TIP3   OH2 4631   5.036   4.800   1.785 -0.3895  0.7472  0.7577
 1557TIP3    H1 4632   5.120   4.809   1.830 -0.2326  0.6658  0.4865
 1557TIP3    H2 4633   4.986   4.738   1.839 -0.1596  0.5592  0.7559
 1558TIP3   OH2 4634   1.237   1.932   5.008 -0.2647  0.5632 -0.3153
 1558TIP3    H1 4635   1.268   1.972   5.090 -2.9049 -0.4073  1.2270
 1558TIP3    H2 4636   1.267   1.841   5.013 -3.6496 -0.5295  1.4457
 1559TIP3   OH2 4637   6.463   6.875   2.920 -0.1020 -0.3449  0.1375
 1559TIP3    H1 4638   6.399   6.816   2.880  1.8947 -0.7939 -2.5782
 1559TIP3    H2 4639   6.548   6.837   2.897  1.1838  1.9600  0.9109
 1560TIP3   OH2 4640   5.124   5.652   0.113 -0.3213 -0.2492  0.2645
 1560TIP3    H1 4641   5.197   5.605   0.154 -1.1030  0.1063  2.1099
 1560TIP3    H2 4642   5.059   5.661   0.182 -1.7615  0.2232 -1.1189
 1561TIP3   OH2 4643   5.347   4.468   4.185  0.3555  0.0804 -0.0136
 1561TIP3    H1 4644   5.267   4.520   4.181  0.4506  0.2245 -0.0880
 1561TIP3    H2 4645   5.388   4.481   4.099  1.3061  1.3693  0.6098
 1562TIP3   OH2 4646   3.967   0.128   2.555  0.5736 -0.1222  0.0567
 1562TIP3    H1 4647   4.025   0.183   2.607 -1.5378  2.2331  0.0045
 1562TIP3    H2 4648   4.026   0.075   2.502  2.6922  1.0399  1.1781
 1563TIP3   OH2 4649   1.741   4.427   2.561 -0.6387 -0.5605  0.0567
 1563TIP3    H1 4650   1.811   4.486   2.589  0.6919 -1.1496 -1.8708
 1563TIP3    H2 4651   1.673   4.485   2.525 -0.3173 -0.0843  0.2160
 1564TIP3   OH2 4652   5.153   4.229   2.044 -0.0905  0.2256  0.0165
 1564TIP3    H1 4653   5.246   4.210   2.043 -0.0871  0.2502 -0.2211
 1564TIP3    H2 4654   5.126   4.216   2.135  0.7989  3.3097  0.7928
 1565TIP3   OH2 4655   4.920   6.422   2.505  0.6396 -0.6192  0.1037
 1565TIP3    H1 4656   4.993   6.481   2.524  1.0329 -0.1295 -2.6566
 1565TIP3    H2 4657   4.849   6.480   2.478 -0.0192 -1.2156  0.5660
 1566TIP3   OH2 4658   3.913   4.762   2.324  0.6991 -0.0107  0.6988
 1566TIP3    H1 4659   3.946   4.783   2.411  1.3956  0.1444  0.4039
 1566TIP3    H2 4660   3.938   4.671   2.310  0.5313 -0.0542  0.6916
 1567TIP3   OH2 4661   5.910   4.921   0.300 -0.2300 -0.5727 -0.3203
 1567TIP3    H1 4662   5.848   4.993   0.294  0.2381 -0.2369 -1.3257
 1567TIP3    H2 4663   5.893   4.867   0.223  1.2479 -0.0336 -1.0576
 1568TIP3   OH2 4664   4.809   5.619   0.114  0.0807  0.0475  0.1855
 1568TIP3    H1 4665   4.774   5.552   0.173 -1.0802 -0.0661 -0.6264
 1568TIP3    H2 4666   4.893   5.583   0.084  0.0211 -0.5079  0.6734
 1569TIP3   OH2 4667   2.215   2.354   6.319  0.2911  0.1460  0.1119
 1569TIP3    H1 4668   2.189   2.269   6.284 -0.3002  0.1243  0.5815
 1569TIP3    H2 4669   2.132   2.399   6.335  0.5882  0.6350  0.2861
 1570TIP3   OH2 4670   3.344   0.454   5.161  0.3594 -1.0146 -0.5290
 1570TIP3    H1 4671   3.249   0.454   5.171  0.3689 -1.6428 -0.4014
 1570TIP3    H2 4672   3.374   0.529   5.212 -0.1848  0.0552 -1.7500
 1571TIP3   OH2 4673   2.965   0.236   6.126 -0.3792  0.1295  0.1058
 1571TIP3    H1 4674   2.878   0.245   6.087 -0.3925  2.2173  0.5465
 1571TIP3    H2 4675   2.956   0.273   6.213  0.5263 -1.2756  0.8110
 1572TIP3   OH2 4676   5.793   0.661   0.574  0.0528  0.2244 -0.3510
 1572TIP3    H1 4677   5.716   0.652   0.631 -0.1018 -2.6162 -0.9338
 1572TIP3    H2 4678   5.865   0.677   0.635 -0.4408 -0.7031  0.5034
 1573TIP3   OH2 4679   2.879   5.413   1.724 -0.1104  0.0886 -0.2499
 1573TIP3    H1 4680   2.947   5.440   1.661  0.5725  0.5618  0.6685
 1573TIP3    H2 4681   2.797   5.444   1.685  0.2248 -0.2105 -1.2245
 1574TIP3   OH2 4682   2.614   3.568   0.369  0.2117 -0.1007  0.0110
 1574TIP3    H1 4683   2.549   3.637   0.373  1.1820  0.7947  0.5194
 1574TIP3    H2 4684   2.693   3.607   0.406  1.2356 -0.9415 -1.2352
 1575TIP3   OH2 4685   5.394   4.502   0.209 -0.2412 -0.2166  0.8733
 1575TIP3    H1 4686   5.453   4.439   0.168 -0.0334 -0.0750  0.9546
 1575TIP3    H2 4687   5.316   4.501   0.154  0.8968  1.6526 -0.8886
 1576TIP3   OH2 4688   4.580   4.501   0.441 -0.2194  0.3318 -0.2739
 1576TIP3    H1 4689   4.666   4.520   0.403 -0.1417 -0.9326 -0.7360
 1576TIP3    H2 4690   4.599   4.465   0.528 -0.3449  1.6464  0.3090
 1577TIP3   OH2 4691   3.798   0.297   4.903 -0.2177 -0.5872  0.6083
 1577TIP3    H1 4692   3.746   0.366   4.944  0.6451 -1.0281  2.4483
 1577TIP3    H2 4693   3.873   0.284   4.961  1.8537 -0.1685 -1.8662
 1578TIP3   OH2 4694   2.861   6.367   0.811 -0.3464  0.8688  0.3478
 1578TIP3    H1 4695   2.775   6.329   0.793  0.8322 -1.7028 -0.0746
 1578TIP3    H2 4696   2.842   6.456   0.840 -2.9001  1.7674 -3.7173
 1579TIP3   OH2 4697   1.182   5.888   2.796 -0.1471 -0.0423  0.5419
 1579TIP3    H1 4698   1.205   5.962   2.852 -1.0450  0.7111 -0.0598
 1579TIP3    H2 4699   1.087   5.878   2.809 -0.1350 -0.6833  0.1372
 1580TIP3   OH2 4700   6.637   5.859   0.523 -0.4411 -0.0872 -0.0444
 1580TIP3    H1 4701   6.550   5.821   0.535  0.0567 -0.8439  1.1658
 1580TIP3    H2 4702   6.696   5.784   0.517  0.2973  0.4499  0.4058
 1581TIP3   OH2 4703   0.211   0.142   6.225 -0.0464 -0.0355  0.6378
 1581TIP3    H1 4704   0.118   0.157   6.210  0.1642  0.0305 -0.7138
 1581TIP3    H2 4705   0.222   0.152   6.319 -1.6469 -1.4192  0.9964
 1582TIP3   OH2 4706   1.148   5.989   0.444 -0.4606 -0.2295  0.0961
 1582TIP3    H1 4707   1.103   5.909   0.418 -0.8059  0.3292 -1.1081
 1582TIP3    H2 4708   1.085   6.035   0.499 -0.1429 -0.9295  1.0458
 1583TIP3   OH2 4709   2.496   6.774   0.953  0.0324  0.3184  0.1747
 1583TIP3    H1 4710   2.577   6.790   0.905  0.4567 -0.7757  0.5125
 1583TIP3    H2 4711   2.516   6.801   1.043 -0.4216  1.3429 -0.0190
 1584TIP3   OH2 4712   7.263   5.174   1.581 -0.6839  0.0600  0.6740
 1584TIP3    H1 4713   7.273   5.140   1.670 -1.8434 -1.0216  0.4030
 1584TIP3    H2 4714   7.353   5.179   1.547 -0.3350 -0.6503  1.4857
 1585TIP3   OH2 4715   2.386   6.525   2.707 -1.2147  0.3047  0.0161
 1585TIP3    H1 4716   2.324   6.524   2.780 -0.5628 -0.9320  0.5629
 1585TIP3    H2 4717   2.472   6.525   2.748 -0.8380  0.0212 -0.7514
 1586TIP3   OH2 4718   0.562   6.744   1.260 -0.1622  0.5652  0.5520
 1586TIP3    H1 4719   0.615   6.668   1.285  0.0668  1.0233  1.4913
 1586TIP3    H2 4720   0.593   6.814   1.318 -0.1230  1.4706 -0.5458
 1587TIP3   OH2 4721   1.898   6.169   2.568 -0.1446 -0.0794  1.0114
 1587TIP3    H1 4722   1.979   6.221   2.567  0.8129 -1.5194  1.3451
 1587TIP3    H2 4723   1.845   6.205   2.497  0.6914  1.0394  0.9369
 1588TIP3   OH2 4724   2.143   4.778   0.204 -0.1849  0.5736  0.7355
 1588TIP3    H1 4725   2.127   4.807   0.294 -1.1988 -0.3535  0.8802
 1588TIP3    H2 4726   2.128   4.683   0.207 -0.2736  0.5428 -0.4204
 1589TIP3   OH2 4727   0.699   4.645   1.263  0.5036  0.6957 -0.4246
 1589TIP3    H1 4728   0.662   4.728   1.233  0.8381  0.6932 -0.8678
 1589TIP3    H2 4729   0.634   4.608   1.322 -1.0009 -0.1509 -2.5598
 1590TIP3   OH2 4730   2.796   4.965   3.095  0.2470  0.1038  0.1251
 1590TIP3    H1 4731   2.757   4.881   3.120 -0.4923  0.4588  0.1542
 1590TIP3    H2 4732   2.770   4.978   3.004  1.0031 -0.0631 -0.1203
 1591TIP3   OH2 4733   3.425   2.878   5.708  0.4968 -0.0617 -0.0322
 1591TIP3    H1 4734   3.376   2.866   5.789 -1.4334 -0.0074 -1.1546
 1591TIP3    H2 4735   3.473   2.959   5.721 -1.0036  0.7712  0.5129
 1592TIP3   OH2 4736   1.822   1.537   5.904  0.3144  0.3752  0.3357
 1592TIP3    H1 4737   1.831   1.507   5.994  0.6211  0.1444  0.2316
 1592TIP3    H2 4738   1.875   1.616   5.899  0.4013  0.3178  0.3297
 1593TIP3   OH2 4739   7.086   1.136   6.176  0.0690 -0.4204 -0.1157
 1593TIP3    H1 4740   7.095   1.114   6.084  1.7186 -0.9858  0.1600
 1593TIP3    H2 4741   7.028   1.212   6.177  0.2988 -0.2077 -1.6374
 1594TIP3   OH2 4742   0.178   5.723   1.300  0.3010 -0.2404 -0.5230
 1594TIP3    H1 4743   0.183   5.720   1.396 -1.0234 -1.3829 -0.4845
 1594TIP3    H2 4744   0.114   5.792   1.282  1.1419  0.5245 -0.6103
 1595TIP3   OH2 4745   7.222   1.136   5.926 -0.2936 -0.5405 -0.1226
 1595TIP3    H1 4746   7.311   1.118   5.897  0.5059  1.1385  1.2211
 1595TIP3    H2 4747   7.186   1.194   5.859 -0.0811 -0.5311 -0.2292
 1596TIP3   OH2 4748   1.396   5.388   0.502 -0.3328  0.2459 -0.1532
 1596TIP3    H1 4749   1.329   5.321   0.494 -1.0134  0.8401  0.5151
 1596TIP3    H2 4750   1.348   5.467   0.526  0.6416  0.6113  0.6240
 1597TIP3   OH2 4751   3.162   7.155   1.544 -0.3095 -0.2626  0.3470
 1597TIP3    H1 4752   3.075   7.175   1.579  0.6940  1.7666  1.7892
 1597TIP3    H2 4753   3.216   7.230   1.570  1.0889  0.1463 -3.4841
 1598TIP3   OH2 4754   3.951   1.657   0.685 -0.1837  0.2744 -0.2759
 1598TIP3    H1 4755   4.007   1.722   0.642  0.7797  0.6093  1.4549
 1598TIP3    H2 4756   3.931   1.593   0.616  0.8983  1.0818 -1.3551
 1599TIP3   OH2 4757   1.981   7.132   0.690  0.2141  0.2550  0.5332
 1599TIP3    H1 4758   2.004   7.172   0.773  1.1257  0.6251  0.1088
 1599TIP3    H2 4759   2.008   7.041   0.698  2.8256  0.9192 -0.3325
 1600TIP3   OH2 4760   5.974   1.122   2.069  0.0211  0.5630 -0.1294
 1600TIP3    H1 4761   6.043   1.064   2.037  1.0113  1.7385 -0.1292
 1600TIP3    H2 4762   5.933   1.158   1.990  1.3249  2.1132 -0.1213
 1601TIP3   OH2 4763   2.445   5.565   1.349 -0.3242 -0.0489 -0.2615
 1601TIP3    H1 4764   2.353   5.545   1.330 -0.9566 -0.7704  3.1821
 1601TIP3    H2 4765   2.442   5.612   1.432  2.5077 -1.2700  0.5759
 1602TIP3   OH2 4766   1.775   6.141   1.662  0.4970 -0.0449 -0.0856
 1602TIP3    H1 4767   1.708   6.087   1.621  0.1047  0.3113  0.0849
 1602TIP3    H2 4768   1.845   6.146   1.597  0.5372 -0.7538 -0.1042
 1603TIP3   OH2 4769   3.277   4.532   2.394 -0.2813 -0.9237 -0.3378
 1603TIP3    H1 4770   3.188   4.538   2.428 -0.8680 -0.5478 -1.9207
 1603TIP3    H2 4771   3.268   4.544   2.300  1.8110  2.5891 -0.1787
 1604TIP3   OH2 4772   3.887   1.504   0.222  0.6902  0.0567 -0.3339
 1604TIP3    H1 4773   3.818   1.528   0.161 -0.1304  1.0977  0.9966
 1604TIP3    H2 4774   3.966   1.497   0.168 -0.4873 -1.4269 -1.9068
 1605TIP3   OH2 4775   4.010   1.832   1.882 -0.5713 -0.2082 -0.4641
 1605TIP3    H1 4776   3.975   1.830   1.971 -0.3123  2.6226 -0.2533
 1605TIP3    H2 4777   3.935   1.855   1.827 -0.1879  0.6101 -0.6525
 1606TIP3   OH2 4778   2.911   5.953   0.308 -0.4462  0.2762  0.1371
 1606TIP3    H1 4779   2.865   6.017   0.363 -1.0380  0.2809 -0.3663
 1606TIP3    H2 4780   2.953   6.007   0.240 -0.3669  0.1952  0.1223
 1607TIP3   OH2 4781   2.714   6.010   1.838 -0.2706  0.3284  0.1579
 1607TIP3    H1 4782   2.621   6.032   1.850 -0.2547 -0.2010  1.3362
 1607TIP3    H2 4783   2.725   5.929   1.888  1.1903  1.2249  1.3149
 1608TIP3   OH2 4784   5.871   0.499   4.139 -0.2318  0.6376  0.3375
 1608TIP3    H1 4785   5.821   0.419   4.123  0.5391 -0.1820  1.9046
 1608TIP3    H2 4786   5.961   0.475   4.115 -0.3544  1.6922 -1.2135
 1609TIP3   OH2 4787   0.727   1.187   3.293  0.4837  0.0990 -0.0082
 1609TIP3    H1 4788   0.691   1.276   3.301  3.1837  1.2318 -0.1553
 1609TIP3    H2 4789   0.778   1.175   3.373  0.3459 -1.2469 -0.1208
 1610TIP3   OH2 4790   2.407   6.983   2.761 -0.4713  0.2214  0.0417
 1610TIP3    H1 4791   2.474   6.915   2.765 -0.0242  0.6536 -0.0657
 1610TIP3    H2 4792   2.344   6.951   2.697 -0.6890 -0.4742  0.6043
 1611TIP3   OH2 4793   0.794   0.458   5.837  0.4253 -0.7920 -0.1014
 1611TIP3    H1 4794   0.835   0.531   5.885  0.2897 -1.8267  1.6379
 1611TIP3    H2 4795   0.847   0.382   5.860 -1.6217 -1.8933  1.0897
 1612TIP3   OH2 4796   2.061   4.303   3.628  0.3363 -0.8323  0.5608
 1612TIP3    H1 4797   2.061   4.396   3.649  2.6748 -0.6614 -0.0558
 1612TIP3    H2 4798   2.045   4.300   3.533  0.7813 -1.0251  0.4901
 1613TIP3   OH2 4799   4.915   2.377   2.614 -0.7131 -0.9521  0.4491
 1613TIP3    H1 4800   4.935   2.446   2.551 -3.2425  1.2842  1.9743
 1613TIP3    H2 4801   4.885   2.304   2.561  3.5329 -1.5773 -1.3163
 1614TIP3   OH2 4802   4.972   0.591   1.334  0.1961  0.1355  0.6871
 1614TIP3    H1 4803   4.961   0.519   1.272 -0.5620  0.9724 -0.1570
 1614TIP3    H2 4804   5.005   0.549   1.414  0.1022 -1.0942  0.0876
 1615TIP3   OH2 4805   1.831   6.182   0.945  0.3031 -0.1110 -0.2950
 1615TIP3    H1 4806   1.786   6.239   1.008 -0.4697 -1.4842  0.4207
 1615TIP3    H2 4807   1.783   6.195   0.863 -0.2065 -0.1467 -0.0028
 1616TIP3   OH2 4808   3.356   4.825   5.673  0.0347  0.4461  0.3002
 1616TIP3    H1 4809   3.417   4.778   5.616  1.0587  1.3951  0.6012
 1616TIP3    H2 4810   3.403   4.836   5.755 -0.6644  0.9032  0.6455
 1617TIP3   OH2 4811   6.769   0.320   0.540 -0.5617  0.3966  0.1082
 1617TIP3    H1 4812   6.782   0.414   0.550 -1.9316  0.6804 -0.5546
 1617TIP3    H2 4813   6.696   0.300   0.599 -1.8972  0.2257 -1.5638
 1618TIP3   OH2 4814   6.077   3.173   5.965 -0.1269 -0.1784 -0.0558
 1618TIP3    H1 4815   6.042   3.251   5.922  1.0685 -0.3218 -1.2955
 1618TIP3    H2 4816   6.000   3.128   5.999 -0.9752  0.5667 -0.9696
 1619TIP3   OH2 4817   0.829   6.496   2.975  0.0424  0.2935 -0.0568
 1619TIP3    H1 4818   0.911   6.479   2.928 -0.6910  2.3951 -2.2032
 1619TIP3    H2 4819   0.764   6.443   2.929 -0.3314  0.9159 -0.2534
 1620TIP3   OH2 4820   6.813   0.584   1.519 -0.2977  0.0969  0.1429
 1620TIP3    H1 4821   6.792   0.677   1.510  0.0195  0.0498 -1.2113
 1620TIP3    H2 4822   6.855   0.561   1.436  2.9862 -0.3581  1.8421
 1621TIP3   OH2 4823   3.889   1.009   2.202  0.4610  0.8823 -0.1442
 1621TIP3    H1 4824   3.800   1.016   2.168 -0.5559 -2.4467  1.5240
 1621TIP3    H2 4825   3.941   1.069   2.149 -2.4691  1.6791 -2.2168
 1622TIP3   OH2 4826   1.690   1.169   3.579 -0.3235  0.1513  0.6472
 1622TIP3    H1 4827   1.732   1.215   3.506 -1.1709 -0.6908 -0.3839
 1622TIP3    H2 4828   1.762   1.150   3.639  0.4892  0.2694 -0.2699
 1623TIP3   OH2 4829   2.510   0.992   3.768  0.7107  0.0581 -0.2400
 1623TIP3    H1 4830   2.437   1.042   3.729 -0.0057 -0.7153  0.1036
 1623TIP3    H2 4831   2.577   0.992   3.700  1.2759  2.6837  0.2599
 1624TIP3   OH2 4832   6.330   7.067   4.250 -0.4779 -0.3104 -0.2249
 1624TIP3    H1 4833   6.238   7.071   4.273  0.2287  0.8361  2.5645
 1624TIP3    H2 4834   6.363   6.987   4.292  0.0428 -0.1670 -0.3494
 1625TIP3   OH2 4835   5.862   6.363   5.591 -0.4374  0.0257 -0.1486
 1625TIP3    H1 4836   5.910   6.444   5.606 -0.7285  0.1706  0.0056
 1625TIP3    H2 4837   5.837   6.333   5.678  0.8037 -0.9217 -0.1106
 1626TIP3   OH2 4838   6.846   6.115   4.126 -0.5511 -0.3457  0.1242
 1626TIP3    H1 4839   6.750   6.118   4.126 -0.6058 -1.6339  0.2179
 1626TIP3    H2 4840   6.872   6.185   4.066 -1.4995  1.0082  1.2479
 1627TIP3   OH2 4841   3.148   4.408   0.441 -0.4242 -0.2354 -0.3969
 1627TIP3    H1 4842   3.202   4.478   0.405  0.0131 -0.4071 -0.0829
 1627TIP3    H2 4843   3.208   4.358   0.497 -0.8534 -0.5616 -0.2253
 1628TIP3   OH2 4844   7.398   7.117   4.695  0.4292  0.8958  0.2507
 1628TIP3    H1 4845   7.455   7.156   4.761  0.7147  1.6115 -0.4008
 1628TIP3    H2 4846   7.413   7.171   4.616 -0.3788  0.4576 -0.2094
 1629TIP3   OH2 4847   2.384   0.211   2.229 -0.1795 -0.3258  0.2766
 1629TIP3    H1 4848   2.390   0.236   2.321 -0.8928  0.8216  0.0210
 1629TIP3    H2 4849   2.366   0.117   2.232 -1.1369 -0.1288  1.3384
 1630TIP3   OH2 4850   5.537   6.928   5.808 -0.1237  0.4456 -0.1207
 1630TIP3    H1 4851   5.511   6.943   5.717 -0.5337 -0.0399 -0.0821
 1630TIP3    H2 4852   5.472   6.976   5.860  0.0928  0.6980 -0.0796
 1631TIP3   OH2 4853   0.715   3.134   4.612 -0.1843  0.0816  0.1548
 1631TIP3    H1 4854   0.752   3.108   4.527 -1.8767 -0.0752 -0.5480
 1631TIP3    H2 4855   0.644   3.073   4.628  0.1282  0.1066  1.7117
 1632TIP3   OH2 4856   1.228   0.735   5.843  0.4582  0.4157 -0.0508
 1632TIP3    H1 4857   1.224   0.640   5.838 -1.3394  0.4842 -0.3014
 1632TIP3    H2 4858   1.313   0.758   5.805  1.1155 -1.1012  0.4684
 1633TIP3   OH2 4859   7.374   7.227   5.032 -0.2761 -0.1378 -0.3136
 1633TIP3    H1 4860   7.424   7.232   4.950  0.7084 -0.5919  0.2528
 1633TIP3    H2 4861   7.381   7.315   5.070  0.0509 -0.1843 -0.2645
 1634TIP3   OH2 4862   7.502   6.903   5.566  0.6324 -1.0015 -0.0718
 1634TIP3    H1 4863   7.566   6.966   5.534 -1.9098  1.9194  0.3426
 1634TIP3    H2 4864   7.431   6.906   5.502 -1.4736 -0.1026  2.2243
 1635TIP3   OH2 4865   5.557   7.044   5.493 -0.2565  0.0205 -0.4858
 1635TIP3    H1 4866   5.559   7.101   5.416 -2.5698 -0.7756 -1.1711
 1635TIP3    H2 4867   5.553   6.955   5.456 -0.7089 -0.3951  0.5734
 1636TIP3   OH2 4868   2.266   0.513   5.103  0.4829 -0.2997  0.9459
 1636TIP3    H1 4869   2.231   0.579   5.043  0.6081  1.1960  2.4922
 1636TIP3    H2 4870   2.308   0.449   5.045  1.4003  1.5854 -0.5380
 1637TIP3   OH2 4871   2.909   1.005   5.058 -0.2848  0.4480 -0.4010
 1637TIP3    H1 4872   2.818   1.020   5.032 -0.8410 -0.1755  1.1147
 1637TIP3    H2 4873   2.945   1.093   5.070 -0.9105  0.6914 -0.2537
 1638TIP3   OH2 4874   7.686   5.230   5.977 -0.2103 -0.4145 -0.2548
 1638TIP3    H1 4875   7.657   5.167   5.911 -2.8551  0.7867 -0.2995
 1638TIP3    H2 4876   7.664   5.189   6.060 -0.0128 -0.4594 -0.2251
 1639TIP3   OH2 4877   1.497   1.040   4.947  0.2599  0.0133  0.0034
 1639TIP3    H1 4878   1.441   0.972   4.909 -0.1947  0.5002 -0.2086
 1639TIP3    H2 4879   1.437   1.094   4.998  0.8254 -0.4702  1.2029
 1640TIP3   OH2 4880   1.031   1.677   5.835 -0.5851 -0.5301 -0.5736
 1640TIP3    H1 4881   1.044   1.589   5.799  0.3294 -1.7161  2.4693
 1640TIP3    H2 4882   1.036   1.665   5.930  0.2712  2.9301 -0.0984
 1641TIP3   OH2 4883   1.153   0.414   2.913  0.2324  0.3907 -0.3027
 1641TIP3    H1 4884   1.162   0.501   2.873 -0.1622 -0.2721 -1.8488
 1641TIP3    H2 4885   1.075   0.421   2.967  1.1921  1.5163  0.9836
 1642TIP3   OH2 4886   7.729   6.363   3.526  0.1916 -0.7704 -0.4206
 1642TIP3    H1 4887   7.688   6.352   3.611  1.4540  0.2659  0.3372
 1642TIP3    H2 4888   7.663   6.409   3.473 -0.3909 -0.9538  0.1504
 1643TIP3   OH2 4889   6.378   6.370   6.309 -0.2958 -0.0800  0.1218
 1643TIP3    H1 4890   6.434   6.435   6.267  0.7433 -0.6771  0.5508
 1643TIP3    H2 4891   6.336   6.324   6.236  2.1349 -1.6598 -0.3570
 1644TIP3   OH2 4892   5.750   6.579   3.596  0.3221  0.3717  0.5168
 1644TIP3    H1 4893   5.670   6.527   3.596  1.2950 -1.1578  0.0397
 1644TIP3    H2 4894   5.797   6.549   3.675  0.7263  0.7704  0.4258
 1645TIP3   OH2 4895   5.867   1.610   4.186 -0.2946  0.5487 -0.1153
 1645TIP3    H1 4896   5.833   1.697   4.164 -0.7082  0.1495 -1.0593
 1645TIP3    H2 4897   5.926   1.588   4.115 -1.2407 -0.5259 -0.5752
 1646TIP3   OH2 4898   6.164   7.104   4.575 -0.5575  0.1273  0.2605
 1646TIP3    H1 4899   6.129   7.036   4.632 -0.8897  0.8282  0.8929
 1646TIP3    H2 4900   6.105   7.178   4.586 -0.8807  0.1317 -1.3262
 1647TIP3   OH2 4901   6.568   6.456   4.960 -0.2077  0.1071  0.0057
 1647TIP3    H1 4902   6.479   6.481   4.989 -0.3441  0.3821 -0.6542
 1647TIP3    H2 4903   6.626   6.514   5.010 -0.4206  0.2294  0.1117
 1648TIP3   OH2 4904   6.571   7.099   4.434 -0.0618  0.1474 -0.6292
 1648TIP3    H1 4905   6.515   7.177   4.433 -0.8285 -0.2993  2.7712
 1648TIP3    H2 4906   6.511   7.026   4.416  0.2051  0.0737 -1.2406
 1649TIP3   OH2 4907   0.793   3.109   4.867 -0.2284  0.3669  0.5168
 1649TIP3    H1 4908   0.793   3.093   4.773  0.2490  0.0523  0.5707
 1649TIP3    H2 4909   0.863   3.172   4.881  0.5290 -0.5264  0.8164
 1650TIP3   OH2 4910   3.130   1.882   2.436 -0.6194  0.0315  0.1314
 1650TIP3    H1 4911   3.107   1.945   2.504 -1.3208  0.2589 -0.3095
 1650TIP3    H2 4912   3.079   1.910   2.360 -1.3850 -1.4359  0.0989
 1651TIP3   OH2 4913   6.971   5.913   5.155 -0.1402  0.5895  0.2337
 1651TIP3    H1 4914   6.981   5.997   5.109 -0.3133  0.8296  0.6311
 1651TIP3    H2 4915   7.011   5.849   5.096  1.4942  1.1796  0.6820
 1652TIP3   OH2 4916   1.941   4.845   1.246 -0.3134 -0.0050  0.3678
 1652TIP3    H1 4917   1.973   4.923   1.292 -1.1023  1.0587 -0.8600
 1652TIP3    H2 4918   2.005   4.777   1.268  2.1839  1.7659 -1.0288
 1653TIP3   OH2 4919   1.057   7.120   5.607 -0.5347 -0.1460 -0.1031
 1653TIP3    H1 4920   1.139   7.083   5.577  0.7927  1.4756  1.4234
 1653TIP3    H2 4921   0.997   7.111   5.533  1.7308  0.9830 -2.1052
 1654TIP3   OH2 4922   3.128   2.366   3.424 -0.1044  0.0286  0.4491
 1654TIP3    H1 4923   3.067   2.303   3.462 -2.3294  1.6473 -0.3072
 1654TIP3    H2 4924   3.150   2.425   3.495  0.1495 -0.2178  0.5774
 1655TIP3   OH2 4925   3.047   0.314   3.007  0.6661  0.2524 -0.1287
 1655TIP3    H1 4926   2.986   0.258   3.053  0.7427 -0.6120 -1.0725
 1655TIP3    H2 4927   3.026   0.403   3.037 -0.2750 -0.1566  0.4126
 1656TIP3   OH2 4928   3.940   1.209   2.041  0.3226 -0.1171  0.0723
 1656TIP3    H1 4929   3.866   1.240   2.092 -0.4591  0.4449 -1.3565
 1656TIP3    H2 4930   3.974   1.288   1.999  0.7129 -0.6141 -0.5596
 1657TIP3   OH2 4931   7.343   6.630   1.556 -0.5843  0.3917 -0.2195
 1657TIP3    H1 4932   7.300   6.573   1.620 -2.3556  0.3001 -1.4593
 1657TIP3    H2 4933   7.364   6.571   1.483  1.7319  0.4216  0.3815
 1658TIP3   OH2 4934   7.238   6.108   4.832  0.0293 -0.1129  0.9067
 1658TIP3    H1 4935   7.147   6.083   4.852  0.2790 -0.1080  2.0790
 1658TIP3    H2 4936   7.267   6.156   4.909  1.7702 -2.0802  1.5314
 1659TIP3   OH2 4937   5.474   6.198   6.146 -0.1617  0.1467  0.2669
 1659TIP3    H1 4938   5.467   6.244   6.063  1.6597  1.3189  0.7459
 1659TIP3    H2 4939   5.401   6.135   6.144 -0.3745  0.4087 -2.0279
 1660TIP3   OH2 4940   7.798   5.145   3.327  0.1365 -0.3966 -0.0875
 1660TIP3    H1 4941   7.788   5.235   3.298  0.9998 -0.5650 -0.9372
 1660TIP3    H2 4942   7.712   5.105   3.310 -0.2460  0.2575  0.2871
 1661TIP3   OH2 4943   2.918   1.018   5.377 -0.0009 -0.4239 -0.0382
 1661TIP3    H1 4944   2.873   1.102   5.380  0.9687  0.0711  1.0302
 1661TIP3    H2 4945   3.009   1.040   5.359  0.3950 -1.1732  0.9639
 1662TIP3   OH2 4946   0.607   4.472   5.241 -0.7225 -0.2529 -0.5583
 1662TIP3    H1 4947   0.547   4.481   5.315 -1.1814 -0.6646 -0.8766
 1662TIP3    H2 4948   0.552   4.439   5.170 -0.2102 -0.2013 -0.9790
 1663TIP3   OH2 4949   6.246   7.058   5.921 -0.5092  0.2784 -0.0417
 1663TIP3    H1 4950   6.213   6.993   5.859 -1.5267  0.8142 -0.0816
 1663TIP3    H2 4951   6.218   7.142   5.883 -1.2138  0.6050  1.1843
 1664TIP3   OH2 4952   7.591   6.031   5.535  0.3435  0.0294  0.4506
 1664TIP3    H1 4953   7.528   5.971   5.575 -0.5423  0.1523 -0.7217
 1664TIP3    H2 4954   7.605   5.995   5.447  2.4355 -0.3716  0.9204
 1665TIP3   OH2 4955   6.091   6.934   4.755  0.1249  0.4286  0.5109
 1665TIP3    H1 4956   6.144   6.892   4.823 -0.0218  0.2288  0.5048
 1665TIP3    H2 4957   6.004   6.944   4.794  0.0355  0.2982  0.3536
 1666TIP3   OH2 4958   0.861   0.956   3.659 -0.0786  0.0346 -0.2449
 1666TIP3    H1 4959   0.834   1.047   3.670  0.5860  0.2153 -0.1427
 1666TIP3    H2 4960   0.802   0.922   3.591 -0.3927  0.5060 -0.2089
 1667TIP3   OH2 4961   1.386   0.853   3.913  0.1690  0.0544 -0.3044
 1667TIP3    H1 4962   1.372   0.862   3.819  0.0742 -1.2578 -0.4241
 1667TIP3    H2 4963   1.452   0.785   3.921  0.9233  0.8679  0.5496
 1668TIP3   OH2 4964   0.903   2.321   3.220 -0.2306 -0.0099 -0.0975
 1668TIP3    H1 4965   0.879   2.403   3.177  0.8879 -0.3347 -1.3682
 1668TIP3    H2 4966   0.994   2.332   3.245 -0.3092 -0.5602  0.4440
 1669TIP3   OH2 4967   2.834   0.856   4.385 -0.5029 -0.9556  0.4442
 1669TIP3    H1 4968   2.887   0.777   4.393  0.7237 -0.6801 -3.5898
 1669TIP3    H2 4969   2.894   0.928   4.407  0.2855 -0.7769 -2.1608
 1670TIP3   OH2 4970   1.973   0.337   2.318 -0.4488  0.1026  0.0077
 1670TIP3    H1 4971   2.033   0.316   2.247 -0.6017  0.2142 -0.1551
 1670TIP3    H2 4972   1.994   0.275   2.387 -0.0449  0.2385  0.0038
 1671TIP3   OH2 4973   6.304   4.233   5.356 -0.0533  0.0456  0.1812
 1671TIP3    H1 4974   6.367   4.249   5.427 -0.4335  1.9293  0.1232
 1671TIP3    H2 4975   6.220   4.223   5.401  0.0712 -1.2217  0.1603
 1672TIP3   OH2 4976   7.099   4.909   3.701  0.0341  0.0935  0.7317
 1672TIP3    H1 4977   7.077   4.973   3.633  0.9122 -2.0035 -1.6170
 1672TIP3    H2 4978   7.194   4.904   3.699 -0.0097 -1.0581  1.0932
 1673TIP3   OH2 4979   0.102   5.665   3.009  0.1380 -0.3880  0.7282
 1673TIP3    H1 4980   0.017   5.709   3.012 -0.1921 -0.8510 -1.0155
 1673TIP3    H2 4981   0.165   5.735   2.996 -0.2525 -0.2648 -0.6196
 1674TIP3   OH2 4982   3.590   5.919   0.095  0.0266  0.2453 -0.0846
 1674TIP3    H1 4983   3.584   5.952   0.005  0.9688 -1.2989 -0.7606
 1674TIP3    H2 4984   3.657   5.973   0.136  0.5864  0.0827 -0.7576
 1675TIP3   OH2 4985   2.134   0.981   2.873 -0.0127 -0.0698  0.3418
 1675TIP3    H1 4986   2.051   0.985   2.825 -0.3469 -0.7804  0.8348
 1675TIP3    H2 4987   2.142   0.889   2.898 -0.4414  0.4602  2.6248
 1676TIP3   OH2 4988   5.453   4.639   6.316 -0.2701  0.3133 -0.3277
 1676TIP3    H1 4989   5.413   4.683   6.391  1.3349 -0.4802  1.0196
 1676TIP3    H2 4990   5.456   4.547   6.341  2.2144  0.3246 -0.4669
 1677TIP3   OH2 4991   0.424   5.338   2.998  0.0334  0.2248  0.7215
 1677TIP3    H1 4992   0.348   5.310   2.948  1.2184  0.4747 -1.2346
 1677TIP3    H2 4993   0.387   5.374   3.079 -1.9364  0.4826 -0.2692
 1678TIP3   OH2 4994   3.541   0.470   2.006  0.7078  0.1188 -0.5572
 1678TIP3    H1 4995   3.588   0.553   2.006 -1.5141  1.4464  1.0640
 1678TIP3    H2 4996   3.510   0.459   1.916  0.8634  1.1585 -0.7410
 1679TIP3   OH2 4997   3.948   0.075   3.925  0.0413  0.2287 -0.0706
 1679TIP3    H1 4998   3.926   0.168   3.915 -0.2558  0.1010 -0.6090
 1679TIP3    H2 4999   3.870   0.028   3.895 -0.0643 -0.1896  0.8448
 1680TIP3   OH2 5000   0.526   6.949   4.006 -0.1228  0.2228 -0.0569
 1680TIP3    H1 5001   0.524   6.868   3.954 -0.3020 -0.0162  0.3199
 1680TIP3    H2 5002   0.605   6.995   3.976 -0.7512  0.5524 -1.2336
 1681TIP3   OH2 5003   7.287   5.582   4.094 -0.1919 -0.6074 -0.0017
 1681TIP3    H1 5004   7.247   5.658   4.051  0.7142 -0.7131 -1.0797
 1681TIP3    H2 5005   7.269   5.509   4.035 -1.8709 -1.4234  1.5019
 1682TIP3   OH2 5006   3.051   0.766   1.914  0.0083 -0.0285  0.3527
 1682TIP3    H1 5007   3.093   0.824   1.851  0.1356 -1.6376 -1.0761
 1682TIP3    H2 5008   3.122   0.713   1.949 -0.2619 -0.0680  0.8398
 1683TIP3   OH2 5009   4.176   0.762   2.251  0.0915 -0.0567  0.0304
 1683TIP3    H1 5010   4.173   0.781   2.157  0.2823  2.6181  0.5262
 1683TIP3    H2 5011   4.243   0.822   2.285  0.8296 -1.7991  1.6997
 1684TIP3   OH2 5012   3.338   0.015   4.068  0.4576 -0.3228 -0.1294
 1684TIP3    H1 5013   3.358   0.087   4.128 -1.7943 -0.3488  0.6986
 1684TIP3    H2 5014   3.368  -0.063   4.115  0.3497 -0.1741  0.1882
 1685TIP3   OH2 5015   2.647   6.211   4.055 -0.1610 -0.2529 -0.1393
 1685TIP3    H1 5016   2.678   6.146   3.992  0.1696 -0.9734  0.7384
 1685TIP3    H2 5017   2.552   6.209   4.048 -0.1034  0.1110 -1.0415
 1686TIP3   OH2 5018   1.220   7.073   2.904  0.2679 -0.1667  0.3407
 1686TIP3    H1 5019   1.301   7.119   2.880  0.2208 -0.1687  0.1802
 1686TIP3    H2 5020   1.150   7.128   2.870  0.1646  0.3850  1.4065
 1687TIP3   OH2 5021   3.138   1.545   3.046  0.1960 -0.3908  0.6362
 1687TIP3    H1 5022   3.045   1.526   3.062  0.3497 -0.3194  1.6627
 1687TIP3    H2 5023   3.151   1.632   3.084  0.7021 -0.4360  0.5717
 1688TIP3   OH2 5024   0.142   5.289   2.485 -0.3251 -0.6876 -0.5937
 1688TIP3    H1 5025   0.115   5.236   2.411 -1.4749 -1.5587  0.4264
 1688TIP3    H2 5026   0.067   5.287   2.545 -0.2348  1.7250 -0.3379
 1689TIP3   OH2 5027   4.432   1.139   4.776 -0.0874 -0.3308  0.2787
 1689TIP3    H1 5028   4.350   1.134   4.726 -0.6356  0.0853  1.1281
 1689TIP3    H2 5029   4.404   1.145   4.867  0.9215 -1.8012  0.7039
 1690TIP3   OH2 5030   0.301   7.298   2.172 -0.6708  0.0938 -0.5779
 1690TIP3    H1 5031   0.261   7.221   2.213  2.0125 -1.1127 -0.1419
 1690TIP3    H2 5032   0.280   7.370   2.232  0.0913 -1.0029  1.0454
 1691TIP3   OH2 5033   2.629   0.056   2.531 -0.0790 -0.0490  0.2499
 1691TIP3    H1 5034   2.709   0.070   2.481 -0.7016  1.0604 -0.4528
 1691TIP3    H2 5035   2.598  -0.030   2.503  0.9012 -0.5169  0.5817
 1692TIP3   OH2 5036   1.630   6.214   5.296  0.0034  0.0876  0.1232
 1692TIP3    H1 5037   1.570   6.249   5.362 -0.2700  2.4577 -1.3378
 1692TIP3    H2 5038   1.604   6.123   5.286 -2.8652  0.8571  0.0961
 1693TIP3   OH2 5039   2.504   0.807   4.433 -0.0243 -0.6434 -0.1969
 1693TIP3    H1 5040   2.445   0.872   4.470 -0.9957 -0.9647 -1.1417
 1693TIP3    H2 5041   2.554   0.774   4.507  0.0330  0.7123  0.3891
 1694TIP3   OH2 5042   2.070   0.021   4.271 -0.4606 -0.3109 -0.1898
 1694TIP3    H1 5043   2.140   0.070   4.228 -1.1022  0.7738 -0.0310
 1694TIP3    H2 5044   1.990   0.069   4.249 -0.9269 -0.3441  1.3426
 1695TIP3   OH2 5045   3.228   3.095   2.196 -0.0423  0.1095 -0.0918
 1695TIP3    H1 5046   3.260   3.030   2.259 -1.1318  0.3366  0.7049
 1695TIP3    H2 5047   3.193   3.042   2.124  2.2039 -0.1438 -1.0524
 1696TIP3   OH2 5048   2.273   0.567   4.307  0.1702 -0.0045  0.0245
 1696TIP3    H1 5049   2.308   0.646   4.348 -1.5616  1.5806 -1.4753
 1696TIP3    H2 5050   2.292   0.497   4.370  0.0138  1.9037  2.2651
 1697TIP3   OH2 5051   3.798   0.132   2.818  0.1723  0.3158  0.0689
 1697TIP3    H1 5052   3.846   0.122   2.736 -0.1747  0.9496 -0.2115
 1697TIP3    H2 5053   3.792   0.227   2.831  0.4412  0.2140  0.9507
 1698TIP3   OH2 5054   0.118   6.370   2.784 -0.2709  0.3364 -0.2381
 1698TIP3    H1 5055   0.085   6.423   2.711 -1.7816  0.6327  0.6435
 1698TIP3    H2 5056   0.089   6.416   2.862  0.7233 -0.3716  0.5613
 1699TIP3   OH2 5057   7.178   7.070   5.157 -0.0301  0.3741 -0.1225
 1699TIP3    H1 5058   7.249   7.112   5.110  0.3878 -0.5581 -0.3451
 1699TIP3    H2 5059   7.122   7.033   5.088  0.3024 -0.5350  0.0808
 1700TIP3   OH2 5060   0.798   6.693   4.695 -0.5451  0.1912  0.3553
 1700TIP3    H1 5061   0.861   6.638   4.649 -0.0351  1.0055  0.0542
 1700TIP3    H2 5062   0.816   6.782   4.662 -1.4572  0.5084  0.7028
 1701TIP3   OH2 5063   6.146   0.694   3.999  0.0666 -0.4947 -0.0578
 1701TIP3    H1 5064   6.184   0.698   4.087 -0.5496  2.3968  0.0960
 1701TIP3    H2 5065   6.209   0.740   3.944 -0.3878 -0.8239 -0.8588
 1702TIP3   OH2 5066   1.135   6.696   3.307  0.6855 -0.1798 -0.0349
 1702TIP3    H1 5067   1.050   6.666   3.275  0.6415  0.2992 -0.3803
 1702TIP3    H2 5068   1.141   6.663   3.396  1.1071 -2.1525 -0.7693
 1703TIP3   OH2 5069   0.853   6.891   3.630  0.4028 -0.2408 -0.1972
 1703TIP3    H1 5070   0.846   6.796   3.629 -0.1219 -0.2018 -0.1228
 1703TIP3    H2 5071   0.799   6.920   3.557  0.7899 -0.0134 -0.3952
 1704TIP3   OH2 5072   6.390   5.757   5.480 -0.1351 -0.1214 -0.4188
 1704TIP3    H1 5073   6.368   5.850   5.474  0.5251  0.2351  1.9342
 1704TIP3    H2 5074   6.374   5.735   5.572  3.6375 -1.3109  0.0086
 1705TIP3   OH2 5075   2.877   0.022   4.597  0.4072 -0.1847  0.0690
 1705TIP3    H1 5076   2.784   0.009   4.575  0.1613 -0.6455  1.3798
 1705TIP3    H2 5077   2.920   0.033   4.512 -0.5743 -1.7490 -0.6470
 1706TIP3   OH2 5078   7.709   6.795   2.392 -0.3227  0.6997  0.6653
 1706TIP3    H1 5079   7.772   6.788   2.320 -0.5772 -3.5215  0.7048
 1706TIP3    H2 5080   7.627   6.820   2.349  0.3141  1.6493 -0.0249
 1707TIP3   OH2 5081   7.187   0.057   4.229 -0.2864  0.4783 -0.2352
 1707TIP3    H1 5082   7.125  -0.015   4.239  0.6447 -0.7501 -2.7868
 1707TIP3    H2 5083   7.273   0.015   4.233  0.2834  1.5354 -1.1201
 1708TIP3   OH2 5084   3.669   3.313   2.442  0.0584  0.2416 -0.1097
 1708TIP3    H1 5085   3.583   3.273   2.455  1.3016 -1.7837  2.4561
 1708TIP3    H2 5086   3.659   3.402   2.474 -0.9487 -0.1780  0.7908
 1709TIP3   OH2 5087   0.791   7.149   4.267  0.1505 -0.3679  0.3086
 1709TIP3    H1 5088   0.832   7.195   4.340 -0.3524 -0.6491  0.7708
 1709TIP3    H2 5089   0.753   7.070   4.307 -1.0320  0.0071 -0.0711
 1710TIP3   OH2 5090   3.654   1.010   3.175 -0.1043  0.4804  0.1669
 1710TIP3    H1 5091   3.703   0.996   3.256  1.7101  1.0679 -0.8034
 1710TIP3    H2 5092   3.562   1.001   3.200  0.5789 -3.1446  1.5379
 1711TIP3   OH2 5093   1.766   1.384   3.829  0.2768  0.0090 -0.1663
 1711TIP3    H1 5094   1.703   1.319   3.860  1.0276 -1.2874 -1.3207
 1711TIP3    H2 5095   1.802   1.422   3.909 -0.9188 -0.2496  0.5137
 1712TIP3   OH2 5096   0.580   6.999   2.518  0.1926  0.4232 -0.0283
 1712TIP3    H1 5097   0.534   6.956   2.446 -1.6467 -2.4038  2.7113
 1712TIP3    H2 5098   0.621   6.928   2.567 -0.1926  2.0504  2.7845
 1713TIP3   OH2 5099   5.355   6.564   3.302 -0.4060 -0.1649  0.5283
 1713TIP3    H1 5100   5.267   6.586   3.331 -0.6891 -1.7377  0.9065
 1713TIP3    H2 5101   5.413   6.608   3.364 -0.9434  0.0033  0.9151
 1714TIP3   OH2 5102   3.284   0.481   3.088  0.1978  0.4353  0.4605
 1714TIP3    H1 5103   3.238   0.417   3.033  0.1654 -0.4908  1.5409
 1714TIP3    H2 5104   3.215   0.532   3.130  0.2007  0.5568  0.3161
 1715TIP3   OH2 5105   0.412   7.350   3.005 -0.0578  0.2454 -0.3828
 1715TIP3    H1 5106   0.327   7.395   3.008 -0.6603 -0.9558  1.3037
 1715TIP3    H2 5107   0.399   7.277   2.944 -0.4395 -0.3393  0.3972
 1716TIP3   OH2 5108   2.078   1.123   3.093 -0.2522  0.2136  0.0104
 1716TIP3    H1 5109   2.162   1.144   3.134  0.0864 -0.4232 -0.3406
 1716TIP3    H2 5110   2.102   1.089   3.006 -1.0618  3.4879 -1.5583
 1717TIP3   OH2 5111   2.247   1.915   4.136  0.2371 -0.1117 -0.6986
 1717TIP3    H1 5112   2.336   1.936   4.165 -0.3284 -0.7701  1.6756
 1717TIP3    H2 5113   2.191   1.971   4.191 -0.8475 -0.4714 -1.4370
 1718TIP3   OH2 5114   3.727   0.172   1.356 -0.0904  0.2074 -0.1203
 1718TIP3    H1 5115   3.693   0.260   1.339 -3.1629 -1.0561 -0.9779
 1718TIP3    H2 5116   3.792   0.158   1.287  0.6071  1.8863  0.1729
 1719TIP3   OH2 5117   0.056   0.578   2.342  0.0902  0.5594  0.0861
 1719TIP3    H1 5118  -0.030   0.602   2.376 -0.1077  0.2910 -0.2236
 1719TIP3    H2 5119   0.049   0.485   2.322  0.2839  0.6583 -0.4508
 1720TIP3   OH2 5120   4.049   0.366   3.016  0.0131 -0.1622  0.3866
 1720TIP3    H1 5121   3.958   0.385   3.038  0.4943  0.3769  1.9716
 1720TIP3    H2 5122   4.077   0.302   3.081  0.7816 -0.2653 -0.0392
 1721TIP3   OH2 5123   1.755   0.811   4.369 -0.2791 -0.5215  0.1299
 1721TIP3    H1 5124   1.807   0.773   4.440  0.5042  0.8770  0.3395
 1721TIP3    H2 5125   1.792   0.775   4.289  0.2798 -0.4143  0.3385
 1722TIP3   OH2 5126   1.532   6.262   4.472 -0.2587  0.3895  0.5476
 1722TIP3    H1 5127   1.566   6.279   4.559 -1.3409  0.5999  0.9327
 1722TIP3    H2 5128   1.547   6.343   4.424 -1.7940  1.0969  1.2294
 1723TIP3   OH2 5129   1.258   5.175   3.206 -0.1866 -0.0302  0.0052
 1723TIP3    H1 5130   1.186   5.201   3.148  1.5143  1.1005 -1.6596
 1723TIP3    H2 5131   1.318   5.126   3.150  1.9900  1.9280  0.5021
 1724TIP3   OH2 5132   0.157   6.495   4.555  0.2020 -0.1247  0.2766
 1724TIP3    H1 5133   0.242   6.459   4.530 -0.4223 -0.5006 -1.4314
 1724TIP3    H2 5134   0.144   6.568   4.494 -1.6680 -1.4644 -1.0071
 1725TIP3   OH2 5135   6.124   6.531   2.646 -0.2428 -0.0868  0.5152
 1725TIP3    H1 5136   6.156   6.601   2.589  0.6454  0.4998  1.7129
 1725TIP3    H2 5137   6.203   6.493   2.683 -0.7286 -1.7360 -0.1114
 1726TIP3   OH2 5138   5.760   2.066   2.621 -0.4797 -0.1062 -0.1139
 1726TIP3    H1 5139   5.777   2.067   2.715  0.9434 -0.0520 -0.3614
 1726TIP3    H2 5140   5.730   1.977   2.602 -1.0384 -0.0377  0.4264
 1727TIP3   OH2 5141   3.906   5.907   3.801  0.2263  0.2509 -0.3172
 1727TIP3    H1 5142   3.840   5.895   3.733 -1.3665  1.9267  0.8673
 1727TIP3    H2 5143   3.977   5.849   3.777 -0.6235  0.2878 -2.9993
 1728TIP3   OH2 5144   2.817   0.154   3.086  0.6626  0.0990 -0.3844
 1728TIP3    H1 5145   2.796   0.101   3.163  0.5301  0.7450  0.0230
 1728TIP3    H2 5146   2.773   0.238   3.101 -0.9357 -0.4120 -2.0364
 1729TIP3   OH2 5147   0.836   5.022   5.021  0.3292 -0.3010 -1.0420
 1729TIP3    H1 5148   0.919   4.979   5.043  0.3270 -0.4184 -1.2735
 1729TIP3    H2 5149   0.846   5.048   4.929  0.6972  0.9982 -0.6592
 1730TIP3   OH2 5150   7.352   4.804   4.072  0.2140 -0.4597  0.2611
 1730TIP3    H1 5151   7.440   4.773   4.051  0.4155 -0.4417  1.0453
 1730TIP3    H2 5152   7.364   4.858   4.150 -0.7674 -2.1034  1.5795
 1731TIP3   OH2 5153   2.879   0.119   2.392 -0.2512 -0.0068 -0.6266
 1731TIP3    H1 5154   2.872   0.206   2.354  1.4504 -0.0451 -1.0413
 1731TIP3    H2 5155   2.956   0.123   2.449  0.0330 -1.3234 -0.8962
 1732TIP3   OH2 5156   2.483   0.220   3.561 -0.1313  0.4104  0.3252
 1732TIP3    H1 5157   2.455   0.267   3.640  0.2692  1.4444 -0.1471
 1732TIP3    H2 5158   2.578   0.230   3.559 -0.3365  2.1981 -1.4200
 1733TIP3   OH2 5159   0.922   6.953   0.222 -0.1453  0.3986 -0.1127
 1733TIP3    H1 5160   1.007   6.912   0.242 -0.6858 -0.6874  0.0151
 1733TIP3    H2 5161   0.911   7.019   0.290 -0.0447 -0.4166  0.7095
 1734TIP3   OH2 5162   4.068   0.948   5.145 -0.1261 -0.0914  0.3920
 1734TIP3    H1 5163   3.980   0.951   5.182  0.5245 -0.0551  1.9700
 1734TIP3    H2 5164   4.073   1.023   5.086 -1.1579 -0.1274  0.2566
 1735TIP3   OH2 5165   2.089   0.711   2.833  0.6203  0.4860 -0.0124
 1735TIP3    H1 5166   2.004   0.697   2.792 -0.1697  1.3715  1.2520
 1735TIP3    H2 5167   2.092   0.647   2.904  0.8979  0.6023  0.0825
 1736TIP3   OH2 5168   3.826   1.246   3.163 -0.5226 -0.3534 -0.2843
 1736TIP3    H1 5169   3.784   1.320   3.119 -1.3341 -0.0356  0.9832
 1736TIP3    H2 5170   3.767   1.172   3.150 -0.7521 -0.2646  0.2499
 1737TIP3   OH2 5171   2.074   1.234   4.945 -0.1846  0.4339 -0.4862
 1737TIP3    H1 5172   2.060   1.287   5.023  0.6863  0.6662 -0.4880
 1737TIP3    H2 5173   1.990   1.190   4.931 -0.1746 -0.0504  0.9124
 1738TIP3   OH2 5174   3.059   0.383   2.035  0.1139 -0.0422  0.1217
 1738TIP3    H1 5175   2.991   0.375   2.102  0.9853  1.1948  1.1623
 1738TIP3    H2 5176   3.107   0.463   2.057  1.7925 -0.7787 -0.7079
 1739TIP3   OH2 5177   4.171   0.776   3.849  0.1646  0.0535  0.3943
 1739TIP3    H1 5178   4.252   0.782   3.900  0.2094 -2.9466  0.7314
 1739TIP3    H2 5179   4.139   0.687   3.864 -1.6468  0.2263 -2.0987
 1740TIP3   OH2 5180   4.639   0.058   3.742 -0.4081 -0.4441  0.0042
 1740TIP3    H1 5181   4.616   0.004   3.818 -1.0639  1.1740  0.9702
 1740TIP3    H2 5182   4.711   0.010   3.700  2.2304  0.2906  3.5056
 1741TIP3   OH2 5183   5.648   7.306   2.692 -0.3973 -0.5524 -0.2425
 1741TIP3    H1 5184   5.701   7.247   2.747 -3.0087 -2.2847  0.5340
 1741TIP3    H2 5185   5.628   7.254   2.614 -0.3414  0.3553 -0.8660
 1742TIP3   OH2 5186   0.178   5.431   2.846  0.7718 -0.5430  0.1445
 1742TIP3    H1 5187   0.152   5.494   2.913 -1.6075 -0.3801 -0.8984
 1742TIP3    H2 5188   0.240   5.479   2.791  0.1284  0.4157  0.2374
 1743TIP3   OH2 5189   0.383   6.240   1.086  0.0699 -0.3017  0.2701
 1743TIP3    H1 5190   0.475   6.252   1.062  0.3609 -2.2354  0.3501
 1743TIP3    H2 5191   0.385   6.171   1.152 -1.4807 -0.7905 -0.1816
 1744TIP3   OH2 5192   0.875   7.079   1.695 -0.1520 -0.3813 -0.1201
 1744TIP3    H1 5193   0.900   7.124   1.614 -1.4657 -0.6603 -0.6975
 1744TIP3    H2 5194   0.909   7.135   1.765 -0.4330  0.7066 -0.8462
 1745TIP3   OH2 5195   0.232   6.467   1.788  0.1300 -0.2494 -0.1600
 1745TIP3    H1 5196   0.186   6.439   1.709 -0.5558 -0.2738  0.2484
 1745TIP3    H2 5197   0.166   6.463   1.857  0.4266  0.8967  0.1987
 1746TIP3   OH2 5198   7.381   7.037   1.941  0.5860  0.2837 -0.3309
 1746TIP3    H1 5199   7.380   6.994   1.856  1.1932 -1.0893  0.3445
 1746TIP3    H2 5200   7.290   7.062   1.956  0.1523 -1.1075 -0.5644
 1747TIP3   OH2 5201   3.350   0.276   3.286 -0.1002 -0.6034 -0.4393
 1747TIP3    H1 5202   3.278   0.323   3.329  0.8596  0.5866 -0.1050
 1747TIP3    H2 5203   3.310   0.241   3.206 -1.1970 -0.4528  0.0224
 1748TIP3   OH2 5204   4.119   1.302   2.305  0.3895 -0.3553 -0.1373
 1748TIP3    H1 5205   4.139   1.395   2.319  0.9934 -0.8013  2.2284
 1748TIP3    H2 5206   4.185   1.273   2.241 -2.0171  1.6184 -3.6963
 1749TIP3   OH2 5207   3.729   0.587   1.621 -0.2759 -0.3888  1.2195
 1749TIP3    H1 5208   3.636   0.594   1.602  0.0512  0.7567  0.0257
 1749TIP3    H2 5209   3.769   0.660   1.575  1.3598 -1.5638  0.7346
 1750TIP3   OH2 5210   1.700   0.396   1.109  0.2064  0.4720  0.7717
 1750TIP3    H1 5211   1.696   0.435   1.022  0.9173 -0.7492  0.1679
 1750TIP3    H2 5212   1.726   0.468   1.167  1.1976  0.9636 -0.2632
 1751TIP3   OH2 5213   4.204   1.097   3.918  0.3142 -0.2348 -0.5079
 1751TIP3    H1 5214   4.253   1.060   3.844  1.3434 -1.5589  0.7851
 1751TIP3    H2 5215   4.116   1.062   3.908  1.2043 -2.9552  0.5311
 1752TIP3   OH2 5216   3.595   1.831   2.291  0.3387  0.1579  0.0888
 1752TIP3    H1 5217   3.511   1.867   2.262  0.0795 -1.9092 -1.7734
 1752TIP3    H2 5218   3.657   1.903   2.279 -1.0790  1.6316  1.2689
 1753TIP3   OH2 5219   3.387   1.532   1.918 -0.2012 -0.0981 -0.5899
 1753TIP3    H1 5220   3.383   1.483   2.000  0.9772  0.4581 -0.1793
 1753TIP3    H2 5221   3.299   1.566   1.904 -0.5784 -0.8203  0.0654
 1754TIP3   OH2 5222   1.044   7.287   3.624  0.2756 -0.1831 -0.0645
 1754TIP3    H1 5223   0.950   7.298   3.634  0.0426 -2.0310  0.0717
 1754TIP3    H2 5224   1.062   7.201   3.663  2.1699  0.5901  0.8386
 1755TIP3   OH2 5225   2.539   1.518   0.855 -0.0600 -0.4296 -0.6545
 1755TIP3    H1 5226   2.511   1.508   0.946  1.4698 -0.0223 -0.1132
 1755TIP3    H2 5227   2.556   1.428   0.826 -0.5704 -0.5631 -0.5448
 1756TIP3   OH2 5228   3.986   1.319   2.553 -0.4907 -0.1062  0.3928
 1756TIP3    H1 5229   4.054   1.308   2.620 -1.6315 -2.0617  1.2658
 1756TIP3    H2 5230   4.032   1.313   2.470  0.7015  0.7385  0.9707
 1757TIP3   OH2 5231   7.779   6.123   4.793 -0.4737  0.6689  0.7051
 1757TIP3    H1 5232   7.735   6.108   4.709 -2.0577  1.4668  1.3707
 1757TIP3    H2 5233   7.724   6.078   4.857  0.9415 -0.2642  1.2813
 1758TIP3   OH2 5234   2.623   0.997   1.901 -0.3804 -0.0147  0.0735
 1758TIP3    H1 5235   2.565   1.043   1.840 -1.0924 -0.5780  0.3175
 1758TIP3    H2 5236   2.566   0.974   1.975  0.0635 -0.9418  0.1271
 1759TIP3   OH2 5237   3.961   0.813   3.635 -0.3935 -0.1072  0.0471
 1759TIP3    H1 5238   4.016   0.863   3.575  0.0750  0.7080  1.1478
 1759TIP3    H2 5239   4.021   0.783   3.703 -0.9264 -1.0123  0.1358
 1760TIP3   OH2 5240   2.897   1.931   2.001 -0.5419  0.0167 -0.1615
 1760TIP3    H1 5241   2.901   1.842   1.968  0.1682 -0.6108  1.5548
 1760TIP3    H2 5242   2.852   1.981   1.932  0.3811 -1.3509 -1.7881
 1761TIP3   OH2 5243   2.910   0.192   2.759  0.3770 -0.4410 -0.1920
 1761TIP3    H1 5244   2.828   0.226   2.722  0.1775 -0.6203  0.0811
 1761TIP3    H2 5245   2.919   0.238   2.843  0.7261 -0.1791 -0.3717
 1762TIP3   OH2 5246   3.536   0.398   3.006 -0.7339  0.1812  0.1381
 1762TIP3    H1 5247   3.563   0.306   3.010 -0.2207  0.2373 -1.5441
 1762TIP3    H2 5248   3.464   0.405   3.069 -1.0100 -1.4538  0.0273
 1763TIP3   OH2 5249   6.467   7.327   3.313 -0.0101  0.3592  0.2940
 1763TIP3    H1 5250   6.413   7.288   3.244 -1.0651  0.9680  0.7652
 1763TIP3    H2 5251   6.417   7.314   3.393 -0.4014  2.7083  0.4507
 1764TIP3   OH2 5252   5.767   6.985   2.717  0.7854 -0.4744 -0.3662
 1764TIP3    H1 5253   5.819   7.050   2.764  0.6514  0.1629 -1.0934
 1764TIP3    H2 5254   5.762   7.018   2.627 -2.2237  0.3009  0.0295
 1765TIP3   OH2 5255   2.469  -0.033   0.111 -0.2008 -0.1650 -0.0539
 1765TIP3    H1 5256   2.422   0.018   0.177 -1.1373 -0.0741 -0.7679
 1765TIP3    H2 5257   2.541   0.024   0.083  0.8706 -0.6410  1.6610
 1766TIP3   OH2 5258   2.871   0.926   0.765 -0.2643 -0.4007  0.1237
 1766TIP3    H1 5259   2.791   0.874   0.754 -1.9476  1.8837  0.9852
 1766TIP3    H2 5260   2.841   1.017   0.757  2.2187  0.5139  0.7847
 1767TIP3   OH2 5261   7.663   6.657   5.222  0.3594 -0.2783 -0.8262
 1767TIP3    H1 5262   7.669   6.632   5.314  1.4722  0.2555 -0.7451
 1767TIP3    H2 5263   7.717   6.592   5.176 -0.5262 -0.7884 -1.1509
 1768TIP3   OH2 5264   6.607   7.044   5.248 -0.2986  0.2924  0.5057
 1768TIP3    H1 5265   6.615   7.011   5.158 -1.0179 -0.2883  0.6456
 1768TIP3    H2 5266   6.682   7.006   5.294 -1.9042 -2.3861  1.0143
 1769TIP3   OH2 5267   3.721   2.094   4.849  0.1499 -0.3465 -0.2795
 1769TIP3    H1 5268   3.779   2.030   4.890  0.7657 -0.3495 -1.1282
 1769TIP3    H2 5269   3.633   2.062   4.867  0.3288  0.4793  2.3644
 1770TIP3   OH2 5270   3.527   0.133   2.920 -0.1363  0.3205  0.1752
 1770TIP3    H1 5271   3.570   0.157   2.837  0.2164 -0.9869 -0.0235
 1770TIP3    H2 5272   3.434   0.142   2.901 -0.0948 -1.0079 -0.6961
 1771TIP3   OH2 5273   6.767   6.727   3.902  0.0289  0.0933  0.4189
 1771TIP3    H1 5274   6.771   6.755   3.810  1.6744  1.8072  0.9751
 1771TIP3    H2 5275   6.797   6.636   3.900  2.4922  0.8711 -0.4695
 1772TIP3   OH2 5276   3.254   1.213   2.805  0.2511 -0.0001 -0.7526
 1772TIP3    H1 5277   3.325   1.168   2.851 -1.0080 -0.4067  0.8266
 1772TIP3    H2 5278   3.284   1.304   2.799  1.2883 -0.3438 -0.8778
 1773TIP3   OH2 5279   1.687   0.202   3.179  0.3497 -0.8729 -0.0802
 1773TIP3    H1 5280   1.649   0.116   3.197 -0.8972 -0.2812  0.1418
 1773TIP3    H2 5281   1.646   0.260   3.243 -0.4522  0.3108 -1.6533
 1774TIP3   OH2 5282   3.708   2.350   4.447 -0.0214 -0.4047 -0.2655
 1774TIP3    H1 5283   3.730   2.265   4.485 -1.1862 -1.2547 -1.4620
 1774TIP3    H2 5284   3.738   2.344   4.356  1.0439  0.9386 -0.0230
 1775TIP3   OH2 5285   0.762   2.144   4.436 -0.4442 -0.3554  0.0991
 1775TIP3    H1 5286   0.795   2.232   4.414 -1.6212 -0.2104 -1.1555
 1775TIP3    H2 5287   0.814   2.118   4.512  0.3545  1.1743  0.1139
 1776TIP3   OH2 5288   1.485   1.875   1.165 -0.1793 -0.4732 -0.4531
 1776TIP3    H1 5289   1.524   1.961   1.180  0.8568 -1.2517  1.5066
 1776TIP3    H2 5290   1.433   1.886   1.085  1.0218  1.5958 -0.9930
 1777TIP3   OH2 5291   1.899   0.465   6.015 -0.1213  0.1966 -0.0440
 1777TIP3    H1 5292   1.961   0.536   6.034  0.7297 -0.2393 -1.1291
 1777TIP3    H2 5293   1.874   0.480   5.924 -1.3450  0.1494  0.2779
 1778TIP3   OH2 5294   7.362   7.005   2.839  0.0589  0.3146  0.4759
 1778TIP3    H1 5295   7.283   6.956   2.860  0.6343 -1.0789 -0.5057
 1778TIP3    H2 5296   7.379   7.058   2.917 -1.4513  0.1314  0.9505
 1779TIP3   OH2 5297   7.329   7.069   3.280 -0.3715 -0.0219 -0.1232
 1779TIP3    H1 5298   7.278   7.134   3.330 -1.1333  0.7105 -1.8039
 1779TIP3    H2 5299   7.269   6.995   3.269  0.4129 -0.9315  1.5742
 1780TIP3   OH2 5300   5.963   7.266   4.107  0.5093 -0.0308  0.3428
 1780TIP3    H1 5301   5.979   7.359   4.125  0.5185  0.1884 -0.7389
 1780TIP3    H2 5302   5.885   7.245   4.157  1.0564  0.3132  1.3445
 1781TIP3   OH2 5303   4.098   0.127   0.636  0.1026  0.4659 -0.5670
 1781TIP3    H1 5304   4.072   0.143   0.726  0.4400  2.0800 -0.7593
 1781TIP3    H2 5305   4.187   0.094   0.641  0.4226  1.3723 -0.3751
 1782TIP3   OH2 5306   5.110   0.758   3.452  0.2727  0.2639 -0.2126
 1782TIP3    H1 5307   5.204   0.775   3.454  0.5716 -1.3672  1.2224
 1782TIP3    H2 5308   5.097   0.700   3.377  0.3601  0.7686 -0.6174
 1783TIP3   OH2 5309   3.487   1.137   1.469  0.1440 -0.0453  0.3088
 1783TIP3    H1 5310   3.486   1.156   1.375 -0.8981  0.3086  0.3813
 1783TIP3    H2 5311   3.427   1.202   1.507  0.9818  0.1725  1.2892
 1784TIP3   OH2 5312   0.573   6.139   2.316  0.5878 -0.0677  0.3053
 1784TIP3    H1 5313   0.575   6.234   2.311  0.7472  0.0256  2.0418
 1784TIP3    H2 5314   0.665   6.113   2.318  0.5482 -0.2834 -0.5559
 1785TIP3   OH2 5315   3.065   0.173   3.548 -0.3132  0.3208 -0.4648
 1785TIP3    H1 5316   3.043   0.121   3.470  1.5215 -0.9738 -0.1359
 1785TIP3    H2 5317   3.152   0.144   3.573 -0.6578  1.1173  1.7766
 1786TIP3   OH2 5318   4.895   6.606   0.998  0.8179 -0.5939 -0.1677
 1786TIP3    H1 5319   4.941   6.539   1.050 -2.2081 -1.9620  0.8652
 1786TIP3    H2 5320   4.917   6.585   0.907  0.8864 -2.2392  0.2055
 1787TIP3   OH2 5321   2.949   0.314   3.817 -0.3218  0.0043  0.2275
 1787TIP3    H1 5322   3.044   0.323   3.810 -0.2237 -1.2100 -0.1367
 1787TIP3    H2 5323   2.935   0.220   3.826 -1.4600  0.2220  0.8295
 1788TIP3   OH2 5324   7.161   5.871   1.699 -0.0142  0.2510  0.8805
 1788TIP3    H1 5325   7.134   5.810   1.767  0.2302 -0.3819  0.4210
 1788TIP3    H2 5326   7.156   5.958   1.740 -0.7907 -0.0369  1.4053
 1789TIP3   OH2 5327   1.584   5.916   3.728 -0.1857 -0.0171 -0.3300
 1789TIP3    H1 5328   1.607   5.886   3.816  0.1195 -2.0146 -1.0702
 1789TIP3    H2 5329   1.491   5.938   3.733 -0.7186 -2.2972 -0.0909
 1790TIP3   OH2 5330   4.237   0.253   4.425  0.3150 -0.4867 -0.1350
 1790TIP3    H1 5331   4.237   0.308   4.503 -1.3115 -0.8814  0.1638
 1790TIP3    H2 5332   4.243   0.164   4.459  2.2858 -0.5580 -0.5911
 1791TIP3   OH2 5333   2.657   1.575   5.667 -0.7416 -0.3490  0.7348
 1791TIP3    H1 5334   2.602   1.638   5.715 -0.4860 -0.9281  1.8198
 1791TIP3    H2 5335   2.676   1.617   5.584 -2.6658 -0.0496  0.4265
 1792TIP3   OH2 5336   5.816   5.985   0.198  0.1697 -0.6803 -0.3949
 1792TIP3    H1 5337   5.811   5.934   0.278 -1.5723 -1.4995 -0.9894
 1792TIP3    H2 5338   5.757   6.059   0.213  1.4009  0.2592 -0.1635
 1793TIP3   OH2 5339   2.474   0.315   3.836 -0.5796  1.2300 -0.5031
 1793TIP3    H1 5340   2.415   0.383   3.871 -1.5075  0.0433  0.2836
 1793TIP3    H2 5341   2.426   0.233   3.850  2.1586 -0.0050  2.1637
 1794TIP3   OH2 5342   2.098   1.004   6.003  0.2715 -0.0740 -0.0378
 1794TIP3    H1 5343   2.031   0.943   6.033 -0.4186  1.4380  1.5918
 1794TIP3    H2 5344   2.163   0.949   5.959 -0.4145 -1.9418  1.2395
 1795TIP3   OH2 5345   6.695   6.811   2.556 -0.7402 -0.0260  0.7305
 1795TIP3    H1 5346   6.612   6.829   2.512 -0.2038  0.0912 -0.2575
 1795TIP3    H2 5347   6.670   6.764   2.636 -1.6411 -1.8070 -0.5337
 1796TIP3   OH2 5348   1.831   0.961   5.769 -0.0206 -0.1799  0.0553
 1796TIP3    H1 5349   1.841   1.037   5.826 -2.4326 -1.1932  1.9301
 1796TIP3    H2 5350   1.831   0.886   5.829 -2.7944 -1.2659 -1.2240
 1797TIP3   OH2 5351   3.889   2.535   5.293 -0.3787 -0.3217  0.5759
 1797TIP3    H1 5352   3.810   2.485   5.276 -3.1282  4.2682 -1.1079
 1797TIP3    H2 5353   3.948   2.511   5.221 -0.6466 -2.8576  1.1564
 1798TIP3   OH2 5354   4.116   1.613   1.539 -0.0237 -0.2679 -0.0656
 1798TIP3    H1 5355   4.067   1.660   1.471  0.4304  2.8255  1.6368
 1798TIP3    H2 5356   4.068   1.531   1.551 -2.1309  0.6853 -1.6268
 1799TIP3   OH2 5357   3.745   1.231   1.736  0.0866  0.2697 -0.0357
 1799TIP3    H1 5358   3.686   1.156   1.749  0.1323 -0.2328 -2.4907
 1799TIP3    H2 5359   3.765   1.229   1.642  3.3036  0.9782  0.5985
 1800TIP3   OH2 5360   1.138   6.440   2.861 -0.2252  0.5813  0.3398
 1800TIP3    H1 5361   1.201   6.498   2.817 -0.8074  1.6458  0.8749
 1800TIP3    H2 5362   1.074   6.419   2.793 -0.3062  0.9976  0.2876
 1801TIP3   OH2 5363   2.646   4.885   2.279  0.3028 -0.5242 -0.0317
 1801TIP3    H1 5364   2.581   4.827   2.239  1.4396 -0.5702 -1.8526
 1801TIP3    H2 5365   2.604   4.915   2.360 -1.1263 -2.2362 -0.1023
 1802TIP3   OH2 5366   1.197   7.169   3.824 -0.3223  0.1892 -0.3291
 1802TIP3    H1 5367   1.178   7.150   3.915 -1.7753  1.8916 -0.2543
 1802TIP3    H2 5368   1.278   7.120   3.806 -0.2031 -0.4352  1.7478
 1803TIP3   OH2 5369   1.034   6.433   2.609  0.4983 -0.1424  0.4504
 1803TIP3    H1 5370   1.070   6.477   2.532  1.7961 -0.4614  0.8498
 1803TIP3    H2 5371   0.945   6.408   2.584  0.0074  2.0227 -0.0339
 1804TIP3   OH2 5372   3.823   2.187   2.521 -0.4777 -0.7594 -0.0786
 1804TIP3    H1 5373   3.894   2.249   2.537  0.5163 -1.7129 -0.7190
 1804TIP3    H2 5374   3.787   2.168   2.608 -2.0588  2.1348 -0.0137
 1805TIP3   OH2 5375   2.213   0.953   0.482 -0.3781 -0.1153  0.4652
 1805TIP3    H1 5376   2.204   0.871   0.529 -1.0644 -0.5072 -0.3266
 1805TIP3    H2 5377   2.254   0.928   0.399 -1.8299  0.1180 -0.3502
 1806TIP3   OH2 5378   7.433   5.255   2.679  0.4184  0.5371  0.2096
 1806TIP3    H1 5379   7.511   5.215   2.641  1.9319  2.3557  1.3085
 1806TIP3    H2 5380   7.415   5.330   2.623 -0.4419  0.2203  0.0612
 1807TIP3   OH2 5381   2.678   1.815   6.124  0.0910 -0.0306  0.1065
 1807TIP3    H1 5382   2.685   1.798   6.031 -1.3137 -1.0417  0.1770
 1807TIP3    H2 5383   2.748   1.763   6.164  1.3629  1.2097 -0.4503
 1808TIP3   OH2 5384   0.148   6.706   5.620  0.0376 -0.2133  0.2066
 1808TIP3    H1 5385   0.068   6.682   5.572  0.2706  0.9203 -0.7860
 1808TIP3    H2 5386   0.130   6.795   5.652 -0.5559 -1.3951  3.2459
 1809TIP3   OH2 5387   4.056   0.281   4.208 -0.3053  0.3572  0.5027
 1809TIP3    H1 5388   4.035   0.191   4.234  1.1374 -0.4072 -0.9102
 1809TIP3    H2 5389   4.137   0.301   4.256 -0.6458  0.9286  0.8456
 1810TIP3   OH2 5390   0.709   7.213   2.405  0.1474 -0.0727 -0.1293
 1810TIP3    H1 5391   0.693   7.183   2.315  0.2398  0.1734 -0.2281
 1810TIP3    H2 5392   0.678   7.142   2.460  0.4372 -0.3811 -0.3665
 1811TIP3   OH2 5393   0.759   4.366   2.720  0.4652  0.5712  0.6661
 1811TIP3    H1 5394   0.841   4.401   2.754 -0.3147  1.2762  1.8397
 1811TIP3    H2 5395   0.691   4.418   2.762 -0.6066 -0.3315  0.0838
 1812TIP3   OH2 5396   3.540   0.234   2.649  0.0717  0.2531  0.1326
 1812TIP3    H1 5397   3.627   0.219   2.614  0.0973 -0.8246  0.6457
 1812TIP3    H2 5398   3.481   0.191   2.587 -0.0718  0.6189  0.0112
 1813TIP3   OH2 5399   2.294   0.356   5.625  0.1475  0.1055  0.2328
 1813TIP3    H1 5400   2.265   0.360   5.533  2.6635  3.3344 -0.4828
 1813TIP3    H2 5401   2.359   0.285   5.625  1.5737  1.3642 -0.9623
 1814TIP3   OH2 5402   3.735   0.763   0.959  0.1151  0.1103 -0.0454
 1814TIP3    H1 5403   3.668   0.741   0.895 -0.7776 -1.1512  1.2985
 1814TIP3    H2 5404   3.766   0.849   0.932 -1.8111  0.5683 -0.8887
 1815TIP3   OH2 5405   1.533   2.297   2.079 -0.8541  0.2045 -0.1273
 1815TIP3    H1 5406   1.605   2.242   2.047 -0.6645  1.1586 -1.3615
 1815TIP3    H2 5407   1.570   2.345   2.153  0.0849  1.4198 -1.3608
 1816TIP3   OH2 5408   7.404   6.486   4.308  0.3319 -0.4667 -0.1098
 1816TIP3    H1 5409   7.400   6.575   4.276  2.6519 -1.1540 -2.4682
 1816TIP3    H2 5410   7.333   6.440   4.262  0.8373 -0.4402 -0.9200
 1817TIP3   OH2 5411   1.849   1.346   2.731  0.2537  0.2552 -0.3610
 1817TIP3    H1 5412   1.929   1.317   2.774  0.6113 -0.5501 -1.5329
 1817TIP3    H2 5413   1.843   1.439   2.751 -0.2100 -0.3257  2.3723
 1818TIP3   OH2 5414   2.646   0.957   6.007  0.0481  0.0279  0.4587
 1818TIP3    H1 5415   2.677   0.946   5.917  1.9150 -0.0985  1.1001
 1818TIP3    H2 5416   2.613   1.047   6.010 -2.7677 -0.8879 -1.1218
 1819TIP3   OH2 5417   2.425   1.976   5.088  0.4575  0.1098  0.2065
 1819TIP3    H1 5418   2.509   1.967   5.043  1.0190 -1.5389  1.5432
 1819TIP3    H2 5419   2.375   1.899   5.061  0.3308 -0.2307  1.3729
 1820TIP3   OH2 5420   1.669   3.381   0.226  0.2817  0.6305 -0.1178
 1820TIP3    H1 5421   1.628   3.334   0.298 -0.0650  0.7131 -0.2612
 1820TIP3    H2 5422   1.760   3.351   0.227  0.2782  0.6233  0.3460
 1821TIP3   OH2 5423   1.841   0.862   5.396  0.3853  0.3600 -0.3975
 1821TIP3    H1 5424   1.840   0.796   5.465 -1.1634 -0.5349 -1.2428
 1821TIP3    H2 5425   1.876   0.816   5.320  0.1767  0.7609 -0.7388
 1822TIP3   OH2 5426   6.389   7.237   2.319 -0.9702 -0.0119 -0.1316
 1822TIP3    H1 5427   6.450   7.171   2.287 -1.0679  0.2131 -0.8039
 1822TIP3    H2 5428   6.317   7.235   2.255 -1.5065 -0.0436  0.4663
 1823TIP3   OH2 5429   2.929   0.605   5.305 -0.5910 -0.1034  0.3327
 1823TIP3    H1 5430   2.954   0.576   5.217 -0.7811  1.9402 -0.4315
 1823TIP3    H2 5431   2.840   0.640   5.294 -0.0152  1.6549  0.9687
 1824TIP3   OH2 5432   7.510   6.696   3.137 -0.4213  0.3156 -0.8727
 1824TIP3    H1 5433   7.604   6.692   3.157 -0.6544  1.1179  0.4040
 1824TIP3    H2 5434   7.494   6.788   3.115 -1.2023  0.4741  0.3692
 1825TIP3   OH2 5435   0.608   1.567   1.801 -0.1151  0.6184 -0.2848
 1825TIP3    H1 5436   0.577   1.477   1.815 -1.8290  1.0407 -1.2719
 1825TIP3    H2 5437   0.687   1.557   1.748 -1.0533 -0.2371 -1.5403
 1826TIP3   OH2 5438   0.508   2.262   4.464  0.3175  0.1221  0.1899
 1826TIP3    H1 5439   0.579   2.201   4.445 -0.3202  0.2808 -3.0800
 1826TIP3    H2 5440   0.456   2.219   4.531  2.6378 -0.6656  1.5266
 1827TIP3   OH2 5441   2.648   0.645   2.545  0.0216 -0.0100  0.2097
 1827TIP3    H1 5442   2.643   0.607   2.457  1.1743 -0.1569  0.2027
 1827TIP3    H2 5443   2.562   0.686   2.558  0.3631  1.3288 -1.5966
 1828TIP3   OH2 5444   1.371   0.888   2.713  0.5159 -0.1083  0.0021
 1828TIP3    H1 5445   1.401   0.979   2.721 -0.5373  0.2913 -0.5597
 1828TIP3    H2 5446   1.404   0.859   2.628  1.7187 -0.5954  0.6133
 1829TIP3   OH2 5447   6.889   1.089   2.855  0.0128 -0.3356 -0.2405
 1829TIP3    H1 5448   6.932   1.078   2.770  0.7840  0.4322  0.0481
 1829TIP3    H2 5449   6.799   1.060   2.840  0.5736 -1.8105 -0.8900
 1830TIP3   OH2 5450   6.035   1.804   2.452 -0.2019  0.2406 -0.2535
 1830TIP3    H1 5451   6.085   1.876   2.412  0.2009  0.9935  1.5474
 1830TIP3    H2 5452   5.947   1.839   2.461 -0.4715 -0.1988 -1.1610
 1831TIP3   OH2 5453   3.326   1.265   2.400 -0.2403 -0.0238 -0.1928
 1831TIP3    H1 5454   3.289   1.195   2.455  1.2357 -2.9100 -2.6708
 1831TIP3    H2 5455   3.379   1.317   2.459 -1.2554 -1.0935  1.7237
 1832TIP3   OH2 5456   3.090   1.493   4.399  0.7948  0.3285 -0.5065
 1832TIP3    H1 5457   3.005   1.453   4.379  0.0389  0.4518  2.2523
 1832TIP3    H2 5458   3.149   1.459   4.332 -0.8752 -1.7400 -0.9818
 1833TIP3   OH2 5459   3.002   6.418   1.916  0.0631  0.2711 -0.2542
 1833TIP3    H1 5460   2.953   6.441   1.837 -1.7961 -0.0480  0.7634
 1833TIP3    H2 5461   3.047   6.499   1.940 -1.1029  0.9977 -0.4437
 1834TIP3   OH2 5462   2.055   6.009   2.738 -0.0586  0.0648  0.5691
 1834TIP3    H1 5463   1.977   6.036   2.690  1.7844  1.3741 -1.8169
 1834TIP3    H2 5464   2.077   6.084   2.793  0.0411  0.0640  0.5312
 1835TIP3   OH2 5465   3.090   0.048   0.598 -0.0602 -0.2062 -0.8253
 1835TIP3    H1 5466   3.164   0.029   0.540  0.4941  1.4105 -0.6804
 1835TIP3    H2 5467   3.013   0.041   0.542  0.3800  0.2245 -1.4905
 1836TIP3   OH2 5468   7.058   1.317   2.873 -0.4769  0.4304 -0.1772
 1836TIP3    H1 5469   7.020   1.395   2.831 -0.7269 -0.7664 -2.2424
 1836TIP3    H2 5470   6.997   1.247   2.853  0.8546 -0.7377 -0.2065
 1837TIP3   OH2 5471   7.395   6.711   0.912  0.0132  0.5196 -0.9939
 1837TIP3    H1 5472   7.358   6.795   0.887  0.3131  1.0882  0.4544
 1837TIP3    H2 5473   7.346   6.686   0.990 -0.8447 -1.1905 -2.0335
 1838TIP3   OH2 5474   7.511   6.037   1.156  0.2179 -0.7051 -0.4225
 1838TIP3    H1 5475   7.426   5.994   1.160 -0.7405  1.2063 -0.0367
 1838TIP3    H2 5476   7.529   6.046   1.062 -0.5968  0.0501 -0.5048
 1839TIP3   OH2 5477   4.532   0.527   2.724 -0.2076 -0.3465 -0.5057
 1839TIP3    H1 5478   4.573   0.457   2.674  1.7195  0.3075  0.1226
 1839TIP3    H2 5479   4.558   0.510   2.814  0.9939  1.6217 -0.4463
 1840TIP3   OH2 5480   0.375   0.770   3.576  0.0608  0.4192 -0.4559
 1840TIP3    H1 5481   0.400   0.678   3.586  0.9271  0.6909 -0.0713
 1840TIP3    H2 5482   0.345   0.796   3.664 -0.7259  0.3555 -0.6955
 1841TIP3   OH2 5483   3.725   1.318   2.561 -0.7040  0.1599  0.2299
 1841TIP3    H1 5484   3.706   1.344   2.471 -1.2029 -0.8480  0.0329
 1841TIP3    H2 5485   3.820   1.308   2.564 -0.4542  2.3537  0.4185
 1842TIP3   OH2 5486   4.751   1.269   2.815 -0.5304 -0.4566 -0.9040
 1842TIP3    H1 5487   4.780   1.179   2.825  3.0684  0.9718  3.7384
 1842TIP3    H2 5488   4.828   1.316   2.782 -1.5129  1.3160 -0.7737
 1843TIP3   OH2 5489   0.362   4.576   2.400 -0.0518 -0.1572  0.3240
 1843TIP3    H1 5490   0.441   4.578   2.347 -1.9639  0.9918 -2.5904
 1843TIP3    H2 5491   0.378   4.639   2.470  1.1817  0.8354 -0.8472
 1844TIP3   OH2 5492   5.083   1.684   1.693 -0.3027  0.1874  0.3178
 1844TIP3    H1 5493   5.083   1.677   1.789 -4.0159  2.8060  0.6213
 1844TIP3    H2 5494   5.059   1.596   1.663  1.9973 -0.9560  1.6862
 1845TIP3   OH2 5495   3.378   1.938   2.180  0.4253 -0.0871  0.3615
 1845TIP3    H1 5496   3.332   1.937   2.096 -0.4164  0.8353  0.7954
 1845TIP3    H2 5497   3.322   1.991   2.237  2.2515  1.4551  0.7816
 1846TIP3   OH2 5498   1.364   6.521   1.400 -0.0474 -0.1777  0.0586
 1846TIP3    H1 5499   1.280   6.565   1.387 -0.1444 -0.5682 -0.6798
 1846TIP3    H2 5500   1.402   6.563   1.477 -0.9007  0.0289  0.3675
 1847TIP3   OH2 5501   5.004   6.443   2.834  0.3937  0.3670 -0.2050
 1847TIP3    H1 5502   5.077   6.464   2.892 -1.5208  3.0084  1.3762
 1847TIP3    H2 5503   5.025   6.488   2.752 -0.0445  2.3185  0.7027
 1848TIP3   OH2 5504   5.353   3.055   2.494 -0.2088 -0.5548  0.6162
 1848TIP3    H1 5505   5.354   3.150   2.499  0.8312 -0.5329  0.1532
 1848TIP3    H2 5506   5.400   3.034   2.414 -1.3017 -1.4340  0.1875
 1849TIP3   OH2 5507   2.829   1.566   2.861  0.3426 -0.5443  0.0172
 1849TIP3    H1 5508   2.823   1.496   2.797 -1.3524 -0.8495  0.4881
 1849TIP3    H2 5509   2.795   1.528   2.942  0.1058  0.5840  0.4612
 1850TIP3   OH2 5510   6.385   0.047   3.427  0.4173 -0.1734  0.0109
 1850TIP3    H1 5511   6.329   0.123   3.438  0.2612 -0.1016 -1.1780
 1850TIP3    H2 5512   6.450   0.074   3.362  0.7080 -0.8667  0.0055
 1851TIP3   OH2 5513   5.163   1.299   4.321  0.2493  0.2144  0.6024
 1851TIP3    H1 5514   5.164   1.231   4.254 -1.1868  0.6051  0.1609
 1851TIP3    H2 5515   5.251   1.337   4.319  1.0325 -1.5608  0.7987
 1852TIP3   OH2 5516   5.794   1.286   1.922 -0.3687 -0.1397  0.3740
 1852TIP3    H1 5517   5.700   1.288   1.940 -0.3286 -0.0888  0.5704
 1852TIP3    H2 5518   5.816   1.377   1.899 -0.6318 -0.4104 -0.9826
 1853TIP3   OH2 5519   5.394   2.773   3.553  0.5730  0.3574  0.6065
 1853TIP3    H1 5520   5.359   2.778   3.642 -1.3585  0.7329 -0.1520
 1853TIP3    H2 5521   5.318   2.784   3.497  1.7659  0.0290 -1.1049
 1854TIP3   OH2 5522   6.240   2.617   0.805 -0.2075  0.2148 -0.3225
 1854TIP3    H1 5523   6.262   2.567   0.727  0.4299  1.0675 -0.6911
 1854TIP3    H2 5524   6.322   2.625   0.853 -0.5010  0.1032  0.2092
 1855TIP3   OH2 5525   6.100   3.900   0.187  0.2992  0.6010 -1.1137
 1855TIP3    H1 5526   6.182   3.948   0.175  0.2992  0.5739 -1.2223
 1855TIP3    H2 5527   6.032   3.967   0.187  0.1841  0.4859 -2.4972
 1856TIP3   OH2 5528   7.483   2.076   1.441 -0.2167 -0.6136 -0.1753
 1856TIP3    H1 5529   7.411   2.137   1.461  0.9356  1.2597 -1.5625
 1856TIP3    H2 5530   7.560   2.116   1.482  0.3265 -1.7892 -0.0428
 1857TIP3   OH2 5531   4.657   2.043   2.122 -0.0958  0.3064 -0.0634
 1857TIP3    H1 5532   4.670   2.084   2.037 -0.5163 -0.9716 -0.7549
 1857TIP3    H2 5533   4.586   1.981   2.109 -1.6951  1.6765  1.7859
 1858TIP3   OH2 5534   0.339   5.942   6.174 -0.6135  0.0490 -0.1540
 1858TIP3    H1 5535   0.349   5.847   6.180 -0.0820  0.1201  0.1461
 1858TIP3    H2 5536   0.276   5.956   6.103 -2.9295 -0.6236  1.7114
 1859TIP3   OH2 5537   3.761   6.875   2.273  0.1277  0.2651 -0.4703
 1859TIP3    H1 5538   3.776   6.968   2.260 -1.5337  0.9003  1.8522
 1859TIP3    H2 5539   3.826   6.849   2.339  0.5293 -0.2060 -1.0458
 1860TIP3   OH2 5540   4.525   2.466   2.536  0.0026  0.3330 -0.0851
 1860TIP3    H1 5541   4.455   2.401   2.544  0.8132 -0.6769 -1.0372
 1860TIP3    H2 5542   4.584   2.429   2.471  0.4111  2.0901 -0.7398
 1861TIP3   OH2 5543   3.984   0.355   3.449 -0.4291 -0.3051 -0.1177
 1861TIP3    H1 5544   4.072   0.323   3.468 -0.1611  0.5806  0.1807
 1861TIP3    H2 5545   3.927   0.278   3.456  0.2868 -0.8282 -0.0749
 1862TIP3   OH2 5546   1.999   6.262   1.823  0.3064 -0.0144 -0.0102
 1862TIP3    H1 5547   1.936   6.301   1.884  0.2337 -0.6185  0.3128
 1862TIP3    H2 5548   1.988   6.311   1.742 -0.1146  0.3199  0.2459
 1863TIP3   OH2 5549   2.884   0.575   2.907 -0.1363 -0.3188 -0.1191
 1863TIP3    H1 5550   2.826   0.650   2.922 -0.4096 -0.5508 -0.0144
 1863TIP3    H2 5551   2.948   0.580   2.978 -0.7546 -0.7646  0.4817
 1864TIP3   OH2 5552   1.129   7.255   2.280 -0.2681 -0.5557  0.0479
 1864TIP3    H1 5553   1.219   7.247   2.312 -0.1198 -1.0192 -0.4811
 1864TIP3    H2 5554   1.137   7.302   2.197 -0.6650  0.7456  0.7332
 1865TIP3   OH2 5555   5.881   0.142   4.908 -0.3729 -0.2556 -0.3323
 1865TIP3    H1 5556   5.904   0.054   4.880  1.7430 -0.0735  0.7338
 1865TIP3    H2 5557   5.887   0.140   5.004  1.7920  1.5392 -0.3674
 1866TIP3   OH2 5558   2.350   7.268   3.057  0.2162 -0.4645  0.0281
 1866TIP3    H1 5559   2.437   7.246   3.025  0.7878  2.0279 -0.2566
 1866TIP3    H2 5560   2.344   7.363   3.047 -2.2553 -0.5001  0.7444
 1867TIP3   OH2 5561   4.388   0.771   2.738 -0.4824  0.8331  0.4303
 1867TIP3    H1 5562   4.428   0.688   2.713 -0.3496  1.3322 -1.0457
 1867TIP3    H2 5563   4.320   0.747   2.801 -0.3878 -0.3719  0.0805
 1868TIP3   OH2 5564   3.989   0.819   1.295 -0.3391  0.1415  0.0724
 1868TIP3    H1 5565   4.034   0.837   1.213 -0.8748 -0.4492 -0.3563
 1868TIP3    H2 5566   3.914   0.766   1.270 -1.7101  1.7336  0.6811
 1869TIP3   OH2 5567   3.834   1.581   2.846 -0.5020 -0.4163  0.0020
 1869TIP3    H1 5568   3.766   1.585   2.779  1.0560 -2.7937 -1.8144
 1869TIP3    H2 5569   3.838   1.488   2.869  0.8019 -0.0005  1.4931
 1870TIP3   OH2 5570   2.977   1.153   2.929  0.6332  0.6315  0.0596
 1870TIP3    H1 5571   3.063   1.188   2.904  0.2827  1.2241 -0.3228
 1870TIP3    H2 5572   2.943   1.216   2.992  0.3793  0.5192  0.0364
 1871TIP3   OH2 5573   4.595   0.169   0.117 -0.0112 -0.1453 -0.2342
 1871TIP3    H1 5574   4.639   0.183   0.033  2.2032  0.2661  0.9438
 1871TIP3    H2 5575   4.547   0.087   0.105  3.0984 -1.9794 -0.8588
 1872TIP3   OH2 5576   5.035   1.001   0.899 -0.2932 -0.5905 -0.0452
 1872TIP3    H1 5577   4.963   1.064   0.907  1.9687  1.9560  0.7759
 1872TIP3    H2 5578   5.011   0.947   0.824 -4.0704 -1.1983  1.4434
 1873TIP3   OH2 5579   2.834   1.167   2.465  0.1582  0.2387 -0.3187
 1873TIP3    H1 5580   2.891   1.095   2.436 -0.3436 -0.7348  1.0135
 1873TIP3    H2 5581   2.751   1.124   2.487 -1.0537  1.6163 -2.0766
 1874TIP3   OH2 5582   6.739   1.586   4.087 -0.7255 -0.1199 -0.1186
 1874TIP3    H1 5583   6.726   1.577   4.181 -1.0741  2.0811  0.0691
 1874TIP3    H2 5584   6.714   1.501   4.051 -1.6250 -0.6342  1.6657
 1875TIP3   OH2 5585   5.065   2.400   4.265 -0.5129 -0.3419  0.2148
 1875TIP3    H1 5586   5.149   2.400   4.219 -1.2734  1.1483 -1.2151
 1875TIP3    H2 5587   5.008   2.345   4.212 -0.9609  0.1549  0.1761
 1876TIP3   OH2 5588   4.199   2.422   3.747  0.3045  0.0276 -0.0393
 1876TIP3    H1 5589   4.270   2.469   3.790  1.3170  0.8567 -2.4914
 1876TIP3    H2 5590   4.153   2.489   3.698 -1.0190 -0.8228  0.0320
 1877TIP3   OH2 5591   4.698   2.402   2.277  0.3609  0.0444  0.0783
 1877TIP3    H1 5592   4.750   2.323   2.295  1.0723  0.8405  1.6467
 1877TIP3    H2 5593   4.612   2.369   2.253  1.3775 -1.2835 -1.8690
 1878TIP3   OH2 5594   2.728   2.536   1.505  0.3310  0.2603  0.4991
 1878TIP3    H1 5595   2.722   2.613   1.562  1.9948  0.8870 -0.1349
 1878TIP3    H2 5596   2.726   2.572   1.416 -0.7312 -0.5903  0.1634
 1879TIP3   OH2 5597   3.605   6.164   3.720  0.3228 -0.2402  0.1134
 1879TIP3    H1 5598   3.557   6.181   3.801  1.0374 -0.3031  0.5504
 1879TIP3    H2 5599   3.598   6.070   3.707  0.0716 -0.2085  0.0141
 1880TIP3   OH2 5600   4.870   2.935   3.221  0.2836 -0.0361 -0.2107
 1880TIP3    H1 5601   4.817   2.994   3.276  0.7283 -1.0560  1.3435
 1880TIP3    H2 5602   4.953   2.982   3.211  0.5753 -0.2902  0.8821
 1881TIP3   OH2 5603   5.080   0.663   6.025  0.3976  0.6820 -0.0536
 1881TIP3    H1 5604   5.012   0.603   5.995 -0.4480  0.7990  1.5553
 1881TIP3    H2 5605   5.049   0.750   5.998 -0.1420  0.7438  0.7552
 1882TIP3   OH2 5606   3.185   6.865   4.183  0.1594  0.7111  0.1268
 1882TIP3    H1 5607   3.228   6.922   4.119  0.1992 -0.0375 -0.5168
 1882TIP3    H2 5608   3.195   6.911   4.267  1.1589  1.1223 -0.2109
 1883TIP3   OH2 5609   5.668   3.747   4.174 -0.2211  0.8185  0.4986
 1883TIP3    H1 5610   5.734   3.682   4.152  0.0432  1.5434 -0.8671
 1883TIP3    H2 5611   5.703   3.792   4.251  0.1463  0.1561  0.7228
 1884TIP3   OH2 5612   1.124   6.863   3.714  0.2493  0.4531  0.0504
 1884TIP3    H1 5613   1.133   6.779   3.670  0.8043  0.7181 -0.3530
 1884TIP3    H2 5614   1.030   6.877   3.720  0.1004 -1.2059  2.0722
 1885TIP3   OH2 5615   4.480   0.435   0.585 -0.4485  0.6812  0.2920
 1885TIP3    H1 5616   4.527   0.517   0.573  2.6741 -0.9588  0.4777
 1885TIP3    H2 5617   4.418   0.453   0.655  1.3136  2.4792  1.4694
 1886TIP3   OH2 5618   5.307   1.302   4.796 -0.8742  0.2009 -0.2695
 1886TIP3    H1 5619   5.271   1.391   4.798 -1.9842 -0.2354 -0.3778
 1886TIP3    H2 5620   5.375   1.305   4.729  0.5590  1.5078  1.2263
 1887TIP3   OH2 5621   7.230   3.563   5.868 -0.4215 -0.2301 -0.2120
 1887TIP3    H1 5622   7.142   3.526   5.878 -0.5379  0.0985 -0.0227
 1887TIP3    H2 5623   7.219   3.657   5.883 -0.3908  0.1120 -2.1542
 1888TIP3   OH2 5624   5.307   0.330   3.240  0.1739  0.7536  0.1667
 1888TIP3    H1 5625   5.322   0.342   3.334  0.8985  2.0948 -0.1024
 1888TIP3    H2 5626   5.216   0.300   3.234 -0.0923  1.3114  1.2518
 1889TIP3   OH2 5627   6.291   1.832   3.439  0.0682  0.4485 -0.1522
 1889TIP3    H1 5628   6.210   1.857   3.483 -0.0564 -2.7895  1.6776
 1889TIP3    H2 5629   6.263   1.782   3.363  0.3016 -0.4558  0.3426
 1890TIP3   OH2 5630   1.748   6.671   1.341  0.0539 -0.8068  0.4125
 1890TIP3    H1 5631   1.815   6.690   1.407 -1.1376 -0.2959  1.4967
 1890TIP3    H2 5632   1.781   6.713   1.261  0.7049  0.0237  1.1009
 1891TIP3   OH2 5633   5.671   1.020   5.849  0.5377 -0.3692  0.2341
 1891TIP3    H1 5634   5.579   0.995   5.841  0.8885 -1.4632 -0.4236
 1891TIP3    H2 5635   5.669   1.113   5.871 -0.7348 -0.4984  0.6459
 1892TIP3   OH2 5636   0.966   6.200   1.203 -0.7552 -0.4503 -0.1705
 1892TIP3    H1 5637   1.028   6.254   1.251  0.2784 -0.9403 -0.9524
 1892TIP3    H2 5638   0.895   6.184   1.265  0.3885 -0.7521  1.0777
 1893TIP3   OH2 5639   7.078   5.944   2.372 -0.2244 -0.4139  0.0534
 1893TIP3    H1 5640   6.998   5.997   2.369 -0.4566 -0.7845 -0.2325
 1893TIP3    H2 5641   7.124   5.976   2.449  0.7157  1.7713 -1.3674
 1894TIP3   OH2 5642   0.186   6.455   1.495 -0.4854  0.3192  0.1502
 1894TIP3    H1 5643   0.211   6.526   1.435  0.2012  0.3014  0.4081
 1894TIP3    H2 5644   0.227   6.377   1.459 -0.8151  0.1442  0.1511
 1895TIP3   OH2 5645   4.127   1.784   4.862 -0.1012  0.1459  0.0516
 1895TIP3    H1 5646   4.108   1.695   4.833  0.3111  0.3084 -0.7254
 1895TIP3    H2 5647   4.164   1.827   4.785  0.7958  0.6422  0.7450
 1896TIP3   OH2 5648   4.418   1.878   5.031  0.0113  0.1774  0.2219
 1896TIP3    H1 5649   4.429   1.965   4.992 -0.2205  2.4066  4.7513
 1896TIP3    H2 5650   4.503   1.835   5.018  0.3075  1.2615 -1.6271
 1897TIP3   OH2 5651   3.099   6.316   2.810  0.0311 -0.2285  0.1346
 1897TIP3    H1 5652   3.178   6.368   2.828 -1.1328  2.0929 -1.2811
 1897TIP3    H2 5653   3.130   6.244   2.755  1.0873  0.9086 -0.7747
 1898TIP3   OH2 5654   5.599   0.628   2.891  0.0278  0.0072  0.0488
 1898TIP3    H1 5655   5.574   0.565   2.959  0.3882 -0.6535 -0.4213
 1898TIP3    H2 5656   5.527   0.691   2.889 -0.9404 -1.0802 -0.3198
 1899TIP3   OH2 5657   0.798   7.021   3.862  0.3494  0.5857 -0.3377
 1899TIP3    H1 5658   0.889   7.017   3.892  0.6544 -1.5165 -1.4364
 1899TIP3    H2 5659   0.800   6.980   3.775 -1.9506 -1.2209  0.4202
 1900TIP3   OH2 5660   3.848   0.645   4.318 -0.2832  0.0617 -0.0243
 1900TIP3    H1 5661   3.877   0.699   4.244 -0.2640  2.3869  1.6334
 1900TIP3    H2 5662   3.892   0.682   4.394 -1.0272 -1.7141  1.3172
 1901TIP3   OH2 5663   2.270   6.643   3.720 -0.0472  0.2903 -0.0759
 1901TIP3    H1 5664   2.236   6.658   3.808  1.9261 -0.0342  0.7654
 1901TIP3    H2 5665   2.298   6.730   3.690 -1.2838  0.5077 -0.6562
 1902TIP3   OH2 5666   2.211   7.300   4.548  1.0806 -0.3664  0.4632
 1902TIP3    H1 5667   2.226   7.261   4.462 -2.9445 -0.4770 -0.2634
 1902TIP3    H2 5668   2.222   7.394   4.533  1.0974 -0.4403  0.0011
 1903TIP3   OH2 5669   1.344   6.342   2.485 -0.2774  0.0283  0.1349
 1903TIP3    H1 5670   1.411   6.400   2.521 -0.5401  1.2879 -1.3751
 1903TIP3    H2 5671   1.393   6.276   2.436 -0.1201  1.0499 -1.1146
 1904TIP3   OH2 5672   4.104   1.644   3.147 -0.0221 -0.1829  0.1362
 1904TIP3    H1 5673   4.085   1.669   3.057  0.3761 -0.9389 -0.1645
 1904TIP3    H2 5674   4.197   1.618   3.145  0.3152  0.9206  1.0083
 1905TIP3   OH2 5675   4.861   0.249   4.854 -0.1731  0.3533 -0.8208
 1905TIP3    H1 5676   4.897   0.173   4.809 -0.9266  0.4590 -1.6220
 1905TIP3    H2 5677   4.896   0.324   4.806 -1.0806  0.4634 -1.3161
 1906TIP3   OH2 5678   1.957   6.083   5.171 -0.1061 -0.1968  0.0742
 1906TIP3    H1 5679   1.988   6.025   5.240  0.9949 -0.3875 -0.5677
 1906TIP3    H2 5680   1.948   6.168   5.214 -2.1916 -0.9274  1.1338
 1907TIP3   OH2 5681   1.349   6.852   2.636 -0.6083  0.1538  0.3672
 1907TIP3    H1 5682   1.429   6.836   2.587  0.2838  1.5174  1.3542
 1907TIP3    H2 5683   1.334   6.946   2.629 -0.9368  0.2370  1.9427
 1908TIP3   OH2 5684   5.421   0.260   6.124  0.2074 -0.2262 -0.1543
 1908TIP3    H1 5685   5.495   0.258   6.184  0.2569 -1.0709 -0.2440
 1908TIP3    H2 5686   5.355   0.204   6.165  0.2182 -0.7505 -0.8537
 1909TIP3   OH2 5687   1.278   5.406   5.190  0.1626 -0.4509  0.1472
 1909TIP3    H1 5688   1.284   5.317   5.156 -0.1856  0.6460 -2.9071
 1909TIP3    H2 5689   1.368   5.428   5.216  0.1088 -1.9432  1.6728
 1910TIP3   OH2 5690   5.848   1.340   3.300  0.3323 -0.1079 -0.2155
 1910TIP3    H1 5691   5.788   1.414   3.310  1.3451  0.8256 -1.0112
 1910TIP3    H2 5692   5.892   1.332   3.385  1.9236  1.6978 -0.8490
 1911TIP3   OH2 5693   6.111   2.046   2.343 -0.0636  0.0056  0.2554
 1911TIP3    H1 5694   6.182   2.108   2.357 -0.3008  0.3387 -0.0442
 1911TIP3    H2 5695   6.035   2.086   2.386 -0.0997 -0.3023  0.4857
 1912TIP3   OH2 5696   5.727   1.944   1.665  0.2167  0.3146 -0.2611
 1912TIP3    H1 5697   5.711   1.858   1.705 -0.4400  0.7802  0.4983
 1912TIP3    H2 5698   5.691   2.007   1.728  3.5863  1.3412  0.7268
 1913TIP3   OH2 5699   3.863   0.527   2.380 -0.8755 -0.4065  0.1973
 1913TIP3    H1 5700   3.881   0.580   2.302 -0.4680 -3.6375 -1.9981
 1913TIP3    H2 5701   3.920   0.564   2.447 -0.3687  1.7149 -1.3378
 1914TIP3   OH2 5702   5.008   0.689   1.851  0.3872 -0.6791  0.2789
 1914TIP3    H1 5703   4.977   0.777   1.830 -0.5398 -1.0735 -0.0440
 1914TIP3    H2 5704   5.092   0.703   1.894 -0.2776  0.4192  1.2443
 1915TIP3   OH2 5705   4.808   2.727   0.141 -0.1431  0.8090 -0.1190
 1915TIP3    H1 5706   4.902   2.738   0.154  0.1086 -1.0767 -0.1251
 1915TIP3    H2 5707   4.789   2.773   0.060  0.8075  1.0821 -0.1918
 1916TIP3   OH2 5708   3.255   2.653   2.449 -0.1714  0.1125  0.5187
 1916TIP3    H1 5709   3.339   2.644   2.403 -0.1196  1.2135  0.3900
 1916TIP3    H2 5710   3.257   2.742   2.484 -2.3301  1.0205 -1.5418
 1917TIP3   OH2 5711   3.609   1.692   1.918 -0.1828 -0.2036 -0.5028
 1917TIP3    H1 5712   3.648   1.692   2.006 -0.2156  0.5611 -0.4895
 1917TIP3    H2 5713   3.524   1.650   1.930 -0.3521  0.2588 -0.1001
 1918TIP3   OH2 5714   3.617   1.943   3.962  0.2076 -0.2400 -0.3273
 1918TIP3    H1 5715   3.592   1.922   4.053 -1.4754 -1.1218 -0.9710
 1918TIP3    H2 5716   3.672   2.020   3.970 -1.4402  0.8182  1.3084
 1919TIP3   OH2 5717   5.420   1.384   2.266  0.2839  0.2647 -0.1836
 1919TIP3    H1 5718   5.432   1.467   2.313  1.2917  0.9136 -1.5804
 1919TIP3    H2 5719   5.377   1.327   2.330 -2.4778  2.5453  0.1013
 1920TIP3   OH2 5720   1.407   7.058   2.129 -0.3792 -0.3342  0.0686
 1920TIP3    H1 5721   1.317   7.028   2.143 -0.5537 -0.5298 -1.4417
 1920TIP3    H2 5722   1.400   7.123   2.059  0.8370 -1.3896 -1.0635
 1921TIP3   OH2 5723   2.405   0.876   3.997 -0.6826 -0.5869  0.2500
 1921TIP3    H1 5724   2.441   0.920   3.920 -0.7280 -0.4718  0.2949
 1921TIP3    H2 5725   2.481   0.840   4.042 -0.7416 -1.4725 -0.3567
 1922TIP3   OH2 5726   5.107   0.824   2.189 -0.4419 -1.1929  0.3469
 1922TIP3    H1 5727   5.201   0.841   2.194 -0.5229 -0.8591  0.7769
 1922TIP3    H2 5728   5.100   0.737   2.150  0.0199 -0.8410 -0.5207
 1923TIP3   OH2 5729   6.011   2.204   3.328 -0.1471 -0.2584  0.0377
 1923TIP3    H1 5730   5.962   2.145   3.270 -0.4121 -1.1969  1.1834
 1923TIP3    H2 5731   6.026   2.152   3.407  1.8403  0.3790  0.0850
 1924TIP3   OH2 5732   5.063   2.070   1.877 -0.0077 -0.3963 -0.3541
 1924TIP3    H1 5733   5.049   2.050   1.969 -0.1366  1.2244  0.0046
 1924TIP3    H2 5734   4.998   2.018   1.831  0.4964 -1.7283  0.4072
 1925TIP3   OH2 5735   4.597   0.392   2.992  0.4197 -0.0782  0.4885
 1925TIP3    H1 5736   4.561   0.407   3.079 -0.5542  1.1497 -0.1158
 1925TIP3    H2 5737   4.599   0.297   2.983 -4.0954 -0.2316  0.0028
 1926TIP3   OH2 5738   1.582   6.477   0.604  0.2027  0.2637 -0.1115
 1926TIP3    H1 5739   1.515   6.546   0.606 -0.1534 -0.0614 -0.8479
 1926TIP3    H2 5740   1.661   6.520   0.637 -0.0999  0.9395 -0.2550
 1927TIP3   OH2 5741   3.744   1.659   4.103  0.6087 -0.4516  0.2106
 1927TIP3    H1 5742   3.704   1.637   4.188  0.0282 -1.7774 -0.3910
 1927TIP3    H2 5743   3.670   1.672   4.044  1.0236 -1.9407 -0.6677
 1928TIP3   OH2 5744   4.064   0.642   2.505 -0.3007  0.8729 -0.2336
 1928TIP3    H1 5745   4.133   0.586   2.541  0.2730  2.4969  1.2615
 1928TIP3    H2 5746   4.101   0.679   2.425 -0.6584 -0.7911 -1.1927
 1929TIP3   OH2 5747   1.220   5.883   1.835 -0.1420  0.5905  0.7824
 1929TIP3    H1 5748   1.170   5.927   1.766  0.6484 -0.0796 -0.2301
 1929TIP3    H2 5749   1.156   5.824   1.877 -0.5298  0.7246  0.3814
 1930TIP3   OH2 5750   2.064   7.241   0.948  0.1419  0.0672 -0.4172
 1930TIP3    H1 5751   2.062   7.156   0.991 -1.5927  0.5153  0.4072
 1930TIP3    H2 5752   2.056   7.304   1.019  0.0214  0.8881 -1.1543
 1931TIP3   OH2 5753   1.492   6.578   2.019 -0.1540 -0.1925 -0.2453
 1931TIP3    H1 5754   1.537   6.505   1.977 -0.5763 -0.2898 -0.5385
 1931TIP3    H2 5755   1.515   6.655   1.967 -1.3271 -0.4393 -1.1619
 1932TIP3   OH2 5756   3.174   2.332   0.741 -0.1715  0.3290 -0.2856
 1932TIP3    H1 5757   3.130   2.417   0.747 -1.6607 -0.4577  0.3677
 1932TIP3    H2 5758   3.174   2.312   0.647  1.4974  1.6921 -0.5980
 1933TIP3   OH2 5759   5.199   2.974   3.858 -0.2284  0.2253  0.0247
 1933TIP3    H1 5760   5.208   2.883   3.831 -0.8078  0.7200 -1.8933
 1933TIP3    H2 5761   5.106   2.983   3.879 -0.1577  0.3801  0.2807
 1934TIP3   OH2 5762   2.079   7.322   1.730  0.3872  0.0047  0.1422
 1934TIP3    H1 5763   2.060   7.317   1.824 -1.4603 -1.8058 -0.3120
 1934TIP3    H2 5764   2.030   7.398   1.700 -0.8844 -0.7787  0.2148
 1935TIP3   OH2 5765   4.374   0.816   4.391  0.1352 -0.4757  0.4135
 1935TIP3    H1 5766   4.357   0.722   4.391 -1.5144 -0.2208 -2.8920
 1935TIP3    H2 5767   4.290   0.856   4.412  0.4370  0.3174  0.1304
 1936TIP3   OH2 5768   1.865   1.248   4.106  0.4738  0.0710  0.0134
 1936TIP3    H1 5769   1.899   1.171   4.153  1.8436  1.4240  1.2928
 1936TIP3    H2 5770   1.821   1.211   4.029  0.5869 -2.0301  0.9097
 1937TIP3   OH2 5771   4.768   1.508   2.280 -0.1840  0.6318  0.0770
 1937TIP3    H1 5772   4.700   1.573   2.296  2.0335  2.5073  2.4493
 1937TIP3    H2 5773   4.790   1.518   2.188 -1.3853  1.7114 -0.1125
 1938TIP3   OH2 5774   2.935   7.016   2.912 -0.2973 -0.4298  0.1526
 1938TIP3    H1 5775   2.904   6.927   2.931  0.7568 -0.2702  2.7805
 1938TIP3    H2 5776   2.876   7.073   2.962 -0.5847  0.3226 -1.0278
 1939TIP3   OH2 5777   5.031   2.757   0.995 -0.4170  0.0646  0.0214
 1939TIP3    H1 5778   4.980   2.828   0.956 -1.8820 -0.6427  0.6041
 1939TIP3    H2 5779   5.028   2.687   0.930  1.0079  0.5096 -0.5425
 1940TIP3   OH2 5780   4.361   3.089   1.728  0.2088  0.0876  0.8362
 1940TIP3    H1 5781   4.449   3.106   1.696  0.1982 -0.2705  0.6219
 1940TIP3    H2 5782   4.303   3.120   1.658  0.2035 -1.4612  0.1565
 1941TIP3   OH2 5783   3.933   3.024   5.913  0.4813  0.0176 -0.3529
 1941TIP3    H1 5784   3.861   2.985   5.962 -0.1576  1.8234  0.1816
 1941TIP3    H2 5785   4.012   2.985   5.950 -0.1054 -0.1078  0.7825
 1942TIP3   OH2 5786   5.640   2.496   3.936  0.1292  0.3389  0.1621
 1942TIP3    H1 5787   5.626   2.555   4.010  0.8256  0.3023  0.3203
 1942TIP3    H2 5788   5.706   2.539   3.883 -0.2089  0.2560 -0.3281
 1943TIP3   OH2 5789   2.927   1.407   2.364 -0.7126  0.1918  0.4506
 1943TIP3    H1 5790   2.893   1.320   2.387  0.6949 -0.3691  0.4330
 1943TIP3    H2 5791   3.002   1.420   2.422  0.4797  0.4431 -1.1158
 1944TIP3   OH2 5792   5.614   1.836   3.779 -0.6424  0.0803 -0.3409
 1944TIP3    H1 5793   5.571   1.789   3.709 -2.2815 -0.6868  1.1420
 1944TIP3    H2 5794   5.543   1.862   3.838  0.7249  0.3515  1.2286
 1945TIP3   OH2 5795   7.638   6.863   2.835 -0.2017 -0.1903  0.1308
 1945TIP3    H1 5796   7.628   6.929   2.903  1.6733  1.5734 -1.2488
 1945TIP3    H2 5797   7.586   6.896   2.762 -0.3544 -0.9352 -0.1038
 1946TIP3   OH2 5798   1.130   5.920   2.496  0.3180  0.0137  0.3020
 1946TIP3    H1 5799   1.090   6.003   2.471  1.2594  0.2206 -0.5666
 1946TIP3    H2 5800   1.131   5.922   2.592  0.2471  0.9726  0.2869
 1947TIP3   OH2 5801   4.669   1.910   2.635 -0.4478 -0.4817  0.0533
 1947TIP3    H1 5802   4.707   1.868   2.712 -1.2096 -0.6132  0.3699
 1947TIP3    H2 5803   4.739   1.964   2.599  0.1618 -1.0565  0.3692
 1948TIP3   OH2 5804   7.289   4.668   2.481  0.2945  0.3959 -0.5198
 1948TIP3    H1 5805   7.214   4.615   2.509  0.4544  0.5364  0.1787
 1948TIP3    H2 5806   7.365   4.626   2.521  0.4774  0.8588 -0.3807
 1949TIP3   OH2 5807   1.982   7.205   5.099 -0.2909  0.4110 -0.7366
 1949TIP3    H1 5808   2.034   7.281   5.073 -0.7122 -0.1246 -3.1920
 1949TIP3    H2 5809   1.938   7.176   5.019 -2.0101 -0.9889  0.6571
 1950TIP3   OH2 5810   1.649   0.032   6.219  0.1252  0.5824 -0.5100
 1950TIP3    H1 5811   1.728  -0.010   6.185  0.6476  0.6017  0.6695
 1950TIP3    H2 5812   1.643   0.115   6.171  1.0552  0.7769 -0.2901
 1951TIP3   OH2 5813   3.200   7.195   4.673 -0.3201  0.0184 -0.3607
 1951TIP3    H1 5814   3.118   7.156   4.703 -0.8063 -0.0563 -1.7411
 1951TIP3    H2 5815   3.257   7.193   4.750 -1.6844  0.2815  0.6755
 1952TIP3   OH2 5816   3.463   6.350   4.376 -0.4081 -0.2314  0.0116
 1952TIP3    H1 5817   3.399   6.284   4.351 -2.1249  1.4968 -0.2610
 1952TIP3    H2 5818   3.457   6.353   4.472 -0.5940 -0.1969 -0.0011
 1953TIP3   OH2 5819   6.249   0.756   3.306 -0.0433  0.9247  0.4554
 1953TIP3    H1 5820   6.184   0.729   3.371 -0.0088  0.3721  0.2594
 1953TIP3    H2 5821   6.214   0.837   3.269 -1.0231  0.1800 -0.2407
 1954TIP3   OH2 5822   6.315   1.930   3.806  0.0144 -0.1607 -0.5604
 1954TIP3    H1 5823   6.397   1.923   3.758 -0.4364 -0.4020 -1.3041
 1954TIP3    H2 5824   6.284   1.840   3.814 -1.1167  0.0874 -1.9359
 1955TIP3   OH2 5825   5.985   0.341   5.520  0.4076  0.5374  0.2485
 1955TIP3    H1 5826   6.052   0.320   5.585 -1.4336  2.0745  2.7087
 1955TIP3    H2 5827   6.001   0.433   5.499  1.6337 -0.2057 -2.3363
 1956TIP3   OH2 5828   1.306   6.857   3.983  0.5241  0.5279 -0.3683
 1956TIP3    H1 5829   1.267   6.875   3.897 -0.9393  0.4256  0.2613
 1956TIP3    H2 5830   1.345   6.941   4.009 -0.9499  1.1696 -0.1684
 1957TIP3   OH2 5831   5.121   1.041   1.416  0.1842 -0.2699  0.5663
 1957TIP3    H1 5832   5.121   1.001   1.503  0.5567 -0.3757  0.5192
 1957TIP3    H2 5833   5.034   1.022   1.381 -0.5085  1.0975  1.5112
 1958TIP3   OH2 5834   7.678   7.068   1.361 -0.1241  0.8097 -0.3548
 1958TIP3    H1 5835   7.614   6.998   1.376  1.7200 -0.5959  1.1223
 1958TIP3    H2 5836   7.707   7.054   1.271 -0.7847  0.5224 -0.5273
 1959TIP3   OH2 5837   3.898   3.255   0.921 -0.0417 -0.1896  0.2491
 1959TIP3    H1 5838   3.870   3.174   0.965 -2.5825  0.8970  0.7046
 1959TIP3    H2 5839   3.842   3.261   0.844  1.8262 -0.1182 -1.1176
 1960TIP3   OH2 5840   2.053   7.325   2.640  0.4392  0.2933 -0.4964
 1960TIP3    H1 5841   1.989   7.254   2.632 -0.7819  1.1471  1.3114
 1960TIP3    H2 5842   2.085   7.317   2.730  3.8893 -0.9300 -1.7659
 1961TIP3   OH2 5843   2.144   6.355   2.610  0.1583 -0.0666 -0.0643
 1961TIP3    H1 5844   2.214   6.326   2.552  0.1759 -0.2126  0.0276
 1961TIP3    H2 5845   2.164   6.313   2.694  0.8252  1.1463  0.3921
 1962TIP3   OH2 5846   3.225   1.949   1.897 -0.1580  0.0931  0.0129
 1962TIP3    H1 5847   3.144   1.998   1.882 -0.4721 -0.7010 -0.9277
 1962TIP3    H2 5848   3.285   1.979   1.829  0.8127  1.6606  1.5111
 1963TIP3   OH2 5849   3.018   1.875   3.479 -0.4875 -0.0070 -0.0565
 1963TIP3    H1 5850   3.015   1.819   3.557 -0.2389 -0.0994 -0.1144
 1963TIP3    H2 5851   3.026   1.964   3.513  2.0061 -0.2201 -0.0226
 1964TIP3   OH2 5852   2.567   7.122   2.084  0.1836  0.0615 -0.6146
 1964TIP3    H1 5853   2.548   7.203   2.038  1.1370 -0.3741 -1.7850
 1964TIP3    H2 5854   2.646   7.087   2.042 -0.6394 -1.8576 -0.6285
 1965TIP3   OH2 5855   7.065   1.720   1.907  0.0598 -0.5680  0.3603
 1965TIP3    H1 5856   7.135   1.657   1.923  0.0915 -0.4181  0.8283
 1965TIP3    H2 5857   7.095   1.771   1.832  1.1243  0.4673  1.4774
 1966TIP3   OH2 5858   2.832   6.866   3.177  0.8402 -0.5108  0.1607
 1966TIP3    H1 5859   2.789   6.835   3.257 -1.1464  0.4521 -0.5160
 1966TIP3    H2 5860   2.863   6.954   3.199  1.4180 -0.7343  0.2580
 1967TIP3   OH2 5861   5.799   1.861   4.605  0.1951  0.0872 -0.1050
 1967TIP3    H1 5862   5.891   1.866   4.577  0.0447  0.7398 -0.4740
 1967TIP3    H2 5863   5.749   1.890   4.530 -0.2736  0.5128  0.3677
 1968TIP3   OH2 5864   3.277   7.303   3.949  0.5151 -0.6293 -0.0206
 1968TIP3    H1 5865   3.229   7.221   3.959  0.3575 -0.4774  0.4551
 1968TIP3    H2 5866   3.226   7.367   3.999  0.5484 -0.2073 -0.5278
 1969TIP3   OH2 5867   1.776   6.485   2.468 -0.2471 -0.0423 -0.2280
 1969TIP3    H1 5868   1.708   6.478   2.535  0.2149  0.4352  0.2988
 1969TIP3    H2 5869   1.768   6.404   2.417 -0.3884 -0.5575  0.6019
 1970TIP3   OH2 5870   5.338   1.192   2.444  0.1576 -0.6188 -0.4256
 1970TIP3    H1 5871   5.390   1.115   2.465 -0.3745 -0.8469  0.0636
 1970TIP3    H2 5872   5.251   1.173   2.479 -0.0703  0.0513 -0.6158
 1971TIP3   OH2 5873   4.368   1.087   2.606 -0.1571 -0.6974 -0.1316
 1971TIP3    H1 5874   4.444   1.144   2.599  0.6722 -1.6605  0.8699
 1971TIP3    H2 5875   4.404   0.998   2.603 -1.2133 -1.1572  0.5495
 1972TIP3   OH2 5876   3.895   5.796   4.886 -0.5664 -0.1015 -0.5517
 1972TIP3    H1 5877   3.864   5.780   4.975  0.3737 -1.4005 -0.4344
 1972TIP3    H2 5878   3.914   5.890   4.883 -2.1361  0.2489  0.1143
 1973TIP3   OH2 5879   7.036   0.868   0.335 -0.0083  0.8899  0.0625
 1973TIP3    H1 5880   7.073   0.831   0.415 -0.0514  1.3918  0.3196
 1973TIP3    H2 5881   7.107   0.922   0.299 -0.2602  1.3238  0.2042
 1974TIP3   OH2 5882   3.668   6.450   2.306  0.4616 -0.5117  0.2803
 1974TIP3    H1 5883   3.595   6.397   2.339  0.8250 -1.2111 -0.0388
 1974TIP3    H2 5884   3.717   6.475   2.384 -1.3062  1.7446  0.7195
 1975TIP3   OH2 5885   2.876   7.372   2.464 -0.0871  0.2389 -0.0736
 1975TIP3    H1 5886   2.878   7.391   2.557 -1.7311 -1.7952  0.4216
 1975TIP3    H2 5887   2.920   7.287   2.456 -1.3090 -0.3395 -0.9123
 1976TIP3   OH2 5888   4.943   0.586   3.597  0.3744  0.1849  0.1256
 1976TIP3    H1 5889   4.995   0.653   3.553  1.3727 -0.1915  0.7184
 1976TIP3    H2 5890   4.859   0.628   3.614  0.0460  0.3963 -1.9463
 1977TIP3   OH2 5891   3.308   2.066   2.673  0.0131 -0.1423 -0.4254
 1977TIP3    H1 5892   3.356   2.062   2.591 -1.7318 -2.8011 -1.3915
 1977TIP3    H2 5893   3.365   2.022   2.737 -0.0177 -0.9790 -0.9709
 1978TIP3   OH2 5894   2.450   4.930   2.475 -0.4723  0.0791  0.1982
 1978TIP3    H1 5895   2.419   4.860   2.533  1.0021 -1.4126 -0.7690
 1978TIP3    H2 5896   2.501   4.988   2.533  2.2689 -2.2121  0.1912
 1979TIP3   OH2 5897   3.905   1.815   3.272  0.6463 -0.0468  0.2714
 1979TIP3    H1 5898   3.974   1.762   3.232  0.9921  0.2850  0.4270
 1979TIP3    H2 5899   3.824   1.766   3.255  0.7864  0.0968 -0.8508
 1980TIP3   OH2 5900   3.002   2.900   3.071  0.2404  0.1915  0.2641
 1980TIP3    H1 5901   3.090   2.888   3.034 -0.1946 -0.2058 -0.6661
 1980TIP3    H2 5902   2.979   2.990   3.048  1.3553  1.1066  2.5953
 1981TIP3   OH2 5903   4.945   2.907   3.928  0.3298  0.9888 -0.7001
 1981TIP3    H1 5904   4.908   2.940   4.010  1.7577 -0.2855  0.5033
 1981TIP3    H2 5905   4.934   2.812   3.934  0.3714  0.8924 -2.0324
 1982TIP3   OH2 5906   4.960   2.940   4.384 -1.1558  0.2661  0.1747
 1982TIP3    H1 5907   5.051   2.920   4.363 -0.8489  1.1070  0.6332
 1982TIP3    H2 5908   4.916   2.856   4.384 -0.1943 -0.2503  0.7815
 1983TIP3   OH2 5909   4.368   2.294   5.165 -0.3085 -0.3798 -0.0882
 1983TIP3    H1 5910   4.456   2.263   5.188 -0.5729  0.4845  2.2614
 1983TIP3    H2 5911   4.345   2.245   5.086  2.4342 -0.3273 -0.9977
 1984TIP3   OH2 5912   0.976   7.244   4.449 -0.2080  0.0862 -0.2429
 1984TIP3    H1 5913   0.984   7.326   4.401  2.4974 -0.2464 -0.4450
 1984TIP3    H2 5914   0.968   7.270   4.541  0.5914  0.5934 -0.3121
 1985TIP3   OH2 5915   4.139   2.901   2.545  0.1143  0.0327  0.1880
 1985TIP3    H1 5916   4.201   2.851   2.598 -2.8858 -2.8284  1.1357
 1985TIP3    H2 5917   4.087   2.834   2.500 -0.6533  2.3850 -2.5755
 1986TIP3   OH2 5918   2.315   7.229   2.521 -0.0615  0.1154 -0.0954
 1986TIP3    H1 5919   2.232   7.220   2.473 -0.5147  1.4479  0.4183
 1986TIP3    H2 5920   2.317   7.154   2.580  0.4383 -1.4773 -2.0928
 1987TIP3   OH2 5921   4.513   0.793   2.342  0.1134  0.2518  0.0433
 1987TIP3    H1 5922   4.455   0.847   2.288 -1.6383 -1.0607  0.5591
 1987TIP3    H2 5923   4.520   0.839   2.425 -1.8111 -0.5504  0.6702
 1988TIP3   OH2 5924   5.685   1.041   2.912 -0.0979  0.1750  0.0803
 1988TIP3    H1 5925   5.716   1.131   2.909 -0.6112  0.4397  2.0023
 1988TIP3    H2 5926   5.684   1.018   3.005  0.0910 -1.8425 -0.3807
 1989TIP3   OH2 5927   2.989   0.852   3.525  0.1097 -0.3060 -0.2060
 1989TIP3    H1 5928   2.918   0.798   3.491  0.5470 -0.1114 -1.4782
 1989TIP3    H2 5929   3.065   0.794   3.528 -0.3822 -0.8574  2.3663
 1990TIP3   OH2 5930   5.125   0.032   1.977  0.4914  0.2013 -0.0511
 1990TIP3    H1 5931   5.100   0.023   1.885 -0.1078  3.7754 -0.2973
 1990TIP3    H2 5932   5.221   0.033   1.976  0.4912 -0.1049 -0.5796
 1991TIP3   OH2 5933   5.561   2.995   3.422 -0.2727 -0.3496  0.4207
 1991TIP3    H1 5934   5.508   2.932   3.470 -0.2760 -1.2701 -0.7807
 1991TIP3    H2 5935   5.562   2.963   3.332  0.2735  1.0002 -0.0774
 1992TIP3   OH2 5936   1.763   6.697   3.403 -0.0565  0.2334  0.1380
 1992TIP3    H1 5937   1.789   6.615   3.361  1.0784  0.7115 -0.0898
 1992TIP3    H2 5938   1.669   6.703   3.387  0.0423 -0.5069 -0.7377
 1993TIP3   OH2 5939   4.500   0.464   3.240  0.3198  0.1747  0.1096
 1993TIP3    H1 5940   4.489   0.372   3.263  0.1310  0.0586 -0.4409
 1993TIP3    H2 5941   4.414   0.491   3.207  0.1898  0.7266  0.8868
 1994TIP3   OH2 5942   0.311   1.612   4.406 -0.1841  0.0184 -0.7011
 1994TIP3    H1 5943   0.236   1.650   4.360 -0.6430 -0.0319  0.0042
 1994TIP3    H2 5944   0.298   1.636   4.497  1.1228  0.7759 -0.6965
 1995TIP3   OH2 5945   0.293   0.989   3.413 -0.1554 -0.1278  0.4286
 1995TIP3    H1 5946   0.317   1.071   3.457 -0.6104 -0.3361  1.0769
 1995TIP3    H2 5947   0.311   0.921   3.478 -0.6147 -0.4621  0.2101
 1996TIP3   OH2 5948   5.163   6.906   2.277 -0.1164 -0.5678 -0.0770
 1996TIP3    H1 5949   5.204   6.819   2.273  0.8806 -0.1198  0.1734
 1996TIP3    H2 5950   5.151   6.923   2.370  0.6574 -0.0092 -0.0680
 1997TIP3   OH2 5951   7.192   0.158   3.156 -0.1712  0.1523  0.4289
 1997TIP3    H1 5952   7.184   0.239   3.206 -0.3841  0.2259  0.2785
 1997TIP3    H2 5953   7.239   0.098   3.214  3.1612  1.4930 -0.7595
 1998TIP3   OH2 5954   2.639   7.242   3.652 -0.1317 -0.2188  0.1337
 1998TIP3    H1 5955   2.710   7.252   3.716 -1.4740 -0.2280  1.6798
 1998TIP3    H2 5956   2.577   7.182   3.694 -1.6957  0.8489 -0.5866
 1999TIP3   OH2 5957   4.617   0.143   1.933 -0.3836  0.4145  0.6089
 1999TIP3    H1 5958   4.597   0.223   1.981  0.1166  1.6807 -1.2394
 1999TIP3    H2 5959   4.706   0.155   1.902 -0.3798 -0.7745  0.1237
 2000TIP3   OH2 5960   0.362   1.598   2.293  0.2344  0.0629 -0.1100
 2000TIP3    H1 5961   0.323   1.648   2.221 -0.2316  1.5637  1.1598
 2000TIP3    H2 5962   0.412   1.662   2.343  2.0588 -1.3211 -0.1051
 2001TIP3   OH2 5963   7.439   1.101   2.037 -0.3676 -0.4202 -0.4165
 2001TIP3    H1 5964   7.491   1.022   2.044 -1.3334 -0.9918  0.3968
 2001TIP3    H2 5965   7.423   1.111   1.943 -0.0472 -1.0564 -0.5405
 2002TIP3   OH2 5966   4.682   6.740   2.174  0.0775  0.2646  0.2823
 2002TIP3    H1 5967   4.755   6.800   2.190 -0.6006  1.7165 -1.9411
 2002TIP3    H2 5968   4.712   6.684   2.102 -0.3849 -0.2217  0.4607
 2003TIP3   OH2 5969   5.765   7.247   3.283 -0.0082 -0.0470  0.5026
 2003TIP3    H1 5970   5.690   7.236   3.341  0.9054 -1.5490  1.4319
 2003TIP3    H2 5971   5.800   7.159   3.272  1.0703  0.5149 -0.6651
 2004TIP3   OH2 5972   5.944   1.171   3.958 -0.4013  0.0213 -0.0382
 2004TIP3    H1 5973   6.038   1.168   3.944 -0.3926  2.1228 -0.5672
 2004TIP3    H2 5974   5.911   1.090   3.918  1.0546 -0.2626 -0.6961
 2005TIP3   OH2 5975   0.501   1.287   2.402  0.1738 -0.2790 -0.8941
 2005TIP3    H1 5976   0.420   1.336   2.421  1.3803  1.6424 -0.5802
 2005TIP3    H2 5977   0.480   1.237   2.323 -1.4083  0.0080 -0.6859
 2006TIP3   OH2 5978   6.289   0.981   2.875  0.0692  0.2503  0.6969
 2006TIP3    H1 5979   6.354   0.912   2.862 -0.9656 -0.7070  0.6052
 2006TIP3    H2 5980   6.232   0.976   2.798 -0.2015  1.0050  0.8411
 2007TIP3   OH2 5981   5.101   1.434   3.585 -0.0302  0.3190  0.4849
 2007TIP3    H1 5982   5.065   1.523   3.589 -2.5664 -0.5924 -0.8355
 2007TIP3    H2 5983   5.182   1.439   3.635  0.4014  3.6313 -0.3734
 2008TIP3   OH2 5984   2.573   7.203   2.891 -0.4888 -0.3660  0.8251
 2008TIP3    H1 5985   2.512   7.129   2.881  1.4962 -2.0626  0.8933
 2008TIP3    H2 5986   2.636   7.192   2.819  0.9774  0.1098  2.0154
 2009TIP3   OH2 5987   5.581   2.072   3.533  0.2965  0.2945 -0.3029
 2009TIP3    H1 5988   5.569   2.069   3.438 -0.1664 -0.0059 -0.2340
 2009TIP3    H2 5989   5.658   2.017   3.549 -0.6249 -1.0165 -0.3350
 2010TIP3   OH2 5990   5.050   3.306   2.394  0.1562 -0.1315 -0.9384
 2010TIP3    H1 5991   4.994   3.268   2.327  2.2016 -1.2827 -2.0438
 2010TIP3    H2 5992   5.056   3.238   2.461  0.1524  0.0261 -0.7781
 2011TIP3   OH2 5993   5.400   2.633   0.942  0.2704 -0.6594  0.0909
 2011TIP3    H1 5994   5.365   2.547   0.918  0.1812 -0.1421 -1.6679
 2011TIP3    H2 5995   5.436   2.620   1.030  0.5212 -2.5713 -0.2720
 2012TIP3   OH2 5996   1.830   3.052   4.171 -0.2923  0.3406 -0.6487
 2012TIP3    H1 5997   1.890   3.025   4.102 -1.3174 -0.0311 -1.4027
 2012TIP3    H2 5998   1.789   3.132   4.138 -1.5347 -0.3915 -0.9253
 2013TIP3   OH2 5999   3.718   6.834   2.815 -0.3983  0.0871  0.0338
 2013TIP3    H1 6000   3.755   6.922   2.827  1.4108 -0.5389 -0.8589
 2013TIP3    H2 6001   3.678   6.837   2.728  1.2783 -0.5058 -0.7837
 2014TIP3   OH2 6002   6.551   1.242   2.991 -0.1728 -0.5370 -0.0419
 2014TIP3    H1 6003   6.469   1.249   2.941 -0.4916 -1.7588  0.2933
 2014TIP3    H2 6004   6.601   1.174   2.946 -0.7162 -2.0854  1.6264
 2015TIP3   OH2 6005   1.459   1.305   2.086 -0.7093 -0.0031 -0.4284
 2015TIP3    H1 6006   1.456   1.372   2.018 -2.0353 -0.5703 -0.9582
 2015TIP3    H2 6007   1.534   1.329   2.140  0.4035  0.4019 -2.1337
 2016TIP3   OH2 6008   7.616   1.886   1.647  0.1473 -0.3842  0.3931
 2016TIP3    H1 6009   7.606   1.948   1.720 -0.3037 -0.5449  0.4681
 2016TIP3    H2 6010   7.539   1.901   1.592 -0.5534 -1.6893  1.0125
 2017TIP3   OH2 6011   6.348   0.525   0.708  0.3792  0.3922 -0.6048
 2017TIP3    H1 6012   6.437   0.500   0.681  0.8920  1.1257  0.3339
 2017TIP3    H2 6013   6.356   0.541   0.802 -0.9435 -0.3421 -0.3647
 2018TIP3   OH2 6014   4.824   6.606   3.074 -0.1512  0.6612  0.1785
 2018TIP3    H1 6015   4.851   6.520   3.108 -0.3382  0.8331  0.7608
 2018TIP3    H2 6016   4.791   6.653   3.150 -1.4622  0.7109 -0.4095
 2019TIP3   OH2 6017   5.260   2.228   2.147  0.3014  0.4874  0.2062
 2019TIP3    H1 6018   5.234   2.290   2.079  1.4771 -0.0297 -0.7494
 2019TIP3    H2 6019   5.350   2.252   2.169  0.8945 -1.0539 -0.4219
 2020TIP3   OH2 6020   6.478   0.078   1.733 -0.6113 -0.1817 -0.1584
 2020TIP3    H1 6021   6.527   0.096   1.653  0.5870 -0.5143  0.4774
 2020TIP3    H2 6022   6.542   0.093   1.803 -1.3348 -0.9369  0.6692
 2021TIP3   OH2 6023   1.755   7.034   1.978 -0.0299 -0.2487  0.0599
 2021TIP3    H1 6024   1.832   7.004   1.929 -1.9698 -0.4314 -2.9771
 2021TIP3    H2 6025   1.684   6.979   1.946 -1.7493  1.0462  1.6125
 2022TIP3   OH2 6026   7.058   3.956   2.870  0.1622 -0.0890  0.1890
 2022TIP3    H1 6027   7.018   3.948   2.783 -0.7245 -0.8643  0.6464
 2022TIP3    H2 6028   7.004   4.020   2.915  0.4181  0.0618  0.2776
 2023TIP3   OH2 6029   0.053   1.000   3.236 -0.1347  0.2217 -0.4508
 2023TIP3    H1 6030   0.093   0.941   3.300 -0.0066  1.8936  1.0642
 2023TIP3    H2 6031   0.126   1.032   3.184 -0.2463 -1.1948 -1.4960
 2024TIP3   OH2 6032   7.579   1.578   4.179  0.4066  0.2759 -0.0881
 2024TIP3    H1 6033   7.661   1.531   4.184  0.7730  0.7380 -1.6066
 2024TIP3    H2 6034   7.603   1.670   4.193  0.1470  0.4043 -0.4684
 2025TIP3   OH2 6035   0.561   0.712   2.448 -0.0476 -0.1297  0.0874
 2025TIP3    H1 6036   0.535   0.748   2.363 -1.4873 -1.8150 -0.2380
 2025TIP3    H2 6037   0.491   0.649   2.469  1.0876 -0.8534  1.7926
 2026TIP3   OH2 6038   7.470   2.109   4.144 -0.0780  0.3069  0.2978
 2026TIP3    H1 6039   7.429   2.109   4.058 -1.4960 -0.7951  0.9602
 2026TIP3    H2 6040   7.548   2.163   4.133 -1.4793  2.0902 -1.0758
 2027TIP3   OH2 6041   5.362   0.762   2.880 -0.0058 -0.1236 -0.0589
 2027TIP3    H1 6042   5.387   0.835   2.824 -0.7861  0.3642  0.2235
 2027TIP3    H2 6043   5.317   0.701   2.822  0.5774 -0.3427 -0.2794
 2028TIP3   OH2 6044   5.079   0.233   2.772 -0.2959  0.2547 -1.0619
 2028TIP3    H1 6045   5.121   0.158   2.731  0.3070  0.2843 -0.5001
 2028TIP3    H2 6046   5.037   0.280   2.699  1.2705  0.6381 -1.7447
 2029TIP3   OH2 6047   5.795   2.013   2.893 -0.9191  0.5639 -0.1464
 2029TIP3    H1 6048   5.812   1.921   2.912  0.1702  0.6652 -0.6078
 2029TIP3    H2 6049   5.846   2.061   2.958  1.7568  0.8890 -2.4035
 2030TIP3   OH2 6050   5.845   6.521   2.686 -0.3553  0.6163 -1.0111
 2030TIP3    H1 6051   5.828   6.431   2.659  0.1599 -0.3138  1.6035
 2030TIP3    H2 6052   5.941   6.529   2.687 -0.3831  0.9460 -0.5021
 2031TIP3   OH2 6053   5.570   1.645   2.348  0.0740 -0.1390  0.1338
 2031TIP3    H1 6054   5.613   1.721   2.307  1.0391 -0.5312  0.3885
 2031TIP3    H2 6055   5.628   1.572   2.328  0.9577 -0.2212  2.7895
 2032TIP3   OH2 6056   7.323   1.228   0.712 -0.8016  0.1465  0.2556
 2032TIP3    H1 6057   7.250   1.167   0.717  0.5380 -1.3982  1.6432
 2032TIP3    H2 6058   7.338   1.241   0.618 -0.7027 -2.1801 -0.0728
 2033TIP3   OH2 6059   6.085   2.182   1.025  0.0282  0.3757  0.9834
 2033TIP3    H1 6060   6.081   2.099   1.071 -0.5550 -0.1165  0.0636
 2033TIP3    H2 6061   6.133   2.240   1.084 -0.8639 -0.1894  2.2862
 2034TIP3   OH2 6062   5.981   0.216   3.439 -0.3470  0.4227  0.1564
 2034TIP3    H1 6063   6.064   0.211   3.486  0.3065 -1.5699 -1.1536
 2034TIP3    H2 6064   5.979   0.305   3.403  0.5555  0.9437  1.3893
 2035TIP3   OH2 6065   0.213   0.128   2.969  0.4679 -0.0581 -0.5348
 2035TIP3    H1 6066   0.233   0.035   2.982 -1.6750 -0.3075  1.3490
 2035TIP3    H2 6067   0.118   0.133   2.980  0.4475  2.2132 -1.5794
 2036TIP3   OH2 6068   5.986   0.955   1.387 -0.0496  0.3750  0.4792
 2036TIP3    H1 6069   5.906   0.977   1.434 -0.2364  0.6246  0.0448
 2036TIP3    H2 6070   5.967   0.974   1.296  0.9429  1.7067  0.5296
 2037TIP3   OH2 6071   5.582   0.609   3.765  0.3486  0.8306 -0.2642
 2037TIP3    H1 6072   5.641   0.559   3.821 -0.0348  1.3391  0.5976
 2037TIP3    H2 6073   5.594   0.571   3.678  2.2474  1.2050 -0.1886
 2038TIP3   OH2 6074   3.018   6.120   0.097  0.0049  0.5198  0.2281
 2038TIP3    H1 6075   3.110   6.096   0.099  0.0552  0.7362  0.6289
 2038TIP3    H2 6076   3.018   6.213   0.074 -0.1477  0.3375 -0.5142
 2039TIP3   OH2 6077   5.744   7.105   2.054  0.0882 -0.6167 -0.0647
 2039TIP3    H1 6078   5.834   7.107   2.085  0.0735  2.8928 -0.0947
 2039TIP3    H2 6079   5.696   7.056   2.121  1.6478 -0.8650  0.8799
 2040TIP3   OH2 6080   0.362   7.200   4.862 -0.0397 -0.1002 -0.5067
 2040TIP3    H1 6081   0.283   7.244   4.832 -0.0845  1.4065  1.6852
 2040TIP3    H2 6082   0.330   7.136   4.927  0.3392 -1.0838 -1.2784
 2041TIP3   OH2 6083   4.994   6.928   3.271  0.1704 -0.0959 -0.1417
 2041TIP3    H1 6084   4.966   6.854   3.217 -1.9698  0.8776 -0.4263
 2041TIP3    H2 6085   4.999   7.001   3.210 -0.1906  0.5390  0.5820
 2042TIP3   OH2 6086   4.268   6.843   3.343  0.0299 -0.9799  0.6711
 2042TIP3    H1 6087   4.312   6.861   3.260  2.2892 -0.8227  1.8625
 2042TIP3    H2 6088   4.179   6.821   3.318  0.1647  0.8860 -1.6623
 2043TIP3   OH2 6089   4.992   1.410   1.662  0.1360 -0.2130 -0.5524
 2043TIP3    H1 6090   4.974   1.468   1.736  1.8009  0.1471 -0.4039
 2043TIP3    H2 6091   5.010   1.325   1.701  0.7380 -0.0888 -0.5511
 2044TIP3   OH2 6092   6.188   0.998   3.120  0.6040 -0.4410  0.9883
 2044TIP3    H1 6093   6.145   1.083   3.119  0.7472 -0.3719  0.7314
 2044TIP3    H2 6094   6.228   0.990   3.033  0.8932 -0.6145  1.1381
 2045TIP3   OH2 6095   5.282   0.748   1.979  0.4463  0.0764  0.0054
 2045TIP3    H1 6096   5.322   0.677   2.029  0.9923  1.7868  2.0565
 2045TIP3    H2 6097   5.347   0.770   1.912  0.2422 -1.3716 -0.6919
 2046TIP3   OH2 6098   0.106   2.674   1.946 -0.3795 -0.3283  0.5546
 2046TIP3    H1 6099   0.180   2.651   1.890 -0.5409  0.4231  0.0230
 2046TIP3    H2 6100   0.081   2.762   1.918 -0.9362 -0.2395  1.3063
 2047TIP3   OH2 6101   0.023   1.194   3.568  0.0053  0.1217  0.2628
 2047TIP3    H1 6102  -0.005   1.173   3.479  0.3245 -2.1598  0.6676
 2047TIP3    H2 6103   0.114   1.222   3.559  0.3469 -1.0306 -0.0635
 2048TIP3   OH2 6104   5.125   0.445   1.550 -0.1562 -0.1587 -0.2657
 2048TIP3    H1 6105   5.173   0.363   1.537  0.3157  0.3737 -1.9237
 2048TIP3    H2 6106   5.180   0.496   1.608  0.3280 -0.3584 -0.5470
 2049TIP3   OH2 6107   0.414   3.352   4.043  0.0135  0.7696 -0.2689
 2049TIP3    H1 6108   0.381   3.405   3.970 -0.9921 -1.1245 -1.2314
 2049TIP3    H2 6109   0.436   3.268   4.002 -1.2981 -0.5829  1.7659
 2050TIP3   OH2 6110   5.923   2.272   4.323 -0.3522  0.2588  0.1198
 2050TIP3    H1 6111   5.940   2.364   4.343  1.9249  0.0760 -0.7584
 2050TIP3    H2 6112   6.010   2.235   4.311 -1.2443 -2.0622  0.6404
 2051TIP3   OH2 6113   6.507   1.299   3.245  0.4487 -0.4109 -0.7927
 2051TIP3    H1 6114   6.499   1.250   3.163  0.8016  0.0966 -1.1344
 2051TIP3    H2 6115   6.569   1.369   3.225  1.6035 -1.1102  0.2996
 2052TIP3   OH2 6116   3.459   2.518   2.313 -0.2123  0.6053  0.0083
 2052TIP3    H1 6117   3.553   2.511   2.333 -0.0482 -0.1374 -1.0065
 2052TIP3    H2 6118   3.455   2.515   2.217 -1.3938 -0.7627  0.0983
 2053TIP3   OH2 6119   4.289   1.079   1.926  0.0587  0.7128 -0.5447
 2053TIP3    H1 6120   4.320   1.101   1.838 -0.0247 -2.0969 -1.3587
 2053TIP3    H2 6121   4.336   0.998   1.948 -1.8512 -0.0622  0.8736
 2054TIP3   OH2 6122   1.848   2.725   1.542 -0.1343 -0.0381 -0.0711
 2054TIP3    H1 6123   1.840   2.660   1.473  3.6267 -2.0382  1.2359
 2054TIP3    H2 6124   1.895   2.680   1.612 -0.3249  3.1234  2.2157
 2055TIP3   OH2 6125   1.281   3.030   2.691 -0.0542  0.1612 -0.1390
 2055TIP3    H1 6126   1.187   3.039   2.673 -0.0771 -0.1351 -0.1626
 2055TIP3    H2 6127   1.308   2.953   2.640 -0.2009 -0.9198  1.3947
 2056TIP3   OH2 6128   3.806   2.256   2.911 -0.1485 -0.4451  0.1226
 2056TIP3    H1 6129   3.758   2.204   2.846  0.4962 -0.8204 -0.0576
 2056TIP3    H2 6130   3.875   2.198   2.942  0.3772  0.1980  0.1575
 2057TIP3   OH2 6131   7.691   0.698   2.794 -0.1226 -0.1181  0.4255
 2057TIP3    H1 6132   7.598   0.700   2.815 -0.1957 -2.3253  0.3605
 2057TIP3    H2 6133   7.721   0.788   2.810 -2.9100  1.4884 -2.6141
 2058TIP3   OH2 6134   5.378   0.877   2.217  0.4103  0.4004  0.2564
 2058TIP3    H1 6135   5.422   0.921   2.290  0.6231 -0.0851  0.4229
 2058TIP3    H2 6136   5.449   0.857   2.156 -0.1134  3.4179 -1.4741
 2059TIP3   OH2 6137   4.339   7.291   2.814  0.8640  0.2983 -0.2685
 2059TIP3    H1 6138   4.417   7.270   2.865  2.2767  0.1917 -2.4034
 2059TIP3    H2 6139   4.273   7.316   2.879  2.5468 -0.0233  1.5883
 2060TIP3   OH2 6140   7.547   1.725   2.832  0.4203  0.3275 -0.3693
 2060TIP3    H1 6141   7.628   1.687   2.865 -0.3622  0.2898  1.5914
 2060TIP3    H2 6142   7.538   1.690   2.743  1.3165 -1.5655  0.2654
 2061TIP3   OH2 6143   5.150   1.112   4.109 -0.4993  0.1423  0.1849
 2061TIP3    H1 6144   5.220   1.153   4.059 -1.1418 -0.4204 -1.1806
 2061TIP3    H2 6145   5.189   1.031   4.142 -0.0525  0.5512  0.6742
 2062TIP3   OH2 6146   4.974   0.803   4.339 -0.0287 -0.4048 -0.3141
 2062TIP3    H1 6147   4.898   0.780   4.392 -0.5501 -2.0346 -1.7161
 2062TIP3    H2 6148   4.958   0.893   4.312  0.1362  0.3659  2.0832
 2063TIP3   OH2 6149   6.677   2.797   1.032  0.4279 -0.2270  0.1365
 2063TIP3    H1 6150   6.748   2.781   0.971  0.7218  3.3960 -0.5967
 2063TIP3    H2 6151   6.717   2.791   1.119  1.4055  0.7324 -0.2426
 2064TIP3   OH2 6152   3.176   6.152   3.817  0.7066 -0.4224  0.2717
 2064TIP3    H1 6153   3.088   6.173   3.787  0.8247  1.4791  1.1948
 2064TIP3    H2 6154   3.209   6.091   3.752 -0.3922  0.7371 -1.4270
 2065TIP3   OH2 6155   5.863   1.330   2.946 -0.5745  0.5261  0.0916
 2065TIP3    H1 6156   5.866   1.425   2.934 -0.2797  0.5036 -0.0152
 2065TIP3    H2 6157   5.946   1.308   2.989 -0.6413  0.3184  0.1168
 2066TIP3   OH2 6158   5.545   1.000   1.848  0.1727 -0.1398  0.0571
 2066TIP3    H1 6159   5.515   1.066   1.911  0.5539 -0.3794  0.4875
 2066TIP3    H2 6160   5.519   1.036   1.763 -0.1028  0.3120  0.3250
 2067TIP3   OH2 6161   4.064   6.485   1.792  0.3223 -0.5245  0.3542
 2067TIP3    H1 6162   4.103   6.570   1.812  1.6910 -1.1316  0.2718
 2067TIP3    H2 6163   4.096   6.464   1.705 -0.6615 -0.7592  0.0493
 2068TIP3   OH2 6164   7.025   1.097   0.761  1.0675  0.1468  0.4179
 2068TIP3    H1 6165   7.030   1.161   0.833  1.4732 -0.0908  0.6014
 2068TIP3    H2 6166   6.952   1.041   0.784  2.0219 -0.7510  1.3240
 2069TIP3   OH2 6167   4.626   0.309   2.614 -0.0313  0.2445 -0.6061
 2069TIP3    H1 6168   4.710   0.283   2.577 -1.4024 -1.7525 -2.4185
 2069TIP3    H2 6169   4.574   0.229   2.614 -2.1463  1.5856 -0.0601
 2070TIP3   OH2 6170   0.671   1.985   3.111  0.3476  0.3221 -0.0011
 2070TIP3    H1 6171   0.654   2.031   3.029 -0.0849 -0.2692 -0.2378
 2070TIP3    H2 6172   0.603   2.016   3.171 -0.4428 -0.6122 -0.3974
 2071TIP3   OH2 6173   5.856   1.072   1.731  0.5190 -0.0286 -0.7363
 2071TIP3    H1 6174   5.822   1.141   1.788  1.7152 -0.1358  0.1217
 2071TIP3    H2 6175   5.833   1.101   1.643  1.1037  1.5268 -0.3949
 2072TIP3   OH2 6176   7.389   0.396   0.721 -0.1774  0.6052 -0.1836
 2072TIP3    H1 6177   7.465   0.346   0.690 -0.8179 -0.9005  0.6553
 2072TIP3    H2 6178   7.395   0.393   0.817 -0.6321  1.5254 -0.1137
 2073TIP3   OH2 6179   6.358   0.941   2.303  0.4648 -0.0557  0.1664
 2073TIP3    H1 6180   6.372   0.988   2.220 -2.2516  0.9362  0.1962
 2073TIP3    H2 6181   6.345   1.010   2.368  4.7430 -0.7894  1.9369
 2074TIP3   OH2 6182   5.946   2.637   3.013  0.1776  0.0313 -0.2161
 2074TIP3    H1 6183   5.942   2.703   2.943 -0.0113 -0.5943 -0.7993
 2074TIP3    H2 6184   5.879   2.664   3.075  0.9999  1.1414  0.2137
 2075TIP3   OH2 6185   7.785   1.981   1.088  0.0174 -0.4529 -0.7389
 2075TIP3    H1 6186   7.818   2.033   1.016  2.4121 -0.1985  0.4928
 2075TIP3    H2 6187   7.785   1.891   1.056 -0.9948 -0.1028 -1.7542
 2076TIP3   OH2 6188   5.269   0.722   1.034  0.3539  0.1290 -0.1972
 2076TIP3    H1 6189   5.277   0.663   1.108 -1.3125  1.0983  0.8034
 2076TIP3    H2 6190   5.205   0.680   0.977 -0.7564  0.8982  0.4671
 2077TIP3   OH2 6191   6.797   1.058   1.656  0.1770 -0.5152  0.3515
 2077TIP3    H1 6192   6.878   1.009   1.649 -0.9813 -2.5678  1.0890
 2077TIP3    H2 6193   6.758   1.030   1.739 -1.6809 -0.1895 -0.3824
 2078TIP3   OH2 6194   1.012   3.208   5.992 -0.2212 -0.2470 -0.1196
 2078TIP3    H1 6195   1.002   3.113   5.979 -2.6516 -0.7451  4.3398
 2078TIP3    H2 6196   0.931   3.245   5.959 -0.3802 -0.0063  0.5449
 2079TIP3   OH2 6197   7.277   1.760   0.651 -0.1574  0.2008  0.3434
 2079TIP3    H1 6198   7.224   1.739   0.727  0.2877 -0.9250  0.3469
 2079TIP3    H2 6199   7.222   1.736   0.576  0.7558 -2.0461  0.3563
 2080TIP3   OH2 6200   6.359   3.254   3.786  0.4201  1.0056  0.4397
 2080TIP3    H1 6201   6.284   3.295   3.744  0.6741  0.8781 -0.1437
 2080TIP3    H2 6202   6.322   3.209   3.863 -0.1829  0.4828 -0.1498
 2081TIP3   OH2 6203   7.503   1.653   1.769 -0.2552 -0.3174 -0.2374
 2081TIP3    H1 6204   7.545   1.730   1.730  2.5380 -1.1708  0.9404
 2081TIP3    H2 6205   7.517   1.583   1.705  3.2361 -1.4171  1.5859
 2082TIP3   OH2 6206   6.397   2.437   3.403 -0.1407 -0.1710 -0.3342
 2082TIP3    H1 6207   6.324   2.402   3.455 -0.8856  1.6069 -0.1366
 2082TIP3    H2 6208   6.475   2.414   3.453 -0.6496 -1.2096 -0.0213
 2083TIP3   OH2 6209   4.334   2.227   2.519 -0.4683  0.0318 -0.1110
 2083TIP3    H1 6210   4.286   2.162   2.468 -3.3016 -0.6599  3.2557
 2083TIP3    H2 6211   4.383   2.176   2.583  0.1149  1.0551  0.2775
 2084TIP3   OH2 6212   6.555   0.965   0.105  0.1757  0.4367  0.6340
 2084TIP3    H1 6213   6.533   0.961   0.199  1.0073 -0.5855  0.7918
 2084TIP3    H2 6214   6.506   0.892   0.066  0.1586  0.6076  0.3368
 2085TIP3   OH2 6215   7.086   1.819   3.692  0.0580 -0.3922  0.0983
 2085TIP3    H1 6216   7.097   1.891   3.754 -1.1269 -1.0423  1.0714
 2085TIP3    H2 6217   7.019   1.763   3.731 -0.0001 -1.3235 -1.2965
 2086TIP3   OH2 6218   0.998   5.961   4.543  0.0925 -0.1112 -0.0629
 2086TIP3    H1 6219   0.904   5.974   4.532  0.1870 -0.4828 -1.4025
 2086TIP3    H2 6220   1.027   6.037   4.593 -0.7012  0.7234 -0.8441
 2087TIP3   OH2 6221   5.177   0.462   2.901  0.4086 -0.1280  0.1653
 2087TIP3    H1 6222   5.218   0.514   2.831 -0.6960 -0.8615 -1.0489
 2087TIP3    H2 6223   5.148   0.382   2.857 -0.2392 -0.6326  1.4901
 2088TIP3   OH2 6224   5.781   1.152   2.612  0.0224 -0.0920  0.4169
 2088TIP3    H1 6225   5.791   1.164   2.518 -0.2392 -0.5662  0.3272
 2088TIP3    H2 6226   5.713   1.215   2.637  1.6571  1.6225  0.6747
 2089TIP3   OH2 6227   0.573   2.086   6.063  0.6887 -0.3052 -0.7154
 2089TIP3    H1 6228   0.494   2.114   6.017 -0.3931  1.0347  1.8470
 2089TIP3    H2 6229   0.645   2.107   6.004 -0.6569  1.2135 -1.8327
 2090TIP3   OH2 6230   5.483   2.126   0.603 -0.2965  0.0863  0.0658
 2090TIP3    H1 6231   5.461   2.114   0.511 -1.9416 -0.7825  0.5436
 2090TIP3    H2 6232   5.493   2.221   0.613  0.5584  0.1296 -1.1380
 2091TIP3   OH2 6233   7.373   1.201   2.958 -0.0083 -0.0254  0.1986
 2091TIP3    H1 6234   7.304   1.142   2.988 -0.4268  0.5844  0.4443
 2091TIP3    H2 6235   7.334   1.245   2.882 -0.1064  0.7466  0.6916
 2092TIP3   OH2 6236   4.740   1.973   0.038 -0.1565 -0.6671  0.2970
 2092TIP3    H1 6237   4.661   1.984   0.092  0.1608 -0.2768  0.6776
 2092TIP3    H2 6238   4.735   2.045  -0.026 -0.0302 -0.5540  0.4151
 2093TIP3   OH2 6239   4.983   1.898   4.381  0.2119  0.0414 -0.3395
 2093TIP3    H1 6240   4.988   1.968   4.317 -0.5059  0.9083  0.5356
 2093TIP3    H2 6241   5.063   1.907   4.433  0.5926 -0.4050 -0.8376
 2094TIP3   OH2 6242   0.272   0.032   0.675 -0.2320 -0.5911  0.0893
 2094TIP3    H1 6243   0.182   0.025   0.642  0.4838 -1.4255 -1.7428
 2094TIP3    H2 6244   0.320  -0.037   0.630  0.9712 -1.2649  2.3539
 2095TIP3   OH2 6245   0.801   1.311   1.476  0.1897  0.0542  0.1336
 2095TIP3    H1 6246   0.801   1.380   1.542  1.7579 -0.5662  0.7922
 2095TIP3    H2 6247   0.743   1.244   1.512  0.1727  0.1929  0.3691
 2096TIP3   OH2 6248   5.607   0.087   5.187  0.1684 -0.0175  0.1300
 2096TIP3    H1 6249   5.548   0.162   5.191  1.3372  0.9413 -0.1579
 2096TIP3    H2 6250   5.561   0.022   5.135 -1.6358 -0.2166  1.9400
 2097TIP3   OH2 6251   2.906   5.882   2.426 -0.3180  0.0140 -0.3048
 2097TIP3    H1 6252   2.925   5.959   2.373 -0.5562  0.4949  0.3037
 2097TIP3    H2 6253   2.879   5.816   2.363 -0.4435  0.5311 -0.7960
 2098TIP3   OH2 6254   6.256   0.612   4.734 -0.1734  0.0850 -0.6808
 2098TIP3    H1 6255   6.254   0.562   4.815  1.3321 -1.0451 -1.3161
 2098TIP3    H2 6256   6.209   0.693   4.754  2.6558  1.1270  2.1918
 2099TIP3   OH2 6257   6.745   7.310   3.008  0.1462  0.7651 -0.6933
 2099TIP3    H1 6258   6.724   7.330   3.099 -0.1998 -0.3412 -0.5331
 2099TIP3    H2 6259   6.665   7.275   2.970  1.5125 -3.1210 -0.1679
 2100TIP3   OH2 6260   1.494   6.960   3.419  0.2243  0.6388 -0.2243
 2100TIP3    H1 6261   1.466   6.921   3.336  1.2713  2.1785 -1.3249
 2100TIP3    H2 6262   1.414   6.967   3.471 -0.1674 -1.9081 -0.4247
 2101TIP3   OH2 6263   7.133   0.820   3.902 -0.1747 -0.4279  0.0540
 2101TIP3    H1 6264   7.057   0.769   3.874 -0.2944  0.6606 -1.6548
 2101TIP3    H2 6265   7.099   0.908   3.915  0.8546  0.1371 -1.0495
 2102TIP3   OH2 6266   0.271   2.053   2.153 -0.3281  0.3166  0.0739
 2102TIP3    H1 6267   0.196   1.997   2.136 -2.1559  3.1477 -1.5251
 2102TIP3    H2 6268   0.288   2.043   2.247 -0.8738 -2.5288 -0.1039
 2103TIP3   OH2 6269   7.298   1.066   3.369 -0.3954  0.3398  0.1127
 2103TIP3    H1 6270   7.209   1.100   3.382 -0.3258  1.2736 -1.6644
 2103TIP3    H2 6271   7.285   0.973   3.349 -0.8736  0.1794  1.1374
 2104TIP3   OH2 6272   6.651   1.074   3.876 -0.2685 -0.4263 -0.6167
 2104TIP3    H1 6273   6.585   1.045   3.938  0.4122 -0.7776 -0.0594
 2104TIP3    H2 6274   6.734   1.069   3.924  0.1856 -0.1322 -1.3590
 2105TIP3   OH2 6275   5.591   0.683   3.217  0.3115  0.1220  0.5113
 2105TIP3    H1 6276   5.611   0.593   3.191  0.1738 -0.0897  1.1485
 2105TIP3    H2 6277   5.498   0.693   3.196  0.9373  0.9824 -2.0845
 2106TIP3   OH2 6278   5.005   2.827   2.324  0.1675 -0.3087 -0.1145
 2106TIP3    H1 6279   4.980   2.886   2.253 -0.5689 -0.7136 -0.2032
 2106TIP3    H2 6280   4.980   2.873   2.404  1.4034  0.3391 -0.0829
 2107TIP3   OH2 6281   5.964   2.683   1.180  0.5602  0.1191 -0.3840
 2107TIP3    H1 6282   5.963   2.640   1.095 -0.0044  0.3250 -0.4884
 2107TIP3    H2 6283   5.965   2.777   1.160  0.7719  0.1665 -0.1635
 2108TIP3   OH2 6284   4.015   1.744   1.324 -0.7420  0.3016  0.8072
 2108TIP3    H1 6285   4.023   1.690   1.246  0.2705 -0.2186  1.2597
 2108TIP3    H2 6286   3.932   1.791   1.312 -0.7193  0.0416 -0.4470
 2109TIP3   OH2 6287   4.884   0.553   2.497  0.2344  0.4582  0.3090
 2109TIP3    H1 6288   4.880   0.458   2.486  1.1833  0.5965 -1.4264
 2109TIP3    H2 6289   4.796   0.584   2.477  0.3386  0.0808 -0.7938
 2110TIP3   OH2 6290   6.736   0.333   2.246 -0.4831 -0.2605 -0.3899
 2110TIP3    H1 6291   6.800   0.264   2.230  1.5404  0.9882  1.9341
 2110TIP3    H2 6292   6.685   0.301   2.321 -1.0355 -0.2238 -0.7493
 2111TIP3   OH2 6293   2.365   0.693   2.810  0.1779 -0.2898  0.2881
 2111TIP3    H1 6294   2.385   0.762   2.873 -0.6481 -0.6198  0.9248
 2111TIP3    H2 6295   2.269   0.695   2.801  0.3170  0.0692 -1.3172
 2112TIP3   OH2 6296   7.588   2.108   3.199  0.0747  0.6880 -0.5088
 2112TIP3    H1 6297   7.493   2.108   3.200 -0.0035 -3.1779  1.0688
 2112TIP3    H2 6298   7.614   2.151   3.280 -0.3873 -0.2078  0.1166
 2113TIP3   OH2 6299   0.624   0.999   2.504 -0.7285  0.1314 -0.1106
 2113TIP3    H1 6300   0.650   0.954   2.424 -0.6693  0.3991 -0.2419
 2113TIP3    H2 6301   0.615   1.091   2.479 -0.4778  0.2557  0.2437
 2114TIP3   OH2 6302   6.951   3.083   3.427  0.2348  0.4190  0.7113
 2114TIP3    H1 6303   6.916   3.172   3.429  1.2845  0.8281  1.1835
 2114TIP3    H2 6304   7.045   3.094   3.413  0.4808 -0.5818  1.5170
 2115TIP3   OH2 6305   3.889   2.099   3.760  0.6552 -0.0001  0.3539
 2115TIP3    H1 6306   3.915   2.183   3.798  0.0475  0.6851 -0.7176
 2115TIP3    H2 6307   3.797   2.112   3.735  1.0550 -0.3971 -1.4065
 2116TIP3   OH2 6308   4.469   7.070   3.650  0.9007  0.0212  0.4506
 2116TIP3    H1 6309   4.526   7.123   3.706  0.8211 -0.7324  1.2611
 2116TIP3    H2 6310   4.386   7.066   3.697 -0.4574  2.6792 -1.6198
 2117TIP3   OH2 6311   5.605   0.838   2.058 -0.0531 -0.1080 -0.7845
 2117TIP3    H1 6312   5.668   0.771   2.033  0.6863 -0.0545  0.9086
 2117TIP3    H2 6313   5.596   0.892   1.979 -0.7554 -2.2212 -2.2050
 2118TIP3   OH2 6314   5.406   0.426   4.059  0.1563  0.4423 -0.7309
 2118TIP3    H1 6315   5.475   0.421   3.992 -0.1938 -0.0586 -1.0644
 2118TIP3    H2 6316   5.389   0.519   4.070 -0.2451  0.5011 -1.8246
 2119TIP3   OH2 6317   6.627   2.713   2.310  0.3769  0.1128  0.6824
 2119TIP3    H1 6318   6.638   2.657   2.233 -1.8880  0.3560  0.1466
 2119TIP3    H2 6319   6.616   2.651   2.383  0.7011 -0.1201  0.5358
 2120TIP3   OH2 6320   6.344   3.973   3.870 -0.1413  0.8814  0.4468
 2120TIP3    H1 6321   6.280   3.926   3.816  0.9869 -1.9792  1.4554
 2120TIP3    H2 6322   6.297   3.992   3.951 -0.2294  0.3375  0.5255
 2121TIP3   OH2 6323   5.608   7.126   2.492  0.4317 -0.3637  0.2230
 2121TIP3    H1 6324   5.518   7.139   2.460 -0.2130  0.1778  2.1562
 2121TIP3    H2 6325   5.655   7.089   2.418 -1.3095 -0.3018 -0.9408
 2122TIP3   OH2 6326   5.765   1.626   2.040  0.6916  0.1326 -0.7708
 2122TIP3    H1 6327   5.840   1.657   1.988  0.2207  0.6220 -1.1646
 2122TIP3    H2 6328   5.742   1.701   2.094  1.6443 -0.6154  0.6870
 2123TIP3   OH2 6329   6.587   2.317   2.721  0.1388  0.3243  0.3889
 2123TIP3    H1 6330   6.590   2.239   2.666  1.2880  0.0130  0.8990
 2123TIP3    H2 6331   6.500   2.355   2.703  0.0841 -0.3516 -0.8302
 2124TIP3   OH2 6332   7.654   2.232   3.774 -0.3582 -0.3921  0.4078
 2124TIP3    H1 6333   7.560   2.221   3.767 -0.3805  0.7293 -1.4458
 2124TIP3    H2 6334   7.691   2.156   3.730 -0.3837 -1.0892  1.5788
 2125TIP3   OH2 6335   5.910   2.869   4.692 -0.1501 -0.1586 -0.5548
 2125TIP3    H1 6336   5.981   2.890   4.631  0.6520 -2.6699 -0.5400
 2125TIP3    H2 6337   5.945   2.800   4.747 -1.7408  0.3651  1.1565
 2126TIP3   OH2 6338   1.843   1.033   3.202 -0.1115 -0.0352 -0.5307
 2126TIP3    H1 6339   1.878   0.962   3.256 -1.0730 -1.7095 -2.0606
 2126TIP3    H2 6340   1.917   1.060   3.148  0.1694 -0.0999 -0.1834
 2127TIP3   OH2 6341   1.392   2.287   4.030 -0.0719  0.1793  0.3791
 2127TIP3    H1 6342   1.390   2.312   3.938 -0.1953  0.0572  0.3479
 2127TIP3    H2 6343   1.482   2.306   4.058 -0.6322  2.2539  0.8170
 2128TIP3   OH2 6344   7.135   0.128   3.832  0.3924  0.1783  0.7395
 2128TIP3    H1 6345   7.061   0.112   3.890  0.3851  2.4670  1.3838
 2128TIP3    H2 6346   7.096   0.134   3.744  0.0934 -0.6816  0.8070
 2129TIP3   OH2 6347   6.941   2.233   2.139 -0.2526 -1.0899  0.1123
 2129TIP3    H1 6348   6.990   2.309   2.109 -0.7577  0.1847  2.4270
 2129TIP3    H2 6349   6.949   2.234   2.234 -4.3193 -1.1233  0.5607
 2130TIP3   OH2 6350   6.591   1.985   2.768  0.9510  0.2633 -0.2975
 2130TIP3    H1 6351   6.584   1.900   2.811 -0.4569  0.5365  0.0295
 2130TIP3    H2 6352   6.627   2.043   2.834  0.0325  0.3739  0.1164
 2131TIP3   OH2 6353   5.921   1.190   1.255  0.2166 -0.0795 -0.2909
 2131TIP3    H1 6354   6.006   1.212   1.293 -0.1993  1.9994 -0.4940
 2131TIP3    H2 6355   5.939   1.171   1.163  0.9904 -3.5096  0.5028
 2132TIP3   OH2 6356   7.704   2.445   1.753  0.2494 -0.4179  0.1217
 2132TIP3    H1 6357   7.721   2.429   1.846  0.2331  0.5864  0.3017
 2132TIP3    H2 6358   7.789   2.438   1.711  0.0841 -2.1233  0.0082
 2133TIP3   OH2 6359   6.086   3.783   2.697 -0.3386 -0.0038 -0.1449
 2133TIP3    H1 6360   6.120   3.708   2.649  0.9804  0.0687  0.6472
 2133TIP3    H2 6361   6.134   3.858   2.661  0.0778  0.1479  0.7117
 2134TIP3   OH2 6362   0.572   2.564   4.162  0.7533 -0.0757  0.2137
 2134TIP3    H1 6363   0.668   2.555   4.163  0.8537  0.7126 -0.8704
 2134TIP3    H2 6364   0.543   2.491   4.107  1.1042  2.2587 -3.2781
 2135TIP3   OH2 6365   6.955   2.535   1.661 -0.1530  0.0078 -0.1255
 2135TIP3    H1 6366   6.968   2.450   1.702 -0.9619  0.9654  2.2176
 2135TIP3    H2 6367   7.042   2.560   1.629  0.0861 -1.6778 -0.8091
 2136TIP3   OH2 6368   1.036   3.238   4.563  0.2934 -0.6645 -0.1611
 2136TIP3    H1 6369   1.005   3.227   4.473  1.9535 -0.6342 -0.7510
 2136TIP3    H2 6370   1.128   3.215   4.559  0.3722 -0.6688  1.5517
 2137TIP3   OH2 6371   3.039   5.814   0.527 -0.0995 -0.6999  0.4039
 2137TIP3    H1 6372   2.989   5.823   0.445 -0.6685  0.3305  0.8513
 2137TIP3    H2 6373   3.130   5.821   0.500 -0.1406 -3.1256 -0.5013
 2138TIP3   OH2 6374   1.457   3.004   4.355  0.4115  0.6635 -0.4352
 2138TIP3    H1 6375   1.548   3.032   4.364  0.7755 -0.2926 -0.9682
 2138TIP3    H2 6376   1.458   2.912   4.381 -0.4703  0.7505 -0.1014
 2139TIP3   OH2 6377   1.209   1.208   2.484  0.6378 -0.0657  0.5120
 2139TIP3    H1 6378   1.178   1.287   2.438 -1.1595 -1.3451 -0.5428
 2139TIP3    H2 6379   1.258   1.160   2.418 -0.7315 -1.2169  0.3178
 2140TIP3   OH2 6380   1.341   3.270   3.473  0.7544  0.3395 -0.1207
 2140TIP3    H1 6381   1.389   3.351   3.490 -0.7126  1.6051 -1.7929
 2140TIP3    H2 6382   1.388   3.230   3.399  0.4237  0.5632 -0.4519
 2141TIP3   OH2 6383   0.750   1.809   3.834 -0.3922  0.1561  0.5858
 2141TIP3    H1 6384   0.823   1.841   3.781  0.8156 -1.9969  0.8996
 2141TIP3    H2 6385   0.781   1.813   3.924 -1.0738  0.3009  0.8195
 2142TIP3   OH2 6386   0.715   2.169   3.887  0.3564  0.1150 -0.3195
 2142TIP3    H1 6387   0.751   2.101   3.944  0.1186  1.5446  1.6101
 2142TIP3    H2 6388   0.650   2.213   3.941  1.0256  2.3464 -1.2721
 2143TIP3   OH2 6389   0.105   1.769   4.259 -0.0683  0.1487  0.1703
 2143TIP3    H1 6390   0.013   1.793   4.244 -0.6184 -1.5513  0.7644
 2143TIP3    H2 6391   0.133   1.729   4.177  0.1004  0.5534  0.0317
 2144TIP3   OH2 6392   2.310   0.771   3.077 -0.3084 -0.6900 -0.7289
 2144TIP3    H1 6393   2.332   0.686   3.115 -0.8606 -1.0671 -1.2464
 2144TIP3    H2 6394   2.328   0.834   3.147  2.6459 -0.9390 -1.1881
 2145TIP3   OH2 6395   5.601   6.574   2.803  0.6095  0.0017  0.2270
 2145TIP3    H1 6396   5.599   6.611   2.891 -1.5748  2.1722 -0.6748
 2145TIP3    H2 6397   5.694   6.557   2.786  1.3722  2.3422  1.8373
 2146TIP3   OH2 6398   0.810   2.623   3.426 -0.5548  0.1782  0.4022
 2146TIP3    H1 6399   0.893   2.587   3.458  0.1706  0.2426 -1.3267
 2146TIP3    H2 6400   0.743   2.581   3.480  0.4601 -1.5928  0.3287
 2147TIP3   OH2 6401   0.282   2.444   3.334  0.0741 -0.5387  0.2762
 2147TIP3    H1 6402   0.353   2.447   3.271  0.8181  1.7576  1.1878
 2147TIP3    H2 6403   0.248   2.533   3.338 -0.0969 -0.6628  2.9462
 2148TIP3   OH2 6404   0.015   1.177   2.226 -0.0740 -0.7633 -0.0639
 2148TIP3    H1 6405  -0.050   1.229   2.272  0.2488 -1.0409  0.7145
 2148TIP3    H2 6406   0.089   1.236   2.212 -1.0456 -0.0017 -2.2799
 2149TIP3   OH2 6407   0.821   0.342   3.818  0.4729 -0.2488  0.2272
 2149TIP3    H1 6408   0.903   0.387   3.839  1.2776 -1.4890 -0.1859
 2149TIP3    H2 6409   0.811   0.354   3.724  0.3531 -0.3961  0.2215
 2150TIP3   OH2 6410   4.121   7.331   3.655  0.4334  0.4779 -0.0807
 2150TIP3    H1 6411   4.037   7.294   3.630 -0.3692  2.0939  0.1684
 2150TIP3    H2 6412   4.167   7.259   3.699  0.2064 -1.1342 -2.4303
 2151TIP3   OH2 6413   0.412   0.235   3.786 -0.2777 -0.0144 -0.3600
 2151TIP3    H1 6414   0.487   0.178   3.800 -0.4459 -0.6999 -2.1987
 2151TIP3    H2 6415   0.440   0.296   3.718  0.1722  2.6419  2.0798
 2152TIP3   OH2 6416   1.854   0.790   1.928 -0.2221 -0.3437 -0.0050
 2152TIP3    H1 6417   1.849   0.812   1.835 -1.6848 -1.0246 -0.1079
 2152TIP3    H2 6418   1.946   0.769   1.944  0.3459  1.3426 -0.9217
 2153TIP3   OH2 6419   7.074   2.004   3.046 -0.1598  0.5705 -0.6371
 2153TIP3    H1 6420   7.087   1.990   2.952 -1.7993  0.1459 -0.8117
 2153TIP3    H2 6421   6.982   1.983   3.061  0.4041 -0.6584  1.3060
 2154TIP3   OH2 6422   3.000   0.071   5.665  0.2559 -0.2941  0.2058
 2154TIP3    H1 6423   3.059   0.004   5.699  0.7091 -0.1300 -0.2393
 2154TIP3    H2 6424   2.918   0.058   5.712  0.0484 -1.7418 -0.5270
 2155TIP3   OH2 6425   1.043   1.369   3.254  0.1172  0.5248  0.0249
 2155TIP3    H1 6426   1.005   1.311   3.321 -2.2816  2.4926  0.4288
 2155TIP3    H2 6427   1.123   1.403   3.295 -1.4192  1.8742  2.0173
 2156TIP3   OH2 6428   0.766   3.626   3.581  0.2082  0.1957  0.3237
 2156TIP3    H1 6429   0.734   3.625   3.671  2.4059 -1.3759  1.1284
 2156TIP3    H2 6430   0.845   3.679   3.584 -0.1449  0.8102 -0.8616
 2157TIP3   OH2 6431   1.429   2.927   3.387 -0.0591 -0.3095  0.0234
 2157TIP3    H1 6432   1.356   2.930   3.448  0.9770  2.0922  1.2084
 2157TIP3    H2 6433   1.406   2.990   3.319  0.1113 -0.8435 -0.5327
 2158TIP3   OH2 6434   0.035   1.467   2.050 -0.1832  0.1339  0.1930
 2158TIP3    H1 6435  -0.036   1.524   2.018 -0.9465 -1.6118 -1.3047
 2158TIP3    H2 6436   0.035   1.480   2.145 -1.8555  0.9190  0.1034
 2159TIP3   OH2 6437   4.696   6.967   4.596  0.0290  0.1982  0.2066
 2159TIP3    H1 6438   4.762   7.019   4.550 -2.1067  1.5223 -1.4501
 2159TIP3    H2 6439   4.638   7.032   4.636 -1.0464 -0.9308  0.5118
 2160TIP3   OH2 6440   3.035   2.737   2.123  0.1945  0.8890 -0.2123
 2160TIP3    H1 6441   3.026   2.794   2.199  1.1492 -0.5569  1.0074
 2160TIP3    H2 6442   3.030   2.649   2.159 -0.9917  0.1805 -2.0430
 2161TIP3   OH2 6443   1.463   1.797   1.422  0.1641  0.5505  0.1750
 2161TIP3    H1 6444   1.534   1.732   1.431  0.7597  1.1515 -0.1563
 2161TIP3    H2 6445   1.469   1.825   1.331 -0.1596  1.0025  0.2964
 2162TIP3   OH2 6446   0.343   1.398   1.938  0.3735  0.1724  0.2998
 2162TIP3    H1 6447   0.251   1.414   1.957  0.6649  0.6230  1.3661
 2162TIP3    H2 6448   0.343   1.361   1.850 -0.6002  2.6197 -0.7793
 2163TIP3   OH2 6449   2.131   0.984   3.899 -0.6722  0.6187  0.1981
 2163TIP3    H1 6450   2.131   0.891   3.879 -0.5322  0.9156 -1.1798
 2163TIP3    H2 6451   2.085   0.990   3.984 -2.8904 -0.4388 -0.8807
 2164TIP3   OH2 6452   1.138   2.259   5.147 -0.6072 -0.2669 -0.2751
 2164TIP3    H1 6453   1.125   2.340   5.099  0.0344  0.0262  0.0403
 2164TIP3    H2 6454   1.230   2.235   5.130 -0.5139 -0.4124  0.4132
 2165TIP3   OH2 6455   7.483   7.294   2.532 -0.4358 -0.0626 -0.1040
 2165TIP3    H1 6456   7.507   7.203   2.547  1.1178  0.1018 -1.3574
 2165TIP3    H2 6457   7.510   7.311   2.441 -1.0639  1.5140 -0.0075
 2166TIP3   OH2 6458   2.467   1.951   3.904 -0.1522 -0.3823 -0.4380
 2166TIP3    H1 6459   2.475   1.875   3.962 -1.8776 -0.0984  0.1986
 2166TIP3    H2 6460   2.507   1.922   3.821  1.1690 -1.2261  0.4762
 2167TIP3   OH2 6461   6.286   7.328   3.539  0.1959 -0.3146  0.1457
 2167TIP3    H1 6462   6.277   7.235   3.562 -0.5871 -0.0496  0.9345
 2167TIP3    H2 6463   6.197   7.360   3.530  0.4119  0.7677  1.5580
 2168TIP3   OH2 6464   5.940   0.370   5.153 -0.1508 -0.1708 -0.2281
 2168TIP3    H1 6465   5.911   0.281   5.168 -0.7353 -0.1469 -1.1930
 2168TIP3    H2 6466   5.870   0.425   5.188  1.3050 -0.0324  2.6432
 2169TIP3   OH2 6467   0.306   3.071   2.720 -0.2925 -0.1828 -0.2139
 2169TIP3    H1 6468   0.339   3.017   2.791  0.5284  0.0818 -0.3865
 2169TIP3    H2 6469   0.211   3.061   2.723 -0.1959 -0.8999  0.3321
 2170TIP3   OH2 6470   7.496   2.121   4.833  0.2333  0.5230  0.1519
 2170TIP3    H1 6471   7.482   2.216   4.832  2.1567  0.8383  1.3464
 2170TIP3    H2 6472   7.430   2.087   4.893 -1.3433  0.9327 -1.3122
 2171TIP3   OH2 6473   4.513   5.727   6.008 -0.0372 -0.1697  0.6222
 2171TIP3    H1 6474   4.504   5.731   6.103 -1.4588  0.2616  0.4898
 2171TIP3    H2 6475   4.425   5.746   5.975  0.5855  0.3421 -0.7909
 2172TIP3   OH2 6476   7.044   1.514   3.546  0.1520 -0.3241 -0.3030
 2172TIP3    H1 6477   7.079   1.474   3.625 -1.7857  0.9037  1.2182
 2172TIP3    H2 6478   7.100   1.590   3.531  0.6672 -0.6928 -0.2319
 2173TIP3   OH2 6479   7.553   1.217   3.987  0.7509 -0.0150 -0.2134
 2173TIP3    H1 6480   7.478   1.276   4.001 -0.2135 -0.9935 -1.1862
 2173TIP3    H2 6481   7.553   1.159   4.063  1.2808  0.7794  0.4014
 2174TIP3   OH2 6482   1.827   0.341   5.098 -0.5515  0.1497  0.5386
 2174TIP3    H1 6483   1.821   0.350   5.003  5.0353 -0.4222 -0.0356
 2174TIP3    H2 6484   1.775   0.414   5.133 -1.0802  1.5241 -2.9304
 2175TIP3   OH2 6485   4.803   0.985   2.830  0.1393  0.1206 -0.2869
 2175TIP3    H1 6486   4.857   0.909   2.851  0.4945  0.5353  0.3264
 2175TIP3    H2 6487   4.714   0.951   2.825 -0.2166  0.2600  3.6882
 2176TIP3   OH2 6488   1.666   3.243   1.332  0.3964 -0.4433 -0.1305
 2176TIP3    H1 6489   1.635   3.205   1.414 -0.6177 -0.1185 -0.3608
 2176TIP3    H2 6490   1.758   3.263   1.348 -0.2330  1.2260  1.5116
 2177TIP3   OH2 6491   0.066   3.247   3.808 -0.1977  0.0127 -0.0849
 2177TIP3    H1 6492   0.044   3.340   3.803 -0.9917 -0.2307 -1.1245
 2177TIP3    H2 6493  -0.018   3.203   3.822  0.1569 -0.5745  0.2560
 2178TIP3   OH2 6494   7.599   2.379   4.634  0.3994  0.5649  0.5706
 2178TIP3    H1 6495   7.660   2.449   4.608 -2.8035  3.3158  0.0793
 2178TIP3    H2 6496   7.596   2.383   4.730 -0.0006  1.3456  0.5303
 2179TIP3   OH2 6497   1.222   2.627   2.906  0.4206  0.1669 -0.2754
 2179TIP3    H1 6498   1.253   2.543   2.937 -0.4134 -0.1999 -0.4083
 2179TIP3    H2 6499   1.242   2.688   2.977  0.6134 -0.2285  0.0121
 2180TIP3   OH2 6500   3.590   2.691   3.867 -0.4719 -0.5606  0.2101
 2180TIP3    H1 6501   3.656   2.656   3.806 -0.0303  2.1767 -0.9527
 2180TIP3    H2 6502   3.506   2.662   3.830 -0.1054 -0.8448 -0.4167
 2181TIP3   OH2 6503   2.729   2.357   2.641  0.1897 -0.8136  0.0170
 2181TIP3    H1 6504   2.719   2.445   2.678  0.8438 -0.7640  0.0826
 2181TIP3    H2 6505   2.813   2.326   2.676  0.8044 -0.7851 -1.3914
 2182TIP3   OH2 6506   6.909   4.238   2.375 -0.2435 -0.7347  0.0917
 2182TIP3    H1 6507   6.927   4.145   2.388  1.0382 -0.7683 -1.8575
 2182TIP3    H2 6508   6.822   4.241   2.337 -0.3263 -1.1187  0.2494
 2183TIP3   OH2 6509   6.692   3.407   1.661 -0.1266  0.4772  0.0288
 2183TIP3    H1 6510   6.638   3.386   1.737  1.4142  0.7622  1.2469
 2183TIP3    H2 6511   6.731   3.323   1.635 -0.0995  0.5013 -0.0081
 2184TIP3   OH2 6512   0.665   0.563   2.837  0.2821 -0.3915 -0.4019
 2184TIP3    H1 6513   0.571   0.561   2.856  0.9171  1.0873  3.4955
 2184TIP3    H2 6514   0.678   0.647   2.792 -0.2638 -0.6538 -1.0605
 2185TIP3   OH2 6515   6.285   6.723   1.833  0.3467 -0.1074  0.0515
 2185TIP3    H1 6516   6.366   6.672   1.839  2.1504  2.4546 -1.3530
 2185TIP3    H2 6517   6.261   6.719   1.740  0.5866  1.6614 -0.1063
 2186TIP3   OH2 6518   2.307   0.291   4.395  0.0201  0.6422 -0.1674
 2186TIP3    H1 6519   2.253   0.287   4.317 -1.3969 -1.7069  0.9069
 2186TIP3    H2 6520   2.390   0.251   4.369 -0.4239 -0.0681 -0.4940
 2187TIP3   OH2 6521   1.978   2.661   3.778 -0.3139  0.0686  0.0660
 2187TIP3    H1 6522   1.998   2.640   3.687  1.1492 -1.9743  0.8278
 2187TIP3    H2 6523   1.889   2.626   3.791  0.1911 -1.3269 -0.0857
 2188TIP3   OH2 6524   7.632   1.099   3.745  0.3483  0.0440  0.1601
 2188TIP3    H1 6525   7.681   1.177   3.720 -1.0910  0.7427 -0.5128
 2188TIP3    H2 6526   7.599   1.119   3.833 -1.3966  0.8723 -0.6680
 2189TIP3   OH2 6527   0.370   0.098   4.997 -0.2406  0.2193  0.3870
 2189TIP3    H1 6528   0.302   0.061   5.053 -1.6138 -0.9832 -1.9769
 2189TIP3    H2 6529   0.433   0.027   4.985 -1.0563 -0.2637 -1.2726
 2190TIP3   OH2 6530   7.153   0.472   4.568  0.0691 -0.1235 -0.0048
 2190TIP3    H1 6531   7.087   0.408   4.596 -0.7411 -0.6922 -3.0714
 2190TIP3    H2 6532   7.224   0.462   4.631 -1.0337 -2.4114  0.9285
 2191TIP3   OH2 6533   0.944   0.528   3.241  0.5436  0.0575 -0.2294
 2191TIP3    H1 6534   1.028   0.567   3.267  1.1835 -1.0237 -0.6918
 2191TIP3    H2 6535   0.938   0.448   3.292 -0.1254  0.0298 -0.3482
 2192TIP3   OH2 6536   0.408   2.604   3.130  0.2330 -0.1685  0.1705
 2192TIP3    H1 6537   0.455   2.687   3.142 -1.2747  0.6283  0.8494
 2192TIP3    H2 6538   0.326   2.629   3.087  0.7510 -1.6236 -1.7169
 2193TIP3   OH2 6539   7.150   5.635   3.543  0.0445 -0.3872 -0.1679
 2193TIP3    H1 6540   7.175   5.645   3.451 -0.5167 -1.0720 -0.3980
 2193TIP3    H2 6541   7.132   5.724   3.573 -0.7778 -0.2661 -1.0087
 2194TIP3   OH2 6542   7.694   2.566   3.429  0.7067 -0.1909 -0.5770
 2194TIP3    H1 6543   7.730   2.650   3.457  2.1131 -0.1009 -2.5533
 2194TIP3    H2 6544   7.614   2.556   3.481  1.6340  1.3559  1.2135
 2195TIP3   OH2 6545   0.300   2.467   4.343  0.4027  0.2265  0.4447
 2195TIP3    H1 6546   0.361   2.412   4.392 -0.6210  1.2270  2.9352
 2195TIP3    H2 6547   0.356   2.526   4.292  1.5164  0.2266  1.6408
 2196TIP3   OH2 6548   0.957   3.126   1.645 -0.3183 -0.4811  0.0821
 2196TIP3    H1 6549   0.974   3.090   1.558 -0.6681 -0.0202 -0.1787
 2196TIP3    H2 6550   1.043   3.138   1.684 -0.1418 -0.2096 -0.3948
 2197TIP3   OH2 6551   1.307   3.044   1.294 -0.0815  0.4819 -0.1257
 2197TIP3    H1 6552   1.366   2.970   1.309 -1.9259 -0.8791  0.5922
 2197TIP3    H2 6553   1.365   3.117   1.275  1.8758 -0.6708  1.2054
 2198TIP3   OH2 6554   1.471   0.480   2.095  0.0909  0.5618  0.5360
 2198TIP3    H1 6555   1.389   0.522   2.121  0.8692  1.1934  2.0437
 2198TIP3    H2 6556   1.537   0.549   2.105  0.6300  0.4510 -1.9117
 2199TIP3   OH2 6557   1.623   3.492   2.071  0.0488  0.7888 -1.0524
 2199TIP3    H1 6558   1.530   3.502   2.052 -0.1504  2.0681  0.4614
 2199TIP3    H2 6559   1.643   3.564   2.131  1.4594 -0.9310  0.5829
 2200TIP3   OH2 6560   1.540   2.267   3.265  0.1735  0.5741 -0.1722
 2200TIP3    H1 6561   1.573   2.178   3.251  0.3302  0.5483  0.3551
 2200TIP3    H2 6562   1.486   2.261   3.343 -1.0172  0.6368 -0.9838
 2201TIP3   OH2 6563   1.660   3.278   1.813  0.1069  0.0611 -0.0484
 2201TIP3    H1 6564   1.742   3.267   1.859  2.4051 -0.8883 -4.0840
 2201TIP3    H2 6565   1.666   3.364   1.772 -1.6675  0.7182  1.0116
 2202TIP3   OH2 6566   0.524   2.546   5.052 -0.2107  0.2881 -0.0298
 2202TIP3    H1 6567   0.564   2.549   5.139  1.5704 -0.2757 -0.8121
 2202TIP3    H2 6568   0.522   2.638   5.024  1.2764  0.2519 -0.2960
 2203TIP3   OH2 6569   2.217   2.317   3.730  0.5668  0.0006 -0.8520
 2203TIP3    H1 6570   2.140   2.261   3.738 -1.6391  2.7247 -1.9004
 2203TIP3    H2 6571   2.253   2.296   3.643 -0.3903  0.3516 -1.3441
 2204TIP3   OH2 6572   3.020   0.664   2.649 -0.2619 -0.2711 -0.7914
 2204TIP3    H1 6573   3.096   0.666   2.706  0.2965 -0.0264 -1.5389
 2204TIP3    H2 6574   2.945   0.669   2.708  0.2771 -1.4133  0.0105
 2205TIP3   OH2 6575   6.453   0.557   2.538  0.4817 -0.1847 -0.2458
 2205TIP3    H1 6576   6.446   0.605   2.456 -1.0036 -1.3256 -0.8265
 2205TIP3    H2 6577   6.403   0.610   2.601  1.3864  0.5487 -0.1426
 2206TIP3   OH2 6578   2.136   0.003   3.460 -0.1506 -0.2329  0.3827
 2206TIP3    H1 6579   2.127   0.094   3.434  1.0149  0.2936  1.7274
 2206TIP3    H2 6580   2.050  -0.022   3.493 -0.7435  0.0670 -0.9290
 2207TIP3   OH2 6581   1.432   1.208   4.130  0.2835 -0.0374 -0.4796
 2207TIP3    H1 6582   1.336   1.208   4.128  0.2964  0.4758 -1.2299
 2207TIP3    H2 6583   1.455   1.134   4.186 -0.4927 -1.9405 -2.6203
 2208TIP3   OH2 6584   6.610   4.060   1.940  0.2815 -0.3547 -0.2057
 2208TIP3    H1 6585   6.601   4.059   1.845 -0.3504  0.3664 -0.1547
 2208TIP3    H2 6586   6.531   4.104   1.971  1.1500  0.6602  0.5741
 2209TIP3   OH2 6587   0.638   2.457   2.656  0.2300  0.0781 -0.0145
 2209TIP3    H1 6588   0.730   2.432   2.662 -0.1657 -1.1522  1.2155
 2209TIP3    H2 6589   0.636   2.549   2.680  1.3433  0.5397 -1.6662
 2210TIP3   OH2 6590   1.165   0.756   3.065 -0.2497 -0.0336 -0.2980
 2210TIP3    H1 6591   1.141   0.770   2.973 -1.4695 -0.6871 -0.0912
 2210TIP3    H2 6592   1.097   0.803   3.114 -0.6829 -1.2707  0.2986
 2211TIP3   OH2 6593   1.107   3.054   2.280 -0.1118  0.5028 -0.0451
 2211TIP3    H1 6594   1.097   3.034   2.187 -0.7889 -0.8254  0.3085
 2211TIP3    H2 6595   1.122   3.148   2.282  0.8504  0.3933 -1.5695
 2212TIP3   OH2 6596   1.257   1.863   4.761  0.2062 -0.3223  0.2324
 2212TIP3    H1 6597   1.257   1.910   4.845 -0.2955  1.3358 -0.6645
 2212TIP3    H2 6598   1.328   1.903   4.711 -0.3298 -0.4121 -0.6072
 2213TIP3   OH2 6599   1.136   1.126   4.084  0.1600  0.4006  0.0586
 2213TIP3    H1 6600   1.051   1.160   4.055  0.2445 -1.8631 -2.9779
 2213TIP3    H2 6601   1.114   1.062   4.151 -0.4531  0.6350  0.0905
 2214TIP3   OH2 6602   1.721   2.927   3.523 -0.4854  0.0300 -0.3405
 2214TIP3    H1 6603   1.799   2.923   3.578  0.8482  0.1950 -2.1738
 2214TIP3    H2 6604   1.701   3.020   3.515 -0.5208  0.0212 -0.3571
 2215TIP3   OH2 6605   0.694   0.403   4.414  0.2469  0.5434 -0.6527
 2215TIP3    H1 6606   0.601   0.405   4.435  0.4351  0.9631  0.1736
 2215TIP3    H2 6607   0.713   0.492   4.382 -0.1235 -0.1922 -3.0644
 2216TIP3   OH2 6608   2.233   1.359   0.923 -0.6508  0.2041  0.7866
 2216TIP3    H1 6609   2.191   1.301   0.986  0.7531  0.5336  2.0594
 2216TIP3    H2 6610   2.309   1.394   0.969  0.1680  0.7933 -0.9543
 2217TIP3   OH2 6611   0.463   3.315   2.753 -0.0068  0.1556  0.5582
 2217TIP3    H1 6612   0.522   3.265   2.810 -0.0354 -0.1200  0.3482
 2217TIP3    H2 6613   0.392   3.254   2.733  1.2420 -0.5919 -1.7893
 2218TIP3   OH2 6614   1.890   0.376   3.996  0.2995  0.2366  0.7293
 2218TIP3    H1 6615   1.870   0.466   4.022  0.7122  0.3132  0.7753
 2218TIP3    H2 6616   1.823   0.323   4.041  0.8273  0.3978  1.7207
 2219TIP3   OH2 6617   0.770   3.404   2.975  0.7341  1.1733 -0.3761
 2219TIP3    H1 6618   0.808   3.412   3.063 -0.3341  1.7596  0.0476
 2219TIP3    H2 6619   0.716   3.325   2.980  1.1874  0.8448 -0.7009
 2220TIP3   OH2 6620   7.264   3.312   1.659  0.3271  0.4771 -0.2478
 2220TIP3    H1 6621   7.350   3.352   1.645  0.1984  0.9682  0.3053
 2220TIP3    H2 6622   7.229   3.299   1.571  2.0282 -2.1372 -0.6041
 2221TIP3   OH2 6623   1.136   3.385   3.975  0.2607  0.1151 -0.1465
 2221TIP3    H1 6624   1.118   3.293   3.955  1.5031  0.0456 -1.0137
 2221TIP3    H2 6625   1.230   3.395   3.960 -0.2034  2.0088 -2.0456
 2222TIP3   OH2 6626   0.304   4.066   0.379  0.0291 -0.3500  0.1851
 2222TIP3    H1 6627   0.294   4.160   0.362 -0.3756 -0.5739 -0.8670
 2222TIP3    H2 6628   0.253   4.024   0.309  2.0387 -1.3958 -0.6729
 2223TIP3   OH2 6629   7.707   1.379   2.380  0.1396  0.1776 -0.5712
 2223TIP3    H1 6630   7.778   1.432   2.345  0.8181 -0.0198  0.4748
 2223TIP3    H2 6631   7.661   1.436   2.442 -0.1230  0.0596 -0.6556
 2224TIP3   OH2 6632   0.568   0.407   2.119  0.4444  0.1374 -0.0815
 2224TIP3    H1 6633   0.557   0.344   2.190 -1.4942 -2.2589 -2.4350
 2224TIP3    H2 6634   0.486   0.456   2.116  0.7555  0.6594 -0.3000
 2225TIP3   OH2 6635   2.397   4.599   0.297  0.0334 -0.4115 -0.2449
 2225TIP3    H1 6636   2.432   4.511   0.312 -1.8033 -1.6236 -2.6918
 2225TIP3    H2 6637   2.303   4.586   0.286 -0.0512  1.6131 -2.2954
 2226TIP3   OH2 6638   1.008   1.327   2.989  0.1676  0.2135  0.3302
 2226TIP3    H1 6639   1.023   1.363   3.076 -1.1601 -0.4124  0.8230
 2226TIP3    H2 6640   0.972   1.400   2.938 -0.7887  0.0863  0.8193
 2227TIP3   OH2 6641   6.858   1.698   3.060 -0.0046 -0.6549  0.1225
 2227TIP3    H1 6642   6.951   1.687   3.078 -0.3783 -1.5393  1.6753
 2227TIP3    H2 6643   6.836   1.625   3.003  0.2250 -0.5384 -0.1154
 2228TIP3   OH2 6644   1.993   0.763   2.530  0.0826 -0.0565  0.4036
 2228TIP3    H1 6645   1.983   0.851   2.494 -1.6698  0.0669  1.1177
 2228TIP3    H2 6646   1.965   0.772   2.622 -0.0244 -1.3396  0.4982
 2229TIP3   OH2 6647   1.142   2.140   3.949 -0.2372 -0.1246 -0.0602
 2229TIP3    H1 6648   1.123   2.127   4.042  1.5427 -1.6196  0.1339
 2229TIP3    H2 6649   1.230   2.177   3.947 -0.5208  0.5162 -1.1344
 2230TIP3   OH2 6650   1.493   0.970   4.251  0.9355 -0.0911  0.2653
 2230TIP3    H1 6651   1.515   0.884   4.214  0.1324 -0.0551 -0.3252
 2230TIP3    H2 6652   1.551   0.980   4.326 -0.7456 -2.3089  1.9158
 2231TIP3   OH2 6653   1.106   3.251   2.954 -0.0620  0.2646 -0.4085
 2231TIP3    H1 6654   1.103   3.266   3.049 -0.6943 -1.2933 -0.1652
 2231TIP3    H2 6655   1.060   3.168   2.942  1.6625 -0.5090 -1.8832
 2232TIP3   OH2 6656   0.361   0.566   1.788  0.3150 -0.5300 -0.0530
 2232TIP3    H1 6657   0.270   0.596   1.795  0.6183  0.3159  0.2282
 2232TIP3    H2 6658   0.360   0.478   1.825 -0.4666 -0.6630 -0.3870
 2233TIP3   OH2 6659   0.983   1.158   3.444  0.4271 -0.2386 -0.0255
 2233TIP3    H1 6660   0.992   1.169   3.539  0.1245  0.1972 -0.0493
 2233TIP3    H2 6661   1.045   1.087   3.423  3.5325  2.3634 -0.1045
 2234TIP3   OH2 6662   6.078   6.881   3.231  0.0854  0.2970 -0.1135
 2234TIP3    H1 6663   6.157   6.834   3.202  1.3891  0.5318  2.9133
 2234TIP3    H2 6664   6.050   6.836   3.310 -0.4766  2.6778  1.0914
 2235TIP3   OH2 6665   1.684   3.070   2.577 -0.7371 -0.0143 -0.4415
 2235TIP3    H1 6666   1.728   3.109   2.502 -1.7899  2.0285 -0.0073
 2235TIP3    H2 6667   1.729   3.106   2.653 -1.1846 -0.2950 -0.0410
 2236TIP3   OH2 6668   2.305   1.590   6.302 -0.3039  0.5697 -0.0734
 2236TIP3    H1 6669   2.221   1.633   6.282 -0.1413  0.4409 -1.0726
 2236TIP3    H2 6670   2.333   1.553   6.218  0.3220 -0.1527  0.4525
 2237TIP3   OH2 6671   7.299   6.809   3.854 -0.1648  0.4907 -0.1570
 2237TIP3    H1 6672   7.223   6.809   3.795  0.7422  2.0001 -1.3637
 2237TIP3    H2 6673   7.304   6.900   3.886  1.5605  0.5835 -0.6504
 2238TIP3   OH2 6674   0.934   2.698   1.199 -0.2864 -0.2538  0.1806
 2238TIP3    H1 6675   1.013   2.647   1.179 -0.5478 -0.7141  0.3213
 2238TIP3    H2 6676   0.952   2.785   1.163  0.0198 -0.5418 -0.3765
 2239TIP3   OH2 6677   1.668   0.944   2.543  0.1544 -0.4879  0.0728
 2239TIP3    H1 6678   1.647   0.851   2.553  0.7969 -0.9323 -2.3250
 2239TIP3    H2 6679   1.735   0.947   2.475  0.9214  1.6625  0.8682
 2240TIP3   OH2 6680   7.772   2.013   4.911  0.1290 -0.3641 -0.2368
 2240TIP3    H1 6681   7.787   2.035   5.002  0.4005  0.0383 -0.3791
 2240TIP3    H2 6682   7.684   2.045   4.892  0.6343  0.8765 -0.5268
 2241TIP3   OH2 6683   1.770   3.355   4.817  0.1759 -0.3671  0.0820
 2241TIP3    H1 6684   1.729   3.281   4.863  3.6260 -1.6813  1.2181
 2241TIP3    H2 6685   1.782   3.323   4.727  0.2927 -0.6567  0.1975
 2242TIP3   OH2 6686   1.826   1.287   3.377 -0.1663 -0.0748  0.2158
 2242TIP3    H1 6687   1.840   1.225   3.306  2.5106 -0.3061  0.8903
 2242TIP3    H2 6688   1.913   1.322   3.396 -1.1079  1.3201  2.1564
 2243TIP3   OH2 6689   1.491   2.698   2.739 -0.2942  0.0447 -0.2061
 2243TIP3    H1 6690   1.416   2.757   2.734 -0.6486 -0.2994  1.0327
 2243TIP3    H2 6691   1.556   2.747   2.790  0.3492  0.3477 -1.2839
 2244TIP3   OH2 6692   3.213   0.032   1.635 -0.1930 -0.1291 -0.0766
 2244TIP3    H1 6693   3.236   0.121   1.662  2.0596 -1.0029  1.0516
 2244TIP3    H2 6694   3.119   0.025   1.653 -0.5391  2.2212 -0.8403
 2245TIP3   OH2 6695   1.786   1.735   5.616 -0.2336  0.4289  0.5350
 2245TIP3    H1 6696   1.817   1.818   5.652  0.5026  0.2143  0.3946
 2245TIP3    H2 6697   1.726   1.701   5.683 -1.1111  1.4202  0.2661
 2246TIP3   OH2 6698   2.380   2.091   2.621  0.7015  0.6722  0.0456
 2246TIP3    H1 6699   2.431   2.126   2.548  0.6956 -0.1628 -0.3779
 2246TIP3    H2 6700   2.302   2.054   2.579 -0.4133  2.2189  0.7199
 2247TIP3   OH2 6701   1.621   1.125   1.961  0.0632 -0.0947 -0.0409
 2247TIP3    H1 6702   1.551   1.190   1.973  0.6464  0.4823  0.3160
 2247TIP3    H2 6703   1.580   1.041   1.980 -1.0022  0.0510 -1.6580
 2248TIP3   OH2 6704   6.336   2.672   2.891  0.6395 -0.6469  0.1814
 2248TIP3    H1 6705   6.296   2.696   2.974  0.0832  0.3509 -0.3682
 2248TIP3    H2 6706   6.415   2.623   2.916  0.4652 -0.3796  1.2878
 2249TIP3   OH2 6707   1.881   2.358   4.364  0.3156  0.1343  0.0687
 2249TIP3    H1 6708   1.901   2.449   4.385  0.2374 -0.0317  0.8718
 2249TIP3    H2 6709   1.937   2.338   4.289  1.3139  0.4398  0.7167
 2250TIP3   OH2 6710   7.733   2.436   5.666  0.4166  0.3603  0.4484
 2250TIP3    H1 6711   7.786   2.495   5.612 -0.7001  1.5718  0.6502
 2250TIP3    H2 6712   7.651   2.483   5.679 -0.2444 -0.9730  1.1671
 2251TIP3   OH2 6713   1.345   1.091   2.276 -0.6139 -0.3966 -0.0837
 2251TIP3    H1 6714   1.320   1.108   2.185  2.1004 -0.1916 -0.8311
 2251TIP3    H2 6715   1.368   0.998   2.277  0.2359 -0.1932  0.1467
 2252TIP3   OH2 6716   4.592   6.977   6.314  0.2785 -0.1101 -0.0879
 2252TIP3    H1 6717   4.499   6.994   6.300  0.4411  0.5909 -0.3315
 2252TIP3    H2 6718   4.604   6.887   6.283  0.4020  0.9941 -3.5337
 2253TIP3   OH2 6719   6.630   2.081   1.460 -0.6294 -0.2950  0.1903
 2253TIP3    H1 6720   6.641   2.006   1.402  1.0749 -0.8181  1.1332
 2253TIP3    H2 6721   6.536   2.099   1.460 -0.6009  0.1345 -3.2175
 2254TIP3   OH2 6722   0.395   1.851   4.773 -0.0720 -0.0151  0.7781
 2254TIP3    H1 6723   0.486   1.843   4.800  0.0601  0.0154  0.3477
 2254TIP3    H2 6724   0.346   1.852   4.855  0.2554 -0.7553  0.9869
 2255TIP3   OH2 6725   0.788   0.682   4.346  0.2081  0.1761 -0.0588
 2255TIP3    H1 6726   0.871   0.730   4.353  1.1569 -1.4605  0.2583
 2255TIP3    H2 6727   0.721   0.747   4.364  1.2286  2.2502 -3.2301
 2256TIP3   OH2 6728   6.256   7.074   5.237  0.2633  0.4491  0.2014
 2256TIP3    H1 6729   6.264   7.008   5.168 -0.7656 -1.0674  1.4765
 2256TIP3    H2 6730   6.197   7.034   5.301 -1.1754  3.0379  0.5367
 2257TIP3   OH2 6731   2.109   2.326   4.198 -1.1459 -0.1127 -0.1529
 2257TIP3    H1 6732   2.173   2.385   4.238  0.1449 -0.6700 -1.3460
 2257TIP3    H2 6733   2.102   2.357   4.108  0.2939 -2.3570 -1.0712
 2258TIP3   OH2 6734   0.278   1.009   4.807 -0.1330  0.3184  1.2840
 2258TIP3    H1 6735   0.270   0.921   4.771 -0.6672  1.2623 -1.0094
 2258TIP3    H2 6736   0.197   1.022   4.857 -0.4495 -0.1769  0.9066
 2259TIP3   OH2 6737   7.573   6.537   3.395 -0.1580  0.1359 -0.2448
 2259TIP3    H1 6738   7.554   6.591   3.318 -0.1902 -0.6175 -0.7765
 2259TIP3    H2 6739   7.629   6.592   3.450 -1.3728  1.2377 -0.0974
 2260TIP3   OH2 6740   2.791   2.448   6.007 -0.0792  0.4400 -1.0389
 2260TIP3    H1 6741   2.829   2.513   5.947 -0.6673  1.1552 -0.6483
 2260TIP3    H2 6742   2.740   2.500   6.069  0.7285 -0.2577  0.2480
 2261TIP3   OH2 6743   6.855   2.791   5.689  0.6975  0.1111  0.6322
 2261TIP3    H1 6744   6.802   2.733   5.743  0.5218  0.4112  0.7817
 2261TIP3    H2 6745   6.812   2.876   5.695  1.2761  0.3875  0.8722
 2262TIP3   OH2 6746   6.510   0.783   4.276 -0.1576 -0.1854 -0.2153
 2262TIP3    H1 6747   6.430   0.738   4.251  0.7259 -2.0413  0.2167
 2262TIP3    H2 6748   6.509   0.781   4.372  0.2975 -0.0030 -0.2064
 2263TIP3   OH2 6749   2.156   4.772   0.484  0.2042 -0.2019  0.0081
 2263TIP3    H1 6750   2.233   4.766   0.540  0.0228 -2.5870  0.0653
 2263TIP3    H2 6751   2.098   4.703   0.516 -0.9560  0.0260 -1.5358
 2264TIP3   OH2 6752   0.217   2.800   3.078 -0.2145  0.0472  0.2978
 2264TIP3    H1 6753   0.139   2.828   3.030 -1.1550 -1.3387  0.9529
 2264TIP3    H2 6754   0.290   2.838   3.030 -1.2822  1.2173 -0.4480
 2265TIP3   OH2 6755   6.748   3.190   1.974  0.1257 -0.1361 -0.0766
 2265TIP3    H1 6756   6.723   3.259   1.914  0.6565 -0.3643 -0.5631
 2265TIP3    H2 6757   6.769   3.115   1.918  1.1465 -0.1822  0.3534
 2266TIP3   OH2 6758   7.163   4.901   0.484 -0.3938  0.0097 -0.0354
 2266TIP3    H1 6759   7.074   4.938   0.480  0.2320  1.2689 -3.4968
 2266TIP3    H2 6760   7.218   4.975   0.509  0.1396  0.1033 -1.4677
 2267TIP3   OH2 6761   7.444   2.746   4.145  0.0534 -0.0981  0.0501
 2267TIP3    H1 6762   7.393   2.789   4.077 -0.3868  0.7664  0.9073
 2267TIP3    H2 6763   7.384   2.741   4.220  0.4401 -1.2753  0.2846
 2268TIP3   OH2 6764   1.838   3.341   5.172 -0.0216  0.3047 -0.2159
 2268TIP3    H1 6765   1.844   3.411   5.107 -1.5280  3.0670  2.4927
 2268TIP3    H2 6766   1.749   3.306   5.162  0.8337 -1.5453 -1.7866
 2269TIP3   OH2 6767   1.872   1.795   4.429  0.5885  0.5679  0.4394
 2269TIP3    H1 6768   1.825   1.877   4.414 -1.4510 -0.2513  2.1383
 2269TIP3    H2 6769   1.933   1.815   4.500 -0.7497  0.3169  1.6754
 2270TIP3   OH2 6770   0.852   2.405   4.379 -0.0303  0.0113 -0.6358
 2270TIP3    H1 6771   0.865   2.478   4.319 -0.2131 -0.0651 -0.7703
 2270TIP3    H2 6772   0.865   2.442   4.466 -2.1473  0.6824 -0.5711
 2271TIP3   OH2 6773   1.080   0.947   2.576  0.1217 -0.4493  0.1146
 2271TIP3    H1 6774   1.127   1.024   2.543 -2.7699  2.6669  2.9423
 2271TIP3    H2 6775   1.033   0.914   2.500  1.4234  0.5243 -1.1501
 2272TIP3   OH2 6776   3.019   1.790   2.843 -0.0923 -0.3051  0.6393
 2272TIP3    H1 6777   3.099   1.785   2.790 -1.3843  0.0148 -1.3795
 2272TIP3    H2 6778   2.978   1.705   2.834 -0.7922  0.0577  0.3861
 2273TIP3   OH2 6779   0.363   6.710   1.797 -0.4935  0.1597 -0.4669
 2273TIP3    H1 6780   0.328   6.624   1.771  0.0658  0.1594 -1.2038
 2273TIP3    H2 6781   0.436   6.689   1.855  1.2791  0.0757 -2.6550
 2274TIP3   OH2 6782   1.609   2.497   0.972 -0.5859 -0.4705  0.2585
 2274TIP3    H1 6783   1.552   2.456   0.907  0.4747 -0.6776 -0.5677
 2274TIP3    H2 6784   1.698   2.479   0.940 -0.0781  0.8953  0.8583
 2275TIP3   OH2 6785   7.346   1.457   5.544  0.1617 -0.7955 -0.1860
 2275TIP3    H1 6786   7.368   1.548   5.565 -0.7916 -0.1200 -2.0319
 2275TIP3    H2 6787   7.404   1.405   5.600  1.6108  0.9400 -0.0269
 2276TIP3   OH2 6788   5.813   7.034   5.954 -0.0908 -0.1029  0.3631
 2276TIP3    H1 6789   5.727   7.005   5.984 -0.6084  0.1681 -0.8181
 2276TIP3    H2 6790   5.874   6.997   6.017 -0.9922 -1.1864  0.6248
 2277TIP3   OH2 6791   2.033   2.973   2.269 -0.6868  0.1829  0.0436
 2277TIP3    H1 6792   2.003   2.882   2.262 -1.0057  0.2864  0.0483
 2277TIP3    H2 6793   2.128   2.966   2.273 -0.7532 -0.2157  1.0399
 2278TIP3   OH2 6794   2.947   2.313   2.108 -0.2000 -0.1554  0.2262
 2278TIP3    H1 6795   2.985   2.390   2.152 -0.0967  0.3897 -0.7968
 2278TIP3    H2 6796   2.951   2.244   2.173 -0.5703  0.7912  1.2725
 2279TIP3   OH2 6797   1.384   1.298   1.118  0.1303 -0.1120  0.0678
 2279TIP3    H1 6798   1.343   1.384   1.110  1.6724  0.6597  0.2346
 2279TIP3    H2 6799   1.324   1.248   1.174 -1.1931  0.5723 -0.7193
 2280TIP3   OH2 6800   7.371   3.018   2.328 -0.5877 -0.5693 -0.2311
 2280TIP3    H1 6801   7.294   2.975   2.289 -0.7916 -1.3254  0.9612
 2280TIP3    H2 6802   7.376   2.981   2.417  0.0779  0.8388  0.3252
 2281TIP3   OH2 6803   3.249   0.956   3.829  0.1206  0.0648 -0.3419
 2281TIP3    H1 6804   3.264   0.864   3.810  1.7720  0.1221  0.6064
 2281TIP3    H2 6805   3.164   0.958   3.872 -0.6286 -0.8141 -1.7341
 2282TIP3   OH2 6806   1.267   1.928   1.824 -0.4248  0.0634 -0.4821
 2282TIP3    H1 6807   1.296   1.860   1.763 -0.5774  0.8076 -1.3866
 2282TIP3    H2 6808   1.347   1.954   1.870  0.1212  1.1570 -2.0194
 2283TIP3   OH2 6809   6.777   0.564   3.238  0.0369  0.1569  0.0865
 2283TIP3    H1 6810   6.723   0.550   3.316  0.2281  1.2554  0.4324
 2283TIP3    H2 6811   6.721   0.615   3.179  0.0410 -0.3142 -0.3358
 2284TIP3   OH2 6812   0.006   0.798   4.236 -1.0106 -0.2842  0.0086
 2284TIP3    H1 6813  -0.005   0.789   4.141 -2.6182  0.1632  0.1378
 2284TIP3    H2 6814   0.056   0.879   4.247 -1.6230  0.1606 -0.4355
 2285TIP3   OH2 6815   1.094   0.278   1.415 -0.0127 -0.0678  0.7921
 2285TIP3    H1 6816   1.046   0.207   1.457  0.9335 -0.7104  0.7971
 2285TIP3    H2 6817   1.136   0.325   1.487  0.0188  0.0118  0.7224
 2286TIP3   OH2 6818   7.548   2.286   2.046 -0.3429 -0.0959  0.4711
 2286TIP3    H1 6819   7.488   2.334   1.990  1.3304  0.3491 -0.9764
 2286TIP3    H2 6820   7.630   2.335   2.043  1.4213 -2.9818 -1.0430
 2287TIP3   OH2 6821   7.713   7.145   2.946  0.9713 -0.5967 -0.1509
 2287TIP3    H1 6822   7.789   7.126   3.002  0.1850 -0.0301  1.1366
 2287TIP3    H2 6823   7.741   7.219   2.893  1.0264  0.1798  0.9404
 2288TIP3   OH2 6824   0.040   0.653   4.680  0.0799 -0.4700 -0.2181
 2288TIP3    H1 6825  -0.020   0.704   4.626  0.7473 -0.6915 -1.1797
 2288TIP3    H2 6826   0.124   0.697   4.670  0.5285 -1.3976 -0.5772
 2289TIP3   OH2 6827   7.549   0.490   6.384 -0.3006  0.5136  0.6085
 2289TIP3    H1 6828   7.638   0.484   6.418 -0.5343 -0.8388  1.0108
 2289TIP3    H2 6829   7.558   0.534   6.299  0.6168  1.3089  1.1077
 2290TIP3   OH2 6830   0.450   6.799   4.321 -0.2412  0.4662  0.2925
 2290TIP3    H1 6831   0.421   6.820   4.409 -0.8425  0.2494  0.1436
 2290TIP3    H2 6832   0.370   6.785   4.271  0.1210 -0.6416  0.0089
 2291TIP3   OH2 6833  -0.013   0.514   4.270  0.2503 -0.4182 -0.2801
 2291TIP3    H1 6834  -0.037   0.606   4.280  1.7243  0.0166 -0.5231
 2291TIP3    H2 6835   0.076   0.517   4.234  0.3367 -1.9356 -0.2169
 2292TIP3   OH2 6836   0.086   2.171   5.278  0.2912 -0.0542  0.3080
 2292TIP3    H1 6837   0.040   2.102   5.231  1.0194 -1.0102  0.9689
 2292TIP3    H2 6838   0.179   2.150   5.266  0.5042  0.5676  0.8476
 2293TIP3   OH2 6839   7.478   3.132   4.863  0.8641  0.1037  0.0671
 2293TIP3    H1 6840   7.572   3.110   4.867  1.3913  2.1088 -0.9876
 2293TIP3    H2 6841   7.457   3.163   4.951 -0.2245 -5.6247  2.0488
 2294TIP3   OH2 6842   7.468   2.150   0.888  0.4503  0.2984 -0.3927
 2294TIP3    H1 6843   7.461   2.137   0.982 -0.1464  0.0150 -0.4776
 2294TIP3    H2 6844   7.501   2.240   0.879 -0.4767  0.6821  0.0571
 2295TIP3   OH2 6845   1.674   2.778   3.267  0.5778 -0.5190 -0.6485
 2295TIP3    H1 6846   1.657   2.697   3.220 -0.7975  0.2937 -1.5612
 2295TIP3    H2 6847   1.684   2.845   3.199  0.4027  0.3240  0.1333
 2296TIP3   OH2 6848   1.293   1.849   0.950 -0.1654 -0.1957 -0.0762
 2296TIP3    H1 6849   1.261   1.803   0.872 -1.1738 -0.5794  0.5692
 2296TIP3    H2 6850   1.280   1.788   1.022  2.4054 -0.5414  0.1704
 2297TIP3   OH2 6851   0.417   2.380   3.671  0.0187 -0.6455 -0.1293
 2297TIP3    H1 6852   0.416   2.308   3.608  1.0109 -1.2792  0.5606
 2297TIP3    H2 6853   0.375   2.344   3.749  0.6956 -0.5458  0.2851
 2298TIP3   OH2 6854   1.255   3.705   2.338 -0.1240 -0.0212 -0.2181
 2298TIP3    H1 6855   1.189   3.654   2.291  0.9371  0.2409 -2.0473
 2298TIP3    H2 6856   1.290   3.645   2.403 -0.1521 -1.0659 -1.1614
 2299TIP3   OH2 6857   4.500   5.721   0.923 -0.5654 -0.0696 -0.0439
 2299TIP3    H1 6858   4.492   5.670   0.843 -0.0579 -0.4083  0.1179
 2299TIP3    H2 6859   4.545   5.663   0.984  1.5084  1.1351 -0.3701
 2300TIP3   OH2 6860   1.180   0.663   4.434 -0.2504 -0.0542  0.1647
 2300TIP3    H1 6861   1.161   0.716   4.357  1.2518 -1.0515 -0.9157
 2300TIP3    H2 6862   1.175   0.725   4.508 -1.4108  0.9595 -0.7386
 2301TIP3   OH2 6863   1.872   2.332   3.944  0.3216  0.8117 -0.1719
 2301TIP3    H1 6864   1.958   2.368   3.966  1.6257 -1.3159 -1.5812
 2301TIP3    H2 6865   1.888   2.279   3.866 -2.3718  0.7427 -0.7199
 2302TIP3   OH2 6866   7.472   0.281   2.688  0.0249 -0.2069 -0.1089
 2302TIP3    H1 6867   7.545   0.313   2.634 -0.5419  0.7117 -0.3362
 2302TIP3    H2 6868   7.514   0.229   2.756  0.9582  0.9096  0.1819
 2303TIP3   OH2 6869   0.035   0.429   5.418 -0.2464  0.4507 -0.4555
 2303TIP3    H1 6870   0.069   0.369   5.484 -0.2818  1.5990  0.6288
 2303TIP3    H2 6871  -0.015   0.494   5.468 -1.9288  0.2149 -1.7833
 2304TIP3   OH2 6872   0.030   0.534   1.503 -0.2379 -0.4107  0.0607
 2304TIP3    H1 6873   0.037   0.620   1.545  0.0901  0.3403 -1.5040
 2304TIP3    H2 6874  -0.062   0.511   1.512 -0.6942  0.9173 -1.0479
 2305TIP3   OH2 6875   7.738   3.142   4.379  0.1930  0.1730 -0.2411
 2305TIP3    H1 6876   7.751   3.198   4.455 -0.2251  1.2236 -0.9295
 2305TIP3    H2 6877   7.731   3.202   4.305  0.7786 -0.8440 -1.1424
 2306TIP3   OH2 6878   0.074   1.972   2.888  0.9103  0.1652  0.1331
 2306TIP3    H1 6879   0.137   2.042   2.904 -0.2395  0.6974  2.6786
 2306TIP3    H2 6880   0.115   1.894   2.926  1.0816  0.0128 -0.3709
 2307TIP3   OH2 6881   0.871   4.386   1.533 -0.1425 -0.2651  0.8907
 2307TIP3    H1 6882   0.876   4.291   1.544  0.1603 -0.2546  0.8460
 2307TIP3    H2 6883   0.935   4.421   1.595 -1.3620 -0.0156  2.0533
 2308TIP3   OH2 6884   0.391   2.014   2.403  0.1213  0.2628 -0.3256
 2308TIP3    H1 6885   0.379   1.999   2.497 -0.4417  0.2978 -0.3906
 2308TIP3    H2 6886   0.474   1.971   2.383  0.7373  1.1009  0.3804
 2309TIP3   OH2 6887   3.070   1.194   3.973  0.2944  0.0452 -0.0635
 2309TIP3    H1 6888   3.004   1.135   3.936  1.4903 -0.7498 -0.9534
 2309TIP3    H2 6889   3.022   1.275   3.990 -0.5166  0.0898 -2.4192
 2310TIP3   OH2 6890   3.558   6.565   0.939  0.2588  0.7147  0.1544
 2310TIP3    H1 6891   3.593   6.479   0.964  0.7977  0.9155  0.1002
 2310TIP3    H2 6892   3.489   6.582   1.004 -0.9287 -0.4501 -0.7792
 2311TIP3   OH2 6893   4.001   2.398   2.308 -0.1280 -0.6106  0.0941
 2311TIP3    H1 6894   4.070   2.449   2.265 -0.5134 -1.1586 -1.1971
 2311TIP3    H2 6895   4.041   2.365   2.388  0.4722  0.7861  0.3857
 2312TIP3   OH2 6896   4.406   7.291   3.206  0.3514 -0.5627 -0.7857
 2312TIP3    H1 6897   4.473   7.256   3.147  0.5867 -0.4434 -0.5917
 2312TIP3    H2 6898   4.337   7.323   3.148  1.6236  1.7197 -1.1208
 2313TIP3   OH2 6899   0.709   1.202   3.634 -0.0616  0.0624 -0.1085
 2313TIP3    H1 6900   0.615   1.195   3.619  0.1461 -0.3285 -1.2800
 2313TIP3    H2 6901   0.738   1.271   3.574  0.8814 -1.9593 -2.0778
 2314TIP3   OH2 6902   2.090   3.120   2.984  0.4571  0.0602  0.2475
 2314TIP3    H1 6903   2.168   3.070   3.006 -0.1778 -1.0530 -0.0072
 2314TIP3    H2 6904   2.110   3.209   3.014  2.1024 -0.0427 -0.4495
 2315TIP3   OH2 6905   0.415   1.762   1.882  0.7547 -0.2089 -0.1624
 2315TIP3    H1 6906   0.348   1.732   1.944  0.0694 -0.3824 -0.9786
 2315TIP3    H2 6907   0.446   1.682   1.840 -0.1312  0.0662 -1.3919
 2316TIP3   OH2 6908   1.234   2.516   4.141  0.0711 -0.0085 -0.2050
 2316TIP3    H1 6909   1.252   2.428   4.109 -0.3296 -1.3388  3.0425
 2316TIP3    H2 6910   1.300   2.571   4.098  1.2108 -2.1032 -1.1995
 2317TIP3   OH2 6911   2.100   0.311   3.448 -0.4139 -0.0215  0.2933
 2317TIP3    H1 6912   2.075   0.308   3.541  1.1775  1.5658  0.7945
 2317TIP3    H2 6913   2.194   0.326   3.449 -0.4865  0.6687 -1.5906
 2318TIP3   OH2 6914   2.920   1.857   5.041 -0.0124 -0.4969  0.4804
 2318TIP3    H1 6915   2.907   1.784   4.981  1.0382 -1.2522  1.1595
 2318TIP3    H2 6916   3.011   1.883   5.028 -0.6915  1.4224 -0.5609
 2319TIP3   OH2 6917   3.444   1.685   3.329 -0.8743  0.0828  0.4079
 2319TIP3    H1 6918   3.443   1.780   3.315  1.0309  0.2484  1.1474
 2319TIP3    H2 6919   3.496   1.651   3.256  0.8360 -0.0616  1.6477
 2320TIP3   OH2 6920   1.553   3.617   1.277  1.3157  0.1326  0.3460
 2320TIP3    H1 6921   1.464   3.630   1.309  1.7051  1.1419  1.0772
 2320TIP3    H2 6922   1.600   3.578   1.351  1.2607 -1.2759 -0.3477
 2321TIP3   OH2 6923   3.099   0.346   1.777 -0.5389 -0.6531  0.0586
 2321TIP3    H1 6924   3.079   0.370   1.867 -0.3629  1.1575 -0.3820
 2321TIP3    H2 6925   3.015   0.317   1.741 -0.7406 -0.7344  0.5798
 2322TIP3   OH2 6926   0.054   6.478   5.141 -0.4170  0.1095 -0.0818
 2322TIP3    H1 6927   0.048   6.410   5.208  0.9725  0.9219  0.8900
 2322TIP3    H2 6928   0.122   6.447   5.081 -0.9194 -0.1117 -0.5480
 2323TIP3   OH2 6929   3.769   1.725   1.716 -0.0722 -0.0825  0.0605
 2323TIP3    H1 6930   3.804   1.642   1.682 -0.0189 -0.1515  0.2884
 2323TIP3    H2 6931   3.720   1.700   1.794 -2.0433 -0.2194 -1.1576
 2324TIP3   OH2 6932   5.503   2.807   0.744 -0.0135  0.3248 -0.4069
 2324TIP3    H1 6933   5.486   2.765   0.660 -1.7496 -0.9890  0.5685
 2324TIP3    H2 6934   5.451   2.757   0.807  1.1126  1.4026  1.4263
 2325TIP3   OH2 6935   1.493   0.274   4.003 -0.1666  0.1799 -0.3185
 2325TIP3    H1 6936   1.442   0.242   4.078 -0.4422  2.1785  0.3999
 2325TIP3    H2 6937   1.582   0.242   4.020  0.3408  2.6873  2.2541
 2326TIP3   OH2 6938   2.543   2.978   2.497 -0.0875  0.4884  0.3185
 2326TIP3    H1 6939   2.520   2.963   2.588  1.0273  0.7125  0.6498
 2326TIP3    H2 6940   2.485   2.921   2.447 -0.8292  0.5076  1.1577
 2327TIP3   OH2 6941   7.578   7.303   4.803 -0.5698 -0.1856 -0.2009
 2327TIP3    H1 6942   7.654   7.312   4.861 -0.2319 -0.0310 -0.6644
 2327TIP3    H2 6943   7.580   7.383   4.749 -1.0010 -0.2322 -0.2861
 2328TIP3   OH2 6944   2.010   0.653   4.471  0.1086 -0.2826 -0.1732
 2328TIP3    H1 6945   2.070   0.725   4.451  1.3875 -1.3971 -0.4649
 2328TIP3    H2 6946   1.975   0.627   4.385  1.0493 -1.1703 -0.3126
 2329TIP3   OH2 6947   1.558   1.439   2.722 -0.0436 -0.5241  0.0152
 2329TIP3    H1 6948   1.533   1.513   2.779  0.2298  0.4735 -1.1504
 2329TIP3    H2 6949   1.652   1.428   2.737 -0.1289 -0.7952  0.3653
 2330TIP3   OH2 6950   0.950   2.793   4.704 -0.3817 -0.4220  0.0814
 2330TIP3    H1 6951   0.938   2.841   4.785 -0.1096  0.8102 -0.5899
 2330TIP3    H2 6952   1.028   2.832   4.664 -2.1263  0.9342 -2.1173
 2331TIP3   OH2 6953   2.957   3.631   3.649 -0.4583 -0.0408  0.6013
 2331TIP3    H1 6954   2.897   3.592   3.585 -0.1450  0.4369  0.0143
 2331TIP3    H2 6955   3.043   3.599   3.623 -0.0767  1.7966 -0.4732
 2332TIP3   OH2 6956   1.668   2.370   2.302  0.1358 -0.2277 -0.2433
 2332TIP3    H1 6957   1.666   2.295   2.361 -1.0017  0.3657  0.5003
 2332TIP3    H2 6958   1.598   2.427   2.334  0.5697  0.8527 -1.1841
 2333TIP3   OH2 6959   4.232   2.149   2.270 -0.3168 -0.4669 -0.2723
 2333TIP3    H1 6960   4.217   2.055   2.282  0.0244 -0.3249  1.4175
 2333TIP3    H2 6961   4.178   2.172   2.194  0.3299 -2.2013 -1.2986
 2334TIP3   OH2 6962   6.223   6.471   5.650 -0.3144 -0.8281 -0.1188
 2334TIP3    H1 6963   6.295   6.502   5.595 -1.5397  2.1813 -0.1195
 2334TIP3    H2 6964   6.213   6.379   5.626  2.7167 -1.0065 -0.9667
 2335TIP3   OH2 6965   3.098   1.214   4.666  0.6693 -0.2559  0.7147
 2335TIP3    H1 6966   3.189   1.241   4.656  0.5964  0.4878  1.9042
 2335TIP3    H2 6967   3.073   1.181   4.580  1.1684  2.2524 -0.4280
 2336TIP3   OH2 6968   3.932   0.845   2.933 -0.0625 -0.8489 -1.0208
 2336TIP3    H1 6969   3.901   0.813   3.017 -0.5346 -0.9250 -1.2214
 2336TIP3    H2 6970   4.026   0.860   2.945 -0.2431 -0.2733 -0.2990
 2337TIP3   OH2 6971   2.761   2.073   1.813 -0.3663 -0.4539 -0.4074
 2337TIP3    H1 6972   2.718   2.065   1.727 -0.9160 -2.2100  0.0098
 2337TIP3    H2 6973   2.741   2.162   1.841  0.9333  0.5979 -2.6921
 2338TIP3   OH2 6974   3.355   3.320   3.309  0.2756  0.4472  0.2510
 2338TIP3    H1 6975   3.342   3.317   3.403 -1.4907  2.4960  0.1089
 2338TIP3    H2 6976   3.375   3.412   3.290  1.6560 -0.1267 -1.2673
 2339TIP3   OH2 6977   7.409   0.101   1.103  0.1575 -0.5399 -0.4007
 2339TIP3    H1 6978   7.426   0.084   1.010  1.9649 -2.1963  0.2006
 2339TIP3    H2 6979   7.481   0.058   1.148 -1.0017 -0.1919  1.8179
 2340TIP3   OH2 6980   2.497   4.031   5.698 -0.4285  0.0903 -0.2173
 2340TIP3    H1 6981   2.587   4.005   5.716 -0.3698  1.3602  1.3553
 2340TIP3    H2 6982   2.498   4.055   5.605  0.5941 -0.9420 -0.4892
 2341TIP3   OH2 6983   2.961   3.201   3.041  0.2686 -0.1756 -0.4057
 2341TIP3    H1 6984   3.051   3.200   3.075 -0.0865 -0.3747  0.5479
 2341TIP3    H2 6985   2.944   3.293   3.022  0.8160 -0.1880 -0.9884
 2342TIP3   OH2 6986   1.256   2.178   2.142 -0.5031 -0.3107 -0.1928
 2342TIP3    H1 6987   1.195   2.199   2.071 -1.0075  0.5060  0.4785
 2342TIP3    H2 6988   1.250   2.252   2.202  1.2531 -0.1429 -0.1887
 2343TIP3   OH2 6989   1.179   3.310   2.261 -0.6136 -0.2801  0.6606
 2343TIP3    H1 6990   1.167   3.347   2.349  2.2858  1.1480  0.4884
 2343TIP3    H2 6991   1.151   3.380   2.202  0.4545 -0.0640  0.4058
 2344TIP3   OH2 6992   2.724   1.656   2.430 -0.1842 -0.2718  0.0417
 2344TIP3    H1 6993   2.767   1.571   2.438 -0.6278 -0.4638  0.4538
 2344TIP3    H2 6994   2.788   1.719   2.463  0.0958 -0.4587 -0.1434
 2345TIP3   OH2 6995   4.491   2.574   2.768  1.1437  0.3258  0.1834
 2345TIP3    H1 6996   4.484   2.524   2.687  0.8298  0.5172  0.0900
 2345TIP3    H2 6997   4.569   2.540   2.811 -0.8789 -2.5618  1.7189
 2346TIP3   OH2 6998   3.082   0.441   3.419 -0.4625  0.7234  0.1247
 2346TIP3    H1 6999   3.128   0.503   3.475  0.3645 -0.5869  0.9085
 2346TIP3    H2 7000   3.050   0.373   3.478  0.0918 -0.4781 -0.9216
 2347TIP3   OH2 7001   0.967   2.792   0.145  0.4321 -1.0084  0.5979
 2347TIP3    H1 7002   1.039   2.729   0.147  0.5940 -0.8212  0.7071
 2347TIP3    H2 7003   0.951   2.805   0.052  0.1621 -1.4769  0.5779
 2348TIP3   OH2 7004   3.597   3.662   3.639  0.4774 -0.2564 -0.1264
 2348TIP3    H1 7005   3.638   3.615   3.566 -0.5386  1.1211 -1.6119
 2348TIP3    H2 7006   3.583   3.595   3.705  2.0277 -1.4047 -0.9224
 2349TIP3   OH2 7007   0.376   3.188   1.282  0.8243  0.0566 -0.1286
 2349TIP3    H1 7008   0.386   3.159   1.373  1.1263 -0.2884 -0.2710
 2349TIP3    H2 7009   0.379   3.108   1.231  2.1853  0.3758 -0.5653
 2350TIP3   OH2 7010   2.682   3.056   3.540  0.3405 -0.0298 -0.7959
 2350TIP3    H1 7011   2.733   3.113   3.483 -1.0521  0.6740 -1.3473
 2350TIP3    H2 7012   2.655   2.983   3.484 -0.7406  0.4918 -0.9759
 2351TIP3   OH2 7013   6.400   6.295   2.580  0.1230  0.1313 -0.0200
 2351TIP3    H1 7014   6.470   6.309   2.645  0.0237 -1.4304  0.4448
 2351TIP3    H2 7015   6.416   6.207   2.547 -0.9925  0.1869 -0.7200
 2352TIP3   OH2 7016   2.507   1.366   2.427 -0.2824  0.2438  0.6275
 2352TIP3    H1 7017   2.549   1.293   2.472  0.7461  0.1216 -0.5040
 2352TIP3    H2 7018   2.512   1.438   2.490  0.6639 -0.0679  0.9280
 2353TIP3   OH2 7019   0.341   0.952   1.523  0.5299  0.1822  0.4560
 2353TIP3    H1 7020   0.305   0.874   1.481  0.0682  0.1508  0.9152
 2353TIP3    H2 7021   0.392   0.994   1.454  2.0909 -1.3635  0.6354
 2354TIP3   OH2 7022   0.883   2.318   2.599  0.1924  0.3924  0.0492
 2354TIP3    H1 7023   0.963   2.370   2.600  0.0794  0.6273 -1.4436
 2354TIP3    H2 7024   0.889   2.263   2.677  1.8692  0.3244 -0.1048
 2355TIP3   OH2 7025   1.616   4.021   4.010 -0.5099  0.1854  0.7762
 2355TIP3    H1 7026   1.659   3.961   3.949  0.8702  0.1576  1.7421
 2355TIP3    H2 7027   1.683   4.086   4.032 -1.6230  1.4080  0.6597
 2356TIP3   OH2 7028   4.244   2.563   2.924 -0.1273  0.3150 -0.0033
 2356TIP3    H1 7029   4.166   2.593   2.877 -0.5281 -1.0961 -0.2405
 2356TIP3    H2 7030   4.311   2.555   2.856 -0.1079  0.3454  0.0122
 2357TIP3   OH2 7031   2.993   0.882   1.502  0.0360 -0.0688  0.0374
 2357TIP3    H1 7032   2.955   0.871   1.415  3.0985 -1.5577 -1.2052
 2357TIP3    H2 7033   2.918   0.884   1.562 -2.2143  2.5371 -2.7385
 2358TIP3   OH2 7034   1.258   3.660   2.988 -0.1549 -0.2811 -0.2063
 2358TIP3    H1 7035   1.308   3.583   2.962  0.2311  0.0427 -0.4169
 2358TIP3    H2 7036   1.321   3.732   2.986 -0.6773  0.1693 -0.6972
 2359TIP3   OH2 7037   0.616   3.301   3.413  0.0323  0.0338 -0.5603
 2359TIP3    H1 7038   0.580   3.299   3.324  0.5498 -0.5900 -0.7558
 2359TIP3    H2 7039   0.681   3.371   3.410 -0.7381  0.7680 -0.3655
 2360TIP3   OH2 7040   3.098   2.833   4.232 -0.1311  0.1245  0.3662
 2360TIP3    H1 7041   3.178   2.840   4.284 -0.6876  1.3194  1.0734
 2360TIP3    H2 7042   3.091   2.739   4.211  1.2050 -0.0496  0.6653
 2361TIP3   OH2 7043   2.031   0.566   2.062  0.3340  0.2847  0.1860
 2361TIP3    H1 7044   2.049   0.610   2.145  1.1624  0.1219  0.0955
 2361TIP3    H2 7045   2.069   0.479   2.073  3.3149  1.2950 -1.5219
 2362TIP3   OH2 7046   4.523   3.910   5.223 -0.3423 -0.1455  0.1424
 2362TIP3    H1 7047   4.532   3.938   5.132  0.4352  0.0937  0.2951
 2362TIP3    H2 7048   4.447   3.960   5.255  0.6597  1.3496  0.2329
 2363TIP3   OH2 7049   2.646   0.234   6.132  0.1997 -0.5078  0.1810
 2363TIP3    H1 7050   2.638   0.312   6.077  2.6521  0.1418  0.6893
 2363TIP3    H2 7051   2.574   0.242   6.194 -0.4961  0.5632 -0.7380
 2364TIP3   OH2 7052   3.112   1.736   3.241 -0.6395 -0.5723 -0.1729
 2364TIP3    H1 7053   3.170   1.686   3.299  0.8083  1.0562 -0.2106
 2364TIP3    H2 7054   3.067   1.797   3.300  0.5008  0.7769 -0.6906
 2365TIP3   OH2 7055   6.320   5.922   0.052  0.0910 -0.1138  0.2986
 2365TIP3    H1 7056   6.357   5.931  -0.036  0.9238 -0.1698  0.6390
 2365TIP3    H2 7057   6.228   5.903   0.037  0.1263  0.3565 -0.5587
 2366TIP3   OH2 7058   3.310   2.742   2.048  0.8187 -0.0371 -0.1536
 2366TIP3    H1 7059   3.227   2.732   2.095  0.0321  0.7277 -1.3336
 2366TIP3    H2 7060   3.297   2.820   1.994  1.5363 -1.1007 -1.9210
 2367TIP3   OH2 7061   3.473   2.023   2.979 -0.5315 -0.0497  0.0328
 2367TIP3    H1 7062   3.540   2.045   3.043 -0.3174  1.5509 -0.7306
 2367TIP3    H2 7063   3.398   1.993   3.031  0.1263 -0.0806  0.9544
 2368TIP3   OH2 7064   5.851   7.181   1.632  0.4224  0.3296 -0.2724
 2368TIP3    H1 7065   5.845   7.171   1.537  0.7254 -0.4339 -0.2123
 2368TIP3    H2 7066   5.823   7.271   1.648 -0.1381  0.2954 -1.0348
 2369TIP3   OH2 7067   1.289   3.651   4.544  0.1418 -0.1063  0.1121
 2369TIP3    H1 7068   1.282   3.737   4.586  0.9158 -0.8295  1.7624
 2369TIP3    H2 7069   1.204   3.610   4.561 -0.4197  0.5003 -1.1212
 2370TIP3   OH2 7070   2.654   0.764   2.908  0.1826  0.4836 -0.4635
 2370TIP3    H1 7071   2.699   0.832   2.859  0.5537  0.5261 -0.0663
 2370TIP3    H2 7072   2.609   0.712   2.842  0.1051  0.9595 -0.7887
 2371TIP3   OH2 7073   0.954   7.336   0.797 -0.4530 -0.2879  0.6547
 2371TIP3    H1 7074   0.958   7.385   0.716  1.4170 -0.4113  0.6317
 2371TIP3    H2 7075   0.903   7.258   0.776  0.2200 -0.4331 -0.4725
 2372TIP3   OH2 7076   4.183   3.612   4.366  0.0422 -0.1466 -0.4824
 2372TIP3    H1 7077   4.180   3.697   4.411 -0.2985  0.0612 -0.8853
 2372TIP3    H2 7078   4.153   3.632   4.277  1.5683 -0.3825 -1.0662
 2373TIP3   OH2 7079   2.773   0.730   3.402 -0.0446 -0.2002  0.0565
 2373TIP3    H1 7080   2.737   0.723   3.314  0.8435 -1.8227 -0.1912
 2373TIP3    H2 7081   2.754   0.645   3.442  0.9308 -0.0249  0.9031
 2374TIP3   OH2 7082   3.580   0.800   5.277  0.2980  0.6795  0.5737
 2374TIP3    H1 7083   3.536   0.731   5.327  1.4268  0.0750  0.7507
 2374TIP3    H2 7084   3.520   0.875   5.280 -0.9514 -0.3054  0.3511
 2375TIP3   OH2 7085   1.904   1.044   1.067 -0.0190  0.8201 -0.3835
 2375TIP3    H1 7086   1.815   1.016   1.089 -0.7106  2.1275 -1.4623
 2375TIP3    H2 7087   1.906   1.045   0.971  1.4167  0.0036 -0.3730
 2376TIP3   OH2 7088   0.794   0.664   3.724  0.3109 -0.3443 -0.2414
 2376TIP3    H1 7089   0.757   0.710   3.649  0.9512 -1.1072 -1.0375
 2376TIP3    H2 7090   0.889   0.672   3.713  0.4079 -0.4781  0.4697
 2377TIP3   OH2 7091   0.903   1.612   3.150 -0.2638  0.5459  0.1071
 2377TIP3    H1 7092   0.923   1.656   3.232 -0.3403 -1.2298  1.1082
 2377TIP3    H2 7093   0.950   1.528   3.156 -0.8070  0.1211 -1.3757
 2378TIP3   OH2 7094   3.527   0.616   3.863  0.2859 -0.0966 -0.2072
 2378TIP3    H1 7095   3.614   0.641   3.832 -0.3299 -1.3064 -3.1703
 2378TIP3    H2 7096   3.539   0.528   3.900  0.1379 -0.8304 -1.8404
 2379TIP3   OH2 7097   1.364   2.345   3.071  0.3163  0.0388  0.1803
 2379TIP3    H1 7098   1.433   2.325   3.135  2.0397  1.8324 -1.0562
 2379TIP3    H2 7099   1.410   2.387   2.998 -1.7546 -0.9943 -1.8024
 2380TIP3   OH2 7100   1.920   1.763   0.450  0.0257 -0.2786  0.3618
 2380TIP3    H1 7101   2.001   1.773   0.501  0.5513  0.0491 -0.5195
 2380TIP3    H2 7102   1.852   1.747   0.516  0.4380  1.5839  1.2983
 2381TIP3   OH2 7103   3.326   2.282   4.629  0.2467 -0.3204  0.2322
 2381TIP3    H1 7104   3.324   2.287   4.534  1.5093  1.2054  0.2656
 2381TIP3    H2 7105   3.412   2.318   4.653  0.0580 -0.9475  1.9272
 2382TIP3   OH2 7106   2.716   0.390   2.670  0.1454  0.2473  0.1306
 2382TIP3    H1 7107   2.650   0.403   2.738 -0.2766 -0.0194 -0.2228
 2382TIP3    H2 7108   2.713   0.470   2.618 -1.2903 -0.5643 -1.0601
 2383TIP3   OH2 7109   3.463   3.553   2.923  0.0012 -0.1770 -0.4435
 2383TIP3    H1 7110   3.544   3.551   2.974  0.2377 -0.2947 -0.8225
 2383TIP3    H2 7111   3.490   3.532   2.834  0.4180  4.8983 -1.6844
 2384TIP3   OH2 7112   3.015   2.277   5.863 -0.1054  0.6413  0.2525
 2384TIP3    H1 7113   2.986   2.367   5.881 -1.3588  0.4317 -0.6935
 2384TIP3    H2 7114   2.947   2.222   5.901  0.8284  0.0662  1.1262
 2385TIP3   OH2 7115   2.804   1.850   3.304 -0.3779 -0.1002 -0.2422
 2385TIP3    H1 7116   2.757   1.908   3.364 -1.9111  0.0890 -1.5825
 2385TIP3    H2 7117   2.896   1.859   3.328 -0.9348  0.2432  1.8295
 2386TIP3   OH2 7118   3.820   1.628   2.126 -0.2280 -0.0673 -0.1409
 2386TIP3    H1 7119   3.906   1.626   2.083 -0.4126 -0.0862 -0.5172
 2386TIP3    H2 7120   3.826   1.700   2.189  0.4959 -0.9013  0.7539
 2387TIP3   OH2 7121   3.754   1.426   2.292 -0.1590  0.1437 -0.3538
 2387TIP3    H1 7122   3.806   1.474   2.227  0.3939 -0.2244 -0.1870
 2387TIP3    H2 7123   3.683   1.388   2.242  0.4353 -0.3855 -0.7984
 2388TIP3   OH2 7124   3.808   2.316   2.141 -0.3182  0.0177 -0.1785
 2388TIP3    H1 7125   3.851   2.298   2.057  0.5689  1.1425  0.0198
 2388TIP3    H2 7126   3.880   2.344   2.198 -0.9493 -0.5500  0.9068
 2389TIP3   OH2 7127   2.561   2.449   4.044 -0.2278 -0.4166 -0.2999
 2389TIP3    H1 7128   2.538   2.381   3.981 -1.4064 -0.5003  0.2080
 2389TIP3    H2 7129   2.550   2.531   3.995  0.8209 -0.5631 -0.7948
 2390TIP3   OH2 7130   2.924   2.237   3.575 -0.2026 -0.0135 -0.5412
 2390TIP3    H1 7131   2.849   2.177   3.578 -1.0068  0.9501 -1.2435
 2390TIP3    H2 7132   2.890   2.321   3.606  0.9080  0.1197  0.3881
 2391TIP3   OH2 7133   1.312   0.629   1.731  0.5626 -0.1653  0.4120
 2391TIP3    H1 7134   1.386   0.690   1.732  0.6392 -0.2641  2.7551
 2391TIP3    H2 7135   1.241   0.678   1.773 -0.7880  0.0075 -2.0149
 2392TIP3   OH2 7136   6.652   0.957   4.601 -0.1247 -0.3532 -0.2035
 2392TIP3    H1 7137   6.592   0.945   4.675 -0.3201 -0.7625 -0.4302
 2392TIP3    H2 7138   6.676   0.868   4.575  1.0252 -0.1887  0.2491
 2393TIP3   OH2 7139   3.023   0.286   4.700 -0.2091 -0.4994  0.3485
 2393TIP3    H1 7140   3.009   0.197   4.666 -0.2470 -0.4298  0.1830
 2393TIP3    H2 7141   3.088   0.275   4.770  0.0614 -0.6078  0.0837
 2394TIP3   OH2 7142   2.418   1.195   2.847  0.1440  0.0052  0.0576
 2394TIP3    H1 7143   2.405   1.161   2.935  0.2435 -0.1636  0.0073
 2394TIP3    H2 7144   2.371   1.134   2.790  0.2756 -0.0188 -0.0268
 2395TIP3   OH2 7145   2.501   0.239   1.505  0.1982  0.0607  0.2428
 2395TIP3    H1 7146   2.466   0.315   1.458 -1.2625 -0.7782 -0.0556
 2395TIP3    H2 7147   2.478   0.254   1.597 -1.0095 -0.5094  0.0413
 2396TIP3   OH2 7148   1.984   1.526   4.913 -0.1165 -0.4479  0.4397
 2396TIP3    H1 7149   1.931   1.485   4.982 -1.2383  1.2843  0.6397
 2396TIP3    H2 7150   2.050   1.576   4.959 -0.9990  0.8863  0.2713
 2397TIP3   OH2 7151   1.885   1.604   2.015  0.1186 -0.1664 -0.0702
 2397TIP3    H1 7152   1.972   1.590   1.977  0.1801 -0.8127  0.3053
 2397TIP3    H2 7153   1.900   1.599   2.110 -0.4927 -1.2076 -0.0247
 2398TIP3   OH2 7154   3.549   2.924   1.793  0.5766  0.6049 -0.1087
 2398TIP3    H1 7155   3.557   2.942   1.699  0.4958  1.9331  0.1202
 2398TIP3    H2 7156   3.476   2.980   1.822  0.0768 -0.3955  0.5908
 2399TIP3   OH2 7157   2.061   3.493   4.641  0.1700  0.2490  0.3172
 2399TIP3    H1 7158   2.048   3.494   4.546 -1.5636  0.6147  0.5289
 2399TIP3    H2 7159   1.997   3.557   4.673  0.7122  0.0749  1.7347
 2400TIP3   OH2 7160   5.634   7.218   1.805  0.6153  0.0276  0.4834
 2400TIP3    H1 7161   5.651   7.139   1.754 -2.3481  0.3586 -1.1068
 2400TIP3    H2 7162   5.660   7.194   1.894 -0.2721 -2.7761  0.0440
 2401TIP3   OH2 7163   1.711   2.607   2.931  0.2486  0.2860 -0.0707
 2401TIP3    H1 7164   1.801   2.629   2.908  0.7235 -0.0953  1.3936
 2401TIP3    H2 7165   1.717   2.522   2.975 -0.9742 -0.3289 -1.0597
 2402TIP3   OH2 7166   4.177   2.697   4.154  0.1446 -0.5361  0.3445
 2402TIP3    H1 7167   4.104   2.669   4.209 -0.0208 -0.9313 -0.0749
 2402TIP3    H2 7168   4.251   2.704   4.214 -0.1427 -0.5040  0.7018
 2403TIP3   OH2 7169   1.449   3.528   3.538 -0.0311  0.5036  0.2013
 2403TIP3    H1 7170   1.479   3.576   3.460  1.4689 -0.5456  0.1052
 2403TIP3    H2 7171   1.504   3.560   3.609  1.6546 -1.7469 -0.0541
 2404TIP3   OH2 7172   2.313   2.889   2.715  0.0360 -0.0237  0.5928
 2404TIP3    H1 7173   2.258   2.943   2.657  1.5353  0.2780 -0.5872
 2404TIP3    H2 7174   2.371   2.952   2.757  0.2850 -0.4819  0.9308
 2405TIP3   OH2 7175   7.118   6.844   1.536  0.0780 -0.1150 -0.3103
 2405TIP3    H1 7176   7.053   6.837   1.606 -0.7843  0.7619 -1.0093
 2405TIP3    H2 7177   7.181   6.775   1.555 -0.9309 -0.8277  0.5124
 2406TIP3   OH2 7178   2.073   0.464   3.004  0.2555 -0.5711 -0.2251
 2406TIP3    H1 7179   2.026   0.430   2.927  0.2581 -1.4243  0.1416
 2406TIP3    H2 7180   2.159   0.422   2.999  0.5872  0.1128 -0.2730
 2407TIP3   OH2 7181   1.230   1.701   2.075 -0.4140 -0.2156 -0.3121
 2407TIP3    H1 7182   1.250   1.759   2.149 -0.0118 -1.1743  0.3440
 2407TIP3    H2 7183   1.135   1.710   2.063 -0.3524  0.5880 -0.2266
 2408TIP3   OH2 7184   1.324   2.098   2.931  0.9310  0.2860  0.4629
 2408TIP3    H1 7185   1.408   2.058   2.909  0.9402  0.1266  0.7893
 2408TIP3    H2 7186   1.348   2.175   2.983  0.9088  0.6591 -0.0734
 2409TIP3   OH2 7187   0.843   1.322   3.930  0.3719  0.0070  0.1097
 2409TIP3    H1 7188   0.806   1.400   3.889  0.0306 -0.9867 -1.5209
 2409TIP3    H2 7189   0.876   1.352   4.014 -2.1392  1.3823  0.6355
 2410TIP3   OH2 7190   1.090   0.302   2.178  0.4159  0.3047 -0.7632
 2410TIP3    H1 7191   1.007   0.344   2.201 -0.0927 -0.8185 -0.5108
 2410TIP3    H2 7192   1.067   0.239   2.110  0.9389 -0.4653 -0.2431
 2411TIP3   OH2 7193   2.113   0.470   1.756  0.4056 -0.0813  0.5413
 2411TIP3    H1 7194   2.180   0.510   1.812  0.6131  0.1754  0.1091
 2411TIP3    H2 7195   2.051   0.430   1.818  0.1614  0.9634  0.9837
 2412TIP3   OH2 7196   0.485   7.001   0.922  0.0748  0.1676  0.5023
 2412TIP3    H1 7197   0.555   7.030   0.864 -0.2103 -1.2470 -0.5697
 2412TIP3    H2 7198   0.516   7.023   1.010  1.3396  0.6123 -0.0435
 2413TIP3   OH2 7199   1.629   2.348   4.474  0.2554 -0.3408  0.0790
 2413TIP3    H1 7200   1.693   2.373   4.541 -0.8465  1.9133  0.3360
 2413TIP3    H2 7201   1.659   2.392   4.395 -1.5562  1.6834  0.4698
 2414TIP3   OH2 7202   2.302   0.804   2.514  0.0776 -0.3905  0.4880
 2414TIP3    H1 7203   2.362   0.732   2.495  0.1298 -0.0691 -0.5683
 2414TIP3    H2 7204   2.218   0.762   2.533 -0.4131 -0.6370 -2.1249
 2415TIP3   OH2 7205   7.484   6.369   2.249  0.4076 -0.6005 -0.2473
 2415TIP3    H1 7206   7.502   6.459   2.276  0.4061 -0.4142 -0.8545
 2415TIP3    H2 7207   7.518   6.364   2.159  0.8785 -1.3589 -0.0256
 2416TIP3   OH2 7208   7.614   0.869   1.311 -0.1656  0.1342 -0.2666
 2416TIP3    H1 7209   7.606   0.776   1.290 -0.5330 -0.0507  0.6836
 2416TIP3    H2 7210   7.524   0.896   1.332  0.2942  0.1537  1.7295
 2417TIP3   OH2 7211   2.849   2.966   1.768  0.5567  0.0658  0.0195
 2417TIP3    H1 7212   2.869   2.942   1.678 -0.7978  1.9384 -0.8080
 2417TIP3    H2 7213   2.886   2.895   1.821 -0.6919 -2.2464 -2.1215
 2418TIP3   OH2 7214   2.338   1.078   2.616  0.2113 -0.0273 -0.3222
 2418TIP3    H1 7215   2.288   1.115   2.543 -2.1599 -1.2409  0.6426
 2418TIP3    H2 7216   2.334   0.983   2.601  1.1892 -0.1925  0.4503
 2419TIP3   OH2 7217   1.349   2.458   4.407 -0.6265 -0.4256 -0.4825
 2419TIP3    H1 7218   1.327   2.473   4.315 -3.5279  0.0839  0.2278
 2419TIP3    H2 7219   1.276   2.406   4.440 -0.1100  0.2433  1.7652
 2420TIP3   OH2 7220   0.837   2.612   0.330 -0.2364 -0.7172 -0.0741
 2420TIP3    H1 7221   0.859   2.690   0.280 -0.0521  0.1892  1.3783
 2420TIP3    H2 7222   0.816   2.545   0.264 -0.7202  0.6467 -1.3142
 2421TIP3   OH2 7223   2.791   0.378   1.904 -0.2884  0.1667 -0.2750
 2421TIP3    H1 7224   2.726   0.433   1.949  0.4160  1.0782 -0.3598
 2421TIP3    H2 7225   2.874   0.401   1.944 -0.0474 -1.2715  0.0883
 2422TIP3   OH2 7226   3.085   0.117   2.571  0.1202  0.5879  0.5041
 2422TIP3    H1 7227   3.031   0.156   2.639 -1.2900  1.7337 -1.2158
 2422TIP3    H2 7228   3.075   0.022   2.582 -0.4813  0.7827  1.5600
 2423TIP3   OH2 7229   1.058   6.699   1.889  0.2800 -0.4782 -0.1015
 2423TIP3    H1 7230   1.038   6.703   1.982  0.9501  0.7741 -0.0087
 2423TIP3    H2 7231   0.973   6.708   1.845  0.0123 -0.6954  0.3668
 2424TIP3   OH2 7232   1.568   2.004   2.881  0.4134 -0.0846 -0.4483
 2424TIP3    H1 7233   1.594   2.039   2.796 -0.2728 -0.4583 -0.8171
 2424TIP3    H2 7234   1.639   1.944   2.905  0.9631  0.5730 -0.4118
 2425TIP3   OH2 7235   2.168   1.301   0.647 -0.2254  0.0233  0.0938
 2425TIP3    H1 7236   2.185   1.324   0.738 -0.1675  0.8255 -0.1139
 2425TIP3    H2 7237   2.177   1.384   0.599 -0.9554 -0.2556 -0.5419
 2426TIP3   OH2 7238   0.892   1.073   2.819  0.3728  0.0853 -0.5498
 2426TIP3    H1 7239   0.917   1.058   2.727  1.0862 -1.1554 -0.1567
 2426TIP3    H2 7240   0.801   1.045   2.823  0.7255 -1.0856 -0.5855
 2427TIP3   OH2 7241   1.367   3.922   3.212  0.1033  0.1831  0.0929
 2427TIP3    H1 7242   1.379   3.974   3.291  0.7713 -0.5572  0.4899
 2427TIP3    H2 7243   1.416   3.841   3.229  0.0774 -0.0675 -0.9879
 2428TIP3   OH2 7244   2.038   3.757   2.705 -0.1887  0.6581 -0.4937
 2428TIP3    H1 7245   2.037   3.753   2.800  0.3630 -0.1256 -0.5134
 2428TIP3    H2 7246   1.960   3.807   2.682 -2.0146 -1.7354  0.2499
 2429TIP3   OH2 7247   1.554   3.149   1.570 -0.2349 -0.2520  0.2089
 2429TIP3    H1 7248   1.544   3.205   1.647 -1.2572  0.2621 -0.2859
 2429TIP3    H2 7249   1.556   3.060   1.605 -2.5829 -0.1418  0.6944
 2430TIP3   OH2 7250   0.549   2.873   0.929 -0.2557 -0.3949  0.6930
 2430TIP3    H1 7251   0.586   2.787   0.909 -0.1222 -0.1723 -0.0186
 2430TIP3    H2 7252   0.546   2.918   0.845 -0.9495  0.0563  0.9570
 2431TIP3   OH2 7253   2.915   1.338   4.252  0.2843 -0.7127 -0.3240
 2431TIP3    H1 7254   2.838   1.358   4.306 -0.7655 -0.5993 -1.8270
 2431TIP3    H2 7255   2.881   1.335   4.162  1.9115 -1.3794 -0.9312
 2432TIP3   OH2 7256   4.413   1.874   4.116 -0.0112 -0.0754  0.6662
 2432TIP3    H1 7257   4.332   1.858   4.163 -0.7251  1.1271 -0.1213
 2432TIP3    H2 7258   4.423   1.800   4.057 -0.9867  0.1920  0.1616
 2433TIP3   OH2 7259   1.939   2.690   5.476  0.0431  0.1641 -0.5979
 2433TIP3    H1 7260   2.008   2.647   5.424  0.0117 -0.7686  0.1248
 2433TIP3    H2 7261   1.924   2.773   5.431  2.1273  0.6904 -0.3837
 2434TIP3   OH2 7262   0.492   1.659   4.191 -1.0495  0.1331  0.0598
 2434TIP3    H1 7263   0.475   1.682   4.282 -1.4154 -0.4049  0.1288
 2434TIP3    H2 7264   0.444   1.578   4.177 -0.3201 -0.2356 -0.3713
 2435TIP3   OH2 7265   2.726   2.059   3.538 -0.3873 -0.2681  0.2410
 2435TIP3    H1 7266   2.680   2.124   3.484 -0.0527  1.6843  2.2050
 2435TIP3    H2 7267   2.657   1.999   3.566 -0.9220 -0.0895 -0.6626
 2436TIP3   OH2 7268   4.759   7.195   0.559  0.1531  0.2142  0.1502
 2436TIP3    H1 7269   4.841   7.240   0.540 -0.7168  1.4338 -0.8255
 2436TIP3    H2 7270   4.784   7.121   0.614  2.0454 -0.1868 -1.2305
 2437TIP3   OH2 7271   3.769   2.888   3.568  0.2747  0.0699 -0.4328
 2437TIP3    H1 7272   3.790   2.797   3.592  0.6945 -0.3025 -2.1177
 2437TIP3    H2 7273   3.824   2.941   3.626  0.9138 -0.7792 -0.2403
 2438TIP3   OH2 7274   2.803   3.281   4.446 -0.1378 -0.4528  0.4304
 2438TIP3    H1 7275   2.857   3.324   4.379 -0.9281  1.3884  0.9307
 2438TIP3    H2 7276   2.750   3.218   4.397 -2.8341  2.9149 -1.1895
 2439TIP3   OH2 7277   2.028   0.190   2.567 -0.2561 -0.0906  0.2125
 2439TIP3    H1 7278   1.973   0.246   2.623  0.0279  0.7842 -0.3810
 2439TIP3    H2 7279   1.981   0.106   2.564 -0.7182  0.1303  1.0525
 2440TIP3   OH2 7280   2.879   3.642   5.716 -0.0769  0.3449 -0.1066
 2440TIP3    H1 7281   2.838   3.674   5.796 -0.0319  0.2056 -0.0285
 2440TIP3    H2 7282   2.970   3.671   5.722 -0.1376  0.5637 -0.2313
 2441TIP3   OH2 7283   2.119   2.662   0.913 -0.4049 -0.8075  0.0021
 2441TIP3    H1 7284   2.127   2.668   0.817  1.2765 -2.7708  0.0033
 2441TIP3    H2 7285   2.171   2.586   0.937 -0.3131  0.0272  2.5742
 2442TIP3   OH2 7286   0.819   3.005   2.752 -0.4742  0.0115  0.0147
 2442TIP3    H1 7287   0.847   2.930   2.804 -0.7932 -0.1770 -0.0776
 2442TIP3    H2 7288   0.898   3.035   2.707 -0.4470 -0.5932 -0.3476
 2443TIP3   OH2 7289   1.385   3.181   2.900  0.6032 -0.1186 -0.5511
 2443TIP3    H1 7290   1.397   3.098   2.854 -1.5259 -1.1046  0.5730
 2443TIP3    H2 7291   1.291   3.199   2.893  1.3706  3.4820 -2.8749
 2444TIP3   OH2 7292   2.854   1.321   2.700  0.1360  0.2169 -0.2115
 2444TIP3    H1 7293   2.795   1.297   2.771 -0.4156 -0.0841 -0.7734
 2444TIP3    H2 7294   2.821   1.275   2.623 -0.7582  2.5047 -1.2538
 2445TIP3   OH2 7295   3.258   2.292   4.352  0.3411  0.2483 -0.0317
 2445TIP3    H1 7296   3.166   2.283   4.327  0.7199 -1.5245 -0.8242
 2445TIP3    H2 7297   3.307   2.255   4.279  1.7609  2.3971 -0.2301
 2446TIP3   OH2 7298   2.897   2.124   1.351 -0.2579 -0.1168  0.1236
 2446TIP3    H1 7299   2.864   2.163   1.432  1.2086  2.6576 -0.5502
 2446TIP3    H2 7300   2.841   2.048   1.337 -1.9529  0.6095  2.5727
 2447TIP3   OH2 7301   2.445   0.762   1.693 -0.0298  0.6054 -0.0311
 2447TIP3    H1 7302   2.510   0.692   1.701 -1.1857 -0.8288 -2.6463
 2447TIP3    H2 7303   2.395   0.757   1.775  1.1153 -0.3514  0.6367
 2448TIP3   OH2 7304   2.892   2.083   4.556 -0.0185  0.0168 -0.4098
 2448TIP3    H1 7305   2.884   2.097   4.651  0.5647  0.5455 -0.4345
 2448TIP3    H2 7306   2.801   2.075   4.526 -0.2442  0.6125  0.0825
 2449TIP3   OH2 7307   5.436   6.533   5.582 -0.5434 -0.1354 -0.4844
 2449TIP3    H1 7308   5.506   6.514   5.520  1.0468  1.2831  0.8506
 2449TIP3    H2 7309   5.408   6.447   5.615  1.2040 -0.6530 -0.3398
 2450TIP3   OH2 7310   2.966   1.862   5.619  0.3222 -0.1006 -0.8245
 2450TIP3    H1 7311   2.993   1.946   5.582 -0.8053  0.1436 -1.1297
 2450TIP3    H2 7312   2.942   1.809   5.543 -0.1563 -0.2699 -0.5572
 2451TIP3   OH2 7313   2.336   2.621   3.143  0.0775  0.3808 -0.4362
 2451TIP3    H1 7314   2.400   2.635   3.072 -0.7567  0.1642 -1.2426
 2451TIP3    H2 7315   2.251   2.639   3.102 -0.3844  0.5355  0.5973
 2452TIP3   OH2 7316   2.478   2.657   2.893 -0.4690  0.0148  0.0169
 2452TIP3    H1 7317   2.557   2.635   2.845  0.5354  1.7469  0.8331
 2452TIP3    H2 7318   2.457   2.746   2.864 -1.4360  0.0102  0.6992
 2453TIP3   OH2 7319   2.497   3.305   4.655 -0.1600 -0.6576  0.6283
 2453TIP3    H1 7320   2.524   3.224   4.613  2.4046  0.6881 -0.4214
 2453TIP3    H2 7321   2.572   3.331   4.709 -0.6577  1.3649  0.4091
 2454TIP3   OH2 7322   4.406   4.839   0.980  0.4814 -0.1283 -0.2399
 2454TIP3    H1 7323   4.413   4.876   0.891  2.7784  0.7307  0.2666
 2454TIP3    H2 7324   4.400   4.745   0.966 -0.2409  0.0654 -1.3398
 2455TIP3   OH2 7325   2.047   1.673   6.250 -0.2233  0.0152 -0.0127
 2455TIP3    H1 7326   1.980   1.735   6.279 -0.6576 -0.9369  1.0586
 2455TIP3    H2 7327   1.997   1.597   6.220  0.3442 -0.2943 -0.1690
 2456TIP3   OH2 7328   4.111   3.218   4.692 -0.1339 -0.2105 -0.2015
 2456TIP3    H1 7329   4.193   3.225   4.741 -1.5402  1.4849  2.0023
 2456TIP3    H2 7330   4.103   3.301   4.646 -1.1104  0.0352  0.4057
 2457TIP3   OH2 7331   0.408   3.468   2.426 -0.1251  0.3085 -0.0554
 2457TIP3    H1 7332   0.421   3.393   2.367 -2.3053 -0.1858  0.0261
 2457TIP3    H2 7333   0.420   3.432   2.514 -1.1819  0.0320 -0.0160
 2458TIP3   OH2 7334   0.321   0.921   2.826  0.6052 -0.0410  0.4357
 2458TIP3    H1 7335   0.342   0.977   2.751 -1.3920  1.3473  0.8802
 2458TIP3    H2 7336   0.300   0.983   2.896 -1.3811 -1.3567  1.0240
 2459TIP3   OH2 7337   2.383   1.336   2.127  0.1046  0.4437  0.2022
 2459TIP3    H1 7338   2.409   1.310   2.039  1.4915 -1.8238  1.2188
 2459TIP3    H2 7339   2.465   1.362   2.169 -0.4411  0.8205  1.0492
 2460TIP3   OH2 7340   0.698   7.152   0.806  0.0027 -0.0175 -0.0439
 2460TIP3    H1 7341   0.668   7.133   0.717  0.7241  1.7186 -0.6913
 2460TIP3    H2 7342   0.637   7.217   0.839 -1.1134 -1.7133  1.2889
 2461TIP3   OH2 7343   1.979   2.076   1.944 -0.6508  0.4220  0.5168
 2461TIP3    H1 7344   1.892   2.084   1.982 -0.6837  1.6481  0.2042
 2461TIP3    H2 7345   2.036   2.126   2.002 -0.5188  1.4062 -0.4361
 2462TIP3   OH2 7346   3.936   1.220   0.186 -0.1384 -0.0939  0.3888
 2462TIP3    H1 7347   3.893   1.303   0.166 -0.9255 -0.0364  2.1277
 2462TIP3    H2 7348   4.018   1.245   0.229  0.1150 -0.2064 -0.0329
 2463TIP3   OH2 7349   5.509   1.953   2.657 -0.0069 -0.2639 -0.3418
 2463TIP3    H1 7350   5.466   1.934   2.741 -0.2125 -1.5275 -0.7205
 2463TIP3    H2 7351   5.534   2.045   2.663  0.1597 -0.3938  1.1890
 2464TIP3   OH2 7352   1.706   2.773   2.468  0.9049  0.1739  0.3999
 2464TIP3    H1 7353   1.657   2.805   2.393 -0.3250  1.7969  1.8717
 2464TIP3    H2 7354   1.705   2.845   2.531  1.2452 -1.4285  2.2979
 2465TIP3   OH2 7355   4.982   3.461   2.938 -0.4342 -0.0356  0.2828
 2465TIP3    H1 7356   4.949   3.451   3.028 -1.2236  0.9398  0.1106
 2465TIP3    H2 7357   5.037   3.383   2.924 -1.9448 -1.2515  0.8975
 2466TIP3   OH2 7358   1.840   4.589   3.186 -0.4982 -0.2743  0.7624
 2466TIP3    H1 7359   1.799   4.502   3.194  2.1776 -1.5692  0.9313
 2466TIP3    H2 7360   1.882   4.588   3.100 -0.0786  0.6910  0.9536
 2467TIP3   OH2 7361   3.878   3.589   5.624  0.2188  0.0921  0.4041
 2467TIP3    H1 7362   3.912   3.502   5.641  1.5471  0.9677  2.4219
 2467TIP3    H2 7363   3.927   3.646   5.683 -1.1102  2.1089 -0.3800
 2468TIP3   OH2 7364   2.641   3.121   2.045  0.2659  0.5955 -0.1110
 2468TIP3    H1 7365   2.550   3.148   2.054  0.6510  1.9178 -0.0591
 2468TIP3    H2 7366   2.671   3.109   2.136  0.3691  0.9593 -0.0948
 2469TIP3   OH2 7367   2.687   0.203   0.745  0.8311  0.3034 -0.4031
 2469TIP3    H1 7368   2.733   0.243   0.819  1.1693 -2.7201  1.0755
 2469TIP3    H2 7369   2.599   0.240   0.749  1.4890  1.8994  0.0838
 2470TIP3   OH2 7370   3.949   1.893   2.154  0.2262 -0.2352 -0.1716
 2470TIP3    H1 7371   3.962   1.896   2.249  1.1452 -0.4169 -0.2847
 2470TIP3    H2 7372   3.975   1.980   2.123  1.0721 -0.5572 -0.3865
 2471TIP3   OH2 7373   3.063   3.036   3.353  0.2196  0.1535 -0.0665
 2471TIP3    H1 7374   2.997   2.977   3.316  1.2808 -1.0753 -0.0260
 2471TIP3    H2 7375   3.100   3.081   3.277  1.5718 -1.5090 -0.4212
 2472TIP3   OH2 7376   4.009   3.801   3.499 -0.4024  0.2946  0.2082
 2472TIP3    H1 7377   3.967   3.716   3.486 -1.3776  0.7582  0.2291
 2472TIP3    H2 7378   4.095   3.792   3.460 -0.7553 -0.4917 -0.3943
 2473TIP3   OH2 7379   2.326   1.796   3.407  0.0707 -0.1444 -0.0493
 2473TIP3    H1 7380   2.327   1.891   3.421  1.3629 -0.1633  0.1004
 2473TIP3    H2 7381   2.257   1.781   3.342  0.7560  1.0455 -1.0628
 2474TIP3   OH2 7382   7.648   6.953   0.022 -0.1959 -0.0557 -0.8353
 2474TIP3    H1 7383   7.571   6.897   0.023  0.3303 -0.8016  1.0710
 2474TIP3    H2 7384   7.651   6.991   0.110  0.9667  0.8607 -1.2499
 2475TIP3   OH2 7385   5.066   2.524   2.800 -0.6307  0.0534  0.0670
 2475TIP3    H1 7386   5.048   2.466   2.726 -0.3076  0.2341 -0.1541
 2475TIP3    H2 7387   5.062   2.466   2.876  1.1421 -0.5694 -0.2785
 2476TIP3   OH2 7388   3.677   2.063   2.735  0.3788  0.3235  0.0505
 2476TIP3    H1 7389   3.727   1.984   2.716 -0.4359 -0.0492 -0.5761
 2476TIP3    H2 7390   3.593   2.049   2.692 -0.5001  0.6615  1.6392
 2477TIP3   OH2 7391   0.867   1.666   4.478  0.4804  0.0321 -0.1699
 2477TIP3    H1 7392   0.881   1.666   4.572  1.3631  0.8250 -0.2966
 2477TIP3    H2 7393   0.895   1.753   4.449  0.1556 -0.1774 -1.1517
 2478TIP3   OH2 7394   3.234   0.661   2.804 -0.5384 -0.0420 -0.1981
 2478TIP3    H1 7395   3.271   0.579   2.771 -0.7062  0.2273 -1.0702
 2478TIP3    H2 7396   3.254   0.660   2.897  1.0118 -0.2495 -0.5172
 2479TIP3   OH2 7397   3.160   2.410   4.996  0.7118  0.5091  0.0166
 2479TIP3    H1 7398   3.250   2.389   4.971  0.3654  0.3361 -1.1199
 2479TIP3    H2 7399   3.142   2.494   4.954 -0.8373 -1.1299 -2.8409
 2480TIP3   OH2 7400   3.981   1.953   2.410  0.1374  0.4633 -0.1492
 2480TIP3    H1 7401   4.046   1.938   2.479 -0.0270  2.9090  0.5810
 2480TIP3    H2 7402   3.927   2.024   2.444 -0.9100  0.6297 -2.1503
 2481TIP3   OH2 7403   0.858   2.565   4.585  0.2821  0.2595  0.0631
 2481TIP3    H1 7404   0.885   2.626   4.653 -0.1411  0.0004  0.4686
 2481TIP3    H2 7405   0.765   2.585   4.571 -0.0446 -0.7714  0.7074
 2482TIP3   OH2 7406   3.778   1.199   1.417 -0.5376  0.1966 -0.0944
 2482TIP3    H1 7407   3.687   1.182   1.394 -0.9158  2.1360 -0.0896
 2482TIP3    H2 7408   3.811   1.114   1.447 -1.6889 -1.0318 -2.1935
 2483TIP3   OH2 7409   3.635   0.417   1.337  0.1212 -0.3264  0.1526
 2483TIP3    H1 7410   3.672   0.498   1.302 -0.9390  0.0561 -0.1114
 2483TIP3    H2 7411   3.566   0.446   1.396  0.4704 -1.0207  0.9077
 2484TIP3   OH2 7412   1.412   2.196   3.492  0.5265 -0.2098  0.1375
 2484TIP3    H1 7413   1.320   2.220   3.503  0.7015  1.8049 -2.3011
 2484TIP3    H2 7414   1.456   2.233   3.568 -0.4015  0.5806  0.2967
 2485TIP3   OH2 7415   1.042   2.528   3.550 -0.2016  0.4390  0.0070
 2485TIP3    H1 7416   1.113   2.583   3.519 -0.5262  1.2594  0.7027
 2485TIP3    H2 7417   1.076   2.486   3.629 -0.6398  1.2016  0.6139
 2486TIP3   OH2 7418   1.502   0.622   4.478 -0.6667 -0.0687 -0.8471
 2486TIP3    H1 7419   1.538   0.641   4.392 -0.6905  1.1204 -0.6024
 2486TIP3    H2 7420   1.407   0.633   4.468 -0.6227  0.6132 -0.5376
 2487TIP3   OH2 7421   1.220   3.668   4.946  0.2776  0.0118  0.2457
 2487TIP3    H1 7422   1.165   3.675   4.868  1.5938  1.2993 -0.5984
 2487TIP3    H2 7423   1.163   3.627   5.012 -2.0306  2.2564 -0.2724
 2488TIP3   OH2 7424   0.910   4.238   4.820  0.4629  0.2874  0.1418
 2488TIP3    H1 7425   0.841   4.302   4.836  1.2888  0.9344  1.1377
 2488TIP3    H2 7426   0.867   4.153   4.831 -0.6530  0.6497 -1.2613
 2489TIP3   OH2 7427   1.068   3.242   3.223  0.3877 -0.4285 -0.1261
 2489TIP3    H1 7428   1.090   3.305   3.292 -2.0529  0.3669 -0.0459
 2489TIP3    H2 7429   1.065   3.158   3.269 -0.4866 -0.0094  0.5911
 2490TIP3   OH2 7430   0.983   6.111   2.019  0.6339 -0.4794  1.2693
 2490TIP3    H1 7431   0.961   6.196   1.980 -1.8295  0.2141  3.9992
 2490TIP3    H2 7432   0.932   6.047   1.968 -0.6198  0.1316  1.7451
 2491TIP3   OH2 7433   0.082   2.687   2.251  0.7323 -0.2600  0.8989
 2491TIP3    H1 7434   0.127   2.771   2.261  0.1440  0.0959  0.6276
 2491TIP3    H2 7435   0.120   2.648   2.172 -0.0947  0.4808  0.1132
 2492TIP3   OH2 7436   3.011   3.802   2.933 -0.4508  0.2937 -0.1239
 2492TIP3    H1 7437   3.089   3.747   2.928 -0.4462  0.4595 -2.3747
 2492TIP3    H2 7438   3.042   3.891   2.918 -1.0050  0.4211 -0.5443
 2493TIP3   OH2 7439   1.753   1.850   3.600  0.0160 -0.2124  0.6097
 2493TIP3    H1 7440   1.674   1.885   3.640 -1.5947  0.4724 -3.0183
 2493TIP3    H2 7441   1.736   1.756   3.593 -0.3075 -0.1186  0.1630
 2494TIP3   OH2 7442   2.489   3.158   2.793 -0.6086  0.0158  0.3502
 2494TIP3    H1 7443   2.436   3.196   2.723 -1.0780 -0.8437  0.2298
 2494TIP3    H2 7444   2.577   3.191   2.778 -1.1242  1.5500  0.6181
 2495TIP3   OH2 7445   5.049   3.317   3.911 -0.3967  0.5029  0.1529
 2495TIP3    H1 7446   5.128   3.266   3.891  0.4463  1.4722  0.9663
 2495TIP3    H2 7447   5.010   3.336   3.826 -0.5028 -1.1313 -0.1940
 2496TIP3   OH2 7448   7.306   2.557   3.236  0.2844  0.3262 -0.0038
 2496TIP3    H1 7449   7.210   2.555   3.236  0.2987 -0.5737 -0.9465
 2496TIP3    H2 7450   7.331   2.506   3.314 -0.0087  2.5640  1.6153
 2497TIP3   OH2 7451   3.251   0.144   2.920 -0.2558 -0.0705  0.2712
 2497TIP3    H1 7452   3.174   0.195   2.946 -0.5122 -0.3636  0.0898
 2497TIP3    H2 7453   3.223   0.053   2.929  0.1541 -0.1815  0.4515
 2498TIP3   OH2 7454   3.156   3.210   3.841 -0.1657  0.2931 -0.1531
 2498TIP3    H1 7455   3.098   3.195   3.767 -2.1345  1.1341  1.1761
 2498TIP3    H2 7456   3.122   3.290   3.882  0.6271 -0.4046  1.9012
 2499TIP3   OH2 7457   1.764   0.340   2.125 -0.5858 -0.2187  0.1804
 2499TIP3    H1 7458   1.833   0.304   2.181 -0.9745 -0.6524  0.3854
 2499TIP3    H2 7459   1.683   0.303   2.161 -0.9857  0.7785  0.3328
 2500TIP3   OH2 7460   1.126   2.288   1.936 -0.3927  0.5536  0.4396
 2500TIP3    H1 7461   1.091   2.225   1.873  1.2213 -1.5385  1.5830
 2500TIP3    H2 7462   1.214   2.307   1.904 -0.2838  0.9790  0.9939
 2501TIP3   OH2 7463   1.455   0.872   1.725 -0.3529 -0.0741  0.3206
 2501TIP3    H1 7464   1.393   0.943   1.736 -1.0707 -0.4603 -1.1432
 2501TIP3    H2 7465   1.508   0.897   1.649  0.3163 -0.4425  0.6519
 2502TIP3   OH2 7466   6.823   7.303   2.200  0.3528  0.0506  0.2731
 2502TIP3    H1 7467   6.853   7.232   2.143 -0.6470 -1.1507  1.2238
 2502TIP3    H2 7468   6.850   7.383   2.155  0.4554 -0.9023 -1.3842
 2503TIP3   OH2 7469   7.338   6.670   2.154  0.0784 -0.6513  0.1984
 2503TIP3    H1 7470   7.305   6.706   2.236 -0.0566 -0.1855 -0.0561
 2503TIP3    H2 7471   7.415   6.724   2.134  0.8366 -1.5483  0.6470
 2504TIP3   OH2 7472   2.241   0.934   2.271  0.2219  0.4703 -0.0509
 2504TIP3    H1 7473   2.236   0.875   2.345  0.7864  0.6310  0.1208
 2504TIP3    H2 7474   2.228   1.021   2.308  1.5836  0.6568  0.0372
 2505TIP3   OH2 7475   3.299   0.960   3.545  0.5296  0.3166  0.0838
 2505TIP3    H1 7476   3.329   0.986   3.632  1.1085  0.0656 -0.0377
 2505TIP3    H2 7477   3.209   0.931   3.559  0.5830  0.3818  0.5822
 2506TIP3   OH2 7478   1.503   1.119   0.903  0.5539  0.2498  0.0110
 2506TIP3    H1 7479   1.591   1.158   0.897  1.5846 -2.1714 -1.2837
 2506TIP3    H2 7480   1.456   1.176   0.964  2.4663  2.6014 -0.6285
 2507TIP3   OH2 7481   0.809   3.478   1.067  0.5093 -0.7160 -0.1991
 2507TIP3    H1 7482   0.890   3.525   1.045  0.1692 -0.6652 -1.3983
 2507TIP3    H2 7483   0.820   3.391   1.027  0.1747 -0.8805  0.0586
 2508TIP3   OH2 7484   0.208   0.136   2.302 -0.1864 -0.7431 -0.0462
 2508TIP3    H1 7485   0.152   0.209   2.278 -1.0744 -0.5339  2.5556
 2508TIP3    H2 7486   0.181   0.065   2.243 -0.6196  0.4184 -1.2844
 2509TIP3   OH2 7487   1.383   0.596   2.777  0.4458  0.1957 -0.0225
 2509TIP3    H1 7488   1.328   0.565   2.705  2.3714 -0.0841 -1.4249
 2509TIP3    H2 7489   1.393   0.690   2.760  0.5362  0.2135  0.1291
 2510TIP3   OH2 7490   1.864   4.076   2.140  0.7464 -0.5692 -0.1132
 2510TIP3    H1 7491   1.868   4.115   2.053  1.1358  0.7159  0.4579
 2510TIP3    H2 7492   1.778   4.102   2.174 -1.1859 -4.5830 -1.6797
 2511TIP3   OH2 7493   3.588   1.036   1.837  0.3882 -0.3748  0.4290
 2511TIP3    H1 7494   3.616   1.006   1.923  0.4780  1.5284  1.0765
 2511TIP3    H2 7495   3.493   1.046   1.844  0.5661  1.1793  0.7644
 2512TIP3   OH2 7496   0.998   6.146   5.633 -0.2682  0.3108 -0.1383
 2512TIP3    H1 7497   0.977   6.188   5.717 -0.2853 -1.2319  0.6451
 2512TIP3    H2 7498   0.913   6.121   5.597 -0.1347 -0.9939  0.4307
 2513TIP3   OH2 7499   2.777   2.465   3.635 -0.5867 -0.1373 -0.1477
 2513TIP3    H1 7500   2.801   2.538   3.578  0.1655 -0.6730 -0.5174
 2513TIP3    H2 7501   2.820   2.486   3.719 -0.4707 -0.0972 -0.2169
 2514TIP3   OH2 7502   0.828   3.723   2.495  0.1602 -0.5037 -0.3812
 2514TIP3    H1 7503   0.919   3.741   2.522  0.0782  0.0070 -0.4383
 2514TIP3    H2 7504   0.790   3.675   2.569  0.2934 -0.1681 -0.0918
 2515TIP3   OH2 7505   3.896   0.782   3.230  0.1221 -0.3107 -0.0416
 2515TIP3    H1 7506   3.982   0.741   3.243  0.3592  0.4523  0.8127
 2515TIP3    H2 7507   3.833   0.711   3.245  0.5347 -0.4214  1.1768
 2516TIP3   OH2 7508   7.781   7.301   5.002  0.2037 -0.3851  0.2567
 2516TIP3    H1 7509   7.850   7.364   4.980 -1.3821  1.2960 -0.0895
 2516TIP3    H2 7510   7.765   7.315   5.095 -0.7072  0.3075  0.0007
 2517TIP3   OH2 7511   5.301   3.835   1.342 -0.4651  0.1680  0.1160
 2517TIP3    H1 7512   5.264   3.860   1.258  3.3313  0.3675 -1.6018
 2517TIP3    H2 7513   5.379   3.889   1.351 -0.0368 -0.8305  3.1508
 2518TIP3   OH2 7514   5.065   1.603   3.827  0.2785 -0.1415 -0.1697
 2518TIP3    H1 7515   5.117   1.618   3.748  2.0568 -0.4232  0.9267
 2518TIP3    H2 7516   5.054   1.690   3.866  1.9231 -0.3403  0.8036
 2519TIP3   OH2 7517   3.049   1.442   0.954 -0.2684  0.3024 -0.3180
 2519TIP3    H1 7518   2.983   1.510   0.940 -2.4212 -1.3192  1.4484
 2519TIP3    H2 7519   3.042   1.385   0.878 -0.8915  0.1828 -0.1783
 2520TIP3   OH2 7520   4.328   2.665   0.607 -0.5963 -0.0498  0.0412
 2520TIP3    H1 7521   4.300   2.724   0.677  1.1732  2.3255 -1.1762
 2520TIP3    H2 7522   4.274   2.690   0.532  0.7631  0.6618 -0.7227
 2521TIP3   OH2 7523   4.366   0.981   4.117  0.2782  0.2823  0.2586
 2521TIP3    H1 7524   4.320   1.041   4.059  1.2249  1.4902  0.7174
 2521TIP3    H2 7525   4.459   0.994   4.096  0.4742 -1.3175  0.0861
 2522TIP3   OH2 7526   4.243   3.082   1.008 -0.2827 -0.3492 -0.3860
 2522TIP3    H1 7527   4.187   3.040   1.073  0.2169 -2.4085 -1.2797
 2522TIP3    H2 7528   4.332   3.067   1.041 -0.1020  0.1025 -0.6653
 2523TIP3   OH2 7529   3.620   0.753   1.934  0.4316  0.5536  0.0775
 2523TIP3    H1 7530   3.604   0.805   2.013  0.8433 -2.8392  2.5062
 2523TIP3    H2 7531   3.698   0.792   1.896  1.0694  1.3840  2.1339
 2524TIP3   OH2 7532   5.851   2.370   0.315  0.4072 -0.0861 -0.3704
 2524TIP3    H1 7533   5.942   2.346   0.332  0.3271 -0.7532 -0.8821
 2524TIP3    H2 7534   5.835   2.445   0.373  1.1668 -0.1959 -0.0137
 2525TIP3   OH2 7535   3.093   1.908   4.500 -0.2566 -0.0864  0.2585
 2525TIP3    H1 7536   3.018   1.966   4.491 -0.7165 -0.8449 -0.9244
 2525TIP3    H2 7537   3.133   1.906   4.413  0.2298 -0.8964  0.4920
 2526TIP3   OH2 7538   4.901   2.932   2.061 -0.3044 -0.2532  0.3563
 2526TIP3    H1 7539   4.821   2.891   2.030  0.0678 -0.8774  0.2011
 2526TIP3    H2 7540   4.971   2.880   2.022  0.1732 -0.0944  0.9846
 2527TIP3   OH2 7541   1.914   2.290   1.759 -0.5370  0.0254 -0.4154
 2527TIP3    H1 7542   1.964   2.224   1.806 -1.4409 -1.8423 -2.0151
 2527TIP3    H2 7543   1.972   2.317   1.688 -0.8746 -0.3963 -0.8523
 2528TIP3   OH2 7544   3.068   3.005   1.440 -0.3331 -0.3711 -0.2377
 2528TIP3    H1 7545   3.101   3.008   1.350 -1.4606 -0.9318 -0.6682
 2528TIP3    H2 7546   2.993   3.064   1.441 -0.3841 -0.4377  0.3166
 2529TIP3   OH2 7547   6.669   2.527   2.077 -0.0659 -0.3238 -0.5519
 2529TIP3    H1 7548   6.644   2.443   2.115  1.8336 -0.9882 -0.6758
 2529TIP3    H2 7549   6.658   2.515   1.983 -1.9006  0.3140 -0.4265
 2530TIP3   OH2 7550   4.683   1.834   4.933 -0.1644  0.1435 -0.3351
 2530TIP3    H1 7551   4.744   1.866   4.998 -0.3150 -0.7673  0.2599
 2530TIP3    H2 7552   4.736   1.782   4.872  0.0553  1.3702 -1.2151
 2531TIP3   OH2 7553   4.512   2.829   4.917  0.3990  0.0832  0.1906
 2531TIP3    H1 7554   4.515   2.736   4.897 -0.5656  0.1098 -0.1133
 2531TIP3    H2 7555   4.433   2.860   4.872  0.8798  1.1020  0.0417
 2532TIP3   OH2 7556   4.798   2.315   4.089  0.0044 -0.2179  0.0612
 2532TIP3    H1 7557   4.807   2.221   4.105  0.6595 -0.1637  0.0463
 2532TIP3    H2 7558   4.874   2.337   4.035  0.7141  0.6165  1.3703
 2533TIP3   OH2 7559   6.006   0.698   5.327 -0.1373  0.4241  0.3979
 2533TIP3    H1 7560   6.057   0.720   5.249 -0.8607  0.1659 -0.1501
 2533TIP3    H2 7561   5.916   0.692   5.296 -0.3762 -0.0703  1.1779
 2534TIP3   OH2 7562   2.851   1.591   0.858 -0.0670  0.3194  0.3236
 2534TIP3    H1 7563   2.851   1.686   0.869  0.8018  0.4438 -0.6752
 2534TIP3    H2 7564   2.760   1.565   0.871 -0.3710  1.3338  0.2368
 2535TIP3   OH2 7565   4.030   3.363   5.717 -0.2422  0.3399  0.0788
 2535TIP3    H1 7566   4.101   3.304   5.692 -0.4861 -0.1524  0.5381
 2535TIP3    H2 7567   4.072   3.428   5.774 -0.2251 -0.1568  0.6357
 2536TIP3   OH2 7568   7.570   3.160   3.847  0.2352  0.2685 -0.0164
 2536TIP3    H1 7569   7.530   3.176   3.933 -0.4790  1.3176 -0.5255
 2536TIP3    H2 7570   7.498   3.172   3.785  0.7525 -0.4581 -0.7705
 2537TIP3   OH2 7571   0.336   7.115   2.830  0.3242 -0.4489  0.7656
 2537TIP3    H1 7572   0.377   7.038   2.871 -0.1105 -1.3659 -0.4756
 2537TIP3    H2 7573   0.256   7.129   2.880 -1.1300 -2.6768 -0.8283
 2538TIP3   OH2 7574   4.601   2.683   1.052 -0.0587 -0.1057 -0.2791
 2538TIP3    H1 7575   4.530   2.641   1.003  0.9586 -2.3605  0.1096
 2538TIP3    H2 7576   4.556   2.744   1.111 -1.8258 -2.4744  0.9212
 2539TIP3   OH2 7577   3.554   2.567   2.599  0.2350  0.1338 -0.4307
 2539TIP3    H1 7578   3.636   2.538   2.559  0.5224  1.4805 -0.8312
 2539TIP3    H2 7579   3.487   2.546   2.534  0.4598  0.4935 -0.7815
 2540TIP3   OH2 7580   4.465   3.075   3.528  0.5804  0.1637 -0.1560
 2540TIP3    H1 7581   4.543   3.097   3.477  1.0329 -2.0696 -0.4735
 2540TIP3    H2 7582   4.477   2.983   3.552 -2.0463 -0.2553 -0.3621
 2541TIP3   OH2 7583   4.480   2.260   3.147  0.0108 -0.0763 -0.0464
 2541TIP3    H1 7584   4.401   2.214   3.119 -0.2985 -0.4841  1.4593
 2541TIP3    H2 7585   4.500   2.223   3.233  0.4744  1.7019  0.6371
 2542TIP3   OH2 7586   6.107   4.959   6.321 -0.4728 -0.1205 -0.1993
 2542TIP3    H1 7587   6.036   5.017   6.293 -1.6034 -0.9737  0.8420
 2542TIP3    H2 7588   6.113   4.893   6.251  1.9902  2.1771 -2.2646
 2543TIP3   OH2 7589   5.960   4.613   2.990  0.8101  0.6884  0.3058
 2543TIP3    H1 7590   5.948   4.600   3.084  0.0484  2.9121  0.5500
 2543TIP3    H2 7591   5.882   4.662   2.963 -1.3548 -3.9630 -2.4242
 2544TIP3   OH2 7592   3.760   3.114   3.978  0.0771 -0.0893 -0.1395
 2544TIP3    H1 7593   3.768   3.126   4.072  0.2858 -0.7897 -0.0610
 2544TIP3    H2 7594   3.673   3.077   3.966  0.6849 -1.6081 -0.0444
 2545TIP3   OH2 7595   5.101   3.831   1.928  0.1445  0.5753 -0.5029
 2545TIP3    H1 7596   5.176   3.817   1.986 -0.5523  0.4636  0.3778
 2545TIP3    H2 7597   5.071   3.920   1.947 -0.4930  0.3034 -0.2198
 2546TIP3   OH2 7598   0.914   7.225   3.035  0.7507  0.0444 -0.4539
 2546TIP3    H1 7599   0.920   7.320   3.043 -0.4183  0.0475  0.5604
 2546TIP3    H2 7600   0.945   7.206   2.946 -3.1321  1.7712 -2.2564
 2547TIP3   OH2 7601   3.314   2.501   1.901 -0.1617 -0.1116 -0.2348
 2547TIP3    H1 7602   3.401   2.493   1.938 -0.5863  0.4851  0.9042
 2547TIP3    H2 7603   3.280   2.583   1.937 -1.7028 -1.0045  0.3809
 2548TIP3   OH2 7604   0.827   6.817   1.769  0.6537 -0.0773  0.4664
 2548TIP3    H1 7605   0.825   6.912   1.756 -1.8062 -0.3484 -1.4965
 2548TIP3    H2 7606   0.783   6.804   1.853 -1.2862  0.3903 -0.4463
 2549TIP3   OH2 7607   5.364   2.594   2.767 -0.3179  0.0939  0.1885
 2549TIP3    H1 7608   5.392   2.582   2.676 -0.9268  0.9963 -0.1251
 2549TIP3    H2 7609   5.269   2.597   2.764 -0.2916  2.7884  0.4751
 2550TIP3   OH2 7610   4.126   2.851   6.050 -0.0520  0.0675  0.0052
 2550TIP3    H1 7611   4.145   2.878   6.140 -0.4023 -1.8080  0.6510
 2550TIP3    H2 7612   4.060   2.783   6.059  1.7268 -1.9089 -1.5168
 2551TIP3   OH2 7613   6.222   2.186   3.774  0.9077  0.1537  0.0064
 2551TIP3    H1 7614   6.127   2.170   3.780  0.7528  1.1860  0.3625
 2551TIP3    H2 7615   6.261   2.099   3.784  0.3350  0.4250  6.5965
 2552TIP3   OH2 7616   3.311   2.666   3.409 -0.3256 -0.0657 -0.7015
 2552TIP3    H1 7617   3.250   2.628   3.345 -0.1214 -0.1663 -0.8370
 2552TIP3    H2 7618   3.382   2.602   3.414  0.1265  0.4071 -1.0918
 2553TIP3   OH2 7619   3.767   3.049   1.705  0.1487  0.4727 -0.3687
 2553TIP3    H1 7620   3.776   2.965   1.749 -0.2642  0.3337 -0.5465
 2553TIP3    H2 7621   3.720   3.104   1.767 -1.3672 -0.0361 -1.0185
 2554TIP3   OH2 7622   4.646   4.296   2.240  0.3571 -0.1715  0.4744
 2554TIP3    H1 7623   4.584   4.266   2.174  0.3883 -0.5199  0.6049
 2554TIP3    H2 7624   4.594   4.309   2.319  0.3637  0.0129  0.4493
 2555TIP3   OH2 7625   2.664   3.072   3.117 -0.8284  0.8676  0.2964
 2555TIP3    H1 7626   2.737   3.107   3.065 -0.6965  2.5510  1.5573
 2555TIP3    H2 7627   2.622   3.008   3.060  0.7523  0.9578 -0.9932
 2556TIP3   OH2 7628   2.009   4.400   2.279  0.4112 -0.2389 -1.5306
 2556TIP3    H1 7629   2.093   4.368   2.246  0.6613 -0.5139 -0.6548
 2556TIP3    H2 7630   1.957   4.415   2.201  0.1411 -3.2064 -1.9894
 2557TIP3   OH2 7631   2.735   3.675   2.929 -0.0061 -0.1399 -0.7032
 2557TIP3    H1 7632   2.683   3.695   3.007  0.9137 -3.0787  0.7600
 2557TIP3    H2 7633   2.815   3.726   2.940  0.4357 -1.0868  0.6994
 2558TIP3   OH2 7634   5.109   3.397   4.394  0.2202 -0.0955  0.1259
 2558TIP3    H1 7635   5.063   3.324   4.436  1.5642 -0.3479  1.1700
 2558TIP3    H2 7636   5.076   3.475   4.439  0.8648 -0.2793  0.9099
 2559TIP3   OH2 7637   4.712   2.573   4.213 -0.2339  0.0828  0.6142
 2559TIP3    H1 7638   4.617   2.584   4.206 -0.3084  0.5687  2.1631
 2559TIP3    H2 7639   4.727   2.482   4.188 -1.1684 -0.1440  0.8388
 2560TIP3   OH2 7640   3.563   1.849   2.584 -0.1097 -0.4850 -0.2263
 2560TIP3    H1 7641   3.523   1.914   2.527 -0.8888 -1.7775 -1.1828
 2560TIP3    H2 7642   3.655   1.848   2.557  0.3515  1.6096  1.1440
 2561TIP3   OH2 7643   4.235   1.117   0.296 -0.1965  0.1252 -0.3915
 2561TIP3    H1 7644   4.166   1.052   0.306 -1.0242  0.9493 -0.6907
 2561TIP3    H2 7645   4.279   1.118   0.381 -1.1727  0.3017  0.1095
 2562TIP3   OH2 7646   6.057   3.724   2.110 -0.1719  0.2708  0.2844
 2562TIP3    H1 7647   5.998   3.665   2.157  0.3633 -0.4444  0.0615
 2562TIP3    H2 7648   6.026   3.722   2.019  0.9103 -1.0028 -0.0575
 2563TIP3   OH2 7649   2.761   1.569   3.805 -0.5147 -0.2354  0.3372
 2563TIP3    H1 7650   2.829   1.635   3.821  0.3770 -1.2543  0.7760
 2563TIP3    H2 7651   2.771   1.547   3.712 -1.8662  1.3960 -0.2282
 2564TIP3   OH2 7652   2.673   3.163   2.314  0.1575 -0.0352  0.0026
 2564TIP3    H1 7653   2.634   3.089   2.361  0.0988 -0.0713 -0.1038
 2564TIP3    H2 7654   2.702   3.222   2.383  0.3841 -0.2489  0.0944
 2565TIP3   OH2 7655   6.272   2.455   2.151 -0.3525  0.2449 -0.1417
 2565TIP3    H1 7656   6.316   2.431   2.070  0.2412  2.2341 -0.4353
 2565TIP3    H2 7657   6.285   2.380   2.209 -0.3701 -0.9886 -1.7184
 2566TIP3   OH2 7658   1.586   5.480   1.911  0.3210 -0.3457  1.3800
 2566TIP3    H1 7659   1.628   5.475   1.824 -0.7608 -1.4160  0.9190
 2566TIP3    H2 7660   1.521   5.549   1.901  0.5342 -0.1275  1.4917
 2567TIP3   OH2 7661   0.981   6.900   2.586  0.0676 -0.3265 -0.0560
 2567TIP3    H1 7662   0.952   6.883   2.676  0.0357 -1.1309 -0.2145
 2567TIP3    H2 7663   1.031   6.981   2.592 -1.0392  0.3259  0.4673
 2568TIP3   OH2 7664   2.174   2.646   2.744  0.0761 -0.0232  0.1973
 2568TIP3    H1 7665   2.135   2.656   2.658 -0.1030  1.9318  0.4800
 2568TIP3    H2 7666   2.229   2.724   2.755  0.2585 -0.3488  1.7544
 2569TIP3   OH2 7667   7.653   2.235   2.586  0.7893 -0.0716 -0.3843
 2569TIP3    H1 7668   7.614   2.174   2.649 -0.4143  0.9910 -0.0790
 2569TIP3    H2 7669   7.741   2.251   2.619  1.5281 -2.5035 -1.0793
 2570TIP3   OH2 7670   0.371   7.291   6.268 -0.6210 -0.2523  0.2127
 2570TIP3    H1 7671   0.408   7.362   6.319 -2.1244  0.4581  0.3499
 2570TIP3    H2 7672   0.445   7.251   6.223 -0.1121  3.3438 -2.2918
 2571TIP3   OH2 7673   4.355   1.694   1.615 -0.5659 -0.4186  0.5515
 2571TIP3    H1 7674   4.271   1.652   1.595 -1.2574  0.2927  1.8823
 2571TIP3    H2 7675   4.362   1.766   1.552 -1.7354  0.5197  1.4655
 2572TIP3   OH2 7676   4.129   4.247   3.334  0.2357  0.2556  0.8887
 2572TIP3    H1 7677   4.162   4.317   3.391  1.8334 -0.3878  0.7896
 2572TIP3    H2 7678   4.086   4.186   3.394 -0.7973  1.1120  1.0265
 2573TIP3   OH2 7679   4.258   1.845   2.232 -0.1148  0.7328 -0.3749
 2573TIP3    H1 7680   4.164   1.839   2.243 -0.1024  0.5909 -0.3527
 2573TIP3    H2 7681   4.293   1.767   2.273 -0.0543  0.3109 -1.2199
 2574TIP3   OH2 7682   2.992   2.298   4.244  0.7619 -0.1980  0.3825
 2574TIP3    H1 7683   2.914   2.269   4.291 -0.2135  2.6563  0.6268
 2574TIP3    H2 7684   2.994   2.244   4.165 -1.8984  0.1845  0.0072
 2575TIP3   OH2 7685   6.523   1.791   2.095 -0.3076  0.4431  0.2333
 2575TIP3    H1 7686   6.524   1.836   2.010 -2.7279 -1.4110 -0.8348
 2575TIP3    H2 7687   6.485   1.856   2.155 -1.0854  0.8480 -0.6811
 2576TIP3   OH2 7688   3.468   3.152   1.257  0.2412 -0.0117  0.3883
 2576TIP3    H1 7689   3.550   3.203   1.257  0.0740  0.2785  1.7445
 2576TIP3    H2 7690   3.495   3.063   1.280  0.2754 -0.0992  0.0149
 2577TIP3   OH2 7691   7.062   2.607   5.318 -0.3831  0.0907 -0.1308
 2577TIP3    H1 7692   7.123   2.534   5.316 -1.1443 -0.5310 -0.7614
 2577TIP3    H2 7693   6.975   2.567   5.315 -0.7878  1.0588 -2.2411
 2578TIP3   OH2 7694   4.816   3.129   0.885  0.2715  0.2229  0.2384
 2578TIP3    H1 7695   4.790   3.083   0.805  0.3702  1.0946 -0.3170
 2578TIP3    H2 7696   4.827   3.220   0.856  1.4890  0.3229  0.9936
 2579TIP3   OH2 7697   6.849   0.824   2.654 -0.0659  0.8451  0.1796
 2579TIP3    H1 7698   6.775   0.868   2.611 -1.1816 -1.6573 -0.5224
 2579TIP3    H2 7699   6.821   0.733   2.663  2.9911 -0.1846 -0.2229
 2580TIP3   OH2 7700   4.647   5.852   5.784 -0.5838 -0.3623 -0.0255
 2580TIP3    H1 7701   4.611   5.815   5.865 -1.1007 -1.1483 -0.6077
 2580TIP3    H2 7702   4.592   5.928   5.766 -0.4007 -0.1230  0.4201
 2581TIP3   OH2 7703   3.521   3.919   3.707  0.3174  0.1485 -0.2475
 2581TIP3    H1 7704   3.556   3.839   3.667  1.3987  1.0117 -1.0483
 2581TIP3    H2 7705   3.514   3.897   3.800  1.0702 -0.7146 -0.3830
 2582TIP3   OH2 7706   4.295   3.034   1.431  0.1417  0.1417 -0.0495
 2582TIP3    H1 7707   4.235   3.062   1.500  0.8296  1.0585  0.1968
 2582TIP3    H2 7708   4.315   3.114   1.383  3.3301  0.4560  1.6050
 2583TIP3   OH2 7709   3.238   3.476   4.831 -0.8447  0.0298 -0.6097
 2583TIP3    H1 7710   3.214   3.453   4.921 -1.4110 -0.3409 -0.8572
 2583TIP3    H2 7711   3.158   3.511   4.793 -0.3250  1.2280 -0.6363
 2584TIP3   OH2 7712   3.176   1.694   2.636 -0.2169 -0.2833  0.1971
 2584TIP3    H1 7713   3.132   1.616   2.602  3.1573 -2.2215  0.0774
 2584TIP3    H2 7714   3.166   1.759   2.567 -0.9968 -1.3840 -0.7504
 2585TIP3   OH2 7715   5.656   2.130   4.596 -0.5176  0.0983 -0.4785
 2585TIP3    H1 7716   5.649   2.225   4.587 -0.6308  0.1579  0.2125
 2585TIP3    H2 7717   5.659   2.115   4.690  0.5220 -0.5153 -0.6106
 2586TIP3   OH2 7718   2.465   0.292   1.809  0.0139 -0.1922 -0.8277
 2586TIP3    H1 7719   2.419   0.373   1.789  0.3998 -0.0207 -1.0165
 2586TIP3    H2 7720   2.481   0.297   1.903 -0.5395 -0.3493 -0.7230
 2587TIP3   OH2 7721   5.371   1.980   3.832  0.3007  0.2696  0.1298
 2587TIP3    H1 7722   5.398   1.999   3.922 -1.6153  1.3716  0.5083
 2587TIP3    H2 7723   5.414   2.048   3.779  1.0099 -0.0671  0.2629
 2588TIP3   OH2 7724   2.662   0.632   2.211  0.2236 -0.4922  0.2686
 2588TIP3    H1 7725   2.707   0.670   2.136  1.0284 -1.2093  0.3804
 2588TIP3    H2 7726   2.631   0.708   2.261  0.5226 -0.0019 -0.2851
 2589TIP3   OH2 7727   3.463   2.785   4.389  0.2072  0.3588  0.0133
 2589TIP3    H1 7728   3.438   2.694   4.375 -1.0362  0.4293  1.7147
 2589TIP3    H2 7729   3.434   2.831   4.310 -1.2764 -0.2970  0.1766
 2590TIP3   OH2 7730   4.082   1.524   3.430 -0.0202  0.2514 -0.8056
 2590TIP3    H1 7731   4.084   1.522   3.334  0.4425  0.7224 -0.8098
 2590TIP3    H2 7732   3.990   1.516   3.453 -0.2265  1.1314 -1.3175
 2591TIP3   OH2 7733   4.201   0.084   2.394 -0.5057 -0.0261  0.5112
 2591TIP3    H1 7734   4.233   0.084   2.304 -0.2462 -0.5698  0.6002
 2591TIP3    H2 7735   4.243   0.160   2.434 -1.9896  1.2476 -0.2970
 2592TIP3   OH2 7736   5.281   4.040   3.158 -0.2652 -0.2061  0.7150
 2592TIP3    H1 7737   5.326   4.092   3.225 -1.4966  2.3252 -0.3249
 2592TIP3    H2 7738   5.200   4.088   3.141 -0.1920 -1.0120 -2.2553
 2593TIP3   OH2 7739   3.567   2.453   2.039 -0.0993 -0.0368  0.2971
 2593TIP3    H1 7740   3.650   2.445   2.087  0.7265  0.7616 -0.9634
 2593TIP3    H2 7741   3.576   2.392   1.966 -1.2220 -1.0174  0.9732
 2594TIP3   OH2 7742   5.956   3.186   3.000 -0.3558  0.2268 -0.3332
 2594TIP3    H1 7743   5.887   3.125   3.028 -0.5511 -0.0110 -1.2777
 2594TIP3    H2 7744   6.017   3.190   3.073  0.8252 -2.8449 -1.0681
 2595TIP3   OH2 7745   3.929   3.809   1.590  0.7595 -0.7543 -0.0955
 2595TIP3    H1 7746   3.959   3.733   1.638  2.0486 -0.2128 -0.0372
 2595TIP3    H2 7747   3.882   3.862   1.654 -0.0388 -1.4408 -0.1120
 2596TIP3   OH2 7748   4.646   1.275   4.850 -0.1972  0.5789 -0.1797
 2596TIP3    H1 7749   4.631   1.327   4.928 -0.6238  0.6704 -0.3233
 2596TIP3    H2 7750   4.560   1.242   4.825 -0.2176  1.3421 -1.1605
 2597TIP3   OH2 7751   2.713   3.304   1.587  0.0390  0.7997  0.4889
 2597TIP3    H1 7752   2.694   3.238   1.654  1.0325 -1.3578 -1.2937
 2597TIP3    H2 7753   2.757   3.256   1.517  0.8747  3.3878 -0.8381
 2598TIP3   OH2 7754   5.775   1.871   4.176 -0.0062 -0.1036  0.7106
 2598TIP3    H1 7755   5.807   1.922   4.102 -1.9577 -0.9830 -0.8217
 2598TIP3    H2 7756   5.767   1.934   4.247  0.6947  1.0481 -0.2037
 2599TIP3   OH2 7757   4.599   1.757   1.811  0.7597 -0.5986 -0.3833
 2599TIP3    H1 7758   4.563   1.718   1.891  0.7661 -0.2255 -0.1966
 2599TIP3    H2 7759   4.569   1.699   1.741  0.6912 -0.8853 -0.1189
 2600TIP3   OH2 7760   4.731   3.324   3.506 -0.3596  0.3658 -0.0294
 2600TIP3    H1 7761   4.698   3.376   3.579 -2.4053  0.7320 -1.1622
 2600TIP3    H2 7762   4.820   3.356   3.491 -0.6083  1.6084  1.0631
 2601TIP3   OH2 7763   3.844   3.341   0.554  0.5969  0.3769 -0.2086
 2601TIP3    H1 7764   3.794   3.328   0.634 -0.7844  0.7937 -0.9723
 2601TIP3    H2 7765   3.879   3.254   0.533  2.8760  0.7061  2.0297
 2602TIP3   OH2 7766   3.038   2.051   2.624  0.1607 -0.3512 -0.0091
 2602TIP3    H1 7767   2.994   2.132   2.649  1.0531  0.5411 -1.3049
 2602TIP3    H2 7768   3.131   2.068   2.639  0.2576 -1.5555  0.8544
 2603TIP3   OH2 7769   3.579   2.866   1.325 -0.4244  0.2072 -0.2467
 2603TIP3    H1 7770   3.642   2.930   1.358 -0.1332 -0.1482 -0.1072
 2603TIP3    H2 7771   3.578   2.798   1.392 -1.5276  0.5765  0.1308
 2604TIP3   OH2 7772   3.560   1.916   3.683  0.0710 -0.0464 -0.1675
 2604TIP3    H1 7773   3.573   1.942   3.774 -0.6816 -1.1548  0.2633
 2604TIP3    H2 7774   3.618   1.974   3.633 -0.0613  1.0645  0.9458
 2605TIP3   OH2 7775   6.740   2.155   3.505 -0.7586  0.1873 -0.2744
 2605TIP3    H1 7776   6.689   2.235   3.492 -1.5435 -0.0547  1.2270
 2605TIP3    H2 7777   6.799   2.152   3.430  0.1372  2.8060  0.2633
 2606TIP3   OH2 7778   6.885   1.866   1.176  0.4579  0.6510  0.2430
 2606TIP3    H1 7779   6.896   1.771   1.179  2.8586  0.8358 -1.1968
 2606TIP3    H2 7780   6.923   1.892   1.092 -1.9032  2.6942 -0.2639
 2607TIP3   OH2 7781   1.429   1.549   1.919 -0.0469  0.7281  0.3611
 2607TIP3    H1 7782   1.432   1.597   1.836 -2.1937  1.1516  0.4913
 2607TIP3    H2 7783   1.408   1.616   1.984  1.8702  0.4400  1.3055
 2608TIP3   OH2 7784   7.812   1.956   3.237 -0.0747  0.3066 -0.1066
 2608TIP3    H1 7785   7.730   1.999   3.213 -1.1738 -1.0730  1.0820
 2608TIP3    H2 7786   7.833   1.991   3.323 -0.1996 -0.4073  0.2222
 2609TIP3   OH2 7787   5.977   4.139   0.008  0.0648  0.3509 -0.1489
 2609TIP3    H1 7788   5.986   4.200   0.081 -2.0701  1.6401 -0.9122
 2609TIP3    H2 7789   5.927   4.188  -0.058 -0.6998 -1.8345 -1.2413
 2610TIP3   OH2 7790   3.394   1.205   0.735  0.0108  0.1365 -0.1997
 2610TIP3    H1 7791   3.390   1.195   0.640  1.6878 -2.0662 -0.0874
 2610TIP3    H2 7792   3.434   1.291   0.748  0.5469  0.1049 -1.5039
 2611TIP3   OH2 7793   5.263   1.481   1.610  0.6248 -0.7775  0.0173
 2611TIP3    H1 7794   5.272   1.572   1.579  0.0497 -0.2227  1.4606
 2611TIP3    H2 7795   5.180   1.451   1.573 -0.5295  0.2015  1.7543
 2612TIP3   OH2 7796   2.277   1.455   1.345 -0.1143 -0.1623 -0.7162
 2612TIP3    H1 7797   2.347   1.474   1.407 -0.7667  1.4596 -0.4376
 2612TIP3    H2 7798   2.214   1.403   1.394  1.1529 -2.1795 -1.1488
 2613TIP3   OH2 7799   4.849   3.042   3.718 -0.4248  0.3072 -0.2487
 2613TIP3    H1 7800   4.789   3.110   3.748  0.9263  1.0805  0.7964
 2613TIP3    H2 7801   4.874   2.996   3.798  1.7406  1.1482 -0.4169
 2614TIP3   OH2 7802   4.728   3.056   2.979  0.1863 -0.7995  0.0646
 2614TIP3    H1 7803   4.690   3.046   3.066 -0.0817  3.4611  0.5561
 2614TIP3    H2 7804   4.819   3.029   2.989  0.5016  0.8847  2.0499
 2615TIP3   OH2 7805   5.738   7.182   5.713  0.5129  0.5477 -0.0599
 2615TIP3    H1 7806   5.670   7.136   5.665  0.7391  0.7491 -0.5776
 2615TIP3    H2 7807   5.733   7.147   5.802  0.3854 -0.1467 -0.3381
 2616TIP3   OH2 7808   4.777   1.822   2.875  0.0967 -0.6391 -0.0156
 2616TIP3    H1 7809   4.869   1.848   2.872 -0.2773  0.6913 -0.3933
 2616TIP3    H2 7810   4.778   1.734   2.913  1.5457 -0.7648 -0.3250
 2617TIP3   OH2 7811   5.581   1.770   0.892 -0.1515  0.0108  0.0332
 2617TIP3    H1 7812   5.490   1.800   0.897  0.1526  0.8162  0.9248
 2617TIP3    H2 7813   5.602   1.741   0.981  0.4498 -0.2036 -0.1778
 2618TIP3   OH2 7814   4.506   3.422   3.344  0.5352 -0.2059 -0.0768
 2618TIP3    H1 7815   4.552   3.505   3.359 -0.1202  0.3300 -0.9138
 2618TIP3    H2 7816   4.572   3.355   3.360  1.1454  0.4883  0.3815
 2619TIP3   OH2 7817   6.696   3.095   2.302 -0.0513  0.0133  0.3735
 2619TIP3    H1 7818   6.654   3.044   2.233 -1.2455  1.0454  0.3022
 2619TIP3    H2 7819   6.643   3.175   2.308  1.2789  0.8722  1.0419
 2620TIP3   OH2 7820   2.520   0.974   4.766  0.8616 -0.0328  0.2954
 2620TIP3    H1 7821   2.587   1.006   4.706  0.1027 -0.7114 -0.9334
 2620TIP3    H2 7822   2.556   0.892   4.801  0.4604 -0.6822 -0.7808
 2621TIP3   OH2 7823   0.293   2.946   1.770  0.1899  0.3060  0.3826
 2621TIP3    H1 7824   0.253   3.005   1.834  0.0903 -0.7501  1.3136
 2621TIP3    H2 7825   0.229   2.941   1.698 -0.1157  0.7637  0.6236
 2622TIP3   OH2 7826   2.104   1.789   5.586  0.1686  0.1740  0.2480
 2622TIP3    H1 7827   2.032   1.852   5.583  0.3060  0.4301  1.9122
 2622TIP3    H2 7828   2.183   1.843   5.592  0.4355 -0.1295 -0.4301
 2623TIP3   OH2 7829   2.644   1.891   0.356  0.0218  0.2560  0.5722
 2623TIP3    H1 7830   2.570   1.908   0.414 -0.3092 -0.1670  0.2730
 2623TIP3    H2 7831   2.686   1.812   0.391  0.5955  0.7432  1.0004
 2624TIP3   OH2 7832   3.407   3.113   2.475 -0.5512  0.1061  0.3265
 2624TIP3    H1 7833   3.397   3.080   2.564  2.6099 -0.3155  0.5969
 2624TIP3    H2 7834   3.408   3.034   2.420 -1.0896  0.2833  0.0554
 2625TIP3   OH2 7835   2.103   3.636   1.044  0.6959 -0.5673 -0.2698
 2625TIP3    H1 7836   2.032   3.700   1.038  1.7103  0.4247 -2.0169
 2625TIP3    H2 7837   2.059   3.551   1.045 -0.5077  0.0313 -1.4680
 2626TIP3   OH2 7838   5.028   2.323   3.909  0.0534 -0.0138 -0.0548
 2626TIP3    H1 7839   5.046   2.385   3.838 -1.4835 -0.7020 -1.0515
 2626TIP3    H2 7840   5.114   2.291   3.935  0.6361  0.2593 -1.5963
 2627TIP3   OH2 7841   5.111   2.309   3.629  0.0671  0.3889 -0.4648
 2627TIP3    H1 7842   5.205   2.304   3.607  0.1720 -0.1453  0.1016
 2627TIP3    H2 7843   5.076   2.374   3.569  1.0718  1.5813  0.2299
 2628TIP3   OH2 7844   5.126   1.884   3.892  0.0265  0.1331 -0.1718
 2628TIP3    H1 7845   5.217   1.905   3.868  0.0589  2.5189  1.7737
 2628TIP3    H2 7846   5.074   1.947   3.843 -0.4343 -0.0312  0.1111
 2629TIP3   OH2 7847   5.508   3.679   3.204  0.2810 -0.0791 -0.2549
 2629TIP3    H1 7848   5.453   3.673   3.281  1.0768 -1.0992  0.2413
 2629TIP3    H2 7849   5.497   3.769   3.174  0.0636  0.3643  1.1201
 2630TIP3   OH2 7850   6.088   2.482   4.117 -0.7820  0.1790  0.5897
 2630TIP3    H1 7851   6.093   2.402   4.171 -1.2783 -0.7274 -0.6939
 2630TIP3    H2 7852   6.022   2.462   4.051 -1.7418  2.0984  0.9505
 2631TIP3   OH2 7853   6.007   2.643   2.051  0.0445 -0.1486 -0.2891
 2631TIP3    H1 7854   6.084   2.665   2.104  0.3431  2.5178 -1.7382
 2631TIP3    H2 7855   5.932   2.663   2.107  0.3681 -2.0273  0.8536
 2632TIP3   OH2 7856   3.699   2.704   3.035 -0.2802  0.3999  1.2096
 2632TIP3    H1 7857   3.627   2.753   3.075 -1.4485 -0.1787 -0.1385
 2632TIP3    H2 7858   3.715   2.748   2.952 -0.2634 -0.5317  0.7094
 2633TIP3   OH2 7859   4.238   1.519   2.722 -0.2192  0.1449 -0.4091
 2633TIP3    H1 7860   4.332   1.520   2.705  0.1042 -1.0711  1.1354
 2633TIP3    H2 7861   4.218   1.427   2.739 -1.1256  0.7768  2.1318
 2634TIP3   OH2 7862   5.426   3.760   4.308  0.2200 -0.1458  0.1110
 2634TIP3    H1 7863   5.442   3.835   4.365  2.0440  0.2198 -0.8724
 2634TIP3    H2 7864   5.508   3.745   4.262 -1.3057 -0.1980 -2.7216
 2635TIP3   OH2 7865   6.026   2.930   3.318 -0.5883 -0.0875 -0.2173
 2635TIP3    H1 7866   5.990   2.898   3.401 -1.7410  0.3309 -0.5501
 2635TIP3    H2 7867   5.950   2.940   3.261  0.1798 -0.2297 -1.2828
 2636TIP3   OH2 7868   4.367   1.553   3.124 -0.0365  0.1990  0.1133
 2636TIP3    H1 7869   4.383   1.512   3.209  2.2136  1.9298  0.5911
 2636TIP3    H2 7870   4.419   1.502   3.062  1.4825  1.2715  0.4548
 2637TIP3   OH2 7871   3.357   0.373   2.259  0.1160 -0.3897  0.0741
 2637TIP3    H1 7872   3.319   0.288   2.281 -0.8803  0.6526  2.5052
 2637TIP3    H2 7873   3.296   0.437   2.295  1.5366  1.3659 -0.5492
 2638TIP3   OH2 7874   1.471   0.736   3.399 -0.3591 -0.3641 -0.2211
 2638TIP3    H1 7875   1.496   0.716   3.309  1.2928  0.9506 -0.0591
 2638TIP3    H2 7876   1.471   0.832   3.404 -1.5742 -0.3990  0.8713
 2639TIP3   OH2 7877   2.804   1.872   2.981 -0.3705  0.3223  0.3778
 2639TIP3    H1 7878   2.876   1.848   2.923 -1.0940 -1.2246  0.0927
 2639TIP3    H2 7879   2.846   1.890   3.065  0.6583  2.3320 -0.5392
 2640TIP3   OH2 7880   1.892   3.473   2.643 -0.2644 -0.0422 -0.0429
 2640TIP3    H1 7881   1.862   3.541   2.703 -1.1949 -1.4851  1.1650
 2640TIP3    H2 7882   1.978   3.503   2.613 -0.6574  1.6493  0.4651
 2641TIP3   OH2 7883   3.947   3.905   3.003  0.4650  0.0048 -0.2103
 2641TIP3    H1 7884   4.038   3.928   2.987  1.1192 -1.9376  0.6931
 2641TIP3    H2 7885   3.930   3.931   3.093 -0.5054  2.2790 -1.0095
 2642TIP3   OH2 7886   3.306   2.485   2.723  0.0778 -0.0438 -0.2330
 2642TIP3    H1 7887   3.319   2.526   2.808  0.0530  0.8551 -0.6530
 2642TIP3    H2 7888   3.395   2.475   2.688  0.0421  0.3320 -0.4386
 2643TIP3   OH2 7889   2.285   1.125   3.736 -0.4725 -0.1812 -0.1888
 2643TIP3    H1 7890   2.300   1.219   3.728 -1.3676 -0.0021  0.1712
 2643TIP3    H2 7891   2.226   1.117   3.811  0.8323 -1.1486  0.7555
 2644TIP3   OH2 7892   5.869   2.834   2.856 -0.6638 -0.3731 -0.3329
 2644TIP3    H1 7893   5.804   2.784   2.806  0.4975 -1.8387 -0.4254
 2644TIP3    H2 7894   5.914   2.887   2.791 -0.5331 -0.7390 -0.5413
 2645TIP3   OH2 7895   6.455   1.958   2.297  0.0967  0.4110  0.2442
 2645TIP3    H1 7896   6.364   1.940   2.276  0.2305  1.0433 -0.9102
 2645TIP3    H2 7897   6.452   2.033   2.356 -0.1403  0.1723  0.5397
 2646TIP3   OH2 7898   4.446   4.518   4.018 -0.2787  0.3122  0.2701
 2646TIP3    H1 7899   4.365   4.505   4.067 -0.7170  0.3017 -0.4507
 2646TIP3    H2 7900   4.428   4.481   3.932  1.0354 -1.1794  0.6053
 2647TIP3   OH2 7901   4.936   2.541   2.381 -0.1900  0.3597  0.2816
 2647TIP3    H1 7902   4.951   2.632   2.355 -1.0544 -0.1077 -1.9915
 2647TIP3    H2 7903   4.845   2.523   2.354  0.7578 -1.8928 -1.5636
 2648TIP3   OH2 7904   5.377   3.487   4.398  0.0057 -0.0045  0.4671
 2648TIP3    H1 7905   5.287   3.455   4.391  0.3039 -0.5883 -0.8030
 2648TIP3    H2 7906   5.371   3.580   4.376 -0.3876  0.1165  1.0747
 2649TIP3   OH2 7907   7.483   7.100   6.159  0.1747 -0.2579 -0.3830
 2649TIP3    H1 7908   7.428   7.026   6.135  0.7198 -0.5409 -0.7540
 2649TIP3    H2 7909   7.495   7.149   6.077 -1.0095  0.7889  0.0581
 2650TIP3   OH2 7910   7.400   2.435   4.272  0.1036 -0.2825  0.6197
 2650TIP3    H1 7911   7.477   2.491   4.279  0.2799 -0.4325 -0.0857
 2650TIP3    H2 7912   7.390   2.397   4.359  1.2086 -0.7507  0.5568
 2651TIP3   OH2 7913   4.716   4.455   6.335  0.3098 -0.3294  0.2679
 2651TIP3    H1 7914   4.707   4.534   6.282 -0.0805 -0.4268  0.1849
 2651TIP3    H2 7915   4.629   4.441   6.373  0.1708 -1.1383 -0.3272
 2652TIP3   OH2 7916   3.696   1.989   1.735  0.1783 -0.2634 -0.1105
 2652TIP3    H1 7917   3.692   1.996   1.830  0.0792  0.3910 -0.1629
 2652TIP3    H2 7918   3.695   1.895   1.718  1.8396 -0.4360  0.6044
 2653TIP3   OH2 7919   2.753   3.217   3.335 -0.1732  0.3533 -0.2426
 2653TIP3    H1 7920   2.842   3.252   3.327  0.6144 -0.9444  2.2371
 2653TIP3    H2 7921   2.743   3.159   3.259  1.0922  0.5402 -0.5607
 2654TIP3   OH2 7922   4.088   2.940   1.254  0.3407 -0.1292 -0.3657
 2654TIP3    H1 7923   4.079   2.846   1.268  1.2508 -0.0500  0.8428
 2654TIP3    H2 7924   4.136   2.971   1.331 -2.1209  1.7284  0.4681
 2655TIP3   OH2 7925   6.297   4.494   3.921  0.6202  0.2773  0.2083
 2655TIP3    H1 7926   6.294   4.425   3.855  0.0062 -0.4475  0.9856
 2655TIP3    H2 7927   6.321   4.449   4.002 -2.9213  0.4231  1.4193
 2656TIP3   OH2 7928   1.612   7.172   6.109  0.7828  0.4560 -0.1161
 2656TIP3    H1 7929   1.517   7.177   6.106  0.8824  1.6667 -1.8501
 2656TIP3    H2 7930   1.631   7.121   6.189 -1.2964 -0.0362  0.0919
 2657TIP3   OH2 7931   6.006   0.259   2.390  0.0090  0.2914  0.5292
 2657TIP3    H1 7932   6.045   0.214   2.314 -1.0820  0.9557 -0.4474
 2657TIP3    H2 7933   6.076   0.313   2.425  0.8620 -0.9206  0.7114
 2658TIP3   OH2 7934   2.234   0.739   3.413 -0.0281 -0.4919  0.2836
 2658TIP3    H1 7935   2.184   0.744   3.332 -0.1371 -0.2584  0.3669
 2658TIP3    H2 7936   2.214   0.820   3.459 -0.8474 -1.1238  1.0574
 2659TIP3   OH2 7937   4.443   3.575   4.285 -0.4669 -0.4883  0.1434
 2659TIP3    H1 7938   4.493   3.657   4.281 -1.3233  0.1400  2.0874
 2659TIP3    H2 7939   4.357   3.601   4.316 -1.6314 -1.7651 -1.8844
 2660TIP3   OH2 7940   5.456   3.560   2.288 -0.1593 -0.2633  0.1163
 2660TIP3    H1 7941   5.364   3.581   2.306 -0.8947 -3.1592 -0.0583
 2660TIP3    H2 7942   5.487   3.634   2.237 -3.1448 -0.3957 -2.0424
 2661TIP3   OH2 7943   6.144   2.907   3.835 -0.0738 -0.1043 -0.2263
 2661TIP3    H1 7944   6.180   2.981   3.884  3.2552 -1.7172 -0.0695
 2661TIP3    H2 7945   6.139   2.939   3.745  0.8729  0.5030 -0.0779
 2662TIP3   OH2 7946   6.641   1.352   3.982  0.7045 -0.1186  0.1718
 2662TIP3    H1 7947   6.712   1.290   3.999  0.8797 -0.1104 -0.4840
 2662TIP3    H2 7948   6.561   1.300   3.990  0.8684 -0.5199 -0.7350
 2663TIP3   OH2 7949   4.756   1.489   2.575  0.6835  0.1741 -0.1360
 2663TIP3    H1 7950   4.804   1.506   2.494  1.2066  1.2598  0.3874
 2663TIP3    H2 7951   4.812   1.525   2.644 -0.8267  1.3616  0.4933
 2664TIP3   OH2 7952   5.906   4.881   3.634  0.3076  0.2418  0.0693
 2664TIP3    H1 7953   5.866   4.931   3.706 -0.4917  1.1403 -0.9943
 2664TIP3    H2 7954   5.967   4.821   3.678 -0.4736  0.4973  1.5320
 2665TIP3   OH2 7955   4.512   1.510   2.729 -0.0294 -0.6348  0.2788
 2665TIP3    H1 7956   4.576   1.470   2.669 -0.8702 -0.1460 -0.9655
 2665TIP3    H2 7957   4.545   1.489   2.816  1.9186 -0.2835 -0.3420
 2666TIP3   OH2 7958   5.202   1.800   2.159 -0.4120  0.6073  0.0912
 2666TIP3    H1 7959   5.192   1.722   2.212 -0.9194  1.6512  1.5658
 2666TIP3    H2 7960   5.287   1.790   2.115  0.5293  0.2396  1.9674
 2667TIP3   OH2 7961   3.929   1.606   2.539  0.3445 -0.5698  0.5447
 2667TIP3    H1 7962   3.948   1.516   2.566  0.5906 -1.2255 -1.7113
 2667TIP3    H2 7963   3.858   1.598   2.475  2.7583  0.4178 -2.4080
 2668TIP3   OH2 7964   2.268   2.925   3.118  0.0785 -0.1945 -0.2497
 2668TIP3    H1 7965   2.189   2.871   3.124  0.5534 -1.0091 -1.2237
 2668TIP3    H2 7966   2.301   2.930   3.207 -2.3406  2.0686  0.5742
 2669TIP3   OH2 7967   4.436   3.867   2.489  0.4534 -0.4046  0.7213
 2669TIP3    H1 7968   4.426   3.955   2.524  1.2097 -0.4872  1.1677
 2669TIP3    H2 7969   4.525   3.865   2.452 -0.1527 -0.4793 -0.7468
 2670TIP3   OH2 7970   0.850   0.036   6.365 -0.3290  0.3953 -0.0201
 2670TIP3    H1 7971   0.849   0.083   6.282 -0.6323 -1.8031 -1.3175
 2670TIP3    H2 7972   0.758   0.025   6.388 -0.2421  1.4580  0.9160
 2671TIP3   OH2 7973   3.405   4.296   2.742 -0.2649  0.0562 -0.2969
 2671TIP3    H1 7974   3.440   4.375   2.700  1.5784 -1.2741 -1.3523
 2671TIP3    H2 7975   3.416   4.228   2.676 -0.0418 -1.4751  1.2875
 2672TIP3   OH2 7976   5.260   2.665   3.184 -0.0161  0.1369  0.4940
 2672TIP3    H1 7977   5.251   2.713   3.266 -0.4487  0.5116  0.2296
 2672TIP3    H2 7978   5.177   2.618   3.174 -0.1134  0.3999  0.0740
 2673TIP3   OH2 7979   1.697   2.198   1.397 -0.1712 -0.4258  0.3841
 2673TIP3    H1 7980   1.643   2.165   1.469 -1.6737  0.8435 -0.1244
 2673TIP3    H2 7981   1.785   2.167   1.417 -0.7465 -0.9701  2.2206
 2674TIP3   OH2 7982   5.832   3.605   2.512 -0.0079  0.2780 -0.1022
 2674TIP3    H1 7983   5.911   3.633   2.558  0.0733  1.9661 -1.2419
 2674TIP3    H2 7984   5.761   3.621   2.575  0.3316  0.5112  0.2234
 2675TIP3   OH2 7985   6.593   2.955   2.517  0.3031 -0.2413 -0.3470
 2675TIP3    H1 7986   6.643   2.996   2.446 -0.2466  0.8995 -0.0717
 2675TIP3    H2 7987   6.588   2.863   2.492  2.1536 -0.2897 -0.6173
 2676TIP3   OH2 7988   7.665   4.389   3.918  0.0761  0.2013  0.5573
 2676TIP3    H1 7989   7.602   4.461   3.906 -2.0740 -1.6122  0.5577
 2676TIP3    H2 7990   7.750   4.432   3.927 -1.4476  2.8586  2.7345
 2677TIP3   OH2 7991   6.063   2.205   1.617 -0.3680 -0.3725 -0.5219
 2677TIP3    H1 7992   6.085   2.285   1.664  0.7102  0.1865 -1.9607
 2677TIP3    H2 7993   5.970   2.215   1.595 -0.1988  0.5266 -0.8141
 2678TIP3   OH2 7994   4.904   2.371   1.835  0.4855 -0.0246  0.2942
 2678TIP3    H1 7995   4.985   2.333   1.870 -0.0639 -0.9394  0.6113
 2678TIP3    H2 7996   4.909   2.463   1.858  1.9063  0.1290 -0.5841
 2679TIP3   OH2 7997   7.370   4.988   3.780  0.2953 -0.2768 -0.4036
 2679TIP3    H1 7998   7.400   4.926   3.847  1.2396  0.0286 -0.5409
 2679TIP3    H2 7999   7.440   4.990   3.716 -0.4973 -0.3741 -1.2852
 2680TIP3   OH2 8000   5.663   2.919   4.679 -0.6239 -0.1588 -0.1752
 2680TIP3    H1 8001   5.651   2.969   4.597 -1.0721 -0.7537 -0.4794
 2680TIP3    H2 8002   5.757   2.909   4.687 -0.5851 -0.3035 -0.7516
 2681TIP3   OH2 8003   5.882   2.555   2.539  0.1072 -0.0945  0.1328
 2681TIP3    H1 8004   5.944   2.570   2.611 -0.8973 -0.4516  1.1032
 2681TIP3    H2 8005   5.861   2.643   2.507  1.6663 -0.0103 -0.6962
 2682TIP3   OH2 8006   4.278   3.944   1.181  0.5964 -0.1360 -0.0918
 2682TIP3    H1 8007   4.333   3.942   1.103  0.3647  0.0192 -0.2599
 2682TIP3    H2 8008   4.188   3.945   1.147  0.4688 -1.3546  0.1837
 2683TIP3   OH2 8009   7.407   2.145   3.671 -0.1527  0.1159 -0.1353
 2683TIP3    H1 8010   7.447   2.081   3.730  0.0510  0.1157 -0.2738
 2683TIP3    H2 8011   7.351   2.197   3.728  1.3988  1.2624  0.3956
 2684TIP3   OH2 8012   2.287   1.741   3.673 -0.0690  0.1604 -0.0685
 2684TIP3    H1 8013   2.274   1.779   3.586  1.0309 -0.6492 -0.6034
 2684TIP3    H2 8014   2.199   1.718   3.703 -0.5944  1.7009 -0.3804
 2685TIP3   OH2 8015   3.963   3.916   2.601 -0.3905 -0.3213 -0.3081
 2685TIP3    H1 8016   4.031   3.928   2.535  1.0984  0.6523  1.3616
 2685TIP3    H2 8017   3.887   3.884   2.552  0.2364  1.6958 -2.7050
 2686TIP3   OH2 8018   6.654   2.372   0.920  0.1943  0.5148  0.0324
 2686TIP3    H1 8019   6.568   2.353   0.882  0.5729 -1.5684  0.1490
 2686TIP3    H2 8020   6.679   2.290   0.963  0.8038  2.0944  2.7973
 2687TIP3   OH2 8021   6.549   7.040   5.912 -0.0287  0.0581  0.4680
 2687TIP3    H1 8022   6.606   7.114   5.934  1.2951 -0.5531 -0.8305
 2687TIP3    H2 8023   6.461   7.078   5.909  0.7033  1.7587 -0.8340
 2688TIP3   OH2 8024   5.377   1.681   1.370  0.3168 -0.5430 -0.1435
 2688TIP3    H1 8025   5.426   1.763   1.372 -0.7960  0.1242  0.6289
 2688TIP3    H2 8026   5.319   1.689   1.294 -0.0527 -0.4362  0.1420
 2689TIP3   OH2 8027   5.085   3.153   1.007 -0.2921  0.3672  0.1694
 2689TIP3    H1 8028   5.119   3.148   0.918 -0.8363  0.6926 -0.0554
 2689TIP3    H2 8029   4.992   3.132   0.999 -0.1782 -0.4258  0.7709
 2690TIP3   OH2 8030   6.123   3.400   3.750  0.4043  0.3089  0.0580
 2690TIP3    H1 8031   6.042   3.363   3.715  0.3394 -1.2902  1.8649
 2690TIP3    H2 8032   6.099   3.434   3.836  1.6681 -0.2730  0.6475
 2691TIP3   OH2 8033   4.275   3.563   3.457 -0.7153 -0.1381  0.1308
 2691TIP3    H1 8034   4.345   3.497   3.454 -0.9299 -0.3463 -0.2987
 2691TIP3    H2 8035   4.195   3.514   3.438 -0.6293  0.5859 -2.2656
 2692TIP3   OH2 8036   3.990   2.609   2.713  0.2715  0.0505 -0.8011
 2692TIP3    H1 8037   3.913   2.649   2.752  1.0250 -0.8087  1.6121
 2692TIP3    H2 8038   3.999   2.653   2.628 -3.0347 -0.0661 -1.2989
 2693TIP3   OH2 8039   4.253   0.313   3.691 -0.3594 -0.1899  0.0128
 2693TIP3    H1 8040   4.271   0.220   3.705  1.8648  0.3555  0.8896
 2693TIP3    H2 8041   4.157   0.318   3.687 -0.8626 -1.7913  5.5362
 2694TIP3   OH2 8042   1.952   1.714   1.027 -0.3073 -0.3510 -0.1802
 2694TIP3    H1 8043   1.992   1.794   0.992  0.3643 -0.8908 -0.6711
 2694TIP3    H2 8044   2.006   1.691   1.102 -0.7186 -0.1415  0.1797
 2695TIP3   OH2 8045   2.644   2.041   4.743  0.6264 -0.8722  0.2673
 2695TIP3    H1 8046   2.649   2.055   4.648  2.1894 -0.6989  0.3681
 2695TIP3    H2 8047   2.615   2.125   4.778 -3.8669 -2.0007 -0.3526
 2696TIP3   OH2 8048   4.916   1.575   1.899  0.2703  0.0497  0.2629
 2696TIP3    H1 8049   4.835   1.529   1.919  0.4521  0.0749  1.0591
 2696TIP3    H2 8050   4.919   1.648   1.960  1.4442 -0.6037  1.0075
 2697TIP3   OH2 8051   4.366   1.334   0.748 -0.1058  0.4779 -0.0809
 2697TIP3    H1 8052   4.392   1.425   0.731  1.4592 -0.1045 -0.8412
 2697TIP3    H2 8053   4.429   1.302   0.813 -0.2161 -0.2826 -0.3438
 2698TIP3   OH2 8054   3.575   0.984   2.095 -0.1405 -0.0772 -0.4014
 2698TIP3    H1 8055   3.508   1.053   2.087  0.7721  0.5147 -3.6586
 2698TIP3    H2 8056   3.565   0.951   2.184 -3.0639  1.7620  0.0158
 2699TIP3   OH2 8057   4.871   3.329   2.642  0.2971 -0.2036  0.2432
 2699TIP3    H1 8058   4.922   3.390   2.696  1.1845 -0.0525 -0.7427
 2699TIP3    H2 8059   4.908   3.339   2.554  0.7745 -2.5143  0.1510
 2700TIP3   OH2 8060   3.808   1.921   1.279  0.2832 -0.2621 -0.3369
 2700TIP3    H1 8061   3.847   1.998   1.322  0.5322  0.0760 -1.1585
 2700TIP3    H2 8062   3.715   1.926   1.301  0.3758  0.0161  0.0009
 2701TIP3   OH2 8063   2.160   1.300   2.694 -0.6879 -0.2362  0.0495
 2701TIP3    H1 8064   2.135   1.277   2.605  0.8437 -0.7196 -0.2654
 2701TIP3    H2 8065   2.251   1.271   2.702 -0.4671  0.7741  1.4157
 2702TIP3   OH2 8066   4.548   3.825   4.360 -0.3896 -0.2303  0.4046
 2702TIP3    H1 8067   4.622   3.876   4.326 -0.9816 -0.4581 -1.2838
 2702TIP3    H2 8068   4.479   3.889   4.373 -0.2519 -0.1871  0.9368
 2703TIP3   OH2 8069   3.755   3.155   4.257  0.0360 -0.3269  0.2922
 2703TIP3    H1 8070   3.818   3.212   4.301 -0.3628 -0.3359  0.8775
 2703TIP3    H2 8071   3.669   3.191   4.282 -0.2175 -1.2238  0.7161
 2704TIP3   OH2 8072   1.658   2.897   1.633 -0.0006 -0.0483  0.5625
 2704TIP3    H1 8073   1.724   2.836   1.599  0.2379 -0.9148  2.4974
 2704TIP3    H2 8074   1.692   2.923   1.718 -1.4128  0.7180  0.9017
 2705TIP3   OH2 8075   3.743   2.722   2.734 -0.4037 -0.5632 -0.1053
 2705TIP3    H1 8076   3.674   2.656   2.724 -1.2133  0.4157 -1.0164
 2705TIP3    H2 8077   3.732   2.780   2.659  0.6107  0.3395  0.4334
 2706TIP3   OH2 8078   3.710   3.313   1.273 -0.5594 -0.0672 -0.2792
 2706TIP3    H1 8079   3.766   3.236   1.275 -1.5347 -0.8388 -1.3675
 2706TIP3    H2 8080   3.733   3.358   1.192 -0.8773  0.0921 -0.2842
 2707TIP3   OH2 8081   3.726   2.954   2.253  0.0583 -0.1819  0.4124
 2707TIP3    H1 8082   3.791   3.023   2.257  0.4738 -0.6238  1.3408
 2707TIP3    H2 8083   3.748   2.895   2.325  0.6330 -2.0988 -1.2955
 2708TIP3   OH2 8084   3.389   2.019   1.697 -0.1002  0.2957  0.3766
 2708TIP3    H1 8085   3.378   2.110   1.668 -0.5018  0.1632  0.1109
 2708TIP3    H2 8086   3.483   2.002   1.688 -0.1734  0.3562 -0.5338
 2709TIP3   OH2 8087   5.907   3.131   4.794  0.4802  0.2246  0.1332
 2709TIP3    H1 8088   5.828   3.171   4.757 -0.2608 -0.6608  0.7536
 2709TIP3    H2 8089   5.900   3.038   4.773  0.4852 -0.1505  1.6929
 2710TIP3   OH2 8090   5.083   3.157   1.883 -0.3546 -0.2226 -0.5937
 2710TIP3    H1 8091   5.064   3.251   1.888  2.8278  0.4989 -0.7438
 2710TIP3    H2 8092   5.154   3.151   1.818 -1.1646 -2.8543 -1.3003
 2711TIP3   OH2 8093   3.490   1.598   1.654 -0.2447 -0.3471  0.7901
 2711TIP3    H1 8094   3.509   1.666   1.719  2.5058 -0.8448  0.5799
 2711TIP3    H2 8095   3.482   1.518   1.705 -1.1753 -0.2540  0.8016
 2712TIP3   OH2 8096   3.155   2.760   3.693  0.0849 -0.0342 -0.2665
 2712TIP3    H1 8097   3.094   2.771   3.620  0.6995  1.0174 -0.6499
 2712TIP3    H2 8098   3.234   2.808   3.665  0.7456 -0.5916  0.6005
 2713TIP3   OH2 8099   3.612   4.795   0.608  0.8225  0.2712  0.2966
 2713TIP3    H1 8100   3.596   4.870   0.665  1.7304  0.7171 -0.0171
 2713TIP3    H2 8101   3.571   4.819   0.525  0.0472 -0.1069  0.5700
 2714TIP3   OH2 8102   3.790   2.371   4.908  0.0132 -0.1660 -0.0778
 2714TIP3    H1 8103   3.752   2.286   4.883 -0.3604  0.6764 -2.4143
 2714TIP3    H2 8104   3.811   2.414   4.826  3.0519  0.7940  1.1260
 2715TIP3   OH2 8105   5.788   2.634   2.192  0.4003 -0.6042 -0.5918
 2715TIP3    H1 8106   5.797   2.675   2.278  1.7351 -0.1776 -0.9092
 2715TIP3    H2 8107   5.752   2.548   2.209  0.0894 -0.2924  0.3425
 2716TIP3   OH2 8108   5.947   1.778   3.274  0.4609 -0.0011 -0.1324
 2716TIP3    H1 8109   6.027   1.725   3.271  0.8668  0.4803  1.4223
 2716TIP3    H2 8110   5.894   1.737   3.342  0.1341  0.7005  0.0401
 2717TIP3   OH2 8111   1.474   6.765   3.713 -0.3880  0.2206 -0.4905
 2717TIP3    H1 8112   1.461   6.676   3.746  0.9878  0.4475  0.6938
 2717TIP3    H2 8113   1.449   6.760   3.620 -1.3186 -1.1408 -0.1872
 2718TIP3   OH2 8114   4.479   2.755   2.056  0.4720 -0.0729 -0.0944
 2718TIP3    H1 8115   4.455   2.845   2.079  0.7380 -0.4045  1.5398
 2718TIP3    H2 8116   4.573   2.758   2.041  0.1153  0.3817 -2.3711
 2719TIP3   OH2 8117   4.168   1.952   2.903  0.0185 -0.2304  0.3232
 2719TIP3    H1 8118   4.161   1.857   2.894 -1.2194 -0.1479  0.3621
 2719TIP3    H2 8119   4.086   1.979   2.945 -0.1303  0.9841 -0.7003
 2720TIP3   OH2 8120   4.640   2.067   1.658 -0.0890 -0.7267 -0.0060
 2720TIP3    H1 8121   4.684   2.012   1.723 -0.2801 -1.9214 -0.8710
 2720TIP3    H2 8122   4.665   2.029   1.574 -0.1689  0.5673 -0.6238
 2721TIP3   OH2 8123   4.740   2.583   1.309 -0.6143 -0.2590 -0.5536
 2721TIP3    H1 8124   4.713   2.630   1.230 -1.8273 -1.6391 -0.9867
 2721TIP3    H2 8125   4.658   2.552   1.347  0.0339 -0.3358  0.7785
 2722TIP3   OH2 8126   1.836   2.812   1.864  0.9363  0.3993  0.3992
 2722TIP3    H1 8127   1.847   2.718   1.849 -1.9079  0.0336  0.3859
 2722TIP3    H2 8128   1.829   2.820   1.959  0.3518  0.4892  0.3507
 2723TIP3   OH2 8129   3.541   1.588   3.067  0.1300 -0.7592 -0.5745
 2723TIP3    H1 8130   3.474   1.532   3.028 -0.8932  0.6914 -0.9247
 2723TIP3    H2 8131   3.563   1.650   2.997  1.0676 -0.5628 -0.1067
 2724TIP3   OH2 8132   2.437   1.498   3.149  0.4404  0.2789  0.7448
 2724TIP3    H1 8133   2.464   1.550   3.074 -0.2353  0.3360  0.5403
 2724TIP3    H2 8134   2.341   1.499   3.146  0.3312  2.4426  3.0772
 2725TIP3   OH2 8135   6.714   3.508   0.322  0.1742 -0.6134  0.2768
 2725TIP3    H1 8136   6.705   3.472   0.234  1.2659  1.4026 -0.6978
 2725TIP3    H2 8137   6.633   3.555   0.337  0.6251  0.3658 -0.3020
 2726TIP3   OH2 8138   5.542   2.713   1.645 -0.2521 -0.1301  0.1627
 2726TIP3    H1 8139   5.537   2.804   1.673  0.7805 -0.2751  0.8565
 2726TIP3    H2 8140   5.490   2.665   1.711 -0.0732 -0.1504  0.2879
 2727TIP3   OH2 8141   3.691   0.698   1.253 -0.3838  0.1682 -0.4086
 2727TIP3    H1 8142   3.698   0.710   1.158 -1.3364 -0.8450 -0.6303
 2727TIP3    H2 8143   3.616   0.752   1.279 -1.2202 -0.8884 -0.5360
 2728TIP3   OH2 8144   4.395   3.702   3.090  0.6839  0.2088 -0.3275
 2728TIP3    H1 8145   4.368   3.788   3.124  0.6691  0.1142 -0.1025
 2728TIP3    H2 8146   4.325   3.678   3.029  0.7643  0.4268 -0.5102
 2729TIP3   OH2 8147   4.058   3.903   0.904  0.7207  0.1944 -0.3707
 2729TIP3    H1 8148   4.013   3.922   0.986  1.2698 -0.8221  0.1703
 2729TIP3    H2 8149   4.042   3.810   0.888  0.5327  0.4057 -1.4756
 2730TIP3   OH2 8150   4.276   0.454   2.600  0.2949 -0.3356 -0.1877
 2730TIP3    H1 8151   4.358   0.487   2.637  0.6202 -0.1078 -1.0798
 2730TIP3    H2 8152   4.304   0.391   2.533 -0.2986 -1.6880  0.7959
 2731TIP3   OH2 8153   5.139   3.843   4.106  0.1712  0.2500 -0.3876
 2731TIP3    H1 8154   5.205   3.781   4.138 -0.6930  0.0154  0.9949
 2731TIP3    H2 8155   5.113   3.809   4.020  0.5857 -0.6320 -0.1675
 2732TIP3   OH2 8156   6.369   3.550   1.190 -0.1660  0.0576 -0.2086
 2732TIP3    H1 8157   6.297   3.496   1.223  0.0205 -0.2326 -0.2721
 2732TIP3    H2 8158   6.365   3.630   1.242  1.0165 -0.9777  1.5192
 2733TIP3   OH2 8159   6.899   2.629   1.125 -0.6249 -0.2385  0.2066
 2733TIP3    H1 8160   6.883   2.691   1.195 -2.4250 -0.0655 -0.3302
 2733TIP3    H2 8161   6.976   2.580   1.153  0.2726  1.6356  1.0339
 2734TIP3   OH2 8162   5.795   2.376   3.574 -0.5290 -0.2568 -0.2325
 2734TIP3    H1 8163   5.818   2.452   3.626  1.3808  0.2308 -1.7214
 2734TIP3    H2 8164   5.834   2.302   3.620 -1.4935 -0.2225  0.6552
 2735TIP3   OH2 8165   7.539   3.090   0.055 -0.0235  0.3741  0.1544
 2735TIP3    H1 8166   7.584   3.118   0.135 -1.9823  0.8024  1.1280
 2735TIP3    H2 8167   7.606   3.041   0.006  1.1439 -0.0386  2.1195
 2736TIP3   OH2 8168   6.702   2.460   1.198  0.0738 -0.3201  0.7078
 2736TIP3    H1 8169   6.662   2.391   1.145  2.7759 -2.4017  1.2777
 2736TIP3    H2 8170   6.751   2.512   1.135  0.5554 -0.7904  0.6896
 2737TIP3   OH2 8171   5.035   3.205   0.715 -0.0786  0.7073  0.3815
 2737TIP3    H1 8172   5.121   3.164   0.726  0.1963  1.1575 -0.0669
 2737TIP3    H2 8173   4.978   3.134   0.686  0.2675  0.5266  0.1461
 2738TIP3   OH2 8174   4.839   3.556   1.579 -0.2089  0.4130 -0.0513
 2738TIP3    H1 8175   4.810   3.490   1.641  0.9570  0.6251  0.7423
 2738TIP3    H2 8176   4.929   3.531   1.558 -0.0756  1.2187 -0.4642
 2739TIP3   OH2 8177   6.583   3.900   0.869 -0.2007  0.0433 -0.2266
 2739TIP3    H1 8178   6.517   3.967   0.886 -0.7319 -0.7402  0.8430
 2739TIP3    H2 8179   6.603   3.909   0.776 -0.3609  1.5945 -0.1217
 2740TIP3   OH2 8180   6.268   3.071   3.424 -1.0019  0.2383 -0.2380
 2740TIP3    H1 8181   6.216   3.075   3.344  0.1316 -2.1355 -1.1152
 2740TIP3    H2 8182   6.259   2.981   3.455 -0.5075  0.8201  1.7114
 2741TIP3   OH2 8183   4.476   7.272   2.574 -0.4269  0.0355 -0.0428
 2741TIP3    H1 8184   4.399   7.288   2.629 -0.4778 -2.5346  0.7443
 2741TIP3    H2 8185   4.548   7.314   2.619 -1.0367  0.7330  0.2823
 2742TIP3   OH2 8186   5.837   2.058   0.197 -0.4067  0.3145  0.6699
 2742TIP3    H1 8187   5.858   2.114   0.122  0.5324 -0.1603  0.5650
 2742TIP3    H2 8188   5.743   2.068   0.209 -0.1142  2.6586  1.2729
 2743TIP3   OH2 8189   5.306   2.539   1.343 -0.5367  0.6389 -0.1390
 2743TIP3    H1 8190   5.242   2.583   1.288 -0.5155 -0.6423 -1.2150
 2743TIP3    H2 8191   5.273   2.551   1.432 -1.1999  1.7052 -0.5107
 2744TIP3   OH2 8192   7.705   1.057   0.664  0.3363 -0.0617 -0.6810
 2744TIP3    H1 8193   7.790   1.018   0.642 -0.4642 -1.3123 -1.6260
 2744TIP3    H2 8194   7.648   1.033   0.591 -0.7386  1.1090 -0.2447
 2745TIP3   OH2 8195   3.399   0.278   5.894 -0.5979  0.1607  0.0491
 2745TIP3    H1 8196   3.372   0.187   5.882  0.6702 -0.0076 -1.8208
 2745TIP3    H2 8197   3.447   0.300   5.813  0.7958  1.8680  1.2809
 2746TIP3   OH2 8198   6.323   2.746   1.819 -0.6254 -0.3712 -0.2555
 2746TIP3    H1 8199   6.312   2.841   1.825 -0.7298 -0.4497  0.9768
 2746TIP3    H2 8200   6.418   2.733   1.819 -0.5893 -0.3740  1.9770
 2747TIP3   OH2 8201   5.867   0.737   0.976  0.1988  0.6426 -0.4144
 2747TIP3    H1 8202   5.861   0.724   1.071  0.4326  0.7082 -0.3901
 2747TIP3    H2 8203   5.848   0.651   0.938  1.7944  0.2094 -0.2541
 2748TIP3   OH2 8204   5.187   1.680   1.103  0.2241 -0.1574  0.0725
 2748TIP3    H1 8205   5.218   1.612   1.043 -0.1572 -0.1760 -0.1023
 2748TIP3    H2 8206   5.179   1.758   1.048 -2.1695 -0.6910 -0.3718
 2749TIP3   OH2 8207   0.922   6.542   5.561 -0.2198  0.1126 -0.1662
 2749TIP3    H1 8208   0.827   6.537   5.576 -0.4658 -0.7576 -1.9383
 2749TIP3    H2 8209   0.933   6.619   5.506 -0.0045 -0.4201 -0.8616
 2750TIP3   OH2 8210   7.005   2.279   3.029 -0.1576  0.2193 -0.1940
 2750TIP3    H1 8211   7.039   2.190   3.038 -0.0547  0.1933 -0.8413
 2750TIP3    H2 8212   7.047   2.313   2.950 -0.2972  0.7978 -0.0221
 2751TIP3   OH2 8213   4.646   2.289   0.132 -0.3006  0.3218 -0.3310
 2751TIP3    H1 8214   4.698   2.296   0.052 -1.1007  0.7331 -0.8199
 2751TIP3    H2 8215   4.658   2.198   0.160 -1.5963 -0.3954 -2.0171
 2752TIP3   OH2 8216   5.604   2.196   1.827  0.6345 -0.9519 -0.3303
 2752TIP3    H1 8217   5.513   2.164   1.826 -0.0500  0.7341  2.9432
 2752TIP3    H2 8218   5.604   2.267   1.763 -0.2232 -1.2718 -0.7070
 2753TIP3   OH2 8219   7.411   1.442   2.425 -0.3696  0.2278  0.1290
 2753TIP3    H1 8220   7.417   1.423   2.331 -0.1816 -2.3963  0.6473
 2753TIP3    H2 8221   7.322   1.419   2.449  0.2658 -1.3399  1.0501
 2754TIP3   OH2 8222   6.213   2.962   2.352  0.5732 -0.2425  0.2911
 2754TIP3    H1 8223   6.261   2.900   2.297  1.0688 -0.2002  0.6700
 2754TIP3    H2 8224   6.121   2.951   2.325  0.7225 -0.7271 -0.0453
 2755TIP3   OH2 8225   1.519   6.395   6.129 -0.0821  0.7392  0.4288
 2755TIP3    H1 8226   1.602   6.442   6.121 -0.5242  1.3594 -0.6747
 2755TIP3    H2 8227   1.476   6.434   6.205 -0.0855  1.5749  0.0071
 2756TIP3   OH2 8228   7.650   2.570   0.618  0.4044 -0.2143  0.0502
 2756TIP3    H1 8229   7.739   2.601   0.637  0.1325  0.4508  0.2509
 2756TIP3    H2 8230   7.629   2.611   0.534  0.4562 -0.7299 -0.2137
 2757TIP3   OH2 8231  -0.003   2.214   4.149  0.3046 -0.1508 -0.2025
 2757TIP3    H1 8232   0.065   2.159   4.110  2.2266  1.3420  0.9823
 2757TIP3    H2 8233   0.010   2.205   4.243 -0.8806  0.4929  0.0320
 2758TIP3   OH2 8234   6.306   1.822   2.975 -0.5867 -0.5757  0.0699
 2758TIP3    H1 8235   6.249   1.876   2.920  0.9936  1.0465 -0.0278
 2758TIP3    H2 8236   6.387   1.814   2.924  0.4292 -0.1255  1.5927
 2759TIP3   OH2 8237   5.631   3.552   0.850  0.1215 -0.3261  0.4617
 2759TIP3    H1 8238   5.614   3.457   0.852 -0.2687 -0.2810 -0.4204
 2759TIP3    H2 8239   5.718   3.561   0.888  0.2088 -1.0527  0.4548
 2760TIP3   OH2 8240   6.250   1.417   3.234  0.0325  0.0280  0.5685
 2760TIP3    H1 8241   6.340   1.395   3.257  0.4808  0.0707 -1.0858
 2760TIP3    H2 8242   6.248   1.512   3.232  0.3170  0.0156 -0.7406
 2761TIP3   OH2 8243   3.583   0.751   6.176  0.1795  0.2015 -0.2459
 2761TIP3    H1 8244   3.573   0.846   6.176 -0.5412  0.1420 -2.0177
 2761TIP3    H2 8245   3.556   0.724   6.088 -0.9555 -1.7865  0.6767
 2762TIP3   OH2 8246   0.064   5.613   5.263 -0.8446 -0.4863  0.5656
 2762TIP3    H1 8247   0.159   5.618   5.276 -0.8711 -0.5667  0.7914
 2762TIP3    H2 8248   0.034   5.549   5.327 -1.0666 -0.3834  0.5657
 2763TIP3   OH2 8249   1.292   2.133   1.608  0.2149  0.2607 -0.2138
 2763TIP3    H1 8250   1.215   2.190   1.602  0.3089  0.2570 -1.8439
 2763TIP3    H2 8251   1.280   2.084   1.689 -1.2159  0.6684 -0.1649
 2764TIP3   OH2 8252   0.463   3.439   3.600  0.1724  0.3904 -0.1026
 2764TIP3    H1 8253   0.514   3.387   3.538  1.5940 -0.7081  1.9152
 2764TIP3    H2 8254   0.409   3.375   3.646 -0.4669  1.1208  0.1758
 2765TIP3   OH2 8255   6.347   1.657   1.705  0.1527  0.6159  0.3781
 2765TIP3    H1 8256   6.377   1.566   1.701 -1.9547 -0.1229  0.8372
 2765TIP3    H2 8257   6.327   1.672   1.797 -2.9353  0.3587 -0.1949
 2766TIP3   OH2 8258   5.500   3.853   1.751  0.6815 -0.0764 -0.4285
 2766TIP3    H1 8259   5.426   3.909   1.728  0.0933 -1.0418 -0.8796
 2766TIP3    H2 8260   5.574   3.891   1.704  0.9542  2.2002  1.7190
 2767TIP3   OH2 8261   6.225   1.708   1.946 -0.0426 -1.0329  0.1143
 2767TIP3    H1 8262   6.198   1.621   1.978  0.6076 -0.4244  2.4248
 2767TIP3    H2 8263   6.162   1.768   1.986  1.6595 -0.1079  1.4742
 2768TIP3   OH2 8264   2.281   7.143   3.286  0.2543  0.1131 -0.4786
 2768TIP3    H1 8265   2.300   7.168   3.196 -0.7798  0.3600 -0.6353
 2768TIP3    H2 8266   2.275   7.047   3.284  1.3040  0.0366 -0.4491
 2769TIP3   OH2 8267   5.066   2.405   3.045  0.3775 -0.0644  0.3015
 2769TIP3    H1 8268   5.025   2.319   3.055 -0.2399  0.2785  0.7141
 2769TIP3    H2 8269   5.160   2.388   3.053  0.3180 -0.8450 -0.6127
 2770TIP3   OH2 8270   6.240   2.868   5.616  0.0727 -0.0797 -0.2232
 2770TIP3    H1 8271   6.296   2.824   5.553 -2.5364  2.0081 -4.1605
 2770TIP3    H2 8272   6.200   2.796   5.666  1.6657 -1.8067 -1.3541
 2771TIP3   OH2 8273   6.889   2.210   1.625 -0.0680  0.3856  0.7109
 2771TIP3    H1 8274   6.794   2.198   1.617  0.1189 -0.6712 -0.0488
 2771TIP3    H2 8275   6.923   2.121   1.638  0.8558  0.7140  0.5695
 2772TIP3   OH2 8276   5.506   2.287   2.218  0.5559  1.0060  0.0137
 2772TIP3    H1 8277   5.530   2.352   2.283 -0.7083  0.2478  1.2551
 2772TIP3    H2 8278   5.507   2.204   2.266 -2.8198  0.7347 -0.3116
 2773TIP3   OH2 8279   0.806   3.353   0.146 -0.5989 -0.5186 -0.5631
 2773TIP3    H1 8280   0.854   3.298   0.085 -0.3079 -0.8272 -0.0592
 2773TIP3    H2 8281   0.788   3.296   0.221 -2.1459 -0.5449 -0.9337
 2774TIP3   OH2 8282   5.330   2.568   2.501 -0.4752 -0.0165 -0.4471
 2774TIP3    H1 8283   5.294   2.637   2.445 -1.2525 -0.2758 -0.2684
 2774TIP3    H2 8284   5.281   2.489   2.476  0.2053 -0.4422 -0.4438
 2775TIP3   OH2 8285   4.238   3.879   0.102  0.2869 -0.2348  0.5109
 2775TIP3    H1 8286   4.301   3.945   0.070 -0.3919  0.2521  0.1519
 2775TIP3    H2 8287   4.244   3.808   0.038  0.4660 -0.1802  0.4664
 2776TIP3   OH2 8288   4.133   1.558   0.421 -0.5364 -0.4035 -0.2795
 2776TIP3    H1 8289   4.045   1.529   0.447 -0.7812  1.0536  0.6087
 2776TIP3    H2 8290   4.148   1.516   0.336 -0.8866 -3.0228  0.8973
 2777TIP3   OH2 8291   6.969   4.730   2.280  0.5884 -0.0304 -0.0208
 2777TIP3    H1 8292   6.987   4.683   2.198 -2.1303 -0.5916 -0.3400
 2777TIP3    H2 8293   6.993   4.820   2.261  0.3278 -0.2229 -1.3350
 2778TIP3   OH2 8294   4.989   2.665   3.216  0.1909 -0.1731 -0.0144
 2778TIP3    H1 8295   4.962   2.655   3.125  0.0960  0.0488 -0.0106
 2778TIP3    H2 8296   4.951   2.749   3.243  1.9748  0.7901 -0.4034
 2779TIP3   OH2 8297   5.989   2.951   1.605 -0.1430  0.2930 -0.4430
 2779TIP3    H1 8298   5.919   3.014   1.592 -0.7084 -0.3154 -0.3726
 2779TIP3    H2 8299   5.964   2.875   1.551  1.1472  0.6016 -1.5187
 2780TIP3   OH2 8300   7.667   2.073   0.646 -0.0093  0.0702  0.1590
 2780TIP3    H1 8301   7.575   2.099   0.650  0.1500  0.9976 -1.6528
 2780TIP3    H2 8302   7.668   1.982   0.678 -1.7991 -0.5245 -1.4141
 2781TIP3   OH2 8303   0.865   1.804   2.242 -0.4093 -0.3296  0.2529
 2781TIP3    H1 8304   0.867   1.747   2.165 -1.2274 -0.4633  0.3333
 2781TIP3    H2 8305   0.917   1.757   2.307 -1.4964 -1.2280  0.4871
 2782TIP3   OH2 8306   6.105   3.236   1.076 -0.2316  0.4993 -0.5606
 2782TIP3    H1 8307   6.101   3.308   1.139  0.0208 -0.2646  0.3534
 2782TIP3    H2 8308   6.198   3.223   1.061 -0.3242  1.5458 -2.1295
 2783TIP3   OH2 8309   4.697   3.175   2.447 -0.3264  0.2446 -0.5225
 2783TIP3    H1 8310   4.619   3.136   2.487  0.0058  0.2141  0.0845
 2783TIP3    H2 8311   4.712   3.255   2.498  2.0773 -1.4885  1.5659
 2784TIP3   OH2 8312   6.051   0.483   1.019  0.1620 -0.0425  0.1050
 2784TIP3    H1 8313   5.989   0.514   1.085 -0.4891  1.6217 -1.2562
 2784TIP3    H2 8314   5.996   0.441   0.953  0.9090 -2.8087  1.1598
 2785TIP3   OH2 8315   6.572   4.314   2.231  0.0855 -0.1370  0.2921
 2785TIP3    H1 8316   6.651   4.348   2.190  0.5664  0.1974  1.4674
 2785TIP3    H2 8317   6.584   4.219   2.234  0.5364 -0.0699  0.6491
 2786TIP3   OH2 8318   0.910   1.081   3.133 -0.0791  0.0548  0.2782
 2786TIP3    H1 8319   0.838   1.113   3.187  0.1588 -0.3138  0.8094
 2786TIP3    H2 8320   0.953   1.014   3.186  0.2039 -0.2504 -0.3310
 2787TIP3   OH2 8321   6.566   2.901   3.186 -0.0971  0.0848  0.2053
 2787TIP3    H1 8322   6.634   2.908   3.252  0.7103 -0.9020 -0.5024
 2787TIP3    H2 8323   6.518   2.821   3.210 -0.2363  0.1059 -0.0018
 2788TIP3   OH2 8324   7.723   1.429   2.710 -0.5422 -0.1773 -0.1180
 2788TIP3    H1 8325   7.715   1.452   2.802  0.4944 -0.6522  0.0942
 2788TIP3    H2 8326   7.667   1.493   2.665 -2.0751 -0.7465  0.9378
 2789TIP3   OH2 8327   7.695   1.154   2.560  0.3361  0.0224  0.3071
 2789TIP3    H1 8328   7.722   1.186   2.474 -2.6039  1.2512 -0.2028
 2789TIP3    H2 8329   7.710   1.228   2.619  0.2427 -0.0584  0.4338
 2790TIP3   OH2 8330   4.719   0.845   3.203  0.1360 -0.4689  0.5306
 2790TIP3    H1 8331   4.668   0.820   3.126  0.0639  1.7217 -0.1790
 2790TIP3    H2 8332   4.657   0.838   3.276 -0.4729 -0.2460  0.0389
 2791TIP3   OH2 8333   2.435   6.490   5.167 -0.5957 -0.8819 -0.0728
 2791TIP3    H1 8334   2.347   6.501   5.132 -0.2372 -2.9809 -1.6983
 2791TIP3    H2 8335   2.424   6.428   5.240 -0.8049  0.7419  1.3057
 2792TIP3   OH2 8336   7.069   1.551   0.801  0.2999  0.3934 -0.0186
 2792TIP3    H1 8337   7.056   1.474   0.857  2.5538  0.3609  0.4966
 2792TIP3    H2 8338   7.056   1.517   0.712  1.0676 -0.5496  0.2173
 2793TIP3   OH2 8339   7.014   1.898   1.547 -0.0480 -0.3585  0.6790
 2793TIP3    H1 8340   7.046   1.830   1.488  0.2535 -0.1460  0.5922
 2793TIP3    H2 8341   6.970   1.961   1.490  0.2870 -0.1277  0.6708
 2794TIP3   OH2 8342   3.230   3.592   0.950 -0.0137 -0.3235 -0.2661
 2794TIP3    H1 8343   3.167   3.522   0.967  0.3133 -0.7486 -0.7789
 2794TIP3    H2 8344   3.221   3.652   1.024  1.0432 -1.8666  1.1223
 2795TIP3   OH2 8345   5.467   1.771   1.775 -0.5351 -0.2114  0.5589
 2795TIP3    H1 8346   5.425   1.856   1.757 -1.7993 -0.9163  0.1109
 2795TIP3    H2 8347   5.441   1.751   1.865  0.0680  0.0463  0.7922
 2796TIP3   OH2 8348   2.186   1.411   3.037 -0.6423  0.0296 -0.6053
 2796TIP3    H1 8349   2.209   1.342   3.100 -0.4070  0.4988 -0.1733
 2796TIP3    H2 8350   2.190   1.368   2.952 -0.2820 -0.4387 -0.3535
 2797TIP3   OH2 8351   4.037   2.298   0.966 -0.4014 -0.0834 -0.3584
 2797TIP3    H1 8352   4.003   2.353   0.896  2.0352  1.0129 -0.7484
 2797TIP3    H2 8353   4.066   2.219   0.922 -0.3448 -0.0610 -0.3615
 2798TIP3   OH2 8354   5.865   3.143   0.570 -0.1448  0.1410 -0.4708
 2798TIP3    H1 8355   5.891   3.166   0.659 -2.1557  1.6725 -0.2447
 2798TIP3    H2 8356   5.936   3.175   0.515  0.2786  0.7779  0.4327
 2799TIP3   OH2 8357   4.223   1.411   0.992 -0.1259  0.5423  0.2274
 2799TIP3    H1 8358   4.268   1.450   0.917 -1.9971 -1.1520 -1.8821
 2799TIP3    H2 8359   4.150   1.470   1.010 -0.8873 -0.1089 -0.6659
 2800TIP3   OH2 8360   5.798   1.703   3.019 -0.2770  0.5982  0.5958
 2800TIP3    H1 8361   5.853   1.717   3.096 -0.6112  0.9250  0.7807
 2800TIP3    H2 8362   5.712   1.738   3.045 -0.5207  0.2575  0.2508
 2801TIP3   OH2 8363   4.674   1.402   4.111  0.2987  0.0495 -0.2646
 2801TIP3    H1 8364   4.695   1.445   4.194  0.4444 -1.1865  0.3477
 2801TIP3    H2 8365   4.701   1.311   4.123  1.5579  0.1531 -2.1439
 2802TIP3   OH2 8366   7.569   1.899   2.487 -0.1618  0.0919 -0.4383
 2802TIP3    H1 8367   7.657   1.896   2.448 -0.4745 -0.5196 -1.1038
 2802TIP3    H2 8368   7.544   1.991   2.483  0.6236  0.3368  0.1462
 2803TIP3   OH2 8369   5.391   1.888   2.939  0.8179  0.6904 -0.4691
 2803TIP3    H1 8370   5.462   1.932   2.987 -0.0496  1.6285 -0.0430
 2803TIP3    H2 8371   5.313   1.938   2.961  0.2247  0.4452 -1.9748
 2804TIP3   OH2 8372   5.343   2.259   3.033 -0.0997  0.0304 -0.8411
 2804TIP3    H1 8373   5.349   2.214   2.949 -0.1088 -0.6475 -0.4901
 2804TIP3    H2 8374   5.395   2.204   3.093 -1.9974 -0.7927  0.1111
 2805TIP3   OH2 8375   5.168   2.907   2.020 -0.1810  1.0262 -0.1442
 2805TIP3    H1 8376   5.206   2.866   1.942 -0.6187  1.2514 -0.4864
 2805TIP3    H2 8377   5.172   3.001   2.001 -0.2570  1.0819  0.1214
 2806TIP3   OH2 8378   6.355   3.453   3.011 -0.3577  0.0858 -0.3696
 2806TIP3    H1 8379   6.364   3.539   2.971  1.4744  1.0628  2.0257
 2806TIP3    H2 8380   6.359   3.392   2.937  0.1434  1.9470 -1.9226
 2807TIP3   OH2 8381   4.592   2.853   0.252 -0.0721  0.2162 -0.0913
 2807TIP3    H1 8382   4.665   2.817   0.203 -1.4481 -0.2232 -1.8649
 2807TIP3    H2 8383   4.583   2.943   0.220 -0.6133  0.1157 -0.2315
 2808TIP3   OH2 8384   6.211   5.810   2.652  0.0365 -0.2523  0.5628
 2808TIP3    H1 8385   6.239   5.735   2.599 -0.0716 -0.4201  0.7453
 2808TIP3    H2 8386   6.270   5.881   2.625  0.6449 -0.6060  0.9500
 2809TIP3   OH2 8387   6.121   2.403   1.810 -0.2686  0.4076  0.6473
 2809TIP3    H1 8388   6.048   2.451   1.769  1.0675  0.9697 -1.1498
 2809TIP3    H2 8389   6.124   2.436   1.899 -1.3591  1.3972  0.3362
 2810TIP3   OH2 8390   0.379   1.066   2.597 -0.1773 -0.4892  0.1851
 2810TIP3    H1 8391   0.316   1.033   2.533  0.0203  1.1007 -0.8636
 2810TIP3    H2 8392   0.464   1.050   2.558 -0.0656  0.8082 -0.1405
 2811TIP3   OH2 8393   4.520   2.503   1.916  0.9438  0.1070  0.2704
 2811TIP3    H1 8394   4.493   2.576   1.971  0.0598  1.9580 -2.4734
 2811TIP3    H2 8395   4.544   2.544   1.833 -0.2400 -2.7913 -1.5872
 2812TIP3   OH2 8396   3.800   2.883   1.919  0.0308  0.2190  0.2128
 2812TIP3    H1 8397   3.764   2.897   2.007  0.4018  0.2696  0.3598
 2812TIP3    H2 8398   3.895   2.881   1.932  0.0678 -0.4437 -0.0904
 2813TIP3   OH2 8399   2.829   6.884   2.443 -0.1298  0.1751  0.0133
 2813TIP3    H1 8400   2.772   6.832   2.499  0.9468  0.7538  1.6881
 2813TIP3    H2 8401   2.888   6.821   2.402 -0.1993 -0.1339  0.3984
 2814TIP3   OH2 8402   1.006   1.852   1.953 -0.1863  0.9261 -0.2596
 2814TIP3    H1 8403   1.013   1.915   2.026  0.8691  0.7207 -0.1755
 2814TIP3    H2 8404   1.080   1.874   1.897 -0.8554  0.9125 -1.1484
 2815TIP3   OH2 8405   6.517   1.482   2.781 -0.0814 -0.2512  0.5053
 2815TIP3    H1 8406   6.577   1.441   2.719 -0.4358  0.7085 -0.4657
 2815TIP3    H2 8407   6.466   1.409   2.816  0.1710 -0.8008 -0.2600
 2816TIP3   OH2 8408   7.231   1.512   1.504 -0.1948  0.0966 -0.0168
 2816TIP3    H1 8409   7.315   1.553   1.526 -0.2634 -0.3188  1.0384
 2816TIP3    H2 8410   7.238   1.423   1.539 -1.3425  0.2831  0.6989
 2817TIP3   OH2 8411   0.523   1.930   1.661  0.1591 -0.0596  0.0332
 2817TIP3    H1 8412   0.472   1.868   1.714  1.8877 -0.6405  1.0464
 2817TIP3    H2 8413   0.505   2.016   1.700 -2.0667  0.0945 -1.2369
 2818TIP3   OH2 8414   5.536   2.607   1.174  0.4032  0.7240 -0.8803
 2818TIP3    H1 8415   5.477   2.572   1.240  1.5015 -0.6984 -0.6549
 2818TIP3    H2 8416   5.549   2.698   1.200  2.0475 -0.2101  1.7490
 2819TIP3   OH2 8417   7.297   2.217   1.222  0.2458  0.0688  0.1213
 2819TIP3    H1 8418   7.305   2.123   1.236  1.7106  0.2437  0.5478
 2819TIP3    H2 8419   7.367   2.255   1.275  1.2362  1.2234 -1.9614
 2820TIP3   OH2 8420   7.613   2.012   2.112 -0.1976 -0.4117  0.6103
 2820TIP3    H1 8421   7.566   2.093   2.096  1.1235 -0.0650 -1.7957
 2820TIP3    H2 8422   7.668   2.031   2.188 -1.2693  0.3227  1.2159
 2821TIP3   OH2 8423   0.140   1.963   2.632  0.6704 -0.3198 -0.3303
 2821TIP3    H1 8424   0.160   2.056   2.636 -0.4626 -0.0674 -0.3459
 2821TIP3    H2 8425   0.094   1.945   2.714 -0.0486 -0.6343 -0.7946
 2822TIP3   OH2 8426   7.066   1.895   2.343  0.0854  0.1748  0.1990
 2822TIP3    H1 8427   7.014   1.852   2.275  0.3852  0.6233 -0.3200
 2822TIP3    H2 8428   7.130   1.829   2.370  0.2765  0.1531 -0.3017
 2823TIP3   OH2 8429   6.332   2.242   2.375 -0.5420  0.2969  0.0672
 2823TIP3    H1 8430   6.317   2.272   2.465  0.3089 -1.9448  0.9990
 2823TIP3    H2 8431   6.425   2.256   2.360 -0.5352 -0.0258 -0.2001
 2824TIP3   OH2 8432   4.801   2.330   1.334  0.1295 -0.2046 -0.4358
 2824TIP3    H1 8433   4.799   2.415   1.291 -0.8496 -0.4406 -0.8743
 2824TIP3    H2 8434   4.844   2.347   1.418 -1.6962  1.1245  0.2824
 2825TIP3   OH2 8435   6.893   2.064   1.378  0.2290 -0.5510  0.0382
 2825TIP3    H1 8436   6.921   2.020   1.298  0.3364 -0.3110 -0.0555
 2825TIP3    H2 8437   6.798   2.065   1.373  0.2580  0.0626 -0.4059
 2826TIP3   OH2 8438   6.575   3.502   2.398  0.9474  0.0401  0.6775
 2826TIP3    H1 8439   6.614   3.445   2.332 -0.4590 -0.0064 -0.1261
 2826TIP3    H2 8440   6.585   3.454   2.480 -0.2837 -1.4350  0.0029
 2827TIP3   OH2 8441   7.022   2.784   1.969  0.5553  0.2161  0.2310
 2827TIP3    H1 8442   7.017   2.688   1.969 -1.1995  0.2765 -1.0737
 2827TIP3    H2 8443   7.112   2.804   1.944  0.3532 -1.0897 -1.6016
 2828TIP3   OH2 8444   6.329   2.397   2.644  0.1333  0.7186  0.8195
 2828TIP3    H1 8445   6.281   2.352   2.714 -0.9072  0.4429 -0.0668
 2828TIP3    H2 8446   6.277   2.474   2.624  0.1817  0.5517  0.0261
 2829TIP3   OH2 8447   6.213   0.786   0.072  0.0353  0.0330 -0.6365
 2829TIP3    H1 8448   6.184   0.870   0.034  0.2293  0.0125 -0.8346
 2829TIP3    H2 8449   6.305   0.778   0.044 -0.2312 -0.6544 -1.3392
 2830TIP3   OH2 8450   0.456   2.318   2.276  0.2056 -0.2843  0.0803
 2830TIP3    H1 8451   0.475   2.270   2.196  0.5332 -0.7644  0.4407
 2830TIP3    H2 8452   0.418   2.252   2.335 -2.8881  0.7005 -0.7271
 2831TIP3   OH2 8453   7.604   3.946   0.143  0.4799 -0.1530  0.0329
 2831TIP3    H1 8454   7.534   3.950   0.209  0.2952 -2.8793  0.0578
 2831TIP3    H2 8455   7.562   3.905   0.067  1.6068 -0.2538 -0.5394
 2832TIP3   OH2 8456   7.035   1.891   2.776  0.1563  0.1813  0.1191
 2832TIP3    H1 8457   6.963   1.829   2.765  0.0865  0.6740 -2.5040
 2832TIP3    H2 8458   7.114   1.839   2.764  0.1112  0.4781 -1.5315
 2833TIP3   OH2 8459   5.639   2.787   1.389  0.2937 -0.0136 -0.4858
 2833TIP3    H1 8460   5.616   2.738   1.468 -0.4151  0.8638 -0.1374
 2833TIP3    H2 8461   5.576   2.859   1.386 -0.6210 -0.8845 -2.6709
 2834TIP3   OH2 8462   6.277   2.797   0.141  0.3995  0.6659 -0.7512
 2834TIP3    H1 8463   6.225   2.815   0.220  1.3753 -0.4633  0.1522
 2834TIP3    H2 8464   6.300   2.884   0.109  1.0083  1.1384  0.8843
 2835TIP3   OH2 8465   7.402   0.148   0.461 -0.1229 -0.1655  0.5164
 2835TIP3    H1 8466   7.455   0.071   0.445  1.0629  0.5389  1.0023
 2835TIP3    H2 8467   7.462   0.222   0.450 -0.6604  0.5837  2.3077
 2836TIP3   OH2 8468   6.143   0.815   2.196  0.3918  0.1411 -0.5155
 2836TIP3    H1 8469   6.222   0.861   2.224  1.2695 -1.1071 -0.9479
 2836TIP3    H2 8470   6.085   0.820   2.272  0.8486  1.1032 -0.2168
 2837TIP3   OH2 8471   5.892   1.497   1.282 -0.3742  0.3508  0.3548
 2837TIP3    H1 8472   5.891   1.462   1.371 -0.3945  0.5604  0.4348
 2837TIP3    H2 8473   5.968   1.455   1.241 -0.0374  0.6914  0.6395
 2838TIP3   OH2 8474   6.913   3.303   3.861  0.6248 -0.2222 -0.0250
 2838TIP3    H1 8475   6.939   3.249   3.787 -0.5443 -0.8234 -0.0205
 2838TIP3    H2 8476   6.836   3.351   3.830 -0.4091 -1.1352  1.0607
 2839TIP3   OH2 8477   5.525   1.053   0.967  0.3995 -0.2257  0.3335
 2839TIP3    H1 8478   5.603   1.082   1.014 -0.3697  0.3248  1.2894
 2839TIP3    H2 8479   5.458   1.117   0.990 -0.8550 -1.7760  1.0757
 2840TIP3   OH2 8480   1.762   7.025   4.609 -0.1249 -0.6332 -0.1883
 2840TIP3    H1 8481   1.814   6.951   4.580 -0.1450 -0.7270  0.0175
 2840TIP3    H2 8482   1.765   7.087   4.535 -0.6329 -1.1045 -0.6066
 2841TIP3   OH2 8483   3.679   4.424   0.384 -0.4542 -0.1339 -0.1740
 2841TIP3    H1 8484   3.768   4.394   0.405 -0.5231 -0.1809  0.0574
 2841TIP3    H2 8485   3.693   4.503   0.332 -0.2753 -0.3385 -0.4381
 2842TIP3   OH2 8486   6.852   7.061   3.286  0.1963  0.0982  0.1464
 2842TIP3    H1 8487   6.883   7.078   3.197  1.8705 -0.0931  0.6713
 2842TIP3    H2 8488   6.815   7.145   3.315  1.7402  0.8273  0.0737
 2843TIP3   OH2 8489   4.167   0.828   1.694 -0.1724 -0.2347 -0.4626
 2843TIP3    H1 8490   4.204   0.875   1.618  0.7887  0.7683  0.6065
 2843TIP3    H2 8491   4.096   0.884   1.725 -0.2792 -0.4282 -0.3579
 2844TIP3   OH2 8492   5.920   0.346   5.855 -0.0951 -0.0625  0.2135
 2844TIP3    H1 8493   5.959   0.424   5.895 -0.3397 -0.0017  0.3382
 2844TIP3    H2 8494   5.871   0.379   5.780  0.9851 -0.2666 -0.5856
 2845TIP3   OH2 8495   4.491   2.129   2.688 -0.1843  0.0763 -0.7556
 2845TIP3    H1 8496   4.570   2.181   2.702  0.3791 -0.9132 -0.2004
 2845TIP3    H2 8497   4.521   2.038   2.690 -1.5391 -0.3843  0.9957
 2846TIP3   OH2 8498   6.495   0.845   3.437  0.1228  0.6407 -0.4845
 2846TIP3    H1 8499   6.421   0.823   3.380 -0.6404  1.1276  0.3121
 2846TIP3    H2 8500   6.503   0.940   3.430  1.1531  0.5207 -1.1380
 2847TIP3   OH2 8501   7.060   0.825   2.841  0.0899  0.2310 -0.4799
 2847TIP3    H1 8502   7.112   0.776   2.777  0.6236  0.0684  0.0662
 2847TIP3    H2 8503   6.991   0.867   2.790  0.4750  0.0513 -1.1492
 2848TIP3   OH2 8504   5.246   2.546   1.593 -0.4035  0.2185 -0.3335
 2848TIP3    H1 8505   5.245   2.627   1.645 -1.8257  0.5159 -0.8030
 2848TIP3    H2 8506   5.264   2.477   1.657 -0.8002  0.7234  0.3315
 2849TIP3   OH2 8507   0.765   7.355   5.832  0.3005 -0.4489 -0.9955
 2849TIP3    H1 8508   0.725   7.347   5.746 -0.0752 -0.3116 -0.8326
 2849TIP3    H2 8509   0.692   7.353   5.893  0.5819 -0.7671 -0.6652
 2850TIP3   OH2 8510   6.675   0.970   2.462 -0.0639 -0.4653 -0.1340
 2850TIP3    H1 8511   6.621   0.898   2.430  0.3069 -0.3730 -0.9577
 2850TIP3    H2 8512   6.612   1.038   2.487 -0.3394 -0.4284 -0.9212
 2851TIP3   OH2 8513   5.799   2.176   0.975 -0.8097 -0.1700  0.1448
 2851TIP3    H1 8514   5.886   2.213   0.961 -1.4067  1.7010  1.1187
 2851TIP3    H2 8515   5.761   2.169   0.888  0.1152 -0.5060 -0.2365
 2852TIP3   OH2 8516   7.064   6.091   0.407 -0.2066 -0.0518  0.4304
 2852TIP3    H1 8517   7.009   6.087   0.485  0.5742 -3.0130  0.8705
 2852TIP3    H2 8518   7.027   6.027   0.347  1.7679 -0.9349  0.0996
 2853TIP3   OH2 8519   3.957   3.352   1.894 -0.1871 -0.5409  0.2640
 2853TIP3    H1 8520   4.005   3.270   1.879 -0.3639 -0.7031  0.5685
 2853TIP3    H2 8521   3.874   3.324   1.932  0.4558 -0.1256  2.0160
 2854TIP3   OH2 8522   7.620   2.328   3.025  0.9839 -0.0410 -0.0099
 2854TIP3    H1 8523   7.636   2.240   3.059 -0.4046  0.0173  0.8322
 2854TIP3    H2 8524   7.530   2.325   2.992 -0.0971  1.8459  2.6069
 2855TIP3   OH2 8525   6.785   3.286   2.802  0.0839  0.5933  0.2026
 2855TIP3    H1 8526   6.762   3.293   2.894 -2.2191  0.9389 -0.3719
 2855TIP3    H2 8527   6.753   3.199   2.775  0.2736  0.7059 -0.4075
 2856TIP3   OH2 8528   6.812   3.823   1.299 -0.5058  0.3264 -0.2287
 2856TIP3    H1 8529   6.779   3.796   1.213  1.6738  0.0337 -1.0056
 2856TIP3    H2 8530   6.796   3.747   1.356 -0.0807 -0.2638 -0.8871
 2857TIP3   OH2 8531   6.088   2.671   3.610 -0.3178  0.2574 -0.5267
 2857TIP3    H1 8532   6.164   2.722   3.581  0.5822 -1.1239 -0.6129
 2857TIP3    H2 8533   6.118   2.580   3.611 -0.6520  0.0978  3.5438
 2858TIP3   OH2 8534   6.789   4.402   2.098  0.0766  0.9071 -0.1359
 2858TIP3    H1 8535   6.837   4.363   2.025  2.2281 -0.8881  2.1660
 2858TIP3    H2 8536   6.844   4.475   2.126 -0.7216  1.5638 -0.2612
 2859TIP3   OH2 8537   5.776   3.497   1.450  0.2753 -1.1758  0.0988
 2859TIP3    H1 8538   5.832   3.571   1.427 -1.7686  0.3857  0.0336
 2859TIP3    H2 8539   5.713   3.532   1.513 -0.8035 -2.8168 -0.0216
 2860TIP3   OH2 8540   5.494   4.027   2.793 -0.1427  0.5095 -0.6155
 2860TIP3    H1 8541   5.497   4.022   2.698 -0.8479 -0.1784 -0.6099
 2860TIP3    H2 8542   5.406   4.060   2.813 -0.5167 -0.7279 -0.1644
 2861TIP3   OH2 8543   4.364   0.271   5.636 -0.4966 -0.3708  0.3941
 2861TIP3    H1 8544   4.347   0.209   5.565  0.2259  3.3863 -3.2163
 2861TIP3    H2 8545   4.425   0.335   5.598 -2.0317  3.1711  3.5937
 2862TIP3   OH2 8546   6.952   1.621   4.642 -0.3262  0.1692 -0.1118
 2862TIP3    H1 8547   6.979   1.563   4.572  1.3662 -0.2667  0.8776
 2862TIP3    H2 8548   6.935   1.705   4.598  1.6829  0.1831 -0.9167
 2863TIP3   OH2 8549   7.303   7.319   5.942 -0.0886 -0.9507 -0.0486
 2863TIP3    H1 8550   7.290   7.386   5.875 -1.0320  0.3904  1.4388
 2863TIP3    H2 8551   7.387   7.341   5.982  0.0742 -1.2553 -0.2197
 2864TIP3   OH2 8552   5.832   4.019   3.102  0.0121 -0.2955 -0.2697
 2864TIP3    H1 8553   5.742   3.993   3.082  0.2336  0.3088 -2.1206
 2864TIP3    H2 8554   5.885   3.968   3.041  0.8454  0.1990  0.0447
 2865TIP3   OH2 8555   4.962   1.147   5.613  0.1037  0.1045  0.2687
 2865TIP3    H1 8556   4.961   1.061   5.656  0.1014  1.5609  3.3341
 2865TIP3    H2 8557   5.040   1.190   5.649 -1.3891  2.3805  0.8220
 2866TIP3   OH2 8558   6.098   2.581   0.312 -0.1826  0.5159 -0.2113
 2866TIP3    H1 8559   6.111   2.611   0.401 -2.3211  1.7678 -0.2618
 2866TIP3    H2 8560   6.103   2.486   0.317 -0.2653  0.5792  1.2481
 2867TIP3   OH2 8561   0.659   1.468   2.175 -0.5576  0.0989 -0.0600
 2867TIP3    H1 8562   0.691   1.555   2.198  0.2910 -0.2192 -0.0144
 2867TIP3    H2 8563   0.733   1.426   2.130 -0.7757 -0.7817  0.3852
 2868TIP3   OH2 8564   3.929   5.119   1.147 -0.5518 -0.8011  0.3536
 2868TIP3    H1 8565   3.930   5.117   1.243  2.8561  1.8707  0.4958
 2868TIP3    H2 8566   3.919   5.211   1.124  1.6020 -1.0141 -1.7567
 2869TIP3   OH2 8567   7.023   2.524   3.188  0.1928 -0.4007  0.0992
 2869TIP3    H1 8568   6.998   2.488   3.102 -1.9286  0.3115  0.3933
 2869TIP3    H2 8569   6.958   2.592   3.206  1.2824  0.2366  1.7762
 2870TIP3   OH2 8570   5.101   2.719   0.178  0.0314  0.0675 -0.1334
 2870TIP3    H1 8571   5.164   2.751   0.113 -0.2064 -1.1037 -0.9568
 2870TIP3    H2 8572   5.146   2.647   0.221 -0.1132  0.3302  0.4631
 2871TIP3   OH2 8573   5.231   2.426   1.950  0.3645  0.4951 -0.4526
 2871TIP3    H1 8574   5.191   2.472   2.023 -1.9934  1.0664 -2.0700
 2871TIP3    H2 8575   5.313   2.474   1.933 -0.1751  1.7207  0.3555
 2872TIP3   OH2 8576   7.152   2.401   1.046 -0.3396 -0.3079  0.3805
 2872TIP3    H1 8577   7.121   2.449   1.123 -1.3005 -1.4563  0.7417
 2872TIP3    H2 8578   7.213   2.337   1.081  1.8280  1.3729 -0.2362
 2873TIP3   OH2 8579   5.995   0.465   3.631  0.0198  0.0853  0.3528
 2873TIP3    H1 8580   5.952   0.384   3.660  0.7914 -0.6077 -0.4104
 2873TIP3    H2 8581   5.977   0.528   3.701  0.2464 -1.0285  1.4408
 2874TIP3   OH2 8582   4.584   1.982   4.687  0.1549 -0.0223  0.3138
 2874TIP3    H1 8583   4.585   1.944   4.775 -1.2304 -0.7356  0.0316
 2874TIP3    H2 8584   4.561   2.074   4.701 -3.7176 -0.9508  0.4253
 2875TIP3   OH2 8585   0.213   1.659   3.714 -0.0080  0.1089  0.5675
 2875TIP3    H1 8586   0.244   1.712   3.641 -1.0622 -0.8203 -0.5775
 2875TIP3    H2 8587   0.288   1.605   3.739 -0.0653 -0.6057 -0.7895
 2876TIP3   OH2 8588   0.655   2.121   2.556  0.4223 -0.4061 -0.3086
 2876TIP3    H1 8589   0.744   2.156   2.546  0.3034 -0.5831 -2.2251
 2876TIP3    H2 8590   0.654   2.042   2.501 -0.5436 -1.1151  0.7115
 2877TIP3   OH2 8591   6.784   3.781   2.591 -0.0133  0.4818  0.5142
 2877TIP3    H1 8592   6.735   3.771   2.509  0.0288  0.2007  0.5224
 2877TIP3    H2 8593   6.777   3.695   2.634  0.7830  0.3329  0.3522
 2878TIP3   OH2 8594   6.843   1.943   3.160 -0.7464 -0.1444 -0.7109
 2878TIP3    H1 8595   6.855   1.854   3.124 -0.5860 -0.1812 -0.5668
 2878TIP3    H2 8596   6.775   1.933   3.226  1.1351 -0.6835  1.2138
 2879TIP3   OH2 8597   0.678   1.808   4.783 -0.1232  0.2442  0.1136
 2879TIP3    H1 8598   0.738   1.843   4.849 -1.3563  0.1767  1.2906
 2879TIP3    H2 8599   0.699   1.714   4.779  0.4764  0.3863 -0.1566
 2880TIP3   OH2 8600   6.400   3.969   3.023  0.2585 -0.3500 -0.0541
 2880TIP3    H1 8601   6.454   3.980   3.101  1.6582 -0.9129 -0.9188
 2880TIP3    H2 8602   6.343   4.046   3.022  1.3422  0.4709  0.6398
 2881TIP3   OH2 8603   5.277   2.285   4.093 -0.0740  0.0569 -0.4837
 2881TIP3    H1 8604   5.338   2.227   4.046  0.3503  0.9012 -0.9983
 2881TIP3    H2 8605   5.330   2.361   4.115 -1.2539  1.3569 -2.0384
 2882TIP3   OH2 8606   7.408   2.498   0.968  0.0320  0.1242 -0.7362
 2882TIP3    H1 8607   7.396   2.562   0.899 -0.6791  0.4951 -0.2706
 2882TIP3    H2 8608   7.326   2.448   0.970  0.2692 -0.2657 -0.5511
 2883TIP3   OH2 8609   4.391   3.280   2.211 -0.4366  0.0953  0.8900
 2883TIP3    H1 8610   4.424   3.239   2.131 -0.9693  1.9310 -0.3000
 2883TIP3    H2 8611   4.415   3.219   2.281  1.2542 -0.8762 -0.5002
 2884TIP3   OH2 8612   0.407   1.837   4.008 -0.0364  0.2542  0.2334
 2884TIP3    H1 8613   0.471   1.902   3.980  0.7896 -0.5375  0.2494
 2884TIP3    H2 8614   0.459   1.768   4.049 -0.6316 -1.6781 -2.1525
 2885TIP3   OH2 8615   5.750   2.546   1.920  0.0213 -0.0610  0.3130
 2885TIP3    H1 8616   5.824   2.588   1.962 -0.8213  0.8458  0.9063
 2885TIP3    H2 8617   5.727   2.474   1.979 -1.0661  1.1187  1.3587
 2886TIP3   OH2 8618   4.229   2.207   3.571  0.1482 -0.2966  0.0706
 2886TIP3    H1 8619   4.181   2.203   3.489  0.6452 -1.2189 -0.1859
 2886TIP3    H2 8620   4.238   2.301   3.590 -0.6681 -0.1024 -0.5043
 2887TIP3   OH2 8621   4.555   1.660   2.070  0.0782  0.6993  0.6949
 2887TIP3    H1 8622   4.549   1.705   2.154  0.5398  0.7021  0.7294
 2887TIP3    H2 8623   4.494   1.587   2.077 -0.0849  0.8581  0.9333
 2888TIP3   OH2 8624   0.041   2.436   3.727 -0.6112 -0.6762 -0.3537
 2888TIP3    H1 8625  -0.015   2.374   3.773  0.1632 -0.4024  0.9803
 2888TIP3    H2 8626  -0.012   2.516   3.720  0.5125  0.4765  3.2859
 2889TIP3   OH2 8627   7.025   2.897   2.890 -0.9489  0.0129  0.3912
 2889TIP3    H1 8628   7.007   2.949   2.811  0.6372 -0.1009 -0.0609
 2889TIP3    H2 8629   6.952   2.835   2.895 -0.8953 -0.1974 -1.1801
 2890TIP3   OH2 8630   6.433   4.097   2.768 -0.5380 -0.0095  0.2504
 2890TIP3    H1 8631   6.504   4.147   2.727 -1.1801  0.3868 -0.3878
 2890TIP3    H2 8632   6.476   4.049   2.839  0.3735  0.2129 -0.1382
 2891TIP3   OH2 8633   6.235   6.026   0.760  0.0801 -0.3611  0.1556
 2891TIP3    H1 8634   6.236   6.067   0.847  0.6001 -1.1004  0.4985
 2891TIP3    H2 8635   6.230   6.100   0.699 -1.8599  0.1087  0.8379
 2892TIP3   OH2 8636   0.778   2.750   2.176 -0.4669  0.0089  0.0810
 2892TIP3    H1 8637   0.704   2.774   2.120  0.2824 -0.2288 -1.0185
 2892TIP3    H2 8638   0.805   2.664   2.144  0.7252  0.3974  0.0400
 2893TIP3   OH2 8639   6.475   3.710   0.358  0.1481 -0.1630  0.4507
 2893TIP3    H1 8640   6.514   3.723   0.271  0.8606 -1.0341  0.6238
 2893TIP3    H2 8641   6.397   3.657   0.342 -0.7521  1.2301  0.1474
 2894TIP3   OH2 8642   6.773   3.058   0.965 -0.1460 -0.2772  0.5159
 2894TIP3    H1 8643   6.833   3.081   1.035  2.2523 -2.7494 -0.6429
 2894TIP3    H2 8644   6.724   2.982   0.999 -1.2512  0.5142  0.7155
 2895TIP3   OH2 8645   6.394   3.740   1.823  0.3116 -0.0718 -0.5935
 2895TIP3    H1 8646   6.461   3.739   1.891 -2.0361  0.5265  1.8168
 2895TIP3    H2 8647   6.334   3.669   1.846 -0.5501  0.1634 -2.0255
 2896TIP3   OH2 8648   3.081   5.887   5.441  0.0522 -0.0098  0.6487
 2896TIP3    H1 8649   3.044   5.876   5.353  0.8194 -0.5607  0.3857
 2896TIP3    H2 8650   3.105   5.979   5.446  0.9522 -0.1907 -0.1110
 2897TIP3   OH2 8651   3.523   1.877   1.404 -0.8264 -0.9402 -0.0508
 2897TIP3    H1 8652   3.437   1.837   1.417 -1.5820  0.4186 -0.7460
 2897TIP3    H2 8653   3.504   1.969   1.386  0.8100 -0.5157  0.2940
 2898TIP3   OH2 8654   6.423   1.651   2.578 -0.1326 -0.0576  0.2258
 2898TIP3    H1 8655   6.455   1.601   2.653  0.7615  0.9955  0.5554
 2898TIP3    H2 8656   6.328   1.647   2.584 -0.0748 -1.7046  0.2573
 2899TIP3   OH2 8657   4.758   3.069   1.170  0.1161  0.4183  0.1214
 2899TIP3    H1 8658   4.777   3.067   1.077 -0.4671 -0.1913  0.0106
 2899TIP3    H2 8659   4.668   3.037   1.177  0.0617  0.7128  0.8699
 2900TIP3   OH2 8660   0.621   5.614   5.380 -0.1207  0.0601 -0.0395
 2900TIP3    H1 8661   0.660   5.609   5.293  1.5943 -0.5606  0.7561
 2900TIP3    H2 8662   0.680   5.565   5.436 -1.2951  0.3245  1.4620
 2901TIP3   OH2 8663   5.436   0.991   2.745 -0.6419  0.5474 -0.1303
 2901TIP3    H1 8664   5.379   1.061   2.777 -0.5585  0.8099 -0.5465
 2901TIP3    H2 8665   5.521   1.010   2.785 -0.5352  0.8801 -0.5113
 2902TIP3   OH2 8666   7.415   2.142   0.571 -0.1570 -0.7869  0.1758
 2902TIP3    H1 8667   7.381   2.225   0.537 -0.2441 -1.0869 -0.4776
 2902TIP3    H2 8668   7.347   2.112   0.632 -0.1980 -0.4526  0.2959
 2903TIP3   OH2 8669   4.791   1.929   1.845  0.4285  0.1960  0.1214
 2903TIP3    H1 8670   4.724   1.861   1.837  0.4000  0.0598  1.4918
 2903TIP3    H2 8671   4.841   1.906   1.922  1.1925  1.0657 -0.1018
 2904TIP3   OH2 8672   0.857   0.365   2.939  0.5396  1.0626 -0.0804
 2904TIP3    H1 8673   0.874   0.304   2.867  0.8954  1.4778 -0.3527
 2904TIP3    H2 8674   0.770   0.401   2.920  0.6159  1.1411 -0.2838
 2905TIP3   OH2 8675   6.469   3.056   2.813 -0.0685 -0.2596  0.0029
 2905TIP3    H1 8676   6.413   3.006   2.753  0.8584 -1.5863  0.2194
 2905TIP3    H2 8677   6.555   3.013   2.807  0.1575 -0.1017  1.8966
 2906TIP3   OH2 8678   0.324   2.185   1.750  0.4295 -0.3835 -0.7453
 2906TIP3    H1 8679   0.400   2.219   1.798 -1.0680  1.8403  0.1352
 2906TIP3    H2 8680   0.291   2.114   1.805  0.5416  0.1550  0.0359
 2907TIP3   OH2 8681   6.159   0.517   3.137  0.3834 -0.6951 -0.4159
 2907TIP3    H1 8682   6.199   0.603   3.150  0.5911 -1.0759  1.6257
 2907TIP3    H2 8683   6.100   0.506   3.211 -2.7727 -0.6300 -2.7979
 2908TIP3   OH2 8684   4.728   2.459   2.827 -0.4247  0.0602 -0.3634
 2908TIP3    H1 8685   4.787   2.429   2.758 -0.2923 -1.0066  0.2000
 2908TIP3    H2 8686   4.727   2.387   2.890  1.6041  2.1295  2.1085
 2909TIP3   OH2 8687   0.229   1.364   2.283 -0.2530 -0.0916 -0.3959
 2909TIP3    H1 8688   0.288   1.438   2.289  1.1005 -1.2215  0.4088
 2909TIP3    H2 8689   0.279   1.297   2.236 -1.0702 -0.8731 -0.1714
 2910TIP3   OH2 8690   5.282   0.747   3.138  0.3134  0.3996 -0.1843
 2910TIP3    H1 8691   5.235   0.830   3.150 -0.1399 -0.0003  0.8200
 2910TIP3    H2 8692   5.318   0.753   3.049  0.1092  1.5864 -0.2026
 2911TIP3   OH2 8693   6.393   2.293   0.875 -0.5699 -0.1966 -0.3813
 2911TIP3    H1 8694   6.324   2.329   0.931 -0.3474  0.2714 -0.4094
 2911TIP3    H2 8695   6.350   2.223   0.826 -0.4425 -1.5595  1.3828
 2912TIP3   OH2 8696   5.222   2.769   0.523  0.8908 -0.4748 -0.0270
 2912TIP3    H1 8697   5.147   2.712   0.535  0.1415  0.4998 -0.0309
 2912TIP3    H2 8698   5.269   2.731   0.449 -0.4881 -0.1537 -1.0852
 2913TIP3   OH2 8699   7.503   2.820   1.560  0.1499  0.2156  0.2352
 2913TIP3    H1 8700   7.576   2.860   1.512  1.2700  0.1567  1.8808
 2913TIP3    H2 8701   7.452   2.894   1.593  0.2410  0.2577  0.2795
 2914TIP3   OH2 8702   5.941   4.322   2.657  0.2438  0.2462 -0.2564
 2914TIP3    H1 8703   5.892   4.247   2.691  0.8445 -0.5096 -1.0527
 2914TIP3    H2 8704   5.999   4.285   2.591  1.0454  1.3152 -0.1592
 2915TIP3   OH2 8705   0.291   1.037   3.111 -0.2288  0.3066  0.0207
 2915TIP3    H1 8706   0.334   1.018   3.194  0.8003 -0.6356 -0.7084
 2915TIP3    H2 8707   0.340   1.111   3.074 -2.0758  2.1811  1.2635
 2916TIP3   OH2 8708   5.266   2.139   2.558 -0.0241  0.1887  0.1209
 2916TIP3    H1 8709   5.206   2.212   2.551 -1.2379 -0.8789 -0.9207
 2916TIP3    H2 8710   5.215   2.071   2.603  1.3638  0.2636  1.8534
 2917TIP3   OH2 8711   6.129   3.441   1.310 -0.5676  0.6912 -0.3662
 2917TIP3    H1 8712   6.064   3.493   1.262 -0.7299  0.6339 -0.2101
 2917TIP3    H2 8713   6.077   3.391   1.373 -0.1837  2.0746  1.0792
 2918TIP3   OH2 8714   7.189   3.678   3.846  0.1901  0.0787  0.1448
 2918TIP3    H1 8715   7.096   3.693   3.865 -0.2643  0.1901 -1.9889
 2918TIP3    H2 8716   7.236   3.729   3.912 -1.2494 -1.0983  2.1041
 2919TIP3   OH2 8717   1.860   0.056   3.560  0.2760  0.0208 -0.0192
 2919TIP3    H1 8718   1.820   0.142   3.555 -0.4848 -0.3286 -0.0442
 2919TIP3    H2 8719   1.786  -0.005   3.563  0.8009 -0.6730 -0.8154
 2920TIP3   OH2 8720   6.366   4.656   1.659  0.1189  0.1278 -0.2655
 2920TIP3    H1 8721   6.460   4.643   1.671  0.4680  2.7549  0.0959
 2920TIP3    H2 8722   6.349   4.742   1.696 -1.7935  1.2122 -3.4206
 2921TIP3   OH2 8723   7.724   2.582   2.883  0.3853  0.2376  0.2810
 2921TIP3    H1 8724   7.761   2.545   2.804 -2.0178 -0.8212 -0.3950
 2921TIP3    H2 8725   7.655   2.640   2.852 -0.8398 -0.4848  1.5928
 2922TIP3   OH2 8726   3.842   0.557   6.001  0.3277 -0.3198 -0.3509
 2922TIP3    H1 8727   3.934   0.553   6.028  0.3298 -0.1827 -0.3357
 2922TIP3    H2 8728   3.845   0.600   5.915  0.2777 -0.3184 -0.3519
 2923TIP3   OH2 8729   7.451   2.496   2.236  0.0522 -0.3841 -0.1306
 2923TIP3    H1 8730   7.444   2.410   2.196 -1.1401  0.0399 -0.8807
 2923TIP3    H2 8731   7.365   2.511   2.277  0.5008  0.1246  0.6389
 2924TIP3   OH2 8732   0.134   4.429   0.472 -0.6825 -0.3575  0.4271
 2924TIP3    H1 8733   0.052   4.410   0.426  0.0138  0.2832 -1.1241
 2924TIP3    H2 8734   0.183   4.484   0.411  0.3166  0.4339  1.9116
 2925TIP3   OH2 8735   5.172   2.750   1.234 -0.4452  0.2393  0.1832
 2925TIP3    H1 8736   5.167   2.845   1.245 -0.6324  0.1662  0.7510
 2925TIP3    H2 8737   5.134   2.734   1.148  0.5963  0.7854 -0.3895
 2926TIP3   OH2 8738   3.703   1.373   1.958  0.1397 -0.0025  0.1150
 2926TIP3    H1 8739   3.713   1.337   1.870  0.6964  0.7196 -0.1163
 2926TIP3    H2 8740   3.647   1.450   1.947  0.5577  0.3319  0.3406
 2927TIP3   OH2 8741   0.309   3.059   2.068  0.7275 -0.2160  0.0490
 2927TIP3    H1 8742   0.248   3.104   2.010  0.4564  1.3813  1.5342
 2927TIP3    H2 8743   0.376   3.125   2.088  1.2968 -1.0167  0.8393
 2928TIP3   OH2 8744   4.206   1.328   1.582 -0.7127 -0.0594  0.3908
 2928TIP3    H1 8745   4.268   1.257   1.567  0.4139  0.8818  0.4744
 2928TIP3    H2 8746   4.167   1.344   1.496  1.0424  1.0347 -0.2427
 2929TIP3   OH2 8747   6.455   6.554   2.482  0.3003 -0.3107  0.0595
 2929TIP3    H1 8748   6.481   6.581   2.571  0.8250 -1.4157  0.2473
 2929TIP3    H2 8749   6.416   6.468   2.494  1.1453 -0.8315 -0.8956
 2930TIP3   OH2 8750   0.857   4.320   0.278  0.1588 -0.5207 -0.0670
 2930TIP3    H1 8751   0.772   4.290   0.245  0.5388 -0.4999 -1.0849
 2930TIP3    H2 8752   0.877   4.398   0.226  0.6981 -0.3996  0.3211
 2931TIP3   OH2 8753   5.999   2.240   2.739 -0.0771 -0.4502 -0.1134
 2931TIP3    H1 8754   5.918   2.252   2.788  0.3873  1.6784  0.2072
 2931TIP3    H2 8755   6.052   2.317   2.762  1.8635 -1.6059 -0.6298
 2932TIP3   OH2 8756   4.388   2.728   0.119 -0.4471  0.4434  0.4911
 2932TIP3    H1 8757   4.449   2.783   0.168  0.1657  0.6129 -0.4572
 2932TIP3    H2 8758   4.432   2.643   0.112 -0.3273  0.5647 -0.1943
 2933TIP3   OH2 8759   3.177   7.142   3.373  0.0990 -0.0241 -0.3751
 2933TIP3    H1 8760   3.193   7.052   3.401  1.0679 -0.3573 -1.9188
 2933TIP3    H2 8761   3.091   7.140   3.331  1.1835 -0.8078 -2.6583
 2934TIP3   OH2 8762   3.673   6.747   2.056  0.2231 -0.3315 -0.5490
 2934TIP3    H1 8763   3.675   6.790   2.142 -0.1324 -0.8846 -0.2641
 2934TIP3    H2 8764   3.753   6.694   2.054  0.6294  0.2950 -0.8747
 2935TIP3   OH2 8765   7.132   1.399   2.434  0.0688 -0.2293  0.2018
 2935TIP3    H1 8766   7.040   1.424   2.425  0.3790  1.0316  0.4600
 2935TIP3    H2 8767   7.136   1.308   2.403 -1.2793 -0.3231  0.3108
 2936TIP3   OH2 8768   7.433   1.111   2.459 -0.2821  0.0703 -0.4740
 2936TIP3    H1 8769   7.395   1.146   2.540  0.0848 -2.2277  0.7442
 2936TIP3    H2 8770   7.528   1.113   2.476 -0.2997 -2.4460  0.0555
 2937TIP3   OH2 8771   3.689   3.696   1.131  0.2919 -0.6645 -0.6814
 2937TIP3    H1 8772   3.701   3.607   1.098 -0.1379 -0.9765 -0.0133
 2937TIP3    H2 8773   3.597   3.700   1.156  0.4576 -0.2224 -0.1316
 2938TIP3   OH2 8774   6.729   0.891   1.865  0.3105  0.1518 -0.5687
 2938TIP3    H1 8775   6.730   0.882   1.961 -0.3849  1.4913 -0.4203
 2938TIP3    H2 8776   6.801   0.835   1.835  1.2085  0.5345  0.8155
 2939TIP3   OH2 8777   4.032   2.662   0.993  0.1823  0.7088 -0.0529
 2939TIP3    H1 8778   3.985   2.647   1.075  2.8748 -0.7314  1.3112
 2939TIP3    H2 8779   3.992   2.600   0.932  0.6762 -0.9293  1.2406
 2940TIP3   OH2 8780   6.351   4.529   0.406  0.5423 -0.1819  0.2405
 2940TIP3    H1 8781   6.424   4.467   0.408 -0.9304 -1.9322  1.2019
 2940TIP3    H2 8782   6.354   4.571   0.492  0.0378 -0.7218  0.5250
 2941TIP3   OH2 8783   5.836   0.489   3.179  0.2196 -0.0856 -0.0906
 2941TIP3    H1 8784   5.781   0.412   3.189 -1.1408  0.8412 -0.2123
 2941TIP3    H2 8785   5.855   0.493   3.085  0.7199 -0.5588 -0.0100
 2942TIP3   OH2 8786   5.986   1.909   1.623 -0.0777  0.5196  0.1276
 2942TIP3    H1 8787   6.014   1.997   1.599 -1.3483  0.5890 -1.1991
 2942TIP3    H2 8788   5.894   1.919   1.647 -0.8716 -0.7868 -2.2447
 2943TIP3   OH2 8789   5.779   4.007   0.194 -0.4919 -0.3488  0.7405
 2943TIP3    H1 8790   5.691   4.009   0.155  0.1931 -0.2322 -0.8464
 2943TIP3    H2 8791   5.832   4.061   0.135  0.6080 -0.2637  1.7935
 2944TIP3   OH2 8792   0.958   1.455   2.020 -0.2009 -0.1981  0.0476
 2944TIP3    H1 8793   0.902   1.411   1.957 -1.7032 -0.6261  1.6348
 2944TIP3    H2 8794   0.936   1.548   2.013  0.0839 -0.1709 -0.4840
 2945TIP3   OH2 8795   7.485   1.566   1.264  0.0185  0.3711 -0.8213
 2945TIP3    H1 8796   7.452   1.499   1.203  1.8704  0.7090 -2.2143
 2945TIP3    H2 8797   7.432   1.643   1.245 -2.2873 -0.7118  0.9489
 2946TIP3   OH2 8798   1.425   6.311   5.436 -0.1398  0.4298  0.0008
 2946TIP3    H1 8799   1.376   6.375   5.385  0.3945  1.6473  0.9777
 2946TIP3    H2 8800   1.358   6.260   5.482 -0.5705  0.1474 -0.9276
 2947TIP3   OH2 8801   0.724   2.007   1.257  0.1652 -0.0702  0.0798
 2947TIP3    H1 8802   0.680   2.069   1.199  2.1064  0.6591 -0.6249
 2947TIP3    H2 8803   0.813   2.040   1.266  0.5342 -1.4243  1.6607
 2948TIP3   OH2 8804   6.503   4.177   0.373 -0.2051 -0.4495  0.3001
 2948TIP3    H1 8805   6.467   4.166   0.461 -2.1579  1.4202 -0.1992
 2948TIP3    H2 8806   6.597   4.163   0.382 -0.1656  1.2528  3.0096
 2949TIP3   OH2 8807   2.640   3.538   2.103  0.0800 -0.1459 -0.7084
 2949TIP3    H1 8808   2.658   3.529   2.196 -2.5658 -0.5830 -0.1826
 2949TIP3    H2 8809   2.675   3.623   2.079 -0.3933  0.5444  1.0085
 2950TIP3   OH2 8810   1.471   2.552   1.201 -0.9072  0.2251 -0.5378
 2950TIP3    H1 8811   1.524   2.541   1.122  2.4024  1.7771  1.3646
 2950TIP3    H2 8812   1.472   2.466   1.243 -2.1518 -0.4377 -1.8073
 2951TIP3   OH2 8813   6.507   4.505   1.447  0.1167 -0.0686 -0.2912
 2951TIP3    H1 8814   6.513   4.546   1.533  1.5319  1.9562 -1.3340
 2951TIP3    H2 8815   6.581   4.444   1.444 -0.2321 -0.5223  0.0932
 2952TIP3   OH2 8816   7.177   3.301   1.088  0.0138 -0.3901  0.2798
 2952TIP3    H1 8817   7.267   3.323   1.113  0.5467 -2.4977  0.3078
 2952TIP3    H2 8818   7.185   3.258   1.003 -0.9553 -0.6922  0.3312
 2953TIP3   OH2 8819   6.418   4.459   0.898 -0.4546  0.2228  0.0404
 2953TIP3    H1 8820   6.405   4.497   0.811  0.1836 -0.6122 -0.4207
 2953TIP3    H2 8821   6.347   4.495   0.951 -1.0943  0.3967 -0.9376
 2954TIP3   OH2 8822   6.709   3.542   2.702 -0.1910 -0.6598 -0.0643
 2954TIP3    H1 8823   6.758   3.469   2.740 -1.3515 -0.6833  1.4093
 2954TIP3    H2 8824   6.706   3.607   2.771 -0.9625 -0.0528 -0.6669
 2955TIP3   OH2 8825   3.290   7.199   6.347 -0.1477  0.2428 -0.0547
 2955TIP3    H1 8826   3.285   7.160   6.260  0.1964  2.1397 -0.9547
 2955TIP3    H2 8827   3.345   7.139   6.398  0.2219 -0.5142 -1.3357
 2956TIP3   OH2 8828   6.836   4.071   0.733  0.3083 -0.7325 -0.1870
 2956TIP3    H1 8829   6.905   4.090   0.797 -0.1392 -0.4777  0.2194
 2956TIP3    H2 8830   6.778   4.010   0.778  0.3029 -0.9931 -0.5533
 2957TIP3   OH2 8831   1.553   1.177   2.414  0.5780  0.4849  0.4035
 2957TIP3    H1 8832   1.470   1.141   2.382  0.9445  1.3411 -1.5612
 2957TIP3    H2 8833   1.586   1.110   2.474 -0.5576 -0.7871 -0.3483
 2958TIP3   OH2 8834   6.772   0.815   3.580 -0.1119  0.3787 -0.2754
 2958TIP3    H1 8835   6.690   0.790   3.537 -0.6860 -0.3024  1.1912
 2958TIP3    H2 8836   6.784   0.907   3.558 -1.5733  0.6312 -0.0369
 2959TIP3   OH2 8837   7.221   2.329   2.149  0.3396  0.1636  0.2103
 2959TIP3    H1 8838   7.161   2.338   2.223  0.1745 -0.2310  0.1219
 2959TIP3    H2 8839   7.262   2.244   2.161  1.2458  0.6350  0.5370
 2960TIP3   OH2 8840   0.611   2.535   1.912 -0.0432  0.4150  0.5483
 2960TIP3    H1 8841   0.568   2.596   1.851  0.0734 -0.2844 -0.2464
 2960TIP3    H2 8842   0.701   2.566   1.918  0.3547 -0.4388 -0.8758
 2961TIP3   OH2 8843   0.121   2.388   3.068  0.5759 -0.1574  0.6323
 2961TIP3    H1 8844   0.170   2.428   3.139  0.0478 -1.1818  1.5852
 2961TIP3    H2 8845   0.176   2.315   3.039 -0.2045 -1.1000  1.4763
 2962TIP3   OH2 8846   7.196   0.967   0.612  0.1889  0.6880  0.4179
 2962TIP3    H1 8847   7.141   1.000   0.683 -2.1250 -0.7280 -0.6162
 2962TIP3    H2 8848   7.148   0.891   0.579  1.5961  0.8585 -2.1430
 2963TIP3   OH2 8849   7.427   2.392   1.830 -0.0693  0.7510 -0.0124
 2963TIP3    H1 8850   7.343   2.347   1.828  0.7460 -0.8209  0.3642
 2963TIP3    H2 8851   7.429   2.442   1.748  0.4543 -2.6279 -2.1771
 2964TIP3   OH2 8852   2.373   7.037   4.754  0.1413  0.4559 -0.1239
 2964TIP3    H1 8853   2.409   7.042   4.843  0.9594  1.2812 -0.4957
 2964TIP3    H2 8854   2.419   7.105   4.705 -0.9769  0.6413 -0.9545
 2965TIP3   OH2 8855   7.481   3.154   1.391 -0.0213 -0.7351  0.0076
 2965TIP3    H1 8856   7.505   3.177   1.301  0.3168 -4.5686 -0.9846
 2965TIP3    H2 8857   7.393   3.116   1.383 -1.8540  2.8185  1.9945
 2966TIP3   OH2 8858   6.223   0.426   5.022  0.1248  0.1852  0.3871
 2966TIP3    H1 8859   6.152   0.433   5.086 -0.5999 -1.7310 -0.1612
 2966TIP3    H2 8860   6.181   0.386   4.945  1.8644 -1.3794  0.2115
 2967TIP3   OH2 8861   2.307   6.881   5.983 -0.5272 -0.4167  0.4192
 2967TIP3    H1 8862   2.345   6.793   5.984  2.1772  0.6903  0.0887
 2967TIP3    H2 8863   2.345   6.924   6.059  1.4392  1.7435 -1.7325
 2968TIP3   OH2 8864   7.473   1.925   0.075  0.1309 -0.3003 -0.1372
 2968TIP3    H1 8865   7.425   1.978   0.139  1.7641  1.0550  0.0348
 2968TIP3    H2 8866   7.547   1.889   0.124  0.1014 -1.1596 -0.7143
 2969TIP3   OH2 8867   2.508   7.139   5.951 -0.4496  0.1727  0.2144
 2969TIP3    H1 8868   2.491   7.081   5.877  1.3612  0.8795 -0.7846
 2969TIP3    H2 8869   2.505   7.082   6.028  0.7200 -1.1279 -0.6930
 2970TIP3   OH2 8870   0.687   3.379   2.315  0.2548  0.1039  0.4949
 2970TIP3    H1 8871   0.693   3.369   2.410  2.5244  0.3989  0.4023
 2970TIP3    H2 8872   0.642   3.462   2.302  0.2260  0.2122  1.3045
 2971TIP3   OH2 8873   6.150   1.291   3.460 -0.9188  0.4288 -0.0964
 2971TIP3    H1 8874   6.211   1.339   3.517  0.1488 -0.8738 -0.1135
 2971TIP3    H2 8875   6.180   1.310   3.371  1.7255 -2.9653 -0.0657
 2972TIP3   OH2 8876   2.136   6.172   5.788 -0.2214  0.3444  1.2130
 2972TIP3    H1 8877   2.127   6.078   5.774 -0.9146  0.1417  2.9312
 2972TIP3    H2 8878   2.230   6.187   5.795 -0.1259 -0.2616  1.2107
 2973TIP3   OH2 8879   5.043   4.152   3.113 -0.2869  0.1236 -0.1235
 2973TIP3    H1 8880   5.084   4.234   3.088 -1.1757  0.4120 -0.6424
 2973TIP3    H2 8881   5.015   4.112   3.031 -1.0688 -0.0561  0.2228
 2974TIP3   OH2 8882   0.467   3.211   0.764  0.2712  0.0977 -0.3869
 2974TIP3    H1 8883   0.442   3.197   0.673  0.2341  1.0013 -0.5256
 2974TIP3    H2 8884   0.533   3.280   0.760  2.8191 -2.2784 -0.0212
 2975TIP3   OH2 8885   7.640   3.669   0.722 -0.1631  0.2282  0.0675
 2975TIP3    H1 8886   7.589   3.622   0.788 -0.4388  0.5066  0.0546
 2975TIP3    H2 8887   7.709   3.608   0.697  0.8000  0.6290  1.6574
 2976TIP3   OH2 8888   1.614   5.934   5.124  0.0638  0.2375  0.1240
 2976TIP3    H1 8889   1.690   5.966   5.075 -1.1848  3.1378 -0.0205
 2976TIP3    H2 8890   1.539   5.956   5.069 -1.1391  0.7471  1.9107
 2977TIP3   OH2 8891   2.647   5.660   6.090  0.3310 -0.2909 -0.2174
 2977TIP3    H1 8892   2.692   5.742   6.071 -1.1031  0.7734  0.8491
 2977TIP3    H2 8893   2.585   5.683   6.159  0.2715 -2.3904  0.4582
 2978TIP3   OH2 8894   2.732   6.958   1.562 -0.2352  0.0380 -0.0527
 2978TIP3    H1 8895   2.761   6.931   1.475 -2.1429 -0.5822 -0.5291
 2978TIP3    H2 8896   2.795   7.025   1.589  0.4056  0.2129 -1.9027
 2979TIP3   OH2 8897   6.956   2.067   1.910  0.3201 -0.1510 -0.2071
 2979TIP3    H1 8898   6.917   2.143   1.953  0.9182 -0.3336  0.6852
 2979TIP3    H2 8899   6.971   2.004   1.981  0.4517 -0.8365 -0.8342
 2980TIP3   OH2 8900   6.730   3.719   2.936 -0.6318 -0.3440  0.3771
 2980TIP3    H1 8901   6.750   3.812   2.943 -0.4381 -0.3482 -0.0904
 2980TIP3    H2 8902   6.814   3.675   2.947 -0.9940 -0.5576  2.4595
 2981TIP3   OH2 8903   0.634   3.925   0.620  0.1279  0.1228 -1.1568
 2981TIP3    H1 8904   0.631   3.948   0.713 -2.4116  1.4793 -1.5368
 2981TIP3    H2 8905   0.703   3.859   0.614  0.2069 -0.1157  1.7185
 2982TIP3   OH2 8906   0.743   6.051   5.590 -0.2475  0.0336  0.4616
 2982TIP3    H1 8907   0.654   6.076   5.564  0.3835  2.4825  0.5806
 2982TIP3    H2 8908   0.733   5.962   5.623 -2.7185  0.3631  0.7353
 2983TIP3   OH2 8909   7.482   4.315   1.762 -0.3891 -0.2030  0.0821
 2983TIP3    H1 8910   7.506   4.271   1.844  0.1107  1.1308  0.6719
 2983TIP3    H2 8911   7.500   4.250   1.694 -1.7064 -1.6579  1.0965
 2984TIP3   OH2 8912   5.531   2.434   1.585 -0.4569  0.0663 -1.0059
 2984TIP3    H1 8913   5.550   2.527   1.598  0.0530 -0.1301 -0.3241
 2984TIP3    H2 8914   5.447   2.433   1.539 -1.7808  0.8012  1.2991
 2985TIP3   OH2 8915   0.122   3.494   3.015 -0.8975  0.1534 -0.7033
 2985TIP3    H1 8916   0.089   3.516   3.102 -0.4203  2.5695 -1.1142
 2985TIP3    H2 8917   0.176   3.569   2.990 -0.0850 -1.0368 -2.6035
 2986TIP3   OH2 8918   3.345   5.766   5.515 -0.0673  0.6686  0.2982
 2986TIP3    H1 8919   3.257   5.798   5.495 -0.0326  0.9821  0.6278
 2986TIP3    H2 8920   3.403   5.822   5.462 -0.1232 -0.2464 -0.7438
 2987TIP3   OH2 8921   0.431   2.940   1.163 -0.6261  0.1865  0.3658
 2987TIP3    H1 8922   0.412   2.869   1.224 -1.2708 -0.4610 -0.5707
 2987TIP3    H2 8923   0.467   2.896   1.086 -1.2394  0.8598 -0.3066
 2988TIP3   OH2 8924   6.580   4.723   0.184 -0.1205  0.4938  0.2639
 2988TIP3    H1 8925   6.500   4.768   0.212 -1.1080 -1.1128  0.0678
 2988TIP3    H2 8926   6.580   4.731   0.089 -2.0108 -2.6625 -0.0689
 2989TIP3   OH2 8927   0.607   2.837   1.570  0.5922  0.6650 -0.5908
 2989TIP3    H1 8928   0.692   2.816   1.533  0.1090  1.1178 -2.0048
 2989TIP3    H2 8929   0.599   2.932   1.561  0.5354  0.8135  0.8690
 2990TIP3   OH2 8930   5.058   0.735   2.602 -0.7962  0.3893  0.0838
 2990TIP3    H1 8931   5.012   0.804   2.555 -0.3365  0.6631  0.0403
 2990TIP3    H2 8932   5.031   0.654   2.558  0.1962  0.6981 -1.1018
 2991TIP3   OH2 8933   1.712   5.144   3.584  0.2162  0.0926  0.7195
 2991TIP3    H1 8934   1.798   5.185   3.590 -0.6779  2.5022 -1.9251
 2991TIP3    H2 8935   1.652   5.210   3.620 -1.1283  0.7385 -2.5648
 2992TIP3   OH2 8936   6.728   2.064   2.111 -0.2602  0.4104  0.1623
 2992TIP3    H1 8937   6.774   1.990   2.149 -0.8102 -0.0212 -0.0095
 2992TIP3    H2 8938   6.796   2.131   2.100  0.5605 -0.5931 -1.0780
 2993TIP3   OH2 8939   0.175   2.971   2.297 -0.1518  0.5476  0.2658
 2993TIP3    H1 8940   0.088   2.989   2.332 -1.8854 -1.9200 -2.4950
 2993TIP3    H2 8941   0.184   3.032   2.224  0.1403  0.3497  0.1358
 2994TIP3   OH2 8942   0.482   2.330   4.043 -0.1894 -0.2911 -0.4641
 2994TIP3    H1 8943   0.400   2.325   3.994 -0.7649  0.0471  0.4543
 2994TIP3    H2 8944   0.462   2.288   4.127  1.0351 -1.6666 -0.8335
 2995TIP3   OH2 8945   1.006   2.730   2.527 -0.0064 -0.4885 -0.4358
 2995TIP3    H1 8946   0.980   2.779   2.605 -0.5693  0.5259 -1.2525
 2995TIP3    H2 8947   0.960   2.772   2.455  2.0882 -0.1200 -1.6052
 2996TIP3   OH2 8948   1.163   3.560   3.611  0.4619 -0.1854  0.3477
 2996TIP3    H1 8949   1.240   3.575   3.556  0.1258 -0.9268 -0.3240
 2996TIP3    H2 8950   1.100   3.626   3.583  0.4908 -0.2091  0.2303
 2997TIP3   OH2 8951   6.733   3.453   3.700  0.2750 -0.1809  0.0983
 2997TIP3    H1 8952   6.677   3.439   3.777  1.1452 -0.2307  0.7306
 2997TIP3    H2 8953   6.672   3.475   3.630 -0.6082 -1.0542  0.5759
 2998TIP3   OH2 8954   1.556   3.249   3.739  0.1680 -0.0049  0.2354
 2998TIP3    H1 8955   1.648   3.248   3.766  0.5724  0.7892 -1.0462
 2998TIP3    H2 8956   1.556   3.208   3.652 -0.6362  0.2941  0.0897
 2999TIP3   OH2 8957   1.035   4.040   3.229 -0.4820 -0.4785 -0.9014
 2999TIP3    H1 8958   0.940   4.052   3.222 -0.5460  1.0591  1.7705
 2999TIP3    H2 8959   1.046   3.948   3.252 -1.3908 -0.4729 -0.4071
 3000TIP3   OH2 8960   6.863   4.298   4.184  0.1876  0.4870 -0.1689
 3000TIP3    H1 8961   6.818   4.337   4.259  1.0515  1.5605 -0.1900
 3000TIP3    H2 8962   6.808   4.320   4.109 -1.1863 -1.4180  0.2460
 3001TIP3   OH2 8963   7.449   2.621   3.884  0.3290 -0.4356 -0.4610
 3001TIP3    H1 8964   7.375   2.605   3.943  0.6057  1.2679  0.3914
 3001TIP3    H2 8965   7.524   2.581   3.928  0.2317 -0.5850 -0.4317
 3002TIP3   OH2 8966   3.305   5.895   0.390  0.7186 -0.2553 -0.1235
 3002TIP3    H1 8967   3.277   5.855   0.308 -2.3913 -0.0152  0.7526
 3002TIP3    H2 8968   3.309   5.989   0.371  0.6192 -0.2566 -0.1481
 3003TIP3   OH2 8969   0.304   4.536   2.712  0.4718 -0.1907 -0.6980
 3003TIP3    H1 8970   0.258   4.454   2.728 -1.4913  1.0922  0.5205
 3003TIP3    H2 8971   0.290   4.587   2.792  0.3419  1.9069 -2.0136
 3004TIP3   OH2 8972   0.340   3.150   3.111  0.0388  0.6535  0.0925
 3004TIP3    H1 8973   0.380   3.075   3.067  0.5255  2.0457 -1.8889
 3004TIP3    H2 8974   0.258   3.165   3.063  1.4107  3.2749 -1.5369
 3005TIP3   OH2 8975   0.795   4.063   3.994 -0.0115 -0.1678 -0.4898
 3005TIP3    H1 8976   0.888   4.053   4.012 -0.1589  1.2918  1.2521
 3005TIP3    H2 8977   0.764   3.974   3.977  1.4186 -0.8518  0.3496
 3006TIP3   OH2 8978   7.734   3.065   1.426 -0.1176 -0.0777 -0.2060
 3006TIP3    H1 8979   7.755   3.137   1.367  0.2656  3.1013  3.5925
 3006TIP3    H2 8980   7.642   3.079   1.449 -0.5764 -1.9180 -0.8408
 3007TIP3   OH2 8981   3.453   0.275   6.192  0.2334 -0.4541  0.2990
 3007TIP3    H1 8982   3.364   0.246   6.175 -0.1093  1.6820 -1.7554
 3007TIP3    H2 8983   3.446   0.334   6.267 -0.0720 -0.4140  0.2371
 3008TIP3   OH2 8984   7.477   3.231   2.193 -0.4863  0.0925  0.2407
 3008TIP3    H1 8985   7.476   3.318   2.234 -2.0006  0.7084 -1.0513
 3008TIP3    H2 8986   7.426   3.176   2.253  1.4218 -0.2052  1.6369
 3009TIP3   OH2 8987   1.675   4.256   2.009  0.4602  0.1758 -0.3504
 3009TIP3    H1 8988   1.595   4.229   2.054  0.3327  0.3301 -0.4837
 3009TIP3    H2 8989   1.664   4.223   1.920  0.2227  0.8247 -0.5647
 3010TIP3   OH2 8990   6.342   3.233   4.543  0.1950  0.1347 -0.5118
 3010TIP3    H1 8991   6.381   3.234   4.456  1.4216 -2.6826 -0.0580
 3010TIP3    H2 8992   6.410   3.196   4.599 -1.4369 -0.3842  1.1825
 3011TIP3   OH2 8993   7.002   3.905   0.219  0.4028 -0.1366 -0.2182
 3011TIP3    H1 8994   6.921   3.891   0.267 -0.9435  2.3458 -1.6709
 3011TIP3    H2 8995   6.986   3.869   0.132  0.7881  0.5285 -0.5682
 3012TIP3   OH2 8996   1.369   4.775   2.113 -0.6884  0.0113  0.0308
 3012TIP3    H1 8997   1.403   4.861   2.138  1.1354 -0.4042 -0.9435
 3012TIP3    H2 8998   1.303   4.794   2.046  0.3700  0.6011 -0.8537
 3013TIP3   OH2 8999   7.740   2.185   5.540  0.0571  0.4161  0.7485
 3013TIP3    H1 9000   7.774   2.211   5.454 -0.1343 -1.8783 -0.0454
 3013TIP3    H2 9001   7.758   2.260   5.596  1.3894  1.4312 -0.9762
 3014TIP3   OH2 9002   0.102   2.887   3.670  0.0387 -0.3843  0.1736
 3014TIP3    H1 9003   0.142   2.928   3.747  0.8540 -0.7875 -0.0254
 3014TIP3    H2 9004   0.176   2.872   3.610 -0.4131 -1.1442 -0.2015
 3015TIP3   OH2 9005   1.068   3.797   2.635 -0.7405 -0.3083  0.1498
 3015TIP3    H1 9006   1.055   3.827   2.724 -0.5909 -0.7177  0.3102
 3015TIP3    H2 9007   1.160   3.813   2.616 -1.1093  1.2113 -0.4716
 3016TIP3   OH2 9008   1.667   2.277   4.101  0.3843  0.5293  0.2291
 3016TIP3    H1 9009   1.752   2.293   4.059  0.9563 -0.2238  1.0803
 3016TIP3    H2 9010   1.649   2.358   4.149  2.0283 -0.3173  2.3935
 3017TIP3   OH2 9011   7.203   2.504   2.520 -0.1811 -0.9035  0.5615
 3017TIP3    H1 9012   7.198   2.555   2.601  0.0176  0.0641 -0.0238
 3017TIP3    H2 9013   7.292   2.468   2.519  0.5840  0.9541 -0.3213
 3018TIP3   OH2 9014   6.762   3.343   4.922 -0.8541 -0.1116 -0.0236
 3018TIP3    H1 9015   6.690   3.292   4.960  0.1655 -2.4698 -1.1608
 3018TIP3    H2 9016   6.841   3.304   4.960 -0.0714  0.8627 -0.6501
 3019TIP3   OH2 9017   6.980   3.674   1.581 -0.2692 -0.3365  0.3784
 3019TIP3    H1 9018   7.029   3.610   1.633  0.4752 -0.4111 -0.3850
 3019TIP3    H2 9019   6.888   3.655   1.599 -0.0108  0.0734  2.1594
 3020TIP3   OH2 9020   0.457   3.114   3.912 -0.5620  0.5051  0.1854
 3020TIP3    H1 9021   0.479   3.048   3.847  0.1638  0.0048  0.9204
 3020TIP3    H2 9022   0.392   3.073   3.968  0.1648  0.2644  0.8677
 3021TIP3   OH2 9023   0.144   2.945   1.537  0.4693  0.4386 -0.1362
 3021TIP3    H1 9024   0.124   2.866   1.487  0.9546  0.3082 -0.1251
 3021TIP3    H2 9025   0.075   3.007   1.512  0.6647  0.3503 -0.9053
 3022TIP3   OH2 9026   1.158   4.310   4.714 -0.1237 -0.0998  0.0728
 3022TIP3    H1 9027   1.183   4.230   4.669  0.2708 -0.8466  1.5855
 3022TIP3    H2 9028   1.074   4.290   4.754 -0.1115  0.3016  0.3052
 3023TIP3   OH2 9029   2.588   3.820   1.782  0.3888  0.8198 -0.4979
 3023TIP3    H1 9030   2.546   3.866   1.854  0.8570 -0.6560  0.7255
 3023TIP3    H2 9031   2.673   3.793   1.816 -0.6432 -2.6895 -0.4856
 3024TIP3   OH2 9032   0.556   4.454   2.899  0.8473  0.5259 -0.2203
 3024TIP3    H1 9033   0.463   4.468   2.882  0.9995  1.2998 -0.4700
 3024TIP3    H2 9034   0.572   4.497   2.982  1.5978  3.0982 -1.6308
 3025TIP3   OH2 9035   0.718   2.754   3.700  0.2663  0.5368  0.3772
 3025TIP3    H1 9036   0.667   2.683   3.660  0.1913 -1.2779  3.4934
 3025TIP3    H2 9037   0.801   2.752   3.653  1.1688 -3.3117  1.9278
 3026TIP3   OH2 9038   1.892   2.792   4.274  0.0367  0.9480  0.0821
 3026TIP3    H1 9039   1.887   2.885   4.250 -1.5334  1.3840  1.9239
 3026TIP3    H2 9040   1.804   2.771   4.305  0.7782 -0.7523  1.1047
 3027TIP3   OH2 9041   2.087   2.117   3.127  0.1789  0.4089 -1.1329
 3027TIP3    H1 9042   2.168   2.139   3.081 -0.0745  2.7836 -0.4907
 3027TIP3    H2 9043   2.021   2.174   3.089 -0.9165 -0.5165 -0.6680
 3028TIP3   OH2 9044   1.011   2.498   1.470 -0.0863 -0.1411 -0.7915
 3028TIP3    H1 9045   1.050   2.529   1.388 -0.1179  0.3040 -0.6391
 3028TIP3    H2 9046   0.922   2.533   1.469 -0.6911 -1.6541 -1.4174
 3029TIP3   OH2 9047   7.621   4.718   0.978  0.5803  0.6061  0.0272
 3029TIP3    H1 9048   7.617   4.813   0.989 -2.4771  0.6440 -0.9584
 3029TIP3    H2 9049   7.543   4.685   1.023  0.5314 -1.2483 -1.3498
 3030TIP3   OH2 9050   2.073   4.264   5.594 -0.2456  0.4332 -0.5754
 3030TIP3    H1 9051   2.168   4.257   5.605 -0.4068  0.8201  1.3479
 3030TIP3    H2 9052   2.038   4.188   5.641 -0.9504  1.1704  0.1060
 3031TIP3   OH2 9053   6.754   4.228   0.152 -0.1198 -0.3648 -0.2506
 3031TIP3    H1 9054   6.794   4.181   0.225  0.0088 -0.6445 -0.4959
 3031TIP3    H2 9055   6.801   4.195   0.075 -0.5200 -0.3607 -0.4956
 3032TIP3   OH2 9056   0.562   4.259   2.268  0.6766 -0.1026  0.4856
 3032TIP3    H1 9057   0.592   4.259   2.359  0.9145 -1.0523  0.4193
 3032TIP3    H2 9058   0.467   4.268   2.273  0.5830 -1.2550  0.8794
 3033TIP3   OH2 9059   7.795   5.028   2.976 -0.1613 -0.2816  0.0244
 3033TIP3    H1 9060   7.744   4.968   2.922  0.2188 -1.5768  1.0543
 3033TIP3    H2 9061   7.734   5.096   3.002 -0.6793 -0.3741 -0.9424
 3034TIP3   OH2 9062   0.370   3.804   2.791  0.6414  0.0799 -0.0104
 3034TIP3    H1 9063   0.406   3.782   2.705  2.1666  0.4292  0.5146
 3034TIP3    H2 9064   0.440   3.853   2.834  0.1794 -0.7476  1.7167
 3035TIP3   OH2 9065   7.041   3.107   2.687  0.4717  0.6182 -0.0039
 3035TIP3    H1 9066   7.021   3.199   2.701 -2.8538  0.0354 -0.4124
 3035TIP3    H2 9067   7.021   3.092   2.595  1.3954 -0.4208 -0.0446
 3036TIP3   OH2 9068   1.394   4.660   4.059  0.3565 -0.0739  0.5156
 3036TIP3    H1 9069   1.360   4.654   4.149  0.6876 -0.3426  0.6212
 3036TIP3    H2 9070   1.487   4.639   4.066  0.3626 -0.2001  0.0930
 3037TIP3   OH2 9071   6.718   2.679   5.881 -0.1571  0.3407 -0.5184
 3037TIP3    H1 9072   6.629   2.711   5.896  0.3255  1.3639  0.2243
 3037TIP3    H2 9073   6.752   2.662   5.969  0.0837 -0.8832 -0.8378
 3038TIP3   OH2 9074   0.909   2.928   0.369 -0.7472  0.4283  0.0508
 3038TIP3    H1 9075   0.983   2.900   0.422 -0.0487  0.5283 -0.8513
 3038TIP3    H2 9076   0.916   2.876   0.289 -1.8368  0.2122  0.0801
 3039TIP3   OH2 9077   0.620   4.002   0.876 -0.3808  0.1864 -0.4716
 3039TIP3    H1 9078   0.694   3.952   0.912 -0.1191  0.4772 -0.5977
 3039TIP3    H2 9079   0.545   3.976   0.929  0.1785  1.2963  0.8800
 3040TIP3   OH2 9080   7.293   3.771   2.309  0.0224  0.0059  0.2886
 3040TIP3    H1 9081   7.208   3.815   2.305  0.7524  1.4156  0.1381
 3040TIP3    H2 9082   7.357   3.842   2.306  1.2270 -1.0918 -0.4802
 3041TIP3   OH2 9083   1.408   5.652   5.984  0.5306  0.0985 -0.5590
 3041TIP3    H1 9084   1.343   5.713   5.951  1.3757  1.3698  0.0966
 3041TIP3    H2 9085   1.477   5.707   6.020  1.3686 -1.2395 -0.0679
 3042TIP3   OH2 9086   7.784   3.316   2.099  0.7402 -0.0750  0.3723
 3042TIP3    H1 9087   7.810   3.357   2.182  1.4217  1.3042 -0.4939
 3042TIP3    H2 9088   7.718   3.251   2.123 -0.4956  1.6688  1.7723
 3043TIP3   OH2 9089   3.355   4.161   2.987 -0.6815  0.1549 -0.3641
 3043TIP3    H1 9090   3.386   4.193   2.902  1.5853  0.7046  0.6160
 3043TIP3    H2 9091   3.356   4.239   3.043 -1.4727 -0.3438  0.3561
 3044TIP3   OH2 9092   7.735   3.350   1.674 -0.0227  0.4933  0.2945
 3044TIP3    H1 9093   7.740   3.352   1.578  0.0471  1.8114  0.3136
 3044TIP3    H2 9094   7.651   3.390   1.694 -0.6959 -1.1206  0.7452
 3045TIP3   OH2 9095   0.591   4.091   4.749 -0.4723 -0.2274 -0.2654
 3045TIP3    H1 9096   0.609   4.033   4.823 -1.8861  1.0747  1.1534
 3045TIP3    H2 9097   0.580   4.032   4.674 -0.1478 -1.6591  0.7847
 3046TIP3   OH2 9098   3.320   0.101   3.508 -0.0365  0.3465  0.0269
 3046TIP3    H1 9099   3.303   0.010   3.485  1.4089 -0.1124  0.7699
 3046TIP3    H2 9100   3.359   0.139   3.429  0.9512 -0.1214  0.2865
 3047TIP3   OH2 9101   1.406   3.562   2.547  0.0771 -0.1433 -0.0143
 3047TIP3    H1 9102   1.415   3.468   2.530  1.4467 -0.2243  0.9877
 3047TIP3    H2 9103   1.397   3.568   2.643  0.0767  0.7516 -0.0658
 3048TIP3   OH2 9104   7.705   2.268   3.410  0.0130 -0.0643  0.0403
 3048TIP3    H1 9105   7.734   2.358   3.418  1.3978 -0.4934 -0.1329
 3048TIP3    H2 9106   7.705   2.234   3.499  0.7780 -0.2983 -0.0523
 3049TIP3   OH2 9107   7.198   3.230   3.425  0.0364  0.1908  0.2188
 3049TIP3    H1 9108   7.185   3.321   3.397  0.6229  0.1088 -0.3390
 3049TIP3    H2 9109   7.212   3.235   3.519  1.3181  0.8103  0.0042
 3050TIP3   OH2 9110   6.921   3.546   3.003 -0.1003  0.2803  0.1484
 3050TIP3    H1 9111   7.015   3.561   3.010 -0.0732  0.4791 -0.5626
 3050TIP3    H2 9112   6.901   3.482   3.071  0.2869  1.3756  1.3013
 3051TIP3   OH2 9113   7.031   3.044   1.818 -0.0245 -0.6959  0.3776
 3051TIP3    H1 9114   7.083   3.113   1.860  0.1277  0.3022 -1.3527
 3051TIP3    H2 9115   7.023   2.975   1.884  1.4014  0.1971  1.5123
 3052TIP3   OH2 9116   7.217   0.736   1.264 -0.0044 -0.1376 -0.2333
 3052TIP3    H1 9117   7.172   0.820   1.270 -1.2399 -0.7162 -1.1983
 3052TIP3    H2 9118   7.234   0.724   1.171 -1.5892 -1.8537 -0.3209
 3053TIP3   OH2 9119   1.336   4.836   2.893  0.5783 -0.0540 -0.1637
 3053TIP3    H1 9120   1.257   4.859   2.942  0.6715 -0.2492  0.0815
 3053TIP3    H2 9121   1.325   4.879   2.808  1.0223  1.4303  0.5050
 3054TIP3   OH2 9122   7.503   0.248   3.391  0.2387  0.4645  0.1205
 3054TIP3    H1 9123   7.510   0.228   3.485 -0.8807 -0.4429  0.0115
 3054TIP3    H2 9124   7.416   0.217   3.366  1.3121 -1.1596 -1.6769
 3055TIP3   OH2 9125   6.954   3.065   2.426  0.4865 -0.4204 -0.0153
 3055TIP3    H1 9126   6.859   3.073   2.429  0.5209 -0.0031  0.0247
 3055TIP3    H2 9127   6.978   3.095   2.338  0.6907  0.7326  0.4182
 3056TIP3   OH2 9128   1.675   2.030   3.195 -0.0941  0.2968 -0.0442
 3056TIP3    H1 9129   1.618   1.954   3.202 -1.0035  0.9944  0.2686
 3056TIP3    H2 9130   1.715   2.023   3.108  0.8358 -1.2184  0.4948
 3057TIP3   OH2 9131   0.233   3.401   1.216  0.1139 -0.1723 -0.2468
 3057TIP3    H1 9132   0.299   3.335   1.236  0.3652 -0.1182 -0.8910
 3057TIP3    H2 9133   0.267   3.446   1.139  0.1431  0.9824  0.4237
 3058TIP3   OH2 9134   0.423   2.484   1.578  0.1520  0.3680 -0.1623
 3058TIP3    H1 9135   0.409   2.575   1.550 -1.1194  0.2384  0.0250
 3058TIP3    H2 9136   0.429   2.490   1.674  1.6995  0.4530 -0.2535
 3059TIP3   OH2 9137   2.084   3.973   3.353 -0.1250 -0.1347 -0.3689
 3059TIP3    H1 9138   2.087   3.893   3.405  0.9942 -0.5435 -1.0322
 3059TIP3    H2 9139   2.007   4.019   3.384  0.3100 -0.5426  1.3986
 3060TIP3   OH2 9140   0.287   3.454   2.067  0.4636 -0.2573 -0.5823
 3060TIP3    H1 9141   0.225   3.389   2.034  1.2030 -1.3477  0.1281
 3060TIP3    H2 9142   0.365   3.403   2.088  1.0858  0.8861 -0.1028
 3061TIP3   OH2 9143   7.786   3.923   0.711  0.3370 -0.1100 -0.1459
 3061TIP3    H1 9144   7.728   3.877   0.772 -1.1410  1.8177 -0.0165
 3061TIP3    H2 9145   7.750   3.904   0.624  0.5086 -0.2709 -0.1806
 3062TIP3   OH2 9146   4.649   5.395   3.132 -0.2715  0.3312  0.7510
 3062TIP3    H1 9147   4.601   5.424   3.210 -0.0537  0.0392  0.9979
 3062TIP3    H2 9148   4.707   5.326   3.165  1.2872  1.5841  0.7209
 3063TIP3   OH2 9149   1.929   4.356   1.338  0.1193  0.0209 -0.3036
 3063TIP3    H1 9150   1.955   4.276   1.290  0.5985  0.4207 -0.7218
 3063TIP3    H2 9151   1.834   4.358   1.331 -0.0452 -1.4491  1.2105
 3064TIP3   OH2 9152   1.570   4.208   3.066 -0.2361  0.1455  0.1166
 3064TIP3    H1 9153   1.626   4.135   3.039  0.3802  1.4175 -2.2071
 3064TIP3    H2 9154   1.493   4.202   3.009 -0.2019  1.2794 -0.0557
 3065TIP3   OH2 9155   1.507   2.574   2.414 -0.0484  0.2609 -0.2103
 3065TIP3    H1 9156   1.446   2.647   2.419  0.8222  0.9486  0.5799
 3065TIP3    H2 9157   1.533   2.558   2.504 -1.3801 -2.0444 -0.1908
 3066TIP3   OH2 9158   2.320   2.421   5.322  0.3105  0.1598 -0.9863
 3066TIP3    H1 9159   2.398   2.369   5.303  0.6429  0.0528  0.6069
 3066TIP3    H2 9160   2.349   2.512   5.314  0.3417  0.1137 -1.3949
 3067TIP3   OH2 9161   6.413   3.114   3.086  0.3921  0.1300  0.0543
 3067TIP3    H1 9162   6.472   3.045   3.116 -2.4208 -2.1587  0.4913
 3067TIP3    H2 9163   6.402   3.098   2.992  1.9105  1.7012 -0.4161
 3068TIP3   OH2 9164   6.593   2.115   2.533 -0.3769 -0.2093  0.0260
 3068TIP3    H1 9165   6.570   2.049   2.599 -0.6180  0.5310  0.6906
 3068TIP3    H2 9166   6.672   2.080   2.491 -0.3614 -0.8072  0.5411
 3069TIP3   OH2 9167   7.679   3.566   2.508 -0.7401  0.2070 -0.0872
 3069TIP3    H1 9168   7.677   3.656   2.540  1.0456 -0.2516  1.3926
 3069TIP3    H2 9169   7.640   3.515   2.579 -0.3220 -0.3675 -0.2707
 3070TIP3   OH2 9170   0.549   2.609   3.570 -0.4074  0.1959  0.0911
 3070TIP3    H1 9171   0.513   2.537   3.622  0.3108  0.8511  1.5262
 3070TIP3    H2 9172   0.473   2.663   3.549 -0.5391  0.5639  1.4818
 3071TIP3   OH2 9173   2.352   2.731   2.409  0.1946 -0.0802  0.0655
 3071TIP3    H1 9174   2.330   2.638   2.401 -1.9145  0.3749  0.3779
 3071TIP3    H2 9175   2.443   2.731   2.439  0.3462 -2.0323 -0.3046
 3072TIP3   OH2 9176   6.867   4.419   0.679  0.3249 -0.0890 -0.5282
 3072TIP3    H1 9177   6.889   4.509   0.706  2.2008 -0.6582 -0.0889
 3072TIP3    H2 9178   6.951   4.373   0.681 -0.8392 -2.1987  0.5555
 3073TIP3   OH2 9179   7.568   5.115   2.442  0.3523 -0.0012 -0.2993
 3073TIP3    H1 9180   7.565   5.026   2.407 -0.6226  0.2361 -0.8349
 3073TIP3    H2 9181   7.632   5.160   2.387  0.3626 -0.1915 -0.4446
 3074TIP3   OH2 9182   5.939   4.618   0.326 -0.6078 -0.5854 -0.2539
 3074TIP3    H1 9183   6.014   4.623   0.267  1.5830  0.5777  2.4859
 3074TIP3    H2 9184   5.900   4.706   0.323 -1.9792 -1.2214 -1.7633
 3075TIP3   OH2 9185   1.778   3.150   3.005 -0.0540 -0.0586  0.3115
 3075TIP3    H1 9186   1.869   3.129   3.026 -0.4827 -0.9172  1.3409
 3075TIP3    H2 9187   1.782   3.189   2.917  1.2680 -0.3207  0.2473
 3076TIP3   OH2 9188   0.132   3.780   2.994  0.1951 -0.6745  0.0314
 3076TIP3    H1 9189   0.168   3.817   2.913  1.0997  1.4849  1.3762
 3076TIP3    H2 9190   0.060   3.724   2.965  0.5825 -0.0243 -2.2675
 3077TIP3   OH2 9191   0.031   4.516   2.592  0.2497  0.0741  0.1256
 3077TIP3    H1 9192   0.053   4.567   2.670 -0.0829  0.5211 -0.0682
 3077TIP3    H2 9193   0.083   4.436   2.600 -0.1102 -0.0782  1.0246
 3078TIP3   OH2 9194   0.493   2.727   2.336 -0.7225  0.6444  0.3818
 3078TIP3    H1 9195   0.479   2.778   2.256  2.0791  0.1914 -0.4511
 3078TIP3    H2 9196   0.462   2.785   2.406 -4.4979  0.5076 -1.0399
 3079TIP3   OH2 9197   7.082   3.003   3.154  0.3220  0.2630  0.0283
 3079TIP3    H1 9198   7.068   2.988   3.061  0.5889  0.2679 -0.0119
 3079TIP3    H2 9199   7.016   3.069   3.178  0.0676  0.0554 -0.0947
 3080TIP3   OH2 9200   6.029   4.079   1.543  0.1296  0.7365  0.3060
 3080TIP3    H1 9201   6.064   4.166   1.564 -2.5779  1.6387  1.2556
 3080TIP3    H2 9202   5.959   4.096   1.480 -1.4470 -0.5675  1.6546
 3081TIP3   OH2 9203   7.634   2.017   2.771  0.6371  0.3438 -0.3910
 3081TIP3    H1 9204   7.721   1.993   2.801  0.7399 -0.2017 -1.0962
 3081TIP3    H2 9205   7.577   1.949   2.806  0.1677  1.8726  1.8640
 3082TIP3   OH2 9206   0.530   3.758   3.517 -0.0211 -0.2294 -0.2103
 3082TIP3    H1 9207   0.623   3.734   3.514 -0.2925 -1.5372  1.3126
 3082TIP3    H2 9208   0.508   3.756   3.610 -1.0297  2.2766 -0.3448
 3083TIP3   OH2 9209   0.654   3.009   2.524  0.1592  0.4831  0.2652
 3083TIP3    H1 9210   0.718   2.970   2.465 -1.7643 -0.5010 -1.2033
 3083TIP3    H2 9211   0.702   3.020   2.607  1.2347 -3.5697  0.2832
 3084TIP3   OH2 9212   1.161   0.517   2.596 -1.0459 -0.6825 -0.1282
 3084TIP3    H1 9213   1.118   0.439   2.559 -3.2782  0.1652  0.6073
 3084TIP3    H2 9214   1.089   0.575   2.620  0.5943  2.2954 -2.0678
 3085TIP3   OH2 9215   0.651   4.443   3.232  0.2783  0.0974 -0.1604
 3085TIP3    H1 9216   0.687   4.402   3.153 -0.1122 -4.8524  2.0788
 3085TIP3    H2 9217   0.707   4.412   3.303 -1.0619  2.2108  1.8968
 3086TIP3   OH2 9218   7.496   3.404   1.800  0.0739  0.8240  0.1576
 3086TIP3    H1 9219   7.546   3.446   1.869 -1.0606  0.9381  0.9185
 3086TIP3    H2 9220   7.406   3.430   1.816 -0.5940 -1.4860  0.3580
 3087TIP3   OH2 9221   2.475   4.855   5.686 -0.2389  0.1044 -0.0122
 3087TIP3    H1 9222   2.549   4.814   5.642 -0.2738 -1.1423  1.0732
 3087TIP3    H2 9223   2.405   4.789   5.681 -0.4397  0.2008  1.3316
 3088TIP3   OH2 9224   0.634   3.165   2.909 -0.1716 -0.3230  0.0733
 3088TIP3    H1 9225   0.701   3.110   2.868 -0.5068 -1.5135  1.0991
 3088TIP3    H2 9226   0.555   3.111   2.907 -0.9487  0.8203 -0.5326
 3089TIP3   OH2 9227   1.062   2.337   5.987  0.2178 -0.2195 -0.1110
 3089TIP3    H1 9228   1.111   2.384   6.054  0.4176 -0.3038 -0.2000
 3089TIP3    H2 9229   1.049   2.402   5.917 -1.6072  0.4458  0.7904
 3090TIP3   OH2 9230   0.107   4.138   1.902  0.1173  0.4679 -0.3348
 3090TIP3    H1 9231   0.175   4.107   1.842 -1.7026 -0.1322 -2.1333
 3090TIP3    H2 9232   0.026   4.132   1.852 -1.6111 -1.0324  2.4975
 3091TIP3   OH2 9233   1.388   4.060   3.468 -0.5601 -0.4243 -0.0805
 3091TIP3    H1 9234   1.466   4.071   3.521  0.3048 -1.5881 -1.0755
 3091TIP3    H2 9235   1.319   4.036   3.530 -0.4133  1.7775  0.9381
 3092TIP3   OH2 9236   0.644   3.366   1.819 -0.4111  0.0362  0.0876
 3092TIP3    H1 9237   0.668   3.434   1.882  0.0634  0.3354 -0.4129
 3092TIP3    H2 9238   0.608   3.414   1.744 -0.5553 -0.2923 -0.0553
 3093TIP3   OH2 9239   2.979   7.186   6.297 -0.1310  0.0581  0.3679
 3093TIP3    H1 9240   3.065   7.209   6.333 -0.9180  1.5571  1.3952
 3093TIP3    H2 9241   2.917   7.214   6.365 -1.3762 -2.0441  0.1441
 3094TIP3   OH2 9242   7.677   3.828   2.580  0.1259  0.2160 -0.3447
 3094TIP3    H1 9243   7.647   3.859   2.665  0.2816  0.0358 -0.2233
 3094TIP3    H2 9244   7.645   3.893   2.518  0.8883  0.8983 -0.0403
 3095TIP3   OH2 9245   6.618   3.741   6.237  0.2580  0.5348 -0.3391
 3095TIP3    H1 9246   6.545   3.693   6.197  0.2258  0.9167 -0.7347
 3095TIP3    H2 9247   6.642   3.807   6.172  0.2115  1.1475  0.2592
 3096TIP3   OH2 9248   1.888   4.774   4.739 -0.3362 -0.0732 -0.0649
 3096TIP3    H1 9249   1.970   4.796   4.783 -0.8035  0.7991  0.3825
 3096TIP3    H2 9250   1.905   4.690   4.698  0.6311 -0.1289  0.4337
 3097TIP3   OH2 9251   0.681   4.073   2.004  0.0076 -0.0678 -0.4034
 3097TIP3    H1 9252   0.677   4.120   2.087  1.2176 -0.7168  0.0416
 3097TIP3    H2 9253   0.736   4.128   1.947 -0.9883  0.4765 -0.8416
 3098TIP3   OH2 9254   5.468   5.252   0.657  0.2282  0.2571  0.4948
 3098TIP3    H1 9255   5.508   5.229   0.573 -0.5420 -1.7791  0.6532
 3098TIP3    H2 9256   5.432   5.339   0.643 -1.3282 -0.7144 -1.8216
 3099TIP3   OH2 9257   7.132   2.917   2.214  0.2853 -0.0759 -0.0974
 3099TIP3    H1 9258   7.143   2.881   2.126  1.7050  0.7060 -0.2675
 3099TIP3    H2 9259   7.108   3.008   2.200  1.7131  0.3740  0.3158
 3100TIP3   OH2 9260   0.924   4.058   3.563 -0.9057 -0.9774  0.7313
 3100TIP3    H1 9261   0.960   4.091   3.645 -0.5433  1.4333 -0.3486
 3100TIP3    H2 9262   1.000   4.050   3.505 -1.2424 -2.0911  0.4233
 3101TIP3   OH2 9263   7.518   4.442   0.723  0.7543 -0.0665 -0.0483
 3101TIP3    H1 9264   7.467   4.440   0.642 -0.4287 -2.2409  0.6980
 3101TIP3    H2 9265   7.564   4.358   0.725  1.2985  0.2398  1.1944
 3102TIP3   OH2 9266   7.643   2.634   5.005 -0.1709  0.2309 -0.6644
 3102TIP3    H1 9267   7.716   2.695   5.010 -0.5222  0.6920 -1.0529
 3102TIP3    H2 9268   7.578   2.668   5.067 -1.7560  2.1689 -3.2745
 3103TIP3   OH2 9269   2.945   3.262   4.694 -0.0833 -0.6736  0.4900
 3103TIP3    H1 9270   3.013   3.229   4.636 -0.0448 -1.0849  0.7586
 3103TIP3    H2 9271   2.866   3.262   4.641  0.1219 -0.2330  0.1894
 3104TIP3   OH2 9272   7.348   4.333   3.836 -0.1274  0.1108 -0.5898
 3104TIP3    H1 9273   7.376   4.404   3.779 -1.9011  1.0183 -0.3790
 3104TIP3    H2 9274   7.370   4.363   3.924  1.0671 -0.5488 -0.6549
 3105TIP3   OH2 9275   1.161   2.507   3.809 -0.0020  0.5255  0.2178
 3105TIP3    H1 9276   1.144   2.602   3.807 -1.6600  0.2299 -0.6925
 3105TIP3    H2 9277   1.093   2.472   3.866  0.9273 -0.0787  0.9763
 3106TIP3   OH2 9278   2.050   1.804   4.709  0.5924  0.1464  0.0597
 3106TIP3    H1 9279   2.039   1.899   4.718  0.9313  0.1877  0.0205
 3106TIP3    H2 9280   2.020   1.769   4.793 -1.2773  0.1545 -0.5867
 3107TIP3   OH2 9281   3.147   6.202   5.559  0.1906 -0.2226 -0.0617
 3107TIP3    H1 9282   3.208   6.157   5.618  0.0916 -0.6014 -0.2481
 3107TIP3    H2 9283   3.199   6.273   5.522  0.8499 -1.1849 -1.0391
 3108TIP3   OH2 9284   7.619   1.128   3.342 -0.0024  0.0640  0.1105
 3108TIP3    H1 9285   7.684   1.073   3.297 -0.5760 -0.8375  0.3698
 3108TIP3    H2 9286   7.565   1.066   3.390 -0.9851  0.8273 -0.0058
 3109TIP3   OH2 9287   1.502   1.921   3.714 -0.1569  0.6245 -0.2540
 3109TIP3    H1 9288   1.463   2.003   3.745  0.3100 -0.2945  2.9389
 3109TIP3    H2 9289   1.506   1.865   3.791  1.4808 -1.6884 -1.9192
 3110TIP3   OH2 9290   0.571   1.988   4.292 -0.6933 -0.2877  0.1771
 3110TIP3    H1 9291   0.624   2.032   4.359 -0.6604 -0.0947  0.0244
 3110TIP3    H2 9292   0.555   1.901   4.328 -0.3289 -0.3239  0.2562
 3111TIP3   OH2 9293   3.437   2.420   4.930 -0.1786 -0.4638  0.2931
 3111TIP3    H1 9294   3.463   2.401   4.840 -1.6634  1.5336 -0.6051
 3111TIP3    H2 9295   3.439   2.515   4.937 -0.5675 -0.5619  2.2273
 3112TIP3   OH2 9296   1.335   2.187   6.313  0.2779 -0.2938 -0.2085
 3112TIP3    H1 9297   1.308   2.277   6.295 -1.8447 -1.1037 -1.3315
 3112TIP3    H2 9298   1.390   2.163   6.239  0.4034 -0.1007 -0.1792
 3113TIP3   OH2 9299   7.315   2.651   3.601 -0.9246 -0.3014  0.0538
 3113TIP3    H1 9300   7.360   2.660   3.685  0.2682 -2.1246 -0.3580
 3113TIP3    H2 9301   7.357   2.717   3.544 -0.0913 -0.6800  0.2205
 3114TIP3   OH2 9302   2.467   1.198   4.295 -0.1657 -0.4430 -0.2528
 3114TIP3    H1 9303   2.560   1.207   4.318  0.2923 -2.7667 -1.0178
 3114TIP3    H2 9304   2.420   1.217   4.376  0.9463  1.2705  0.0145
 3115TIP3   OH2 9305   6.430   4.796   2.258  0.1245 -0.2107  0.1385
 3115TIP3    H1 9306   6.499   4.792   2.324 -0.6644 -0.7950  0.9523
 3115TIP3    H2 9307   6.450   4.874   2.206  1.3999 -0.3937  0.3388
 3116TIP3   OH2 9308   6.146   4.233   1.098 -0.2594  0.1456  0.1647
 3116TIP3    H1 9309   6.154   4.326   1.078 -0.7389  0.0349 -0.5712
 3116TIP3    H2 9310   6.195   4.221   1.180 -0.9654  1.2151  0.7499
 3117TIP3   OH2 9311   2.545   3.321   3.152  0.4210  0.2557 -0.3478
 3117TIP3    H1 9312   2.620   3.381   3.148  0.0196  0.7711 -0.1711
 3117TIP3    H2 9313   2.584   3.235   3.160  0.9753  0.7113  2.1322
 3118TIP3   OH2 9314   2.008   2.979   3.931  0.3905 -0.0705  0.0343
 3118TIP3    H1 9315   1.982   2.891   3.906  0.1618  0.1093 -0.3628
 3118TIP3    H2 9316   2.087   2.997   3.879  1.5388 -0.7561  1.5086
 3119TIP3   OH2 9317   0.444   0.400   6.172  0.0555 -0.1331  0.4224
 3119TIP3    H1 9318   0.401   0.318   6.194 -2.2501  0.8761 -0.2245
 3119TIP3    H2 9319   0.521   0.373   6.121 -1.5323 -1.8266 -1.1437
 3120TIP3   OH2 9320   0.509   2.352   3.102 -0.2375  0.3467  0.2328
 3120TIP3    H1 9321   0.475   2.441   3.104  0.0124  0.5577 -2.2940
 3120TIP3    H2 9322   0.598   2.361   3.066 -0.6547 -1.0217 -1.2224
 3121TIP3   OH2 9323   1.602   1.750   3.919 -0.1103 -1.2003  0.0519
 3121TIP3    H1 9324   1.646   1.775   4.000 -2.4269 -0.7055  1.2088
 3121TIP3    H2 9325   1.650   1.674   3.887  0.9210 -1.2999  1.8180
 3122TIP3   OH2 9326   1.190   2.894   4.671 -0.0005  0.0921 -0.5914
 3122TIP3    H1 9327   1.192   2.978   4.626 -0.4502  0.6718  0.4590
 3122TIP3    H2 9328   1.259   2.843   4.630  0.3665  1.0230 -1.1405
 3123TIP3   OH2 9329   0.322   4.704   3.170  0.6294  0.3971  0.6531
 3123TIP3    H1 9330   0.397   4.760   3.189  1.2398  0.2683 -1.2785
 3123TIP3    H2 9331   0.279   4.746   3.096  1.0046 -1.5752 -0.7065
 3124TIP3   OH2 9332   3.278   4.376   3.173 -0.4919  0.0304  0.1093
 3124TIP3    H1 9333   3.324   4.332   3.245  0.4506  1.4441  0.3795
 3124TIP3    H2 9334   3.241   4.455   3.212 -1.1881  0.0863 -0.6424
 3125TIP3   OH2 9335   7.387   2.593   2.964  0.6493 -0.1011  0.3593
 3125TIP3    H1 9336   7.369   2.576   3.057 -0.0250  0.8559  0.4133
 3125TIP3    H2 9337   7.382   2.507   2.923 -0.1986 -0.3771  1.0258
 3126TIP3   OH2 9338   7.736   5.829   2.620  0.2114  0.1428  0.1771
 3126TIP3    H1 9339   7.691   5.753   2.656  1.0065  0.4566  1.8882
 3126TIP3    H2 9340   7.752   5.885   2.695  0.7503  1.4392 -0.8787
 3127TIP3   OH2 9341   7.706   4.919   4.563  0.6088  0.1449  0.8418
 3127TIP3    H1 9342   7.768   4.937   4.633  0.5191  1.1427  0.6691
 3127TIP3    H2 9343   7.670   5.004   4.540 -2.3928 -0.6292  2.3742
 3128TIP3   OH2 9344   1.982   2.147   2.567 -0.1178 -0.2081 -0.1321
 3128TIP3    H1 9345   2.056   2.089   2.579  0.5221  0.6569  0.1679
 3128TIP3    H2 9346   2.020   2.231   2.540 -0.9518  0.3223  0.2745
 3129TIP3   OH2 9347   0.678   4.302   0.860  0.2071  0.1338 -0.4507
 3129TIP3    H1 9348   0.693   4.207   0.858  1.3923  0.2416  1.8786
 3129TIP3    H2 9349   0.590   4.313   0.825 -1.2880 -2.1508  2.3691
 3130TIP3   OH2 9350   1.962   2.646   4.778  0.3265 -0.3051  0.2856
 3130TIP3    H1 9351   1.975   2.609   4.865  1.7318  0.7551  0.5626
 3130TIP3    H2 9352   1.923   2.732   4.795  1.6150  0.3607 -0.0458
 3131TIP3   OH2 9353   0.790   2.943   3.905 -0.5673 -0.2785 -0.3720
 3131TIP3    H1 9354   0.747   2.891   3.837  0.1485 -0.1116 -0.9558
 3131TIP3    H2 9355   0.819   3.022   3.859 -0.5586  0.0789  0.2478
 3132TIP3   OH2 9356   2.960   3.589   4.871 -0.2748  0.2129 -0.1539
 3132TIP3    H1 9357   2.866   3.592   4.889 -0.2148 -0.2343  0.2108
 3132TIP3    H2 9358   3.001   3.616   4.953 -0.0781  0.2373 -0.2610
 3133TIP3   OH2 9359   1.689   1.593   0.894 -0.3149 -0.2673  0.1448
 3133TIP3    H1 9360   1.600   1.593   0.930 -0.5699  0.7875 -0.4521
 3133TIP3    H2 9361   1.744   1.622   0.966 -0.9151  2.5854 -0.4706
 3134TIP3   OH2 9362   0.281   2.679   2.765  0.3700  0.2393  0.5017
 3134TIP3    H1 9363   0.260   2.743   2.697  1.3215  0.8816  0.7944
 3134TIP3    H2 9364   0.358   2.716   2.810  0.0078 -0.3659  1.6545
 3135TIP3   OH2 9365   2.198   6.559   5.053 -0.5659 -0.1633  0.6339
 3135TIP3    H1 9366   2.191   6.507   4.974 -2.6595  0.4149  0.4144
 3135TIP3    H2 9367   2.195   6.649   5.023 -1.4486  0.0570  1.3869
 3136TIP3   OH2 9368   7.249   3.933   1.076  0.3601  1.0788 -0.5957
 3136TIP3    H1 9369   7.273   3.870   1.008 -0.7770  0.5634 -0.5222
 3136TIP3    H2 9370   7.294   3.902   1.154  0.8155  1.0803 -0.8528
 3137TIP3   OH2 9371   6.065   3.236   2.753 -0.6207  0.7640  0.0799
 3137TIP3    H1 9372   6.147   3.254   2.800 -0.7423 -1.0085  1.0281
 3137TIP3    H2 9373   5.998   3.239   2.821 -0.7816 -2.0240  0.1156
 3138TIP3   OH2 9374   7.715   1.977   3.632  0.1006 -0.4960  0.2397
 3138TIP3    H1 9375   7.662   1.929   3.569 -0.8169  1.1584 -0.2638
 3138TIP3    H2 9376   7.727   1.916   3.705 -0.9226 -1.5233 -0.4395
 3139TIP3   OH2 9377   7.446   2.759   5.190 -0.5713 -1.0413 -0.1777
 3139TIP3    H1 9378   7.361   2.803   5.197  0.4135  0.7495  0.8250
 3139TIP3    H2 9379   7.495   2.788   5.266  0.8456 -2.3335 -0.5620
 3140TIP3   OH2 9380   1.105   4.800   3.729  0.2561 -0.2662  0.1645
 3140TIP3    H1 9381   1.185   4.810   3.780  0.4602  1.7877 -0.5222
 3140TIP3    H2 9382   1.035   4.797   3.794  0.8919 -2.7147  0.8071
 3141TIP3   OH2 9383   2.337   0.543   1.922 -0.4183 -0.6616 -0.0593
 3141TIP3    H1 9384   2.301   0.629   1.945  2.4488  0.6978 -0.4238
 3141TIP3    H2 9385   2.398   0.523   1.993  1.7371 -0.6404 -1.8543
 3142TIP3   OH2 9386   7.541   3.571   4.524  0.2173  0.1182  0.0600
 3142TIP3    H1 9387   7.511   3.571   4.614 -2.5329 -1.0049 -0.8023
 3142TIP3    H2 9388   7.503   3.649   4.485  1.4935  0.6660 -0.1255
 3143TIP3   OH2 9389   7.748   4.440   1.420  0.7140 -0.5455 -0.0439
 3143TIP3    H1 9390   7.783   4.479   1.340  0.0909 -0.7792 -0.4242
 3143TIP3    H2 9391   7.822   4.391   1.457  0.6037 -1.5677 -1.1827
 3144TIP3   OH2 9392   1.825   3.606   4.024  0.2882  0.0065  0.2583
 3144TIP3    H1 9393   1.829   3.528   4.079 -0.1986  0.2379  0.6189
 3144TIP3    H2 9394   1.745   3.651   4.051 -0.1897 -0.1112 -0.9424
 3145TIP3   OH2 9395   5.665   5.393   1.231  0.4640  0.3133  0.3219
 3145TIP3    H1 9396   5.614   5.471   1.252 -1.0303 -0.8399  1.1265
 3145TIP3    H2 9397   5.606   5.340   1.176  1.0746 -0.6648  0.5918
 3146TIP3   OH2 9398   0.910   3.696   5.274 -0.1557 -0.1533  0.3345
 3146TIP3    H1 9399   0.853   3.742   5.212 -0.7579  0.5166  1.3747
 3146TIP3    H2 9400   0.987   3.752   5.282  0.6341 -1.0273 -1.0226
 3147TIP3   OH2 9401   6.706   1.437   0.744  0.0989 -0.5293  0.7760
 3147TIP3    H1 9402   6.744   1.495   0.677 -0.7613  1.8663  2.2890
 3147TIP3    H2 9403   6.706   1.351   0.703  2.4021  0.3299 -1.1718
 3148TIP3   OH2 9404   0.794   3.090   4.355  0.1966 -0.1159 -0.1306
 3148TIP3    H1 9405   0.870   3.105   4.299  0.4832  1.3424  0.6188
 3148TIP3    H2 9406   0.731   3.046   4.299  1.4510 -1.0012 -0.8722
 3149TIP3   OH2 9407   6.690   4.683   3.553  0.8132  0.6058 -0.3305
 3149TIP3    H1 9408   6.634   4.697   3.629  0.1503  0.5435 -0.8009
 3149TIP3    H2 9409   6.672   4.593   3.526  2.0413  0.1849  0.2400
 3150TIP3   OH2 9410   7.751   2.840   3.016 -0.3668 -0.5337  0.2949
 3150TIP3    H1 9411   7.726   2.755   2.980  2.5074 -1.1860 -0.3368
 3150TIP3    H2 9412   7.688   2.857   3.086 -1.9985 -2.3775 -0.6950
 3151TIP3   OH2 9413   7.725   2.874   1.844 -0.3020  0.1930 -0.1765
 3151TIP3    H1 9414   7.723   2.970   1.833 -0.7903  0.2841  0.6515
 3151TIP3    H2 9415   7.660   2.842   1.781  0.5590  0.3371 -1.1384
 3152TIP3   OH2 9416   0.374   2.320   1.339 -0.0455 -0.2573  0.1930
 3152TIP3    H1 9417   0.393   2.381   1.410  2.0725  0.0421 -0.5942
 3152TIP3    H2 9418   0.422   2.240   1.363  0.9023 -0.0675 -0.9955
 3153TIP3   OH2 9419   0.531   3.912   2.977 -0.0238  0.0342  0.2256
 3153TIP3    H1 9420   0.465   3.917   3.047 -1.3009 -2.3872 -0.7610
 3153TIP3    H2 9421   0.602   3.861   3.016 -0.2661 -0.3703  0.1497
 3154TIP3   OH2 9422   6.485   2.306   4.547 -0.0973 -0.3388  0.1765
 3154TIP3    H1 9423   6.524   2.251   4.479  1.3161 -0.1802  0.8619
 3154TIP3    H2 9424   6.505   2.261   4.629 -0.9006  0.0146  0.5727
 3155TIP3   OH2 9425   7.675   1.802   6.338  0.6709  0.3770  0.0550
 3155TIP3    H1 9426   7.597   1.753   6.363 -0.0383  1.1768 -0.5971
 3155TIP3    H2 9427   7.736   1.735   6.308 -0.7511 -0.0141 -2.0265
 3156TIP3   OH2 9428   7.352   5.823   3.077 -0.0632  0.3176 -0.1380
 3156TIP3    H1 9429   7.343   5.903   3.024  0.8270 -1.1000 -2.4918
 3156TIP3    H2 9430   7.399   5.851   3.155  1.9466  1.7413 -1.8145
 3157TIP3   OH2 9431   0.975   5.641   3.479  1.1114 -0.6932 -0.1552
 3157TIP3    H1 9432   0.980   5.556   3.523 -0.1491 -0.3953  0.5576
 3157TIP3    H2 9433   0.933   5.623   3.395  0.5142 -0.7100  0.1500
 3158TIP3   OH2 9434   2.014   2.093   4.267  0.4712  0.1464  0.3384
 3158TIP3    H1 9435   2.053   2.181   4.263  0.0227  0.3408  0.1781
 3158TIP3    H2 9436   2.061   2.049   4.338  1.8382 -0.0491 -0.6758
 3159TIP3   OH2 9437   1.281   4.247   3.272  0.4050  0.3863  0.2860
 3159TIP3    H1 9438   1.275   4.172   3.213  0.8975  0.8704 -0.3952
 3159TIP3    H2 9439   1.317   4.211   3.353 -1.2410 -0.4748  0.6582
 3160TIP3   OH2 9440   1.560   4.078   2.231 -0.7937 -0.2949  0.6747
 3160TIP3    H1 9441   1.554   3.992   2.190  1.3328 -0.3987  0.5361
 3160TIP3    H2 9442   1.600   4.061   2.316 -1.6672  0.3999  1.2393
 3161TIP3   OH2 9443   7.728   3.286   5.115  0.3329 -0.6663  0.2757
 3161TIP3    H1 9444   7.743   3.206   5.064 -2.0472 -0.9575 -0.0198
 3161TIP3    H2 9445   7.680   3.256   5.193  0.9408  0.2498  1.0206
 3162TIP3   OH2 9446   4.012   3.658   0.788  0.1484  0.0388  0.1056
 3162TIP3    H1 9447   4.097   3.616   0.776 -0.3322 -0.6090 -1.0284
 3162TIP3    H2 9448   3.962   3.636   0.710 -0.7368  1.2225  0.3159
 3163TIP3   OH2 9449   1.401   3.137   2.265 -0.3707  0.7874 -0.1235
 3163TIP3    H1 9450   1.355   3.059   2.234  0.5554 -0.6464  1.9978
 3163TIP3    H2 9451   1.364   3.209   2.213 -0.8159 -1.1145 -2.5361
 3164TIP3   OH2 9452   0.784   4.992   4.114 -0.1702  0.6829  0.0768
 3164TIP3    H1 9453   0.692   4.967   4.120 -1.0742  4.0340  1.1373
 3164TIP3    H2 9454   0.801   5.001   4.020 -0.1754 -2.4334 -0.2579
 3165TIP3   OH2 9455   1.699   4.351   3.238  0.2980  0.1621  0.0837
 3165TIP3    H1 9456   1.657   4.301   3.168 -0.1180 -1.6984  1.6299
 3165TIP3    H2 9457   1.628   4.399   3.280  0.4310  0.6650 -0.2601
 3166TIP3   OH2 9458   0.409   4.981   3.135  0.2104 -0.1197 -0.0172
 3166TIP3    H1 9459   0.470   5.025   3.077  0.4115  0.9067  0.9676
 3166TIP3    H2 9460   0.348   4.936   3.076  0.5630  0.6894 -1.0062
 3167TIP3   OH2 9461   2.074   2.637   4.384 -0.1746 -0.7144 -0.2207
 3167TIP3    H1 9462   2.014   2.688   4.330  1.3475  1.7706  0.3491
 3167TIP3    H2 9463   2.160   2.647   4.341  0.4242 -1.5501  0.7576
 3168TIP3   OH2 9464   0.281   3.912   1.126 -0.4304  0.4905  0.0356
 3168TIP3    H1 9465   0.373   3.887   1.136 -0.2926  0.5589 -0.9690
 3168TIP3    H2 9466   0.279   3.959   1.043 -1.3635  0.5452  0.0939
 3169TIP3   OH2 9467   3.839   5.130   2.302 -0.0774 -0.1541  0.7974
 3169TIP3    H1 9468   3.764   5.090   2.345  0.5585 -2.5263 -0.1990
 3169TIP3    H2 9469   3.812   5.140   2.211  0.5003 -0.1992  0.6206
 3170TIP3   OH2 9470   3.248   4.056   1.912  0.3023 -0.1311  0.0045
 3170TIP3    H1 9471   3.317   4.102   1.863  1.8189  0.3201  2.4582
 3170TIP3    H2 9472   3.181   4.122   1.926  1.2973  0.6440  1.2494
 3171TIP3   OH2 9473   3.054   3.682   1.699  0.0317  0.6565 -0.4726
 3171TIP3    H1 9474   2.973   3.678   1.648  1.0564  0.9081 -2.1381
 3171TIP3    H2 9475   3.092   3.595   1.691 -1.4146 -0.3281  2.6015
 3172TIP3   OH2 9476   2.304   2.729   3.527  0.0200  0.1363  0.6614
 3172TIP3    H1 9477   2.222   2.682   3.538  0.5229 -1.4808 -1.8265
 3172TIP3    H2 9478   2.371   2.661   3.531  0.9273  0.8808 -1.0520
 3173TIP3   OH2 9479   2.291   2.965   2.307 -0.6261 -0.2325 -0.1279
 3173TIP3    H1 9480   2.290   3.029   2.377  0.9963 -1.0303  0.6340
 3173TIP3    H2 9481   2.315   2.883   2.349 -1.3024 -1.0699 -1.3288
 3174TIP3   OH2 9482   2.792   4.305   3.182  0.2802  0.5308 -0.5636
 3174TIP3    H1 9483   2.809   4.380   3.238  1.9210 -0.5436  0.4052
 3174TIP3    H2 9484   2.867   4.302   3.122  0.8129 -1.0025  0.1629
 3175TIP3   OH2 9485   2.884   3.356   2.056  0.2640  0.2744  0.7220
 3175TIP3    H1 9486   2.839   3.287   2.104 -0.0355  0.0746  0.1581
 3175TIP3    H2 9487   2.815   3.398   2.005  0.5569  0.5794  0.5785
 3176TIP3   OH2 9488   0.595   4.359   1.644 -0.0137 -0.4641  0.4444
 3176TIP3    H1 9489   0.670   4.394   1.596 -0.1979  0.4882  0.8378
 3176TIP3    H2 9490   0.581   4.272   1.606  0.5053 -0.1529 -0.4879
 3177TIP3   OH2 9491   2.689   2.489   2.295  0.5069 -0.3501 -0.0138
 3177TIP3    H1 9492   2.674   2.561   2.357  0.4234 -0.3699 -0.0104
 3177TIP3    H2 9493   2.657   2.411   2.340 -4.4245  0.2993 -1.9837
 3178TIP3   OH2 9494   2.865   2.837   4.054  0.7108 -0.7277 -0.2371
 3178TIP3    H1 9495   2.939   2.837   4.115  1.0056 -1.1398 -0.5963
 3178TIP3    H2 9496   2.891   2.778   3.984  0.6577  0.3146 -1.1348
 3179TIP3   OH2 9497   0.978   3.381   2.756 -0.0564 -0.7395 -0.0254
 3179TIP3    H1 9498   0.917   3.419   2.819  1.9279  1.6656  0.5072
 3179TIP3    H2 9499   1.033   3.322   2.809 -0.0529 -0.6912  0.0252
 3180TIP3   OH2 9500   1.956   3.508   1.642 -0.5979  0.4726 -0.3489
 3180TIP3    H1 9501   2.023   3.444   1.667 -0.1160  0.4517 -1.6286
 3180TIP3    H2 9502   1.943   3.561   1.720 -1.2585 -1.4031  0.8433
 3181TIP3   OH2 9503   1.548   2.248   2.513  0.0304  0.2533  0.2977
 3181TIP3    H1 9504   1.550   2.165   2.562 -0.7361 -0.0434 -0.1673
 3181TIP3    H2 9505   1.466   2.289   2.540 -0.4336  0.0521 -0.7956
 3182TIP3   OH2 9506   0.707   0.791   2.702  0.0227 -1.0467  0.2545
 3182TIP3    H1 9507   0.681   0.780   2.610  0.0723 -0.2266  0.1412
 3182TIP3    H2 9508   0.682   0.881   2.724 -0.3040 -1.3511  1.1513
 3183TIP3   OH2 9509   2.988   2.919   2.310  0.4503  0.1391  0.1097
 3183TIP3    H1 9510   2.999   2.968   2.392  1.1077  2.2196 -1.1688
 3183TIP3    H2 9511   2.944   2.981   2.252 -2.4589 -2.2346 -0.2933
 3184TIP3   OH2 9512   1.295   3.193   3.733  0.4038  0.5397  0.1407
 3184TIP3    H1 9513   1.388   3.197   3.754  0.7262  0.4178 -1.2485
 3184TIP3    H2 9514   1.285   3.243   3.653 -0.6737  0.2453  0.0710
 3185TIP3   OH2 9515   1.910   4.027   2.598 -0.6234 -1.0311 -0.6936
 3185TIP3    H1 9516   1.971   4.063   2.534  0.7038  0.2559  1.2135
 3185TIP3    H2 9517   1.908   4.093   2.668 -1.7381 -2.5554  0.7455
 3186TIP3   OH2 9518   1.956   5.335   3.802  0.2398  0.5796 -0.1527
 3186TIP3    H1 9519   2.042   5.367   3.829  0.0902  1.3375 -0.5551
 3186TIP3    H2 9520   1.975   5.262   3.744  0.6730  1.9083 -1.7330
 3187TIP3   OH2 9521   4.345   3.866   2.225  0.1749  0.2543 -0.0164
 3187TIP3    H1 9522   4.360   3.854   2.318  0.3542 -0.7280 -0.1651
 3187TIP3    H2 9523   4.360   3.779   2.187  1.2507  0.8951 -1.1031
 3188TIP3   OH2 9524   3.803   3.069   1.420  0.4443 -0.1107 -0.0540
 3188TIP3    H1 9525   3.859   3.147   1.421 -0.5032  0.5865  1.5598
 3188TIP3    H2 9526   3.803   3.039   1.511 -0.6344 -0.9394 -0.3264
 3189TIP3   OH2 9527   2.065   4.393   1.871 -0.5045  0.5302  0.3172
 3189TIP3    H1 9528   1.985   4.401   1.923 -0.9607  2.0524 -0.5804
 3189TIP3    H2 9529   2.034   4.373   1.783  0.0176  2.5017 -0.3315
 3190TIP3   OH2 9530   1.851   4.932   3.438 -0.2533  0.2062  0.4549
 3190TIP3    H1 9531   1.804   4.913   3.357  0.8055  0.9158 -0.3352
 3190TIP3    H2 9532   1.789   4.985   3.489 -1.2192 -0.9059  0.4631
 3191TIP3   OH2 9533   2.757   3.475   3.170  0.0680 -0.0712 -0.3535
 3191TIP3    H1 9534   2.785   3.482   3.079  0.5697 -1.5267 -0.3332
 3191TIP3    H2 9535   2.724   3.562   3.192  2.4062  1.0667 -1.1037
 3192TIP3   OH2 9536   2.388   3.509   1.791 -0.0490 -0.3454 -0.0188
 3192TIP3    H1 9537   2.325   3.522   1.720  0.1467  0.9716  0.0377
 3192TIP3    H2 9538   2.470   3.488   1.747 -0.2236 -0.7974 -0.1332
 3193TIP3   OH2 9539   5.759   4.417   2.888  0.3649 -0.6810 -0.0741
 3193TIP3    H1 9540   5.844   4.460   2.878  1.2008 -2.4362 -0.6170
 3193TIP3    H2 9541   5.776   4.325   2.871 -1.3516 -1.3003  1.3711
 3194TIP3   OH2 9542   2.490   2.074   1.283  0.0339 -0.0591  0.2026
 3194TIP3    H1 9543   2.479   2.168   1.272  0.8255  0.0544  0.3672
 3194TIP3    H2 9544   2.429   2.051   1.353 -2.3086 -0.1739 -1.8032
 3195TIP3   OH2 9545   1.355   4.334   2.634  0.2775  0.1452  0.4868
 3195TIP3    H1 9546   1.351   4.281   2.554  1.9389  0.5968  0.0879
 3195TIP3    H2 9547   1.293   4.405   2.618  1.7557  1.1084 -1.0751
 3196TIP3   OH2 9548   7.564   3.842   0.531 -0.0229 -0.3667 -0.0199
 3196TIP3    H1 9549   7.543   3.776   0.465  2.1581 -1.4305  0.3018
 3196TIP3    H2 9550   7.587   3.792   0.609 -2.8525  0.8738  1.7086
 3197TIP3   OH2 9551   2.356   2.862   0.412  0.2425  0.5375  0.0472
 3197TIP3    H1 9552   2.342   2.902   0.498  0.8485  1.3079 -0.2044
 3197TIP3    H2 9553   2.268   2.851   0.376  0.0151  0.6805  0.5581
 3198TIP3   OH2 9554   2.115   2.829   4.625  0.1129  0.6237  0.3456
 3198TIP3    H1 9555   2.117   2.775   4.546  1.4876  0.9336  0.1604
 3198TIP3    H2 9556   2.073   2.773   4.691  0.4756 -0.2446 -0.1570
 3199TIP3   OH2 9557   3.076   4.564   4.032 -0.5811  0.1704  0.1450
 3199TIP3    H1 9558   3.071   4.472   4.056 -1.6774  0.6155  1.7023
 3199TIP3    H2 9559   3.170   4.584   4.029 -0.3685 -0.7490  0.7599
 3200TIP3   OH2 9560   3.460   3.610   3.326  0.3176 -0.5670  0.2157
 3200TIP3    H1 9561   3.553   3.630   3.313  0.3803 -0.1711  1.2325
 3200TIP3    H2 9562   3.414   3.678   3.277  0.5588 -0.6885 -0.1863
 3201TIP3   OH2 9563   0.765   3.444   5.267 -0.2154 -0.0666 -0.0617
 3201TIP3    H1 9564   0.832   3.505   5.299 -0.4696 -0.1020  0.5389
 3201TIP3    H2 9565   0.725   3.408   5.346  0.8707 -2.0628 -0.3860
 3202TIP3   OH2 9566   3.009   3.126   4.226  0.2628 -0.2386  0.1277
 3202TIP3    H1 9567   2.938   3.163   4.173  1.7464  1.4575 -0.7200
 3202TIP3    H2 9568   2.999   3.032   4.217 -1.2345 -0.0058 -0.8385
 3203TIP3   OH2 9569   2.469   5.646   3.928 -0.1120 -0.4184 -0.1294
 3203TIP3    H1 9570   2.555   5.623   3.964  0.0784  0.1934 -0.1931
 3203TIP3    H2 9571   2.477   5.627   3.834  0.8298  2.1201 -0.6139
 3204TIP3   OH2 9572   0.784   4.417   4.139  0.3549  0.1948  0.3123
 3204TIP3    H1 9573   0.739   4.345   4.182  2.4631 -0.3096  1.7447
 3204TIP3    H2 9574   0.874   4.414   4.173  0.7358  2.9139 -0.2882
 3205TIP3   OH2 9575   2.272   2.032   1.492 -0.1351  0.2622  0.3292
 3205TIP3    H1 9576   2.199   2.080   1.529  0.0557  1.2424 -0.5371
 3205TIP3    H2 9577   2.239   1.998   1.408  0.2846  0.3981  0.1057
 3206TIP3   OH2 9578   7.429   2.891   3.520  0.5316 -0.4318  0.4745
 3206TIP3    H1 9579   7.523   2.881   3.506  0.1459 -1.5510 -1.5559
 3206TIP3    H2 9580   7.401   2.955   3.455 -0.2456 -0.7197  0.5157
 3207TIP3   OH2 9581   3.601   4.837   4.077  0.2618 -0.0947 -0.4004
 3207TIP3    H1 9582   3.594   4.754   4.123  1.1877 -0.0245 -0.1041
 3207TIP3    H2 9583   3.523   4.886   4.102  0.2442 -0.4657  0.2756
 3208TIP3   OH2 9584   3.487   3.453   3.863  0.3393  0.2373 -0.1050
 3208TIP3    H1 9585   3.581   3.439   3.859  0.4881  0.9391  0.7743
 3208TIP3    H2 9586   3.459   3.407   3.942  0.1389  1.0377  0.2962
 3209TIP3   OH2 9587   0.445   2.278   2.666  0.7853  0.2923  0.3088
 3209TIP3    H1 9588   0.497   2.207   2.627 -1.3151 -1.2199  0.1868
 3209TIP3    H2 9589   0.506   2.351   2.674  3.2758 -1.8295  1.3405
 3210TIP3   OH2 9590   2.006   4.281   3.032  0.3802 -0.3975  0.0255
 3210TIP3    H1 9591   1.954   4.352   2.995 -1.1413 -0.8951  1.1671
 3210TIP3    H2 9592   1.970   4.202   2.992 -0.7102 -0.8611  1.8972
 3211TIP3   OH2 9593   2.109   6.192   2.177 -0.4103 -0.1019 -0.2947
 3211TIP3    H1 9594   2.020   6.158   2.166 -0.6303  0.1746  0.5590
 3211TIP3    H2 9595   2.105   6.281   2.142 -0.4151 -0.1759 -0.4792
 3212TIP3   OH2 9596   2.952   3.378   2.476 -0.0985  0.7540  0.3736
 3212TIP3    H1 9597   2.931   3.418   2.560 -0.5272 -0.1350  0.6959
 3212TIP3    H2 9598   3.042   3.349   2.485  0.0728  1.2504  0.2904
 3213TIP3   OH2 9599   3.681   2.026   1.997 -0.5622 -0.7214  0.3077
 3213TIP3    H1 9600   3.637   2.073   2.068  2.1909  3.2754 -0.4517
 3213TIP3    H2 9601   3.726   1.953   2.041 -0.7295  0.3566  2.3150
 3214TIP3   OH2 9602   1.754   6.230   2.338  0.0420 -0.4534 -0.2047
 3214TIP3    H1 9603   1.664   6.195   2.335  0.5784 -1.8318 -0.5749
 3214TIP3    H2 9604   1.802   6.177   2.274  1.4594 -0.7062  1.0471
 3215TIP3   OH2 9605   3.645   6.057   2.808  0.7192 -0.0856 -0.7345
 3215TIP3    H1 9606   3.604   5.974   2.783  0.8611  0.1579 -1.8157
 3215TIP3    H2 9607   3.574   6.121   2.803  0.6241 -0.1235  0.0388
 3216TIP3   OH2 9608   7.075   4.901   2.055  0.2822 -0.2152 -0.2110
 3216TIP3    H1 9609   7.046   4.984   2.017 -0.6479 -0.7225 -0.6237
 3216TIP3    H2 9610   7.098   4.847   1.979  0.7874 -0.3681  0.0519
 3217TIP3   OH2 9611   1.709   1.470   4.150  0.1352  0.4851  0.6226
 3217TIP3    H1 9612   1.759   1.542   4.113  0.2643 -0.7805 -1.7510
 3217TIP3    H2 9613   1.772   1.400   4.164 -0.1384  0.5132  2.1374
 3218TIP3   OH2 9614   2.266   2.971   4.312  0.1102  0.0117  0.1029
 3218TIP3    H1 9615   2.237   2.926   4.232  0.5379 -2.2444  1.1791
 3218TIP3    H2 9616   2.219   3.054   4.310 -0.8544 -0.5333 -1.8693
 3219TIP3   OH2 9617   2.437   3.173   3.579  0.4326 -0.2019  0.2592
 3219TIP3    H1 9618   2.467   3.253   3.621 -0.5690  0.0690  0.4761
 3219TIP3    H2 9619   2.516   3.120   3.569  1.4899  1.6617 -1.7857
 3220TIP3   OH2 9620   1.871   4.693   0.405 -0.4426 -0.8059 -0.3667
 3220TIP3    H1 9621   1.851   4.679   0.497 -1.5104 -1.3626 -0.6712
 3220TIP3    H2 9622   1.838   4.782   0.387  1.1532 -0.0966  0.1570
 3221TIP3   OH2 9623   2.387   5.663   1.605  0.4878  0.5180  0.0734
 3221TIP3    H1 9624   2.334   5.741   1.590  0.3979  0.6639  1.0805
 3221TIP3    H2 9625   2.341   5.616   1.675  0.7116 -0.2736 -0.3058
 3222TIP3   OH2 9626   3.552   1.210   1.185 -0.7159 -0.0277  0.3316
 3222TIP3    H1 9627   3.524   1.302   1.189  1.4125  0.8641 -2.7808
 3222TIP3    H2 9628   3.528   1.182   1.097  0.1848 -1.9203  0.6693
 3223TIP3   OH2 9629   1.592   1.667   2.998  0.2151 -0.5065  0.5879
 3223TIP3    H1 9630   1.601   1.682   3.093 -0.9768  0.6114  0.5405
 3223TIP3    H2 9631   1.498   1.672   2.983  0.5874  2.0295 -1.0981
 3224TIP3   OH2 9632   2.101   2.310   1.529  0.0760 -0.2502 -0.3160
 3224TIP3    H1 9633   2.063   2.325   1.443 -0.3828  0.6716  0.0403
 3224TIP3    H2 9634   2.191   2.342   1.522 -0.3506  1.0281 -0.0858
 3225TIP3   OH2 9635   0.067   3.525   3.721 -0.2877 -0.2879  0.0568
 3225TIP3    H1 9636   0.111   3.513   3.637  0.0999 -0.5588  0.2982
 3225TIP3    H2 9637  -0.020   3.558   3.698 -0.3679 -0.8531 -0.4763
 3226TIP3   OH2 9638   2.733   2.058   2.322  0.0812  0.0929 -0.2426
 3226TIP3    H1 9639   2.686   2.040   2.240 -0.2377 -2.6815  0.5105
 3226TIP3    H2 9640   2.722   1.979   2.374  0.5049  1.7256  2.4133
 3227TIP3   OH2 9641   0.932   0.617   2.708 -0.3858 -0.3745  0.5919
 3227TIP3    H1 9642   0.840   0.644   2.706  0.0427  1.0480 -0.5615
 3227TIP3    H2 9643   0.973   0.676   2.771  0.0352  0.0137 -0.0358
 3228TIP3   OH2 9644   1.296   1.181   3.388  0.0876 -0.9699 -0.0177
 3228TIP3    H1 9645   1.240   1.238   3.441  0.3719  0.0335 -0.7773
 3228TIP3    H2 9646   1.329   1.238   3.319 -0.5827 -2.3642 -1.5006
 3229TIP3   OH2 9647   7.822   7.118   2.588 -0.1974  0.0964 -0.2935
 3229TIP3    H1 9648   7.810   7.169   2.668  1.4368 -0.1199  0.1019
 3229TIP3    H2 9649   7.745   7.061   2.584 -1.1603  1.3274  0.1899
 3230TIP3   OH2 9650   1.047   4.906   4.857 -0.3697  0.2265 -0.3637
 3230TIP3    H1 9651   0.992   4.845   4.807 -1.9888  1.2084  0.2169
 3230TIP3    H2 9652   1.092   4.850   4.921 -0.6020 -0.5847 -0.8918
 3231TIP3   OH2 9653   0.637   3.723   3.133  0.0972  0.2231 -0.1591
 3231TIP3    H1 9654   0.577   3.668   3.083 -0.1791  1.0817 -0.7827
 3231TIP3    H2 9655   0.679   3.663   3.194 -0.1245 -0.7005 -0.9007
 3232TIP3   OH2 9656   2.560   2.242   2.834  0.2237 -0.0824 -0.2767
 3232TIP3    H1 9657   2.522   2.200   2.757 -0.1513  0.0102 -0.1448
 3232TIP3    H2 9658   2.581   2.330   2.805 -0.7454  0.2365 -0.0271
 3233TIP3   OH2 9659   1.870   4.067   1.207 -0.2730  0.3074  0.1279
 3233TIP3    H1 9660   1.777   4.090   1.204 -0.2864  0.2871  0.3909
 3233TIP3    H2 9661   1.886   4.045   1.299  0.3392  1.7103  0.3650
 3234TIP3   OH2 9662   2.802   2.863   2.645  0.7579 -0.3686  0.1262
 3234TIP3    H1 9663   2.874   2.923   2.624  1.3598 -0.6936  1.2513
 3234TIP3    H2 9664   2.723   2.916   2.635  1.2873  0.6393  1.2168
 3235TIP3   OH2 9665   3.085   1.298   1.537 -0.1306 -0.2216  0.3110
 3235TIP3    H1 9666   3.075   1.385   1.498  1.0749 -0.4230 -0.4736
 3235TIP3    H2 9667   3.016   1.292   1.602 -2.3734  0.0421 -1.9715
 3236TIP3   OH2 9668   7.788   2.158   0.878  0.1363 -0.1108 -0.9849
 3236TIP3    H1 9669   7.743   2.134   0.797 -0.3493  0.5054 -0.8981
 3236TIP3    H2 9670   7.755   2.245   0.900  1.6236  0.4951 -1.1023
 3237TIP3   OH2 9671   1.773   4.460   4.366  0.3327  0.4062 -0.5396
 3237TIP3    H1 9672   1.801   4.485   4.454  1.0499 -0.4657 -0.5105
 3237TIP3    H2 9673   1.723   4.536   4.334  0.2355  0.8047  0.5338
 3238TIP3   OH2 9674   0.183   3.961   2.510 -0.0051 -0.1656  0.4530
 3238TIP3    H1 9675   0.119   3.907   2.556  0.3604 -1.5331 -0.6067
 3238TIP3    H2 9676   0.266   3.914   2.521  0.1713 -0.2449 -1.1654
 3239TIP3   OH2 9677   3.218   2.054   3.929 -0.4282 -0.0450  0.1960
 3239TIP3    H1 9678   3.272   2.127   3.960  0.2785  0.5484 -2.2900
 3239TIP3    H2 9679   3.129   2.088   3.931 -0.6642 -0.7202  3.4465
 3240TIP3   OH2 9680   3.632   0.419   1.027  0.5390  0.4650 -0.2900
 3240TIP3    H1 9681   3.569   0.364   1.072  0.0212  0.6056 -0.8431
 3240TIP3    H2 9682   3.579   0.483   0.980  1.0061 -0.6650 -2.4053
 3241TIP3   OH2 9683   2.196   3.443   3.445  0.0334  0.9178 -0.0837
 3241TIP3    H1 9684   2.272   3.482   3.402 -0.0768 -0.3265 -1.4268
 3241TIP3    H2 9685   2.176   3.366   3.393 -2.2418  1.3106  0.1619
 3242TIP3   OH2 9686   0.881   3.333   2.140 -0.0856 -0.3645  1.0057
 3242TIP3    H1 9687   0.816   3.321   2.209 -0.2597  0.1825  0.9341
 3242TIP3    H2 9688   0.836   3.383   2.072  0.1982 -0.5846  0.6554
 3243TIP3   OH2 9689   4.103   3.662   1.394  0.5548 -0.0846 -0.1377
 3243TIP3    H1 9690   4.165   3.617   1.452 -1.0704 -1.3578  0.6266
 3243TIP3    H2 9691   4.076   3.739   1.444 -0.1373 -0.6852  0.4131
 3244TIP3   OH2 9692   3.051   3.204   2.777 -0.5696  0.3803  0.2643
 3244TIP3    H1 9693   3.041   3.162   2.862 -2.5333  0.0785 -0.1012
 3244TIP3    H2 9694   3.126   3.263   2.788 -1.4399  1.1054  2.4757
 3245TIP3   OH2 9695   2.289   4.524   3.193 -0.9483 -0.1610 -0.2793
 3245TIP3    H1 9696   2.377   4.518   3.156 -0.6878  1.0083  0.1337
 3245TIP3    H2 9697   2.249   4.438   3.174  0.4615 -0.9012  0.0338
 3246TIP3   OH2 9698   3.292   2.908   1.574 -0.1004 -0.0520 -0.8178
 3246TIP3    H1 9699   3.253   2.821   1.586 -1.3670  0.6885  0.4840
 3246TIP3    H2 9700   3.218   2.968   1.570  0.8797  1.3939  1.7337
 3247TIP3   OH2 9701   0.730   3.413   2.582 -0.1653  0.0367  0.4354
 3247TIP3    H1 9702   0.661   3.377   2.637  0.5977 -0.1710  1.2679
 3247TIP3    H2 9703   0.807   3.360   2.601  0.6085  1.2055  0.6243
 3248TIP3   OH2 9704   2.085   2.362   2.420 -0.2056  0.2981 -0.2406
 3248TIP3    H1 9705   2.175   2.385   2.440 -0.1176 -0.7736  0.6454
 3248TIP3    H2 9706   2.033   2.435   2.453  0.2165  0.1982  0.6513
 3249TIP3   OH2 9707   1.867   4.501   2.919 -0.3998 -0.2452 -0.3586
 3249TIP3    H1 9708   1.780   4.482   2.884 -0.0780  0.2138 -1.4224
 3249TIP3    H2 9709   1.908   4.558   2.854  0.6115 -0.2661  0.2396
 3250TIP3   OH2 9710   2.271   3.996   1.535  0.0867  0.3196  0.4838
 3250TIP3    H1 9711   2.263   4.071   1.593  0.6754 -0.0040  0.9848
 3250TIP3    H2 9712   2.321   3.931   1.585  0.5442  0.0169 -0.3493
 3251TIP3   OH2 9713   2.396   4.015   3.539 -0.3537 -0.3054  0.1070
 3251TIP3    H1 9714   2.435   3.980   3.459  2.2409 -0.1276  1.2573
 3251TIP3    H2 9715   2.381   4.107   3.520 -0.3055 -0.3996 -0.3894
 3252TIP3   OH2 9716   4.258   3.795   2.771  0.0126 -0.5678  0.1367
 3252TIP3    H1 9717   4.266   3.861   2.703 -2.0363 -1.5768 -1.1548
 3252TIP3    H2 9718   4.207   3.838   2.840 -1.7574 -0.9244 -0.9209
 3253TIP3   OH2 9719   1.878   3.808   1.063 -0.1462 -0.2037 -0.6127
 3253TIP3    H1 9720   1.876   3.883   1.123 -0.5785 -2.2099  1.9569
 3253TIP3    H2 9721   1.879   3.847   0.976 -0.7435  2.7901  0.6707
 3254TIP3   OH2 9722   0.960   3.576   6.325  0.1785 -0.2849 -0.2060
 3254TIP3    H1 9723   0.935   3.661   6.361 -0.8745  0.1414 -1.8722
 3254TIP3    H2 9724   0.917   3.512   6.382 -0.9360  0.3615 -0.3048
 3255TIP3   OH2 9725   2.273   4.679   5.126  0.4350 -0.4892 -0.1450
 3255TIP3    H1 9726   2.216   4.668   5.202  1.2749 -0.7563  0.4594
 3255TIP3    H2 9727   2.326   4.757   5.147 -0.4473  0.4063 -1.1804
 3256TIP3   OH2 9728   0.749   3.652   4.248 -0.3136  0.0322 -1.0120
 3256TIP3    H1 9729   0.778   3.692   4.166  0.5274  1.6042  0.0171
 3256TIP3    H2 9730   0.658   3.628   4.232  0.8727 -3.0876 -3.6195
 3257TIP3   OH2 9731   1.101   3.889   2.897  0.0148 -0.3847 -0.2212
 3257TIP3    H1 9732   1.017   3.874   2.941  0.8305  0.1339  1.5677
 3257TIP3    H2 9733   1.162   3.830   2.940  1.2559  1.5208  0.7074
 3258TIP3   OH2 9734   0.566   4.246   2.536 -0.2484 -0.1755 -0.1317
 3258TIP3    H1 9735   0.490   4.226   2.592 -0.5696 -0.0570 -0.5184
 3258TIP3    H2 9736   0.637   4.263   2.598 -1.3443  2.9728  0.3784
 3259TIP3   OH2 9737   3.113   4.793   4.294 -0.0682 -0.3249  0.3715
 3259TIP3    H1 9738   3.131   4.715   4.346  1.6548 -0.3451 -0.2246
 3259TIP3    H2 9739   3.046   4.766   4.232  1.2849 -1.6525 -0.5387
 3260TIP3   OH2 9740   1.730   3.881   3.413 -0.1774 -0.1915 -0.5623
 3260TIP3    H1 9741   1.809   3.892   3.466  0.2349  0.0582 -1.2173
 3260TIP3    H2 9742   1.728   3.959   3.358 -0.8104 -0.2667 -0.6405
 3261TIP3   OH2 9743   4.712   4.657   1.927  0.0327  0.0043 -0.2135
 3261TIP3    H1 9744   4.659   4.704   1.864 -0.9840  0.1177  0.7169
 3261TIP3    H2 9745   4.757   4.725   1.977  1.0824 -0.0908 -1.0019
 3262TIP3   OH2 9746   1.062   3.548   2.169  0.1971  0.5857 -0.0717
 3262TIP3    H1 9747   1.008   3.470   2.182  0.0668  0.9842  1.9035
 3262TIP3    H2 9748   1.000   3.616   2.144 -0.0686  0.7286  0.9493
 3263TIP3   OH2 9749   2.955   5.183   2.709 -0.2921 -0.5588  0.4564
 3263TIP3    H1 9750   2.988   5.109   2.760 -1.6302 -1.9111 -0.5950
 3263TIP3    H2 9751   2.999   5.259   2.746  0.6098 -1.8013  1.9948
 3264TIP3   OH2 9752   0.445   3.658   1.884  0.5372 -0.2765 -0.9349
 3264TIP3    H1 9753   0.411   3.585   1.936  0.9351  0.5272  0.4600
 3264TIP3    H2 9754   0.376   3.675   1.819 -1.3918  0.8067  1.3348
 3265TIP3   OH2 9755   0.949   3.783   2.076 -0.3706 -0.7884 -0.0337
 3265TIP3    H1 9756   0.894   3.830   2.138 -0.7644 -1.4261  0.0896
 3265TIP3    H2 9757   0.905   3.795   1.991 -1.4153 -2.4284  0.2698
 3266TIP3   OH2 9758   0.309   4.169   3.044 -0.9123 -0.3307 -0.6641
 3266TIP3    H1 9759   0.369   4.136   3.111 -1.2906 -0.9652 -0.6349
 3266TIP3    H2 9760   0.338   4.259   3.029 -0.5663 -0.3131  0.0565
 3267TIP3   OH2 9761   4.191   4.987   1.488  0.3432 -0.2769 -0.7722
 3267TIP3    H1 9762   4.206   4.985   1.393 -0.1904  0.4268 -0.8734
 3267TIP3    H2 9763   4.261   5.043   1.522 -1.8432  2.8412 -1.2233
 3268TIP3   OH2 9764   3.341   4.736   3.348 -0.1564  0.2192  0.0584
 3268TIP3    H1 9765   3.282   4.660   3.346  1.4873 -1.1180  1.4794
 3268TIP3    H2 9766   3.285   4.809   3.375 -1.2062 -0.9967  1.2303
 3269TIP3   OH2 9767   1.002   4.371   4.304  0.4473  0.1586  0.2850
 3269TIP3    H1 9768   1.007   4.439   4.372 -1.0517 -0.5287  1.0901
 3269TIP3    H2 9769   1.042   4.294   4.345  0.8504  0.1449 -0.1293
 3270TIP3   OH2 9770   3.227   2.142   2.286 -0.5155  0.4028  0.8454
 3270TIP3    H1 9771   3.221   2.173   2.196 -0.2180  1.4233  1.1749
 3270TIP3    H2 9772   3.143   2.098   2.301 -0.4118 -0.1247 -0.0513
 3271TIP3   OH2 9773   3.075   4.730   4.877 -0.6038  0.0002  0.2057
 3271TIP3    H1 9774   3.060   4.713   4.970  0.0363  0.5855  0.4123
 3271TIP3    H2 9775   3.016   4.803   4.856 -0.0614  0.4851  0.3715
 3272TIP3   OH2 9776   1.254   4.760   1.272 -0.1014 -0.2545  0.4144
 3272TIP3    H1 9777   1.168   4.780   1.307  0.0808 -0.0744  0.7588
 3272TIP3    H2 9778   1.243   4.677   1.226 -1.0346  1.0053 -1.6773
 3273TIP3   OH2 9779   1.068   5.039   2.057 -0.6567  0.8841 -0.5804
 3273TIP3    H1 9780   1.059   4.946   2.081 -0.8614  0.5904 -1.7676
 3273TIP3    H2 9781   1.101   5.081   2.137  1.2144 -0.5249 -0.5662
 3274TIP3   OH2 9782   2.203   2.902   1.576  0.3224  0.2262  0.0464
 3274TIP3    H1 9783   2.258   2.824   1.577 -1.3361 -0.9509  0.1410
 3274TIP3    H2 9784   2.219   2.942   1.490  1.2409 -0.1334  0.0403
 3275TIP3   OH2 9785   2.661   4.076   3.310 -0.2826  0.0050 -0.3220
 3275TIP3    H1 9786   2.570   4.107   3.304 -0.0279  1.1497  1.3678
 3275TIP3    H2 9787   2.714   4.150   3.281  0.1664 -0.2250 -0.0933
 3276TIP3   OH2 9788   1.829   4.691   0.673 -0.4963 -0.1164 -0.4347
 3276TIP3    H1 9789   1.737   4.666   0.676 -0.5533 -0.0427 -1.3469
 3276TIP3    H2 9790   1.877   4.609   0.675 -0.6903 -0.3963 -3.8278
 3277TIP3   OH2 9791   1.257   5.461   1.312 -1.0665 -0.2543 -0.4217
 3277TIP3    H1 9792   1.173   5.498   1.341 -0.2266 -0.4325  2.4121
 3277TIP3    H2 9793   1.237   5.370   1.291 -1.6125 -0.2570  0.0947
 3278TIP3   OH2 9794   4.071   5.536   3.176 -0.0757  0.2238  0.4018
 3278TIP3    H1 9795   3.978   5.547   3.194 -0.0932  1.4521 -0.3664
 3278TIP3    H2 9796   4.092   5.449   3.210 -1.2242  0.4307  1.6941
 3279TIP3   OH2 9797   2.941   2.597   2.519 -0.3361 -0.2685  0.3303
 3279TIP3    H1 9798   3.031   2.632   2.516  0.0544 -1.3429 -0.8863
 3279TIP3    H2 9799   2.904   2.634   2.599  1.3533 -0.1806  1.1038
 3280TIP3   OH2 9800   2.942   6.018   1.448 -0.3799 -0.3176 -0.8298
 3280TIP3    H1 9801   2.952   6.014   1.353 -2.1846  0.8968 -1.0949
 3280TIP3    H2 9802   2.848   6.011   1.463 -0.2014  0.4341  0.8138
 3281TIP3   OH2 9803   1.291   1.065   0.749 -0.4316  0.6080 -0.4984
 3281TIP3    H1 9804   1.370   1.102   0.788 -2.8575  3.5045  1.9032
 3281TIP3    H2 9805   1.255   1.007   0.816 -0.4531 -0.5800 -1.5157
 3282TIP3   OH2 9806   3.111   4.590   3.292 -0.2815 -0.2286  0.4899
 3282TIP3    H1 9807   3.082   4.679   3.274  0.1146 -0.0889  0.5513
 3282TIP3    H2 9808   3.032   4.545   3.322 -0.7150 -0.1763 -0.5436
 3283TIP3   OH2 9809   1.567   0.869   5.517 -0.0442  0.5135 -0.3993
 3283TIP3    H1 9810   1.541   0.802   5.454 -1.5158  1.0986 -0.4343
 3283TIP3    H2 9811   1.638   0.916   5.474 -1.3964  1.2508 -1.8454
 3284TIP3   OH2 9812   1.939   3.768   4.611 -0.2288  0.5404  0.1095
 3284TIP3    H1 9813   1.845   3.789   4.614 -0.2935  0.2555  0.1199
 3284TIP3    H2 9814   1.954   3.739   4.521  0.0965  1.7055 -0.2217
 3285TIP3   OH2 9815   2.782   4.266   6.142  0.4890 -0.1977 -0.1684
 3285TIP3    H1 9816   2.757   4.301   6.228 -0.5249 -0.7322 -0.2477
 3285TIP3    H2 9817   2.878   4.266   6.144  0.4755  0.1005  0.8368
 3286TIP3   OH2 9818   0.533   5.824   3.794 -0.1723 -0.1873 -0.0844
 3286TIP3    H1 9819   0.592   5.810   3.720  1.1969 -0.1114  0.9804
 3286TIP3    H2 9820   0.587   5.865   3.861 -1.6938  0.8279  0.5471
 3287TIP3   OH2 9821   2.781   2.670   1.256 -0.4272 -0.0559 -0.3734
 3287TIP3    H1 9822   2.875   2.653   1.250 -0.2437  0.5213  0.7923
 3287TIP3    H2 9823   2.772   2.763   1.237 -0.5432  0.3163  1.4365
 3288TIP3   OH2 9824   1.558   5.495   5.150  0.0321  0.2074  0.1998
 3288TIP3    H1 9825   1.643   5.468   5.186 -0.4971 -0.8112  0.7097
 3288TIP3    H2 9826   1.539   5.578   5.194  1.1025  0.8038 -0.4540
 3289TIP3   OH2 9827   4.101   6.681   2.543 -0.4452  0.1575 -0.2927
 3289TIP3    H1 9828   4.190   6.714   2.530 -0.6743  0.1347 -2.0708
 3289TIP3    H2 9829   4.111   6.587   2.557  0.2047  0.8446  4.7157
 3290TIP3   OH2 9830   7.434   5.666   2.705 -0.2512  0.1450 -0.0425
 3290TIP3    H1 9831   7.417   5.603   2.635 -0.8158  0.7073 -0.4173
 3290TIP3    H2 9832   7.526   5.654   2.726 -0.8503 -2.2215  1.3000
 3291TIP3   OH2 9833   1.007   2.135   1.051  0.8388  0.1766  0.4811
 3291TIP3    H1 9834   0.925   2.137   1.101  0.8208  0.3628  0.4410
 3291TIP3    H2 9835   1.008   2.047   1.012 -0.6367  1.0708 -1.7020
 3292TIP3   OH2 9836   2.302   3.711   3.809 -0.2181 -0.1860  0.3693
 3292TIP3    H1 9837   2.258   3.657   3.875 -1.2883  1.3837  0.9756
 3292TIP3    H2 9838   2.304   3.798   3.848 -1.6711  0.9613 -2.0500
 3293TIP3   OH2 9839   2.785   4.186   2.770  0.5695  0.4985  0.1855
 3293TIP3    H1 9840   2.713   4.212   2.713 -0.2830 -0.4351  0.8165
 3293TIP3    H2 9841   2.743   4.139   2.843  1.9123 -1.2120 -0.0973
 3294TIP3   OH2 9842   1.414   2.792   3.771  0.1426 -0.3790 -0.2438
 3294TIP3    H1 9843   1.358   2.838   3.708  1.6030 -0.5723 -1.7319
 3294TIP3    H2 9844   1.481   2.751   3.717  1.3814 -0.6382  1.4629
 3295TIP3   OH2 9845   1.543   4.741   5.429 -0.3944 -0.0873  1.3575
 3295TIP3    H1 9846   1.507   4.653   5.425  2.3364 -1.2138  0.1346
 3295TIP3    H2 9847   1.471   4.798   5.406 -1.1013 -2.3262 -2.4096
 3296TIP3   OH2 9848   1.857   4.146   2.852  0.0958  0.1064 -0.5744
 3296TIP3    H1 9849   1.845   4.108   2.939 -0.9937  0.8279 -0.3980
 3296TIP3    H2 9850   1.773   4.186   2.832  1.1760  2.3952 -0.7609
 3297TIP3   OH2 9851   0.757   3.517   3.343  0.0350 -0.6611 -0.0034
 3297TIP3    H1 9852   0.747   3.567   3.424  1.0963 -0.3428 -0.0549
 3297TIP3    H2 9853   0.846   3.536   3.314 -1.0905  1.1412 -2.5155
 3298TIP3   OH2 9854   6.116   6.720   6.335  0.9243 -0.4366 -0.1183
 3298TIP3    H1 9855   6.026   6.716   6.303  1.2479  0.0737 -1.1354
 3298TIP3    H2 9856   6.143   6.810   6.318  1.6584 -0.6186  0.0797
 3299TIP3   OH2 9857   2.794   4.904   4.433 -0.0781 -0.1621 -0.3213
 3299TIP3    H1 9858   2.700   4.888   4.443  0.3571 -1.8075  1.4326
 3299TIP3    H2 9859   2.817   4.861   4.351 -0.6013 -0.9790 -0.0520
 3300TIP3   OH2 9860   4.425   2.574   1.271  0.0819  0.0669 -0.0168
 3300TIP3    H1 9861   4.345   2.583   1.220  1.2292  0.5243 -1.8052
 3300TIP3    H2 9862   4.407   2.622   1.352 -1.5223 -0.0309 -0.3026
 3301TIP3   OH2 9863   7.255   3.845   4.105 -0.0973  0.0371 -0.0705
 3301TIP3    H1 9864   7.214   3.855   4.191  0.1285  1.1794 -0.0899
 3301TIP3    H2 9865   7.319   3.915   4.100 -0.5603  0.3897 -1.4379
 3302TIP3   OH2 9866   1.739   2.389   3.104 -0.4585 -0.3294  0.5377
 3302TIP3    H1 9867   1.721   2.336   3.181  0.2565 -1.7537 -0.2555
 3302TIP3    H2 9868   1.784   2.330   3.044 -0.4499  0.9305 -0.7289
 3303TIP3   OH2 9869   3.990   4.207   2.568  0.2029  0.2507 -0.9589
 3303TIP3    H1 9870   3.949   4.214   2.482 -0.8972  0.1411 -0.4561
 3303TIP3    H2 9871   3.964   4.121   2.600  0.6235  0.2797 -0.5315
 3304TIP3   OH2 9872   3.264   3.782   2.728 -0.3343 -0.3957  0.6285
 3304TIP3    H1 9873   3.275   3.868   2.769 -0.0824 -0.0531 -0.1451
 3304TIP3    H2 9874   3.346   3.735   2.747 -0.2662 -0.2783  0.6269
 3305TIP3   OH2 9875   1.444   3.806   2.173 -0.3050 -0.0419  0.0749
 3305TIP3    H1 9876   1.372   3.793   2.235 -1.6263  0.9888 -1.2008
 3305TIP3    H2 9877   1.411   3.871   2.111  2.2855  1.5660  0.3083
 3306TIP3   OH2 9878   2.207   3.519   5.343 -0.2106  0.0697 -0.0130
 3306TIP3    H1 9879   2.138   3.481   5.397  1.0424  0.0176  1.6037
 3306TIP3    H2 9880   2.240   3.592   5.394  0.7597  0.2480 -0.8700
 3307TIP3   OH2 9881   3.783   2.622   2.168  0.0978 -0.2736  0.5643
 3307TIP3    H1 9882   3.713   2.660   2.114  1.2007 -1.2314 -1.6251
 3307TIP3    H2 9883   3.850   2.690   2.173 -0.5489  0.2869  1.8440
 3308TIP3   OH2 9884   2.037   5.007   2.888 -0.4478 -0.3754 -0.2565
 3308TIP3    H1 9885   2.006   5.073   2.950 -3.2287 -1.4855 -0.4147
 3308TIP3    H2 9886   1.964   4.993   2.828 -0.0515 -3.8560 -0.0323
 3309TIP3   OH2 9887   2.857   2.409   3.963 -0.4656 -0.0924 -0.4945
 3309TIP3    H1 9888   2.837   2.502   3.955 -0.4388  0.0250  0.6618
 3309TIP3    H2 9889   2.814   2.382   4.045  0.1871 -0.9038 -0.4048
 3310TIP3   OH2 9890   3.256   2.594   5.909 -0.4539  0.0528 -0.2414
 3310TIP3    H1 9891   3.289   2.506   5.925  1.2876  0.7411  0.0648
 3310TIP3    H2 9892   3.166   2.581   5.878  0.5853 -1.9526 -2.6006
 3311TIP3   OH2 9893   0.197   6.021   4.631 -0.2500 -0.1049 -0.5653
 3311TIP3    H1 9894   0.245   6.051   4.709  0.8400  0.3557 -1.4032
 3311TIP3    H2 9895   0.201   6.096   4.571 -1.5450 -0.2734 -0.8657
 3312TIP3   OH2 9896   1.437   3.146   3.207 -0.0150  0.0747  0.2089
 3312TIP3    H1 9897   1.391   3.129   3.125 -1.0630  0.6481  0.6588
 3312TIP3    H2 9898   1.506   3.208   3.183  0.8092 -1.1022 -0.5476
 3313TIP3   OH2 9899   2.856   2.586   5.398  0.5650  0.0017  0.1840
 3313TIP3    H1 9900   2.828   2.507   5.445 -1.5821 -0.4423 -1.7747
 3313TIP3    H2 9901   2.876   2.555   5.310  2.0192  1.2807  0.0406
 3314TIP3   OH2 9902   7.524   3.882   1.592  0.4029 -0.5470  0.3885
 3314TIP3    H1 9903   7.559   3.946   1.653 -0.7706 -0.8377  1.3739
 3314TIP3    H2 9904   7.458   3.929   1.541 -1.0604 -1.1570  1.6816
 3315TIP3   OH2 9905   1.567   3.926   2.677  0.2988  0.0463  0.4722
 3315TIP3    H1 9906   1.591   4.006   2.724 -1.3333  1.0103 -0.2734
 3315TIP3    H2 9907   1.568   3.857   2.744 -2.9493  1.5663  2.1883
 3316TIP3   OH2 9908   0.811   2.589   3.123 -0.0695 -0.4163 -0.5581
 3316TIP3    H1 9909   0.797   2.680   3.098  2.2443 -0.0856 -0.7927
 3316TIP3    H2 9910   0.826   2.592   3.218  1.1333 -0.3735 -0.7340
 3317TIP3   OH2 9911   0.857   3.123   1.176 -0.0972 -0.6888  0.2273
 3317TIP3    H1 9912   0.863   3.178   1.098 -1.5642  0.3468  0.8361
 3317TIP3    H2 9913   0.808   3.046   1.148  1.8848 -1.6826 -0.6035
 3318TIP3   OH2 9914   4.989   4.926   5.615  0.6697 -0.3753 -0.3786
 3318TIP3    H1 9915   4.938   5.006   5.628  1.0788 -0.2058  0.2129
 3318TIP3    H2 9916   5.043   4.919   5.694  2.0934 -0.1441 -1.3068
 3319TIP3   OH2 9917   0.243   0.076   3.965  0.7610 -0.0768 -0.0637
 3319TIP3    H1 9918   0.197   0.012   3.909 -0.5298  0.8524 -0.0950
 3319TIP3    H2 9919   0.307   0.116   3.907  1.9816 -1.7444  0.1025
 3320TIP3   OH2 9920   1.949   5.836   2.964  0.2517  0.0984  0.0897
 3320TIP3    H1 9921   1.973   5.750   2.931 -1.7598 -0.1111 -0.8630
 3320TIP3    H2 9922   1.955   5.894   2.888 -1.2558  0.2288  0.0578
 3321TIP3   OH2 9923   2.978   3.445   2.933  0.1262  0.0399 -0.1210
 3321TIP3    H1 9924   2.917   3.462   2.861  0.2450  1.1095  0.0162
 3321TIP3    H2 9925   3.008   3.532   2.960  1.1300 -0.4297  0.3156
 3322TIP3   OH2 9926   1.569   4.471   2.964 -0.1758  0.2180 -0.7174
 3322TIP3    H1 9927   1.503   4.467   3.033  1.3670 -0.3934  0.7629
 3322TIP3    H2 9928   1.570   4.383   2.927 -0.6293  0.4000 -1.1604
 3323TIP3   OH2 9929   1.998   4.886   3.776  0.0058  0.0395 -0.1732
 3323TIP3    H1 9930   2.032   4.847   3.696 -0.5386 -1.4709  0.3222
 3323TIP3    H2 9931   2.069   4.878   3.839  0.5938  1.6278 -0.6122
 3324TIP3   OH2 9932   2.560   4.886   6.156 -0.8240  0.1362  0.0776
 3324TIP3    H1 9933   2.638   4.922   6.199 -1.8708  1.7158  0.6733
 3324TIP3    H2 9934   2.530   4.956   6.099 -2.8120  0.1680  1.1447
 3325TIP3   OH2 9935   2.986   3.831   2.147  0.2299 -0.0057  0.1062
 3325TIP3    H1 9936   3.004   3.789   2.231 -0.2895 -0.1592  0.1481
 3325TIP3    H2 9937   3.059   3.805   2.091 -1.1259 -2.7714 -0.5061
 3326TIP3   OH2 9938   3.908   4.976   0.816 -0.5383 -1.0562 -0.0197
 3326TIP3    H1 9939   3.936   4.954   0.727 -1.4897 -0.7797 -0.3849
 3326TIP3    H2 9940   3.846   5.048   0.806  2.0466  1.4224  1.1353
 3327TIP3   OH2 9941   2.831   3.866   3.743 -0.2346  0.5635 -0.3633
 3327TIP3    H1 9942   2.886   3.798   3.705  0.7344  1.1302  0.0047
 3327TIP3    H2 9943   2.840   3.940   3.682  0.1873  0.9841  0.2046
 3328TIP3   OH2 9944   3.159   4.182   5.373  0.2225 -0.0613  0.1194
 3328TIP3    H1 9945   3.245   4.212   5.342  0.1425 -1.1320 -1.1460
 3328TIP3    H2 9946   3.176   4.096   5.412 -0.3489 -0.4818 -0.5504
 3329TIP3   OH2 9947   1.792   3.543   3.239 -0.1319 -0.3942  0.4985
 3329TIP3    H1 9948   1.867   3.601   3.228 -1.2146  0.7015 -1.1443
 3329TIP3    H2 9949   1.782   3.535   3.334  0.6282  1.2929  0.7314
 3330TIP3   OH2 9950   0.339   3.792   3.199  0.9718  0.3874  0.3551
 3330TIP3    H1 9951   0.346   3.709   3.246  0.2191  0.4503  0.5942
 3330TIP3    H2 9952   0.280   3.772   3.125 -2.4920  1.6375  2.6479
 3331TIP3   OH2 9953   1.708   4.200   1.741 -0.3342  0.0795  0.1744
 3331TIP3    H1 9954   1.636   4.208   1.679 -0.0888  1.0309  0.0133
 3331TIP3    H2 9955   1.778   4.254   1.705 -0.3615  1.0440  1.5303
 3332TIP3   OH2 9956   4.587   5.827   6.271  0.2248 -0.1070 -0.2579
 3332TIP3    H1 9957   4.570   5.914   6.235 -0.4005 -0.3427 -0.5417
 3332TIP3    H2 9958   4.541   5.826   6.354  1.7496  0.4730  0.6155
 3333TIP3   OH2 9959   1.763   3.576   3.492 -0.1031  0.2101 -0.7753
 3333TIP3    H1 9960   1.788   3.668   3.483  0.6013  0.0104 -0.8871
 3333TIP3    H2 9961   1.778   3.556   3.585 -0.4478  0.2612 -0.7070
 3334TIP3   OH2 9962   2.770   3.478   3.482  0.1363  0.3252 -0.1641
 3334TIP3    H1 9963   2.793   3.404   3.425 -0.4855  0.2480 -0.3260
 3334TIP3    H2 9964   2.685   3.508   3.448 -0.8075 -0.4496  1.4420
 3335TIP3   OH2 9965   0.492   3.514   4.411 -0.3072 -0.0287  0.0951
 3335TIP3    H1 9966   0.542   3.450   4.360  0.4729  1.3797 -0.9163
 3335TIP3    H2 9967   0.480   3.472   4.496  1.2217 -1.0318 -0.1687
 3336TIP3   OH2 9968   2.556   2.253   2.451  0.3828 -0.1160  0.2167
 3336TIP3    H1 9969   2.623   2.280   2.514  1.5239  0.2424 -1.1273
 3336TIP3    H2 9970   2.591   2.172   2.413  0.2631  0.3166 -0.8178
 3337TIP3   OH2 9971   1.274   4.251   1.593 -0.1821 -1.0654 -0.3663
 3337TIP3    H1 9972   1.285   4.183   1.525  0.4483 -0.4334 -0.9065
 3337TIP3    H2 9973   1.305   4.331   1.551  0.6384 -0.7507  0.8270
 3338TIP3   OH2 9974   2.351   3.370   2.667  0.1220 -0.2544  0.4379
 3338TIP3    H1 9975   2.418   3.406   2.609  0.4967 -1.8613 -0.1527
 3338TIP3    H2 9976   2.271   3.419   2.646  0.5798  0.1014 -0.4687
 3339TIP3   OH2 9977   2.074   2.188   2.206 -0.3870  0.1673 -0.2981
 3339TIP3    H1 9978   2.159   2.151   2.228  0.1974  1.4104 -0.4129
 3339TIP3    H2 9979   2.053   2.247   2.278 -0.8041  0.4211 -0.6193
 3340TIP3   OH2 9980   4.065   2.246   4.762  0.2016  0.1412  0.9323
 3340TIP3    H1 9981   4.036   2.203   4.843  0.7616  0.5615  1.3632
 3340TIP3    H2 9982   4.034   2.188   4.692  1.0619 -1.0450  1.5119
 3341TIP3   OH2 9983   1.871   1.080   0.780  0.0442  0.2701 -0.2305
 3341TIP3    H1 9984   1.940   1.107   0.718 -0.0461 -0.9425 -0.8788
 3341TIP3    H2 9985   1.843   0.994   0.748 -1.1589  0.3666  0.5508
 3342TIP3   OH2 9986   6.806   1.575   1.242 -0.8262 -0.8118  0.3193
 3342TIP3    H1 9987   6.869   1.526   1.296 -0.5828 -0.7267  0.1158
 3342TIP3    H2 9988   6.759   1.630   1.304  0.2869  0.1811  0.2954
 3343TIP3   OH2 9989   4.068   3.953   2.302 -0.0629  0.5026  0.2546
 3343TIP3    H1 9990   4.060   3.858   2.308  2.7385  0.2630  0.4181
 3343TIP3    H2 9991   4.147   3.968   2.252  0.1472  2.7642  1.2029
 3344TIP3   OH2 9992   7.507   3.391   2.641  0.6264  0.0867 -0.2453
 3344TIP3    H1 9993   7.469   3.304   2.624 -1.3891  0.4711  2.1179
 3344TIP3    H2 9994   7.551   3.382   2.725  0.0794  1.4809  0.1976
 3345TIP3   OH2 9995   7.685   2.982   3.519 -0.3035  0.0745  0.0096
 3345TIP3    H1 9996   7.749   2.939   3.576 -0.5443  0.3106  0.4558
 3345TIP3    H2 9997   7.738   3.035   3.459 -0.0825  0.3354  0.4342
 3346TIP3   OH2 9998   0.606   3.882   2.645 -0.3242  0.5814  0.6266
 3346TIP3    H1 9999   0.610   3.870   2.551  0.8002 -1.2291  0.8784
 3346TIP3    H210000   0.682   3.936   2.665 -0.4233  0.7568  0.5328
 3347TIP3   OH210001   1.725   4.710   4.284  0.0009 -0.0257 -0.1685
 3347TIP3    H110002   1.705   4.803   4.297  1.0460  0.2261 -0.3630
 3347TIP3    H210003   1.716   4.698   4.189  2.2288  0.4378 -0.4580
 3348TIP3   OH210004   5.969   0.179   4.260  0.0620 -0.5519 -0.3643
 3348TIP3    H110005   5.989   0.097   4.305  2.2997 -0.3400 -0.8973
 3348TIP3    H210006   5.976   0.245   4.329 -1.3493 -0.7602 -0.0174
 3349TIP3   OH210007   2.609   1.568   4.844 -0.7183 -0.2614  0.5369
 3349TIP3    H110008   2.569   1.598   4.926 -0.6611  0.3172  0.3575
 3349TIP3    H210009   2.597   1.473   4.845 -1.7758 -0.1411  0.6571
 3350TIP3   OH210010   1.396   5.117   3.698  0.5568  0.1460 -0.3125
 3350TIP3    H110011   1.309   5.130   3.661  0.5422 -1.5232 -0.9349
 3350TIP3    H210012   1.431   5.205   3.710 -1.2701  0.8417  0.0913
 3351TIP3   OH210013   0.580   4.233   4.252 -0.1297 -0.0805 -0.5742
 3351TIP3    H110014   0.653   4.172   4.266 -0.6024  0.0629  2.9268
 3351TIP3    H210015   0.510   4.179   4.216  0.3882 -1.0346 -0.1649
 3352TIP3   OH210016   1.522   4.559   4.651  0.2456  0.0956  0.1424
 3352TIP3    H110017   1.486   4.492   4.593  1.7135 -0.4356 -0.1693
 3352TIP3    H210018   1.470   4.551   4.731 -1.4680  0.5073 -0.9085
 3353TIP3   OH210019   3.073   4.361   2.650  0.0430  0.8008 -0.3381
 3353TIP3    H110020   3.166   4.376   2.631 -0.1529  0.6452 -1.4171
 3353TIP3    H210021   3.031   4.446   2.636 -0.0349  0.7887 -0.1777
 3354TIP3   OH210022   2.244   3.941   2.647 -0.1250 -0.5213 -0.1063
 3354TIP3    H110023   2.322   3.933   2.593  0.2336  0.2012  0.2873
 3354TIP3    H210024   2.184   3.875   2.614  0.1712 -0.2234 -1.2482
 3355TIP3   OH210025   1.018   3.615   1.709  0.0509  0.1536 -0.6503
 3355TIP3    H110026   0.943   3.559   1.690  0.2355 -0.4756  0.4504
 3355TIP3    H210027   1.092   3.555   1.718  0.2837  0.5842  0.3907
 3356TIP3   OH210028   2.770   5.657   4.062 -0.0873 -0.2527  0.0812
 3356TIP3    H110029   2.819   5.576   4.058  3.2830  1.5848  1.9512
 3356TIP3    H210030   2.708   5.644   4.134  1.3789 -0.7000  1.2843
 3357TIP3   OH210031   1.826   1.097   4.573  0.5526  0.2574 -0.0293
 3357TIP3    H110032   1.756   1.161   4.584  0.0823 -0.3730  0.7152
 3357TIP3    H210033   1.815   1.063   4.484 -0.4105 -0.2069  0.2622
 3358TIP3   OH210034   3.525   5.175   3.653  0.1073  0.2208  0.3503
 3358TIP3    H110035   3.466   5.148   3.584 -0.3159 -1.9861  1.5336
 3358TIP3    H210036   3.469   5.185   3.731  0.7217  1.7202  0.6267
 3359TIP3   OH210037   3.712   3.278   2.002 -0.0749 -0.6931 -0.0317
 3359TIP3    H110038   3.684   3.338   2.071  1.7805 -0.6417  0.7164
 3359TIP3    H210039   3.632   3.233   1.975 -0.5176 -2.6248  3.9881
 3360TIP3   OH210040   2.808   1.898   2.554 -0.4143  0.3522  0.3194
 3360TIP3    H110041   2.756   1.895   2.635  0.7671 -0.4445  1.0662
 3360TIP3    H210042   2.882   1.955   2.576  1.3545 -2.0200  0.6896
 3361TIP3   OH210043   7.243   5.084   1.837 -0.6434 -0.3134 -0.1331
 3361TIP3    H110044   7.154   5.050   1.845 -0.7090 -0.1937 -0.3470
 3361TIP3    H210045   7.248   5.155   1.900 -0.1186 -1.5164  1.2015
 3362TIP3   OH210046   2.175   1.167   1.101  0.3933 -0.2825 -0.6825
 3362TIP3    H110047   2.186   1.215   1.183  0.4554 -2.0476  0.3703
 3362TIP3    H210048   2.092   1.121   1.112  0.2320 -0.2555 -1.7668
 3363TIP3   OH210049   1.940   3.043   3.650  0.0444 -0.0603 -0.3850
 3363TIP3    H110050   1.944   3.125   3.601  0.1340 -0.7996 -1.6386
 3363TIP3    H210051   2.031   3.024   3.673  0.1304 -0.2948 -0.9177
 3364TIP3   OH210052   1.995   1.907   2.248  0.0623  0.5943  0.2946
 3364TIP3    H110053   2.078   1.862   2.232  0.8690  1.1883  2.6482
 3364TIP3    H210054   2.010   1.997   2.218  0.1694  0.6394  0.4871
 3365TIP3   OH210055   1.378   4.716   2.381  0.0633 -0.6608 -0.6245
 3365TIP3    H110056   1.347   4.802   2.409  0.8574 -0.2518 -0.9753
 3365TIP3    H210057   1.385   4.723   2.286 -0.1291 -1.2028 -0.6802
 3366TIP3   OH210058   7.601   5.185   2.961 -0.3373 -0.3439  0.5402
 3366TIP3    H110059   7.594   5.242   3.038 -0.4917 -0.0999  0.3480
 3366TIP3    H210060   7.535   5.219   2.901  0.9915  0.5744 -0.4238
 3367TIP3   OH210061   1.822   2.295   0.722  0.2421 -0.2723  0.4951
 3367TIP3    H110062   1.914   2.298   0.750  0.4329  2.6495 -0.3414
 3367TIP3    H210063   1.824   2.315   0.629 -1.3196  0.7974  0.6711
 3368TIP3   OH210064   1.594   4.879   0.472  0.2207  0.3049 -0.1812
 3368TIP3    H110065   1.579   4.961   0.519  2.8885  0.4183  0.5612
 3368TIP3    H210066   1.580   4.901   0.380 -0.9739  1.0953  0.1715
 3369TIP3   OH210067   1.512   4.653   1.545 -0.3972 -0.5236  0.0217
 3369TIP3    H110068   1.471   4.732   1.511  1.6159 -0.3273 -2.0112
 3369TIP3    H210069   1.549   4.680   1.629  0.9514  0.9018 -1.0162
 3370TIP3   OH210070   2.061   3.211   5.117  0.5522  0.1733  0.2731
 3370TIP3    H110071   1.987   3.261   5.152  1.0897  0.9242  0.3580
 3370TIP3    H210072   2.022   3.131   5.082 -0.2289  0.3103  0.8207
 3371TIP3   OH210073  -0.001   0.927   0.436  0.4032 -0.2183 -0.1449
 3371TIP3    H110074  -0.061   0.858   0.409 -2.0319  2.0422 -0.6753
 3371TIP3    H210075   0.082   0.905   0.393 -0.7226 -1.9824 -1.4712
 3372TIP3   OH210076   1.216   4.348   2.099 -0.4975 -0.3402  0.1448
 3372TIP3    H110077   1.283   4.365   2.165 -1.0148  0.8512  0.3756
 3372TIP3    H210078   1.163   4.428   2.098 -0.7440 -0.5102 -1.4165
 3373TIP3   OH210079   4.543   3.503   1.552  0.0241  0.0255  0.0781
 3373TIP3    H110080   4.556   3.460   1.468 -0.9719  0.1938 -0.1653
 3373TIP3    H210081   4.625   3.551   1.567  0.4429 -0.5044 -0.4928
 3374TIP3   OH210082   5.878   5.176   2.301  0.2507 -0.1860 -0.1768
 3374TIP3    H110083   5.927   5.223   2.234 -1.8124  0.2094 -1.4493
 3374TIP3    H210084   5.805   5.234   2.323  0.9658 -0.2456  2.5377
 3375TIP3   OH210085   4.658   3.735   3.200  0.5679 -0.0697 -0.4329
 3375TIP3    H110086   4.578   3.712   3.154  0.7803 -0.2215 -0.7288
 3375TIP3    H210087   4.655   3.683   3.281 -1.4489  2.7160  1.3747
 3376TIP3   OH210088   4.796   3.579   2.477 -0.0580 -0.7733  0.0599
 3376TIP3    H110089   4.812   3.580   2.383  1.4039 -1.7744  0.2872
 3376TIP3    H210090   4.708   3.543   2.486 -0.5252  0.0794 -0.9521
 3377TIP3   OH210091   2.701   5.702   2.337 -0.5946  0.3232  0.5341
 3377TIP3    H110092   2.753   5.626   2.362 -0.3206  0.8118  1.4813
 3377TIP3    H210093   2.619   5.665   2.303 -0.2848 -0.4011  0.5743
 3378TIP3   OH210094   1.273   5.412   3.837 -0.4987 -0.2215 -0.2534
 3378TIP3    H110095   1.214   5.475   3.795 -0.6762 -0.6429 -0.6445
 3378TIP3    H210096   1.227   5.387   3.917 -0.1843  0.5427  0.1673
 3379TIP3   OH210097   0.339   6.197   6.303  0.2279 -0.0829 -0.1272
 3379TIP3    H110098   0.421   6.189   6.351  2.0311 -0.1140 -3.0694
 3379TIP3    H210099   0.336   6.118   6.248 -1.0036  0.6597 -1.1521
 3380TIP3   OH210100   3.294   4.308   4.244  0.0159 -0.0944 -0.2590
 3380TIP3    H110101   3.332   4.370   4.181  0.4871 -1.0616 -0.9337
 3380TIP3    H210102   3.211   4.348   4.270  0.9016  1.4418  0.2791
 3381TIP3   OH210103   3.197   4.924   1.788  0.0386 -0.2177 -0.2867
 3381TIP3    H110104   3.148   4.862   1.733  0.6183 -0.7964 -0.1600
 3381TIP3    H210105   3.288   4.897   1.778  0.4713  1.5537 -1.4340
 3382TIP3   OH210106   4.573   2.883   3.165 -0.1830 -0.1062 -0.4527
 3382TIP3    H110107   4.644   2.839   3.119 -0.2956 -1.1245  0.3229
 3382TIP3    H210108   4.539   2.817   3.226 -0.4492  1.0003  0.6218
 3383TIP3   OH210109   6.237   2.878   2.606 -0.1917  0.4446  0.2287
 3383TIP3    H110110   6.281   2.796   2.582 -1.0392 -0.3458  1.3194
 3383TIP3    H210111   6.231   2.927   2.524  0.3603 -0.5610 -0.4269
 3384TIP3   OH210112   2.887   3.889   1.430 -0.1236 -0.3526  0.0533
 3384TIP3    H110113   2.959   3.948   1.410 -0.9340  0.7391  0.2820
 3384TIP3    H210114   2.918   3.803   1.403  0.9563  0.2267 -0.5854
 3385TIP3   OH210115   4.864   3.662   3.856  0.3235  0.1137  0.2561
 3385TIP3    H110116   4.867   3.745   3.807  0.0658 -0.2677 -0.4219
 3385TIP3    H210117   4.854   3.688   3.947  0.4887  0.8385  0.0694
 3386TIP3   OH210118   4.321   4.419   0.620  0.5312  0.1449  0.0052
 3386TIP3    H110119   4.286   4.343   0.573  0.6417 -1.3765  2.3188
 3386TIP3    H210120   4.340   4.482   0.551  1.4782 -2.3189 -2.0879
 3387TIP3   OH210121   5.863   2.773   3.929 -0.1304 -0.8367  0.6683
 3387TIP3    H110122   5.817   2.793   4.010 -0.1046 -1.3430  0.8069
 3387TIP3    H210123   5.941   2.829   3.931 -0.5509 -0.2413  0.5987
 3388TIP3   OH210124   4.602   2.340   0.738  0.7824 -0.6193 -0.2318
 3388TIP3    H110125   4.647   2.256   0.726  0.9367 -0.3454 -1.6750
 3388TIP3    H210126   4.671   2.401   0.763  0.6124 -0.9979  1.1779
 3389TIP3   OH210127   5.511   2.821   2.539  0.0079  0.4971  0.2037
 3389TIP3    H110128   5.453   2.767   2.485 -1.1693  0.3015  1.6309
 3389TIP3    H210129   5.481   2.911   2.522  0.0331  0.4784  0.0623
 3390TIP3   OH210130   3.669   4.685   3.679  0.3484 -0.0266  0.5153
 3390TIP3    H110131   3.726   4.612   3.704 -0.6114 -0.5050  1.3173
 3390TIP3    H210132   3.652   4.671   3.586  0.7421 -0.4327  0.5017
 3391TIP3   OH210133   1.391   1.948   5.856  0.3129 -0.3258  0.2409
 3391TIP3    H110134   1.321   2.012   5.871  0.9565  0.5538 -0.4364
 3391TIP3    H210135   1.468   2.001   5.836  1.2145 -1.2847  1.1212
 3392TIP3   OH210136   1.932   3.843   3.614  0.1847  0.0505 -0.2081
 3392TIP3    H110137   1.963   3.755   3.634  1.8391  0.6093 -0.2009
 3392TIP3    H210138   1.983   3.900   3.672 -1.9696  0.9134  0.9237
 3393TIP3   OH210139   4.898   3.422   0.851  0.3752  0.0881 -0.0988
 3393TIP3    H110140   4.977   3.368   0.849  1.4921  1.6978 -0.3438
 3393TIP3    H210141   4.924   3.505   0.812 -1.4096  0.6931 -0.0574
 3394TIP3   OH210142   3.484   4.369   1.227 -0.2289  0.1368 -0.2948
 3394TIP3    H110143   3.389   4.364   1.214 -0.2381  0.0067 -0.1863
 3394TIP3    H210144   3.498   4.454   1.269 -0.5423 -0.7420  1.6768
 3395TIP3   OH210145   4.370   3.556   2.132 -0.1794 -0.1544  0.0184
 3395TIP3    H110146   4.380   3.471   2.175  0.0217 -0.0566  0.1646
 3395TIP3    H210147   4.455   3.574   2.094 -0.6667 -0.7618 -1.3881
 3396TIP3   OH210148   3.567   4.983   2.327 -0.2081  0.1363 -0.3098
 3396TIP3    H110149   3.582   4.982   2.422 -1.3848  1.1193 -0.1015
 3396TIP3    H210150   3.474   5.004   2.318 -0.6131 -2.1126 -1.6383
 3397TIP3   OH210151   4.851   4.598   4.874  0.4830 -0.2613 -0.5359
 3397TIP3    H110152   4.820   4.510   4.857  0.5336 -0.1247 -1.3510
 3397TIP3    H210153   4.778   4.655   4.850  0.7011 -0.0402 -0.6829
 3398TIP3   OH210154   6.507   3.990   3.276  0.2057 -0.2879 -0.0989
 3398TIP3    H110155   6.541   3.941   3.352 -0.6910 -1.5587 -0.5046
 3398TIP3    H210156   6.416   4.009   3.298  0.2794  0.3752 -0.3602
 3399TIP3   OH210157   3.646   2.129   3.166 -0.4000  0.6870 -0.3538
 3399TIP3    H110158   3.615   2.212   3.130 -1.0657  0.2912 -0.7003
 3399TIP3    H210159   3.723   2.153   3.218 -0.0782  1.4073 -1.1452
 3400TIP3   OH210160   3.595   4.389   2.972  0.5057 -0.1658  0.0344
 3400TIP3    H110161   3.527   4.379   2.906 -0.6486 -0.2183  1.2229
 3400TIP3    H210162   3.674   4.352   2.931 -0.0433  0.3851 -1.5410
 3401TIP3   OH210163   3.417   5.897   2.699 -0.2958 -0.4212  1.0817
 3401TIP3    H110164   3.430   5.850   2.782  1.1483 -2.3207 -0.1711
 3401TIP3    H210165   3.407   5.827   2.634  0.5461  1.0341 -0.6338
 3402TIP3   OH210166   5.175   3.563   2.332 -0.2991 -0.5722 -0.2701
 3402TIP3    H110167   5.176   3.472   2.361 -2.4340  0.0947  2.1113
 3402TIP3    H210168   5.150   3.612   2.410  0.3305  2.0136 -1.6521
 3403TIP3   OH210169   2.326   3.613   2.957 -0.5845  0.2526  0.1533
 3403TIP3    H110170   2.246   3.641   2.913  0.1476 -0.4169 -1.6881
 3403TIP3    H210171   2.313   3.520   2.974  0.1566 -0.0836 -1.0319
 3404TIP3   OH210172   1.466   2.732   0.852  0.1748 -0.0692 -0.3457
 3404TIP3    H110173   1.510   2.665   0.906 -0.2527 -0.8773 -0.9890
 3404TIP3    H210174   1.518   2.811   0.866 -0.2362 -0.1148  1.6969
 3405TIP3   OH210175   5.783   3.386   1.998 -0.3896  0.0067 -0.5983
 3405TIP3    H110176   5.719   3.402   2.067  0.6718  1.6098  0.0413
 3405TIP3    H210177   5.865   3.371   2.044 -0.4621 -3.1555 -1.3712
 3406TIP3   OH210178   5.520   3.945   3.061 -0.0250 -0.1868 -0.0330
 3406TIP3    H110179   5.511   3.945   2.966  2.1798  2.0218 -0.3029
 3406TIP3    H210180   5.452   4.004   3.092  0.3053  0.3770 -0.3789
 3407TIP3   OH210181   4.336   5.721   1.615  0.1005 -0.0824 -0.2185
 3407TIP3    H110182   4.332   5.810   1.649 -4.0078 -0.6548  1.0952
 3407TIP3    H210183   4.321   5.665   1.692  0.2323 -1.7756 -1.3991
 3408TIP3   OH210184   2.354   3.330   2.964 -0.1938 -0.3713  0.6284
 3408TIP3    H110185   2.425   3.315   3.026 -1.0356  0.6772  1.8747
 3408TIP3    H210186   2.384   3.291   2.882  2.0587  0.5844  0.9769
 3409TIP3   OH210187   5.205   2.719   3.750  0.1960  0.5978  0.0339
 3409TIP3    H110188   5.245   2.637   3.777 -0.0360  0.5190  0.1370
 3409TIP3    H210189   5.135   2.693   3.690  0.5282  0.7548 -0.4322
 3410TIP3   OH210190   3.653   3.607   2.399 -0.4579 -0.3027  0.4422
 3410TIP3    H110191   3.664   3.591   2.305  0.3257 -3.0080  0.9432
 3410TIP3    H210192   3.734   3.650   2.426  0.1423 -1.2723  0.2181
 3411TIP3   OH210193   5.720   5.695   2.508  0.4861 -0.0135 -0.3286
 3411TIP3    H110194   5.769   5.757   2.562 -2.0582  1.0879  0.7502
 3411TIP3    H210195   5.769   5.613   2.516  2.6490  1.2766 -0.0054
 3412TIP3   OH210196   3.619   4.042   2.989 -0.0401 -0.2998 -0.4419
 3412TIP3    H110197   3.673   4.018   2.914  2.7684  1.1865  1.0332
 3412TIP3    H210198   3.539   4.079   2.950  1.4688  0.6933 -2.7189
 3413TIP3   OH210199   3.383   1.981   1.096 -0.2667 -0.5242  0.3072
 3413TIP3    H110200   3.365   2.010   1.186 -0.9260  1.9915 -0.5830
 3413TIP3    H210201   3.313   2.021   1.044  0.3720 -1.5787 -1.3915
 3414TIP3   OH210202   3.747   5.166   3.809 -0.3072  0.0940  0.6999
 3414TIP3    H110203   3.759   5.075   3.833 -0.2468 -0.1165 -0.1166
 3414TIP3    H210204   3.679   5.164   3.741  2.0818  0.3204 -1.7651
 3415TIP3   OH210205   4.684   2.362   3.477 -0.4004 -0.1578 -1.0555
 3415TIP3    H110206   4.773   2.348   3.445 -0.1388 -0.0017 -0.3972
 3415TIP3    H210207   4.635   2.286   3.444  0.2786 -0.9508 -0.2742
 3416TIP3   OH210208   2.684   4.934   4.005 -0.4576  0.5459  0.1705
 3416TIP3    H110209   2.706   5.020   3.968 -1.5801  0.2518 -1.2205
 3416TIP3    H210210   2.625   4.895   3.940  0.9688 -1.7499  0.2102
 3417TIP3   OH210211   3.937   4.216   2.307  0.0261 -0.6175  0.6278
 3417TIP3    H110212   3.948   4.123   2.291 -0.2224 -1.0222  2.7062
 3417TIP3    H210213   3.866   4.243   2.248 -0.0658 -1.7800  0.2044
 3418TIP3   OH210214   3.503   3.938   2.035  0.2108  0.2909 -0.1996
 3418TIP3    H110215   3.425   3.966   1.986  0.7355  0.5465 -0.9125
 3418TIP3    H210216   3.542   3.869   1.981  1.0173  0.8533 -0.3505
 3419TIP3   OH210217   2.773   3.904   2.535  0.5705 -0.2859  0.7658
 3419TIP3    H110218   2.847   3.859   2.576  0.6735 -1.5859 -0.7905
 3419TIP3    H210219   2.801   3.995   2.527  2.0551 -0.7825  0.1096
 3420TIP3   OH210220   5.490   3.577   1.785 -0.6069 -0.0291 -0.1167
 3420TIP3    H110221   5.582   3.551   1.795 -1.2110 -2.3529 -0.3871
 3420TIP3    H210222   5.494   3.672   1.771  1.8338 -0.2365 -1.1968
 3421TIP3   OH210223   5.285   3.155   1.664 -0.2369 -0.3974  0.1771
 3421TIP3    H110224   5.297   3.249   1.652  0.7492 -0.5675 -0.2122
 3421TIP3    H210225   5.218   3.132   1.599 -1.5719  0.2814  1.2860
 3422TIP3   OH210226   5.445   4.288   1.944  0.3050  0.2387  0.9616
 3422TIP3    H110227   5.524   4.290   1.997  1.3287  1.8796 -0.5473
 3422TIP3    H210228   5.475   4.308   1.855 -1.5695 -0.8111  0.0440
 3423TIP3   OH210229   4.282   3.249   3.409 -0.3469 -0.1196  0.3755
 3423TIP3    H110230   4.291   3.168   3.460  0.7754  0.2638  0.8051
 3423TIP3    H210231   4.373   3.274   3.389 -0.6326  1.6959  1.3016
 3424TIP3   OH210232   5.043   4.930   0.767 -0.6684  0.0533  0.2756
 3424TIP3    H110233   5.115   4.991   0.753  0.2411 -1.2678 -0.8990
 3424TIP3    H210234   4.964   4.983   0.753  0.1225  0.6015 -2.4179
 3425TIP3   OH210235   2.773   2.280   1.585  0.0142 -0.2731  0.5360
 3425TIP3    H110236   2.743   2.368   1.564  0.2501 -0.0914  0.9402
 3425TIP3    H210237   2.815   2.290   1.671  3.5917  0.0013 -1.1607
 3426TIP3   OH210238   2.662   2.592   1.849 -0.1914 -0.1920  0.4710
 3426TIP3    H110239   2.646   2.682   1.877  0.2709 -0.5206  1.8095
 3426TIP3    H210240   2.575   2.552   1.847 -0.4565  0.4397 -0.6725
 3427TIP3   OH210241   4.524   4.194   1.063 -0.0013  0.0954  0.6781
 3427TIP3    H110242   4.459   4.236   1.007  0.7551  1.9448  1.1585
 3427TIP3    H210243   4.559   4.122   1.010  1.0807  2.1224 -1.3958
 3428TIP3   OH210244   3.353   2.863   2.618 -0.1610 -0.2628  0.2076
 3428TIP3    H110245   3.306   2.883   2.699 -0.0340  0.8761  0.0058
 3428TIP3    H210246   3.440   2.835   2.646 -0.3076 -0.4317  0.4895
 3429TIP3   OH210247   1.777   4.433   0.979  0.3663  0.0345  0.3444
 3429TIP3    H110248   1.709   4.499   0.968  0.7939  1.1543  3.5993
 3429TIP3    H210249   1.729   4.353   1.000 -0.0188  0.7374  2.2815
 3430TIP3   OH210250   2.754   1.602   1.950 -0.2472  0.7894  0.2393
 3430TIP3    H110251   2.721   1.638   2.032  0.3820  0.7090  0.5358
 3430TIP3    H210252   2.810   1.529   1.977  1.9875  2.3073 -0.1011
 3431TIP3   OH210253   3.719   3.515   2.756  0.3446 -0.2185 -0.0223
 3431TIP3    H110254   3.790   3.477   2.705  1.0649  1.8038 -0.6017
 3431TIP3    H210255   3.750   3.603   2.778 -1.7736  0.5390  0.1111
 3432TIP3   OH210256   3.367   2.595   1.418 -0.6447 -0.2412  0.3045
 3432TIP3    H110257   3.365   2.530   1.488  0.4707 -0.3383  0.2624
 3432TIP3    H210258   3.419   2.667   1.453 -1.0187  0.1875 -0.0160
 3433TIP3   OH210259   3.792   3.436   3.841 -0.3218  0.3517 -0.4130
 3433TIP3    H110260   3.775   3.346   3.869  0.3120  0.5627  0.6945
 3433TIP3    H210261   3.860   3.428   3.774 -0.8539 -0.0535 -0.9084
 3434TIP3   OH210262   4.994   2.265   0.683 -0.4799  0.3903 -0.4913
 3434TIP3    H110263   4.923   2.272   0.619 -0.5420 -1.4699 -0.6449
 3434TIP3    H210264   4.956   2.214   0.754  1.0809 -1.6745 -1.1214
 3435TIP3   OH210265   2.525   3.655   3.603  0.3616 -0.1793  0.4406
 3435TIP3    H110266   2.569   3.652   3.688 -0.0625 -1.7599  0.6106
 3435TIP3    H210267   2.440   3.695   3.621  0.9155  1.0139  0.4608
 3436TIP3   OH210268   2.490   2.937   2.947 -0.4283  0.6792 -0.2044
 3436TIP3    H110269   2.412   2.942   3.003 -0.5665  0.2713 -0.3602
 3436TIP3    H210270   2.482   3.012   2.889 -1.2436  0.0639 -0.9082
 3437TIP3   OH210271   2.546   3.997   1.278 -0.2548 -0.9809  0.0300
 3437TIP3    H110272   2.450   3.993   1.282 -0.2219 -0.8762  1.0711
 3437TIP3    H210273   2.573   3.907   1.260 -0.5269 -1.1081  0.2594
 3438TIP3   OH210274   5.814   3.911   2.686  0.4715 -0.3997 -0.4293
 3438TIP3    H110275   5.775   3.828   2.714  0.2083 -0.4419 -0.9242
 3438TIP3    H210276   5.908   3.899   2.702  0.4454 -0.8242 -0.5733
 3439TIP3   OH210277   4.862   2.883   2.558 -0.2004 -0.2090  0.1261
 3439TIP3    H110278   4.787   2.942   2.555 -2.1397 -2.6764 -1.5498
 3439TIP3    H210279   4.849   2.831   2.637 -0.5794 -1.0052 -0.4495
 3440TIP3   OH210280   1.166   4.513   1.121 -0.4259  0.4639  0.4211
 3440TIP3    H110281   1.071   4.505   1.117 -0.5649  1.3759  1.6437
 3440TIP3    H210282   1.193   4.445   1.183 -0.4056  1.0412  1.0494
 3441TIP3   OH210283   2.350   2.449   2.375 -0.0111  0.2440 -0.1026
 3441TIP3    H110284   2.356   2.423   2.283  0.9774 -0.5669  0.1753
 3441TIP3    H210285   2.404   2.385   2.421  0.9019  1.6693  0.8396
 3442TIP3   OH210286   1.745   2.045   4.253  0.2464  0.6366 -0.1170
 3442TIP3    H110287   1.706   2.118   4.205  0.3682  0.4280 -0.5380
 3442TIP3    H210288   1.839   2.059   4.244  0.2966  1.7961  1.8909
 3443TIP3   OH210289   1.458   2.215   0.353 -0.2880  0.5231 -0.0150
 3443TIP3    H110290   1.370   2.247   0.335 -0.0293  1.7023  0.7411
 3443TIP3    H210291   1.506   2.228   0.271 -0.3267  1.6083  0.1263
 3444TIP3   OH210292   2.690   3.136   3.828 -0.6615 -0.8346  0.2426
 3444TIP3    H110293   2.690   3.101   3.739  1.2053 -1.9504  0.6571
 3444TIP3    H210294   2.650   3.223   3.819 -3.8415 -2.3363 -1.0511
 3445TIP3   OH210295   2.404   2.326   1.247 -0.2374 -0.0763  0.3020
 3445TIP3    H110296   2.332   2.390   1.250  1.3291  1.6457  2.3672
 3445TIP3    H210297   2.461   2.358   1.177 -0.4211 -0.2982  0.0482
 3446TIP3   OH210298   2.009   4.024   1.452  0.6651  0.2316  0.1562
 3446TIP3    H110299   1.948   4.001   1.522  1.8063  1.5507  1.6175
 3446TIP3    H210300   2.095   4.003   1.487  1.2010  0.1740 -1.1573
 3447TIP3   OH210301   5.594   3.388   1.145 -0.2733  0.4896 -0.2256
 3447TIP3    H110302   5.674   3.341   1.121 -1.0097 -0.8340 -0.1464
 3447TIP3    H210303   5.535   3.373   1.072 -0.7072  0.8238  0.0572
 3448TIP3   OH210304   5.490   2.667   2.152  0.1360  0.2700  0.0881
 3448TIP3    H110305   5.423   2.700   2.212  0.4332 -0.9332  1.0779
 3448TIP3    H210306   5.561   2.637   2.208  0.8591  0.1037 -0.9076
 3449TIP3   OH210307   2.920   3.583   0.137 -0.1345  0.0331  0.1327
 3449TIP3    H110308   2.895   3.508   0.084 -1.8346 -0.3169  1.3764
 3449TIP3    H210309   2.948   3.545   0.221  1.4161  0.6408 -0.1000
 3450TIP3   OH210310   4.942   4.060   2.006 -0.1444  0.5981  0.2462
 3450TIP3    H110311   4.992   4.136   2.037 -1.8474  1.0753  1.8881
 3450TIP3    H210312   4.874   4.097   1.950 -0.0851  0.1467 -0.1282
 3451TIP3   OH210313   3.497   3.531   2.618 -0.3576  0.4239  0.5260
 3451TIP3    H110314   3.556   3.480   2.673  0.2369  0.1255 -0.3726
 3451TIP3    H210315   3.555   3.581   2.560 -0.9728  0.8181  0.2390
 3452TIP3   OH210316   3.607   3.680   1.529  0.1831  0.4977  0.3711
 3452TIP3    H110317   3.554   3.601   1.520 -0.2362  1.0033 -2.0572
 3452TIP3    H210318   3.543   3.752   1.525  0.6798  1.0039  1.3340
 3453TIP3   OH210319   2.027   0.764   0.895 -0.2267  0.3006 -0.4868
 3453TIP3    H110320   1.934   0.738   0.898 -0.0967 -0.1370 -0.0189
 3453TIP3    H210321   2.054   0.744   0.806 -0.2089 -0.9517 -0.2198
 3454TIP3   OH210322   5.369   5.874   3.290  0.0404  0.0811 -0.4697
 3454TIP3    H110323   5.278   5.864   3.320 -0.0481 -0.5871 -0.9401
 3454TIP3    H210324   5.361   5.920   3.207  0.2823  1.9050  0.5125
 3455TIP3   OH210325   3.603   4.165   0.414 -0.0775  0.2109 -0.2260
 3455TIP3    H110326   3.636   4.255   0.406  0.2224 -0.0662 -2.6253
 3455TIP3    H210327   3.675   4.117   0.454 -0.4499  1.1484  1.6022
 3456TIP3   OH210328   4.813   2.493   1.014 -0.3870 -0.2625  0.0777
 3456TIP3    H110329   4.822   2.497   0.919  1.3214 -2.3317  0.1076
 3456TIP3    H210330   4.759   2.569   1.036 -0.1055  0.7319 -2.4408
 3457TIP3   OH210331   6.004   5.712   2.177 -0.2977  0.0514 -1.1008
 3457TIP3    H110332   6.073   5.727   2.242 -0.7578  1.0362 -0.8245
 3457TIP3    H210333   6.035   5.756   2.098 -1.2876  1.8160 -0.5266
 3458TIP3   OH210334   3.237   4.142   3.945  0.1013 -0.1086  0.6589
 3458TIP3    H110335   3.217   4.196   4.021  1.0972 -0.2083  0.9893
 3458TIP3    H210336   3.292   4.072   3.979  0.9089  0.0910 -0.2273
 3459TIP3   OH210337   4.905   3.564   2.201  0.4078  0.4640 -0.3004
 3459TIP3    H110338   4.968   3.517   2.255  0.4379  1.7264  0.7913
 3459TIP3    H210339   4.940   3.653   2.196 -0.1741  0.6316 -1.4793
 3460TIP3   OH210340   1.865   1.334   2.012  0.0171  0.1388 -0.1324
 3460TIP3    H110341   1.804   1.302   2.078 -0.6076 -1.8628 -1.6236
 3460TIP3    H210342   1.839   1.425   1.997 -1.1100  0.0057  0.9247
 3461TIP3   OH210343   4.337   6.901   3.903 -0.9099 -0.2350 -0.5158
 3461TIP3    H110344   4.406   6.893   3.969  0.7970  3.1747 -1.7958
 3461TIP3    H210345   4.370   6.853   3.827 -0.9817 -0.5595 -0.3429
 3462TIP3   OH210346   1.368   4.200   2.885  0.0932  0.6813  0.3477
 3462TIP3    H110347   1.355   4.248   2.803 -1.0112  0.6601  0.4991
 3462TIP3    H210348   1.279   4.178   2.914  0.5271 -0.2498  0.9922
 3463TIP3   OH210349   5.180   2.816   3.405  0.2686  0.1548 -0.5462
 3463TIP3    H110350   5.185   2.905   3.369  0.0767  0.1787 -0.5171
 3463TIP3    H210351   5.113   2.822   3.474  1.2454  0.3049  0.4030
 3464TIP3   OH210352   4.568   6.287   3.846  0.1898 -0.2457  0.0441
 3464TIP3    H110353   4.511   6.355   3.811  1.6364  0.2619 -1.3597
 3464TIP3    H210354   4.607   6.326   3.924 -1.5948 -0.7192  1.2302
 3465TIP3   OH210355   4.514   3.379   1.048 -0.0715 -0.2894  0.4541
 3465TIP3    H110356   4.563   3.402   1.127 -0.4422 -1.2627  0.9749
 3465TIP3    H210357   4.456   3.453   1.033  1.0450  0.5627  0.2423
 3466TIP3   OH210358   1.872   3.989   1.702 -0.1074  0.1327 -0.4397
 3466TIP3    H110359   1.810   4.059   1.724 -2.3707 -1.2777 -2.0606
 3466TIP3    H210360   1.819   3.909   1.707  1.7055 -1.1507 -1.4243
 3467TIP3   OH210361   4.327   4.031   1.568  0.0664  0.1307 -0.0466
 3467TIP3    H110362   4.382   4.066   1.497  0.7943  0.6872  0.7888
 3467TIP3    H210363   4.241   4.070   1.553  0.5595  1.3000  0.1606
 3468TIP3   OH210364   4.254   3.528   0.743  0.0245  0.4722  0.0715
 3468TIP3    H110365   4.245   3.442   0.786 -2.0400  0.3726 -0.5314
 3468TIP3    H210366   4.293   3.508   0.658  2.7058  0.5146  1.2322
 3469TIP3   OH210367   5.560   5.233   2.616  0.0569  0.0186  0.4636
 3469TIP3    H110368   5.612   5.277   2.683  1.3998 -0.8818  0.0217
 3469TIP3    H210369   5.574   5.140   2.632  0.8677 -0.2095 -1.4328
 3470TIP3   OH210370   3.190   3.591   3.015 -0.5103 -0.9335 -0.4664
 3470TIP3    H110371   3.197   3.497   3.000 -0.8713 -0.3620 -4.7654
 3470TIP3    H210372   3.280   3.623   3.005 -0.7247 -0.5682 -1.2745
 3471TIP3   OH210373   4.638   4.396   3.101 -0.1119  0.8517  0.6269
 3471TIP3    H110374   4.585   4.389   3.022  0.0549  1.7663  0.4247
 3471TIP3    H210375   4.651   4.306   3.130 -0.1264  0.5118 -0.4230
 3472TIP3   OH210376   4.643   4.988   4.023 -0.0183 -0.2624  0.1733
 3472TIP3    H110377   4.571   5.010   3.964  1.9240  0.1674 -2.0786
 3472TIP3    H210378   4.619   5.030   4.106 -1.9492  0.5751 -0.7718
 3473TIP3   OH210379   3.379   5.009   4.107 -0.6500  0.2837  0.5591
 3473TIP3    H110380   3.446   5.077   4.113  1.1963 -1.4186  0.1564
 3473TIP3    H210381   3.315   5.032   4.174  0.5854  1.7395  1.2769
 3474TIP3   OH210382   3.886   3.740   2.411  0.0373 -0.1354 -0.4373
 3474TIP3    H110383   3.883   3.745   2.316 -0.7868 -0.8319 -0.4501
 3474TIP3    H210384   3.957   3.678   2.430 -0.3538 -0.6468 -0.6233
 3475TIP3   OH210385   1.996   3.810   0.764 -0.2131 -0.3050  0.0424
 3475TIP3    H110386   2.040   3.811   0.679  0.0728 -1.1894  0.1746
 3475TIP3    H210387   2.011   3.722   0.797 -2.2846 -0.6972 -0.0181
 3476TIP3   OH210388   4.292   4.560   3.595 -0.3201  0.0183  0.7411
 3476TIP3    H110389   4.197   4.568   3.589 -0.3630  0.0731  1.4303
 3476TIP3    H210390   4.324   4.650   3.592 -0.2668 -0.0127  0.2405
 3477TIP3   OH210391   3.074   4.861   0.499  0.4085 -0.1682  0.0621
 3477TIP3    H110392   2.997   4.917   0.505  0.4814 -0.1490  0.8705
 3477TIP3    H210393   3.040   4.774   0.477  0.1847 -0.0863  0.0890
 3478TIP3   OH210394   3.058   4.396   3.011 -0.2856  0.3010  0.1374
 3478TIP3    H110395   3.098   4.430   2.931  0.8555 -1.6586 -0.1706
 3478TIP3    H210396   3.132   4.375   3.068 -0.8126 -3.2239 -0.3755
 3479TIP3   OH210397   3.746   5.760   2.635 -0.2391  0.4542  0.3970
 3479TIP3    H110398   3.704   5.680   2.666  0.5782  0.3131  1.1688
 3479TIP3    H210399   3.716   5.770   2.545  0.8037 -1.5255 -0.2105
 3480TIP3   OH210400   3.044   2.518   2.261 -0.1933  0.3017 -0.1572
 3480TIP3    H110401   3.133   2.518   2.298  0.1206 -0.0322 -0.8970
 3480TIP3    H210402   2.987   2.514   2.338  0.4575 -0.7979  0.2979
 3481TIP3   OH210403   3.434   3.470   2.198 -0.2848 -0.0015  0.0377
 3481TIP3    H110404   3.395   3.460   2.285 -1.9488 -0.2993 -0.7244
 3481TIP3    H210405   3.399   3.397   2.147  0.0114  0.6476 -1.1159
 3482TIP3   OH210406   4.624   3.492   3.770  0.0270 -0.0580 -0.0132
 3482TIP3    H110407   4.656   3.545   3.697 -0.3237  1.6752  1.0417
 3482TIP3    H210408   4.676   3.522   3.845 -0.6157 -0.7931  0.7326
 3483TIP3   OH210409   3.245   1.066   2.578  0.3334 -0.3356  0.4137
 3483TIP3    H110410   3.325   1.017   2.597  3.1275  3.5875 -0.6251
 3483TIP3    H210411   3.220   1.104   2.662  0.4183 -0.3199  0.4318
 3484TIP3   OH210412   2.556   1.491   1.474 -0.1155  0.2478 -0.4159
 3484TIP3    H110413   2.617   1.523   1.408 -0.3577 -0.2450 -0.8827
 3484TIP3    H210414   2.604   1.424   1.522 -0.1761  0.1121 -0.5476
 3485TIP3   OH210415   2.048   3.883   2.069  0.2075 -0.0598  0.0771
 3485TIP3    H110416   2.032   3.793   2.097 -0.0238  0.2322  0.8972
 3485TIP3    H210417   1.978   3.934   2.110 -0.0832  0.3974 -0.9560
 3486TIP3   OH210418   3.726   5.416   4.475  0.7848  0.2496 -0.0167
 3486TIP3    H110419   3.675   5.342   4.443  2.5941 -0.7542 -0.6263
 3486TIP3    H210420   3.670   5.492   4.459  1.1952 -0.2909 -4.8094
 3487TIP3   OH210421   3.891   2.245   0.568 -0.3955 -0.2823 -0.3399
 3487TIP3    H110422   3.814   2.242   0.511 -0.2297  1.5892 -0.6903
 3487TIP3    H210423   3.928   2.332   0.554  0.3425 -0.2293  1.7182
 3488TIP3   OH210424   2.264   4.572   4.104  0.2497  0.0774 -0.1473
 3488TIP3    H110425   2.352   4.535   4.115  0.4036  0.7634  0.9936
 3488TIP3    H210426   2.205   4.504   4.137  0.3598 -0.2972 -0.7128
 3489TIP3   OH210427   5.795   3.148   3.429 -0.4098 -0.2625 -0.2322
 3489TIP3    H110428   5.866   3.095   3.465 -0.7366 -2.3679 -2.5841
 3489TIP3    H210429   5.719   3.091   3.431 -0.5281 -0.3697 -3.8181
 3490TIP3   OH210430   3.594   4.441   2.340 -0.3748 -0.3972 -0.1417
 3490TIP3    H110431   3.598   4.537   2.339 -0.4031 -0.4068 -1.7494
 3490TIP3    H210432   3.570   4.417   2.251 -0.6729 -1.8989  0.3289
 3491TIP3   OH210433   3.637   2.055   1.032  0.1928  0.3236 -0.4105
 3491TIP3    H110434   3.558   2.036   1.082 -0.6098  0.3205 -1.6668
 3491TIP3    H210435   3.646   2.150   1.037 -0.5019  0.4330 -1.1740
 3492TIP3   OH210436   5.785   3.460   4.167  0.2128  0.2081  0.0029
 3492TIP3    H110437   5.719   3.483   4.233  0.8692 -1.5276  1.3088
 3492TIP3    H210438   5.735   3.426   4.093 -0.5323  2.1106 -0.4021
 3493TIP3   OH210439   2.375   3.537   2.071  0.4899  0.0305  0.1498
 3493TIP3    H110440   2.361   3.531   1.976  0.7130 -0.4036  0.1447
 3493TIP3    H210441   2.460   3.494   2.085 -0.7316 -2.1691  0.8740
 3494TIP3   OH210442   3.573   3.514   1.822  0.0714 -0.3666 -0.5893
 3494TIP3    H110443   3.604   3.481   1.738  1.1057 -2.8537  0.7296
 3494TIP3    H210444   3.488   3.472   1.834 -0.5553  0.8098 -0.8629
 3495TIP3   OH210445   0.793   1.018   6.078 -0.5873 -0.5080  0.1077
 3495TIP3    H110446   0.768   1.031   6.169  1.1001  0.7987  0.4017
 3495TIP3    H210447   0.714   0.983   6.036 -1.3778 -1.0847  2.0459
 3496TIP3   OH210448   4.862   3.365   2.044 -0.8049  0.1833  0.1772
 3496TIP3    H110449   4.901   3.291   2.090 -1.4112  0.7310  1.6018
 3496TIP3    H210450   4.864   3.436   2.109 -2.7390  0.6475 -0.2669
 3497TIP3   OH210451   1.378   3.289   2.542  0.7528  0.0120  0.3558
 3497TIP3    H110452   1.414   3.215   2.590 -1.0214 -0.3513  1.1848
 3497TIP3    H210453   1.392   3.267   2.450 -0.7797 -1.9366  0.5480
 3498TIP3   OH210454   2.994   3.753   2.673 -0.0545  0.2317 -0.0741
 3498TIP3    H110455   3.088   3.770   2.679 -0.3058  1.1667  1.7926
 3498TIP3    H210456   2.963   3.761   2.763 -1.6066 -2.0480 -0.3663
 3499TIP3   OH210457   4.425   4.839   3.309 -0.3737 -0.0286  0.6865
 3499TIP3    H110458   4.477   4.910   3.270 -1.6396 -0.8188 -2.5581
 3499TIP3    H210459   4.448   4.762   3.259 -1.8553 -1.1609  1.7120
 3500TIP3   OH210460   2.552   2.897   1.508  0.0416 -0.7228 -0.7357
 3500TIP3    H110461   2.636   2.870   1.473  0.4975  0.2790 -0.4482
 3500TIP3    H210462   2.543   2.989   1.481  1.3394  0.7502  3.3514
 3501TIP3   OH210463   4.838   4.800   0.053 -0.5045  0.1275  0.4672
 3501TIP3    H110464   4.898   4.726   0.054  0.1379  0.5391 -2.1212
 3501TIP3    H210465   4.890   4.873   0.087 -0.2108  0.0132  0.2684
 3502TIP3   OH210466   2.518   5.253   1.825  0.8318  0.3983  0.5066
 3502TIP3    H110467   2.531   5.177   1.769 -1.5204  1.1791 -1.1828
 3502TIP3    H210468   2.489   5.322   1.766 -1.2100  1.4076  2.5994
 3503TIP3   OH210469   3.333   5.356   4.556  0.1092 -0.1982 -0.3646
 3503TIP3    H110470   3.288   5.424   4.507  1.6764  1.5058  0.4803
 3503TIP3    H210471   3.312   5.375   4.648 -0.8898 -1.9414 -0.2134
 3504TIP3   OH210472   3.571   3.659   2.058 -0.3533  0.0564  0.3788
 3504TIP3    H110473   3.590   3.614   1.976  0.4149 -1.2161  1.2515
 3504TIP3    H210474   3.527   3.594   2.113 -0.9787  0.9337  0.9536
 3505TIP3   OH210475   4.624   4.587   2.744 -0.4927 -0.1520  0.1823
 3505TIP3    H110476   4.625   4.683   2.750 -1.2024  0.1166 -2.8662
 3505TIP3    H210477   4.715   4.562   2.758 -0.2658  0.9957  0.8314
 3506TIP3   OH210478   2.457   6.152   1.994 -0.2821  0.3368 -0.2642
 3506TIP3    H110479   2.507   6.220   1.949 -1.0012  0.7099 -0.5098
 3506TIP3    H210480   2.377   6.143   1.942 -1.0445  0.6544  0.8370
 3507TIP3   OH210481   4.106   2.964   4.222  0.0540  0.0968  0.5973
 3507TIP3    H110482   4.023   2.917   4.220  0.5300 -0.7971  1.3939
 3507TIP3    H210483   4.162   2.920   4.158  0.1170  0.2903  0.5185
 3508TIP3   OH210484   3.941   5.697   2.417  0.5470 -0.0496 -0.7221
 3508TIP3    H110485   3.893   5.753   2.478 -0.1084  0.4134 -1.6492
 3508TIP3    H210486   3.904   5.610   2.430  1.2025 -0.1759  0.3468
 3509TIP3   OH210487   1.815   1.790   2.487  0.1323  0.3608  0.0361
 3509TIP3    H110488   1.721   1.774   2.475  0.6866 -2.8529 -0.4705
 3509TIP3    H210489   1.850   1.795   2.398  0.6124  0.5296  0.2334
 3510TIP3   OH210490   0.739   5.758   3.567 -0.4853 -0.0271 -0.5761
 3510TIP3    H110491   0.814   5.768   3.508 -0.8504  1.2888 -0.8157
 3510TIP3    H210492   0.779   5.732   3.650 -0.0240 -2.6212 -1.5480
 3511TIP3   OH210493   2.962   5.293   2.168 -0.4169 -0.2505 -0.3930
 3511TIP3    H110494   3.048   5.295   2.210 -0.1493 -2.1172 -0.8015
 3511TIP3    H210495   2.964   5.214   2.114 -1.8800  0.4572 -1.5060
 3512TIP3   OH210496   4.248   6.660   2.984 -0.3657 -0.0212 -0.0590
 3512TIP3    H110497   4.290   6.736   3.025  1.5337 -0.1690 -1.6237
 3512TIP3    H210498   4.285   6.585   3.031  0.2866 -0.0990 -0.6800
 3513TIP3   OH210499   4.119   4.821   1.917 -0.1854  0.3842  0.0308
 3513TIP3    H110500   4.199   4.874   1.916 -0.1763  0.3595 -1.6886
 3513TIP3    H210501   4.069   4.854   1.992  1.1569  0.7926  0.7746
 3514TIP3   OH210502   4.223   2.362   4.107 -0.1153  0.2568  0.3517
 3514TIP3    H110503   4.230   2.392   4.197 -0.3219 -0.4687  0.6107
 3514TIP3    H210504   4.313   2.361   4.074 -0.0446  0.5461  0.5370
 3515TIP3   OH210505   3.853   2.713   3.274 -0.6519 -0.6888 -0.3439
 3515TIP3    H110506   3.805   2.725   3.193 -1.0032  1.9235  0.2124
 3515TIP3    H210507   3.807   2.767   3.338  0.3410 -1.7423  1.3099
 3516TIP3   OH210508   6.759   4.442   2.963  0.4772 -0.1068  0.0129
 3516TIP3    H110509   6.670   4.412   2.943 -0.0760  1.8417 -0.6288
 3516TIP3    H210510   6.781   4.398   3.045  0.8343 -4.3780 -2.2512
 3517TIP3   OH210511   5.496   4.046   1.337  0.7291 -0.4586  0.1913
 3517TIP3    H110512   5.584   4.009   1.321  2.2224  2.6322  0.9119
 3517TIP3    H210513   5.475   4.094   1.257 -0.0236 -0.6183  0.2886
 3518TIP3   OH210514   3.533   2.971   3.851  0.5869  0.7414  0.3639
 3518TIP3    H110515   3.542   2.883   3.887  0.1045  0.1070 -1.0355
 3518TIP3    H210516   3.439   2.990   3.858  0.1194 -0.3240 -2.6883
 3519TIP3   OH210517   2.985   2.400   3.066 -0.2368  0.4509 -0.4616
 3519TIP3    H110518   3.050   2.343   3.023 -0.2874 -0.6081  0.8264
 3519TIP3    H210519   2.901   2.356   3.051 -0.3729  0.6064 -0.1567
 3520TIP3   OH210520   4.301   4.204   2.901 -0.5675 -0.0727 -0.4549
 3520TIP3    H110521   4.210   4.214   2.929 -0.3415 -0.0747  0.2677
 3520TIP3    H210522   4.344   4.284   2.929  0.0314 -0.7813  0.6791
 3521TIP3   OH210523   5.021   4.749   1.496 -0.2283 -0.3565  0.1864
 3521TIP3    H110524   5.007   4.727   1.588  0.4462 -0.2740  0.3148
 3521TIP3    H210525   5.073   4.676   1.462  0.7440  0.3071  0.2359
 3522TIP3   OH210526   4.615   3.911   2.787  0.7959  0.1006  0.1229
 3522TIP3    H110527   4.520   3.910   2.771  0.1381 -0.2864  3.5264
 3522TIP3    H210528   4.652   3.852   2.722 -1.3974 -0.3817 -0.7277
 3523TIP3   OH210529   3.633   5.048   0.692 -0.0856  0.3113 -0.4853
 3523TIP3    H110530   3.613   5.058   0.599  0.9756 -1.4248 -0.9151
 3523TIP3    H210531   3.559   5.089   0.736 -1.2240  0.0592 -2.0900
 3524TIP3   OH210532   3.294   3.330   2.829 -0.2697 -0.5454  0.2603
 3524TIP3    H110533   3.347   3.397   2.872 -0.4623 -0.9410  1.1298
 3524TIP3    H210534   3.348   3.251   2.832  0.0073 -0.4035 -0.8687
 3525TIP3   OH210535   4.510   3.252   3.857 -0.0195 -0.3208 -0.6243
 3525TIP3    H110536   4.510   3.287   3.946  2.2873 -1.0894 -0.2953
 3525TIP3    H210537   4.537   3.327   3.803 -0.3113 -0.1524 -0.5357
 3526TIP3   OH210538   5.492   1.309   3.424  0.0756 -0.4549 -0.8643
 3526TIP3    H110539   5.572   1.333   3.377  0.8159 -0.7486  0.2052
 3526TIP3    H210540   5.485   1.214   3.412  1.0884 -0.7774  0.7914
 3527TIP3   OH210541   2.101   4.723   1.547  0.1359 -0.3815 -0.4594
 3527TIP3    H110542   2.092   4.628   1.538  0.4101 -0.6702  1.9819
 3527TIP3    H210543   2.013   4.753   1.571 -0.0996  0.0891 -1.8400
 3528TIP3   OH210544   0.924   5.033   1.791 -0.3517  0.1992 -0.2634
 3528TIP3    H110545   0.958   5.030   1.880 -1.2576 -0.9080  0.0597
 3528TIP3    H210546   0.934   4.943   1.759 -2.4574 -0.0403 -0.3273
 3529TIP3   OH210547   3.830   4.955   4.180  0.2035  0.3023 -0.0510
 3529TIP3    H110548   3.758   4.914   4.133  0.6497  0.1251 -0.5839
 3529TIP3    H210549   3.835   4.906   4.262 -0.1538  0.1853 -0.0974
 3530TIP3   OH210550   4.159   2.597   2.202  0.1630 -0.1646  0.1121
 3530TIP3    H110551   4.141   2.633   2.115 -1.8050 -2.2249 -0.4083
 3530TIP3    H210552   4.242   2.636   2.228 -0.0187  1.7381 -1.9949
 3531TIP3   OH210553   5.969   4.044   2.303 -0.0545 -0.3446 -0.2707
 3531TIP3    H110554   5.963   4.106   2.230 -1.0894  0.9587  0.8794
 3531TIP3    H210555   5.879   4.015   2.317 -0.0027  0.0834  1.0235
 3532TIP3   OH210556   4.111   6.123   2.864  0.4037 -0.7923  0.1793
 3532TIP3    H110557   4.086   6.051   2.807 -0.7661 -0.2795  0.0234
 3532TIP3    H210558   4.139   6.192   2.804  0.9480 -0.9042  0.3031
 3533TIP3   OH210559   5.584   5.718   2.077  0.6341  0.4885 -0.1003
 3533TIP3    H110560   5.649   5.759   2.135  0.5603 -1.1472  1.1620
 3533TIP3    H210561   5.564   5.634   2.119 -1.7628  0.6538 -0.8570
 3534TIP3   OH210562   4.375   5.183   1.533  0.6208  0.2508  0.2543
 3534TIP3    H110563   4.410   5.246   1.470  1.4591  0.2288  0.7026
 3534TIP3    H210564   4.447   5.122   1.550  0.0792 -0.3457  0.4610
 3535TIP3   OH210565   2.782   4.146   1.458 -0.2915 -0.1133  0.2625
 3535TIP3    H110566   2.824   4.060   1.445 -2.9033 -1.6670  1.7539
 3535TIP3    H210567   2.715   4.151   1.390 -1.1222  0.0928  1.0874
 3536TIP3   OH210568   7.180   6.329   6.109 -0.1897 -0.2021  0.0850
 3536TIP3    H110569   7.234   6.380   6.049 -1.3872  0.4758 -0.4253
 3536TIP3    H210570   7.106   6.386   6.129  0.4776 -0.1803  2.6794
 3537TIP3   OH210571   3.337   4.561   0.337  0.1588  0.7059 -0.4159
 3537TIP3    H110572   3.379   4.613   0.406  0.3143 -0.3920  0.3357
 3537TIP3    H210573   3.375   4.474   0.346 -1.9102 -0.1932 -0.0337
 3538TIP3   OH210574   6.373   2.160   0.546  0.6938  0.1520 -0.1639
 3538TIP3    H110575   6.313   2.128   0.614  1.6610 -0.4899  0.3948
 3538TIP3    H210576   6.412   2.081   0.510  2.2189  0.6309  0.4123
 3539TIP3   OH210577   3.351   5.039   2.915  0.7941 -0.7724  0.1081
 3539TIP3    H110578   3.271   5.065   2.959  1.9193 -0.0445  1.7660
 3539TIP3    H210579   3.392   4.977   2.975  1.3071 -1.4047 -0.8820
 3540TIP3   OH210580   4.489   4.615   3.170  0.4514  0.3449 -0.0557
 3540TIP3    H110581   4.455   4.663   3.094 -1.2339  0.7676  0.9328
 3540TIP3    H210582   4.545   4.547   3.133 -0.5963  0.3589 -1.7081
 3541TIP3   OH210583   3.429   4.803   3.076  0.1741  0.4678  0.6030
 3541TIP3    H110584   3.419   4.795   3.171 -1.2071 -1.0115  0.3467
 3541TIP3    H210585   3.518   4.773   3.059  0.4495  0.7956  1.4316
 3542TIP3   OH210586   5.277   2.783   2.323 -0.0818  0.4260 -0.4159
 3542TIP3    H110587   5.316   2.859   2.278 -1.3418  0.2097 -1.8903
 3542TIP3    H210588   5.185   2.805   2.332 -0.3637 -0.7311 -0.4160
 3543TIP3   OH210589   3.460   4.250   0.955 -0.0239  0.6920  0.0752
 3543TIP3    H110590   3.505   4.194   1.019 -0.8828 -0.2680 -0.1484
 3543TIP3    H210591   3.507   4.333   0.959  0.8861  0.1529  0.8600
 3544TIP3   OH210592   7.085   3.570   1.031  0.2930  0.6120  0.0031
 3544TIP3    H110593   7.114   3.611   1.113 -0.2510 -1.2508  1.1677
 3544TIP3    H210594   7.069   3.479   1.055 -1.4433  0.4050 -1.8128
 3545TIP3   OH210595   4.004   2.097   1.416  0.0595 -0.2467 -0.0264
 3545TIP3    H110596   3.960   2.170   1.458 -1.2393  0.0940 -1.9361
 3545TIP3    H210597   4.012   2.031   1.485 -0.0830  1.1235  1.3146
 3546TIP3   OH210598   4.004   4.866   1.672  0.3899 -0.0099  0.0862
 3546TIP3    H110599   4.038   4.941   1.622 -0.8449  1.6146  1.5871
 3546TIP3    H210600   4.042   4.876   1.759  1.0251 -1.7487  0.0309
 3547TIP3   OH210601   4.004   2.655   1.407 -0.1188  0.1611  0.6318
 3547TIP3    H110602   4.090   2.621   1.381 -0.4210  0.7405 -1.2464
 3547TIP3    H210603   3.992   2.625   1.497  0.7493 -2.4960 -0.0945
 3548TIP3   OH210604   4.429   3.134   2.718  0.0322  0.0245 -0.2926
 3548TIP3    H110605   4.355   3.178   2.760  0.9942  1.2931  0.1207
 3548TIP3    H210606   4.505   3.182   2.749  0.8974 -0.1498 -2.0966
 3549TIP3   OH210607   5.481   3.623   3.695 -0.4053  0.4757 -0.0607
 3549TIP3    H110608   5.394   3.594   3.722  0.3806 -1.3547  0.5680
 3549TIP3    H210609   5.512   3.677   3.767 -0.8495  0.7694 -0.0914
 3550TIP3   OH210610   2.892   3.676   3.313 -0.0610  0.0873 -0.1750
 3550TIP3    H110611   2.858   3.602   3.364  2.0789  0.4301  1.8132
 3550TIP3    H210612   2.843   3.752   3.345  0.0952  0.0412  0.1739
 3551TIP3   OH210613   3.567   5.547   2.681  0.3321  0.1889 -0.9192
 3551TIP3    H110614   3.472   5.559   2.676  0.4214  1.2030 -0.3772
 3551TIP3    H210615   3.593   5.516   2.594 -0.2381  1.7516 -1.6486
 3552TIP3   OH210616   2.040   4.259   2.498  0.0596  0.1404  0.5329
 3552TIP3    H110617   1.946   4.278   2.488 -0.0389 -1.0872 -1.1520
 3552TIP3    H210618   2.082   4.307   2.427  0.6548  0.2983  0.9869
 3553TIP3   OH210619   6.479   2.859   0.466 -0.4143 -0.4417  0.6540
 3553TIP3    H110620   6.550   2.815   0.421 -1.5024 -3.2763  1.5910
 3553TIP3    H210621   6.499   2.952   0.459  2.0617 -1.0926 -1.2128
 3554TIP3   OH210622   2.598   0.460   0.548  0.1587  0.7206 -0.0175
 3554TIP3    H110623   2.589   0.408   0.468  1.2800 -0.9283  0.8972
 3554TIP3    H210624   2.539   0.418   0.611 -1.2613  2.4422 -0.1749
 3555TIP3   OH210625   5.058   3.095   2.583  0.0124 -0.2269 -0.1938
 3555TIP3    H110626   5.142   3.050   2.584  0.8451  1.2810 -0.3870
 3555TIP3    H210627   4.993   3.025   2.586  1.2648 -1.4326 -0.6066
 3556TIP3   OH210628   1.719   3.546   1.485 -0.5392 -0.1328 -0.1443
 3556TIP3    H110629   1.751   3.499   1.408 -0.0988 -0.8842  0.4969
 3556TIP3    H210630   1.793   3.547   1.545 -1.6874 -1.8518  1.3402
 3557TIP3   OH210631   3.983   4.665   2.971  0.3085 -0.4680  0.0190
 3557TIP3    H110632   3.949   4.694   3.056 -1.8237 -2.5037 -0.0931
 3557TIP3    H210633   4.016   4.745   2.930 -1.0223  0.9924  1.6891
 3558TIP3   OH210634   3.170   3.784   1.930  0.6450 -0.3193  0.3844
 3558TIP3    H110635   3.123   3.768   1.848 -2.0705 -0.5433  1.9232
 3558TIP3    H210636   3.219   3.865   1.915 -1.7620  0.9793 -0.6269
 3559TIP3   OH210637   5.502   5.738   2.790  0.5710  0.2692  0.2362
 3559TIP3    H110638   5.535   5.722   2.701  0.4937  2.6684 -0.2742
 3559TIP3    H210639   5.431   5.802   2.778 -0.9415 -1.0700  1.8199
 3560TIP3   OH210640   4.856   6.010   3.324  0.3193  0.2662  0.1005
 3560TIP3    H110641   4.775   6.021   3.274 -0.0306  0.1779  0.6396
 3560TIP3    H210642   4.831   6.034   3.413  1.2518  1.6537 -0.0028
 3561TIP3   OH210643   5.392   2.779   2.971  0.0523  0.2055 -0.2018
 3561TIP3    H110644   5.382   2.723   2.895  1.7243 -0.8641  0.3421
 3561TIP3    H210645   5.350   2.731   3.042  0.1037  0.3626 -0.0640
 3562TIP3   OH210646   3.307   5.226   3.464 -0.1276  0.1693  0.2321
 3562TIP3    H110647   3.220   5.254   3.434 -0.7007 -1.1406  0.6326
 3562TIP3    H210648   3.293   5.197   3.554  0.9831  1.1552  0.7245
 3563TIP3   OH210649   3.145   4.522   1.843  0.4517 -0.0086  0.9596
 3563TIP3    H110650   3.186   4.552   1.762 -0.9094 -1.0495 -0.1290
 3563TIP3    H210651   3.052   4.543   1.833  0.0315 -1.4724  1.6195
 3564TIP3   OH210652   3.867   4.705   1.349  0.0723 -0.2602 -0.7133
 3564TIP3    H110653   3.794   4.760   1.320 -1.4261 -2.8670 -2.0903
 3564TIP3    H210654   3.873   4.722   1.443 -0.0976  2.4852 -1.1501
 3565TIP3   OH210655   3.084   4.809   3.736 -0.0516 -0.0954 -0.7528
 3565TIP3    H110656   3.006   4.755   3.747  0.6143 -0.6055  1.8965
 3565TIP3    H210657   3.130   4.802   3.820  1.2448  2.7032 -1.1675
 3566TIP3   OH210658   5.250   4.130   2.776  0.3711 -0.2408 -1.0171
 3566TIP3    H110659   5.173   4.113   2.830  0.1272 -0.4753 -1.4354
 3566TIP3    H210660   5.217   4.183   2.704  0.2544 -1.7903 -2.1278
 3567TIP3   OH210661   4.514   6.782   3.498  0.6131 -0.3434  0.2765
 3567TIP3    H110662   4.435   6.781   3.443  0.2158 -0.4760  0.8507
 3567TIP3    H210663   4.507   6.862   3.549  0.4613 -0.7478  0.8934
 3568TIP3   OH210664   3.691   2.121   2.274  0.5519 -0.7836  0.0756
 3568TIP3    H110665   3.746   2.138   2.350  0.7382  2.3612 -0.6778
 3568TIP3    H210666   3.707   2.196   2.216 -1.9672 -1.5166 -1.6431
 3569TIP3   OH210667   1.333   1.480   6.202  0.3845  0.0575 -0.2799
 3569TIP3    H110668   1.337   1.392   6.163  1.0851 -0.3233  0.6151
 3569TIP3    H210669   1.250   1.482   6.249  1.2730 -0.8945  1.4086
 3570TIP3   OH210670   3.652   4.319   3.554  0.0971 -0.0167 -1.0937
 3570TIP3    H110671   3.660   4.348   3.463 -1.3918 -2.3295 -1.9685
 3570TIP3    H210672   3.648   4.224   3.550  1.5459 -0.2499  1.5219
 3571TIP3   OH210673   6.710   4.764   4.860 -0.0320  0.7001 -0.1417
 3571TIP3    H110674   6.776   4.710   4.904 -0.8040  0.1443  0.3517
 3571TIP3    H210675   6.737   4.854   4.877 -0.7804  0.5216  2.2360
 3572TIP3   OH210676   6.232   3.017   1.668 -0.5847 -0.9175  0.2506
 3572TIP3    H110677   6.153   2.979   1.630  0.8605 -1.5355 -2.2908
 3572TIP3    H210678   6.204   3.103   1.700 -2.5411 -1.6364  0.5477
 3573TIP3   OH210679   4.921   2.750   2.808 -0.2965  0.4296  0.3813
 3573TIP3    H110680   4.963   2.664   2.814  0.3423  0.6185 -1.0309
 3573TIP3    H210681   4.830   2.734   2.832 -0.2263 -0.6876 -0.0557
 3574TIP3   OH210682   1.647   2.891   3.007 -0.1207 -0.0361 -0.1376
 3574TIP3    H110683   1.696   2.855   2.934 -1.0853 -0.5173 -0.5623
 3574TIP3    H210684   1.672   2.984   3.010  1.4172 -0.4571  0.1795
 3575TIP3   OH210685   1.717   3.526   2.933  0.0473  0.0176 -0.5183
 3575TIP3    H110686   1.683   3.609   2.900  0.4495  0.2130 -0.4408
 3575TIP3    H210687   1.757   3.549   3.017  0.7157 -0.1446 -0.7945
 3576TIP3   OH210688   6.274   3.962   2.606 -0.5054 -0.0909  0.1745
 3576TIP3    H110689   6.315   3.919   2.531 -0.5367 -1.6858  1.0538
 3576TIP3    H210690   6.346   4.012   2.646 -0.8199  1.9451 -1.7248
 3577TIP3   OH210691   3.880   3.165   2.288 -0.3221 -0.2314 -0.0877
 3577TIP3    H110692   3.821   3.214   2.344 -0.1428 -0.9234  0.7147
 3577TIP3    H210693   3.964   3.210   2.297 -0.3600 -0.1757 -0.0140
 3578TIP3   OH210694   5.716   3.029   2.583 -0.0170 -0.6468  0.1955
 3578TIP3    H110695   5.652   3.028   2.654  0.2449 -1.6048  0.4280
 3578TIP3    H210696   5.799   3.009   2.626  0.8313  2.5989  0.2341
 3579TIP3   OH210697   3.504   3.448   4.887 -0.0895  0.1123 -0.1608
 3579TIP3    H110698   3.535   3.471   4.975  0.6638 -1.5617  0.0447
 3579TIP3    H210699   3.410   3.466   4.890 -0.3696 -1.3678  1.5275
 3580TIP3   OH210700   4.456   5.461   3.314 -0.3815  0.2958  0.7052
 3580TIP3    H110701   4.443   5.389   3.376 -0.7383  0.6323  1.0201
 3580TIP3    H210702   4.370   5.474   3.275 -0.3522  0.6547  0.7587
 3581TIP3   OH210703   2.435   2.453   2.105 -0.3381 -0.1053  0.4077
 3581TIP3    H110704   2.419   2.450   2.011  0.1293  1.7257  0.2512
 3581TIP3    H210705   2.526   2.480   2.113 -0.3300 -0.4022  1.3820
 3582TIP3   OH210706   3.575   4.580   4.216 -0.6395  0.2174 -0.5094
 3582TIP3    H110707   3.633   4.506   4.196  0.2371  0.9097 -0.5315
 3582TIP3    H210708   3.487   4.544   4.206 -0.2368 -0.3300 -2.4034
 3583TIP3   OH210709   3.767   3.150   2.897  0.2424  0.2881 -0.4070
 3583TIP3    H110710   3.815   3.108   2.825 -2.0556  1.7238 -2.8317
 3583TIP3    H210711   3.675   3.141   2.873 -0.4897  2.3333  1.5081
 3584TIP3   OH210712   3.541   3.295   4.383  0.3126 -0.2637 -0.0070
 3584TIP3    H110713   3.478   3.333   4.444  0.4412  1.0457 -0.6597
 3584TIP3    H210714   3.626   3.328   4.413  0.5823 -1.1598  0.2334
 3585TIP3   OH210715   4.365   5.661   1.238  0.3994  0.3801  0.3777
 3585TIP3    H110716   4.286   5.652   1.292  1.1062  0.1589  1.3927
 3585TIP3    H210717   4.339   5.632   1.151 -0.5958  0.1472  0.7515
 3586TIP3   OH210718   5.544   2.874   3.175 -0.2611  0.9907  0.4581
 3586TIP3    H110719   5.494   2.856   3.096  0.0549  0.9710  0.2629
 3586TIP3    H210720   5.591   2.793   3.193 -0.7473  0.8138  0.9758
 3587TIP3   OH210721   3.733   4.512   2.598 -0.3188  0.6740  0.0914
 3587TIP3    H110722   3.639   4.511   2.616 -0.3152 -0.8225  0.1110
 3587TIP3    H210723   3.742   4.465   2.515  0.4661  0.2921  0.3864
 3588TIP3   OH210724   6.388   4.303   1.239 -0.1743  0.0073 -0.1580
 3588TIP3    H110725   6.385   4.369   1.308 -1.1824 -0.1028 -0.0764
 3588TIP3    H210726   6.451   4.336   1.176 -1.8572  1.8367 -0.8993
 3589TIP3   OH210727   4.185   4.435   1.443 -0.8965  0.2884  0.0872
 3589TIP3    H110728   4.263   4.391   1.410 -1.1096  0.6236 -0.8698
 3589TIP3    H210729   4.112   4.388   1.404 -1.1315  1.2939 -0.7199
 3590TIP3   OH210730   3.382   3.418   1.215  0.1209  0.2836  0.0024
 3590TIP3    H110731   3.419   3.355   1.276  1.6154 -0.2121 -1.3679
 3590TIP3    H210732   3.377   3.500   1.264  1.5009 -0.0552  0.7194
 3591TIP3   OH210733   5.650   3.994   2.215  0.0602 -0.2707 -0.2403
 3591TIP3    H110734   5.632   3.956   2.301  2.0084  0.1951  0.3856
 3591TIP3    H210735   5.602   3.938   2.153 -0.9862 -0.8688  1.0982
 3592TIP3   OH210736   6.569   4.639   2.818  0.4260 -0.0156 -0.1527
 3592TIP3    H110737   6.510   4.618   2.891 -0.5039 -0.3161 -0.9847
 3592TIP3    H210738   6.566   4.735   2.812  1.8915  0.1592  1.3304
 3593TIP3   OH210739   6.164   3.856   3.639  0.2883  0.3855 -0.3430
 3593TIP3    H110740   6.193   3.780   3.690 -0.1686  0.5349  0.1443
 3593TIP3    H210741   6.102   3.820   3.576  1.7272  0.0181 -1.5890
 3594TIP3   OH210742   6.405   3.797   2.453  0.1521  0.4588 -0.0429
 3594TIP3    H110743   6.372   3.745   2.379  0.2148  0.1343  0.1564
 3594TIP3    H210744   6.417   3.733   2.523  2.1707  0.3947 -0.4238
 3595TIP3   OH210745   4.876   4.277   3.985 -0.2602  0.3855  0.7112
 3595TIP3    H110746   4.874   4.184   3.964  0.1614 -0.2967  3.4119
 3595TIP3    H210747   4.961   4.290   4.029 -1.0450  1.6407  1.9102
 3596TIP3   OH210748   3.982   4.485   2.384  0.3965 -0.9346 -0.4045
 3596TIP3    H110749   4.038   4.468   2.461 -0.1963  0.1869  0.2825
 3596TIP3    H210750   3.977   4.400   2.340 -1.7619 -2.3845  2.4696
 3597TIP3   OH210751   0.303   4.454   3.045  0.5944 -0.3602 -0.1772
 3597TIP3    H110752   0.209   4.435   3.047  0.4876  0.2687  0.8105
 3597TIP3    H210753   0.316   4.521   3.112  1.9736 -1.4235  0.6273
 3598TIP3   OH210754   6.567   4.021   2.418 -0.0710 -0.2315  0.0247
 3598TIP3    H110755   6.622   4.022   2.340 -1.8267  0.2484 -1.2215
 3598TIP3    H210756   6.527   3.934   2.417  0.8657 -0.6859  1.0890
 3599TIP3   OH210757   7.574   2.753   2.721  0.0325 -0.3850  0.2506
 3599TIP3    H110758   7.588   2.780   2.630 -1.8029  2.4129  0.7504
 3599TIP3    H210759   7.479   2.752   2.732  0.2431 -0.2419  2.2697
 3600TIP3   OH210760   4.702   5.364   0.177 -0.4940  0.1433  0.2074
 3600TIP3    H110761   4.750   5.329   0.102 -0.5559 -0.0630  0.2643
 3600TIP3    H210762   4.626   5.306   0.186 -0.8732  0.6014 -0.0225
 3601TIP3   OH210763   2.633   3.752   1.535  0.0933  0.0788 -0.4506
 3601TIP3    H110764   2.612   3.815   1.604  1.5121 -0.2865  0.3305
 3601TIP3    H210765   2.702   3.794   1.483 -0.3625 -0.0059 -1.1360
 3602TIP3   OH210766   4.781   5.293   2.389  0.4892 -0.5446 -0.3906
 3602TIP3    H110767   4.707   5.261   2.338 -0.0639 -1.7456  1.1481
 3602TIP3    H210768   4.744   5.319   2.473  2.1242 -3.4447  1.2972
 3603TIP3   OH210769   6.441   5.137   3.580  0.2447 -0.1264 -0.3388
 3603TIP3    H110770   6.489   5.182   3.511  1.9792 -1.6132 -0.1420
 3603TIP3    H210771   6.458   5.188   3.659  1.4212 -0.5796 -0.2941
 3604TIP3   OH210772   5.530   3.671   1.508 -0.5845 -0.0993  0.2809
 3604TIP3    H110773   5.460   3.731   1.482  0.3015  1.4063  1.2773
 3604TIP3    H210774   5.512   3.650   1.600  0.6247  0.8253  0.7419
 3605TIP3   OH210775   5.933   5.007   2.986  0.1240  0.0225 -0.5865
 3605TIP3    H110776   5.871   4.936   2.970 -0.8412  0.2298  1.9874
 3605TIP3    H210777   5.880   5.087   2.979  0.0618  0.2045  1.4896
 3606TIP3   OH210778   3.552   5.142   1.694 -0.3470 -0.8230 -0.3216
 3606TIP3    H110779   3.492   5.212   1.719 -0.4677 -0.7607 -0.7797
 3606TIP3    H210780   3.638   5.172   1.723 -0.5081 -0.8165  0.1460
 3607TIP3   OH210781   6.485   2.857   3.710  0.3970  0.4551 -0.6056
 3607TIP3    H110782   6.472   2.896   3.796  0.3028 -0.8319 -0.0276
 3607TIP3    H210783   6.579   2.838   3.707  0.6629  1.8219 -1.3676
 3608TIP3   OH210784   4.288   3.288   2.517  0.4041 -0.2997  0.6833
 3608TIP3    H110785   4.288   3.355   2.585 -0.7407 -0.3116  0.6916
 3608TIP3    H210786   4.353   3.224   2.547  0.0117 -0.2348  1.6913
 3609TIP3   OH210787   4.147   4.416   2.628 -0.2297 -0.2513 -0.6238
 3609TIP3    H110788   4.098   4.336   2.612  2.6800 -2.0171 -1.1140
 3609TIP3    H210789   4.149   4.425   2.723 -1.3540 -0.2294 -0.5964
 3610TIP3   OH210790   4.535   3.930   4.932  0.4008  0.3003 -0.0751
 3610TIP3    H110791   4.551   4.022   4.911  1.1691  0.3008  0.5078
 3610TIP3    H210792   4.440   3.924   4.943  0.3117  0.9444 -0.4824
 3611TIP3   OH210793   6.446   4.857   0.841  0.1134 -0.1053 -0.0412
 3611TIP3    H110794   6.440   4.915   0.917  2.1481 -1.0461  0.8925
 3611TIP3    H210795   6.421   4.912   0.766  1.0409  1.6967  0.9459
 3612TIP3   OH210796   7.003   3.945   2.050  0.4153 -0.5113 -0.0072
 3612TIP3    H110797   6.988   3.851   2.035 -2.8329 -0.0054 -0.2326
 3612TIP3    H210798   7.000   3.984   1.963 -0.6927  0.0966  0.2922
 3613TIP3   OH210799   5.566   3.043   1.627 -0.5300 -0.3624  0.5954
 3613TIP3    H110800   5.480   3.081   1.643 -0.5227 -0.3973  0.7167
 3613TIP3    H210801   5.627   3.109   1.660 -0.5182 -0.4734  0.7932
 3614TIP3   OH210802   6.037   3.704   1.123  0.1342 -0.1992 -0.1986
 3614TIP3    H110803   6.001   3.786   1.090  0.6724  0.1145 -0.0083
 3614TIP3    H210804   6.130   3.707   1.100  0.0171 -1.0793 -0.8399
 3615TIP3   OH210805   4.108   5.247   2.217  0.5352 -0.2779 -0.1320
 3615TIP3    H110806   4.131   5.291   2.299 -0.4398 -1.1411  0.6310
 3615TIP3    H210807   4.030   5.195   2.239  0.9087 -1.3801 -1.3210
 3616TIP3   OH210808   7.734   5.735   2.347  0.0183  0.5475 -0.4176
 3616TIP3    H110809   7.783   5.817   2.335  1.0310  0.0224  0.0201
 3616TIP3    H210810   7.736   5.720   2.441  0.5841 -0.4231 -0.5799
 3617TIP3   OH210811   5.736   4.952   0.826  0.3283  0.2674 -0.5462
 3617TIP3    H110812   5.641   4.944   0.821  0.3915 -0.2888 -0.9541
 3617TIP3    H210813   5.761   4.894   0.898  0.5221 -0.9940 -1.6187
 3618TIP3   OH210814   7.737   4.266   0.764 -0.1277 -0.4630  0.2641
 3618TIP3    H110815   7.823   4.285   0.724 -0.1676 -3.2295 -1.2784
 3618TIP3    H210816   7.754   4.196   0.826 -0.8703  0.7550  1.8784
 3619TIP3   OH210817   6.383   4.900   0.226 -0.1575 -0.3822 -0.8314
 3619TIP3    H110818   6.422   4.981   0.258  1.0746 -1.2297 -0.1382
 3619TIP3    H210819   6.297   4.895   0.269 -0.8258  1.2360 -1.9564
 3620TIP3   OH210820   6.324   2.805   3.510  0.1281  0.1205 -0.0200
 3620TIP3    H110821   6.366   2.775   3.430 -2.2994 -0.1605 -1.2434
 3620TIP3    H210822   6.396   2.821   3.571  2.1243  1.5529 -2.6609
 3621TIP3   OH210823   6.443   3.649   0.704  0.0310 -0.0603 -0.0156
 3621TIP3    H110824   6.450   3.741   0.731  0.5485 -0.7094  2.0966
 3621TIP3    H210825   6.396   3.606   0.775 -1.0529 -1.2665 -1.4361
 3622TIP3   OH210826   5.751   4.933   2.297  0.1241 -0.1569 -0.4923
 3622TIP3    H110827   5.755   4.907   2.205  1.3224 -0.7552 -0.2929
 3622TIP3    H210828   5.797   5.017   2.301 -0.0908 -0.0397 -0.4729
 3623TIP3   OH210829   7.436   7.153   1.616  0.2215 -0.4656 -0.3294
 3623TIP3    H110830   7.476   7.069   1.591  1.3925  0.6675 -2.4265
 3623TIP3    H210831   7.487   7.219   1.568 -1.0187  1.4094  0.8624
 3624TIP3   OH210832   5.504   4.481   2.255  0.2868 -0.3026 -0.2098
 3624TIP3    H110833   5.444   4.448   2.322  0.9342  1.1124  1.0846
 3624TIP3    H210834   5.448   4.533   2.197  0.5112  2.6287  2.0901
 3625TIP3   OH210835   5.144   4.486   1.375 -0.8071 -0.6552 -0.1586
 3625TIP3    H110836   5.240   4.495   1.377 -0.7181 -0.3829 -2.9830
 3625TIP3    H210837   5.128   4.396   1.404  0.2708 -0.6212  0.5958
 3626TIP3   OH210838   5.258   3.833   2.951  0.9333  0.6194  0.0979
 3626TIP3    H110839   5.276   3.916   2.995 -2.1806  2.3174 -1.5836
 3626TIP3    H210840   5.196   3.788   3.008 -0.1109  1.0867 -0.6411
 3627TIP3   OH210841   4.799   3.370   1.766 -0.2623 -0.5939 -0.1247
 3627TIP3    H110842   4.749   3.291   1.747  0.5415 -1.4711  1.2883
 3627TIP3    H210843   4.823   3.361   1.858  2.3743 -0.1278 -0.7256
 3628TIP3   OH210844   3.435   3.902   1.489  0.0009  0.0880 -0.1513
 3628TIP3    H110845   3.383   3.918   1.567 -0.7656 -1.9502 -0.2178
 3628TIP3    H210846   3.479   3.986   1.471  0.1064  0.6000  2.3770
 3629TIP3   OH210847   6.223   4.047   3.268  0.0425  0.3097  0.0123
 3629TIP3    H110848   6.204   4.058   3.175 -0.4699 -1.7831 -0.1441
 3629TIP3    H210849   6.138   4.029   3.308  0.1377  1.9834  1.0342
 3630TIP3   OH210850   4.649   3.634   3.467 -0.2508  0.0995  0.1781
 3630TIP3    H110851   4.745   3.643   3.473 -0.1227  0.2911 -1.8084
 3630TIP3    H210852   4.616   3.703   3.524  0.8141  1.1760 -0.4712
 3631TIP3   OH210853   3.941   0.171   6.022  0.0249  0.0503 -0.0296
 3631TIP3    H110854   3.857   0.217   6.008 -0.5274 -1.2039 -0.9811
 3631TIP3    H210855   3.918   0.078   6.017  1.4949 -0.3028 -0.4178
 3632TIP3   OH210856   4.044   4.039   1.529  0.4230 -0.0879  0.0250
 3632TIP3    H110857   4.015   4.087   1.607 -0.4119  0.7566 -0.7913
 3632TIP3    H210858   3.994   3.957   1.531  1.6430 -0.8163  1.2680
 3633TIP3   OH210859   6.225   3.881   0.784  0.2907  0.2153  0.1173
 3633TIP3    H110860   6.242   3.906   0.693  0.9428  0.4251  0.2982
 3633TIP3    H210861   6.152   3.937   0.810  0.4505  0.5319 -0.1117
 3634TIP3   OH210862   3.595   4.050   3.487 -0.4235  0.9303  0.3220
 3634TIP3    H110863   3.564   3.992   3.556  1.1831 -1.7729 -1.1049
 3634TIP3    H210864   3.529   4.043   3.418 -0.7840  1.7056  0.5784
 3635TIP3   OH210865   4.964   4.743   2.055  0.2932 -0.0066  0.0682
 3635TIP3    H110866   4.977   4.814   2.118 -0.8381 -0.7880  1.2004
 3635TIP3    H210867   4.940   4.668   2.108  1.4966 -1.2735 -1.1242
 3636TIP3   OH210868   6.677   6.255   2.179 -0.0847  0.0712  0.1970
 3636TIP3    H110869   6.759   6.294   2.206  0.3874 -2.0750  2.0895
 3636TIP3    H210870   6.690   6.229   2.088  0.7371  1.2166 -0.0135
 3637TIP3   OH210871   5.071   5.757   3.076  0.2036  0.4709  0.7111
 3637TIP3    H110872   5.113   5.738   2.992  0.8627  0.2399  1.0838
 3637TIP3    H210873   4.990   5.707   3.075  0.4813  0.0257  0.4414
 3638TIP3   OH210874   6.337   0.443   3.788 -0.8760  0.4417  0.5140
 3638TIP3    H110875   6.306   0.469   3.875 -2.3311  0.4222  0.0038
 3638TIP3    H210876   6.432   0.453   3.793 -0.9841  0.8403  1.9790
 3639TIP3   OH210877   5.148   4.529   1.072 -0.4525 -0.0321  0.0975
 3639TIP3    H110878   5.103   4.461   1.021 -0.3168 -0.5781  0.6960
 3639TIP3    H210879   5.113   4.519   1.160  0.5787 -0.2328  0.4901
 3640TIP3   OH210880   3.760   0.849   6.370  0.1262  0.4285 -0.2765
 3640TIP3    H110881   3.691   0.794   6.334 -1.0086  2.2593 -0.9258
 3640TIP3    H210882   3.828   0.787   6.396 -0.5673 -1.1920 -2.1890
 3641TIP3   OH210883   5.266   5.111   0.801  0.1056 -0.4875  0.1810
 3641TIP3    H110884   5.335   5.129   0.737  0.6864  0.8168  1.1472
 3641TIP3    H210885   5.313   5.089   0.881 -0.5966 -0.1942  0.6801
 3642TIP3   OH210886   6.878   3.199   1.627  0.2228  0.6996 -0.3285
 3642TIP3    H110887   6.948   3.155   1.675  1.1582  1.5739 -0.8685
 3642TIP3    H210888   6.894   3.178   1.535 -0.8834 -0.0120 -0.3664
 3643TIP3   OH210889   5.243   4.671   2.123  0.2964  0.1029 -0.0609
 3643TIP3    H110890   5.169   4.680   2.063  0.3410  0.1081 -0.1148
 3643TIP3    H210891   5.211   4.613   2.192  0.3279 -0.0985 -0.2188
 3644TIP3   OH210892   6.422   3.382   0.556  0.1114 -0.2436 -0.1584
 3644TIP3    H110893   6.332   3.360   0.580  1.1675 -1.2995  3.1534
 3644TIP3    H210894   6.440   3.464   0.602  0.8495 -0.0125 -0.8411
 3645TIP3   OH210895   5.334   3.418   1.627  0.0437  0.2319  0.0628
 3645TIP3    H110896   5.384   3.463   1.696 -0.5933 -0.1613  0.7842
 3645TIP3    H210897   5.269   3.483   1.599 -0.7496 -0.1555  0.9692
 3646TIP3   OH210898   4.637   2.247   1.882 -0.1050  0.2228  0.1369
 3646TIP3    H110899   4.596   2.325   1.918  0.3549  0.1751  0.7592
 3646TIP3    H210900   4.729   2.270   1.871 -0.3111  0.3835 -1.4143
 3647TIP3   OH210901   7.384   4.107   2.071 -0.5336 -0.0760  0.2790
 3647TIP3    H110902   7.322   4.148   2.131  1.1525  0.3831  1.7412
 3647TIP3    H210903   7.457   4.168   2.065 -0.1403 -0.6612 -1.3374
 3648TIP3   OH210904   4.662   3.847   1.849 -0.0729 -0.1856  0.0393
 3648TIP3    H110905   4.681   3.939   1.829 -1.1072  0.0535  0.1169
 3648TIP3    H210906   4.623   3.812   1.769  2.2542 -1.1412 -0.7058
 3649TIP3   OH210907   5.393   3.601   3.447  0.6106  0.5616 -0.2092
 3649TIP3    H110908   5.427   3.617   3.535  0.2497 -1.2691  0.2864
 3649TIP3    H210909   5.298   3.598   3.459  0.5335  0.8309 -0.7556
 3650TIP3   OH210910   5.037   3.208   1.451 -0.0243 -0.1849  0.3248
 3650TIP3    H110911   5.078   3.289   1.421  0.0570 -0.4736 -0.3383
 3650TIP3    H210912   4.943   3.226   1.448  0.0414  0.6249  2.2531
 3651TIP3   OH210913   5.274   4.281   0.372 -0.7141  0.0458  0.3061
 3651TIP3    H110914   5.322   4.346   0.321 -2.6340  1.7708  0.6507
 3651TIP3    H210915   5.316   4.282   0.458 -1.2406  1.4235  0.5591
 3652TIP3   OH210916   7.099   2.024   0.408  0.0139  0.2086 -0.5903
 3652TIP3    H110917   7.032   2.061   0.466  0.1512  0.0524 -0.3281
 3652TIP3    H210918   7.062   1.941   0.378  1.2845 -1.3173  1.8995
 3653TIP3   OH210919   7.306   3.262   3.665  0.2589 -0.0705  0.0668
 3653TIP3    H110920   7.305   3.326   3.736 -0.6806  0.0280 -0.0329
 3653TIP3    H210921   7.381   3.287   3.611  2.0296 -1.1646  1.9448
 3654TIP3   OH210922   3.319   3.659   1.347  0.0701  0.0072  0.3613
 3654TIP3    H110923   3.317   3.640   1.441 -2.5856 -0.3595  0.2822
 3654TIP3    H210924   3.352   3.748   1.342  0.8605 -0.1892  1.5825
 3655TIP3   OH210925   5.888   2.728   1.439 -0.1681  0.2365 -0.2554
 3655TIP3    H110926   5.802   2.748   1.402 -1.3267 -0.3735  2.0465
 3655TIP3    H210927   5.932   2.677   1.371 -2.3647 -1.1051 -0.7158
 3656TIP3   OH210928   7.245   3.854   3.085 -0.8272  0.0277 -0.1077
 3656TIP3    H110929   7.187   3.920   3.047 -0.2477  1.1715  0.9203
 3656TIP3    H210930   7.278   3.895   3.166  0.0786 -1.2584  0.2014
 3657TIP3   OH210931   3.453   5.243   0.813 -0.3747  0.1119  0.2246
 3657TIP3    H110932   3.523   5.303   0.837  0.6234 -1.0843  0.3724
 3657TIP3    H210933   3.396   5.241   0.890 -0.4095  0.8594  0.2181
 3658TIP3   OH210934   5.758   4.143   2.819 -0.1317 -0.4371 -0.2076
 3658TIP3    H110935   5.738   4.064   2.768 -1.0473  1.5738 -3.0532
 3658TIP3    H210936   5.673   4.178   2.844  0.2493  0.1575  0.2809
 3659TIP3   OH210937   5.068   2.459   1.141 -0.0175 -0.0214 -0.5491
 3659TIP3    H110938   4.982   2.468   1.101 -0.2540 -0.3937 -0.1354
 3659TIP3    H210939   5.061   2.509   1.223 -0.7697 -2.4019  0.8934
 3660TIP3   OH210940   6.464   2.715   1.535  0.0969  0.2696 -0.1713
 3660TIP3    H110941   6.527   2.647   1.510  2.2315  2.6688 -1.5976
 3660TIP3    H210942   6.482   2.732   1.628  0.9713  0.3110 -0.3433
 3661TIP3   OH210943   6.638   4.462   1.105  0.1615  0.7837  0.2348
 3661TIP3    H110944   6.704   4.399   1.076  0.3804  0.9748  0.3204
 3661TIP3    H210945   6.584   4.477   1.027  0.4945  0.9752  0.0403
 3662TIP3   OH210946   7.573   1.735   3.261 -0.0024  0.2199  0.0431
 3662TIP3    H110947   7.638   1.793   3.223 -0.6987  0.9897  0.0047
 3662TIP3    H210948   7.569   1.760   3.354 -0.2849  0.2123  0.0337
 3663TIP3   OH210949   6.573   1.972   1.889  0.3719  0.0510  0.0022
 3663TIP3    H110950   6.642   1.935   1.833 -0.3026  1.9166 -2.1409
 3663TIP3    H210951   6.620   2.031   1.947  0.7391  0.3482 -0.5885
 3664TIP3   OH210952   5.447   4.441   2.525 -0.2533  0.3095 -0.3815
 3664TIP3    H110953   5.467   4.529   2.557  0.3664  0.1130 -0.2114
 3664TIP3    H210954   5.353   4.432   2.535 -0.5127  1.4602 -1.6535
 3665TIP3   OH210955   4.513   5.946   2.912  0.6032 -0.3487  0.8434
 3665TIP3    H110956   4.451   5.941   2.839  0.5866  0.4096  0.8087
 3665TIP3    H210957   4.594   5.910   2.877  0.9697  1.2307  0.0508
 3666TIP3   OH210958   3.375   4.808   2.144  0.1450 -0.4202 -0.6055
 3666TIP3    H110959   3.450   4.785   2.089 -0.3954 -0.5234 -1.3068
 3666TIP3    H210960   3.306   4.748   2.116 -0.8802  1.1496 -1.5352
 3667TIP3   OH210961   7.335   5.116   0.598 -0.4955  0.3409  0.8708
 3667TIP3    H110962   7.347   5.133   0.504 -0.4681 -1.0472  0.6225
 3667TIP3    H210963   7.267   5.178   0.624 -1.1348  0.1359 -0.2610
 3668TIP3   OH210964   7.072   6.079   3.080  0.8670  0.4325  0.6411
 3668TIP3    H110965   7.072   6.174   3.090 -0.0352  0.5579 -0.3336
 3668TIP3    H210966   7.058   6.045   3.168 -2.2885  1.3199  0.5568
 3669TIP3   OH210967   5.548   2.940   2.820 -0.1603 -0.3816 -0.2904
 3669TIP3    H110968   5.598   2.859   2.812 -2.0606 -1.4262 -2.2716
 3669TIP3    H210969   5.478   2.919   2.882 -0.7091 -0.3183 -0.8731
 3670TIP3   OH210970   5.814   5.240   2.962 -0.2785 -0.0401 -0.0290
 3670TIP3    H110971   5.761   5.281   2.894 -0.2299  1.2550  0.6933
 3670TIP3    H210972   5.901   5.278   2.950  0.0412 -0.7799 -0.0622
 3671TIP3   OH210973   6.489   5.318   2.819 -0.0530  0.2050 -0.2255
 3671TIP3    H110974   6.554   5.270   2.871 -0.5150 -0.6064 -0.3954
 3671TIP3    H210975   6.501   5.285   2.730  0.3188  1.1524 -0.5327
 3672TIP3   OH210976   5.410   4.970   0.994 -0.0854  0.2289  0.5226
 3672TIP3    H110977   5.449   4.921   1.067 -1.7857 -0.0022  1.2961
 3672TIP3    H210978   5.353   4.907   0.950 -0.8279  1.0004  0.3636
 3673TIP3   OH210979   6.622   3.075   1.305 -0.0527  0.0602  0.2422
 3673TIP3    H110980   6.574   3.028   1.373  1.3453  1.1655  2.0468
 3673TIP3    H210981   6.555   3.122   1.256 -1.0532 -0.5641  0.9979
 3674TIP3   OH210982   5.752   3.951   1.351  0.6451  0.4259 -0.2811
 3674TIP3    H110983   5.789   3.864   1.341 -0.1436  0.0420  0.1165
 3674TIP3    H210984   5.814   4.009   1.306  0.6673 -0.4541 -1.3997
 3675TIP3   OH210985   2.719   1.382   5.844  0.1208  0.3358  0.6730
 3675TIP3    H110986   2.813   1.385   5.830 -0.1773  0.5345 -1.6038
 3675TIP3    H210987   2.684   1.449   5.785 -1.6632 -1.8545 -0.8679
 3676TIP3   OH210988   4.546   1.749   2.390 -0.3935 -0.0567 -0.6372
 3676TIP3    H110989   4.539   1.687   2.463  1.0224 -0.3724 -0.7630
 3676TIP3    H210990   4.499   1.827   2.420 -0.6751 -0.5522  0.2136
 3677TIP3   OH210991   0.041   4.422   3.061 -0.6144  0.4780 -0.3399
 3677TIP3    H110992  -0.026   4.488   3.045 -0.4582  0.6316 -0.3690
 3677TIP3    H210993   0.001   4.361   3.122  0.1492  2.0846  1.8340
 3678TIP3   OH210994   6.738   5.137   2.895 -0.3044 -0.1603  0.4416
 3678TIP3    H110995   6.666   5.102   2.948  0.2461  0.5394  1.6591
 3678TIP3    H210996   6.793   5.060   2.878 -0.8451 -0.5222  0.2793
 3679TIP3   OH210997   5.951   4.445   0.595 -0.6674 -0.6547  0.6167
 3679TIP3    H110998   5.947   4.384   0.521 -0.2511  0.3151 -0.1979
 3679TIP3    H210999   5.861   4.477   0.604 -0.6730 -0.6136  0.4120
 3680TIP3   OH211000   7.298   3.810   2.761  0.2558 -0.1525 -0.5691
 3680TIP3    H111001   7.233   3.833   2.828 -0.5443  0.5966 -1.5939
 3680TIP3    H211002   7.281   3.717   2.743 -0.2614 -0.0665 -0.5351
 3681TIP3   OH211003   3.802   2.605   6.277  0.1792 -0.5005 -0.2390
 3681TIP3    H111004   3.862   2.560   6.218  0.8922  1.3381 -0.9276
 3681TIP3    H211005   3.829   2.578   6.365  0.5551 -1.4527 -0.6438
 3682TIP3   OH211006   4.444   3.867   0.940  0.3488  0.3776  0.2206
 3682TIP3    H111007   4.468   3.939   0.881  0.7064  2.3094  2.6450
 3682TIP3    H211008   4.528   3.838   0.977  0.0840 -0.5578  0.0987
 3683TIP3   OH211009   4.998   4.857   1.239 -0.1437  0.5399  0.2599
 3683TIP3    H111010   5.000   4.816   1.325 -0.4121  0.0563  0.0400
 3683TIP3    H211011   4.945   4.936   1.251 -1.7593 -0.4839  0.1442
 3684TIP3   OH211012   4.289   3.551   2.655  0.2453 -0.0018  0.1896
 3684TIP3    H111013   4.276   3.633   2.703 -0.2587 -0.4169  0.7542
 3684TIP3    H211014   4.300   3.484   2.722 -1.3270 -0.7250 -0.2521
 3685TIP3   OH211015   6.131   4.323   1.623 -0.2204  0.1729  0.3978
 3685TIP3    H111016   6.180   4.384   1.567  0.4414 -0.6353  0.0798
 3685TIP3    H211017   6.067   4.378   1.668 -0.1889  0.9711 -0.5101
 3686TIP3   OH211018   4.948   5.181   2.074  0.0699 -0.1808 -0.5966
 3686TIP3    H111019   4.857   5.152   2.074 -0.3251  1.0153 -0.9124
 3686TIP3    H211020   4.995   5.114   2.123 -1.2961  0.1130  1.1473
 3687TIP3   OH211021   4.515   2.895   1.224  0.1503  0.0845 -0.1191
 3687TIP3    H111022   4.550   2.866   1.309 -1.0248  3.4936  1.6499
 3687TIP3    H211023   4.466   2.974   1.245 -1.8916 -0.1307 -3.7472
 3688TIP3   OH211024   4.779   3.914   3.012 -0.1083 -0.1833 -0.0012
 3688TIP3    H111025   4.725   3.908   2.933  0.5185  0.0877 -0.4587
 3688TIP3    H211026   4.744   3.846   3.070 -1.3393  0.3898 -0.0402
 3689TIP3   OH211027   5.783   2.996   3.075  0.1896 -0.0090 -0.1431
 3689TIP3    H111028   5.785   2.942   2.996  1.1942 -0.6314  0.3035
 3689TIP3    H211029   5.698   2.975   3.116  0.7422 -1.5566  0.2358
 3690TIP3   OH211030   5.341   3.811   2.699  0.4911  0.4839 -0.3671
 3690TIP3    H111031   5.437   3.810   2.697  0.4935 -2.0264 -0.6107
 3690TIP3    H211032   5.319   3.816   2.792  0.8766 -0.4707 -0.2171
 3691TIP3   OH211033   2.780   1.242   5.540 -0.6687  0.1293 -0.4035
 3691TIP3    H111034   2.698   1.290   5.522 -2.5223 -2.4078  0.9324
 3691TIP3    H211035   2.798   1.259   5.632 -1.0429 -1.1937 -0.0627
 3692TIP3   OH211036   5.111   3.017   1.253  0.4817  0.4474  0.4795
 3692TIP3    H111037   5.075   3.078   1.318 -1.6349  0.2564 -0.4802
 3692TIP3    H211038   5.109   3.067   1.171  1.6748  0.1504  0.2718
 3693TIP3   OH211039   6.763   1.922   1.665 -0.2533 -0.3998  0.4255
 3693TIP3    H111040   6.834   1.874   1.623  0.6099  1.3157 -0.1059
 3693TIP3    H211041   6.713   1.959   1.592  0.4403  1.4256  0.8552
 3694TIP3   OH211042   3.796   6.014   4.047 -0.4468  0.2648  0.2434
 3694TIP3    H111043   3.839   5.994   3.964  0.4922 -0.5763  0.9209
 3694TIP3    H211044   3.724   6.072   4.023  0.3688  0.7764 -1.0525
 3695TIP3   OH211045   3.989   4.267   1.392 -0.0835  0.2786 -0.0698
 3695TIP3    H111046   3.911   4.313   1.422  1.8985  3.4920  0.4371
 3695TIP3    H211047   4.015   4.212   1.465 -1.3081 -0.0327  0.1312
 3696TIP3   OH211048   6.653   5.509   1.653 -0.1570  0.2775  0.0954
 3696TIP3    H111049   6.644   5.601   1.678  1.3410  0.0443  1.5457
 3696TIP3    H211050   6.713   5.511   1.578  0.6857  0.4111  0.7626
 3697TIP3   OH211051   5.755   4.367   1.113  0.0011  0.3842  0.2958
 3697TIP3    H111052   5.721   4.368   1.024  0.5029  2.9984  0.0884
 3697TIP3    H211053   5.701   4.302   1.158 -0.0166 -1.2507 -1.9742
 3698TIP3   OH211054   5.940   4.605   3.258  0.2331 -0.1458 -0.0338
 3698TIP3    H111055   5.878   4.671   3.288  1.3660  0.3988  1.1576
 3698TIP3    H211056   6.022   4.653   3.244 -0.1833 -0.4244 -3.8074
 3699TIP3   OH211057   4.490   4.366   1.662 -0.4048 -0.2472 -0.1752
 3699TIP3    H111058   4.584   4.357   1.646 -0.4390 -0.2827 -0.3530
 3699TIP3    H211059   4.477   4.325   1.748 -0.1404  0.4034  0.1775
 3700TIP3   OH211060   1.483   0.800   5.776  0.1036 -0.6562  0.0450
 3700TIP3    H111061   1.500   0.830   5.686 -2.4400 -0.1646 -0.3133
 3700TIP3    H211062   1.568   0.807   5.820  1.0503  0.5701 -1.9015
 3701TIP3   OH211063   0.149   1.442   0.209  0.0041  0.0278  0.2469
 3701TIP3    H111064   0.201   1.367   0.236 -1.1436 -0.4555  1.1647
 3701TIP3    H211065   0.065   1.404   0.180 -0.8514  0.9963  1.4096
 3702TIP3   OH211066   6.186   4.679   2.614  0.8865 -0.3495 -0.3439
 3702TIP3    H111067   6.090   4.672   2.607  0.6244  1.7717  0.6038
 3702TIP3    H211068   6.215   4.698   2.525  0.2848  0.1626 -0.4404
 3703TIP3   OH211069   6.943   2.452   3.436  0.0484  0.0196  0.0275
 3703TIP3    H111070   6.852   2.437   3.408  0.4450  0.6131 -1.6387
 3703TIP3    H211071   6.995   2.427   3.360  1.3152 -0.6665  1.1054
 3704TIP3   OH211072   5.572   3.974   2.551  0.1324 -0.1955 -0.6977
 3704TIP3    H111073   5.595   4.064   2.528  0.6575 -0.1270  0.0829
 3704TIP3    H211074   5.656   3.932   2.568 -0.0834 -0.9749 -1.5656
 3705TIP3   OH211075   6.098   2.715   0.610  0.1209  0.2389 -0.1211
 3705TIP3    H111076   6.153   2.688   0.683 -0.2516  1.1137  0.4840
 3705TIP3    H211077   6.130   2.803   0.587 -0.2215  0.2496 -0.5576
 3706TIP3   OH211078   6.809   3.205   4.088 -0.1424  0.9265 -0.0726
 3706TIP3    H111079   6.847   3.250   4.012  0.6961  1.8959  0.9017
 3706TIP3    H211080   6.826   3.112   4.072 -0.3353  1.0830 -1.2623
 3707TIP3   OH211081   5.714   4.592   0.654  0.4408 -0.1949  0.0461
 3707TIP3    H111082   5.733   4.675   0.611 -1.0588  0.7755  1.1677
 3707TIP3    H211083   5.645   4.614   0.717 -0.6665 -2.4799 -0.3131
 3708TIP3   OH211084   3.683   5.758   0.596  0.3619 -0.4051  0.2167
 3708TIP3    H111085   3.753   5.804   0.550 -0.0729 -0.4776 -0.5149
 3708TIP3    H211086   3.648   5.696   0.532 -1.6127  0.9101 -0.0276
 3709TIP3   OH211087   6.041   4.042   0.920 -0.0763  0.0661  0.0704
 3709TIP3    H111088   6.067   4.105   0.987  1.4968  0.3863 -0.8048
 3709TIP3    H211089   5.949   4.022   0.939 -0.2993  1.8569  0.9515
 3710TIP3   OH211090   2.347   2.517   6.146  0.0700  0.1576 -0.0738
 3710TIP3    H111091   2.378   2.446   6.090 -0.0935  0.7849 -0.9666
 3710TIP3    H211092   2.297   2.472   6.215 -0.3676 -0.5693 -0.8467
 3711TIP3   OH211093   6.777   4.120   0.439 -0.2299  0.0651  0.0353
 3711TIP3    H111094   6.777   4.118   0.535 -0.9831  1.5135  0.0882
 3711TIP3    H211095   6.759   4.030   0.413  2.0366 -0.7781  1.2159
 3712TIP3   OH211096   4.426   4.464   2.904 -0.1374 -0.2737  0.7491
 3712TIP3    H111097   4.357   4.516   2.945  1.7021  2.3966  0.6015
 3712TIP3    H211098   4.466   4.523   2.840 -0.3907 -3.0910 -2.1372
 3713TIP3   OH211099   6.003   5.255   1.819  0.3964  0.2897  0.7596
 3713TIP3    H111100   5.980   5.180   1.765 -1.4614  0.6633  1.0001
 3713TIP3    H211101   6.096   5.271   1.800 -0.2040  0.4019 -2.2918
 3714TIP3   OH211102   5.231   5.157   2.720 -0.2850 -0.0380 -0.3141
 3714TIP3    H111103   5.288   5.202   2.783 -1.8881  1.6585 -0.0547
 3714TIP3    H211104   5.217   5.221   2.650 -0.5860 -1.0158 -1.1682
 3715TIP3   OH211105   5.680   4.505   1.964  0.3481 -0.1112  0.0933
 3715TIP3    H111106   5.618   4.556   2.017  1.2512 -0.4572  1.5056
 3715TIP3    H211107   5.680   4.418   2.005 -1.6648 -1.4962 -2.6919
 3716TIP3   OH211108   7.247   5.717   2.439 -0.1665  0.3181 -0.0284
 3716TIP3    H111109   7.232   5.803   2.478 -1.4540 -0.3233  0.9198
 3716TIP3    H211110   7.299   5.670   2.505 -0.1601  0.1005 -0.1873
 3717TIP3   OH211111   5.663   5.638   0.794  0.1819 -0.3330  0.5914
 3717TIP3    H111112   5.720   5.636   0.717 -0.5075 -0.2576  0.0803
 3717TIP3    H211113   5.598   5.706   0.774 -1.2251 -1.7271  0.3754
 3718TIP3   OH211114   4.026   4.025   1.191  0.2716 -0.5729 -0.3374
 3718TIP3    H111115   3.950   3.984   1.233 -0.2189 -0.3537 -0.9916
 3718TIP3    H211116   4.052   4.095   1.250 -0.0904 -0.5963 -0.1510
 3719TIP3   OH211117   4.394   1.203   6.304 -0.1914  0.5723  0.2113
 3719TIP3    H111118   4.386   1.128   6.363 -1.4559  1.5707  1.3394
 3719TIP3    H211119   4.304   1.219   6.273  0.1933  1.1114 -0.6512
 3720TIP3   OH211120   6.709   3.488   5.316  0.3302 -0.2413  0.3990
 3720TIP3    H111121   6.659   3.406   5.329  0.3924 -0.0923  1.7139
 3720TIP3    H211122   6.645   3.557   5.336  1.0602 -0.0503  2.2079
 3721TIP3   OH211123   5.749   4.049   0.491  0.2610  0.3784  0.0441
 3721TIP3    H111124   5.721   4.071   0.402  1.0422  2.6688  0.3234
 3721TIP3    H211125   5.838   4.015   0.481 -0.0738 -0.4393 -0.1612
 3722TIP3   OH211126   6.985   6.244   3.547  0.1346  0.0714 -0.4221
 3722TIP3    H111127   7.037   6.218   3.471  1.4488  1.1434  0.0887
 3722TIP3    H211128   6.910   6.184   3.547  1.1692 -1.2440 -1.3908
 3723TIP3   OH211129   4.481   4.674   1.709 -0.5228 -0.2990 -0.4177
 3723TIP3    H111130   4.412   4.671   1.642  1.0951  0.9926 -2.2281
 3723TIP3    H211131   4.523   4.588   1.704  1.2396  0.6207 -2.9830
 3724TIP3   OH211132   5.955   2.946   2.217 -0.2975  0.1545  0.0641
 3724TIP3    H111133   5.911   3.029   2.236 -0.3822  0.1564 -0.1411
 3724TIP3    H211134   5.905   2.909   2.144  1.1091  0.9858 -1.3529
 3725TIP3   OH211135   5.196   4.151   1.087 -0.1982  0.0783 -0.1191
 3725TIP3    H111136   5.287   4.171   1.109 -0.6283  0.2610  1.6326
 3725TIP3    H211137   5.197   4.059   1.061  0.4454 -0.0111  0.2071
 3726TIP3   OH211138   5.624   3.294   0.807  0.0565  0.1386  0.3726
 3726TIP3    H111139   5.623   3.198   0.815  0.8241  0.1140  0.2246
 3726TIP3    H211140   5.573   3.312   0.728 -0.5525 -0.1202  0.7123
 3727TIP3   OH211141   6.330   5.150   3.900  0.3664  0.0657  0.0519
 3727TIP3    H111142   6.368   5.064   3.885 -0.3903 -0.0921 -0.9712
 3727TIP3    H211143   6.272   5.165   3.825  1.9826  2.3034 -0.8131
 3728TIP3   OH211144   3.299   1.921   5.664 -0.4266 -0.5017  0.7660
 3728TIP3    H111145   3.369   1.980   5.636 -1.2555 -0.0205 -0.3420
 3728TIP3    H211146   3.222   1.977   5.669 -1.1956 -1.4621 -0.1799
 3729TIP3   OH211147   5.815   3.162   2.320 -0.6590 -0.7401  0.6084
 3729TIP3    H111148   5.791   3.127   2.406  0.0711 -0.0687  1.0833
 3729TIP3    H211149   5.753   3.234   2.306 -0.5651 -0.6398  0.7108
 3730TIP3   OH211150   5.387   3.403   2.772  0.1873 -0.1316 -0.1674
 3730TIP3    H111151   5.417   3.325   2.818 -0.0041 -0.4552 -0.5909
 3730TIP3    H211152   5.412   3.476   2.829  0.5304 -0.4901  0.1389
 3731TIP3   OH211153   5.796   3.754   4.412 -0.7005 -0.1503  0.3438
 3731TIP3    H111154   5.762   3.799   4.490 -0.3587  0.2119  0.2900
 3731TIP3    H211155   5.772   3.662   4.424 -1.2014  0.0117  0.5716
 3732TIP3   OH211156   5.549   3.293   1.441 -0.2250 -0.0449 -0.3189
 3732TIP3    H111157   5.510   3.313   1.526 -0.6652 -1.1712 -0.2390
 3732TIP3    H211158   5.597   3.372   1.417 -0.1846  0.3252  0.9297
 3733TIP3   OH211159   4.051   5.873   1.589 -0.2948 -0.3040 -0.7653
 3733TIP3    H111160   4.074   5.846   1.678 -0.9358 -1.2883 -0.8920
 3733TIP3    H211161   3.975   5.929   1.599 -0.9664 -1.2089 -0.7701
 3734TIP3   OH211162   5.063   3.283   3.449  0.8288  0.1068 -0.6506
 3734TIP3    H111163   5.094   3.240   3.529  0.3854  0.3490 -0.3484
 3734TIP3    H211164   5.051   3.375   3.474 -0.9559 -0.1371 -0.5225
 3735TIP3   OH211165   4.890   3.166   2.225  0.4184 -0.3345 -0.3756
 3735TIP3    H111166   4.909   3.093   2.167  0.2452 -0.1117 -0.7154
 3735TIP3    H211167   4.805   3.144   2.263 -0.0829  0.1441 -1.2068
 3736TIP3   OH211168   6.219   3.305   2.301 -0.7894 -0.1546  0.1353
 3736TIP3    H111169   6.159   3.298   2.375 -0.3567  2.5760  0.7919
 3736TIP3    H211170   6.278   3.377   2.324  1.1700 -1.1516 -1.6007
 3737TIP3   OH211171   5.704   4.603   2.367 -0.6475  0.2927 -0.4162
 3737TIP3    H111172   5.629   4.549   2.342  0.4070 -1.2416 -0.4123
 3737TIP3    H211173   5.687   4.689   2.329 -0.8433 -0.9608 -3.3031
 3738TIP3   OH211174   7.330   2.969   2.611 -0.5940 -0.0811  0.6163
 3738TIP3    H111175   7.332   2.924   2.695  2.4167 -0.0005  0.6227
 3738TIP3    H211176   7.313   3.061   2.632 -0.8085 -0.2183  1.0393
 3739TIP3   OH211177   4.502   1.441   5.003 -0.4648 -0.3142  0.0730
 3739TIP3    H111178   4.416   1.416   5.037 -0.8717 -0.2652 -0.9216
 3739TIP3    H211179   4.557   1.446   5.081 -1.6382  0.7681  0.8653
 3740TIP3   OH211180   6.508   3.840   2.086 -0.1916  0.0681 -0.0240
 3740TIP3    H111181   6.418   3.870   2.102 -0.1732 -0.4158  1.0577
 3740TIP3    H211182   6.549   3.912   2.037 -1.4030 -0.0653 -1.2564
 3741TIP3   OH211183   7.143   3.257   1.984 -0.1556  0.0905  0.7064
 3741TIP3    H111184   7.213   3.192   1.977 -0.7551 -0.6053  1.0175
 3741TIP3    H211185   7.187   3.338   2.007  0.4023 -0.7291  2.6809
 3742TIP3   OH211186   4.296   6.637   1.042 -0.3264  0.7659 -0.8495
 3742TIP3    H111187   4.327   6.727   1.052 -1.3173  1.0682 -0.4529
 3742TIP3    H211188   4.222   6.630   1.102 -0.6585 -0.1166 -1.3500
 3743TIP3   OH211189   4.517   5.745   0.321  0.1521 -0.4659  0.4549
 3743TIP3    H111190   4.422   5.742   0.333  0.3361  1.0516  2.5555
 3743TIP3    H211191   4.546   5.655   0.335 -1.1043 -1.2174 -1.6018
 3744TIP3   OH211192   3.578   3.393   1.550 -0.3456  0.4701  0.7326
 3744TIP3    H111193   3.495   3.350   1.531 -0.2313  1.3939 -1.9870
 3744TIP3    H211194   3.633   3.375   1.474  0.9712  2.3178  1.1980
 3745TIP3   OH211195   6.388   6.299   3.427  0.7193  0.7488  0.4127
 3745TIP3    H111196   6.466   6.319   3.478  0.2287  0.7995  1.1713
 3745TIP3    H211197   6.349   6.384   3.407  0.3759  0.6922  0.8253
 3746TIP3   OH211198   6.171   5.811   0.629 -0.2025  0.4424 -0.0358
 3746TIP3    H111199   6.201   5.875   0.694 -1.3829  1.1070 -0.1252
 3746TIP3    H211200   6.107   5.859   0.576 -2.4830 -1.2903  1.0262
 3747TIP3   OH211201   6.297   2.795   1.104  0.2542  0.5741  0.5938
 3747TIP3    H111202   6.235   2.820   1.173 -1.5472 -2.9367  0.3365
 3747TIP3    H211203   6.366   2.747   1.149 -0.0995 -0.3455  0.1560
 3748TIP3   OH211204   6.743   4.902   1.753 -0.0503  0.4399 -0.7217
 3748TIP3    H111205   6.781   4.883   1.668 -0.3131  0.2974 -0.8075
 3748TIP3    H211206   6.715   4.817   1.787  0.3446  0.4531 -0.3543
 3749TIP3   OH211207   3.333   1.392   6.151 -0.4250 -0.0819 -0.4420
 3749TIP3    H111208   3.242   1.419   6.138 -1.2758 -2.7493 -0.3319
 3749TIP3    H211209   3.350   1.409   6.244 -0.7730  0.5163 -0.4834
 3750TIP3   OH211210   3.882   4.931   0.541 -0.1986 -0.1672  0.1921
 3750TIP3    H111211   3.916   4.849   0.507  0.8197 -0.0022  0.8151
 3750TIP3    H211212   3.788   4.915   0.552  0.1165 -1.5096  1.0706
 3751TIP3   OH211213   5.589   6.456   0.783 -0.2137  0.1995  0.2495
 3751TIP3    H111214   5.573   6.447   0.877 -0.7101  0.1690  0.1616
 3751TIP3    H211215   5.577   6.367   0.748  1.6769 -0.1477  0.4110
 3752TIP3   OH211216   6.535   4.356   1.754 -0.3838 -0.1806 -0.1560
 3752TIP3    H111217   6.485   4.302   1.815  0.2463 -0.6150 -0.0238
 3752TIP3    H211218   6.572   4.294   1.691  1.1135 -0.0196  0.5443
 3753TIP3   OH211219   6.585   5.929   2.799 -0.1754 -0.5524 -0.4700
 3753TIP3    H111220   6.611   5.868   2.868  0.5577  0.1545 -0.1029
 3753TIP3    H211221   6.493   5.948   2.817 -0.6265 -2.1116 -1.0319
 3754TIP3   OH211222   7.047   1.908   0.083 -0.3169  0.7189 -0.3891
 3754TIP3    H111223   7.071   1.982   0.139 -1.5612 -0.4211  1.7457
 3754TIP3    H211224   6.953   1.897   0.098 -0.3236 -0.7016 -1.4065
 3755TIP3   OH211225   6.722   4.187   1.033 -0.2583  0.1968 -0.7352
 3755TIP3    H111226   6.794   4.151   0.982 -1.0940 -1.9002 -0.4728
 3755TIP3    H211227   6.643   4.156   0.989 -0.9905  0.6061  0.2681
 3756TIP3   OH211228   6.333   2.638   4.128 -0.4010 -0.1772  0.2032
 3756TIP3    H111229   6.335   2.663   4.036 -1.0892 -2.7201 -0.5422
 3756TIP3    H211230   6.277   2.561   4.131 -0.3789 -0.1447  2.7673
 3757TIP3   OH211231   5.159   4.843   2.883 -0.3020  0.9822 -0.6560
 3757TIP3    H111232   5.169   4.861   2.977  0.2586  1.1896 -0.7592
 3757TIP3    H211233   5.243   4.866   2.844  0.5403 -2.0727 -0.7551
 3758TIP3   OH211234   6.170   1.858   5.573  0.6823 -0.8058 -0.0118
 3758TIP3    H111235   6.235   1.832   5.507  1.2752 -1.5443  0.8663
 3758TIP3    H211236   6.116   1.781   5.586  2.4896 -1.6540  2.6437
 3759TIP3   OH211237   3.194   0.633   4.905  0.7177  0.4797 -0.0401
 3759TIP3    H111238   3.280   0.669   4.928  1.5231 -1.7618  0.6187
 3759TIP3    H211239   3.206   0.595   4.818  1.0017 -1.6191  0.8735
 3760TIP3   OH211240   7.117   3.286   1.424  0.5057 -0.4786  0.3820
 3760TIP3    H111241   7.152   3.200   1.403 -0.1544 -0.3865 -1.1814
 3760TIP3    H211242   7.031   3.287   1.383  0.2418  0.6728  0.9647
 3761TIP3   OH211243   5.603   1.336   2.495  0.1529  0.7832 -0.2014
 3761TIP3    H111244   5.651   1.374   2.421 -0.2245  1.6136 -0.0279
 3761TIP3    H211245   5.531   1.289   2.454  1.7435 -1.4315 -0.5251
 3762TIP3   OH211246   5.539   2.467   2.957 -0.4577 -0.2908  0.0480
 3762TIP3    H111247   5.487   2.518   2.895 -0.6032  0.2239  0.5863
 3762TIP3    H211248   5.487   2.388   2.971 -0.1731 -0.6478 -0.8804
 3763TIP3   OH211249   5.474   5.646   2.421  0.2413 -0.1656  0.1626
 3763TIP3    H111250   5.559   5.670   2.457 -0.5951  1.3784  1.1512
 3763TIP3    H211251   5.466   5.552   2.439  1.3471 -0.1382  0.8306
 3764TIP3   OH211252   5.623   3.686   1.262 -0.5619 -0.4886 -0.0245
 3764TIP3    H111253   5.605   3.675   1.355 -0.4115  0.3230  0.1071
 3764TIP3    H211254   5.606   3.600   1.224  1.2965 -1.3585  1.0494
 3765TIP3   OH211255   5.377   6.343   2.518 -0.3722  0.1218  0.0812
 3765TIP3    H111256   5.451   6.375   2.466  0.0791  0.0243  0.6566
 3765TIP3    H211257   5.401   6.362   2.608 -1.4552  0.8872  0.2139
 3766TIP3   OH211258   5.516   2.237   1.141 -0.0440  0.0030  0.8606
 3766TIP3    H111259   5.448   2.271   1.082  0.2622 -2.1820 -0.8208
 3766TIP3    H211260   5.467   2.201   1.215 -0.6780 -0.6255  0.1446
 3767TIP3   OH211261   3.271   4.934   2.367  0.1752 -0.3610  0.0467
 3767TIP3    H111262   3.296   4.878   2.293  0.6938  0.2849 -0.2765
 3767TIP3    H211263   3.176   4.937   2.364  0.2475  1.4462 -1.9757
 3768TIP3   OH211264   6.548   4.033   1.639 -0.1648  0.5309  0.2351
 3768TIP3    H111265   6.546   4.077   1.554 -0.5773 -0.0085 -0.0336
 3768TIP3    H211266   6.636   3.995   1.644 -0.6091 -0.6023 -0.5416
 3769TIP3   OH211267   1.919   7.044   4.876 -0.2184  0.5332 -0.3956
 3769TIP3    H111268   2.000   7.023   4.829 -0.1838  1.9067 -0.9682
 3769TIP3    H211269   1.853   7.054   4.808 -1.3158 -2.3391  0.1711
 3770TIP3   OH211270   3.698   0.331   6.075 -0.5826  0.4404 -0.2621
 3770TIP3    H111271   3.608   0.319   6.104 -0.7033  0.9515 -0.4283
 3770TIP3    H211272   3.710   0.426   6.072  0.0362  0.3719 -0.0054
 3771TIP3   OH211273   5.281   5.383   0.187 -0.0685  0.0757  0.1301
 3771TIP3    H111274   5.359   5.335   0.159 -0.9768 -2.4282  1.7018
 3771TIP3    H211275   5.212   5.354   0.128 -0.1375  1.2057 -0.3563
 3772TIP3   OH211276   4.965   3.917   0.251 -0.4191 -0.5459  0.2554
 3772TIP3    H111277   4.926   3.934   0.337 -0.0447  1.3214  0.0933
 3772TIP3    H211278   5.021   3.841   0.264 -1.8037 -1.4266  1.2114
 3773TIP3   OH211279   4.265   3.951   4.984  0.3535 -0.2823  0.2653
 3773TIP3    H111280   4.232   3.891   5.050 -0.7665  0.8997  0.7923
 3773TIP3    H211281   4.248   3.907   4.901 -0.0054 -0.9149  0.6754
 3774TIP3   OH211282   4.830   4.951   1.475  0.0034  0.0458  0.0544
 3774TIP3    H111283   4.802   4.971   1.564 -1.7198  0.9054 -0.6675
 3774TIP3    H211284   4.894   4.881   1.486 -0.4739 -0.1288  1.9441
 3775TIP3   OH211285   6.486   4.387   3.025 -0.1877  0.1328  0.1749
 3775TIP3    H111286   6.394   4.372   3.005 -0.8786  0.8385  2.6622
 3775TIP3    H211287   6.489   4.476   3.059  1.5277  0.3362 -0.4408
 3776TIP3   OH211288   4.655   3.919   2.239 -0.1729 -0.3819 -0.5685
 3776TIP3    H111289   4.620   3.863   2.170 -0.5347 -0.5670 -0.2385
 3776TIP3    H211290   4.593   3.991   2.247  0.0971 -0.1273 -0.7342
 3777TIP3   OH211291   0.072   3.514   3.330 -0.1641 -0.7248 -0.3361
 3777TIP3    H111292   0.166   3.511   3.316 -0.0269 -2.4403  0.8983
 3777TIP3    H211293   0.055   3.604   3.358  1.1263 -0.4781 -0.3338
 3778TIP3   OH211294   2.614   5.116   2.603 -0.5023  0.6765  0.0610
 3778TIP3    H111295   2.706   5.094   2.589 -1.1394 -1.9731 -0.2250
 3778TIP3    H211296   2.594   5.180   2.534  0.5927 -0.2755 -1.1705
 3779TIP3   OH211297   5.461   5.144   1.912 -0.3585  0.3911 -0.0042
 3779TIP3    H111298   5.501   5.066   1.949  0.3845  1.5296  1.6468
 3779TIP3    H211299   5.452   5.124   1.819  3.0461 -0.3350 -0.2327
 3780TIP3   OH211300   5.528   6.298   1.405 -0.0683  0.0092  0.3463
 3780TIP3    H111301   5.617   6.264   1.394 -0.4945 -0.9906 -0.0733
 3780TIP3    H211302   5.497   6.255   1.485 -0.4786 -0.3175  0.0146
 3781TIP3   OH211303   5.244   6.639   3.612 -0.4416  0.1313 -0.1069
 3781TIP3    H111304   5.237   6.697   3.689 -0.5149 -1.2973  0.9777
 3781TIP3    H211305   5.336   6.611   3.612 -0.0409  1.3918 -1.4874
 3782TIP3   OH211306   6.397   5.057   0.644 -0.1052  0.4543 -0.4131
 3782TIP3    H111307   6.466   5.090   0.586 -0.0393 -1.2406 -1.3171
 3782TIP3    H211308   6.321   5.047   0.587 -0.2894 -0.3972 -0.0216
 3783TIP3   OH211309   4.580   3.208   1.625 -0.4190 -0.0268  0.0210
 3783TIP3    H111310   4.544   3.296   1.638 -0.4986  0.2883 -2.1392
 3783TIP3    H211311   4.636   3.216   1.548 -0.0878 -1.7745  0.0600
 3784TIP3   OH211312   3.105   5.129   3.041  0.0105  0.1339  0.7365
 3784TIP3    H111313   3.049   5.178   3.102  0.8124  1.6164  0.3272
 3784TIP3    H211314   3.044   5.077   2.989 -0.8788  0.6784  1.2160
 3785TIP3   OH211315   6.738   3.562   1.438  0.0142 -0.0196 -0.2966
 3785TIP3    H111316   6.721   3.506   1.514  1.2537 -0.6756 -0.4857
 3785TIP3    H211317   6.696   3.516   1.365  0.2671 -0.2419 -0.3004
 3786TIP3   OH211318   6.208   4.381   2.788  0.1139 -0.3798 -0.2060
 3786TIP3    H111319   6.204   4.473   2.815  0.1873 -0.5936  0.5407
 3786TIP3    H211320   6.126   4.367   2.740 -0.6701 -0.3515  1.0822
 3787TIP3   OH211321   4.162   1.169   6.183  0.8046 -0.0363 -0.1930
 3787TIP3    H111322   4.085   1.127   6.221  0.7280 -0.1337 -0.4525
 3787TIP3    H211323   4.126   1.231   6.119  0.9334  0.0954 -0.1391
 3788TIP3   OH211324   0.106   4.616   2.342 -0.3462  0.1659 -0.4888
 3788TIP3    H111325   0.199   4.624   2.361 -0.6601  0.2647  1.0855
 3788TIP3    H211326   0.072   4.558   2.410 -1.5065  0.4519 -0.8090
 3789TIP3   OH211327   3.047   1.139   6.065  0.3569 -0.4139  0.4830
 3789TIP3    H111328   3.037   1.059   6.014 -1.8115 -0.9356  1.6921
 3789TIP3    H211329   2.996   1.205   6.017  1.9366  0.2391 -0.3778
 3790TIP3   OH211330   5.038   1.459   3.210 -0.3423  0.0550 -0.7400
 3790TIP3    H111331   4.968   1.471   3.273  0.9113  0.6068  0.5837
 3790TIP3    H211332   5.106   1.413   3.258  1.0047  1.2876 -1.3986
 3791TIP3   OH211333   5.334   4.050   0.853  0.0025 -0.9724 -0.2487
 3791TIP3    H111334   5.398   4.085   0.791 -0.6515 -0.5485 -0.6960
 3791TIP3    H211335   5.283   4.126   0.881 -0.0853 -1.2550  0.3585
 3792TIP3   OH211336   7.101   2.448   0.123  0.3667 -0.2901 -0.0375
 3792TIP3    H111337   7.118   2.525   0.177 -0.7966 -1.1787  1.6756
 3792TIP3    H211338   7.030   2.475   0.065 -1.7481 -0.7606  2.2363
 3793TIP3   OH211339   2.170   6.651   5.573 -0.0459  0.0559 -0.0940
 3793TIP3    H111340   2.082   6.618   5.555  0.5010 -0.5781 -1.7016
 3793TIP3    H211341   2.226   6.573   5.571  0.4283  0.3280  1.8349
 3794TIP3   OH211342   3.280   4.667   1.629  0.3173 -0.1156  0.2025
 3794TIP3    H111343   3.302   4.657   1.536 -1.3826 -0.3367 -0.2013
 3794TIP3    H211344   3.345   4.729   1.663  0.9434 -0.0202 -1.1453
 3795TIP3   OH211345   7.386   1.785   2.227  0.8508 -0.1878 -0.4822
 3795TIP3    H111346   7.346   1.720   2.285 -1.4821  1.0770 -0.6222
 3795TIP3    H211347   7.440   1.839   2.285 -0.0037 -0.0703  0.2049
 3796TIP3   OH211348   6.094   4.594   1.726  0.3852 -0.1645 -0.0654
 3796TIP3    H111349   6.172   4.632   1.686  1.6686 -0.9128  1.6735
 3796TIP3    H211350   6.027   4.601   1.658  2.3728 -0.9487 -2.1909
 3797TIP3   OH211351   3.158   0.818   5.278 -0.0305 -0.1111  0.0391
 3797TIP3    H111352   3.168   0.850   5.188  0.2872 -2.1224 -0.6882
 3797TIP3    H211353   3.065   0.796   5.285 -0.4998  2.0873  0.9448
 3798TIP3   OH211354   4.785   6.386   4.318 -0.3249 -0.3969  0.3738
 3798TIP3    H111355   4.748   6.412   4.403 -0.1599  2.5884 -0.3994
 3798TIP3    H211356   4.879   6.397   4.328 -0.4493  2.1196 -0.8200
 3799TIP3   OH211357   4.863   3.487   1.164  0.1466 -0.1256  0.4160
 3799TIP3    H111358   4.876   3.478   1.069 -0.8151  0.1767  0.2558
 3799TIP3    H211359   4.952   3.497   1.199  0.5411 -0.6308 -0.4073
 3800TIP3   OH211360   5.682   3.640   2.759 -0.5871  0.2585  0.3931
 3800TIP3    H111361   5.747   3.617   2.826 -1.5970  2.8529  2.3192
 3800TIP3    H211362   5.598   3.617   2.798 -1.2980  3.1374  0.6430
 3801TIP3   OH211363   6.136   5.370   0.797  0.3836 -0.6563 -0.1978
 3801TIP3    H111364   6.052   5.324   0.794  0.6339 -1.0701 -0.8874
 3801TIP3    H211365   6.197   5.303   0.829  0.6851 -0.6977 -0.8760
 3802TIP3   OH211366   6.124   2.960   4.241 -0.3756  0.2304  0.4962
 3802TIP3    H111367   6.148   2.991   4.328 -0.5477 -0.4084  0.7788
 3802TIP3    H211368   6.108   2.866   4.253  0.0720  0.0421 -0.3194
 3803TIP3   OH211369   5.168   4.717   2.552  0.1014 -0.0659  0.7575
 3803TIP3    H111370   5.258   4.726   2.586 -0.1253  0.2544  1.2956
 3803TIP3    H211371   5.125   4.798   2.581 -0.0563  0.2907 -0.4568
 3804TIP3   OH211372   6.443   4.431   2.630 -0.4629  0.2382 -0.0135
 3804TIP3    H111373   6.358   4.413   2.671  0.3786 -1.8457  0.9120
 3804TIP3    H211374   6.490   4.485   2.695 -0.7834  0.7172 -0.1797
 3805TIP3   OH211375   7.099   5.487   2.150 -0.1372 -0.5390 -0.1091
 3805TIP3    H111376   7.059   5.486   2.236 -0.0007 -0.0649 -0.0403
 3805TIP3    H211377   7.125   5.578   2.136  0.2239 -0.6937 -0.4708
 3806TIP3   OH211378   0.040   6.035   1.106 -0.1683 -0.7730 -0.1516
 3806TIP3    H111379   0.125   5.994   1.088 -0.4340 -1.0734 -0.7079
 3806TIP3    H211380   0.063   6.119   1.147  0.3743 -1.7624  1.6533
 3807TIP3   OH211381   6.767   4.660   1.271 -0.4393 -0.2482  0.4966
 3807TIP3    H111382   6.687   4.613   1.248  0.3132 -0.3614 -2.0444
 3807TIP3    H211383   6.776   4.727   1.203  0.5939  1.0449  1.8656
 3808TIP3   OH211384   3.671   0.507   6.288  0.5064  0.2101 -0.3081
 3808TIP3    H111385   3.657   0.579   6.227  1.5805 -0.5591 -1.4987
 3808TIP3    H211386   3.758   0.473   6.266 -0.4191 -2.1544 -0.5384
 3809TIP3   OH211387   6.083   0.362   4.741  0.3614 -0.0614  0.3898
 3809TIP3    H111388   6.005   0.310   4.757  0.9696 -1.3354 -0.7570
 3809TIP3    H211389   6.068   0.443   4.790 -1.2389 -0.6919  0.9628
 3810TIP3   OH211390   6.578   3.590   2.012  0.0497 -0.3165  0.1502
 3810TIP3    H111391   6.668   3.597   1.980 -0.0784  1.2821  0.0615
 3810TIP3    H211392   6.561   3.674   2.055 -1.2875 -0.7226  0.4520
 3811TIP3   OH211393   5.750   3.090   1.431 -0.1561 -0.1807 -0.0637
 3811TIP3    H111394   5.697   3.033   1.486 -0.7238  1.5889  1.2598
 3811TIP3    H211395   5.689   3.159   1.403  0.9982  0.8496 -0.0487
 3812TIP3   OH211396   5.778   5.523   0.524  0.4221  0.0735  0.2132
 3812TIP3    H111397   5.696   5.506   0.477 -0.4802 -0.0905  1.8031
 3812TIP3    H211398   5.813   5.602   0.483  0.3241 -0.7960 -1.5912
 3813TIP3   OH211399   1.217   5.361   5.933 -0.2550  0.4143 -0.7689
 3813TIP3    H111400   1.128   5.394   5.945 -0.2849  0.6043 -1.5359
 3813TIP3    H211401   1.261   5.383   6.015 -0.7572  0.8234 -0.6075
 3814TIP3   OH211402   5.918   2.828   1.855 -0.0692  0.5231 -0.4102
 3814TIP3    H111403   5.976   2.843   1.780  0.0863  0.3492 -0.3247
 3814TIP3    H211404   5.952   2.748   1.896 -0.7921  0.0156 -0.7691
 3815TIP3   OH211405   4.442   1.262   5.532  0.6284 -0.0504  0.7122
 3815TIP3    H111406   4.457   1.246   5.626  2.8215 -2.6715 -0.0051
 3815TIP3    H211407   4.474   1.351   5.517  0.6496  0.2387  2.3712
 3816TIP3   OH211408   6.501   5.659   2.449  0.0886  0.1551  0.2918
 3816TIP3    H111409   6.582   5.611   2.463  0.0108 -0.0404  0.0853
 3816TIP3    H211410   6.433   5.603   2.485 -0.0820 -0.2284 -0.6146
 3817TIP3   OH211411   7.255   4.463   1.628 -0.1047 -0.7635  0.2187
 3817TIP3    H111412   7.309   4.539   1.650 -1.0545 -0.0909  0.2230
 3817TIP3    H211413   7.261   4.407   1.706 -1.2807  0.3835  1.1610
 3818TIP3   OH211414   6.914   5.317   1.234  0.2162 -0.4617 -0.3934
 3818TIP3    H111415   6.997   5.281   1.205  0.6547 -1.8366  2.3276
 3818TIP3    H211416   6.854   5.306   1.160  2.5277  0.9403 -2.5197
 3819TIP3   OH211417   2.696   0.132   1.831  0.7667  0.4829  0.3246
 3819TIP3    H111418   2.756   0.197   1.867 -0.6682  1.0092  1.8663
 3819TIP3    H211419   2.622   0.183   1.799  2.0865  0.0390 -3.6785
 3820TIP3   OH211420   4.361   4.336   0.897  0.2707 -0.4251 -0.2251
 3820TIP3    H111421   4.272   4.305   0.912  0.0434  0.3831  0.1440
 3820TIP3    H211422   4.361   4.366   0.806  0.0009  0.0915 -0.0594
 3821TIP3   OH211423   6.639   6.439   3.147  0.4857  0.3238  0.4024
 3821TIP3    H111424   6.696   6.365   3.167  1.3042  0.6940 -0.5392
 3821TIP3    H211425   6.620   6.479   3.232  0.9736 -0.2784  0.7928
 3822TIP3   OH211426   5.076   4.949   2.239 -0.2415  0.1248 -0.0254
 3822TIP3    H111427   5.156   4.898   2.255 -1.0714 -0.5486  2.0618
 3822TIP3    H211428   5.052   4.983   2.324 -2.4407 -0.0095 -0.5709
 3823TIP3   OH211429   4.444   4.112   1.314  0.4219 -0.1389  0.3298
 3823TIP3    H111430   4.474   4.178   1.252 -0.6283  0.9413  0.9468
 3823TIP3    H211431   4.381   4.060   1.264  0.6221 -0.1589  0.0915
 3824TIP3   OH211432   6.271   3.547   0.327  0.7169 -0.0046 -0.6991
 3824TIP3    H111433   6.224   3.544   0.244 -1.1198  1.6247  0.2566
 3824TIP3    H211434   6.219   3.494   0.386 -0.1011  2.0317  0.4455
 3825TIP3   OH211435   3.611   0.914   4.467 -0.4957  0.2718 -0.1267
 3825TIP3    H111436   3.604   0.947   4.377 -0.7649 -0.0480 -0.2286
 3825TIP3    H211437   3.584   0.822   4.460  0.0527  0.0884  0.1821
 3826TIP3   OH211438   2.481   2.229   6.129 -0.3066 -0.0936  0.4893
 3826TIP3    H111439   2.413   2.236   6.062 -0.4406  0.0814  0.6426
 3826TIP3    H211440   2.486   2.136   6.149 -0.0343 -0.1863 -0.0034
 3827TIP3   OH211441   0.285   4.763   1.251 -0.5274  0.7154  0.4028
 3827TIP3    H111442   0.210   4.823   1.246 -1.2250 -0.1740  0.1670
 3827TIP3    H211443   0.269   4.698   1.183  0.5939  0.6588  0.1764
 3828TIP3   OH211444   6.913   4.516   1.615  0.0678 -0.2067 -0.5860
 3828TIP3    H111445   6.975   4.587   1.600 -0.3671  0.2845 -0.0982
 3828TIP3    H211446   6.898   4.478   1.529  0.1031  0.4609 -0.8855
 3829TIP3   OH211447   6.956   4.664   0.784 -0.0152  0.1096  0.0828
 3829TIP3    H111448   6.914   4.744   0.753  1.4845  0.7399 -0.3166
 3829TIP3    H211449   7.037   4.693   0.826  0.3571 -1.1644  0.2649
 3830TIP3   OH211450   6.618   3.482   1.141 -0.1680  0.4101  0.0463
 3830TIP3    H111451   6.616   3.401   1.091  0.1839 -0.2504  1.1014
 3830TIP3    H211452   6.528   3.494   1.171 -0.3790  0.8087 -0.7453
 3831TIP3   OH211453   4.604   3.686   2.084 -0.1507  0.1729 -0.3801
 3831TIP3    H111454   4.611   3.747   2.011  0.3367  0.0212 -0.4657
 3831TIP3    H211455   4.649   3.607   2.053 -1.1289 -0.3720 -0.4225
 3832TIP3   OH211456   6.725   2.767   1.997  0.1737  0.1804  0.0001
 3832TIP3    H111457   6.820   2.767   1.985  0.3053 -0.4428  0.9543
 3832TIP3    H211458   6.706   2.681   2.035 -0.3288  1.5253  3.0010
 3833TIP3   OH211459   1.698   7.175   5.839  0.9008  0.9327  0.1842
 3833TIP3    H111460   1.678   7.268   5.827 -0.1626  0.7867  0.7438
 3833TIP3    H211461   1.648   7.150   5.917  0.6294 -0.2728 -0.3682
 3834TIP3   OH211462   4.946   4.275   0.678 -0.2113 -0.2078 -0.0761
 3834TIP3    H111463   4.877   4.293   0.614  0.0508 -0.0337 -0.3120
 3834TIP3    H211464   4.988   4.196   0.646  1.1819  0.9615 -1.1903
 3835TIP3   OH211465   7.046   6.200   1.365 -0.2532  0.2597 -0.2415
 3835TIP3    H111466   7.024   6.154   1.446  0.7340  2.4953  1.3288
 3835TIP3    H211467   7.005   6.286   1.373  0.5857  0.8173 -1.7145
 3836TIP3   OH211468   0.459   3.533   0.391  0.4094  0.2334 -0.1857
 3836TIP3    H111469   0.478   3.444   0.361  1.2065 -0.4496  2.1617
 3836TIP3    H211470   0.510   3.590   0.333  1.0457 -0.9319 -0.7873
 3837TIP3   OH211471   6.168   3.279   1.649 -0.1940 -0.0512 -0.0848
 3837TIP3    H111472   6.232   3.282   1.579  0.0229 -2.2506 -0.0387
 3837TIP3    H211473   6.084   3.295   1.606 -0.1347 -2.0306 -0.9903
 3838TIP3   OH211474   7.565   4.416   2.681  0.0013 -0.4125  0.0177
 3838TIP3    H111475   7.653   4.444   2.655  0.3310 -0.2478  1.2866
 3838TIP3    H211476   7.526   4.494   2.720  0.0405 -1.0556  1.3422
 3839TIP3   OH211477   0.870   2.917   2.368  0.3778 -0.5389  0.4311
 3839TIP3    H111478   0.954   2.953   2.340  1.2267 -1.3682  1.8345
 3839TIP3    H211479   0.827   2.892   2.286  0.0930  2.8189 -0.5203
 3840TIP3   OH211480   6.354   5.308   1.264 -0.3500  0.0110  0.1890
 3840TIP3    H111481   6.350   5.274   1.354  1.1939 -0.2573  0.1768
 3840TIP3    H211482   6.389   5.236   1.213 -1.7491 -0.0184 -0.7484
 3841TIP3   OH211483   7.711   3.839   1.379 -0.5889  0.1568  0.9406
 3841TIP3    H111484   7.662   3.833   1.461 -0.1422  0.5112  1.2339
 3841TIP3    H211485   7.803   3.845   1.406 -0.3844 -0.4228  0.3940
 3842TIP3   OH211486   7.057   3.652   2.015 -0.4028 -0.1318 -0.0073
 3842TIP3    H111487   7.035   3.666   2.107  2.9383  1.1966  0.6406
 3842TIP3    H211488   7.136   3.599   2.017  0.2546  0.7190 -2.0915
 3843TIP3   OH211489   4.612   5.245   0.687 -0.7524 -0.1705 -0.1468
 3843TIP3    H111490   4.585   5.295   0.764 -0.5600 -0.8313  0.3565
 3843TIP3    H211491   4.700   5.213   0.709 -0.6976 -0.3616 -0.6398
 3844TIP3   OH211492   4.145   0.801   6.202 -0.1762 -0.0873 -0.3460
 3844TIP3    H111493   4.229   0.840   6.180 -0.4226 -0.0370 -1.2053
 3844TIP3    H211494   4.131   0.734   6.135 -1.5830  1.0133 -1.1702
 3845TIP3   OH211495   7.314   7.153   0.690 -0.1788  0.4474  0.3396
 3845TIP3    H111496   7.398   7.127   0.729 -0.2250  0.5634  0.5152
 3845TIP3    H211497   7.296   7.085   0.625  0.0926  0.4663  0.2433
 3846TIP3   OH211498   4.521   5.349   2.010  0.2288 -0.3551  0.6247
 3846TIP3    H111499   4.577   5.345   1.932  1.4246 -0.3209  1.4617
 3846TIP3    H211500   4.434   5.324   1.979  0.2612  1.5515 -1.1124
 3847TIP3   OH211501   4.334   1.147   3.328  0.0245 -0.3606  0.0795
 3847TIP3    H111502   4.247   1.123   3.296 -0.0206  0.8985 -0.7927
 3847TIP3    H211503   4.318   1.214   3.394  0.2786 -0.9610  0.7593
 3848TIP3   OH211504   0.340   0.337   1.048 -0.1547  0.4084  0.8458
 3848TIP3    H111505   0.337   0.417   0.995  0.4115 -0.3713 -0.3775
 3848TIP3    H211506   0.431   0.331   1.076 -0.3645  0.5951  1.5873
 3849TIP3   OH211507   4.681   1.435   5.946  0.1587  0.0356 -0.3783
 3849TIP3    H111508   4.648   1.356   5.989  0.3743 -0.1821 -0.6134
 3849TIP3    H211509   4.745   1.403   5.883  0.8893  0.4648  0.1442
 3850TIP3   OH211510   6.786   7.117   4.239 -0.3198  0.2585 -0.9617
 3850TIP3    H111511   6.711   7.164   4.275 -0.2390 -0.8024  0.6414
 3850TIP3    H211512   6.763   7.100   4.148 -1.0590  1.9122 -1.1021
 3851TIP3   OH211513   0.956   0.238   3.350 -0.0740 -0.1902 -0.0342
 3851TIP3    H111514   0.898   0.164   3.366  1.2118 -1.3251 -0.5248
 3851TIP3    H211515   0.991   0.223   3.262  0.5769  0.7364  0.0557
 3852TIP3   OH211516   7.273   3.988   1.417 -0.0645 -0.2669  0.0015
 3852TIP3    H111517   7.178   3.978   1.416  0.1219 -2.3358 -1.0509
 3852TIP3    H211518   7.288   4.082   1.410 -2.0385  0.1901  1.6589
 3853TIP3   OH211519   5.041   4.017   0.666 -0.0530  0.3428 -0.1515
 3853TIP3    H111520   5.004   3.957   0.731  0.2182 -0.5181 -0.7875
 3853TIP3    H211521   5.094   3.961   0.609  2.2131  1.5167  0.6976
 3854TIP3   OH211522   4.919   1.188   4.789  0.0114 -0.4877 -0.1788
 3854TIP3    H111523   4.955   1.274   4.811  0.6790 -0.9316  0.4819
 3854TIP3    H211524   4.839   1.182   4.841  0.4084 -0.6119  0.4205
 3855TIP3   OH211525   5.498   0.380   5.309 -0.0801  0.6040  0.3842
 3855TIP3    H111526   5.556   0.438   5.358  0.8637  0.7599 -0.8750
 3855TIP3    H211527   5.434   0.439   5.268  0.7204  0.7488 -0.6828
 3856TIP3   OH211528   6.329   5.228   1.788  0.2769 -0.2802  0.4101
 3856TIP3    H111529   6.324   5.321   1.811 -1.1764 -0.4235  0.7151
 3856TIP3    H211530   6.417   5.202   1.815  0.8151  1.0762  0.0322
 3857TIP3   OH211531   6.285   3.814   1.048  0.2528 -0.8295  0.1887
 3857TIP3    H111532   6.298   3.886   0.986  2.7171 -1.8525 -0.5555
 3857TIP3    H211533   6.335   3.839   1.126 -0.1558 -1.0308  0.5192
 3858TIP3   OH211534   1.895   0.220   1.280  0.0967 -0.0542 -0.1224
 3858TIP3    H111535   1.841   0.211   1.201  1.1746 -0.2063 -0.8536
 3858TIP3    H211536   1.905   0.314   1.291  0.2455 -0.0388 -0.3781
 3859TIP3   OH211537   1.412   7.252   2.361 -0.3307  0.0686 -0.4736
 3859TIP3    H111538   1.490   7.306   2.369  1.1344 -2.1160  0.6498
 3859TIP3    H211539   1.441   7.175   2.311 -1.6975 -0.8727  0.1356
 3860TIP3   OH211540   6.703   5.872   2.522 -0.0486 -0.1887  0.3018
 3860TIP3    H111541   6.646   5.800   2.495  0.3332 -0.3527 -0.0724
 3860TIP3    H211542   6.663   5.906   2.602  1.1496 -2.4269  1.9070
 3861TIP3   OH211543   6.165   4.759   2.329  0.2877 -0.2678 -0.3458
 3861TIP3    H111544   6.251   4.753   2.288  0.7767 -1.2921  0.7917
 3861TIP3    H211545   6.115   4.688   2.290 -0.7557  1.6401 -2.5917
 3862TIP3   OH211546   7.173   3.602   3.034  0.0542 -0.4007  0.2576
 3862TIP3    H111547   7.187   3.570   3.123  2.9710  1.1903  0.4746
 3862TIP3    H211548   7.191   3.696   3.040 -0.6565 -0.1006 -1.8333
 3863TIP3   OH211549   1.387   6.047   4.414 -0.3043  0.0490  0.4301
 3863TIP3    H111550   1.295   6.066   4.397 -0.3609 -0.4889  0.1028
 3863TIP3    H211551   1.431   6.132   4.409 -0.4657  0.0537 -1.4888
 3864TIP3   OH211552   6.128   3.550   2.588 -0.6751 -0.2835 -0.0909
 3864TIP3    H111553   6.109   3.475   2.532 -1.1198  1.0575 -1.8102
 3864TIP3    H211554   6.220   3.570   2.572 -0.2908 -1.0514  1.1131
 3865TIP3   OH211555   6.698   4.438   0.374  0.4824 -0.1199  0.0995
 3865TIP3    H111556   6.748   4.396   0.445  1.2385  1.0866  0.2913
 3865TIP3    H211557   6.677   4.366   0.314  1.3808 -0.8449  0.6369
 3866TIP3   OH211558   7.478   5.538   1.596  0.5851 -0.2828 -0.8270
 3866TIP3    H111559   7.520   5.472   1.542 -0.4535 -0.3772 -1.5333
 3866TIP3    H211560   7.447   5.604   1.534  2.4392  1.3600 -0.0679
 3867TIP3   OH211561   7.379   4.081   0.750  0.4336 -0.0520  0.1256
 3867TIP3    H111562   7.393   3.993   0.784  0.6105  0.3598  1.1129
 3867TIP3    H211563   7.305   4.071   0.689  0.2626 -0.8237  0.4528
 3868TIP3   OH211564   7.048   4.752   1.559 -0.2632 -0.3731 -0.5671
 3868TIP3    H111565   7.112   4.786   1.497 -0.9953  1.0190 -0.5794
 3868TIP3    H211566   6.964   4.787   1.529 -0.5654  0.7737  1.4924
 3869TIP3   OH211567   0.224   3.785   1.775 -0.3970  0.3973 -0.5586
 3869TIP3    H111568   0.212   3.802   1.868  0.1533  0.7483 -0.5470
 3869TIP3    H211569   0.145   3.738   1.748  0.2124 -1.2411  0.4570
 3870TIP3   OH211570   1.182   4.882   2.457  0.2261  0.2291 -0.1840
 3870TIP3    H111571   1.129   4.804   2.474  1.5200 -0.8410 -0.9905
 3870TIP3    H211572   1.141   4.923   2.381 -1.6006  1.4144  1.3873
 3871TIP3   OH211573   0.071   4.252   2.225 -0.1409 -0.2358  0.0345
 3871TIP3    H111574   0.109   4.252   2.312 -0.0593  0.4571 -0.0023
 3871TIP3    H211575  -0.011   4.301   2.235 -1.6146 -2.6686  0.3733
 3872TIP3   OH211576   4.201   1.972   2.607  0.4910  0.3886 -0.1121
 3872TIP3    H111577   4.195   1.990   2.701 -2.8680  0.7215 -0.3482
 3872TIP3    H211578   4.225   1.879   2.603 -0.8108 -0.0229  1.0916
 3873TIP3   OH211579   4.612   0.773   6.047 -0.0806 -0.2770 -1.0295
 3873TIP3    H111580   4.635   0.736   5.962 -2.5941 -3.7162 -0.3214
 3873TIP3    H211581   4.519   0.794   6.039  0.1822  1.4917  0.2055
 3874TIP3   OH211582   7.237   6.421   1.004 -0.3201 -0.2909  0.1081
 3874TIP3    H111583   7.234   6.439   0.910 -2.0172  0.5056  0.3009
 3874TIP3    H211584   7.204   6.502   1.044  2.5315  0.2514  1.4967
 3875TIP3   OH211585   4.731   4.993   2.042 -0.0796  0.5515  0.1225
 3875TIP3    H111586   4.724   5.034   1.956 -0.7963  0.1781  0.0003
 3875TIP3    H211587   4.641   4.969   2.064  0.2104 -0.0769  0.6232
 3876TIP3   OH211588   0.762   2.855   3.063 -0.4218 -0.3882  0.2284
 3876TIP3    H111589   0.687   2.883   3.012  0.8030  1.4282 -0.6012
 3876TIP3    H211590   0.750   2.895   3.149 -0.6423 -0.4780  0.2383
 3877TIP3   OH211591   5.892   3.310   3.641 -0.0754 -0.2506 -0.6730
 3877TIP3    H111592   5.837   3.272   3.574 -1.4354 -0.6723  0.6578
 3877TIP3    H211593   5.843   3.386   3.673 -0.4282 -1.2515  1.2774
 3878TIP3   OH211594   4.234   0.082   5.795 -0.0234 -0.5671 -0.0917
 3878TIP3    H111595   4.147   0.106   5.763  0.4975  0.6886 -0.5801
 3878TIP3    H211596   4.294   0.132   5.740  0.9637 -0.3557  1.1786
 3879TIP3   OH211597   2.507   4.368   5.417  0.4776 -0.5096 -0.1012
 3879TIP3    H111598   2.549   4.437   5.468  0.5476 -0.0335 -0.7869
 3879TIP3    H211599   2.413   4.389   5.421  0.3752 -1.1171  0.7681
 3880TIP3   OH211600   7.096   2.490   3.670 -0.3369  0.1104 -0.2946
 3880TIP3    H111601   7.049   2.478   3.588  0.3309 -3.0170 -0.2858
 3880TIP3    H211602   7.176   2.537   3.645 -0.3143 -0.4937 -1.3627
 3881TIP3   OH211603   7.001   5.248   1.675  0.1783 -0.2324  0.1910
 3881TIP3    H111604   7.071   5.184   1.665  0.7915  0.4109  0.3598
 3881TIP3    H211605   6.933   5.219   1.614  0.7299 -0.6652 -0.2204
 3882TIP3   OH211606   0.356   6.188   1.824 -0.1040 -0.0309 -0.2649
 3882TIP3    H111607   0.338   6.282   1.833 -0.8186 -0.2833  1.0382
 3882TIP3    H211608   0.326   6.150   1.907  0.2259 -1.4053 -0.7698
 3883TIP3   OH211609   2.969   2.587   5.868  0.0643 -0.0662  0.2693
 3883TIP3    H111610   2.942   2.671   5.906  0.8990  0.3723 -0.0958
 3883TIP3    H211611   2.940   2.592   5.776  0.0340 -0.2103  0.2713
 3884TIP3   OH211612   5.476   4.911   2.395  0.6425  0.0417  0.3080
 3884TIP3    H111613   5.482   4.899   2.490  3.5831  0.6569  0.2437
 3884TIP3    H211614   5.566   4.901   2.364 -0.1798  0.5513 -2.3453
 3885TIP3   OH211615   6.284   5.484   2.905 -0.1116 -0.0234  0.2934
 3885TIP3    H111616   6.330   5.540   2.967 -0.7217  0.9077 -0.0729
 3885TIP3    H211617   6.352   5.428   2.868  0.5816  0.7307  0.4010
 3886TIP3   OH211618   7.151   6.950   4.263 -0.0060  0.4185  0.0865
 3886TIP3    H111619   7.181   6.925   4.350 -0.5360  0.6412  0.3378
 3886TIP3    H211620   7.057   6.928   4.263  0.2039 -0.5598 -0.7811
 3887TIP3   OH211621   6.733   4.090   1.297  0.4436  1.1426  0.4020
 3887TIP3    H111622   6.755   4.134   1.215 -2.0183  0.0374 -0.8894
 3887TIP3    H211623   6.781   4.008   1.294 -1.7536 -0.1339 -1.2458
 3888TIP3   OH211624   0.984   5.297   2.464 -0.0410 -0.4253 -0.2574
 3888TIP3    H111625   0.892   5.272   2.468 -0.3636  0.8238  0.2642
 3888TIP3    H211626   0.986   5.388   2.494  1.4841 -0.7515  0.7061
 3889TIP3   OH211627   6.305   3.880   0.503  0.0107 -0.2003 -0.0233
 3889TIP3    H111628   6.362   3.820   0.456  0.7167 -0.5311  1.2155
 3889TIP3    H211629   6.363   3.949   0.534 -0.0873 -0.9319  1.8916
 3890TIP3   OH211630   6.877   0.385   0.850  0.0984  0.1691 -0.4089
 3890TIP3    H111631   6.808   0.328   0.885  0.8166 -0.3235  0.2240
 3890TIP3    H211632   6.853   0.473   0.879  0.9157 -0.2871  1.7188
 3891TIP3   OH211633   4.898   3.794   0.759  0.5682 -0.1695  0.2596
 3891TIP3    H111634   4.819   3.739   0.756  0.4177 -0.0496  1.8483
 3891TIP3    H211635   4.970   3.732   0.755  0.4349 -0.2450 -1.9978
 3892TIP3   OH211636   2.993   1.007   6.329 -0.3332 -0.0276 -0.3418
 3892TIP3    H111637   2.906   0.969   6.319 -1.8450  2.8437  1.3808
 3892TIP3    H211638   3.020   1.029   6.240 -1.8210  0.0855 -0.7652
 3893TIP3   OH211639   1.045   3.592   1.373  0.0469  0.4781 -0.3400
 3893TIP3    H111640   1.060   3.499   1.390  3.0754  1.1558  1.0579
 3893TIP3    H211641   1.001   3.624   1.452  0.2152  0.5086 -0.2589
 3894TIP3   OH211642   0.135   4.423   1.958 -0.1964 -0.0129 -0.4981
 3894TIP3    H111643   0.140   4.509   1.999  1.2229  0.2857 -1.2524
 3894TIP3    H211644   0.067   4.432   1.892  0.8279  0.9481 -1.4601
 3895TIP3   OH211645   1.061   3.202   4.282  0.6476 -0.6881 -0.2185
 3895TIP3    H111646   1.129   3.149   4.239  1.0666  0.5868 -1.1417
 3895TIP3    H211647   1.073   3.290   4.247 -0.5954 -0.1481  0.6752
 3896TIP3   OH211648   0.539   5.038   3.845  0.0646 -0.1600 -0.3166
 3896TIP3    H111649   0.551   4.969   3.779  0.7011 -0.5903  0.2463
 3896TIP3    H211650   0.456   5.018   3.887 -1.5506  1.4589 -2.5861
 3897TIP3   OH211651   7.753   5.230   1.721 -0.1232  0.5347 -0.1671
 3897TIP3    H111652   7.719   5.246   1.632  0.2052  0.1057 -0.3750
 3897TIP3    H211653   7.848   5.231   1.711 -0.0680 -1.6291 -0.2369
 3898TIP3   OH211654  -0.005   3.622   4.692 -0.1222 -0.5091 -0.3146
 3898TIP3    H111655   0.042   3.700   4.662 -0.6769 -0.2910 -0.6049
 3898TIP3    H211656  -0.008   3.565   4.615  1.9186 -1.6199  0.3736
 3899TIP3   OH211657   3.142   4.743   3.017 -0.3780 -0.1077  0.7600
 3899TIP3    H111658   3.098   4.791   3.087  0.8553 -0.9052  2.1239
 3899TIP3    H211659   3.234   4.742   3.043 -0.1963 -2.1692  0.1882
 3900TIP3   OH211660   7.297   2.783   2.814  0.4928 -0.0472 -0.5925
 3900TIP3    H111661   7.214   2.809   2.854  0.3124 -1.8455  0.2295
 3900TIP3    H211662   7.322   2.702   2.858  1.0148 -1.3440 -3.1321
 3901TIP3   OH211663   2.018   5.831   2.194 -0.1627 -0.0549  0.1266
 3901TIP3    H111664   2.101   5.873   2.173 -0.0525  0.4918  1.5979
 3901TIP3    H211665   2.040   5.760   2.254 -0.6104 -0.8216 -0.5888
 3902TIP3   OH211666   6.377   5.720   3.024 -0.3762  0.0623 -0.3808
 3902TIP3    H111667   6.471   5.724   3.005 -0.4823 -1.7671 -1.3827
 3902TIP3    H211668   6.341   5.798   2.981  0.6420  0.6535 -0.1877
 3903TIP3   OH211669   0.199   3.246   2.511 -0.1964 -0.3026  0.0791
 3903TIP3    H111670   0.184   3.188   2.585  0.3604 -0.9566 -0.3116
 3903TIP3    H211671   0.286   3.222   2.479  0.1813  0.9830  0.1171
 3904TIP3   OH211672   7.071   6.984   2.698  0.6694 -0.8505 -0.0997
 3904TIP3    H111673   7.059   6.941   2.613 -0.6368 -1.5971  0.4532
 3904TIP3    H211674   7.083   7.076   2.675 -0.6737 -0.8824 -1.0639
 3905TIP3   OH211675   1.545   3.563   0.680  0.2738 -0.2816 -0.4281
 3905TIP3    H111676   1.589   3.648   0.680  2.3239 -1.2337 -3.5660
 3905TIP3    H211677   1.480   3.570   0.610 -1.6665 -0.3459  1.3135
 3906TIP3   OH211678   0.082   5.509   1.178 -0.6014 -0.2562 -0.0384
 3906TIP3    H111679   0.116   5.595   1.199 -1.4326 -0.5613  2.7177
 3906TIP3    H211680   0.159   5.457   1.155 -0.1176  1.2063 -1.8529
 3907TIP3   OH211681   7.461   5.223   3.889 -0.7987 -0.1726 -0.2042
 3907TIP3    H111682   7.534   5.268   3.846 -0.0902 -0.1082  1.0544
 3907TIP3    H211683   7.443   5.147   3.832  0.5285 -0.4321 -0.2901
 3908TIP3   OH211684   0.733   5.514   2.409  0.6891  0.2727  0.2530
 3908TIP3    H111685   0.695   5.583   2.465  0.9576  0.8732 -0.2992
 3908TIP3    H211686   0.708   5.432   2.452  0.3887  0.7139  0.9343
 3909TIP3   OH211687   0.701   5.261   2.551  0.3627  0.1719  0.4708
 3909TIP3    H111688   0.758   5.184   2.560  0.6779  0.0650 -2.0616
 3909TIP3    H211689   0.613   5.227   2.566  0.6325 -0.3682  0.8740
 3910TIP3   OH211690   1.385   4.865   3.818 -0.2859  0.4773 -0.4018
 3910TIP3    H111691   1.387   4.957   3.792  3.7121  0.7989  0.7529
 3910TIP3    H211692   1.434   4.819   3.749 -1.5284 -0.6741 -0.5344
 3911TIP3   OH211693   7.343   4.924   1.044  0.2247 -0.0654 -0.0531
 3911TIP3    H111694   7.328   4.848   1.101  1.4704  0.0926  0.5050
 3911TIP3    H211695   7.302   4.900   0.961 -1.2701 -0.4663  0.7690
 3912TIP3   OH211696   7.323   6.213   5.069 -0.3994  0.1518 -0.7898
 3912TIP3    H111697   7.306   6.225   5.162 -0.9445 -0.0165 -0.8613
 3912TIP3    H211698   7.416   6.229   5.058 -0.5356  1.2195 -0.3837
 3913TIP3   OH211699   0.197   3.439   1.792 -0.7093  0.1811 -0.2534
 3913TIP3    H111700   0.116   3.490   1.793 -0.6453  0.2847 -0.3279
 3913TIP3    H211701   0.230   3.448   1.702  0.3243  1.6257  0.2460
 3914TIP3   OH211702   0.696   3.541   2.032 -0.3645 -0.0507  0.2088
 3914TIP3    H111703   0.697   3.616   1.973 -1.3002 -0.3980 -0.2578
 3914TIP3    H211704   0.667   3.576   2.116 -3.3309 -0.3219 -0.6465
 3915TIP3   OH211705   1.075   4.904   3.356  0.3435  0.2462  0.4999
 3915TIP3    H111706   1.088   4.813   3.329  1.2948  0.3297  0.6790
 3915TIP3    H211707   1.161   4.944   3.350 -0.1968  1.3418 -0.3012
 3916TIP3   OH211708   6.777   6.872   3.654  0.3260  0.1837  0.3573
 3916TIP3    H111709   6.719   6.885   3.579  0.3336 -0.1705  0.2930
 3916TIP3    H211710   6.847   6.937   3.642  0.9150 -0.5943 -0.5182
 3917TIP3   OH211711   7.524   5.104   3.255  0.4516  0.0850  0.0537
 3917TIP3    H111712   7.502   5.193   3.229 -1.2061 -0.6965 -1.3046
 3917TIP3    H211713   7.505   5.101   3.349 -2.2710  0.3522 -0.4594
 3918TIP3   OH211714   5.180   1.065   6.000 -0.5684  0.2415  0.2668
 3918TIP3    H111715   5.106   1.008   5.979 -1.1493  0.9192  0.4682
 3918TIP3    H211716   5.166   1.143   5.947  1.9416 -1.1021 -2.4575
 3919TIP3   OH211717   1.357   6.339   4.067  0.0113  0.2084 -0.2580
 3919TIP3    H111718   1.445   6.302   4.076 -0.7205 -0.9070  3.0609
 3919TIP3    H211719   1.368   6.432   4.088  0.4946  0.1956 -0.4474
 3920TIP3   OH211720   6.271   4.563   1.365 -0.3999  0.0327  0.1614
 3920TIP3    H111721   6.351   4.549   1.415 -1.2267  0.2213  1.5893
 3920TIP3    H211722   6.235   4.644   1.401 -1.1251  0.0456 -0.5964
 3921TIP3   OH211723   0.959   4.241   3.776 -0.1157  0.8300 -0.0869
 3921TIP3    H111724   1.029   4.204   3.830 -0.3594  0.2831 -0.1402
 3921TIP3    H211725   0.983   4.333   3.765  0.6042  0.6406 -0.1309
 3922TIP3   OH211726   1.349   2.667   5.904 -0.4138 -0.5463 -0.6646
 3922TIP3    H111727   1.386   2.624   5.827 -0.1485  0.2413 -0.9801
 3922TIP3    H211728   1.421   2.720   5.938 -1.2299  0.9183 -1.2130
 3923TIP3   OH211729   2.178   3.263   5.585  0.5330  0.4601 -0.2247
 3923TIP3    H111730   2.089   3.272   5.551 -0.1934  0.5042  1.6023
 3923TIP3    H211731   2.202   3.172   5.566 -0.4410  0.0497  0.4612
 3924TIP3   OH211732   7.633   5.225   0.475 -0.1171 -0.6916 -0.0933
 3924TIP3    H111733   7.542   5.233   0.447  0.3305 -0.3446 -1.4505
 3924TIP3    H211734   7.681   5.199   0.397  1.0475 -0.3032  0.4810
 3925TIP3   OH211735   6.566   2.227   1.725  0.3108 -0.6801 -0.2026
 3925TIP3    H111736   6.573   2.132   1.737 -1.8149 -0.6284  1.8361
 3925TIP3    H211737   6.510   2.237   1.648 -0.4850 -1.0801  0.3219
 3926TIP3   OH211738   6.726   4.536   4.652  0.0037  0.2629  0.7485
 3926TIP3    H111739   6.659   4.583   4.701  0.9040  0.7857  1.5031
 3926TIP3    H211740   6.755   4.598   4.585  2.1733  1.3495  2.6139
 3927TIP3   OH211741   0.069   4.073   4.275  0.8896 -0.3916 -0.0740
 3927TIP3    H111742   0.005   4.016   4.232  1.0350 -0.1344 -0.6436
 3927TIP3    H211743   0.023   4.156   4.287  1.1354 -0.1880 -0.5394
 3928TIP3   OH211744   6.471   3.694   1.560 -0.0771  0.1848  0.0969
 3928TIP3    H111745   6.534   3.625   1.541  1.5363  1.3814  1.0704
 3928TIP3    H211746   6.493   3.724   1.647 -2.1366  0.5013  0.5437
 3929TIP3   OH211747   7.757   6.484   2.988  0.7598 -0.3253 -0.5540
 3929TIP3    H111748   7.805   6.432   3.052  1.9777  0.3142 -0.9283
 3929TIP3    H211749   7.751   6.571   3.028  0.3306 -0.2803 -0.7188
 3930TIP3   OH211750   0.158   4.438   4.379  0.2229  0.4629 -0.0016
 3930TIP3    H111751   0.087   4.389   4.339 -0.1473  1.7260 -0.9336
 3930TIP3    H211752   0.134   4.530   4.365  0.8525  0.9230  1.7621
 3931TIP3   OH211753   5.965   3.285   1.464 -0.7075 -0.3279  0.0658
 3931TIP3    H111754   5.885   3.338   1.469  0.0331  0.7864  0.4292
 3931TIP3    H211755   5.934   3.195   1.458 -2.0068  0.1796 -1.0432
 3932TIP3   OH211756   2.451   0.949   3.307 -0.2329  0.8103 -0.4237
 3932TIP3    H111757   2.523   0.897   3.344 -0.5274  0.8232  0.1855
 3932TIP3    H211758   2.378   0.932   3.367 -1.1550 -0.3622 -1.8519
 3933TIP3   OH211759   7.664   4.385   1.016 -0.1655  0.2655 -0.3071
 3933TIP3    H111760   7.689   4.296   1.041  0.0749  0.3111 -0.3834
 3933TIP3    H211761   7.671   4.386   0.921  2.2615  1.0750 -0.1575
 3934TIP3   OH211762   0.407   6.165   3.532 -0.5328  0.2640  0.0292
 3934TIP3    H111763   0.377   6.097   3.594 -0.0886  1.0724  1.1552
 3934TIP3    H211764   0.488   6.130   3.495 -0.2339  0.2201  0.7065
 3935TIP3   OH211765   7.336   6.311   1.416 -0.8120 -0.0262  0.1192
 3935TIP3    H111766   7.405   6.248   1.394  0.4982  0.4935  2.5685
 3935TIP3    H211767   7.265   6.291   1.355  1.2777 -0.9445 -2.1251
 3936TIP3   OH211768   0.212   5.615   2.204  0.2225 -0.0834  0.0551
 3936TIP3    H111769   0.147   5.667   2.250 -0.5694 -0.4583 -0.6229
 3936TIP3    H211770   0.271   5.583   2.273  0.3611  1.1973  0.5348
 3937TIP3   OH211771   2.154   0.110   1.365 -0.4847  0.6550 -0.0693
 3937TIP3    H111772   2.208   0.041   1.404 -1.0415  0.7867  0.9535
 3937TIP3    H211773   2.138   0.172   1.437 -0.5117  1.5278 -0.8198
 3938TIP3   OH211774   1.022   2.951   2.036 -0.7541 -0.1173 -0.0253
 3938TIP3    H111775   1.032   2.861   2.005 -3.8267 -0.8421  0.9086
 3938TIP3    H211776   0.949   2.986   1.984  0.2909  1.7806 -0.2522
 3939TIP3   OH211777   0.215   6.188   0.667 -0.4270  0.1693 -0.1556
 3939TIP3    H111778   0.124   6.185   0.638  0.0976  0.0376 -1.8745
 3939TIP3    H211779   0.237   6.281   0.667 -0.2518  0.1324 -0.7963
 3940TIP3   OH211780   0.504   4.562   1.812 -0.1817  0.1673  0.1627
 3940TIP3    H111781   0.493   4.509   1.891  1.3646 -0.0477  0.2495
 3940TIP3    H211782   0.514   4.498   1.741  3.3252  0.2776  0.4934
 3941TIP3   OH211783   1.430   4.874   4.517  0.5129 -0.3345  0.0531
 3941TIP3    H111784   1.474   4.812   4.576  0.7444 -0.6313 -0.4236
 3941TIP3    H211785   1.337   4.859   4.532  0.5260 -2.0674 -1.3238
 3942TIP3   OH211786   0.702   6.514   5.328  0.0959 -0.3493 -0.4821
 3942TIP3    H111787   0.697   6.530   5.422 -0.0959  1.5128 -0.7795
 3942TIP3    H211788   0.771   6.449   5.318  1.2247  0.6141  0.8397
 3943TIP3   OH211789   6.218   4.148   2.926  0.0784  0.2636 -0.0649
 3943TIP3    H111790   6.273   4.124   2.852 -1.7604 -1.7601 -0.8289
 3943TIP3    H211791   6.183   4.234   2.904  0.7821  0.3636 -0.8034
 3944TIP3   OH211792   0.883   6.587   3.233 -0.4396  0.9656 -0.2670
 3944TIP3    H111793   0.856   6.599   3.142 -1.0318 -2.0556 -0.5518
 3944TIP3    H211794   0.804   6.601   3.284 -0.9531 -0.8459 -0.5328
 3945TIP3   OH211795   6.404   6.467   1.498  0.0254  0.2734  0.0299
 3945TIP3    H111796   6.348   6.397   1.466  0.3966 -0.0490  0.0834
 3945TIP3    H211797   6.408   6.454   1.592 -1.9858  1.8880  0.3835
 3946TIP3   OH211798   0.843   6.866   1.398  0.2894  0.1681  0.5116
 3946TIP3    H111799   0.848   6.771   1.400  1.0888  0.2132  1.1567
 3946TIP3    H211800   0.766   6.887   1.451 -1.0995 -0.1862 -1.3265
 3947TIP3   OH211801   0.211   3.033   4.030 -0.1013 -0.1494 -0.5450
 3947TIP3    H111802   0.147   2.967   4.004  0.6125 -0.3591 -1.8120
 3947TIP3    H211803   0.162   3.115   4.030 -0.4571 -0.3522 -1.2413
 3948TIP3   OH211804   0.681   4.083   3.670  0.4211  0.0735  0.0373
 3948TIP3    H111805   0.699   4.150   3.736 -1.3911  1.1212 -0.4891
 3948TIP3    H211806   0.767   4.057   3.638  1.2446  0.7176  1.6495
 3949TIP3   OH211807   5.887   3.532   0.936 -0.4072  0.1174  0.2875
 3949TIP3    H111808   5.901   3.578   1.019  1.5768  0.7987 -0.4000
 3949TIP3    H211809   5.950   3.571   0.875 -1.2773 -0.9258 -1.3329
 3950TIP3   OH211810   0.513   3.961   3.326 -0.0929 -0.1569  0.6761
 3950TIP3    H111811   0.438   3.910   3.294 -0.0704  0.1121  0.1782
 3950TIP3    H211812   0.558   3.902   3.386 -1.1243 -0.0584  1.5752
 3951TIP3   OH211813   0.652   1.915   2.370  0.2029 -0.0861 -0.5091
 3951TIP3    H111814   0.737   1.871   2.375 -0.6174 -1.6997 -0.6112
 3951TIP3    H211815   0.622   1.900   2.280 -0.3948  0.0974 -0.3443
 3952TIP3   OH211816   7.579   3.594   3.647 -0.0566 -0.2818  0.6266
 3952TIP3    H111817   7.563   3.628   3.735 -2.4284  1.0434 -0.2836
 3952TIP3    H211818   7.561   3.667   3.589  2.3530 -0.8833 -0.9691
 3953TIP3   OH211819   7.653   2.841   2.096  0.5626 -0.9041 -0.4884
 3953TIP3    H111820   7.681   2.836   2.005  1.3058 -0.2410 -0.3037
 3953TIP3    H211821   7.657   2.751   2.128 -0.3485 -1.2412 -1.2913
 3954TIP3   OH211822   7.455   4.796   2.118 -0.0477  0.0799 -0.1757
 3954TIP3    H111823   7.463   4.797   2.022  0.0605 -2.8292 -0.2444
 3954TIP3    H211824   7.383   4.856   2.137 -0.2105  0.5192 -2.0915
 3955TIP3   OH211825   2.248   1.403   4.742 -0.2244  0.0595  0.0454
 3955TIP3    H111826   2.243   1.493   4.710  1.2512  1.0078  2.3208
 3955TIP3    H211827   2.164   1.387   4.784 -0.4280  0.4493 -0.2234
 3956TIP3   OH211828   6.633   5.691   0.875 -0.2331  0.2689  0.3849
 3956TIP3    H111829   6.583   5.615   0.844 -0.5121  0.4552  0.3695
 3956TIP3    H211830   6.578   5.728   0.944 -0.1584  0.5302  0.3026
 3957TIP3   OH211831   6.828   6.594   0.794 -0.3212  0.5506  0.7692
 3957TIP3    H111832   6.848   6.507   0.761 -0.8265  0.2794  1.1672
 3957TIP3    H211833   6.737   6.610   0.769 -0.9241  0.0798  2.5308
 3958TIP3   OH211834   7.299   4.051   3.303 -0.1949 -0.5048  0.2408
 3958TIP3    H111835   7.237   4.056   3.376 -0.1754 -2.5644  0.4374
 3958TIP3    H211836   7.384   4.070   3.343 -0.5363  1.3265  0.1577
 3959TIP3   OH211837   1.756   4.673   2.137  0.4167 -0.5473  0.1936
 3959TIP3    H111838   1.702   4.747   2.107 -0.0346 -1.3262 -0.9617
 3959TIP3    H211839   1.809   4.710   2.208 -0.5993  0.6031  0.3884
 3960TIP3   OH211840   7.718   4.313   3.287  0.2039  0.7184  0.0539
 3960TIP3    H111841   7.681   4.229   3.258  0.8682  1.0527 -1.8598
 3960TIP3    H211842   7.795   4.289   3.338 -0.5405  0.1186  0.9116
 3961TIP3   OH211843   0.708   4.366   3.876 -0.0892 -0.5401 -0.3946
 3961TIP3    H111844   0.793   4.357   3.834  0.0472  0.1901 -0.2804
 3961TIP3    H211845   0.727   4.374   3.969 -0.3390 -1.2370 -0.2766
 3962TIP3   OH211846   6.953   4.737   5.933 -0.1394  0.5449  0.1753
 3962TIP3    H111847   6.961   4.830   5.915 -0.9284  0.9397  1.7723
 3962TIP3    H211848   6.859   4.719   5.923  0.1066 -0.2579 -0.8630
 3963TIP3   OH211849   7.748   6.754   3.461  0.4895 -0.1554  0.4669
 3963TIP3    H111850   7.684   6.785   3.525  0.6643 -3.7480  2.5122
 3963TIP3    H211851   7.820   6.817   3.467 -0.7971  1.2571  1.5712
 3964TIP3   OH211852   0.157   4.312   2.716  0.0769  0.2897 -0.1016
 3964TIP3    H111853   0.079   4.264   2.743 -0.6730  2.3818  1.6157
 3964TIP3    H211854   0.222   4.244   2.700 -1.6193 -1.4155 -0.0135
 3965TIP3   OH211855   0.482   4.740   2.585  0.2613 -0.5799  0.0379
 3965TIP3    H111856   0.508   4.808   2.647  0.5950 -2.1505  1.6830
 3965TIP3    H211857   0.406   4.698   2.626 -1.4411  0.3154 -2.0801
 3966TIP3   OH211858   0.457   2.837   5.043  0.1289 -0.5162  0.4411
 3966TIP3    H111859   0.520   2.908   5.031  0.0940 -0.4234  0.7903
 3966TIP3    H211860   0.446   2.799   4.956  0.6533 -0.5229  0.3787
 3967TIP3   OH211861   0.596   4.932   5.499  0.3478 -0.5782  0.4727
 3967TIP3    H111862   0.655   4.872   5.453  1.2067  1.4552 -1.1844
 3967TIP3    H211863   0.628   5.020   5.475 -1.5051  0.5518  1.9883
 3968TIP3   OH211864   7.763   5.193   4.069 -0.1657 -0.1996  0.2855
 3968TIP3    H111865   7.856   5.203   4.086  0.7049 -3.2584 -2.3664
 3968TIP3    H211866   7.738   5.272   4.021  1.6041 -0.4811 -1.1156
 3969TIP3   OH211867   7.389   5.404   2.909 -0.0516  0.3858 -0.0884
 3969TIP3    H111868   7.432   5.357   2.837  1.3425 -0.5089  1.2830
 3969TIP3    H211869   7.342   5.475   2.866  0.9990  0.0677 -1.8575
 3970TIP3   OH211870   0.792   5.394   4.827  0.8539  0.2092 -0.1045
 3970TIP3    H111871   0.807   5.425   4.916 -0.0988  0.6067 -0.0767
 3970TIP3    H211872   0.702   5.420   4.807  0.5209 -1.2551 -0.6082
 3971TIP3   OH211873   7.105   6.934   2.984 -0.3790 -0.3001  0.0912
 3971TIP3    H111874   7.060   7.003   3.033  0.9096 -0.7808  1.9929
 3971TIP3    H211875   7.064   6.936   2.897 -3.0093  0.2832  1.2797
 3972TIP3   OH211876   1.635   4.593   3.632 -0.4719 -0.7807 -0.0298
 3972TIP3    H111877   1.712   4.580   3.687 -0.0710 -1.5146 -0.7676
 3972TIP3    H211878   1.648   4.679   3.592  1.4138 -2.1593 -2.4803
 3973TIP3   OH211879   1.028   7.316   3.288 -0.4476  0.0057 -0.6210
 3973TIP3    H111880   1.007   7.259   3.215 -0.7547  0.6057 -1.0089
 3973TIP3    H211881   1.100   7.371   3.256 -0.7916  0.4825 -0.5921
 3974TIP3   OH211882   1.483   7.241   3.113  0.0622  0.1304 -0.1899
 3974TIP3    H111883   1.522   7.255   3.027  0.4967  0.2034  0.0160
 3974TIP3    H211884   1.524   7.160   3.145 -1.2613 -0.7635 -0.7100
 3975TIP3   OH211885   0.796   5.966   1.835 -0.6447  0.4757 -0.0464
 3975TIP3    H111886   0.765   6.056   1.840 -0.7463  0.3649  1.4770
 3975TIP3    H211887   0.716   5.913   1.833 -0.5812  0.3489  0.6192
 3976TIP3   OH211888   1.496   5.144   3.080 -0.0710  0.4986  0.2953
 3976TIP3    H111889   1.493   5.134   3.176 -0.0645  2.2286  0.4772
 3976TIP3    H211890   1.552   5.072   3.051 -0.9761 -0.7298  1.4846
 3977TIP3   OH211891   1.880   6.279   3.518 -0.2376  0.2853  0.0732
 3977TIP3    H111892   1.936   6.310   3.589  0.3762  0.9798 -0.6915
 3977TIP3    H211893   1.794   6.266   3.558  0.1274  0.5566  0.9585
 3978TIP3   OH211894   7.370   4.914   5.107  0.7262  0.4709 -0.5023
 3978TIP3    H111895   7.411   4.847   5.162 -0.4202  1.2077  1.2923
 3978TIP3    H211896   7.411   4.996   5.134 -0.7721  1.0045  0.1950
 3979TIP3   OH211897   1.970   3.215   2.597  0.1806 -0.2164 -0.3036
 3979TIP3    H111898   1.954   3.307   2.616 -0.3215 -0.2198 -0.6964
 3979TIP3    H211899   1.933   3.202   2.510 -0.4676 -0.9795  0.0833
 3980TIP3   OH211900   2.083   5.253   1.332 -0.0917  1.1009  0.5276
 3980TIP3    H111901   2.061   5.265   1.239 -0.1098  1.2303  0.5498
 3980TIP3    H211902   2.123   5.335   1.359  0.5791  0.8045  0.4464
 3981TIP3   OH211903   2.303   4.588   2.131 -0.2533  0.1675  0.1876
 3981TIP3    H111904   2.261   4.505   2.106 -1.2892  0.6401  0.3241
 3981TIP3    H211905   2.388   4.562   2.168  0.3148 -0.6839 -1.6660
 3982TIP3   OH211906   7.495   5.198   3.573  0.2642 -0.1745 -0.3437
 3982TIP3    H111907   7.518   5.275   3.521 -0.8807 -1.1024 -2.2523
 3982TIP3    H211908   7.415   5.224   3.619  0.3237  0.0349 -0.3563
 3983TIP3   OH211909   0.795   5.693   4.686  0.0334 -0.0773 -0.4531
 3983TIP3    H111910   0.824   5.784   4.691  2.0963 -0.7417  0.4920
 3983TIP3    H211911   0.862   5.650   4.632 -0.0163 -1.3497  0.4760
 3984TIP3   OH211912   2.950   5.239   3.825 -0.1946 -0.6412  0.5761
 3984TIP3    H111913   2.855   5.232   3.824 -0.3922  1.7420  0.2080
 3984TIP3    H211914   2.978   5.182   3.897 -1.8723 -1.3801  0.6546
 3985TIP3   OH211915   2.063   3.615   3.664  0.2023  0.1027 -0.0199
 3985TIP3    H111916   2.123   3.658   3.725  0.3822 -0.3908  0.1546
 3985TIP3    H211917   2.120   3.579   3.596  0.3781 -2.7079  1.5498
 3986TIP3   OH211918   0.677   5.652   2.627 -0.0808  0.6172  0.5719
 3986TIP3    H111919   0.733   5.619   2.698  0.1507 -0.3954 -0.0745
 3986TIP3    H211920   0.649   5.739   2.657  1.0016  0.7025  1.3658
 3987TIP3   OH211921   6.788   6.059   3.600  0.3720 -0.2989 -0.1326
 3987TIP3    H111922   6.714   6.008   3.567 -1.6086  2.7315 -0.5783
 3987TIP3    H211923   6.783   6.050   3.695 -0.2472 -0.5184 -0.1870
 3988TIP3   OH211924   7.205   6.221   1.882  0.2790  0.3354  0.1794
 3988TIP3    H111925   7.230   6.296   1.935  1.1962  1.4313 -1.7639
 3988TIP3    H211926   7.133   6.180   1.931 -0.4760  2.6707  1.0944
 3989TIP3   OH211927   0.626   6.413   2.263  0.4479  0.3810  0.3155
 3989TIP3    H111928   0.621   6.419   2.168  0.2787 -0.4338  0.2717
 3989TIP3    H211929   0.671   6.493   2.289  1.0599  0.3088 -0.4963
 3990TIP3   OH211930   0.220   4.886   4.938  0.3571  0.0967  0.3850
 3990TIP3    H111931   0.130   4.901   4.967 -0.1461 -2.0617  0.0670
 3990TIP3    H211932   0.274   4.911   5.013 -0.5428  0.8536  0.7863
 3991TIP3   OH211933   1.381   4.465   3.148 -0.0227 -0.3122  0.0064
 3991TIP3    H111934   1.417   4.532   3.207  1.1594 -0.6788 -0.2877
 3991TIP3    H211935   1.351   4.396   3.207  0.6504 -0.4352  0.2128
 3992TIP3   OH211936   0.080   4.902   0.932  0.0474 -0.0003  0.0150
 3992TIP3    H111937   0.004   4.883   0.987 -0.2500 -0.7735 -0.6486
 3992TIP3    H211938   0.111   4.816   0.904  1.1385  0.3083  0.2229
 3993TIP3   OH211939   0.791   3.076   1.844  0.4786  0.0403 -0.0883
 3993TIP3    H111940   0.742   3.155   1.865 -0.3198  0.0159 -1.7288
 3993TIP3    H211941   0.844   3.100   1.768  1.0187 -0.6968  0.0467
 3994TIP3   OH211942   7.233   3.995   1.850  0.1384 -0.6140  0.4938
 3994TIP3    H111943   7.222   3.920   1.908  0.1162 -1.6429 -0.8131
 3994TIP3    H211944   7.312   4.039   1.882 -0.5630 -0.4647  2.0498
 3995TIP3   OH211945   0.612   3.311   4.253 -0.4571 -0.4803 -0.0013
 3995TIP3    H111946   0.705   3.289   4.254 -0.2298  0.3087 -1.4966
 3995TIP3    H211947   0.587   3.304   4.160 -1.1373  2.2662 -0.0938
 3996TIP3   OH211948   7.396   4.699   1.726  0.0204  0.1130 -0.3392
 3996TIP3    H111949   7.473   4.650   1.700 -0.2877 -0.7140  0.2806
 3996TIP3    H211950   7.430   4.773   1.777  0.3500 -0.8818  0.9028
 3997TIP3   OH211951   5.575   6.464   2.152  0.5273 -0.6273 -0.4435
 3997TIP3    H111952   5.658   6.439   2.112 -0.1661 -1.4374 -1.3920
 3997TIP3    H211953   5.576   6.559   2.155  1.6934 -0.6487 -0.0055
 3998TIP3   OH211954   0.033   4.708   5.577  0.4039  0.2277  0.5959
 3998TIP3    H111955  -0.000   4.625   5.543 -0.1972  0.3586  0.8719
 3998TIP3    H211956   0.118   4.686   5.615  0.8108 -0.0376 -0.4310
 3999TIP3   OH211957   0.577   4.283   1.397  0.8903  0.1551  0.1865
 3999TIP3    H111958   0.504   4.221   1.400  1.4724 -0.6065 -0.9218
 3999TIP3    H211959   0.541   4.365   1.430 -0.8009  0.1255 -1.5087
 4000TIP3   OH211960   1.523   4.608   1.997 -0.1064 -0.2266 -0.4424
 4000TIP3    H111961   1.448   4.644   2.045 -0.1661 -1.4382  0.3838
 4000TIP3    H211962   1.583   4.579   2.064  1.1692  0.8237 -1.1103
 4001TIP3   OH211963   0.503   3.522   1.331 -0.0996  0.2337 -0.2271
 4001TIP3    H111964   0.478   3.455   1.395  0.4467 -1.8720 -2.1508
 4001TIP3    H211965   0.435   3.518   1.264  0.7510  0.5274 -1.1247
 4002TIP3   OH211966   3.888   4.252   5.266 -0.0149 -0.1839  0.4826
 4002TIP3    H111967   3.880   4.226   5.174 -0.2965  0.3658  0.3514
 4002TIP3    H211968   3.798   4.258   5.297  0.0950 -1.0582  0.9944
 4003TIP3   OH211969   2.648   4.553   1.744 -0.8031 -0.0205  0.2234
 4003TIP3    H111970   2.694   4.587   1.821 -1.0395  0.7546  0.0326
 4003TIP3    H211971   2.579   4.497   1.780 -0.6129 -0.0414  0.5598
 4004TIP3   OH211972   1.616   1.313   1.594 -0.2447 -0.0461 -0.2042
 4004TIP3    H111973   1.526   1.342   1.605 -0.1459  0.9998 -2.0150
 4004TIP3    H211974   1.611   1.246   1.525  0.5986  1.3816 -1.6850
 4005TIP3   OH211975   1.144   6.701   2.452  0.2987 -0.2435 -0.0900
 4005TIP3    H111976   1.085   6.769   2.487  0.5116 -0.6222  1.0218
 4005TIP3    H211977   1.193   6.671   2.528  1.7126 -0.1602 -0.9508
 4006TIP3   OH211978   1.571   4.764   3.017 -0.5726  0.0936 -0.3858
 4006TIP3    H111979   1.598   4.673   3.007  0.2662  0.2554  0.3456
 4006TIP3    H211980   1.492   4.772   2.963  0.3602 -0.6157 -1.8946
 4007TIP3   OH211981   0.178   3.809   3.920  0.0599  0.3630  0.0273
 4007TIP3    H111982   0.261   3.851   3.944  0.1331  0.4690 -0.4081
 4007TIP3    H211983   0.181   3.802   3.824 -2.1091  3.8080 -0.3509
 4008TIP3   OH211984   3.566   3.905   3.230  0.1224 -0.1984  0.4219
 4008TIP3    H111985   3.636   3.841   3.241 -0.1611 -0.3656  1.2499
 4008TIP3    H211986   3.596   3.960   3.157  1.5866  0.3499  1.4035
 4009TIP3   OH211987   2.003   5.286   2.081 -0.5497 -0.1243  0.3381
 4009TIP3    H111988   2.030   5.349   2.015  1.4484  1.0291  2.1912
 4009TIP3    H211989   2.060   5.303   2.156  1.4473 -5.4210  0.2514
 4010TIP3   OH211990   3.083   4.790   2.041  0.1560 -0.0126  0.0371
 4010TIP3    H111991   3.120   4.783   1.953 -0.6123 -0.8762 -0.2193
 4010TIP3    H211992   3.109   4.709   2.084 -0.6152 -0.1903  0.1699
 4011TIP3   OH211993   2.366   5.556   4.868  0.2600 -0.1514 -0.1294
 4011TIP3    H111994   2.443   5.595   4.911  0.1059  0.4076 -0.3620
 4011TIP3    H211995   2.301   5.625   4.870  0.2467 -0.1364 -1.2692
 4012TIP3   OH211996   7.718   5.346   3.781 -0.1401  0.5095  0.8818
 4012TIP3    H111997   7.753   5.396   3.855 -0.4496  1.2040  0.5641
 4012TIP3    H211998   7.715   5.409   3.709 -0.7211  0.0819  0.5306
 4013TIP3   OH211999   1.465   5.344   4.076  0.1428 -0.2654  0.2528
 4013TIP3    H112000   1.509   5.267   4.039 -0.4668 -0.0159 -1.0047
 4013TIP3    H212001   1.499   5.418   4.025 -1.5686 -0.0467 -0.6103
 4014TIP3   OH212002   3.524   6.060   1.739 -0.0824 -0.1278 -0.4633
 4014TIP3    H112003   3.454   6.033   1.680 -1.5244  0.1792  1.0803
 4014TIP3    H212004   3.499   6.148   1.768 -0.1389 -0.8165  1.6944
 4015TIP3   OH212005   7.596   4.083   3.433  0.2375  0.5786  0.4326
 4015TIP3    H112006   7.680   4.040   3.418 -0.0029 -0.4493  1.9668
 4015TIP3    H212007   7.619   4.164   3.479  0.2023 -1.0066  3.3104
 4016TIP3   OH212008   1.419   5.984   2.045 -0.2316  0.0859  0.1528
 4016TIP3    H112009   1.376   5.939   1.972  0.8830 -1.3851  0.4092
 4016TIP3    H212010   1.363   6.061   2.061 -2.3703 -1.3949 -0.0053
 4017TIP3   OH212011   1.100   4.005   2.289  0.0946  0.5999  0.2428
 4017TIP3    H112012   1.086   3.914   2.315  1.0053  1.1467  2.7328
 4017TIP3    H212013   1.084   4.005   2.195 -0.7628 -1.9627  0.3458
 4018TIP3   OH212014   4.845   7.126   2.418 -0.0454 -0.2192  0.2128
 4018TIP3    H112015   4.753   7.144   2.436  0.0411 -0.9676  1.5080
 4018TIP3    H212016   4.884   7.212   2.403 -0.9932  0.0875 -0.5226
 4019TIP3   OH212017   1.143   4.793   1.853 -0.0979 -0.0486  0.0301
 4019TIP3    H112018   1.068   4.814   1.797  0.2403 -0.0099 -0.4094
 4019TIP3    H212019   1.201   4.869   1.845 -0.1764  0.0795  0.6516
 4020TIP3   OH212020   0.890   4.764   3.881 -0.2793  0.0637 -0.1617
 4020TIP3    H112021   0.822   4.734   3.941  0.3862  0.1671  0.6563
 4020TIP3    H212022   0.857   4.847   3.846 -0.7514 -0.0927 -0.0810
 4021TIP3   OH212023   2.848   5.072   2.497 -0.0911 -0.1944  0.0616
 4021TIP3    H112024   2.920   5.060   2.435 -0.3586  1.4749 -0.5832
 4021TIP3    H212025   2.891   5.093   2.580  0.2226 -1.3405  0.2047
 4022TIP3   OH212026   1.573   6.535   3.591 -0.2685  0.3646  1.1672
 4022TIP3    H112027   1.563   6.580   3.507 -1.3029  0.5788  1.3912
 4022TIP3    H212028   1.488   6.492   3.604  0.1283 -0.2379  1.7720
 4023TIP3   OH212029   2.332   4.139   2.815 -0.2231  0.6288 -0.0591
 4023TIP3    H112030   2.333   4.190   2.734 -0.5380 -0.1999 -0.6017
 4023TIP3    H212031   2.277   4.063   2.795  0.6042 -0.1642  0.5654
 4024TIP3   OH212032   1.635   3.763   2.887  0.1592 -0.7180  0.5638
 4024TIP3    H112033   1.553   3.808   2.907 -0.2112 -0.8666 -0.5974
 4024TIP3    H212034   1.699   3.802   2.947 -0.6074 -0.1115  0.9928
 4025TIP3   OH212035   1.819   5.309   2.399  0.2313 -0.6419 -0.0841
 4025TIP3    H112036   1.898   5.262   2.422  0.3736 -1.3606 -1.9814
 4025TIP3    H212037   1.758   5.292   2.471  2.3803  1.4553  2.3419
 4026TIP3   OH212038   2.282   5.644   2.076 -0.6706 -0.1436 -0.9952
 4026TIP3    H112039   2.214   5.598   2.125  0.1504 -0.3086 -0.0098
 4026TIP3    H212040   2.269   5.736   2.098  0.9293 -0.3929  1.1030
 4027TIP3   OH212041   1.519   7.331   0.989 -0.3396  0.7816 -0.8943
 4027TIP3    H112042   1.530   7.267   1.059  0.5009 -0.1275 -1.8277
 4027TIP3    H212043   1.465   7.286   0.924 -2.5219  2.2160 -0.1145
 4028TIP3   OH212044   2.643   4.269   1.210  0.1856 -0.0833 -0.7684
 4028TIP3    H112045   2.575   4.334   1.229  0.5006  0.2264 -0.6925
 4028TIP3    H212046   2.606   4.187   1.242  0.3518  0.2903  0.4142
 4029TIP3   OH212047   1.620   4.205   2.693  0.0337  0.1079  0.0526
 4029TIP3    H112048   1.671   4.262   2.635 -1.2192 -1.3154 -2.5305
 4029TIP3    H212049   1.537   4.250   2.704 -0.9223 -1.0962 -1.9134
 4030TIP3   OH212050   2.061   5.343   1.087  0.2481  0.5219 -0.0497
 4030TIP3    H112051   2.123   5.299   1.028  0.2322  0.9824 -0.4077
 4030TIP3    H212052   1.989   5.370   1.030 -0.5954 -0.5885  0.4671
 4031TIP3   OH212053   1.336   2.776   4.977  0.4032 -0.1301  0.8255
 4031TIP3    H112054   1.346   2.699   4.920 -0.5656  0.0938  0.3360
 4031TIP3    H212055   1.377   2.750   5.060 -0.7659 -1.5439  0.9809
 4032TIP3   OH212056   1.317   4.873   1.553  0.0409 -0.1055  0.5334
 4032TIP3    H112057   1.236   4.923   1.564 -0.3793  0.0680 -2.6883
 4032TIP3    H212058   1.381   4.938   1.522  0.3687 -0.9166 -0.5401
 4033TIP3   OH212059   7.488   5.264   1.418 -0.3768  0.2906  0.4719
 4033TIP3    H112060   7.583   5.264   1.424 -0.3726 -0.3748  0.3830
 4033TIP3    H212061   7.469   5.311   1.336 -0.1103 -0.0005  0.2419
 4034TIP3   OH212062   0.783   4.332   3.010 -0.1580  0.5107  0.0996
 4034TIP3    H112063   0.749   4.387   2.939  0.9921  0.8641 -0.1933
 4034TIP3    H212064   0.770   4.243   2.979 -0.9615  0.6339  0.0653
 4035TIP3   OH212065   1.574   5.072   4.737  0.4361 -0.5814 -0.2312
 4035TIP3    H112066   1.653   5.099   4.690  1.6743 -2.2178  0.8360
 4035TIP3    H212067   1.571   4.977   4.725 -1.1850 -0.5769  0.0490
 4036TIP3   OH212068   3.210   7.204   2.885 -0.0708  0.0339 -0.0227
 4036TIP3    H112069   3.215   7.124   2.938 -0.1803  1.1810  1.7370
 4036TIP3    H212070   3.121   7.203   2.849  0.1946 -1.0422 -0.6693
 4037TIP3   OH212071   0.746   6.033   4.437  0.0373 -0.2018  0.1296
 4037TIP3    H112072   0.665   6.054   4.484 -0.9854 -0.1137 -1.6324
 4037TIP3    H212073   0.767   6.112   4.388 -1.4080 -1.6962 -3.0526
 4038TIP3   OH212074   0.893   6.578   1.302 -0.1963 -0.5708 -0.4034
 4038TIP3    H112075   0.987   6.561   1.309 -0.1488  0.0530  0.5486
 4038TIP3    H212076   0.882   6.622   1.218  0.5812  0.6916  0.1349
 4039TIP3   OH212077   2.493   6.140   1.663 -0.3802  0.4946 -0.2396
 4039TIP3    H112078   2.456   6.140   1.575 -0.3796 -2.5225 -0.2983
 4039TIP3    H212079   2.421   6.114   1.720  0.1039  0.5542  0.4048
 4040TIP3   OH212080   2.479   6.393   2.489  0.2651 -0.6520 -0.0786
 4040TIP3    H112081   2.440   6.448   2.558  0.6004  1.0989 -1.2623
 4040TIP3    H212082   2.413   6.325   2.472 -0.6960  0.1214  0.5100
 4041TIP3   OH212083   1.894   2.233   2.955 -0.3456  0.3010  0.7313
 4041TIP3    H112084   1.879   2.144   2.924  0.3277  0.2227  0.6323
 4041TIP3    H212085   1.942   2.275   2.883 -0.0860  0.5496  1.0537
 4042TIP3   OH212086   6.186   5.525   1.923 -0.0295  0.5703 -0.2905
 4042TIP3    H112087   6.188   5.611   1.965  1.4948  0.3883  0.0364
 4042TIP3    H212088   6.264   5.522   1.868 -0.9341  0.0132 -1.5756
 4043TIP3   OH212089   2.540   7.360   2.600 -0.4172  0.0149  0.4024
 4043TIP3    H112090   2.465   7.305   2.576 -0.7266  0.6858 -0.1921
 4043TIP3    H212091   2.616   7.312   2.567 -0.7963  0.7036 -1.5532
 4044TIP3   OH212092   0.551   5.605   5.100 -0.1556  0.0662 -0.1783
 4044TIP3    H112093   0.538   5.513   5.078  1.4296 -0.4268  0.9139
 4044TIP3    H212094   0.623   5.633   5.044  0.2988  0.2580  0.4967
 4045TIP3   OH212095   2.006   5.127   2.548  0.2014  0.2641  0.3582
 4045TIP3    H112096   2.078   5.184   2.575 -0.3335 -0.1179  2.7509
 4045TIP3    H212097   2.049   5.052   2.507  1.1686  0.1163  1.6112
 4046TIP3   OH212098   1.834   6.180   4.298  1.2499  0.7195 -0.0284
 4046TIP3    H112099   1.801   6.121   4.366 -2.5521 -0.2695 -2.5702
 4046TIP3    H212100   1.909   6.133   4.260  0.0285 -1.2315 -0.1101
 4047TIP3   OH212101   1.295   7.128   2.557  0.4611 -0.5040  0.6870
 4047TIP3    H112102   1.210   7.111   2.516 -0.1091  0.4329  1.4462
 4047TIP3    H212103   1.346   7.173   2.490  0.5967 -1.6429  0.0077
 4048TIP3   OH212104   0.684   5.176   1.775 -0.5411 -0.6912 -0.0839
 4048TIP3    H112105   0.675   5.206   1.866 -0.5452 -0.0127 -0.3073
 4048TIP3    H212106   0.772   5.138   1.772 -0.6577 -1.0002  0.2829
 4049TIP3   OH212107   1.970   6.578   2.669  0.2027 -0.2200 -0.2212
 4049TIP3    H112108   2.019   6.502   2.636 -0.2610 -0.2756 -0.7969
 4049TIP3    H212109   1.895   6.585   2.610  1.5467  2.2007 -1.7081
 4050TIP3   OH212110   1.305   6.259   3.808  0.6584 -0.5377 -0.1486
 4050TIP3    H112111   1.341   6.284   3.894  1.8204  0.2659 -0.8566
 4050TIP3    H212112   1.360   6.186   3.780  0.2981 -0.7776 -0.2294
 4051TIP3   OH212113   5.292   0.587   1.728  0.2428  0.5472  0.4331
 4051TIP3    H112114   5.343   0.668   1.724 -0.6426  1.0279 -1.9554
 4051TIP3    H212115   5.357   0.519   1.745  1.5971  1.2617 -1.7279
 4052TIP3   OH212116   2.174   4.727   2.329 -0.0961 -0.0520  0.6227
 4052TIP3    H112117   2.206   4.661   2.268 -2.0259 -1.4231  1.0526
 4052TIP3    H212118   2.112   4.779   2.278  0.5413  0.7072  0.6081
 4053TIP3   OH212119   1.326   4.501   3.781  0.1920  0.3243  0.3581
 4053TIP3    H112120   1.410   4.540   3.804  0.0457  0.0244  1.4332
 4053TIP3    H212121   1.289   4.473   3.865  0.8108 -3.1422 -0.4614
 4054TIP3   OH212122   1.417   4.427   2.276 -0.1041 -0.2281 -0.4454
 4054TIP3    H112123   1.368   4.493   2.326  0.6346  0.0824 -0.1090
 4054TIP3    H212124   1.508   4.439   2.305 -0.0088 -1.6379 -0.1095
 4055TIP3   OH212125   1.954   5.200   3.071  0.0995 -0.1271 -0.5131
 4055TIP3    H112126   2.021   5.268   3.077  1.6475 -1.6750  0.0964
 4055TIP3    H212127   1.886   5.228   3.132 -0.3373  2.0097 -1.9236
 4056TIP3   OH212128   3.453   5.450   3.131  0.2328  0.3361  0.0589
 4056TIP3    H112129   3.492   5.372   3.171 -0.8377 -0.3756 -0.2630
 4056TIP3    H212130   3.511   5.471   3.058  0.8998  0.2475  0.5566
 4057TIP3   OH212131   0.183   3.671   2.233 -0.1698 -0.2778 -0.3005
 4057TIP3    H112132   0.135   3.610   2.289 -1.4836 -0.1088 -1.2235
 4057TIP3    H212133   0.229   3.615   2.170 -0.7043 -0.3599 -0.6210
 4058TIP3   OH212134   2.789   4.780   4.187  0.1434 -0.2115 -0.2414
 4058TIP3    H112135   2.769   4.839   4.114  0.6605 -0.9866 -1.0160
 4058TIP3    H212136   2.754   4.695   4.160  1.1497 -0.7153  0.0100
 4059TIP3   OH212137   2.617   6.105   2.207  0.2139  1.0383  0.0717
 4059TIP3    H112138   2.577   6.123   2.122  0.7823  0.0779 -0.4158
 4059TIP3    H212139   2.546   6.070   2.260 -0.3179  2.3569  0.2386
 4060TIP3   OH212140   0.364   4.196   2.060  0.0231  0.1945  0.3462
 4060TIP3    H112141   0.406   4.115   2.089 -0.3122 -0.4822 -1.0117
 4060TIP3    H212142   0.431   4.240   2.007 -0.5820 -0.3466 -0.8852
 4061TIP3   OH212143   4.369   5.146   2.966 -0.0811 -0.0448  0.2270
 4061TIP3    H112144   4.430   5.110   3.030 -0.5643 -0.3599  0.5060
 4061TIP3    H212145   4.388   5.240   2.966  0.5168 -0.1623  0.1923
 4062TIP3   OH212146   3.390   5.933   4.503 -0.6945 -0.8459 -0.4019
 4062TIP3    H112147   3.300   5.949   4.531  0.0472  2.2499  0.3636
 4062TIP3    H212148   3.445   5.970   4.572  1.1545  1.0100 -2.7629
 4063TIP3   OH212149   1.038   2.705   1.964 -0.4328 -0.0165  0.1091
 4063TIP3    H112150   1.007   2.648   2.034  0.5196 -0.1000  0.4728
 4063TIP3    H212151   1.103   2.652   1.917 -1.1743 -0.0184 -0.9337
 4064TIP3   OH212152   0.688   5.860   3.142 -0.3387 -0.5935 -0.0048
 4064TIP3    H112153   0.731   5.944   3.159 -1.9211  0.4382 -0.8943
 4064TIP3    H212154   0.754   5.807   3.100  0.1824  0.8288 -1.0164
 4065TIP3   OH212155   1.576   4.081   1.231  0.3386  0.2800 -0.4109
 4065TIP3    H112156   1.485   4.107   1.242 -0.1008 -1.5026  0.3697
 4065TIP3    H212157   1.582   4.053   1.140  0.4834  1.7991 -0.8753
 4066TIP3   OH212158   7.671   4.900   2.277  0.1048 -0.0017  0.7800
 4066TIP3    H112159   7.665   4.853   2.360  0.6594 -0.8357  0.3581
 4066TIP3    H212160   7.616   4.850   2.217 -0.4281  0.6928  0.6874
 4067TIP3   OH212161   6.377   5.043   2.082  0.2773  0.3506 -0.2725
 4067TIP3    H112162   6.324   5.103   2.029  0.0071 -1.4411 -2.1134
 4067TIP3    H212163   6.391   5.089   2.164 -1.3240  2.2386 -1.0209
 4068TIP3   OH212164   1.827   6.470   3.279  0.4487 -0.2140 -0.6578
 4068TIP3    H112165   1.881   6.474   3.201  1.7168  0.3677  0.2333
 4068TIP3    H212166   1.862   6.396   3.329 -0.8051 -1.0329 -0.9458
 4069TIP3   OH212167   2.587   5.029   5.349 -0.5585  0.1944  0.1238
 4069TIP3    H112168   2.580   5.094   5.419  1.5945  0.4753  0.1115
 4069TIP3    H212169   2.681   5.013   5.341 -0.8034 -0.0741 -2.5131
 4070TIP3   OH212170   7.476   6.585   1.870  0.1017  0.0844  0.2591
 4070TIP3    H112171   7.519   6.542   1.944  1.5229 -1.3520 -1.3664
 4070TIP3    H212172   7.392   6.541   1.862 -1.4898  2.3846  2.9638
 4071TIP3   OH212173   0.983   5.477   2.920  0.2674  0.3853  0.6668
 4071TIP3    H112174   1.068   5.436   2.902  0.8422  1.2406  1.3914
 4071TIP3    H212175   0.921   5.426   2.868  1.1217 -0.7002  0.6763
 4072TIP3   OH212176   0.953   4.852   4.358 -0.2853 -0.2691  0.3735
 4072TIP3    H112177   0.879   4.900   4.321  0.1011 -0.7557 -1.0519
 4072TIP3    H212178   1.021   4.919   4.369 -0.4513 -0.0960  0.3640
 4073TIP3   OH212179   0.374   3.752   2.457  0.2228 -0.4233  0.0929
 4073TIP3    H112180   0.319   3.761   2.379  0.9324  1.2422 -0.2311
 4073TIP3    H212181   0.390   3.658   2.463 -1.9698 -0.8491 -0.2718
 4074TIP3   OH212182   1.160   6.806   2.925 -0.2171  0.2567  0.2535
 4074TIP3    H112183   1.100   6.804   3.000  0.1025 -1.1886  0.4993
 4074TIP3    H212184   1.194   6.895   2.923  0.7510 -0.0261  2.6207
 4075TIP3   OH212185   0.085   4.446   5.043 -0.1601  0.5073 -0.3319
 4075TIP3    H112186   0.025   4.506   4.998  2.0769  2.6829 -0.5238
 4075TIP3    H212187   0.147   4.418   4.975 -1.4068 -2.4412 -0.3510
 4076TIP3   OH212188   0.815   5.040   3.835  0.2025  0.0872 -0.3849
 4076TIP3    H112189   0.730   5.070   3.805 -0.0952  2.8735  2.8533
 4076TIP3    H212190   0.878   5.097   3.790  0.0935  0.6913  0.2228
 4077TIP3   OH212191   4.032   2.032   0.410 -0.7070 -0.1712 -0.2281
 4077TIP3    H112192   4.043   1.961   0.473 -3.3871 -0.5298 -0.1011
 4077TIP3    H212193   4.001   2.106   0.463  1.2348  0.8451 -0.4891
 4078TIP3   OH212194   2.858   6.098   4.707  0.4446  0.0796 -0.3556
 4078TIP3    H112195   2.772   6.082   4.669  0.8189  1.2455 -1.7351
 4078TIP3    H212196   2.845   6.173   4.765  0.0972 -1.0437  1.0331
 4079TIP3   OH212197   3.109   6.575   2.509 -0.3369 -0.2849  0.0009
 4079TIP3    H112198   3.194   6.607   2.480  0.5189 -1.0355  1.6777
 4079TIP3    H212199   3.106   6.594   2.602 -1.4405 -1.5192  0.2334
 4080TIP3   OH212200   3.966   5.965   4.506 -0.0470  0.1273  0.1144
 4080TIP3    H112201   4.025   6.033   4.539  0.7664 -0.2464 -0.5544
 4080TIP3    H212202   3.974   5.970   4.411 -0.8405 -0.1599  0.0272
 4081TIP3   OH212203   0.960   6.402   1.968 -0.4942  0.0205 -0.2499
 4081TIP3    H112204   0.983   6.495   1.970  1.0052 -0.3432  0.8140
 4081TIP3    H212205   0.987   6.372   1.881 -0.2273  0.4164 -0.3046
 4082TIP3   OH212206   4.925   0.208   4.002  0.4554 -0.5504  0.1923
 4082TIP3    H112207   4.975   0.286   4.025  0.2909 -0.4321  0.1489
 4082TIP3    H212208   4.928   0.205   3.906 -1.0364  0.3883  0.1058
 4083TIP3   OH212209   4.170   5.515   3.657  0.1598 -0.4361 -0.6747
 4083TIP3    H112210   4.191   5.470   3.739  1.9549 -1.1320 -1.4950
 4083TIP3    H212211   4.101   5.462   3.617  0.3076 -0.9062 -0.3018
 4084TIP3   OH212212   1.909   3.216   1.898  0.3559 -0.1330  0.2710
 4084TIP3    H112213   1.963   3.150   1.855  2.0040  0.9536  0.6370
 4084TIP3    H212214   1.971   3.281   1.930 -0.9036 -0.3906  3.4268
 4085TIP3   OH212215   7.388   6.880   1.707  0.3590  0.4982 -0.7865
 4085TIP3    H112216   7.345   6.794   1.697  0.2026  0.3676  0.9112
 4085TIP3    H212217   7.478   6.858   1.731 -0.8439  0.7603  4.4593
 4086TIP3   OH212218   7.707   3.321   3.342  0.0235  0.3062  0.2358
 4086TIP3    H112219   7.773   3.389   3.328 -0.6708  1.1129  0.7919
 4086TIP3    H212220   7.757   3.240   3.344  0.9924  0.8942  0.5700
 4087TIP3   OH212221   3.960   6.331   3.940  0.1775 -0.7880  0.7817
 4087TIP3    H112222   3.935   6.422   3.922  0.4700 -0.9003 -0.2119
 4087TIP3    H212223   3.878   6.282   3.936  0.0514 -0.6035  1.0909
 4088TIP3   OH212224   4.768   5.633   3.102 -0.1157 -0.4510  0.3268
 4088TIP3    H112225   4.760   5.540   3.080  1.1734 -0.0086 -2.1238
 4088TIP3    H212226   4.778   5.677   3.018  0.4654  1.7975  1.5447
 4089TIP3   OH212227   4.366   6.572   2.084  0.0185 -0.2506 -0.2144
 4089TIP3    H112228   4.449   6.549   2.043  1.1104 -1.3482  2.4578
 4089TIP3    H212229   4.312   6.493   2.074  0.3786 -0.6143  0.6207
 4090TIP3   OH212230   1.456   4.819   0.709 -0.1938  0.3472 -0.2594
 4090TIP3    H112231   1.497   4.898   0.743  1.5589 -0.6320 -0.0342
 4090TIP3    H212232   1.506   4.798   0.630 -0.0078 -1.0542  0.1998
 4091TIP3   OH212233   2.207   6.774   1.964 -0.2165 -0.2034 -0.3823
 4091TIP3    H112234   2.241   6.863   1.973 -1.1696  0.3919 -2.2211
 4091TIP3    H212235   2.207   6.759   1.869 -1.1270 -1.7396 -0.1485
 4092TIP3   OH212236   1.003   6.137   2.733 -0.2461 -0.6550 -0.2480
 4092TIP3    H112237   1.095   6.158   2.717 -0.4716 -0.5523 -1.4664
 4092TIP3    H212238   0.956   6.184   2.664 -1.3949  1.0149  1.6160
 4093TIP3   OH212239   0.292   5.273   1.954 -0.1590 -0.1630 -0.5104
 4093TIP3    H112240   0.355   5.283   2.025 -1.4943  1.3812  0.4887
 4093TIP3    H212241   0.339   5.301   1.876  1.4404 -2.1998 -0.3449
 4094TIP3   OH212242   3.007   6.636   2.734 -0.4391  0.3990  0.2569
 4094TIP3    H112243   2.930   6.692   2.747 -0.2356  0.8613 -0.5141
 4094TIP3    H212244   3.052   6.637   2.819 -1.2433  0.1862  0.6928
 4095TIP3   OH212245   0.208   5.266   1.539  0.3502  0.2151  0.0120
 4095TIP3    H112246   0.257   5.201   1.590 -0.5055  0.2640  0.9255
 4095TIP3    H212247   0.270   5.297   1.473  0.8527 -1.3258 -0.2622
 4096TIP3   OH212248   1.429   5.395   2.950 -0.0732 -0.0582  0.5812
 4096TIP3    H112249   1.461   5.307   2.972 -1.1272 -0.1177  1.9688
 4096TIP3    H212250   1.446   5.446   3.030  0.0527  0.8627 -0.0323
 4097TIP3   OH212251   1.867   4.601   3.785  0.0812 -0.4180 -1.0166
 4097TIP3    H112252   1.909   4.544   3.849 -1.7366 -0.1958  0.4131
 4097TIP3    H212253   1.899   4.689   3.807  0.8831 -0.5502 -1.6059
 4098TIP3   OH212254   1.843   3.977   4.414  0.1958 -0.1368 -0.0561
 4098TIP3    H112255   1.924   3.954   4.369 -0.1034  1.2029 -1.3218
 4098TIP3    H212256   1.781   3.908   4.389  0.5358 -0.3673 -0.2657
 4099TIP3   OH212257   1.820   5.128   1.967  0.1635  0.4780  0.1321
 4099TIP3    H112258   1.869   5.196   2.011  1.2120  0.3223 -0.7892
 4099TIP3    H212259   1.837   5.141   1.874  0.4468 -1.0812 -0.0516
 4100TIP3   OH212260   4.227   7.055   0.159  0.1786  0.2029 -0.1310
 4100TIP3    H112261   4.149   7.092   0.117 -1.7177  0.2260  3.2432
 4100TIP3    H212262   4.207   6.962   0.170  0.2451  0.3707  1.5364
 4101TIP3   OH212263   2.028   5.125   3.607 -0.0880  0.0724 -0.7022
 4101TIP3    H112264   2.002   5.037   3.634  1.3871 -0.4247 -0.9007
 4101TIP3    H212265   2.063   5.114   3.519  0.7020  0.7688 -0.4798
 4102TIP3   OH212266   2.433   5.902   2.349  0.6444  0.0223  0.1469
 4102TIP3    H112267   2.522   5.889   2.383  0.3751 -2.0144  0.1285
 4102TIP3    H212268   2.382   5.931   2.425  0.9541 -0.4182  0.5220
 4103TIP3   OH212269   0.312   4.305   2.408  0.0082  0.2354  0.3738
 4103TIP3    H112270   0.390   4.288   2.462  1.0960 -0.4055 -1.3375
 4103TIP3    H212271   0.304   4.400   2.408  1.2849  0.3600 -0.0768
 4104TIP3   OH212272   0.610   5.549   2.108 -0.2537  0.3878 -0.2325
 4104TIP3    H112273   0.649   5.588   2.187 -1.9673 -0.5697  1.1177
 4104TIP3    H212274   0.667   5.476   2.087 -0.4322 -0.0492  0.7985
 4105TIP3   OH212275   2.888   6.075   2.205  0.2513 -0.1082 -0.2205
 4105TIP3    H112276   2.885   6.043   2.114  0.5137 -3.0414  0.7277
 4105TIP3    H212277   2.799   6.103   2.224 -0.1582 -0.9224 -0.9035
 4106TIP3   OH212278   5.057   6.817   1.878  0.9932  0.2708  0.4562
 4106TIP3    H112279   5.023   6.759   1.947  0.5883 -1.1237 -0.9045
 4106TIP3    H212280   5.056   6.904   1.918 -1.1817 -0.2148  1.5378
 4107TIP3   OH212281   6.407   6.767   4.041  0.0720 -0.5746 -0.0875
 4107TIP3    H112282   6.333   6.707   4.036 -0.8659  0.6337 -1.3475
 4107TIP3    H212283   6.431   6.783   3.950 -1.0162  2.4840  0.0983
 4108TIP3   OH212284   1.622   4.662   2.439 -0.3099 -0.6890 -0.2448
 4108TIP3    H112285   1.686   4.733   2.431  0.6916 -1.3696  1.4626
 4108TIP3    H212286   1.538   4.706   2.429  0.3307  0.6201 -0.1059
 4109TIP3   OH212287   0.161   5.024   1.377 -0.1227  0.1227 -0.9893
 4109TIP3    H112288   0.117   4.941   1.395  1.6850 -0.6164  0.0954
 4109TIP3    H212289   0.158   5.072   1.459  1.2580 -0.0233 -0.8379
 4110TIP3   OH212290   1.111   3.514   5.176 -0.4743  0.4638  0.2259
 4110TIP3    H112291   1.022   3.539   5.200 -0.3345  1.6384 -0.4300
 4110TIP3    H212292   1.168   3.576   5.222 -0.0100  0.0149  0.2733
 4111TIP3   OH212293   4.771   5.839   1.133  0.3209  0.4612 -0.3760
 4111TIP3    H112294   4.701   5.852   1.198 -1.3558 -0.5791 -1.9212
 4111TIP3    H212295   4.744   5.892   1.058  1.5381  0.5718 -0.7406
 4112TIP3   OH212296   1.987   4.346   3.346  0.0593  0.4176  0.0759
 4112TIP3    H112297   2.032   4.328   3.263 -0.9831  0.2226 -0.4644
 4112TIP3    H212298   1.898   4.312   3.332 -0.7376  2.2437  0.5342
 4113TIP3   OH212299   0.864   5.992   2.272 -0.3315 -0.2711  0.5592
 4113TIP3    H112300   0.914   6.043   2.208  2.9445  1.4023  4.2476
 4113TIP3    H212301   0.929   5.933   2.311 -2.3708 -1.6272  1.9879
 4114TIP3   OH212302   1.534   5.324   1.390 -0.2738  0.0340 -1.2835
 4114TIP3    H112303   1.556   5.255   1.328 -1.8775 -0.4720 -1.3051
 4114TIP3    H212304   1.450   5.358   1.360 -2.0128 -1.4507  1.6221
 4115TIP3   OH212305   3.686   6.638   3.249  0.0811 -0.3824 -0.5073
 4115TIP3    H112306   3.640   6.663   3.169 -1.1174  2.4698  0.9891
 4115TIP3    H212307   3.628   6.576   3.292 -0.3070 -0.2042 -0.7739
 4116TIP3   OH212308   6.393   2.570   5.653 -0.8226  0.4238 -0.3880
 4116TIP3    H112309   6.345   2.487   5.648 -1.4889  0.8505 -1.2321
 4116TIP3    H212310   6.385   2.607   5.565  0.1197  1.0246 -0.2198
 4117TIP3   OH212311   2.137   3.351   3.126  0.3315 -0.3131 -0.4425
 4117TIP3    H112312   2.124   3.438   3.163  1.9333 -1.2022  2.3443
 4117TIP3    H212313   2.223   3.355   3.084  0.6452 -0.6726  0.1491
 4118TIP3   OH212314   7.671   5.694   1.942 -0.3396 -0.0468  0.3187
 4118TIP3    H112315   7.678   5.599   1.946  0.2506 -0.0513 -0.7663
 4118TIP3    H212316   7.579   5.712   1.965  0.0783 -0.7232  2.6309
 4119TIP3   OH212317   1.465   5.955   0.308  0.0306 -0.3260 -0.7053
 4119TIP3    H112318   1.422   6.004   0.237 -3.1187  0.5866  1.7072
 4119TIP3    H212319   1.427   5.867   0.303 -0.0996 -0.2977 -0.2637
 4120TIP3   OH212320   7.110   4.005   2.288  0.3167 -0.1487 -0.1758
 4120TIP3    H112321   7.077   3.993   2.199  0.0288  1.0176 -0.2367
 4120TIP3    H212322   7.144   4.095   2.289 -1.2537  0.4583  1.3719
 4121TIP3   OH212323   6.272   6.182   0.529 -0.0081  0.2146 -0.8216
 4121TIP3    H112324   6.333   6.253   0.506  1.1064 -0.6002 -0.4198
 4121TIP3    H212325   6.278   6.121   0.456 -0.1110 -0.0261 -0.6282
 4122TIP3   OH212326   0.525   6.012   4.211 -0.0786 -0.3015 -0.2550
 4122TIP3    H112327   0.536   6.013   4.306 -0.6315 -0.6529 -0.1866
 4122TIP3    H212328   0.469   6.087   4.193 -1.0443 -0.9909 -0.1656
 4123TIP3   OH212329   2.116   5.216   4.283  0.6280 -0.3618  0.2731
 4123TIP3    H112330   2.161   5.300   4.275  0.5494 -0.4636 -1.3589
 4123TIP3    H212331   2.104   5.204   4.378  1.5146  0.9888  0.5681
 4124TIP3   OH212332   4.463   0.397   1.971  0.2735 -0.3653  0.0355
 4124TIP3    H112333   4.468   0.408   1.876 -1.9232  1.3489  0.0718
 4124TIP3    H212334   4.496   0.480   2.006 -0.2366 -0.4625  0.7520
 4125TIP3   OH212335   0.950   5.308   3.831 -0.3411 -0.4142 -0.6577
 4125TIP3    H112336   0.949   5.350   3.917  0.5268 -0.7683 -0.4697
 4125TIP3    H212337   0.863   5.325   3.795 -0.3757  0.5785 -0.1196
 4126TIP3   OH212338   0.978   5.792   0.289  0.3255  0.6526 -0.1612
 4126TIP3    H112339   0.888   5.791   0.322  0.4065  1.7352  0.0867
 4126TIP3    H212340   0.990   5.704   0.254  0.2759 -0.6356  2.8508
 4127TIP3   OH212341   7.576   4.947   3.513 -0.4761  0.2461  0.0396
 4127TIP3    H112342   7.671   4.952   3.525 -0.6370  0.3516  1.3118
 4127TIP3    H212343   7.546   5.037   3.525 -0.7990  0.1226  0.1636
 4128TIP3   OH212344   2.483   7.059   3.458 -0.2229 -0.6076  0.1843
 4128TIP3    H112345   2.434   7.019   3.529  1.3901 -2.2250  0.4101
 4128TIP3    H212346   2.420   7.118   3.416 -1.3695 -0.0940  2.5464
 4129TIP3   OH212347   0.694   4.682   4.034  0.2004  0.0695 -0.2955
 4129TIP3    H112348   0.734   4.597   4.054  1.9151  1.0292  0.4837
 4129TIP3    H212349   0.636   4.700   4.108 -0.6491 -0.7066 -0.7664
 4130TIP3   OH212350   1.008   6.259   0.488 -0.3211  0.3330 -0.6437
 4130TIP3    H112351   1.092   6.239   0.531 -1.1462 -0.8021  0.4603
 4130TIP3    H212352   0.962   6.315   0.551 -0.0096  1.7374 -1.6573
 4131TIP3   OH212353   2.000   6.939   2.348  0.5446  0.8701  0.2608
 4131TIP3    H112354   2.085   6.929   2.390 -0.0437 -1.0085  1.0745
 4131TIP3    H212355   2.019   6.938   2.254  1.1660 -2.6958  0.3589
 4132TIP3   OH212356   7.528   3.354   3.536  0.1526 -0.3380 -0.1834
 4132TIP3    H112357   7.578   3.352   3.454 -0.4668 -0.1454 -0.5707
 4132TIP3    H212358   7.547   3.441   3.573 -0.0624 -0.1793 -0.4402
 4133TIP3   OH212359   3.190   5.375   1.207  0.2726  0.0099 -0.0233
 4133TIP3    H112360   3.101   5.346   1.227  0.6050 -0.4499  0.8313
 4133TIP3    H212361   3.209   5.340   1.120 -0.6740  0.8069 -0.5573
 4134TIP3   OH212362   0.868   5.998   4.861 -0.0728 -0.6259  0.1831
 4134TIP3    H112363   0.924   5.939   4.912 -0.3931 -0.3074  0.9182
 4134TIP3    H212364   0.927   6.065   4.828  0.2161 -1.0983 -0.2555
 4135TIP3   OH212365   3.214   4.404   1.258 -0.0050 -0.0743 -0.9248
 4135TIP3    H112366   3.136   4.389   1.204 -0.0214 -0.9694 -0.6632
 4135TIP3    H212367   3.201   4.348   1.334  0.6631  0.1550 -0.6403
 4136TIP3   OH212368   2.396   4.454   1.801  0.3789 -0.1183 -0.4730
 4136TIP3    H112369   2.317   4.493   1.839  1.8434  1.8510  0.6553
 4136TIP3    H212370   2.372   4.363   1.784 -2.5797  0.7687 -1.4480
 4137TIP3   OH212371   2.647   4.248   0.944  0.1121  0.0918  0.0315
 4137TIP3    H112372   2.637   4.252   1.039 -0.2621 -0.2149  0.0076
 4137TIP3    H212373   2.634   4.155   0.922  0.2615  0.1509 -0.3109
 4138TIP3   OH212374   1.004   6.611   3.989  0.0624 -0.4077 -0.3274
 4138TIP3    H112375   1.080   6.562   4.021 -0.3503  0.3630  1.9269
 4138TIP3    H212376   0.929   6.558   4.015 -0.2476 -0.4041 -1.1904
 4139TIP3   OH212377   2.757   5.436   2.562 -0.2616 -0.7190  0.0834
 4139TIP3    H112378   2.721   5.371   2.501  0.4694 -1.0293 -0.0253
 4139TIP3    H212379   2.800   5.383   2.629 -0.6402 -0.3670  0.6072
 4140TIP3   OH212380   0.877   5.958   3.383  0.5532 -0.0760  0.8468
 4140TIP3    H112381   0.875   5.890   3.316  0.2968 -0.0358  0.8138
 4140TIP3    H212382   0.961   6.002   3.371 -0.0543  0.8014 -0.3133
 4141TIP3   OH212383   2.177   5.363   2.616  0.0051 -0.6601  0.0270
 4141TIP3    H112384   2.265   5.347   2.651 -0.0962 -1.3113  0.0047
 4141TIP3    H212385   2.137   5.425   2.676  0.6664  0.0356 -0.2506
 4142TIP3   OH212386   0.876   4.082   1.622  0.4270  0.0809  0.0218
 4142TIP3    H112387   0.834   4.051   1.542 -1.9422 -0.5096  1.4500
 4142TIP3    H212388   0.929   4.009   1.651  0.8624  0.1023 -0.7079
 4143TIP3   OH212389   7.722   4.997   3.875  0.2645  0.3074  0.0362
 4143TIP3    H112390   7.741   5.074   3.929 -0.5140 -0.4222  1.3772
 4143TIP3    H212391   7.757   5.019   3.789 -0.5324  2.4235  0.2247
 4144TIP3   OH212392   1.719   3.899   5.455  0.3526 -0.2899 -0.4309
 4144TIP3    H112393   1.727   3.973   5.395  0.7956 -2.2623 -2.8534
 4144TIP3    H212394   1.752   3.824   5.406  0.3275 -2.0518  2.1303
 4145TIP3   OH212395   1.189   6.407   5.273  0.1830  0.2741 -0.3033
 4145TIP3    H112396   1.149   6.335   5.320  1.3640  1.2408  2.2697
 4145TIP3    H212397   1.131   6.482   5.289  0.2410  0.4551 -0.9315
 4146TIP3   OH212398   2.317   6.243   3.458 -0.6000  0.0259 -0.2822
 4146TIP3    H112399   2.377   6.267   3.388  1.2656  1.0929  1.6001
 4146TIP3    H212400   2.275   6.326   3.483  0.1676  0.0081  1.1200
 4147TIP3   OH212401   3.374   5.818   3.256  0.0837  0.1642  0.4374
 4147TIP3    H112402   3.321   5.775   3.188 -0.2095  1.2785 -0.0525
 4147TIP3    H212403   3.433   5.875   3.207 -1.1716  2.1394  1.1806
 4148TIP3   OH212404   0.040   4.827   3.354 -0.2712 -0.1200  0.0398
 4148TIP3    H112405   0.125   4.871   3.350 -0.2453 -0.1695  0.0388
 4148TIP3    H212406   0.062   4.734   3.359 -0.3655 -0.2806 -2.1561
 4149TIP3   OH212407   7.128   1.731   1.362 -0.1991 -0.1809 -0.0548
 4149TIP3    H112408   7.192   1.741   1.292 -1.8348 -1.0349 -1.7280
 4149TIP3    H212409   7.138   1.641   1.392 -0.2835 -0.1637  0.0262
 4150TIP3   OH212410   2.692   3.784   3.437  0.6686  0.1997  0.2405
 4150TIP3    H112411   2.628   3.746   3.497 -0.3972  1.1956 -0.2563
 4150TIP3    H212412   2.729   3.858   3.485  0.7739  0.1886  0.1756
 4151TIP3   OH212413   1.209   5.407   2.770  0.7359 -0.4044 -0.3273
 4151TIP3    H112414   1.239   5.497   2.777 -1.1343  0.1725  0.5037
 4151TIP3    H212415   1.287   5.354   2.788  2.2467  0.9968 -2.4186
 4152TIP3   OH212416   2.402   4.753   3.311 -0.2532 -0.2140  0.1720
 4152TIP3    H112417   2.331   4.693   3.333 -0.8253  0.7050  0.8616
 4152TIP3    H212418   2.365   4.811   3.244  0.1326 -0.3169 -0.1313
 4153TIP3   OH212419   7.060   5.723   1.893  0.0463 -0.1581 -0.0478
 4153TIP3    H112420   7.029   5.692   1.978  1.1040 -1.1267  0.0054
 4153TIP3    H212421   7.050   5.647   1.835 -0.0769  0.3001 -0.6333
 4154TIP3   OH212422   5.586   5.459   2.182  0.2604  0.4214 -0.4393
 4154TIP3    H112423   5.519   5.464   2.250  0.1663  1.6396 -0.6007
 4154TIP3    H212424   5.537   5.437   2.103  0.3069 -0.5318 -0.2097
 4155TIP3   OH212425   0.320   4.872   3.517 -0.2812 -0.3578  0.1004
 4155TIP3    H112426   0.266   4.871   3.596 -1.8616 -1.8633 -0.9712
 4155TIP3    H212427   0.310   4.960   3.483 -0.2324  0.0627  1.1498
 4156TIP3   OH212428   6.088   0.035   3.214  0.1400  0.1173  0.6693
 4156TIP3    H112429   6.021   0.091   3.175  1.0867  1.7138  1.2515
 4156TIP3    H212430   6.070   0.038   3.308  1.8393  1.7415  0.9857
 4157TIP3   OH212431   3.446   5.705   3.689  0.1875  0.4489  0.0989
 4157TIP3    H112432   3.505   5.635   3.661 -2.1493 -1.6917  0.3861
 4157TIP3    H212433   3.362   5.682   3.650 -0.7967  2.6997  0.8538
 4158TIP3   OH212434   2.092   5.617   2.352 -0.1473  0.5126 -0.2983
 4158TIP3    H112435   2.083   5.522   2.345  1.2287  0.2703  1.0284
 4158TIP3    H212436   2.094   5.634   2.446  1.1031  1.7130 -0.5396
 4159TIP3   OH212437   1.230   5.084   0.766 -0.4362  0.4945  0.1265
 4159TIP3    H112438   1.168   5.036   0.822 -0.1737  1.1152  0.9659
 4159TIP3    H212439   1.314   5.074   0.810  0.2420 -1.0678 -1.4616
 4160TIP3   OH212440   2.807   5.005   0.796  0.2279 -0.2590  0.1326
 4160TIP3    H112441   2.812   5.081   0.853  0.5854  0.0461 -0.2978
 4160TIP3    H212442   2.898   4.974   0.791  0.0541 -0.8141  0.4476
 4161TIP3   OH212443   4.122   0.218   1.750  0.5382  0.3322  0.6870
 4161TIP3    H112444   4.097   0.306   1.778  0.6195  0.2175  1.1186
 4161TIP3    H212445   4.201   0.198   1.800 -0.5389 -0.7302  1.9734
 4162TIP3   OH212446   0.340   5.752   0.136 -0.9559 -0.3970  0.0540
 4162TIP3    H112447   0.403   5.809   0.180  0.6006 -2.6848  0.8174
 4162TIP3    H212448   0.372   5.747   0.046 -1.2796  0.1763 -0.0971
 4163TIP3   OH212449   2.014   6.718   0.934 -0.1999  0.1216  0.4353
 4163TIP3    H112450   2.098   6.736   0.976  0.2041  0.9243 -0.7210
 4163TIP3    H212451   2.015   6.623   0.919  0.6101  0.1721  0.1639
 4164TIP3   OH212452   3.517   5.797   1.919  0.6812  0.0202 -0.3087
 4164TIP3    H112453   3.491   5.769   1.831 -1.3439 -0.0581  0.2940
 4164TIP3    H212454   3.526   5.892   1.912 -0.2259  0.1032 -0.4190
 4165TIP3   OH212455   0.637   4.453   4.920  0.1448  0.1736 -0.5702
 4165TIP3    H112456   0.691   4.532   4.920 -0.0412  0.3091 -1.5479
 4165TIP3    H212457   0.566   4.473   4.860  0.9216 -1.2865 -2.0202
 4166TIP3   OH212458   1.410   6.242   3.390  0.1399 -0.2443  0.0577
 4166TIP3    H112459   1.457   6.270   3.311 -0.1836 -0.1759 -0.1132
 4166TIP3    H212460   1.430   6.149   3.398  1.0544 -0.0084  0.5110
 4167TIP3   OH212461   2.343   6.331   3.119  0.1028  0.5518 -0.3005
 4167TIP3    H112462   2.354   6.237   3.109 -0.7506  0.2919  0.9366
 4167TIP3    H212463   2.427   6.369   3.095  0.5582 -0.5589 -0.4607
 4168TIP3   OH212464   2.192   4.506   1.211 -0.3467  0.4655 -0.0458
 4168TIP3    H112465   2.111   4.458   1.229  1.1223 -3.0316 -2.1359
 4168TIP3    H212466   2.183   4.537   1.121  0.4166  0.4977 -0.1206
 4169TIP3   OH212467   1.877   6.402   1.320  0.2288  0.2587 -0.3121
 4169TIP3    H112468   1.920   6.336   1.375  0.1491 -0.8713 -1.6017
 4169TIP3    H212469   1.918   6.485   1.346  0.6150 -0.3415  1.0283
 4170TIP3   OH212470   2.846   4.458   2.841  0.2454  0.4168 -0.4812
 4170TIP3    H112471   2.919   4.433   2.897  0.4495 -0.2832 -1.0417
 4170TIP3    H212472   2.825   4.378   2.792 -0.1181  0.9311 -1.1832
 4171TIP3   OH212473   0.773   3.749   3.982  0.4573 -0.1462  0.6547
 4171TIP3    H112474   0.826   3.693   3.925 -0.1738 -0.5283  0.4469
 4171TIP3    H212475   0.699   3.776   3.928  0.2443  0.1006  1.0616
 4172TIP3   OH212476   1.649   3.630   5.134  0.5996  0.1320 -0.2189
 4172TIP3    H112477   1.704   3.652   5.209 -0.3081 -0.6362  0.6763
 4172TIP3    H212478   1.572   3.588   5.172 -0.2996  0.5947 -1.5165
 4173TIP3   OH212479   2.673   6.504   1.901 -0.1322 -0.1643 -0.0510
 4173TIP3    H112480   2.683   6.548   1.986  1.9010 -0.0882 -0.3030
 4173TIP3    H212481   2.582   6.475   1.900 -0.3785  0.4317  1.8693
 4174TIP3   OH212482   3.465   1.481   1.191 -0.0643  0.4759 -0.0917
 4174TIP3    H112483   3.500   1.558   1.235  0.5636  0.0048  0.2237
 4174TIP3    H212484   3.372   1.500   1.180  0.1427  1.4014 -0.2696
 4175TIP3   OH212485   0.418   5.450   3.236  0.3592  0.2982 -0.1597
 4175TIP3    H112486   0.502   5.416   3.265  0.4985 -0.7641 -1.7679
 4175TIP3    H212487   0.429   5.545   3.236  2.2107  0.1102 -2.2176
 4176TIP3   OH212488   0.519   3.577   2.953  0.2174 -0.5296  0.2447
 4176TIP3    H112489   0.587   3.523   2.912  0.8014  0.5496 -0.2521
 4176TIP3    H212490   0.478   3.623   2.879  0.3878  0.4344  0.7378
 4177TIP3   OH212491   2.406   2.660   1.557  0.0876  0.2527  0.4308
 4177TIP3    H112492   2.408   2.676   1.651 -2.1436  0.1180  0.5066
 4177TIP3    H212493   2.468   2.724   1.521 -0.5087  1.6314  1.8052
 4178TIP3   OH212494   3.291   4.923   0.651 -0.3247 -0.5020 -0.0075
 4178TIP3    H112495   3.225   4.882   0.594  0.1224  0.5660 -1.3177
 4178TIP3    H212496   3.274   5.017   0.642  0.5718 -0.2788  0.6467
 4179TIP3   OH212497   1.087   4.657   3.189 -0.3878  0.5658 -0.1420
 4179TIP3    H112498   1.098   4.562   3.186 -0.1811  0.4885  2.1521
 4179TIP3    H212499   1.172   4.690   3.216 -0.7222  1.3405 -0.0334
 4180TIP3   OH212500   1.913   6.171   1.434 -0.1017  0.1510  0.1763
 4180TIP3    H112501   1.860   6.139   1.361 -1.6925  1.1820  0.8416
 4180TIP3    H212502   1.956   6.093   1.468 -1.1090 -0.7056 -0.4537
 4181TIP3   OH212503   0.620   4.852   4.394  0.2898 -0.1481 -0.5792
 4181TIP3    H112504   0.604   4.763   4.360  3.4930 -0.6829 -0.8098
 4181TIP3    H212505   0.536   4.897   4.382 -1.7498 -3.4537  0.5948
 4182TIP3   OH212506   0.540   4.832   3.661 -0.4208 -0.1618 -0.6985
 4182TIP3    H112507   0.476   4.852   3.593 -1.8924 -1.9396  0.1084
 4182TIP3    H212508   0.574   4.746   3.638 -1.4206 -1.0766  1.1330
 4183TIP3   OH212509   3.173   5.679   2.435 -0.0267 -0.3758 -0.0020
 4183TIP3    H112510   3.219   5.762   2.420  0.0438 -0.4064  0.0442
 4183TIP3    H212511   3.098   5.682   2.375 -0.2596 -0.0917  0.2994
 4184TIP3   OH212512   1.900   5.130   4.457 -0.2647 -0.3400  0.4897
 4184TIP3    H112513   1.981   5.162   4.498  0.7566  0.2393 -1.8996
 4184TIP3    H212514   1.834   5.194   4.483  0.3083 -0.0841  1.3679
 4185TIP3   OH212515   2.759   6.301   1.715 -0.3613  0.4973  0.0730
 4185TIP3    H112516   2.690   6.236   1.723  1.0407 -1.1685 -0.9574
 4185TIP3    H212517   2.726   6.377   1.761 -1.9777 -1.0137  1.4821
 4186TIP3   OH212518   4.369   7.207   4.251  0.4356 -0.5856  0.3013
 4186TIP3    H112519   4.413   7.123   4.263 -1.4611 -1.4922  1.1490
 4186TIP3    H212520   4.334   7.229   4.337  0.1005  0.6019 -0.1291
 4187TIP3   OH212521   0.985   6.680   2.177  0.2950 -0.1130 -0.7881
 4187TIP3    H112522   1.052   6.677   2.246  1.3166  0.0682 -1.7591
 4187TIP3    H212523   0.903   6.659   2.222  1.1558 -1.3370  0.2301
 4188TIP3   OH212524   0.087   4.721   2.078 -0.3722 -0.4075  0.3583
 4188TIP3    H112525   0.112   4.710   2.170 -0.7315 -1.1712  0.3663
 4188TIP3    H212526   0.035   4.802   2.077 -1.2654 -0.9652  1.0118
 4189TIP3   OH212527   4.728   1.018   1.942  0.1853 -0.6280  0.7742
 4189TIP3    H112528   4.694   1.106   1.927 -1.1282 -0.9587  1.6760
 4189TIP3    H212529   4.764   1.020   2.030  0.0270 -1.0222  0.8510
 4190TIP3   OH212530   3.347   6.713   2.968 -0.3082  0.1194  0.0183
 4190TIP3    H112531   3.340   6.806   2.947 -3.7452 -0.6114 -2.6244
 4190TIP3    H212532   3.326   6.707   3.061 -1.3706  1.8818 -0.0798
 4191TIP3   OH212533   2.242   5.086   2.352 -0.5493 -0.1897 -0.1099
 4191TIP3    H112534   2.311   5.038   2.397  0.1904  0.5127 -0.4850
 4191TIP3    H212535   2.205   5.022   2.291 -0.5909 -0.7200  0.4578
 4192TIP3   OH212536   0.543   5.805   1.788  0.2914  0.2929  0.4695
 4192TIP3    H112537   0.501   5.821   1.873 -0.3399 -0.5846  0.3226
 4192TIP3    H212538   0.472   5.806   1.725  0.9103  2.1005 -0.2101
 4193TIP3   OH212539   0.835   6.505   4.325 -0.6471 -0.7580 -0.1605
 4193TIP3    H112540   0.909   6.495   4.265  0.7231  0.4767  1.2726
 4193TIP3    H212541   0.788   6.581   4.291  0.1919  0.0123  0.3928
 4194TIP3   OH212542   3.198   4.837   3.991 -0.3010 -0.1018 -0.0672
 4194TIP3    H112543   3.167   4.773   4.055 -0.4786  0.6158  0.5553
 4194TIP3    H212544   3.274   4.878   4.032  1.3088 -1.6129 -1.4455
 4195TIP3   OH212545   1.057   5.364   3.579  0.1165 -0.0643  0.7118
 4195TIP3    H112546   1.005   5.297   3.534  0.6773 -0.3204  0.4297
 4195TIP3    H212547   1.041   5.347   3.672 -1.7836  1.0638  0.6098
 4196TIP3   OH212548   3.785   5.530   3.160 -0.2348  0.5722  0.0718
 4196TIP3    H112549   3.750   5.493   3.078 -0.0538  0.7438 -0.0830
 4196TIP3    H212550   3.745   5.477   3.229  0.8161 -0.5883 -0.1960
 4197TIP3   OH212551   2.748   3.231   2.677  0.6441 -0.2067  0.1076
 4197TIP3    H112552   2.734   3.326   2.674  0.6528 -0.2435 -1.8241
 4197TIP3    H212553   2.843   3.221   2.670  0.5723 -0.3787 -0.6693
 4198TIP3   OH212554   2.502   5.350   3.643  0.3262 -0.4303  0.4889
 4198TIP3    H112555   2.524   5.443   3.655  0.5781 -0.2330 -1.3179
 4198TIP3    H212556   2.499   5.339   3.548 -0.5284 -2.0911  0.7056
 4199TIP3   OH212557   0.670   3.643   2.288 -0.2215  0.1046  0.7985
 4199TIP3    H112558   0.685   3.656   2.382  2.2511 -1.2368  0.6379
 4199TIP3    H212559   0.727   3.707   2.246 -0.0834 -0.4133  0.1947
 4200TIP3   OH212560   0.456   2.906   3.720 -0.1248 -0.1349 -0.1281
 4200TIP3    H112561   0.394   2.847   3.763 -1.3888 -0.6485 -2.5889
 4200TIP3    H212562   0.538   2.856   3.717 -0.4531 -0.7001  0.2546
 4201TIP3   OH212563   3.045   4.848   3.236 -0.2127  0.4514 -0.1547
 4201TIP3    H112564   2.965   4.896   3.211 -0.5683 -0.3900 -0.6797
 4201TIP3    H212565   3.079   4.896   3.311 -2.4559 -0.4569  1.5205
 4202TIP3   OH212566   2.353   3.629   0.102  0.5482  0.7740  0.0201
 4202TIP3    H112567   2.413   3.663   0.035  0.7107 -0.1421 -0.3212
 4202TIP3    H212568   2.388   3.661   0.185  1.3354  0.5189 -0.2071
 4203TIP3   OH212569   7.035   6.748   0.655 -0.3367  0.0836  0.2745
 4203TIP3    H112570   6.955   6.700   0.677 -0.7478 -0.3825 -2.1294
 4203TIP3    H212571   7.043   6.740   0.560  1.8853  1.2146  0.3287
 4204TIP3   OH212572   0.858   3.380   1.666 -0.2902 -0.3774  0.5170
 4204TIP3    H112573   0.882   3.312   1.602  1.7679 -0.2956  1.1696
 4204TIP3    H212574   0.788   3.341   1.718 -1.4938 -0.7182 -1.2845
 4205TIP3   OH212575   1.413   5.968   3.398  0.5013  0.1116 -0.3048
 4205TIP3    H112576   1.349   5.935   3.335  0.2153 -0.2769  0.1795
 4205TIP3    H212577   1.476   5.896   3.408 -0.3789 -0.4839  1.1050
 4206TIP3   OH212578   4.612   4.043   5.923 -0.0134  0.3566  0.0151
 4206TIP3    H112579   4.648   4.040   5.834 -1.1570 -0.7133 -0.4307
 4206TIP3    H212580   4.687   4.026   5.980  1.1484  3.0401 -0.6018
 4207TIP3   OH212581   0.889   6.500   1.557 -0.5493  0.0642  0.2854
 4207TIP3    H112582   0.981   6.485   1.579 -1.0554 -0.3305  2.2189
 4207TIP3    H212583   0.890   6.526   1.465  1.3634 -1.4671 -0.1525
 4208TIP3   OH212584   2.211   3.729   1.655  0.4968  0.2776  0.4876
 4208TIP3    H112585   2.190   3.812   1.699 -1.0818  0.9104 -1.3807
 4208TIP3    H212586   2.126   3.692   1.633  1.2278 -1.3223  0.3373
 4209TIP3   OH212587   1.181   5.187   4.907 -0.1007  0.1000  0.2734
 4209TIP3    H112588   1.121   5.236   4.851 -0.3631 -0.8442 -0.2772
 4209TIP3    H212589   1.171   5.095   4.879 -0.2779 -0.3860  1.8826
 4210TIP3   OH212590   3.315   3.015   1.927  0.3224 -0.1624 -0.8531
 4210TIP3    H112591   3.228   3.049   1.908 -0.6131 -2.4024 -0.7810
 4210TIP3    H212592   3.349   3.073   1.995  0.7213  3.4043 -3.9558
 4211TIP3   OH212593   3.110   4.052   2.814  0.0524 -0.1411  0.0783
 4211TIP3    H112594   3.050   4.114   2.772 -0.0501  0.0353  0.4850
 4211TIP3    H212595   3.162   4.107   2.873 -0.7349 -0.6098  1.2105
 4212TIP3   OH212596   4.832   4.985   2.975  0.4165 -0.4174 -0.2530
 4212TIP3    H112597   4.878   4.929   3.037 -1.0153 -1.1560  0.1617
 4212TIP3    H212598   4.865   5.073   2.993  3.5424 -1.2257 -1.6802
 4213TIP3   OH212599   1.512   6.350   0.930 -0.0946  0.1343 -0.3694
 4213TIP3    H112600   1.556   6.322   0.849 -0.1149  0.4286 -0.4823
 4213TIP3    H212601   1.584   6.365   0.992 -0.1123 -0.7688 -0.1110
 4214TIP3   OH212602   5.209   5.247   2.239  0.2552  0.2382  0.0029
 4214TIP3    H112603   5.168   5.225   2.323  2.0635  1.8419  1.3492
 4214TIP3    H212604   5.275   5.180   2.226  1.0210  0.8523  0.6501
 4215TIP3   OH212605   5.622   1.430   3.156 -0.0005  0.4639  0.1165
 4215TIP3    H112606   5.548   1.394   3.107  0.2748  0.6764 -0.4544
 4215TIP3    H212607   5.698   1.380   3.125  0.3831  1.5199 -0.6710
 4216TIP3   OH212608   5.428   0.032   2.040  0.3510  0.6804 -0.6562
 4216TIP3    H112609   5.511   0.078   2.024  0.5142  0.8272  0.5807
 4216TIP3    H212610   5.394   0.073   2.119 -0.0633 -0.5666 -0.1892
 4217TIP3   OH212611   1.652   5.842   0.619 -0.6694 -0.1764 -0.3211
 4217TIP3    H112612   1.630   5.772   0.557 -0.5345  1.2746 -2.0237
 4217TIP3    H212613   1.731   5.810   0.663  0.4468 -0.3370 -2.3658
 4218TIP3   OH212614   2.681   5.411   1.993  0.0320  1.0139 -0.1828
 4218TIP3    H112615   2.702   5.458   1.912  1.9465 -0.7990 -0.7619
 4218TIP3    H212616   2.617   5.345   1.967  0.6889  0.3942 -0.2460
 4219TIP3   OH212617   6.139   0.434   1.904 -0.2797  0.9974 -0.1128
 4219TIP3    H112618   6.087   0.512   1.923 -0.8903  1.1808 -2.4191
 4219TIP3    H212619   6.219   0.467   1.864  0.0336  0.5060  0.1039
 4220TIP3   OH212620   7.225   5.749   2.848 -0.0845  0.3694 -0.2080
 4220TIP3    H112621   7.300   5.716   2.798 -1.0265 -1.1832 -0.6153
 4220TIP3    H212622   7.258   5.759   2.937  0.7356  0.1632 -0.4797
 4221TIP3   OH212623   3.935   7.021   4.420  0.2812 -0.2021  0.2328
 4221TIP3    H112624   4.026   6.996   4.403  0.6214  1.8352 -1.2270
 4221TIP3    H212625   3.895   6.943   4.458  2.4733 -1.3382  0.2939
 4222TIP3   OH212626   4.345   4.428   2.417 -0.0513 -0.0350 -0.0378
 4222TIP3    H112627   4.277   4.445   2.482 -1.5084 -0.9773 -1.2952
 4222TIP3    H212628   4.415   4.384   2.466 -0.3590  0.8890  1.2504
 4223TIP3   OH212629   5.998   6.146   4.082  0.4098 -0.0608  0.0950
 4223TIP3    H112630   5.908   6.176   4.066  0.1286 -0.4726  0.8402
 4223TIP3    H212631   6.039   6.219   4.129  0.8499  0.6307 -1.3412
 4224TIP3   OH212632   2.357   5.639   2.834  0.6650 -0.3460 -0.4468
 4224TIP3    H112633   2.349   5.635   2.739  0.8579  4.4510 -0.7984
 4224TIP3    H212634   2.451   5.629   2.851  0.6634 -0.9354 -0.7647
 4225TIP3   OH212635   4.537   5.748   3.249 -0.1322 -0.3366 -0.0018
 4225TIP3    H112636   4.619   5.715   3.213  0.0133  1.0445 -0.9682
 4225TIP3    H212637   4.482   5.670   3.259  0.5745 -1.0034 -1.2598
 4226TIP3   OH212638   2.684   6.786   2.685 -0.0349 -0.4626 -0.1118
 4226TIP3    H112639   2.648   6.700   2.664  3.2298 -2.1029  0.6780
 4226TIP3    H212640   2.692   6.786   2.780 -0.1308  0.7846 -0.0984
 4227TIP3   OH212641   3.609   3.165   3.660 -0.3641 -0.4649 -0.1380
 4227TIP3    H112642   3.580   3.107   3.731  0.3986  0.8391  1.2615
 4227TIP3    H212643   3.702   3.145   3.649 -0.2404  0.0717 -0.0661
 4228TIP3   OH212644   4.970   4.850   3.168 -0.0371 -0.0269 -0.4650
 4228TIP3    H112645   4.990   4.757   3.156  0.7659  0.0604  0.0784
 4228TIP3    H212646   5.056   4.891   3.172 -0.4029  1.1439 -3.6213
 4229TIP3   OH212647   5.461   0.483   3.075  0.3054 -0.1587 -0.3508
 4229TIP3    H112648   5.401   0.493   3.001 -0.1536  0.9363  0.1600
 4229TIP3    H212649   5.416   0.423   3.135  0.4717 -0.6736 -0.7385
 4230TIP3   OH212650   3.451   6.281   1.881  0.0285 -0.6411 -0.5200
 4230TIP3    H112651   3.471   6.330   1.960  0.1868 -1.4244 -0.0658
 4230TIP3    H212652   3.387   6.334   1.834  3.2684  2.0797 -2.1244
 4231TIP3   OH212653   4.803   7.246   3.597  0.3125  0.1743 -0.3667
 4231TIP3    H112654   4.790   7.152   3.584  0.1316  0.0316  0.7840
 4231TIP3    H212655   4.750   7.267   3.673  1.9773  0.7995  0.6484
 4232TIP3   OH212656   6.489   5.056   3.011  0.0114 -1.0716 -0.4297
 4232TIP3    H112657   6.403   5.022   2.987  1.6238 -4.3289 -1.8997
 4232TIP3    H212658   6.494   5.045   3.106 -2.5913  2.7174  0.2606
 4233TIP3   OH212659   1.217   3.966   3.692 -0.2035  0.2466 -0.5724
 4233TIP3    H112660   1.197   3.879   3.728 -2.5253  0.6627 -0.7629
 4233TIP3    H212661   1.213   4.025   3.768  0.8776  0.2809 -0.5299
 4234TIP3   OH212662   6.526   5.840   1.106 -0.4555  0.1539  0.4424
 4234TIP3    H112663   6.487   5.924   1.128  0.1071  0.3426  0.7407
 4234TIP3    H212664   6.609   5.838   1.155 -0.0722 -0.2183 -0.2097
 4235TIP3   OH212665   1.551   4.286   0.519  0.3194  0.0719  0.2587
 4235TIP3    H112666   1.631   4.284   0.467 -0.5774  1.0719 -1.2154
 4235TIP3    H212667   1.539   4.195   0.549  2.2569  0.0263  0.9330
 4236TIP3   OH212668   6.020   6.275   3.189  0.0645 -0.0380 -0.0651
 4236TIP3    H112669   5.974   6.249   3.269  0.0521 -1.2803 -0.4580
 4236TIP3    H212670   6.098   6.219   3.187  0.4342  0.4886 -0.5465
 4237TIP3   OH212671   5.690   5.780   3.281 -0.1084  0.1039 -0.4046
 4237TIP3    H112672   5.656   5.783   3.191 -2.3378 -1.2746  0.3676
 4237TIP3    H212673   5.634   5.840   3.329  1.0802  0.8266  0.1026
 4238TIP3   OH212674   3.845   5.415   3.751  0.5603  0.1589  0.4649
 4238TIP3    H112675   3.824   5.330   3.791 -0.2630  0.0801 -0.1089
 4238TIP3    H212676   3.871   5.470   3.825 -1.1197  0.0750  1.1576
 4239TIP3   OH212677   6.291   0.131   0.807  0.3074 -0.0085 -0.0329
 4239TIP3    H112678   6.278   0.176   0.723  0.5486 -0.8012 -0.5082
 4239TIP3    H212679   6.310   0.201   0.869  1.2628  0.5021 -0.8789
 4240TIP3   OH212680   2.791   5.661   2.948 -0.5413  0.1722 -0.3825
 4240TIP3    H112681   2.720   5.649   2.885 -0.0969  0.2803 -0.8988
 4240TIP3    H212682   2.860   5.705   2.899 -0.5586  1.0980  0.4293
 4241TIP3   OH212683   6.031   0.074   1.160  0.1109  0.6399  0.7340
 4241TIP3    H112684   6.033   0.147   1.222 -0.8006  0.5694  0.8634
 4241TIP3    H212685   5.977   0.008   1.202  1.1773 -0.2344  0.7339
 4242TIP3   OH212686   0.869   6.821   2.819  0.0717 -0.5839  0.3884
 4242TIP3    H112687   0.856   6.728   2.837  0.6616 -0.5653  0.9177
 4242TIP3    H212688   0.906   6.857   2.900  0.1942  0.0402  0.0611
 4243TIP3   OH212689   2.462   4.839   4.178  0.7858 -0.7121 -0.2559
 4243TIP3    H112690   2.440   4.918   4.227  1.1870 -1.3267  0.9270
 4243TIP3    H212691   2.533   4.866   4.120 -1.3769  0.6597 -2.3554
 4244TIP3   OH212692   4.509   5.902   2.563 -0.0056 -0.0586 -0.1695
 4244TIP3    H112693   4.428   5.941   2.596 -0.1769 -2.0680  2.0043
 4244TIP3    H212694   4.480   5.844   2.493 -0.5203 -0.8739  0.6861
 4245TIP3   OH212695   3.411   6.809   1.622 -0.2011 -0.3246  0.2603
 4245TIP3    H112696   3.388   6.796   1.714  1.0806  0.0698  0.6500
 4245TIP3    H212697   3.328   6.822   1.577 -0.8485 -0.8215  1.3245
 4246TIP3   OH212698   4.642   6.737   4.002 -0.0006  0.1963  0.6082
 4246TIP3    H112699   4.707   6.807   3.999  0.8816 -0.6434  0.0691
 4246TIP3    H212700   4.596   6.750   4.086 -1.2504  2.6681 -0.4025
 4247TIP3   OH212701   4.671   5.061   2.595 -0.0469  0.1570 -0.3043
 4247TIP3    H112702   4.745   5.121   2.586 -0.7688  1.2592  0.8840
 4247TIP3    H212703   4.653   5.032   2.506 -0.0695  2.1930 -0.9982
 4248TIP3   OH212704   3.564   7.042   1.708 -0.4322  0.3824  0.4212
 4248TIP3    H112705   3.652   7.074   1.726 -0.4454  0.5918  0.1037
 4248TIP3    H212706   3.577   6.953   1.674 -0.2920  0.7350 -0.4605
 4249TIP3   OH212707   2.655   6.529   2.786 -0.6999 -0.8616  0.0544
 4249TIP3    H112708   2.730   6.489   2.742  0.0534 -0.5777  1.0754
 4249TIP3    H212709   2.684   6.542   2.876 -0.8211  2.2053 -0.2901
 4250TIP3   OH212710   6.881   6.501   3.026 -0.0775  0.1264 -0.5029
 4250TIP3    H112711   6.791   6.469   3.026 -0.9938  2.5294  1.0523
 4250TIP3    H212712   6.889   6.551   3.108  2.4217  0.6243 -1.0008
 4251TIP3   OH212713   3.792   7.256   3.934 -0.5569  0.2560  0.2227
 4251TIP3    H112714   3.727   7.195   3.970 -0.4090  0.8972  1.6113
 4251TIP3    H212715   3.875   7.211   3.947 -0.5881  0.0967 -0.1406
 4252TIP3   OH212716   3.835   5.170   1.415  0.5157  0.5430  0.1414
 4252TIP3    H112717   3.916   5.208   1.448  0.0241  1.7480 -0.0077
 4252TIP3    H212718   3.847   5.076   1.424  2.8293  0.6037 -1.9998
 4253TIP3   OH212719   3.876   5.554   3.518  0.6588  0.2827  0.7967
 4253TIP3    H112720   3.802   5.514   3.471  1.9344 -0.1768 -0.8997
 4253TIP3    H212721   3.885   5.502   3.598  0.2093 -0.7306  0.2026
 4254TIP3   OH212722   3.025   7.209   2.126  0.3760  0.7372  0.1917
 4254TIP3    H112723   2.995   7.201   2.216 -0.3682 -0.3009 -0.1320
 4254TIP3    H212724   3.070   7.293   2.122  0.4596  0.7583  1.5414
 4255TIP3   OH212725   5.742   1.786   2.540  0.5012 -0.1585 -0.5620
 4255TIP3    H112726   5.673   1.740   2.493  0.1286 -0.1999  0.0212
 4255TIP3    H212727   5.725   1.768   2.632  0.2384  1.3045 -0.3092
 4256TIP3   OH212728   2.592   7.055   2.373 -0.0097 -0.1289  0.6739
 4256TIP3    H112729   2.654   7.057   2.446  0.4354  1.1932  0.2645
 4256TIP3    H212730   2.646   7.065   2.295 -0.7020  0.8908  0.3076
 4257TIP3   OH212731   6.699   0.188   4.506 -0.2665 -0.1799  0.4735
 4257TIP3    H112732   6.640   0.234   4.446 -0.5732 -1.5404 -0.2840
 4257TIP3    H212733   6.763   0.254   4.531  0.1680  0.2833 -1.7578
 4258TIP3   OH212734   4.176   5.644   2.825 -0.0980 -0.1336  0.3992
 4258TIP3    H112735   4.082   5.640   2.811  0.1316  1.9412 -2.2356
 4258TIP3    H212736   4.211   5.569   2.777 -0.2877 -0.0266  0.0971
 4259TIP3   OH212737   1.962   5.118   1.698 -0.1718 -0.0297 -0.1634
 4259TIP3    H112738   2.055   5.133   1.719 -0.7221  0.0385  2.4520
 4259TIP3    H212739   1.946   5.027   1.724 -1.2606  0.5111  1.1161
 4260TIP3   OH212740   3.704   6.285   4.009  0.5449 -0.0747 -0.3811
 4260TIP3    H112741   3.723   6.305   4.101  0.9101  0.6137 -0.5968
 4260TIP3    H212742   3.611   6.304   4.000 -0.2881 -3.4304  0.6715
 4261TIP3   OH212743   6.935   0.404   3.561 -0.1386 -0.0333  0.6615
 4261TIP3    H112744   6.970   0.315   3.567  0.4241 -0.0477 -2.0368
 4261TIP3    H212745   6.851   0.394   3.515 -0.4903  0.7341  1.1237
 4262TIP3   OH212746   2.720   6.834   2.944  0.4719 -0.5475 -0.2898
 4262TIP3    H112747   2.646   6.774   2.950  0.0155  0.1358  0.9769
 4262TIP3    H212748   2.756   6.838   3.033  1.9503 -0.7709 -0.8573
 4263TIP3   OH212749   4.457   5.414   3.747 -0.3546 -0.1118 -0.2310
 4263TIP3    H112750   4.544   5.427   3.709 -0.9238  0.5363 -1.3402
 4263TIP3    H212751   4.396   5.447   3.680 -1.4813 -1.1766  0.2567
 4264TIP3   OH212752   4.628   0.554   2.382 -0.4644  0.1516 -0.1168
 4264TIP3    H112753   4.565   0.485   2.401 -1.9955  1.5286 -0.0976
 4264TIP3    H212754   4.575   0.627   2.351  1.0414  1.6767  0.8318
 4265TIP3   OH212755   5.384   0.396   0.753  0.1836 -0.2977  0.6977
 4265TIP3    H112756   5.449   0.342   0.708 -0.7951 -1.2107  0.3492
 4265TIP3    H212757   5.322   0.332   0.789 -1.9914  0.6667 -1.2752
 4266TIP3   OH212758   3.043   3.539   6.195  0.2091 -0.3400  0.1623
 4266TIP3    H112759   3.060   3.484   6.119  0.8668  0.1788 -0.0793
 4266TIP3    H212760   3.113   3.517   6.256 -0.8264 -1.3939  0.9833
 4267TIP3   OH212761   4.556   6.454   1.453 -0.4047  0.2461 -0.1029
 4267TIP3    H112762   4.540   6.472   1.360  0.4726  0.1658 -0.2689
 4267TIP3    H212763   4.602   6.531   1.485  0.8984 -0.4906 -0.1615
 4268TIP3   OH212764   3.784   6.581   4.038 -0.3671 -0.0848 -0.1643
 4268TIP3    H112765   3.841   6.611   4.108  0.9147 -1.4423 -0.5895
 4268TIP3    H212766   3.708   6.544   4.083  0.7373 -1.5291  0.5457
 4269TIP3   OH212767   4.091   4.431   2.889  0.1386  0.5655  0.3200
 4269TIP3    H112768   4.091   4.371   2.964  1.0315  2.0859  1.5495
 4269TIP3    H212769   4.065   4.515   2.925 -1.2343  0.9085 -1.4304
 4270TIP3   OH212770   6.407   5.315   3.153  1.0541 -0.3120  0.5646
 4270TIP3    H112771   6.450   5.243   3.107 -2.7087 -1.1554 -1.9187
 4270TIP3    H212772   6.435   5.306   3.244  3.0619 -3.0405 -0.2607
 4271TIP3   OH212773   5.775   5.468   3.615  0.0503  0.0839 -0.6662
 4271TIP3    H112774   5.729   5.486   3.697  0.8548  0.8549 -0.3772
 4271TIP3    H212775   5.706   5.470   3.548 -0.2654  1.7685 -0.3113
 4272TIP3   OH212776   3.955   7.285   3.017  0.1028 -0.1606 -0.2419
 4272TIP3    H112777   3.868   7.289   3.056  0.4018 -0.5578  0.4588
 4272TIP3    H212778   3.949   7.213   2.953  0.2546 -0.9582  0.6345
 4273TIP3   OH212779   4.030   6.373   2.219  1.0732  0.0200  0.4908
 4273TIP3    H112780   3.967   6.307   2.190  0.0562  0.5455  1.4967
 4273TIP3    H212781   4.082   6.393   2.141 -2.5015  2.3988 -1.4163
 4274TIP3   OH212782   6.411   5.108   2.351  0.1294 -0.1622  0.6473
 4274TIP3    H112783   6.370   5.194   2.349 -0.0961 -0.2802 -2.2257
 4274TIP3    H212784   6.346   5.051   2.391  0.2655  0.9748  2.5220
 4275TIP3   OH212785   3.100   3.955   3.411  0.2163 -0.0755  0.1504
 4275TIP3    H112786   3.167   3.939   3.478  0.4330 -2.4995 -0.5926
 4275TIP3    H212787   3.149   3.956   3.329 -0.3403  0.6305 -0.1694
 4276TIP3   OH212788   4.718   4.278   1.315 -0.3720  0.2086 -0.0719
 4276TIP3    H112789   4.788   4.224   1.279  0.3834  1.7478 -0.9593
 4276TIP3    H212790   4.647   4.272   1.252 -0.1890  0.4518 -0.3025
 4277TIP3   OH212791   4.295   6.780   4.753 -0.3717  0.1015  0.3635
 4277TIP3    H112792   4.389   6.798   4.745  0.0298 -1.2906  1.5960
 4277TIP3    H212793   4.283   6.762   4.847 -2.0742  1.3170  0.4030
 4278TIP3   OH212794   5.175   5.730   2.327 -0.0831  1.1315 -0.7162
 4278TIP3    H112795   5.176   5.660   2.262  1.3182  0.9793 -0.5434
 4278TIP3    H212796   5.257   5.720   2.375 -1.2106  1.0746  1.2799
 4279TIP3   OH212797   2.626   5.982   2.549  0.1029 -0.3842 -0.5639
 4279TIP3    H112798   2.626   6.076   2.570  1.0827 -0.7317  1.0479
 4279TIP3    H212799   2.717   5.964   2.524  0.0385 -1.0143 -0.3397
 4280TIP3   OH212800   2.420   5.535   2.559 -0.1241  0.2873  0.2410
 4280TIP3    H112801   2.345   5.546   2.500 -1.6739 -2.2022  1.7002
 4280TIP3    H212802   2.462   5.454   2.530  1.1540  0.8892  0.3789
 4281TIP3   OH212803   3.980   0.918   2.569 -0.0836  0.6832  0.0082
 4281TIP3    H112804   4.038   0.931   2.494  2.5769  2.8645  2.3343
 4281TIP3    H212805   4.007   0.835   2.606 -0.3362  0.3774 -0.4756
 4282TIP3   OH212806   4.008   3.299   3.665  0.1665 -0.3753  0.0193
 4282TIP3    H112807   4.103   3.309   3.669  0.0469  0.9653 -0.3091
 4282TIP3    H212808   3.990   3.266   3.577  0.4529 -2.3255  0.6581
 4283TIP3   OH212809   3.285   5.592   2.670  0.5561 -0.1230 -0.2342
 4283TIP3    H112810   3.228   5.643   2.727  0.0895  1.3779 -1.9735
 4283TIP3    H212811   3.249   5.606   2.582 -0.2541 -4.3936 -0.6543
 4284TIP3   OH212812   4.741   6.265   2.633  0.1183  0.2482  0.2737
 4284TIP3    H112813   4.733   6.303   2.720  3.8454 -1.1328  1.3136
 4284TIP3    H212814   4.818   6.308   2.595  1.7728 -2.9730 -0.1981
 4285TIP3   OH212815   2.994   4.122   2.505  0.2068  0.1445 -0.3486
 4285TIP3    H112816   2.997   4.200   2.559  0.3010  1.2317 -1.8845
 4285TIP3    H212817   3.084   4.112   2.472  0.3348 -0.9532  0.2928
 4286TIP3   OH212818   4.837   5.467   4.032  0.2221 -0.5033 -0.2793
 4286TIP3    H112819   4.906   5.419   4.078 -0.1157  0.2873  1.0753
 4286TIP3    H212820   4.838   5.431   3.943  1.6581 -1.2452  0.0220
 4287TIP3   OH212821   5.817   5.730   3.860  0.0760 -0.2124 -0.6903
 4287TIP3    H112822   5.755   5.669   3.899  1.3378 -2.0414 -1.4445
 4287TIP3    H212823   5.880   5.674   3.814  2.1423  1.5798 -0.1538
 4288TIP3   OH212824   3.392   7.224   1.788  0.4642  0.4029 -0.6104
 4288TIP3    H112825   3.441   7.155   1.744 -0.1527 -0.5399  0.1614
 4288TIP3    H212826   3.323   7.178   1.835  0.3104  1.5085  0.2666
 4289TIP3   OH212827   6.660   1.036   3.211  0.2298 -0.3339 -0.2466
 4289TIP3    H112828   6.569   1.058   3.230 -0.3438 -2.0926 -0.8714
 4289TIP3    H212829   6.702   1.031   3.296  0.4340  3.2594 -0.0756
 4290TIP3   OH212830   5.546   0.726   1.792  0.2541 -0.0412  0.3321
 4290TIP3    H112831   5.619   0.707   1.851 -0.0474  1.0644  1.0828
 4290TIP3    H212832   5.547   0.821   1.782  0.8271 -0.2633 -2.1631
 4291TIP3   OH212833   4.225   4.859   3.476 -0.3258 -0.1376 -0.1509
 4291TIP3    H112834   4.269   4.921   3.533 -1.6002  1.5092 -0.8980
 4291TIP3    H212835   4.291   4.834   3.411 -0.3277  1.9719 -1.0129
 4292TIP3   OH212836   3.162   4.930   3.481 -0.2339  0.0053 -0.2787
 4292TIP3    H112837   3.218   4.995   3.523  0.6930 -0.9584 -0.0117
 4292TIP3    H212838   3.160   4.857   3.543  0.4890 -1.0992 -1.5445
 4293TIP3   OH212839   3.144   3.377   2.118  0.0404 -0.2213 -0.6128
 4293TIP3    H112840   3.154   3.283   2.131  0.4234  0.1255  1.6880
 4293TIP3    H212841   3.051   3.388   2.099 -0.5600 -0.7875  1.8423
 4294TIP3   OH212842   4.636   5.997   3.182 -0.0378 -0.2875 -0.2778
 4294TIP3    H112843   4.603   5.989   3.093 -1.5848  0.3429  0.2155
 4294TIP3    H212844   4.596   5.924   3.229  0.2484 -0.2357  0.0484
 4295TIP3   OH212845   7.633   6.400   1.983 -0.0946 -0.2147 -0.1241
 4295TIP3    H112846   7.729   6.405   1.987 -0.0658 -1.6889  1.4590
 4295TIP3    H212847   7.616   6.335   1.915  0.0161  0.2941 -0.6428
 4296TIP3   OH212848   3.482   5.201   3.257 -0.3035 -0.3677  0.1292
 4296TIP3    H112849   3.405   5.190   3.313 -0.9779 -0.1692 -0.7432
 4296TIP3    H212850   3.512   5.112   3.239 -0.7033 -0.4695 -0.0338
 4297TIP3   OH212851   6.381   0.080   4.313 -0.4109  0.2021  0.2554
 4297TIP3    H112852   6.416   0.121   4.234 -1.4858 -2.8103 -1.8463
 4297TIP3    H212853   6.329   0.149   4.355  1.0519  2.1561 -1.0682
 4298TIP3   OH212854   4.177   5.757   2.239  0.2568 -0.3862  0.1542
 4298TIP3    H112855   4.186   5.680   2.183  1.3827 -0.3348  0.2383
 4298TIP3    H212856   4.102   5.739   2.295 -0.3358 -0.8191 -0.7820
 4299TIP3   OH212857   5.249   6.138   2.036 -0.0887 -0.5775  0.0065
 4299TIP3    H112858   5.227   6.051   2.069 -0.4044 -1.0364 -1.3951
 4299TIP3    H212859   5.335   6.157   2.074 -0.3165 -1.2191  0.8505
 4300TIP3   OH212860   5.952   6.753   3.980  0.1658  0.1687 -0.0653
 4300TIP3    H112861   5.978   6.826   4.036  1.9669 -0.8167  0.4320
 4300TIP3    H212862   6.034   6.706   3.963 -0.6586 -0.6314 -1.9704
 4301TIP3   OH212863   2.837   4.474   2.174  0.0384  0.0936 -0.1223
 4301TIP3    H112864   2.842   4.489   2.079  1.6176 -0.6816 -0.1764
 4301TIP3    H212865   2.926   4.451   2.199 -1.1734 -3.9199  0.8266
 4302TIP3   OH212866   7.638   0.535   3.405 -0.4602 -0.0187  0.8705
 4302TIP3    H112867   7.604   0.596   3.340 -1.0598 -1.0698  0.1997
 4302TIP3    H212868   7.619   0.448   3.370  0.5380 -0.6013  1.7426
 4303TIP3   OH212869   5.329   6.663   2.798  0.3585 -0.0368 -0.3850
 4303TIP3    H112870   5.417   6.630   2.778 -0.7610 -1.9699 -2.2774
 4303TIP3    H212871   5.321   6.744   2.748 -0.2543 -1.7679 -3.1600
 4304TIP3   OH212872   2.826   4.091   2.278  0.4230 -0.0749 -0.0027
 4304TIP3    H112873   2.868   4.017   2.234 -0.1433  0.1327 -0.8948
 4304TIP3    H212874   2.887   4.116   2.347  0.9443 -0.9159 -0.1599
 4305TIP3   OH212875   5.842   5.506   2.266 -0.0278  0.0561  0.6696
 4305TIP3    H112876   5.903   5.561   2.217  0.5200 -1.7386 -0.7097
 4305TIP3    H212877   5.767   5.496   2.209 -0.4487 -0.0063  1.2314
 4306TIP3   OH212878   5.173   7.133   1.602 -0.0938 -0.1458  0.3614
 4306TIP3    H112879   5.142   7.220   1.579  0.0488  0.0593  0.9162
 4306TIP3    H212880   5.248   7.117   1.545  0.6680  0.6257  1.1328
 4307TIP3   OH212881   2.974   6.117   1.830 -0.2713 -0.3415 -0.0022
 4307TIP3    H112882   2.969   6.209   1.805 -1.4110 -0.6501 -0.9481
 4307TIP3    H212883   2.883   6.088   1.837  0.0716 -1.3267  0.5595
 4308TIP3   OH212884   1.662   6.434   1.137  0.0415  0.0509 -0.4308
 4308TIP3    H112885   1.617   6.513   1.165  1.1972  0.3499  0.6018
 4308TIP3    H212886   1.733   6.423   1.200 -1.1875 -2.8160  0.5312
 4309TIP3   OH212887   3.177   6.676   1.790  0.1697  0.4672 -0.0432
 4309TIP3    H112888   3.083   6.688   1.776 -0.0247 -0.7152  0.2197
 4309TIP3    H212889   3.188   6.683   1.885 -0.0520 -2.0103  0.1993
 4310TIP3   OH212890   5.066   1.145   2.560 -0.8202 -0.0173 -0.0146
 4310TIP3    H112891   5.019   1.218   2.520 -2.4094 -0.5832  0.8041
 4310TIP3    H212892   5.040   1.069   2.509  1.4441  0.0492 -1.3746
 4311TIP3   OH212893   4.730   7.001   1.979  0.1935 -0.0741  0.4667
 4311TIP3    H112894   4.771   7.074   2.025 -0.0238  0.1925  0.2328
 4311TIP3    H212895   4.767   6.923   2.021 -0.1721  0.1664  1.2427
 4312TIP3   OH212896   5.738   6.733   2.571  0.6997 -0.9252 -0.3851
 4312TIP3    H112897   5.778   6.808   2.617 -2.1022 -0.3748  1.2847
 4312TIP3    H212898   5.773   6.657   2.617  0.6221 -0.4853  0.4305
 4313TIP3   OH212899   4.724   5.430   2.622  0.0144 -0.0447  0.0509
 4313TIP3    H112900   4.784   5.504   2.627 -0.7256  0.4648  2.0014
 4313TIP3    H212901   4.637   5.468   2.634 -0.4903 -1.0592 -0.3281
 4314TIP3   OH212902   2.176   4.066   6.120  0.4514 -0.1530 -0.3255
 4314TIP3    H112903   2.208   4.156   6.116  0.4029 -0.1139  0.1968
 4314TIP3    H212904   2.129   4.060   6.203 -1.6136  0.0331 -1.4405
 4315TIP3   OH212905   2.191   3.448   6.365 -0.1636 -0.1765 -0.1438
 4315TIP3    H112906   2.125   3.504   6.323  0.2030 -0.4193 -1.0517
 4315TIP3    H212907   2.211   3.381   6.299  0.2178 -0.7220  0.5223
 4316TIP3   OH212908   5.227   5.989   1.079 -0.2328  0.7619 -0.4861
 4316TIP3    H112909   5.155   6.041   1.042 -2.3948 -0.2325  2.0837
 4316TIP3    H212910   5.191   5.901   1.086  1.3380  0.1873  0.5698
 4317TIP3   OH212911   3.144   5.808   2.798 -0.6448  0.5371 -0.2406
 4317TIP3    H112912   3.061   5.790   2.753  0.1583  0.4474 -1.7188
 4317TIP3    H212913   3.161   5.901   2.780 -0.3140  0.4999 -0.1128
 4318TIP3   OH212914   4.783   0.643   2.151  0.8048  0.5467  0.2551
 4318TIP3    H112915   4.856   0.588   2.120 -0.3171 -1.5680  1.2141
 4318TIP3    H212916   4.744   0.592   2.222 -1.5596  1.6798 -0.1845
 4319TIP3   OH212917   5.416   1.247   3.087  0.1262  0.0044 -0.5173
 4319TIP3    H112918   5.356   1.288   3.025 -1.3133 -1.2292  0.0442
 4319TIP3    H212919   5.370   1.170   3.118  0.3518  1.2062  2.9776
 4320TIP3   OH212920   0.659   5.225   2.031 -0.1261 -0.0798 -0.0218
 4320TIP3    H112921   0.589   5.265   2.082  1.2917  2.9399 -0.3177
 4320TIP3    H212922   0.735   5.229   2.089  0.1053 -2.2242 -0.1445
 4321TIP3   OH212923   2.563   4.581   1.476  0.4988  0.2574 -0.9751
 4321TIP3    H112924   2.634   4.565   1.414  0.1514 -0.8586 -1.0891
 4321TIP3    H212925   2.600   4.558   1.561  0.3121 -0.2166 -1.0209
 4322TIP3   OH212926   3.020   4.610   2.520 -0.1005 -0.3362 -0.2631
 4322TIP3    H112927   2.930   4.643   2.519  0.1090  0.2417 -0.3014
 4322TIP3    H212928   3.062   4.657   2.593  0.8390  1.2209 -1.7679
 4323TIP3   OH212929   6.472   6.243   1.207 -0.4061  0.5484  0.4245
 4323TIP3    H112930   6.523   6.201   1.275  0.7306 -0.2222 -0.8728
 4323TIP3    H212931   6.494   6.336   1.214  0.7897  0.2892  0.2033
 4324TIP3   OH212932   5.767   5.824   2.271  0.2863  0.1596 -0.5812
 4324TIP3    H112933   5.846   5.789   2.229  0.7068 -0.2684  0.5397
 4324TIP3    H212934   5.747   5.761   2.340 -1.1590  0.1735 -0.9798
 4325TIP3   OH212935   3.154   5.480   1.845 -0.2091  0.0798 -0.4141
 4325TIP3    H112936   3.150   5.530   1.926  0.1061 -0.3045 -0.1580
 4325TIP3    H212937   3.062   5.461   1.824 -0.4095  1.8826 -1.2225
 4326TIP3   OH212938   4.457   6.649   3.817 -0.2845 -0.1564 -0.5336
 4326TIP3    H112939   4.532   6.672   3.872 -0.6842  1.2322 -0.5372
 4326TIP3    H212940   4.495   6.608   3.740  0.5172  1.0263 -0.7836
 4327TIP3   OH212941   4.192   4.978   2.315  0.4872 -0.3384  1.5939
 4327TIP3    H112942   4.165   5.064   2.348 -0.9621  0.1138 -0.6944
 4327TIP3    H212943   4.136   4.962   2.239  0.7302 -3.3253  1.9586
 4328TIP3   OH212944   2.293   5.987   2.577 -0.1593  0.4760  0.4271
 4328TIP3    H112945   2.367   6.000   2.635 -0.2366 -1.3238  0.9805
 4328TIP3    H212946   2.218   5.975   2.635 -0.5238  0.2771 -0.0708
 4329TIP3   OH212947   4.033   5.759   0.800 -0.1427  0.2528  0.1782
 4329TIP3    H112948   4.118   5.797   0.821 -0.3476  0.7330  0.1506
 4329TIP3    H212949   3.997   5.817   0.733  0.1256 -0.7585 -0.8683
 4330TIP3   OH212950   7.704   6.149   0.610 -0.2416 -0.0390  0.0148
 4330TIP3    H112951   7.613   6.160   0.581  0.1646  0.4858 -1.0758
 4330TIP3    H212952   7.720   6.225   0.666 -0.6178 -0.3850  0.6069
 4331TIP3   OH212953   4.194   5.198   2.514  0.0966  0.0572  0.1640
 4331TIP3    H112954   4.275   5.166   2.555 -0.5235  0.5238  1.7804
 4331TIP3    H212955   4.169   5.274   2.566 -0.9326  0.4140 -0.8414
 4332TIP3   OH212956   4.386   5.970   1.705  0.0916 -0.2734  0.6035
 4332TIP3    H112957   4.468   5.989   1.751  0.3148  1.2546 -0.4053
 4332TIP3    H212958   4.329   6.044   1.724 -0.9128 -1.1042  0.9128
 4333TIP3   OH212959   1.992   5.905   1.450 -0.6642 -0.1725  0.3074
 4333TIP3    H112960   1.923   5.847   1.483  0.4568 -2.0484 -0.5274
 4333TIP3    H212961   1.961   5.936   1.366  0.6189 -3.2566 -1.4035
 4334TIP3   OH212962   5.483   3.129   6.239  0.6518  0.4147 -0.1363
 4334TIP3    H112963   5.511   3.211   6.280 -0.3231  2.1045 -2.6583
 4334TIP3    H212964   5.546   3.115   6.168 -0.1428 -0.1046 -0.7552
 4335TIP3   OH212965   4.222   3.965   2.970 -0.2435  0.5912  0.0591
 4335TIP3    H112966   4.267   4.043   2.939 -0.7685  0.4171 -1.1865
 4335TIP3    H212967   4.263   3.945   3.054  1.0675  1.2072 -0.4220
 4336TIP3   OH212968   2.890   5.788   2.684 -0.3091 -0.1741  0.0025
 4336TIP3    H112969   2.805   5.743   2.687 -2.4446  3.5598 -1.0132
 4336TIP3    H212970   2.912   5.790   2.590 -0.6386  1.5519 -0.0495
 4337TIP3   OH212971   6.791   2.547   5.320 -0.2889  0.0840  0.6680
 4337TIP3    H112972   6.754   2.530   5.233 -1.3623  0.1570  1.1078
 4337TIP3    H212973   6.720   2.527   5.381  0.7755 -0.9742  1.6028
 4338TIP3   OH212974   2.389   4.755   2.696  0.1932 -0.8013  0.7267
 4338TIP3    H112975   2.321   4.688   2.688 -2.0782  1.3313  1.5312
 4338TIP3    H212976   2.452   4.718   2.758 -0.5774 -2.5168  0.5218
 4339TIP3   OH212977   0.393   6.243   3.059 -0.1883  0.3946 -0.2950
 4339TIP3    H112978   0.470   6.278   3.104  0.5790  0.4631 -1.6239
 4339TIP3    H212979   0.421   6.158   3.026 -0.5910  0.5534 -1.0481
 4340TIP3   OH212980   3.119   3.369   1.119  0.2138  0.4597 -0.0184
 4340TIP3    H112981   3.202   3.396   1.158  0.0179  0.9719  0.0509
 4340TIP3    H212982   3.053   3.411   1.173 -0.1686 -1.7630  1.3382
 4341TIP3   OH212983   7.223   0.339   4.196 -0.1235 -0.0001 -0.2006
 4341TIP3    H112984   7.220   0.243   4.192 -1.0278  0.0496 -0.9793
 4341TIP3    H212985   7.243   0.366   4.106  0.2585  0.5318  0.0480
 4342TIP3   OH212986   5.255   0.193   1.602  0.0151 -0.2524  0.5236
 4342TIP3    H112987   5.253   0.134   1.527  0.6151 -0.6419  0.8100
 4342TIP3    H212988   5.198   0.152   1.667  1.4593 -1.1823  1.2101
 4343TIP3   OH212989   4.131   0.266   2.090  0.2621  0.3654 -0.2261
 4343TIP3    H112990   4.053   0.302   2.048 -1.5758 -1.3190  1.6501
 4343TIP3    H212991   4.163   0.337   2.146 -1.4409  0.1999  0.9802
 4344TIP3   OH212992   2.433   4.413   1.290  0.2264  0.1759 -0.2393
 4344TIP3    H112993   2.341   4.426   1.271  0.1598 -1.0276 -0.7752
 4344TIP3    H212994   2.450   4.468   1.367 -0.9323  0.3644 -0.1178
 4345TIP3   OH212995   1.181   5.917   3.183  0.1861 -0.0619 -0.0701
 4345TIP3    H112996   1.123   5.979   3.228 -0.6685 -0.1486 -1.0376
 4345TIP3    H212997   1.224   5.970   3.116  1.5546  0.0969  0.9250
 4346TIP3   OH212998   3.739   7.260   3.193 -0.1032 -0.7404 -0.0463
 4346TIP3    H112999   3.725   7.269   3.287 -1.1722 -0.3952 -0.2341
 4346TIP3    H213000   3.665   7.306   3.153  0.7396 -0.2339 -1.0557
 4347TIP3   OH213001   3.942   6.999   3.970  0.4661  0.2098  0.2618
 4347TIP3    H113002   3.876   6.931   3.955 -0.0379 -0.1652  3.8300
 4347TIP3    H213003   4.003   6.959   4.032  2.4588  1.6005 -0.7418
 4348TIP3   OH213004   2.394   4.940   1.223 -0.2866 -0.6325  0.3941
 4348TIP3    H113005   2.340   4.945   1.302 -0.6519 -0.0417  0.1091
 4348TIP3    H213006   2.399   4.846   1.203 -0.1858 -0.7831  1.1169
 4349TIP3   OH213007   1.833   5.401   1.687 -0.3681 -0.1804  0.1429
 4349TIP3    H113008   1.885   5.357   1.620 -0.0592 -1.3448  1.1299
 4349TIP3    H213009   1.781   5.465   1.639  1.2118  0.2861 -0.9801
 4350TIP3   OH213010   4.937   6.828   4.788  0.1005  0.6086 -0.6997
 4350TIP3    H113011   4.877   6.876   4.730 -0.7595 -0.3308 -0.5976
 4350TIP3    H213012   4.881   6.765   4.833  0.6456  1.7338  1.6377
 4351TIP3   OH213013   4.535   5.872   1.274 -0.4578 -0.3604 -0.0688
 4351TIP3    H113014   4.508   5.789   1.234 -1.1456  0.0282 -0.4397
 4351TIP3    H213015   4.453   5.922   1.280 -0.1388  0.0693  0.6705
 4352TIP3   OH213016   2.077   5.573   2.874 -0.0180 -0.8804  0.1246
 4352TIP3    H113017   2.067   5.524   2.955 -0.8136 -1.0401 -0.0651
 4352TIP3    H213018   2.167   5.607   2.877  0.4640 -2.1414  0.3695
 4353TIP3   OH213019   0.602   1.786   5.297  0.1185  0.3735  0.1201
 4353TIP3    H113020   0.638   1.699   5.312 -0.8513  0.4790  3.2808
 4353TIP3    H213021   0.617   1.802   5.203 -1.1148 -3.7937 -0.8725
 4354TIP3   OH213022   3.984   6.590   3.222  0.0394  0.2659 -0.2678
 4354TIP3    H113023   4.012   6.563   3.134  0.8490  0.3012 -0.0283
 4354TIP3    H213024   3.973   6.507   3.270  1.1747  0.2896  0.0616
 4355TIP3   OH213025   6.436   6.377   0.727 -0.4576  0.2244 -0.1688
 4355TIP3    H113026   6.362   6.358   0.785 -0.4940 -1.4450 -0.7139
 4355TIP3    H213027   6.472   6.290   0.706  1.3443  0.9859 -0.3135
 4356TIP3   OH213028   0.674   6.299   2.887  0.1442 -0.3023 -0.2927
 4356TIP3    H113029   0.646   6.215   2.924  0.1695 -0.4635 -0.6372
 4356TIP3    H213030   0.592   6.349   2.878  0.1065 -0.3566 -0.2528
 4357TIP3   OH213031   4.282   5.562   1.820 -0.3619 -0.4686 -0.3106
 4357TIP3    H113032   4.259   5.577   1.911 -0.1799 -0.1905 -0.3094
 4357TIP3    H213033   4.215   5.501   1.787  0.2326 -1.4876  0.3278
 4358TIP3   OH213034   3.187   6.452   3.839  0.0920  0.1205 -0.2091
 4358TIP3    H113035   3.195   6.357   3.849 -0.1377  0.1430  0.2255
 4358TIP3    H213036   3.095   6.470   3.858  0.5299  0.6354  1.4963
 4359TIP3   OH213037   5.903   0.104   3.014  0.1784  0.5266 -0.1459
 4359TIP3    H113038   5.867   0.018   2.992  0.3290 -0.0643  1.8827
 4359TIP3    H213039   5.827   0.163   3.015 -0.1142  0.1488 -0.1525
 4360TIP3   OH213040   6.669   0.091   3.374  0.2206  0.1397 -0.3333
 4360TIP3    H113041   6.688   0.098   3.467  0.3882 -1.0286 -0.2766
 4360TIP3    H213042   6.720   0.162   3.334 -0.9407  1.5083  0.6037
 4361TIP3   OH213043   6.624   6.930   3.426  0.9047  0.6881 -0.0709
 4361TIP3    H113044   6.564   6.924   3.352  2.5000 -2.5331 -1.1829
 4361TIP3    H213045   6.703   6.970   3.389  1.3522 -0.0360  0.0852
 4362TIP3   OH213046   7.566   1.348   3.583 -0.3062 -0.7440  0.3497
 4362TIP3    H113047   7.608   1.275   3.537 -1.6975 -1.5490  0.3197
 4362TIP3    H213048   7.639   1.404   3.610  0.6215 -0.8398 -1.8142
 4363TIP3   OH213049   6.552   0.427   4.357  0.0544 -0.4402  0.0037
 4363TIP3    H113050   6.529   0.502   4.412  0.3297 -1.2500  1.2242
 4363TIP3    H213051   6.480   0.422   4.293 -0.3902  0.3456  0.4341
 4364TIP3   OH213052   2.691   5.917   3.136 -0.0204 -0.2724  0.5128
 4364TIP3    H113053   2.717   5.851   3.071 -0.4070  0.3141 -0.2428
 4364TIP3    H213054   2.676   5.866   3.216 -1.2985 -1.2686 -0.3152
 4365TIP3   OH213055   1.376   2.317   1.839 -0.2195  0.2922  0.5237
 4365TIP3    H113056   1.425   2.348   1.763 -1.2947 -0.3911 -0.4632
 4365TIP3    H213057   1.443   2.304   1.907  0.9746 -0.5710 -0.7789
 4366TIP3   OH213058   5.141   4.860   5.245  0.1137  0.0075 -0.1550
 4366TIP3    H113059   5.117   4.830   5.158  0.5483  0.6289 -0.4960
 4366TIP3    H213060   5.228   4.825   5.260 -0.4135 -1.0554  0.5046
 4367TIP3   OH213061   3.488   5.701   1.639  0.0659 -0.4399  0.0589
 4367TIP3    H113062   3.523   5.744   1.561 -1.6921  1.3938  0.2668
 4367TIP3    H213063   3.402   5.668   1.612 -0.2523 -0.4068  1.0448
 4368TIP3   OH213064   2.396   6.993   1.361 -0.7997 -1.0075  0.3391
 4368TIP3    H113065   2.471   6.995   1.302  0.7002 -1.9458  2.1644
 4368TIP3    H213066   2.425   7.041   1.439 -2.2898 -0.8846  0.8329
 4369TIP3   OH213067   4.952   4.518   2.208  0.2055 -0.3378  0.0711
 4369TIP3    H113068   4.925   4.550   2.294  1.4629  0.5669  0.1441
 4369TIP3    H213069   4.985   4.430   2.225  0.6860 -0.0635  0.5588
 4370TIP3   OH213070   2.199   6.856   3.245  0.7852 -0.7989 -0.5639
 4370TIP3    H113071   2.154   6.821   3.322  0.0384 -0.9883 -1.0922
 4370TIP3    H213072   2.235   6.779   3.201 -0.1867 -0.8344 -1.2982
 4371TIP3   OH213073   2.811   6.349   1.221  0.4875 -0.7663  0.3334
 4371TIP3    H113074   2.797   6.423   1.162  1.3261 -0.8294  0.0609
 4371TIP3    H213075   2.853   6.388   1.298  1.1736 -1.0078  0.0766
 4372TIP3   OH213076   5.402   6.986   2.086 -1.0095 -0.4069  0.2374
 4372TIP3    H113077   5.308   6.985   2.099 -1.3975  1.9833 -2.0214
 4372TIP3    H213078   5.418   6.918   2.021 -1.0244 -1.4644  1.3188
 4373TIP3   OH213079   4.730   1.812   5.905 -0.0761 -0.3866  0.5327
 4373TIP3    H113080   4.824   1.802   5.890  0.2667  2.9803  0.1482
 4373TIP3    H213081   4.701   1.873   5.837 -2.1814  0.0379  1.7796
 4374TIP3   OH213082   6.933   1.092   2.563  0.3260 -0.4487 -0.2955
 4374TIP3    H113083   6.982   1.123   2.486  0.8195  0.9825  0.5758
 4374TIP3    H213084   6.882   1.018   2.530 -0.5050  0.9825 -2.3152
 4375TIP3   OH213085   4.157   6.188   1.493  0.1592  0.4024 -0.8515
 4375TIP3    H113086   4.183   6.278   1.510 -0.9006  0.3591  1.1243
 4375TIP3    H213087   4.079   6.195   1.438 -1.5678  0.7977  1.5721
 4376TIP3   OH213088   7.217   0.089   1.309  0.1870  0.0799  0.1142
 4376TIP3    H113089   7.280   0.065   1.242  0.9089  1.0971  0.4255
 4376TIP3    H213090   7.211   0.184   1.304 -0.3363  0.0989  0.9693
 4377TIP3   OH213091   4.629   5.960   0.922 -0.3521 -0.6519 -0.1505
 4377TIP3    H113092   4.587   5.874   0.920  0.0651 -0.8624 -0.0024
 4377TIP3    H213093   4.558   6.022   0.906 -1.0289 -0.9070  1.7071
 4378TIP3   OH213094   4.960   5.414   2.235  0.1280 -0.6197 -0.1752
 4378TIP3    H113095   4.975   5.351   2.164 -0.9177  0.8900 -1.7720
 4378TIP3    H213096   4.903   5.368   2.296 -2.6158 -0.4307 -2.5159
 4379TIP3   OH213097   2.203   4.571   2.561 -0.2970 -0.8480  0.3872
 4379TIP3    H113098   2.190   4.622   2.481  0.2319 -1.8653 -0.3674
 4379TIP3    H213099   2.124   4.585   2.612  0.1630  1.3298  0.5532
 4380TIP3   OH213100   3.770   4.062   2.084 -0.2768 -0.7099  0.2269
 4380TIP3    H113101   3.818   3.980   2.078  0.8513 -0.3095  3.2828
 4380TIP3    H213102   3.678   4.037   2.077  0.1422 -2.0096 -0.7526
 4381TIP3   OH213103   2.410   5.940   4.948 -0.2645 -0.5354 -0.3034
 4381TIP3    H113104   2.460   6.008   4.902  0.6879 -1.3085 -0.4134
 4381TIP3    H213105   2.401   5.974   5.037 -0.1880 -0.0501 -0.4797
 4382TIP3   OH213106   4.033   4.569   3.477 -0.0289  0.2056 -0.2238
 4382TIP3    H113107   3.963   4.533   3.533 -0.5372 -0.5490 -1.3391
 4382TIP3    H213108   4.011   4.661   3.468 -0.9165 -0.0361 -0.5986
 4383TIP3   OH213109   2.460   5.309   2.402 -0.1527  0.1498  0.1210
 4383TIP3    H113110   2.547   5.318   2.363  0.0254  0.7956  0.6634
 4383TIP3    H213111   2.416   5.245   2.346  0.4462  0.3016 -0.5392
 4384TIP3   OH213112   6.222   5.737   1.702  0.4547 -0.1429  0.0925
 4384TIP3    H113113   6.164   5.795   1.653  0.7243  0.7289  0.8081
 4384TIP3    H213114   6.239   5.783   1.783  1.8257 -0.5888  0.0654
 4385TIP3   OH213115   4.430   6.838   3.115  0.4883 -0.4966  0.3477
 4385TIP3    H113116   4.499   6.819   3.179  0.3910  0.9806  0.9100
 4385TIP3    H213117   4.478   6.865   3.036  0.5776 -0.2999  0.4674
 4386TIP3   OH213118   2.594   6.629   3.393 -0.2519  0.4792 -0.6158
 4386TIP3    H113119   2.608   6.599   3.482  1.5252 -1.0081 -1.3739
 4386TIP3    H213120   2.620   6.721   3.394  0.7232  0.2015  0.1810
 4387TIP3   OH213121   4.116   0.148   3.192  0.5589 -0.1736  0.6731
 4387TIP3    H113122   4.137   0.154   3.286 -0.4433 -1.1409  0.9697
 4387TIP3    H213123   4.104   0.054   3.177 -0.9062  0.1248 -0.0680
 4388TIP3   OH213124   0.355   0.280   1.859  0.2964 -0.1070  0.5084
 4388TIP3    H113125   0.334   0.229   1.781  1.5667 -0.1799  0.2092
 4388TIP3    H213126   0.319   0.229   1.931  1.2920 -1.2898  0.1860
 4389TIP3   OH213127   3.901   6.633   2.158  0.3870  0.1276 -0.5790
 4389TIP3    H113128   3.894   6.579   2.237 -0.9943  0.5082 -0.4316
 4389TIP3    H213129   3.966   6.700   2.181 -1.1826  1.2077  0.8205
 4390TIP3   OH213130   3.826   4.307   1.963 -0.5193  0.4434 -0.0353
 4390TIP3    H113131   3.918   4.311   1.986 -0.7109  2.9108  0.5170
 4390TIP3    H213132   3.794   4.225   2.001  1.1894  0.0985  0.6696
 4391TIP3   OH213133   5.270   5.577   2.934  0.1065 -0.4340 -0.8481
 4391TIP3    H113134   5.319   5.495   2.926 -0.5186 -0.9860  0.6923
 4391TIP3    H213135   5.336   5.646   2.923  0.8401 -1.1475 -0.9830
 4392TIP3   OH213136   2.969   4.960   2.855 -0.0707 -1.1200  0.2453
 4392TIP3    H113137   2.873   4.958   2.849 -0.1784 -2.1957  2.0750
 4392TIP3    H213138   2.997   4.880   2.811 -0.0030 -0.7019 -0.4691
 4393TIP3   OH213139   1.802   2.498   6.200  0.2398 -0.0295 -0.2030
 4393TIP3    H113140   1.842   2.542   6.125 -0.6388 -0.3064 -0.8572
 4393TIP3    H213141   1.856   2.420   6.214  0.9494  0.5060  0.0423
 4394TIP3   OH213142   1.102   4.096   2.024 -0.0455  0.4872  0.1908
 4394TIP3    H113143   1.160   4.041   1.971 -1.4475  1.1332 -2.1281
 4394TIP3    H213144   1.154   4.174   2.043  0.6413  0.0387  0.1762
 4395TIP3   OH213145   6.673   1.187   0.639  0.7376 -0.3499  0.1361
 4395TIP3    H113146   6.637   1.099   0.642  0.6306 -0.3124 -0.0384
 4395TIP3    H213147   6.747   1.180   0.579  1.9944 -0.7814  1.7091
 4396TIP3   OH213148   2.618   3.709   3.184 -0.2484 -0.1534  0.9214
 4396TIP3    H113149   2.564   3.757   3.121  1.3185  1.0336  0.4348
 4396TIP3    H213150   2.632   3.771   3.256  2.2060  0.3605  0.0554
 4397TIP3   OH213151   1.307   6.832   4.374  0.1692  0.1537 -0.0226
 4397TIP3    H113152   1.360   6.854   4.298  1.5259  0.9291  1.1135
 4397TIP3    H213153   1.223   6.876   4.359  0.5397  0.5686 -0.9085
 4398TIP3   OH213154   1.201   6.970   1.851  0.3432  0.8571 -0.5387
 4398TIP3    H113155   1.157   6.967   1.766  0.1734 -1.4158 -0.3998
 4398TIP3    H213156   1.265   7.041   1.842  2.0290 -0.9282 -3.4496
 4399TIP3   OH213157   4.606   1.241   1.818  0.0543 -0.5002  0.5032
 4399TIP3    H113158   4.608   1.190   1.737  2.6589 -0.2888  0.3809
 4399TIP3    H213159   4.526   1.292   1.812 -1.6230 -3.1355 -0.2721
 4400TIP3   OH213160   6.432   0.824   3.684  0.1968  0.0230 -0.0662
 4400TIP3    H113161   6.456   0.825   3.591 -0.1348  4.0031 -0.2023
 4400TIP3    H213162   6.508   0.788   3.729  2.6626  3.3914 -1.3992
 4401TIP3   OH213163   2.408   3.820   2.005  0.6652 -0.2590  0.6899
 4401TIP3    H113164   2.412   3.777   2.090  1.0658  1.2576  1.4523
 4401TIP3    H213165   2.418   3.748   1.942 -0.5620 -1.5013  1.8854
 4402TIP3   OH213166   1.991   5.540   3.270 -0.0633 -0.7096  0.0285
 4402TIP3    H113167   1.962   5.614   3.216 -1.6068 -0.5984  0.9903
 4402TIP3    H213168   1.911   5.498   3.298  0.7575 -1.2526  1.5964
 4403TIP3   OH213169   2.988   5.653   2.237  0.3579 -0.3285 -0.2260
 4403TIP3    H113170   3.042   5.576   2.220  2.2585  0.6519  1.1399
 4403TIP3    H213171   2.988   5.701   2.154  0.1766 -1.1771 -0.7264
 4404TIP3   OH213172   0.134   0.180   2.554  0.1820 -0.0190 -0.3526
 4404TIP3    H113173   0.157   0.151   2.466  2.3641 -2.4135  0.9285
 4404TIP3    H213174   0.218   0.205   2.593 -0.7049  0.5771  1.1959
 4405TIP3   OH213175   4.034   7.103   0.413 -0.1749 -0.0700  0.1734
 4405TIP3    H113176   4.109   7.055   0.376  0.7669 -0.1693  2.1686
 4405TIP3    H213177   3.960   7.043   0.402  0.2578 -0.4598 -0.7064
 4406TIP3   OH213178   1.382   6.717   2.286 -0.2923  0.4292  0.5825
 4406TIP3    H113179   1.406   6.719   2.194  1.1920  1.8657  0.9715
 4406TIP3    H213180   1.296   6.759   2.290 -0.6244 -0.1713 -0.2062
 4407TIP3   OH213181   3.170   7.116   1.904  0.5124  0.5462  0.1451
 4407TIP3    H113182   3.135   7.116   1.993 -1.3619 -0.0901 -0.5665
 4407TIP3    H213183   3.093   7.120   1.848  1.5252 -1.8719 -1.5161
 4408TIP3   OH213184   1.299   6.165   2.701 -0.5306  0.4460 -0.1808
 4408TIP3    H113185   1.331   6.208   2.781 -0.1750 -0.0298 -0.0675
 4408TIP3    H213186   1.309   6.232   2.633  1.9002 -0.0706 -0.4012
 4409TIP3   OH213187   4.497   0.908   1.893  0.3665  0.3327 -0.3160
 4409TIP3    H113188   4.589   0.934   1.901  0.7572 -0.3134 -2.4755
 4409TIP3    H213189   4.467   0.949   1.812 -0.8653 -0.5694 -0.3378
 4410TIP3   OH213190   1.041   4.658   0.819 -0.2120  0.3972  0.5883
 4410TIP3    H113191   1.062   4.724   0.885  0.9179  0.3920  0.2468
 4410TIP3    H213192   0.958   4.621   0.848 -0.9329  2.0466  0.7200
 4411TIP3   OH213193   4.330   6.429   3.092 -0.2154  0.5616  0.3148
 4411TIP3    H113194   4.307   6.437   3.185  0.0892 -1.2314  0.5618
 4411TIP3    H213195   4.358   6.338   3.082  1.6460  1.2510 -1.1190
 4412TIP3   OH213196   5.342   6.175   1.619 -0.2831 -0.4385 -0.1677
 4412TIP3    H113197   5.387   6.103   1.662 -0.5011 -0.6673 -0.3173
 4412TIP3    H213198   5.307   6.228   1.691 -1.7042 -1.4895 -0.0540
 4413TIP3   OH213199   2.081   4.809   3.536  0.4973  0.0088  0.3994
 4413TIP3    H113200   2.004   4.862   3.514  0.0633 -1.0561 -0.6894
 4413TIP3    H213201   2.100   4.760   3.456  1.7488 -0.4317  0.9579
 4414TIP3   OH213202   4.049   4.240   3.082 -0.0151  0.4762  0.5548
 4414TIP3    H113203   4.091   4.242   3.168 -0.1792  2.8927  0.6168
 4414TIP3    H213204   3.956   4.230   3.102  0.0433  0.0385  0.6127
 4415TIP3   OH213205   4.067   4.873   3.268 -0.0422 -0.0193 -0.2187
 4415TIP3    H113206   4.106   4.912   3.191 -0.0686 -0.1846 -0.3180
 4415TIP3    H213207   4.128   4.892   3.339  0.4898 -0.7325 -0.4713
 4416TIP3   OH213208   5.641   3.511   4.406 -0.3347  0.4003 -0.1605
 4416TIP3    H113209   5.549   3.498   4.382 -0.3664  0.2299  0.0555
 4416TIP3    H213210   5.639   3.529   4.500 -0.4374  3.4009 -0.6879
 4417TIP3   OH213211   5.353   5.532   0.635  0.9271 -0.2859  0.1174
 4417TIP3    H113212   5.399   5.615   0.638  1.1447 -0.3861 -0.5092
 4417TIP3    H213213   5.309   5.531   0.551  0.0916 -0.3639  0.5501
 4418TIP3   OH213214   4.337   0.693   0.990 -0.2888  0.4535 -0.2433
 4418TIP3    H113215   4.419   0.717   1.033 -0.8271  2.3240 -0.2162
 4418TIP3    H213216   4.345   0.599   0.973  0.6641  0.0276  2.3413
 4419TIP3   OH213217   2.421   3.760   2.388 -0.0790  0.3809  0.3392
 4419TIP3    H113218   2.407   3.853   2.369 -0.3804  0.1078 -0.8080
 4419TIP3    H213219   2.459   3.759   2.476  0.6667  1.6346  0.0424
 4420TIP3   OH213220   2.574   3.449   2.544  0.8825  0.2763 -0.4792
 4420TIP3    H113221   2.620   3.494   2.473  0.5642  2.9434  0.9315
 4420TIP3    H213222   2.584   3.507   2.620 -0.7244 -1.3987  1.0792
 4421TIP3   OH213223   7.770   0.495   3.140 -0.0973 -0.2152  0.3216
 4421TIP3    H113224   7.720   0.576   3.132  0.9007  0.5561  1.7247
 4421TIP3    H213225   7.857   0.523   3.167  0.5082 -1.7013 -0.0359
 4422TIP3   OH213226   0.033   1.581   0.745 -0.5725  0.4545  0.2332
 4422TIP3    H113227  -0.030   1.515   0.775 -2.6345  2.2994  0.0477
 4422TIP3    H213228   0.031   1.574   0.649 -0.6905  0.6924  0.2186
 4423TIP3   OH213229   3.397   6.723   2.656  0.6091  0.0175  0.1924
 4423TIP3    H113230   3.367   6.801   2.703 -0.0072 -0.3813  0.4587
 4423TIP3    H213231   3.482   6.749   2.620 -0.1000  1.2142 -0.6891
 4424TIP3   OH213232   5.514   3.807   2.057  0.4316  0.0509  0.2657
 4424TIP3    H113233   5.427   3.774   2.079 -0.8760  2.0515 -1.7529
 4424TIP3    H213234   5.528   3.780   1.966  1.7337  0.1838  0.4086
 4425TIP3   OH213235   0.428   6.767   0.560  0.1065 -0.0350 -0.2695
 4425TIP3    H113236   0.413   6.676   0.536 -0.3730  0.3349 -1.4124
 4425TIP3    H213237   0.363   6.816   0.510  0.8978  1.0119 -0.2939
 4426TIP3   OH213238   4.248   6.435   3.344  0.1399  0.2382 -0.2004
 4426TIP3    H113239   4.269   6.457   3.435  1.0240 -0.6318 -0.1776
 4426TIP3    H213240   4.152   6.437   3.340  0.1186  1.0492  0.5495
 4427TIP3   OH213241   4.132   7.020   2.449 -0.3888  0.0813  0.2532
 4427TIP3    H113242   4.216   6.974   2.455 -1.5183 -2.5453 -2.5357
 4427TIP3    H213243   4.080   6.987   2.522 -0.3374 -1.3597 -0.3322
 4428TIP3   OH213244   6.232   5.278   0.352  0.0023 -0.1348 -0.2108
 4428TIP3    H113245   6.144   5.281   0.390 -0.1311 -0.1531 -0.5108
 4428TIP3    H213246   6.235   5.354   0.293 -0.1413 -0.6573 -0.8985
 4429TIP3   OH213247   5.416   5.344   2.855  0.0004  0.1010 -0.5457
 4429TIP3    H113248   5.474   5.409   2.896  0.1695  0.3378 -1.1687
 4429TIP3    H213249   5.435   5.349   2.762 -1.1523  0.3008 -0.7757
 4430TIP3   OH213250   7.060   4.487   2.540  0.0981 -0.4305 -0.0585
 4430TIP3    H113251   6.978   4.532   2.520  0.3135 -0.1634 -0.3313
 4430TIP3    H213252   7.056   4.406   2.489  1.1055  0.7219 -2.0074
 4431TIP3   OH213253   4.425   5.055   2.135  0.4089 -0.1777 -0.0857
 4431TIP3    H113254   4.345   5.039   2.185  0.6452  0.2577  0.4318
 4431TIP3    H213255   4.425   4.986   2.068 -0.3507 -0.2308 -0.0360
 4432TIP3   OH213256   4.955   5.013   3.769  0.1644 -0.1931 -0.0297
 4432TIP3    H113257   4.981   5.010   3.861 -0.1997  1.1622  0.1379
 4432TIP3    H213258   4.871   4.969   3.767  0.1252 -0.1399  0.3033
 4433TIP3   OH213259   6.267   0.308   0.128 -0.5310 -0.1923  0.2047
 4433TIP3    H113260   6.248   0.327   0.036 -2.5136  0.2747  0.6811
 4433TIP3    H213261   6.185   0.274   0.163 -0.2336  0.9812  2.1419
 4434TIP3   OH213262   2.923   5.675   0.911 -0.0082 -0.7512 -0.1030
 4434TIP3    H113263   2.936   5.722   0.993  0.4438 -3.1975  1.2685
 4434TIP3    H213264   2.875   5.596   0.936 -0.0305 -1.4435 -2.2349
 4435TIP3   OH213265   4.870   6.909   1.047 -0.0472 -0.0332 -0.3569
 4435TIP3    H113266   4.914   6.977   0.996 -1.4589  0.5254 -0.8660
 4435TIP3    H213267   4.894   6.929   1.138 -3.3689  3.4840 -0.0989
 4436TIP3   OH213268   5.896   5.880   3.465  0.2120  0.2079  0.2062
 4436TIP3    H113269   5.828   5.830   3.420  1.7551 -0.9055 -0.9256
 4436TIP3    H213270   5.878   5.971   3.442 -1.9967  0.1233  1.4423
 4437TIP3   OH213271   6.141   6.003   1.960  0.1953  0.1607 -0.7121
 4437TIP3    H113272   6.205   6.032   1.896  0.1762  0.2407 -0.6963
 4437TIP3    H213273   6.057   6.013   1.915  0.0304  1.9423 -0.0624
 4438TIP3   OH213274   5.413   4.682   0.403 -0.1889  0.0751  0.0407
 4438TIP3    H113275   5.337   4.675   0.462 -0.3105 -1.3166 -0.2624
 4438TIP3    H213276   5.396   4.617   0.335  1.4786 -0.5332  0.1922
 4439TIP3   OH213277   6.067   4.859   2.031  0.2354 -0.5809 -0.0800
 4439TIP3    H113278   6.107   4.772   2.026 -2.2284 -2.0231  3.2422
 4439TIP3    H213279   6.133   4.913   2.076  0.5694 -1.5481  0.6159
 4440TIP3   OH213280   4.943   6.108   3.032  0.0584  0.1936 -0.0283
 4440TIP3    H113281   4.887   6.076   3.103 -0.0239  1.3959  0.4653
 4440TIP3    H213282   5.027   6.064   3.045 -0.3430 -0.5480  0.0623
 4441TIP3   OH213283   3.743   3.891   0.920 -0.5515  0.1450 -0.2303
 4441TIP3    H113284   3.793   3.841   0.856  0.1314 -0.2936  0.6300
 4441TIP3    H213285   3.724   3.829   0.990 -3.9956 -0.2354 -1.4002
 4442TIP3   OH213286   5.097   3.746   2.535 -0.1024  0.0669 -0.1491
 4442TIP3    H113287   5.002   3.742   2.549  0.0481 -0.2102  0.8415
 4442TIP3    H213288   5.133   3.753   2.623  0.7828  0.4849 -0.5491
 4443TIP3   OH213289   5.791   4.409   1.466 -0.2390  0.1632  0.2238
 4443TIP3    H113290   5.803   4.383   1.558 -0.5029 -1.2640 -0.1421
 4443TIP3    H213291   5.825   4.498   1.463 -0.3353  0.2741  1.7427
 4444TIP3   OH213292   7.271   6.566   3.064 -0.5798  0.3693  0.9880
 4444TIP3    H113293   7.349   6.614   3.035 -0.7458  0.3416  0.4786
 4444TIP3    H213294   7.217   6.559   2.985 -0.6048 -0.5669  1.0827
 4445TIP3   OH213295   4.830   3.926   2.452 -0.2364  0.9968 -0.8568
 4445TIP3    H113296   4.780   3.929   2.371 -0.1337 -1.8953 -1.0655
 4445TIP3    H213297   4.914   3.888   2.427 -0.6308 -1.0392  0.7679
 4446TIP3   OH213298   4.240   4.690   1.577 -0.1089 -0.8480  0.1385
 4446TIP3    H113299   4.215   4.616   1.523 -0.8882 -1.1586  0.9129
 4446TIP3    H213300   4.176   4.758   1.556  0.4507 -0.4858 -0.3849
 4447TIP3   OH213301   7.547   4.870   0.052 -0.1557 -0.1291 -0.3187
 4447TIP3    H113302   7.576   4.780   0.039 -0.6181 -0.3099 -0.1166
 4447TIP3    H213303   7.456   4.862   0.081 -0.5582  0.4521 -1.4075
 4448TIP3   OH213304   4.857   4.544   1.705 -0.3318 -0.0649  0.1660
 4448TIP3    H113305   4.905   4.464   1.724  0.4798  0.0369 -1.4441
 4448TIP3    H213306   4.840   4.583   1.792  0.9630 -0.9714  0.8299
 4449TIP3   OH213307   5.079   6.416   0.095 -0.2501 -0.3696  0.3611
 4449TIP3    H113308   5.150   6.365   0.132  0.9316  0.5715 -0.5754
 4449TIP3    H213309   5.004   6.356   0.094  0.7646 -1.6512  0.5080
 4450TIP3   OH213310   5.513   7.227   3.098  0.3794  0.3508 -0.2675
 4450TIP3    H113311   5.577   7.281   3.143  0.6487  0.1484 -0.4025
 4450TIP3    H213312   5.566   7.159   3.055  0.1861  0.8640 -1.3484
 4451TIP3   OH213313   7.571   5.618   3.174 -0.1000  0.0276  0.2312
 4451TIP3    H113314   7.509   5.575   3.115  1.7263 -2.2850 -0.0636
 4451TIP3    H213315   7.601   5.694   3.125 -1.3314  0.1592 -0.3526
 4452TIP3   OH213316   5.393   5.946   2.585  0.0488  0.0067 -0.3237
 4452TIP3    H113317   5.475   5.992   2.599 -0.2824  0.4741  0.0929
 4452TIP3    H213318   5.380   5.948   2.490  1.6623 -2.0869 -0.6201
 4453TIP3   OH213319   6.581   5.911   3.521 -0.4674 -0.0140  0.3428
 4453TIP3    H113320   6.566   5.859   3.441  0.1128  0.4337 -0.0661
 4453TIP3    H213321   6.496   5.913   3.564 -1.0023  0.4624 -0.7083
 4454TIP3   OH213322   3.486   4.712   5.443  0.2500 -0.2356 -0.2591
 4454TIP3    H113323   3.546   4.684   5.373  0.7738  0.0536  0.0700
 4454TIP3    H213324   3.446   4.792   5.409  0.4803 -0.1130 -0.2428
 4455TIP3   OH213325   1.183   0.373   1.668  0.4510 -0.8558 -0.5310
 4455TIP3    H113326   1.116   0.365   1.737 -0.3575 -0.0571 -1.2199
 4455TIP3    H213327   1.235   0.449   1.695  0.0287 -0.4382 -0.8887
 4456TIP3   OH213328   5.267   6.652   2.347 -0.0167  0.0446 -0.1065
 4456TIP3    H113329   5.213   6.621   2.419 -0.2633  1.5829  0.3735
 4456TIP3    H213330   5.356   6.627   2.372 -0.1216  0.4167  0.6393
 4457TIP3   OH213331   6.749   5.597   0.469 -1.0924 -0.5713 -0.9403
 4457TIP3    H113332   6.793   5.613   0.385  3.3833  2.2953  1.7166
 4457TIP3    H213333   6.818   5.567   0.527 -3.3802  0.5714  2.5643
 4458TIP3   OH213334   5.438   5.984   3.547  1.1442  0.7044 -0.3944
 4458TIP3    H113335   5.379   6.060   3.550 -0.4182 -0.4677 -0.2504
 4458TIP3    H213336   5.431   5.952   3.457 -1.4013 -1.6379  0.5494
 4459TIP3   OH213337   5.607   5.940   0.915 -0.4677  0.1705  0.4471
 4459TIP3    H113338   5.634   6.026   0.946  0.3990  0.6019 -1.4428
 4459TIP3    H213339   5.511   5.946   0.911 -0.4091  1.0906  0.2132
 4460TIP3   OH213340   5.971   7.220   0.393  0.0242  0.1607  0.3675
 4460TIP3    H113341   5.928   7.230   0.478 -0.2698  0.1067  0.2287
 4460TIP3    H213342   5.968   7.126   0.376 -0.5111  0.2361  0.0013
 4461TIP3   OH213343   6.930   5.535   3.379  0.5525 -0.2288 -0.5451
 4461TIP3    H113344   7.010   5.555   3.330  0.4162  2.2230  0.1789
 4461TIP3    H213345   6.961   5.483   3.454  1.7321  2.1508  0.6531
 4462TIP3   OH213346   7.502   0.865   2.334 -0.1886  0.2508 -0.2797
 4462TIP3    H113347   7.467   0.948   2.366 -1.0302 -0.7461  1.4791
 4462TIP3    H213348   7.536   0.822   2.413 -0.3596 -1.3533 -1.0780
 4463TIP3   OH213349   5.827   6.813   1.443  0.4848 -0.0642  0.2885
 4463TIP3    H113350   5.850   6.783   1.355  0.3328  0.7705 -0.0454
 4463TIP3    H213351   5.782   6.739   1.483 -0.4734 -0.0613 -0.7486
 4464TIP3   OH213352   5.004   5.127   2.439  0.2288  0.5119  0.2756
 4464TIP3    H113353   4.982   5.080   2.519  0.2019  0.8008  0.4419
 4464TIP3    H213354   4.923   5.173   2.416  0.8685  2.2630  1.3631
 4465TIP3   OH213355   1.322   0.322   0.884  0.4517  0.6184 -0.0482
 4465TIP3    H113356   1.402   0.312   0.832  0.3666 -0.6610  0.0509
 4465TIP3    H213357   1.353   0.324   0.974  0.3751  0.2102 -0.0143
 4466TIP3   OH213358   4.518   5.492   1.421  0.1864 -0.6600 -0.0986
 4466TIP3    H113359   4.479   5.431   1.357 -2.2496 -1.9918  2.5279
 4466TIP3    H213360   4.466   5.572   1.412 -1.1328 -1.3565  1.2175
 4467TIP3   OH213361   4.008   6.929   1.659 -0.1150  0.3365 -0.6865
 4467TIP3    H113362   3.958   7.009   1.645  2.0457  1.7858 -0.3123
 4467TIP3    H213363   3.982   6.899   1.746 -1.5304  0.1514 -1.1549
 4468TIP3   OH213364   4.583   6.517   3.602  0.3925  0.4518 -0.3738
 4468TIP3    H113365   4.524   6.580   3.562 -2.0229 -0.7824  1.1274
 4468TIP3    H213366   4.587   6.445   3.540  0.3112  0.5419 -0.4826
 4469TIP3   OH213367   6.187   1.059   1.857 -0.0056 -0.1412 -0.1715
 4469TIP3    H113368   6.164   1.144   1.818  0.6801  0.2355  0.2453
 4469TIP3    H213369   6.161   0.995   1.790 -0.1895  0.4118 -0.6402
 4470TIP3   OH213370   3.441   6.980   2.827  0.2850  0.3079  0.4834
 4470TIP3    H113371   3.522   6.961   2.874  0.5859  2.0387  0.7018
 4470TIP3    H213372   3.433   7.075   2.830 -1.6899  0.1720  0.3404
 4471TIP3   OH213373   2.725   3.266   5.792  0.3883 -0.2212 -0.9296
 4471TIP3    H113374   2.633   3.283   5.812  0.7208  0.0104  0.4278
 4471TIP3    H213375   2.754   3.345   5.747  0.6280  0.8197  1.0206
 4472TIP3   OH213376   4.062   5.168   1.693  0.0603 -0.1008 -0.1331
 4472TIP3    H113377   4.139   5.176   1.637  0.3677 -1.4254  0.0710
 4472TIP3    H213378   4.096   5.171   1.782  0.1162 -2.3407 -0.0308
 4473TIP3   OH213379   5.460   4.572   1.135 -0.4661 -0.1884 -0.2649
 4473TIP3    H113380   5.482   4.648   1.189 -1.4702  1.4781 -2.1366
 4473TIP3    H213381   5.368   4.585   1.113 -0.5233 -1.7340 -1.0001
 4474TIP3   OH213382   5.822   5.648   2.861 -0.1289 -0.0918  0.4323
 4474TIP3    H113383   5.829   5.719   2.797  0.6557 -1.0126 -0.5254
 4474TIP3    H213384   5.912   5.626   2.883 -0.4048  0.7108  2.4424
 4475TIP3   OH213385   1.100   0.398   4.200 -0.3698 -0.1364 -0.0654
 4475TIP3    H113386   1.164   0.430   4.264 -0.6612 -0.9224  0.6423
 4475TIP3    H213387   1.089   0.470   4.138  1.2131  0.0028 -0.2064
 4476TIP3   OH213388   1.171   1.063   2.962 -0.4199  0.3408 -0.4289
 4476TIP3    H113389   1.249   1.111   2.933  0.6133 -0.7912  0.4282
 4476TIP3    H213390   1.206   0.989   3.012 -2.0776  1.1256  1.9860
 4477TIP3   OH213391   3.780   7.074   1.309 -0.1136  0.0150  0.5572
 4477TIP3    H113392   3.721   7.123   1.366  0.0202 -0.4085  1.0646
 4477TIP3    H213393   3.740   7.080   1.222  0.1044  1.3455  0.5322
 4478TIP3   OH213394   5.983   1.255   2.708  0.3297  0.2521 -0.2062
 4478TIP3    H113395   5.960   1.303   2.787 -1.4611  3.2363 -2.4051
 4478TIP3    H213396   5.902   1.210   2.683  1.2038 -1.6058  0.2684
 4479TIP3   OH213397   0.130   0.434   1.211 -0.0219 -0.4023  0.1824
 4479TIP3    H113398   0.168   0.499   1.270 -1.1344  0.3114  0.1249
 4479TIP3    H213399   0.205   0.394   1.168  0.5943  2.3467 -1.3726
 4480TIP3   OH213400   0.795   1.485   2.821 -0.4246 -0.2762 -0.2885
 4480TIP3    H113401   0.712   1.476   2.867  0.1601 -0.2460  0.7985
 4480TIP3    H213402   0.775   1.461   2.731 -1.1894 -2.1770  0.3592
 4481TIP3   OH213403   3.349   6.647   2.404 -0.1253  0.4305 -0.2483
 4481TIP3    H113404   3.434   6.655   2.360 -0.3773 -1.2028 -1.0491
 4481TIP3    H213405   3.364   6.683   2.491  1.1250  1.0620 -0.7029
 4482TIP3   OH213406   4.905   5.162   1.348 -0.3536  0.1835  0.5035
 4482TIP3    H113407   4.870   5.085   1.391  2.2648 -0.1312  2.1533
 4482TIP3    H213408   4.922   5.224   1.419  0.1643  1.2065 -0.4964
 4483TIP3   OH213409   5.075   4.575   3.193  0.3521  0.1482  0.0145
 4483TIP3    H113410   5.124   4.501   3.158  2.5424  0.3112  2.5592
 4483TIP3    H213411   5.018   4.537   3.261 -1.7260  0.2355 -1.6193
 4484TIP3   OH213412   6.714   6.398   0.461 -0.0068 -0.0164  0.2605
 4484TIP3    H113413   6.741   6.307   0.474 -0.2432 -0.2337 -0.7063
 4484TIP3    H213414   6.779   6.449   0.509  1.0459 -0.6300 -0.4897
 4485TIP3   OH213415   4.682   6.034   1.505 -0.3802  0.2160 -0.1180
 4485TIP3    H113416   4.630   6.097   1.556 -1.0873 -0.0923 -0.4631
 4485TIP3    H213417   4.618   5.970   1.473 -0.0246  0.7433 -1.9122
 4486TIP3   OH213418   5.300   4.858   1.861 -0.0682  0.3064 -0.2999
 4486TIP3    H113419   5.340   4.878   1.946  1.2839  0.1336 -0.8761
 4486TIP3    H213420   5.351   4.908   1.798 -0.9045  0.2318 -1.0449
 4487TIP3   OH213421   6.295   6.555   3.429 -0.1217 -0.0080  0.0080
 4487TIP3    H113422   6.325   6.623   3.488 -0.6802  0.3763 -0.1416
 4487TIP3    H213423   6.217   6.518   3.472  0.6628 -1.1222  0.4870
 4488TIP3   OH213424   5.605   4.723   1.825  0.1213  0.6348 -0.1698
 4488TIP3    H113425   5.512   4.704   1.813  0.3955 -0.0350 -1.3052
 4488TIP3    H213426   5.647   4.638   1.830  0.7121  0.9369  0.0900
 4489TIP3   OH213427   6.254   6.264   0.904 -0.1408 -0.1085 -0.6856
 4489TIP3    H113428   6.278   6.269   0.997  1.2827 -3.1967 -0.8438
 4489TIP3    H213429   6.164   6.233   0.904  0.1563 -0.9737 -0.3555
 4490TIP3   OH213430   3.553   4.562   2.058 -0.0605  0.1953  0.0223
 4490TIP3    H113431   3.583   4.626   2.123  0.5320  1.1603 -1.1750
 4490TIP3    H213432   3.626   4.555   1.997 -0.9124 -0.1337 -0.9657
 4491TIP3   OH213433   5.718   3.932   1.618 -0.5588  0.1380 -0.6038
 4491TIP3    H113434   5.811   3.934   1.641 -0.1498 -2.0394 -1.8893
 4491TIP3    H213435   5.717   3.951   1.524 -1.3414 -0.7415 -0.7728
 4492TIP3   OH213436   7.149   6.177   1.069  0.0243 -0.4714  0.2768
 4492TIP3    H113437   7.139   6.175   1.164  0.1079 -0.8143  0.2773
 4492TIP3    H213438   7.178   6.267   1.050  0.7158 -0.6133  0.6480
 4493TIP3   OH213439   6.558   5.083   1.860 -0.4672  0.2281 -0.3999
 4493TIP3    H113440   6.619   5.021   1.823 -0.8771 -0.1396 -0.4682
 4493TIP3    H213441   6.525   5.040   1.939 -0.6368  0.4250 -0.3614
 4494TIP3   OH213442   4.659   5.472   3.593  0.6709  0.4667 -0.1010
 4494TIP3    H113443   4.675   5.516   3.509  0.9768 -1.1370 -0.9023
 4494TIP3    H213444   4.746   5.466   3.633  0.7295  0.0051 -0.2935
 4495TIP3   OH213445   5.381   4.621   1.720  0.0073  0.0192 -0.0043
 4495TIP3    H113446   5.327   4.543   1.702 -0.1860  0.4006 -1.1340
 4495TIP3    H213447   5.324   4.678   1.771  0.0855 -0.5033  0.6733
 4496TIP3   OH213448   6.048   4.752   1.304  0.5490  0.0076  0.1907
 4496TIP3    H113449   5.978   4.735   1.241  2.6518 -0.6330 -2.0590
 4496TIP3    H213450   6.096   4.826   1.268  1.5494 -0.1110  1.2389
 4497TIP3   OH213451   4.747   4.120   1.809 -0.3366 -0.5838  0.2692
 4497TIP3    H113452   4.772   4.182   1.741  0.7658 -0.3526  0.8870
 4497TIP3    H213453   4.671   4.161   1.852  0.6262  0.5258  0.9307
 4498TIP3   OH213454   6.350   6.150   3.688 -0.6878 -0.4014 -0.3324
 4498TIP3    H113455   6.346   6.173   3.596  3.7517  0.2494 -0.4538
 4498TIP3    H213456   6.334   6.056   3.690  1.0456 -0.7692 -2.0233
 4499TIP3   OH213457   6.613   4.936   5.447 -0.2783 -0.4911  0.0058
 4499TIP3    H113458   6.617   4.946   5.352 -2.1173 -0.2795 -0.0799
 4499TIP3    H213459   6.520   4.946   5.468  0.1018 -0.5446  1.8276
 4500TIP3   OH213460   1.844   5.986   1.193 -0.1246  0.1870 -0.2099
 4500TIP3    H113461   1.765   5.932   1.182  0.8680 -1.5602  1.0900
 4500TIP3    H213462   1.854   6.030   1.108 -2.2156  0.0554 -0.5594
 4501TIP3   OH213463   5.417   7.098   1.512 -0.4650 -1.0097 -0.2771
 4501TIP3    H113464   5.476   7.147   1.454 -0.0093 -1.3814 -0.1363
 4501TIP3    H213465   5.475   7.037   1.558 -0.5249  0.5268  1.9244
 4502TIP3   OH213466   5.882   5.485   2.527  0.1110  0.4197  0.1126
 4502TIP3    H113467   5.877   5.486   2.431  0.7076 -2.2817 -0.0014
 4502TIP3    H213468   5.960   5.431   2.545 -0.3555  0.3980  2.1140
 4503TIP3   OH213469   3.805   5.900   1.417 -0.0284  0.4463  0.5876
 4503TIP3    H113470   3.813   5.823   1.473  0.7255  0.3387  0.3374
 4503TIP3    H213471   3.874   5.889   1.351 -1.7055 -0.0543 -1.1252
 4504TIP3   OH213472   4.071   5.989   2.035  0.5976 -0.7634  0.4807
 4504TIP3    H113473   4.148   6.016   1.985 -0.0617  0.0063 -0.1460
 4504TIP3    H213474   4.091   6.014   2.126  0.3315  1.1650  0.0332
 4505TIP3   OH213475   5.124   6.581   2.630  0.0538 -0.5104 -0.0431
 4505TIP3    H113476   5.198   6.604   2.686  0.1270  0.1013 -0.3818
 4505TIP3    H213477   5.051   6.634   2.662  0.0772 -0.2086 -0.4737
 4506TIP3   OH213478   5.284   5.623   1.722 -0.1140  0.2457  0.3910
 4506TIP3    H113479   5.375   5.612   1.748 -0.2559 -1.4344  0.2295
 4506TIP3    H213480   5.236   5.628   1.805 -0.0775 -0.6396  0.4613
 4507TIP3   OH213481   1.462   4.238   0.832 -0.5833 -0.4214 -0.1360
 4507TIP3    H113482   1.411   4.318   0.844 -1.9148 -1.0013 -1.7216
 4507TIP3    H213483   1.404   4.180   0.782  0.5540 -2.1779  0.5193
 4508TIP3   OH213484   5.727   6.610   0.622  0.3931 -0.8624 -0.0831
 4508TIP3    H113485   5.690   6.528   0.654  1.4231 -1.0697  0.6033
 4508TIP3    H213486   5.804   6.583   0.572  1.1609 -0.2801  0.7716
 4509TIP3   OH213487   4.066   7.257   0.044  0.1536 -0.5219  0.6175
 4509TIP3    H113488   3.981   7.231   0.079 -0.2822  0.7106  0.5184
 4509TIP3    H213489   4.090   7.334   0.096  0.1996  0.4130 -0.7760
 4510TIP3   OH213490   4.961   6.084   1.650  0.2665  0.9335 -0.4369
 4510TIP3    H113491   4.977   6.035   1.732 -0.7339 -0.1195 -0.8593
 4510TIP3    H213492   4.961   6.175   1.677  0.5432  0.6258  0.6525
 4511TIP3   OH213493   4.551   6.477   2.858 -0.1032  0.2958 -0.6560
 4511TIP3    H113494   4.635   6.431   2.860 -0.6487 -0.7545 -1.2586
 4511TIP3    H213495   4.504   6.445   2.935 -0.5842 -0.3651 -1.2165
 4512TIP3   OH213496   7.148   1.702   0.419  0.5527  0.0224 -0.0643
 4512TIP3    H113497   7.220   1.705   0.357 -0.3845  2.1188 -1.1115
 4512TIP3    H213498   7.080   1.651   0.375  0.4214  0.2864 -0.1694
 4513TIP3   OH213499   3.607   7.028   3.114 -0.0555 -0.0188 -0.2089
 4513TIP3    H113500   3.626   7.121   3.131  0.1750 -0.3054  1.2377
 4513TIP3    H213501   3.530   7.010   3.168 -0.4513 -0.5232 -0.9476
 4514TIP3   OH213502   0.610   4.874   2.848 -0.5638  0.4882  0.0997
 4514TIP3    H113503   0.623   4.965   2.873  0.4180  0.2901  0.3065
 4514TIP3    H213504   0.577   4.832   2.928 -1.4514  0.7528 -0.1214
 4515TIP3   OH213505   5.327   4.804   1.455 -0.0074  0.0353  0.1516
 4515TIP3    H113506   5.232   4.807   1.453 -0.0015  0.9033  0.7647
 4515TIP3    H213507   5.348   4.752   1.533  0.0208 -1.6562 -0.9514
 4516TIP3   OH213508   3.600   6.446   1.594  0.2959  0.2327 -0.2840
 4516TIP3    H113509   3.658   6.454   1.670  1.3419  0.4879 -1.0997
 4516TIP3    H213510   3.516   6.481   1.625  0.2755 -1.0858  1.2137
 4517TIP3   OH213511   0.209   5.857   3.332  0.4907 -0.1926 -0.4340
 4517TIP3    H113512   0.296   5.819   3.320  1.5617  2.2413 -0.7977
 4517TIP3    H213513   0.202   5.922   3.262 -1.3625  0.0968 -0.0047
 4518TIP3   OH213514   6.584   5.214   2.583  0.8768 -0.6671 -0.3413
 4518TIP3    H113515   6.677   5.232   2.569  0.8263 -0.2104 -0.0991
 4518TIP3    H213516   6.556   5.170   2.503  1.0661  0.1089 -0.8488
 4519TIP3   OH213517   0.306   0.590   2.122 -0.0211  0.1999  0.3140
 4519TIP3    H113518   0.291   0.585   2.217 -0.3199  1.2562  0.3344
 4519TIP3    H213519   0.222   0.616   2.086  0.2467  0.3706 -0.1847
 4520TIP3   OH213520   2.935   6.359   1.464 -0.4689 -0.2027  0.2695
 4520TIP3    H113521   3.018   6.324   1.496 -1.2631 -1.5681  0.9065
 4520TIP3    H213522   2.869   6.315   1.518 -1.6216  0.5509 -0.5197
 4521TIP3   OH213523   6.800   5.906   2.110 -0.1675 -0.2497  0.2575
 4521TIP3    H113524   6.755   5.824   2.132  0.5520 -0.6861  0.1406
 4521TIP3    H213525   6.806   5.953   2.194 -0.2476 -0.4927  0.3991
 4522TIP3   OH213526   2.803   6.610   1.099  0.4936 -0.2040  0.5062
 4522TIP3    H113527   2.795   6.632   1.006  3.2409 -2.1089 -0.2650
 4522TIP3    H213528   2.774   6.689   1.145  0.4289  1.2870 -1.9770
 4523TIP3   OH213529   6.647   0.148   1.922 -0.0554  0.1001 -0.0084
 4523TIP3    H113530   6.663   0.119   2.012 -1.0798  1.0311  0.4891
 4523TIP3    H213531   6.663   0.242   1.924  1.0123 -0.0506 -1.0748
 4524TIP3   OH213532   6.568   5.298   1.489  0.4079  0.3128 -0.0491
 4524TIP3    H113533   6.601   5.345   1.565 -1.2138  1.3993 -0.0018
 4524TIP3    H213534   6.491   5.252   1.520  0.9459 -0.9537 -0.5389
 4525TIP3   OH213535   6.124   5.734   3.476 -0.7472  0.3434  0.2502
 4525TIP3    H113536   6.044   5.786   3.481 -1.0140 -0.0832  0.5211
 4525TIP3    H213537   6.123   5.698   3.387  0.6813  2.7353 -0.7769
 4526TIP3   OH213538   5.975   6.124   1.348  0.4820  0.5261  0.2450
 4526TIP3    H113539   5.885   6.146   1.372  0.6142  0.9028  0.4031
 4526TIP3    H213540   5.967   6.082   1.262  0.2697  1.6840 -0.3134
 4527TIP3   OH213541   0.024   0.787   1.644  0.5208  0.3014 -0.6679
 4527TIP3    H113542   0.116   0.813   1.635  0.6946  0.0048  0.2321
 4527TIP3    H213543  -0.017   0.860   1.691  0.8924 -0.7764  1.3745
 4528TIP3   OH213544   5.528   6.624   1.168 -0.1627 -0.1862 -0.4141
 4528TIP3    H113545   5.533   6.706   1.219 -2.4590 -0.6830  0.6857
 4528TIP3    H213546   5.522   6.653   1.077  2.6353  0.7520 -0.3416
 4529TIP3   OH213547   6.594   4.778   2.470 -0.1620 -0.1980  0.2100
 4529TIP3    H113548   6.612   4.835   2.545 -0.0803 -1.7029  1.3758
 4529TIP3    H213549   6.651   4.702   2.484 -0.6497 -0.8111 -1.0252
 4530TIP3   OH213550   2.603   5.461   1.634 -0.2637  0.0401  0.0251
 4530TIP3    H113551   2.576   5.550   1.616 -1.3444 -0.2100  0.3721
 4530TIP3    H213552   2.542   5.406   1.584  0.2040 -0.5090  0.0479
 4531TIP3   OH213553   2.578   5.082   1.609 -0.3706 -0.0465 -0.0419
 4531TIP3    H113554   2.583   4.987   1.604  1.4298 -0.0699  1.5446
 4531TIP3    H213555   2.669   5.111   1.603 -0.9649  1.6438 -1.3865
 4532TIP3   OH213556   6.799   6.301   4.504  0.0522  0.1643  0.0308
 4532TIP3    H113557   6.706   6.310   4.526  0.0578 -1.6503  0.9194
 4532TIP3    H213558   6.844   6.358   4.566 -0.4337  0.6583 -0.0660
 4533TIP3   OH213559   6.133   4.586   2.003 -0.2497 -0.2323  0.0637
 4533TIP3    H113560   6.109   4.568   1.913 -1.2153 -0.1833  0.3134
 4533TIP3    H213561   6.063   4.548   2.056  0.6352 -0.8397  0.8293
 4534TIP3   OH213562   2.437   3.253   5.693  0.4486 -0.2920  0.1384
 4534TIP3    H113563   2.348   3.258   5.660  0.2158 -1.4666  0.5725
 4534TIP3    H213564   2.460   3.344   5.714  0.1404  0.3048 -1.9732
 4535TIP3   OH213565   6.139   6.214   2.521  0.0589  0.1284 -0.1228
 4535TIP3    H113566   6.136   6.240   2.428  0.2754  0.8969  0.0784
 4535TIP3    H213567   6.194   6.281   2.562  0.2931 -0.4399  0.4907
 4536TIP3   OH213568   6.682   0.773   3.077 -0.0652  0.1500  0.3974
 4536TIP3    H113569   6.776   0.782   3.089  0.1076  1.7059 -1.8550
 4536TIP3    H213570   6.646   0.856   3.109 -0.9424 -1.3516  3.4958
 4537TIP3   OH213571   6.020   7.018   1.824 -0.2547 -0.0748  0.5887
 4537TIP3    H113572   5.926   7.032   1.812 -0.3197 -1.1285 -0.2078
 4537TIP3    H213573   6.050   6.987   1.739  0.9014  0.6576  0.7257
 4538TIP3   OH213574   5.323   0.932   0.623  0.4115  0.5995 -0.1922
 4538TIP3    H113575   5.341   0.873   0.696  2.5312  0.3419 -0.8808
 4538TIP3    H213576   5.343   0.880   0.545  0.6866  1.6826 -0.8580
 4539TIP3   OH213577   3.907   7.053   2.839  0.1668 -0.0053 -0.0669
 4539TIP3    H113578   3.858   7.113   2.783 -0.3365 -0.3276  0.0263
 4539TIP3    H213579   3.970   7.011   2.779  0.3008  0.3689 -0.1942
 4540TIP3   OH213580   7.261   5.238   3.390  0.4745  0.3697  0.1638
 4540TIP3    H113581   7.255   5.172   3.458  1.4525 -0.2634 -0.3468
 4540TIP3    H213582   7.172   5.272   3.381  0.3571  0.5021  1.7851
 4541TIP3   OH213583   6.675   7.084   3.963 -0.1368  0.6846 -0.2669
 4541TIP3    H113584   6.625   7.098   3.883 -0.4948 -1.0597 -0.3677
 4541TIP3    H213585   6.763   7.063   3.934 -0.5091 -0.9602 -0.2608
 4542TIP3   OH213586   7.542   0.030   2.374 -0.8270 -0.7257 -0.4440
 4542TIP3    H113587   7.609  -0.022   2.330 -0.4406 -0.8528  0.2915
 4542TIP3    H213588   7.523   0.100   2.312  0.5974 -0.1995 -0.3073
 4543TIP3   OH213589   5.099   5.936   2.148 -0.6890 -0.0045  0.0146
 4543TIP3    H113590   5.056   6.001   2.204  0.3690 -0.1302  0.9789
 4543TIP3    H213591   5.136   5.872   2.209  0.0509 -0.4048 -0.8473
 4544TIP3   OH213592   5.146   4.042   2.275 -0.0304  0.3723 -0.2037
 4544TIP3    H113593   5.218   4.027   2.336 -1.2980 -0.7491  1.0563
 4544TIP3    H213594   5.105   3.956   2.265 -1.1976  0.9920 -0.8895
 4545TIP3   OH213595   4.318   4.360   2.152  0.3367 -0.4119  0.3880
 4545TIP3    H113596   4.384   4.418   2.113  0.3800 -0.6267  0.1395
 4545TIP3    H213597   4.309   4.391   2.242  0.6869 -0.2996  0.3854
 4546TIP3   OH213598   3.882   7.182   3.555 -0.3888  0.4166 -0.1346
 4546TIP3    H113599   3.850   7.249   3.495 -0.8898 -1.1130 -1.6223
 4546TIP3    H213600   3.932   7.122   3.499  0.4281 -0.2080  1.2439
 4547TIP3   OH213601   6.877   5.628   2.638  0.7804 -0.1566  0.0295
 4547TIP3    H113602   6.838   5.709   2.670  0.7127 -0.6950  1.3463
 4547TIP3    H213603   6.811   5.561   2.657  1.2173 -0.6579 -0.2216
 4548TIP3   OH213604   6.868   7.162   1.724 -0.1020  0.7280 -0.6046
 4548TIP3    H113605   6.920   7.160   1.644  1.2428  0.9452  0.2448
 4548TIP3    H213606   6.780   7.135   1.697  0.7373 -0.8273 -1.8360
 4549TIP3   OH213607   2.923   7.253   0.522  0.2945  0.0258 -0.0833
 4549TIP3    H113608   2.844   7.290   0.561  0.5954  0.8722 -0.2666
 4549TIP3    H213609   2.976   7.227   0.597  0.7764  1.4501  0.0732
 4550TIP3   OH213610   5.090   6.634   0.414  0.8387 -0.6603  0.0256
 4550TIP3    H113611   5.066   6.693   0.485  1.8624  0.6919 -0.7178
 4550TIP3    H213612   5.042   6.553   0.432 -0.8591  0.5087  0.8670
 4551TIP3   OH213613   6.291   6.424   4.535 -0.4165  0.5484  0.4918
 4551TIP3    H113614   6.292   6.486   4.608  2.2867  0.1827  0.8220
 4551TIP3    H213615   6.298   6.479   4.457 -1.5495  0.8310  0.5737
 4552TIP3   OH213616   6.130   7.187   2.984 -0.1361 -0.0428  0.1057
 4552TIP3    H113617   6.194   7.247   2.945 -0.5542 -0.0823 -0.6385
 4552TIP3    H213618   6.169   7.164   3.068  0.0717  1.2049  0.3647
 4553TIP3   OH213619   5.114   0.415   3.800 -0.3119  0.2851  0.4227
 4553TIP3    H113620   5.155   0.349   3.744  1.4343  1.9387 -0.3313
 4553TIP3    H213621   5.070   0.474   3.740 -0.0762  0.9835  0.9275
 4554TIP3   OH213622   6.085   5.693   2.923  0.1035  0.1826  0.2630
 4554TIP3    H113623   6.104   5.760   2.857  0.1927 -0.4286 -0.3290
 4554TIP3    H213624   6.154   5.628   2.912  1.0947  0.8837  2.0689
 4555TIP3   OH213625   3.733   2.189   6.146  0.2410  0.0856 -0.1555
 4555TIP3    H113626   3.784   2.147   6.077  0.2001  1.3170 -0.9523
 4555TIP3    H213627   3.642   2.171   6.121  0.2437 -1.2855  0.7448
 4556TIP3   OH213628   3.074   5.835   1.123  0.3183 -0.2810  0.0633
 4556TIP3    H113629   3.126   5.905   1.163 -0.1586  0.5467 -0.7402
 4556TIP3    H213630   3.099   5.756   1.172 -1.5761  0.9649  3.2083
 4557TIP3   OH213631   1.114   5.029   3.594 -0.3225  0.2058  0.5165
 4557TIP3    H113632   1.117   4.939   3.628  1.8725 -0.8204 -2.1461
 4557TIP3    H213633   1.053   5.025   3.521  0.6791  0.5682 -0.3558
 4558TIP3   OH213634   4.903   6.940   2.192 -0.1574  0.1763  0.0161
 4558TIP3    H113635   4.900   7.035   2.194  2.1570  0.3410 -1.9533
 4558TIP3    H213636   4.994   6.918   2.211 -1.1138 -1.7726  2.6497
 4559TIP3   OH213637   5.178   5.361   2.531  0.7641  0.0640  0.3476
 4559TIP3    H113638   5.165   5.451   2.563 -0.6502  0.4842 -1.3387
 4559TIP3    H213639   5.113   5.351   2.462  0.5380 -2.4621  0.8819
 4560TIP3   OH213640   6.135   6.126   2.782 -0.2542  0.8276  0.1519
 4560TIP3    H113641   6.041   6.122   2.801 -0.4199 -0.5936 -0.8783
 4560TIP3    H213642   6.139   6.139   2.687  0.5883 -0.0450  0.0630
 4561TIP3   OH213643   5.753   4.796   2.936  0.3773  0.1925 -0.4490
 4561TIP3    H113644   5.688   4.765   2.874  0.3192  0.7109 -0.6542
 4561TIP3    H213645   5.704   4.812   3.017  0.6082 -1.3312  0.0150
 4562TIP3   OH213646   6.082   5.445   4.901  0.4303 -0.1433  0.0365
 4562TIP3    H113647   6.074   5.540   4.910  4.4034  0.2372  0.4485
 4562TIP3    H213648   6.084   5.431   4.806 -1.8998 -0.0514 -0.0598
 4563TIP3   OH213649   4.350   6.909   1.110  0.1047  0.3590 -0.2369
 4563TIP3    H113650   4.421   6.934   1.050 -0.3805 -0.0912 -0.9975
 4563TIP3    H213651   4.278   6.969   1.089 -0.9275 -1.3898 -1.8009
 4564TIP3   OH213652   6.273   5.770   2.029  0.4279 -0.1131  0.1729
 4564TIP3    H113653   6.234   5.856   2.013  0.7396 -0.1982 -1.1650
 4564TIP3    H213654   6.364   5.788   2.051  0.1589 -0.0262  1.2122
 4565TIP3   OH213655   4.889   3.948   4.410 -0.3118  0.0289  0.4136
 4565TIP3    H113656   4.880   4.006   4.485 -0.5441  2.0863 -1.1487
 4565TIP3    H213657   4.957   3.989   4.356 -1.6000 -0.2728 -1.4908
 4566TIP3   OH213658   4.202   6.037   1.123 -0.1549 -0.2465 -0.1439
 4566TIP3    H113659   4.227   6.009   1.211 -1.8340 -1.5824 -0.0669
 4566TIP3    H213660   4.199   6.133   1.129 -1.9342 -0.3822  1.7398
 4567TIP3   OH213661   6.993   4.787   4.245  0.0649 -0.3125  0.2348
 4567TIP3    H113662   6.946   4.725   4.301 -0.9440 -0.6088 -0.8982
 4567TIP3    H213663   7.015   4.737   4.167 -0.5711  0.6711 -0.6040
 4568TIP3   OH213664   4.128   4.575   1.799  0.7910 -0.2299 -0.3304
 4568TIP3    H113665   4.198   4.598   1.738 -0.5274  1.9033 -1.1249
 4568TIP3    H213666   4.104   4.658   1.840 -0.1527 -1.2046  1.1565
 4569TIP3   OH213667   6.247   5.745   2.326 -0.1609 -0.0045 -0.4611
 4569TIP3    H113668   6.246   5.820   2.385  0.2688 -0.1966 -0.2130
 4569TIP3    H213669   6.333   5.704   2.339 -0.0474 -0.0261 -1.2390
 4570TIP3   OH213670   5.853   4.294   3.182 -0.5199 -0.2307 -0.1738
 4570TIP3    H113671   5.852   4.355   3.108 -1.0742 -0.3978 -0.3063
 4570TIP3    H213672   5.841   4.207   3.142 -2.4841 -0.1712  0.2471
 4571TIP3   OH213673   5.237   5.961   1.446 -0.2599  0.1413  0.2482
 4571TIP3    H113674   5.177   6.000   1.382  2.1622  0.0759 -2.1221
 4571TIP3    H213675   5.273   6.035   1.493 -1.5513  0.2301  1.1363
 4572TIP3   OH213676   7.063   0.213   2.876 -0.7080  0.3448  0.0119
 4572TIP3    H113677   7.048   0.243   2.966 -0.6611  1.4710 -0.3498
 4572TIP3    H213678   7.090   0.122   2.885  1.4072  1.0580  1.2865
 4573TIP3   OH213679   5.093   5.872   3.337  0.5796  0.1836  0.3411
 4573TIP3    H113680   5.095   5.849   3.244  1.6497 -1.8979  0.8425
 4573TIP3    H213681   5.005   5.907   3.351 -0.5213 -1.9842 -0.9152
 4574TIP3   OH213682   1.311   1.650   3.006 -0.2307 -0.5806  0.0511
 4574TIP3    H113683   1.261   1.726   2.976  0.6810  0.8531  2.0420
 4574TIP3    H213684   1.337   1.672   3.096  0.6658 -2.9419  0.4103
 4575TIP3   OH213685   7.243   7.054   2.229  0.0251 -0.3564 -0.4385
 4575TIP3    H113686   7.209   7.094   2.309  0.1031  1.4324 -1.2760
 4575TIP3    H213687   7.165   7.023   2.183  0.0157 -1.8133  0.5362
 4576TIP3   OH213688   2.277   0.126   3.897  0.1082 -0.4640 -0.1812
 4576TIP3    H113689   2.332   0.053   3.869  1.1711  0.7785 -1.4939
 4576TIP3    H213690   2.192   0.110   3.857  0.8999 -0.0058 -2.1251
 4577TIP3   OH213691   3.980   2.386   5.513  0.2597  0.2060  0.2008
 4577TIP3    H113692   3.983   2.454   5.446  0.7827 -0.6717 -0.6943
 4577TIP3    H213693   4.071   2.373   5.539  0.5030 -1.9663 -1.5585
 4578TIP3   OH213694   3.580   6.823   0.817  0.6395  0.3589 -0.3309
 4578TIP3    H113695   3.555   6.736   0.847  1.3858  0.3334  0.2377
 4578TIP3    H213696   3.540   6.883   0.880  1.3151  0.3572  0.1017
 4579TIP3   OH213697   4.202   5.143   1.139  0.3030 -0.1345  0.2032
 4579TIP3    H113698   4.109   5.123   1.128  0.5241 -1.5146  0.8281
 4579TIP3    H213699   4.240   5.065   1.178  1.8412  0.2122 -0.5324
 4580TIP3   OH213700   4.525   4.227   1.898 -0.5065 -0.3212 -0.5551
 4580TIP3    H113701   4.495   4.308   1.940 -2.6192 -0.7628 -1.1969
 4580TIP3    H213702   4.496   4.157   1.956 -0.1426 -0.7306 -0.8565
 4581TIP3   OH213703   3.777   3.520   5.847 -0.3362  0.0115 -0.1088
 4581TIP3    H113704   3.803   3.528   5.755  1.8488 -1.9291  0.2927
 4581TIP3    H213705   3.777   3.426   5.863 -0.1433  0.3646  2.0320
 4582TIP3   OH213706   7.737  -0.028   2.604  0.5731  0.0810 -0.0193
 4582TIP3    H113707   7.679  -0.003   2.532 -0.4005 -1.4267  0.1980
 4582TIP3    H213708   7.806   0.037   2.604  0.5792  0.1113 -2.3245
 4583TIP3   OH213709   7.153   5.837   1.428  0.2491 -0.1722  0.1414
 4583TIP3    H113710   7.123   5.923   1.398 -0.0202  0.0223  0.9530
 4583TIP3    H213711   7.163   5.847   1.522  2.9570 -0.2264 -0.1162
 4584TIP3   OH213712   6.394   6.857   0.870  0.3529  0.1679  0.3494
 4584TIP3    H113713   6.443   6.885   0.792 -0.6433 -0.5142 -0.5467
 4584TIP3    H213714   6.315   6.815   0.834 -0.8165  1.1207  1.7519
 4585TIP3   OH213715   4.276   6.881   0.578  0.3732 -0.3446 -0.1549
 4585TIP3    H113716   4.300   6.961   0.625 -0.2319  0.6429 -1.4776
 4585TIP3    H213717   4.329   6.884   0.498  0.4911 -1.3746 -0.1179
 4586TIP3   OH213718   4.434   5.567   0.700  0.6953  0.3404 -0.1828
 4586TIP3    H113719   4.422   5.585   0.607  1.6114  0.1651 -0.3349
 4586TIP3    H213720   4.364   5.504   0.721  0.0901  0.8621 -0.5923
 4587TIP3   OH213721   3.987   1.390   1.821 -0.3914 -0.8821 -0.0372
 4587TIP3    H113722   3.905   1.344   1.806 -1.6664  2.0335 -2.8184
 4587TIP3    H213723   4.045   1.360   1.750 -0.1890 -0.5113 -0.0327
 4588TIP3   OH213724   5.863   6.104   2.796 -0.4297 -0.9232 -0.4910
 4588TIP3    H113725   5.837   6.156   2.872  1.6228  1.1602 -1.1400
 4588TIP3    H213726   5.782   6.091   2.747 -1.4074 -0.4935  0.9706
 4589TIP3   OH213727   3.620   4.955   3.287 -0.2986 -0.6079 -0.4062
 4589TIP3    H113728   3.636   4.885   3.350 -0.6214 -1.0796 -0.8350
 4589TIP3    H213729   3.605   4.909   3.204 -0.3952 -0.0236 -0.7160
 4590TIP3   OH213730   7.187   5.214   3.680 -0.0786  0.1586  0.1695
 4590TIP3    H113731   7.244   5.292   3.679 -0.2644  0.3021  0.4701
 4590TIP3    H213732   7.187   5.187   3.772  0.9045 -0.8825 -0.1364
 4591TIP3   OH213733   3.668   5.119  -0.035 -0.5528 -0.5514 -0.5192
 4591TIP3    H113734   3.718   5.060   0.021 -0.0238 -0.0053 -0.4052
 4591TIP3    H213735   3.590   5.141   0.015  0.6701  1.1771  0.6623
 4592TIP3   OH213736   3.591   5.188   2.875  0.0328 -0.5400 -0.6042
 4592TIP3    H113737   3.644   5.111   2.894  0.8351 -0.4051 -2.1535
 4592TIP3    H213738   3.501   5.161   2.894  0.4832 -1.2904  0.4969
 4593TIP3   OH213739   5.932   4.637   1.527 -0.2192  0.1782 -0.2487
 4593TIP3    H113740   5.862   4.699   1.551 -1.4302 -0.8547 -1.0210
 4593TIP3    H213741   5.974   4.678   1.452 -0.0818  0.7500  0.1375
 4594TIP3   OH213742   7.685   1.809   3.890 -0.5272 -0.1854 -0.3030
 4594TIP3    H113743   7.716   1.779   3.975 -2.7374  2.2476  1.4230
 4594TIP3    H213744   7.625   1.740   3.861 -2.4086  0.5532  1.7238
 4595TIP3   OH213745   3.976   5.123   0.298 -0.2515 -0.0786 -0.4215
 4595TIP3    H113746   3.936   5.210   0.301 -0.6364 -0.2806  0.3642
 4595TIP3    H213747   4.030   5.119   0.377 -0.4130 -0.6343 -0.3344
 4596TIP3   OH213748   3.318   3.388   1.882  0.5169  0.2491 -0.3150
 4596TIP3    H113749   3.260   3.402   1.808 -0.6847 -0.3537  0.4858
 4596TIP3    H213750   3.263   3.404   1.959  1.0929 -1.4370  0.4783
 4597TIP3   OH213751   6.966   0.233   1.142 -0.0681 -0.2022 -0.2951
 4597TIP3    H113752   7.041   0.239   1.083  1.0089  0.2983  1.1047
 4597TIP3    H213753   6.915   0.158   1.109  0.4841  0.0963 -1.8656
 4598TIP3   OH213754   2.357   4.016   2.350  0.2140  0.2730  0.2900
 4598TIP3    H113755   2.301   4.031   2.273  0.3176 -0.4187  0.0784
 4598TIP3    H213756   2.425   4.084   2.343  0.0078  0.4513 -0.0247
 4599TIP3   OH213757   4.278   6.124   2.242  0.1472 -0.2421 -0.0381
 4599TIP3    H113758   4.316   6.071   2.172 -0.6947  0.5708 -1.1200
 4599TIP3    H213759   4.341   6.195   2.255  1.0931 -1.2747  1.1570
 4600TIP3   OH213760   5.261   6.164   3.784  0.5349 -0.7559 -0.2933
 4600TIP3    H113761   5.179   6.214   3.780  0.5320 -0.7329  0.0529
 4600TIP3    H213762   5.236   6.079   3.820  0.5988 -0.8833 -0.5498
 4601TIP3   OH213763   5.471   5.819   5.215  0.0984  0.1772 -0.3373
 4601TIP3    H113764   5.497   5.905   5.182  0.0475  0.2308 -0.2416
 4601TIP3    H213765   5.434   5.774   5.139  1.1388 -0.1746 -0.6420
 4602TIP3   OH213766   6.054   7.151   2.113 -0.0496  0.2913 -0.2759
 4602TIP3    H113767   6.032   7.176   2.023 -0.6245  0.0637 -0.1997
 4602TIP3    H213768   6.045   7.232   2.163 -0.2260  0.3099 -0.3360
 4603TIP3   OH213769   5.978   6.914   0.381 -0.3829  0.4371 -0.1794
 4603TIP3    H113770   5.995   6.837   0.327 -0.3058  0.1883  0.1918
 4603TIP3    H213771   6.059   6.927   0.431  0.1397  1.6633 -1.3287
 4604TIP3   OH213772   6.136   0.872   3.553  0.8548  0.3498 -0.2886
 4604TIP3    H113773   6.190   0.949   3.573 -0.5905  1.3212 -0.0578
 4604TIP3    H213774   6.168   0.805   3.613  0.9257  1.3140  0.7757
 4605TIP3   OH213775   0.726   0.997   1.559 -0.7330  0.0765 -0.0864
 4605TIP3    H113776   0.727   0.916   1.611 -0.1682  0.3305  0.3013
 4605TIP3    H213777   0.661   0.980   1.491 -0.1166 -0.9700 -0.4332
 4606TIP3   OH213778   7.633   0.253   0.665 -0.2550 -0.3761 -0.1155
 4606TIP3    H113779   7.678   0.181   0.621  0.3800 -1.3711  2.0785
 4606TIP3    H213780   7.679   0.331   0.636  0.4693 -1.0401 -0.8016
 4607TIP3   OH213781   4.871   0.384   0.859 -0.3745 -0.3514  0.7611
 4607TIP3    H113782   4.786   0.403   0.897  0.3696  0.8998  1.8285
 4607TIP3    H213783   4.858   0.394   0.764 -1.5891 -0.9259  0.8663
 4608TIP3   OH213784   1.782   4.958   5.787  0.1971 -0.0784  0.8033
 4608TIP3    H113785   1.864   5.008   5.786 -0.7849  1.5883  1.6883
 4608TIP3    H213786   1.756   4.951   5.695 -1.8841  4.8512  0.8500
 4609TIP3   OH213787   4.605   6.867   1.778  0.4402  0.1656 -0.4901
 4609TIP3    H113788   4.515   6.894   1.758  1.0070  2.0752 -0.6431
 4609TIP3    H213789   4.641   6.942   1.827  2.2441 -0.1620 -1.2952
 4610TIP3   OH213790   6.077   5.311   2.901 -0.3229  0.2209  0.0204
 4610TIP3    H113791   6.148   5.374   2.910  0.2648 -0.4404  0.0802
 4610TIP3    H213792   6.117   5.237   2.855 -0.7132 -0.5643  0.9349
 4611TIP3   OH213793   4.895   5.996   0.720 -0.3819  0.1770 -0.4692
 4611TIP3    H113794   4.974   5.962   0.761 -0.3444  1.2665  0.4126
 4611TIP3    H213795   4.824   5.945   0.759 -0.1677 -0.2762 -0.6768
 4612TIP3   OH213796   6.398   5.717   0.556 -0.0230 -0.1026 -0.0445
 4612TIP3    H113797   6.308   5.749   0.559  0.0833  0.0455  1.5962
 4612TIP3    H213798   6.402   5.648   0.621  0.8542 -0.6523 -0.6651
 4613TIP3   OH213799   4.471   4.443   1.415 -0.0027 -0.1110 -0.0717
 4613TIP3    H113800   4.554   4.412   1.379  0.2586  1.2582 -0.6548
 4613TIP3    H213801   4.471   4.410   1.505  0.6830 -1.0193 -0.3957
 4614TIP3   OH213802   4.363   4.782   2.997  0.5198  0.5088 -0.0982
 4614TIP3    H113803   4.276   4.810   3.024  0.9013  0.3977  1.2538
 4614TIP3    H213804   4.419   4.857   3.016  1.0371 -0.0899  0.7904
 4615TIP3   OH213805   6.706   3.727   2.326  0.7815  0.0438 -0.0688
 4615TIP3    H113806   6.656   3.778   2.263  1.0086  0.0177 -0.2703
 4615TIP3    H213807   6.662   3.642   2.330  0.3256  0.2952  0.3617
 4616TIP3   OH213808   4.189   5.437   0.397  1.1209  0.2827 -0.4667
 4616TIP3    H113809   4.094   5.431   0.401  1.0673  1.0483 -0.4290
 4616TIP3    H213810   4.221   5.366   0.453  0.5517  0.7003  0.4065
 4617TIP3   OH213811   6.202   3.005   1.274  0.2553  0.2697  0.2477
 4617TIP3    H113812   6.233   3.049   1.195  0.7836  0.1644  0.3966
 4617TIP3    H213813   6.272   3.017   1.338  0.1046 -0.1923  0.5045
 4618TIP3   OH213814   2.304   4.911   6.377 -0.1997 -0.4378 -0.1960
 4618TIP3    H113815   2.291   4.919   6.282 -0.8238 -1.1214 -0.1675
 4618TIP3    H213816   2.290   4.999   6.410  1.4319  0.1195 -0.9045
 4619TIP3   OH213817   4.806   5.785   2.890 -0.3781 -0.2487 -0.0422
 4619TIP3    H113818   4.882   5.837   2.865 -1.4811  1.2088 -0.4381
 4619TIP3    H213819   4.780   5.740   2.810 -0.1713 -0.4424 -0.0006
 4620TIP3   OH213820   4.585   4.366   2.546  0.3210 -0.1503 -0.0473
 4620TIP3    H113821   4.568   4.404   2.632 -0.3610  0.2462 -0.3528
 4620TIP3    H213822   4.669   4.322   2.555  0.9937  1.2125  0.3806
 4621TIP3   OH213823   6.179   4.604   4.435  0.2467 -0.0082 -0.5478
 4621TIP3    H113824   6.187   4.552   4.515  0.2835  2.3746  1.0400
 4621TIP3    H213825   6.108   4.665   4.453  0.3649  0.6739 -2.2785
 4622TIP3   OH213826   5.597   4.657   3.859 -0.1976  0.3028  0.1812
 4622TIP3    H113827   5.652   4.579   3.848  1.4917  1.6702 -1.2360
 4622TIP3    H213828   5.635   4.703   3.933 -0.5927  0.2715  0.4014
 4623TIP3   OH213829   3.808   7.169   2.237 -0.3747 -0.1830  0.0585
 4623TIP3    H113830   3.716   7.173   2.262  0.0618  1.6957  1.4616
 4623TIP3    H213831   3.856   7.162   2.320  0.8364  0.9817 -0.5223
 4624TIP3   OH213832   5.801   6.043   1.137 -0.1678 -0.2340 -0.0513
 4624TIP3    H113833   5.725   6.012   1.186  1.0241 -2.0816  0.7244
 4624TIP3    H213834   5.811   5.979   1.066  1.1219 -0.5055  0.3520
 4625TIP3   OH213835   6.836   6.684   2.112 -0.1801 -0.2297 -0.4422
 4625TIP3    H113836   6.770   6.642   2.057  0.2355  0.0232 -1.1351
 4625TIP3    H213837   6.788   6.752   2.160 -0.2285  0.6361 -1.6994
 4626TIP3   OH213838   1.578   0.831   5.187 -0.5606  0.1478 -0.1086
 4626TIP3    H113839   1.648   0.861   5.129 -0.5453 -0.7418 -0.5448
 4626TIP3    H213840   1.497   0.850   5.140 -0.5416 -0.7681 -0.5206
 4627TIP3   OH213841   4.013   4.111   5.492 -0.0886  0.6766 -0.2623
 4627TIP3    H113842   3.938   4.054   5.509 -0.4601  1.2718  0.1280
 4627TIP3    H213843   3.982   4.172   5.425 -0.2023  1.3927  0.4351
 4628TIP3   OH213844   5.346   6.970   0.952 -0.7753 -0.1698  0.0761
 4628TIP3    H113845   5.410   7.041   0.955 -0.9036  0.0972 -2.4936
 4628TIP3    H213846   5.390   6.897   0.996  0.9921  0.2629 -0.9043
 4629TIP3   OH213847   4.869   6.621   3.780 -0.1246 -0.4764  0.5114
 4629TIP3    H113848   4.870   6.607   3.874  1.3053 -0.0406  0.5767
 4629TIP3    H213849   4.807   6.557   3.746  1.4176 -2.4971  1.4577
 4630TIP3   OH213850   1.897   0.244   0.159  0.3177  0.1273 -0.0388
 4630TIP3    H113851   1.975   0.292   0.190  0.6020  0.1233 -0.7355
 4630TIP3    H213852   1.911   0.235   0.065 -0.0942 -0.6843 -0.0242
 4631TIP3   OH213853   5.319   6.445   1.840  0.5270  0.8376 -0.2887
 4631TIP3    H113854   5.248   6.485   1.789 -1.0099 -1.3517  0.1067
 4631TIP3    H213855   5.296   6.462   1.931  0.6674  0.3775 -0.1667
 4632TIP3   OH213856   6.990   5.612   0.668  0.7113 -0.3566 -0.8568
 4632TIP3    H113857   6.983   5.702   0.697 -1.5661 -0.1826 -1.7979
 4632TIP3    H213858   6.955   5.560   0.740  2.1780 -0.4971 -0.2487
 4633TIP3   OH213859   2.418   4.338   0.437  0.0064  0.1260 -0.2017
 4633TIP3    H113860   2.353   4.308   0.501 -0.1806  0.0634 -0.4217
 4633TIP3    H213861   2.497   4.353   0.489 -0.0681 -0.1826  0.0035
 4634TIP3   OH213862   6.417   0.290   1.023 -0.3355  0.1776 -0.2417
 4634TIP3    H113863   6.506   0.276   0.991 -0.2330  1.0326 -0.3459
 4634TIP3    H213864   6.415   0.249   1.109  0.4850  1.1438  0.2343
 4635TIP3   OH213865   0.485   4.938   0.865 -0.4714  0.1350 -0.0828
 4635TIP3    H113866   0.539   4.965   0.790 -3.0360 -0.5379 -2.2652
 4635TIP3    H213867   0.476   4.843   0.855  0.7075 -0.2345  2.1751
 4636TIP3   OH213868   6.820   5.145   1.495  0.0065 -0.2583  0.3434
 4636TIP3    H113869   6.828   5.209   1.424 -0.1702 -0.5177  0.0883
 4636TIP3    H213870   6.740   5.097   1.475 -1.5893  1.5535  2.2770
 4637TIP3   OH213871   1.705   0.355   2.955  0.3090  0.5215  0.2878
 4637TIP3    H113872   1.703   0.322   3.045  0.6770  0.6496  0.3466
 4637TIP3    H213873   1.679   0.447   2.964 -2.0756 -0.0931 -0.0449
 4638TIP3   OH213874   1.219   0.843   2.251 -0.1935  0.0530  0.4764
 4638TIP3    H113875   1.214   0.817   2.159  1.4364 -0.3428  0.4821
 4638TIP3    H213876   1.138   0.892   2.267  0.7431  2.4926 -1.8834
 4639TIP3   OH213877   6.710   4.373   3.470 -0.1032 -0.7376  0.0220
 4639TIP3    H113878   6.764   4.295   3.478 -0.5451 -1.0485  0.0066
 4639TIP3    H213879   6.733   4.410   3.385  1.2543  0.0244  0.7078
 4640TIP3   OH213880   5.223   1.839   5.582 -0.3831 -0.2365 -0.1071
 4640TIP3    H113881   5.267   1.806   5.503 -3.6894 -1.5957 -1.4469
 4640TIP3    H213882   5.189   1.761   5.625  1.0810  0.5305  2.5490
 4641TIP3   OH213883   5.754   6.496   1.083  0.0661  0.1809  0.7467
 4641TIP3    H113884   5.713   6.418   1.047  1.2457 -0.1795  0.1551
 4641TIP3    H213885   5.685   6.539   1.133 -0.3086 -1.8094  1.9944
 4642TIP3   OH213886   0.950   0.158   1.998 -0.1338  0.5677 -0.1492
 4642TIP3    H113887   0.950   0.235   1.941  1.9479  0.4217 -0.3840
 4642TIP3    H213888   0.964   0.084   1.939 -0.0813  0.2169  0.2985
 4643TIP3   OH213889   7.242   5.910   1.110 -0.1284  0.0555 -0.3287
 4643TIP3    H113890   7.196   5.846   1.055  0.7438  0.9718 -2.1772
 4643TIP3    H213891   7.182   5.984   1.114 -0.0281  0.1396 -0.3808
 4644TIP3   OH213892   5.631   6.212   0.655 -0.1259 -0.3495 -0.1181
 4644TIP3    H113893   5.718   6.171   0.656  0.7259  1.4263  1.0614
 4644TIP3    H213894   5.616   6.234   0.563  0.4459 -1.1513 -0.4054
 4645TIP3   OH213895   5.573   5.806   4.233  0.1519 -0.1560 -0.1127
 4645TIP3    H113896   5.499   5.744   4.234  0.1053 -0.1011 -0.2004
 4645TIP3    H213897   5.582   5.831   4.141  1.0906 -1.1367 -0.3036
 4646TIP3   OH213898   2.706   2.248   4.228  0.1841 -0.8311  0.2005
 4646TIP3    H113899   2.636   2.312   4.218 -0.6206 -1.5987  0.8874
 4646TIP3    H213900   2.704   2.197   4.147 -0.0553 -0.8517  0.2198
 4647TIP3   OH213901   7.531   6.614   2.746  0.0621 -0.1293  0.1368
 4647TIP3    H113902   7.584   6.691   2.769  0.2681 -0.6200  1.3814
 4647TIP3    H213903   7.548   6.552   2.817  0.1184 -1.4429 -1.0081
 4648TIP3   OH213904   5.648   5.664   1.109  0.5815 -0.2144 -0.2333
 4648TIP3    H113905   5.730   5.652   1.158  0.2888 -0.5953  0.1607
 4648TIP3    H213906   5.677   5.681   1.019  1.0660 -1.6088 -0.3544
 4649TIP3   OH213907   5.573   6.582   0.314  0.1819 -0.4905 -0.6925
 4649TIP3    H113908   5.583   6.625   0.399  1.9573 -0.3320 -0.9525
 4649TIP3    H213909   5.636   6.626   0.257 -0.5494 -1.0072 -1.9346
 4650TIP3   OH213910   6.208   7.016   2.702  0.2096  0.0445 -0.4284
 4650TIP3    H113911   6.130   7.072   2.700 -0.0270 -0.2276  0.9081
 4650TIP3    H213912   6.281   7.076   2.685 -0.3076  0.2394 -2.0696
 4651TIP3   OH213913   4.642   6.388   0.245 -0.2977 -0.1988 -0.5985
 4651TIP3    H113914   4.644   6.336   0.164 -0.5031 -0.6020 -0.3426
 4651TIP3    H213915   4.638   6.324   0.315  0.1177  0.1498 -0.2525
 4652TIP3   OH213916   5.131   6.461   1.050  0.2133  0.6994  0.2166
 4652TIP3    H113917   5.188   6.446   1.125 -0.5146 -1.8468  0.2959
 4652TIP3    H213918   5.145   6.386   0.993 -2.4717  0.4064 -0.1230
 4653TIP3   OH213919   6.691   5.313   1.058 -0.1123  0.2296  0.1661
 4653TIP3    H113920   6.671   5.351   1.143  0.0636  1.1824 -0.2099
 4653TIP3    H213921   6.648   5.228   1.059  2.5712 -1.1533  2.4264
 4654TIP3   OH213922   0.929   5.109   3.181  0.4800  0.0212 -0.3275
 4654TIP3    H113923   0.835   5.118   3.195  0.4124  0.5562 -1.0916
 4654TIP3    H213924   0.951   5.022   3.215 -0.6344 -0.9085 -1.9615
 4655TIP3   OH213925   4.948   6.127   1.347 -0.0314 -0.2264  0.1193
 4655TIP3    H113926   4.949   6.117   1.251 -1.0758 -0.0637  0.0888
 4655TIP3    H213927   4.957   6.221   1.361  0.8998 -0.3238  0.2042
 4656TIP3   OH213928   1.609   0.503   0.884  0.4404  0.3917  0.0490
 4656TIP3    H113929   1.585   0.478   0.794 -1.0825  1.4761  0.1351
 4656TIP3    H213930   1.629   0.596   0.879 -0.4445  0.6445  0.9771
 4657TIP3   OH213931   7.179   6.524   1.741 -0.2002  0.0920  0.1215
 4657TIP3    H113932   7.111   6.459   1.723 -0.0845  0.8637 -3.6106
 4657TIP3    H213933   7.144   6.576   1.813 -3.1745 -0.1108 -1.0923
 4658TIP3   OH213934   6.133   6.965   2.312  0.2182 -0.1124  0.3077
 4658TIP3    H113935   6.121   7.032   2.244  1.2285  1.4129  1.5910
 4658TIP3    H213936   6.222   6.934   2.299 -0.0234 -0.7449  0.1423
 4659TIP3   OH213937   2.118   0.234   1.584 -0.1274  0.0974  0.6380
 4659TIP3    H113938   2.142   0.176   1.656  3.2038  0.2137 -0.2756
 4659TIP3    H213939   2.118   0.322   1.623  1.8865  0.1847  0.4964
 4660TIP3   OH213940   0.821   0.060   1.363 -0.3359  0.3581 -0.3325
 4660TIP3    H113941   0.757  -0.011   1.364  1.1181 -0.9613  0.9590
 4660TIP3    H213942   0.847   0.067   1.271 -0.6621 -0.6011 -0.5023
 4661TIP3   OH213943   7.488   7.280   2.265  0.1780 -0.6325  0.5261
 4661TIP3    H113944   7.397   7.251   2.259 -0.7470  2.2989 -0.6767
 4661TIP3    H213945   7.525   7.262   2.178 -1.0782  3.5976 -1.0397
 4662TIP3   OH213946   0.357   6.833   2.355  0.5083 -0.3505  0.3739
 4662TIP3    H113947   0.372   6.740   2.374 -0.8289 -0.6611 -0.0269
 4662TIP3    H213948   0.313   6.867   2.433  0.0846 -0.2911  0.1091
 4663TIP3   OH213949   6.915   5.721   2.379 -0.5197  0.5016 -0.7017
 4663TIP3    H113950   6.862   5.743   2.456  1.4172 -0.7209  1.0572
 4663TIP3    H213951   6.985   5.787   2.379  0.3193 -0.3701 -0.5226
 4664TIP3   OH213952   6.113   4.444   4.244 -0.3248 -0.3858  0.7994
 4664TIP3    H113953   6.153   4.367   4.285  2.1129  0.9468  1.0345
 4664TIP3    H213954   6.138   4.517   4.301 -0.5469  0.9065 -0.7273
 4665TIP3   OH213955   6.441   7.115   0.637 -0.2721 -0.1503  0.1100
 4665TIP3    H113956   6.347   7.097   0.633  0.3890 -3.7766 -0.3506
 4665TIP3    H213957   6.460   7.121   0.731 -0.7988 -0.4794  0.2394
 4666TIP3   OH213958   6.832   5.506   1.445  0.6048 -0.1075 -0.2714
 4666TIP3    H113959   6.844   5.438   1.380 -1.1848 -0.8656  0.1722
 4666TIP3    H213960   6.920   5.544   1.457  1.3368 -1.3832 -1.5266
 4667TIP3   OH213961   6.011   5.888   1.550 -0.5394  0.1860  0.3763
 4667TIP3    H113962   5.984   5.950   1.618  1.2282  1.4376 -0.0310
 4667TIP3    H213963   6.022   5.942   1.471  1.8664 -0.4689  0.2322
 4668TIP3   OH213964   4.617   4.914   0.200  0.0967  0.1025 -0.5780
 4668TIP3    H113965   4.676   4.881   0.132 -1.1807 -0.8629 -1.2467
 4668TIP3    H213966   4.560   4.840   0.221 -2.4758  1.6635 -1.7403
 4669TIP3   OH213967   7.008   7.061   0.817  0.0262  0.6338  0.5944
 4669TIP3    H113968   6.919   7.092   0.831 -0.4510 -0.3469 -0.1644
 4669TIP3    H213969   7.048   7.127   0.762 -0.2821  1.0001  0.8072
 4670TIP3   OH213970   2.886   2.696   5.642  0.0758  0.8924 -0.0846
 4670TIP3    H113971   2.926   2.779   5.617  1.1997  0.4444  0.2211
 4670TIP3    H213972   2.854   2.659   5.560  0.9343  0.9150 -0.4311
 4671TIP3   OH213973   5.407   4.890   2.108 -0.2204  0.1364 -0.5529
 4671TIP3    H113974   5.365   4.805   2.120  2.0837 -1.2729 -2.0529
 4671TIP3    H213975   5.470   4.896   2.179  0.4246  0.0829 -1.1240
 4672TIP3   OH213976   3.959   4.928   6.033  0.4240 -0.0025 -0.5131
 4672TIP3    H113977   4.026   4.982   6.072 -1.0610 -0.8754  3.5160
 4672TIP3    H213978   3.989   4.838   6.046  0.2911 -0.3318 -2.2448
 4673TIP3   OH213979   5.729   6.108   1.485  0.1643  0.6165 -0.1221
 4673TIP3    H113980   5.772   6.112   1.570  0.0899 -0.3467 -0.0261
 4673TIP3    H213981   5.712   6.014   1.471 -1.1632  0.9017 -0.5217
 4674TIP3   OH213982   4.962   5.379   1.871 -0.3065 -0.2122  0.1995
 4674TIP3    H113983   5.020   5.323   1.820  0.4684  0.8467 -0.0863
 4674TIP3    H213984   4.944   5.329   1.950  0.9514 -0.5612  0.2666
 4675TIP3   OH213985   0.277   0.434   2.687 -0.3265  0.2399 -0.1233
 4675TIP3    H113986   0.288   0.517   2.734 -1.2117 -0.2536  0.9734
 4675TIP3    H213987   0.192   0.401   2.717  0.5931 -1.6909  0.4232
 4676TIP3   OH213988   7.077   6.811   0.916 -0.3501 -0.0470  0.3318
 4676TIP3    H113989   7.059   6.795   0.824  0.9073  0.4768 -0.0128
 4676TIP3    H213990   7.076   6.907   0.924  0.7476 -0.0563  0.6099
 4677TIP3   OH213991   7.710   5.872   3.334  0.3446  0.2854  0.1099
 4677TIP3    H113992   7.736   5.890   3.424  2.7872 -0.2579 -0.4554
 4677TIP3    H213993   7.791   5.877   3.283 -0.7847 -0.6058 -1.8694
 4678TIP3   OH213994   0.707   7.274   0.428  0.0374 -0.4018  0.2350
 4678TIP3    H113995   0.776   7.340   0.427 -0.7110  0.4024  0.9935
 4678TIP3    H213996   0.753   7.192   0.443  0.7570  0.2236  1.5451
 4679TIP3   OH213997   0.993   6.556   4.537 -0.1615  0.4907 -0.5407
 4679TIP3    H113998   0.938   6.546   4.459  0.0758 -1.8998 -0.4250
 4679TIP3    H213999   1.075   6.512   4.515  0.3523  0.8330  0.6257
 4680TIP3   OH214000   7.413   6.738   4.209 -0.2839  0.5966  0.3368
 4680TIP3    H114001   7.362   6.818   4.216  0.3992  1.0468  0.1721
 4680TIP3    H214002   7.504   6.767   4.213 -0.0337 -0.1708  0.2884
 4681TIP3   OH214003   0.727   6.285   1.620 -0.4966 -0.0426  0.4607
 4681TIP3    H114004   0.722   6.268   1.714 -0.0974 -0.2220  0.4502
 4681TIP3    H214005   0.784   6.362   1.613 -1.2122  0.4929  0.4184
 4682TIP3   OH214006   0.089   5.620   1.608  0.1267  0.4351  0.0761
 4682TIP3    H114007   0.023   5.615   1.538  0.1615 -0.3345  0.0955
 4682TIP3    H214008   0.063   5.552   1.670  1.4176 -0.4471 -0.3346
 4683TIP3   OH214009   1.662   6.300   4.088 -0.1270  0.4754  0.5540
 4683TIP3    H114010   1.689   6.221   4.042 -0.4218  0.3107  0.6616
 4683TIP3    H214011   1.717   6.302   4.167 -0.7711 -0.1147  1.0124
 4684TIP3   OH214012   0.898   6.967   5.922  0.4864  0.2587  0.0911
 4684TIP3    H114013   0.840   6.963   5.846 -0.8627  0.2178  1.0863
 4684TIP3    H214014   0.982   6.994   5.887 -0.5250  1.8106 -1.1952
 4685TIP3   OH214015   1.960   6.604   3.611 -0.1514 -0.8422  0.3086
 4685TIP3    H114016   1.890   6.565   3.664  0.5624  0.8441  2.5940
 4685TIP3    H214017   2.030   6.540   3.612 -0.5328 -1.2584  0.5821
 4686TIP3   OH214018   0.265   6.672   2.991  0.6250  0.0413 -0.2398
 4686TIP3    H114019   0.207   6.723   2.934  0.7908 -1.2802 -1.6164
 4686TIP3    H214020   0.206   6.633   3.055  0.1171 -0.4569 -1.0029
 4687TIP3   OH214021   4.180   0.215   1.118  0.9765  0.6086  0.1840
 4687TIP3    H114022   4.093   0.249   1.100  1.2176  0.5194 -1.2778
 4687TIP3    H214023   4.169   0.120   1.122  0.9857  0.5995  0.0308
 4688TIP3   OH214024   5.832   6.738   0.839  0.2009  0.5991  0.9300
 4688TIP3    H114025   5.788   6.731   0.755  1.0412  1.6890  0.3833
 4688TIP3    H214026   5.880   6.656   0.848  1.3187  1.0976 -0.3561
 4689TIP3   OH214027   2.654   1.445   1.762 -0.4691  0.1943 -0.4570
 4689TIP3    H114028   2.677   1.492   1.842 -2.4206  1.3740 -0.5417
 4689TIP3    H214029   2.579   1.494   1.726 -0.3803 -1.0084 -2.3634
 4690TIP3   OH214030   2.550   0.452   1.132  0.0049  0.0386  0.5763
 4690TIP3    H114031   2.534   0.501   1.050 -2.7989  0.2318  1.1753
 4690TIP3    H214032   2.550   0.360   1.105 -1.3263  0.0791  0.3884
 4691TIP3   OH214033   2.220   1.534   0.500 -0.3943  0.1675  0.1644
 4691TIP3    H114034   2.203   1.617   0.544  2.0629  1.1616 -0.6902
 4691TIP3    H214035   2.294   1.552   0.442 -0.9726 -2.1561 -1.3703
 4692TIP3   OH214036   3.083   0.606   1.476 -0.0541 -0.0832  0.5672
 4692TIP3    H114037   3.140   0.683   1.471 -1.5520  0.8883 -3.7400
 4692TIP3    H214038   3.005   0.637   1.522 -0.8513  1.2235 -1.5636
 4693TIP3   OH214039   0.186   5.704   4.642 -0.3251 -0.1482  0.1104
 4693TIP3    H114040   0.218   5.794   4.635  1.5650 -0.6520  1.7764
 4693TIP3    H214041   0.118   5.708   4.710 -0.7438  0.1428 -0.3236
 4694TIP3   OH214042   3.286   3.128   4.211 -0.0336  0.2614 -0.1833
 4694TIP3    H114043   3.324   3.125   4.299 -0.4756 -1.2636 -0.0414
 4694TIP3    H214044   3.192   3.139   4.225 -0.2745 -1.4184 -0.4289
 4695TIP3   OH214045   3.968   2.423   1.879  0.1299  0.1273  0.1287
 4695TIP3    H114046   4.022   2.499   1.860  1.5584 -0.4312  1.7984
 4695TIP3    H214047   3.946   2.387   1.793 -0.0061  2.0303 -0.6492
 4696TIP3   OH214048   0.997   4.584   2.222 -0.1564 -0.1466  0.0757
 4696TIP3    H114049   1.022   4.581   2.130  0.1841  0.5766  0.1395
 4696TIP3    H214050   0.976   4.676   2.238  0.5969 -0.1097  0.9294
 4697TIP3   OH214051   1.258   5.147   1.183 -0.1101  0.2049 -0.1375
 4697TIP3    H114052   1.186   5.102   1.140  0.1061 -0.1198 -0.1628
 4697TIP3    H214053   1.331   5.085   1.180  0.4700  0.9217 -1.0286
 4698TIP3   OH214054   1.589   5.800   3.465  0.8201 -0.1348  0.0786
 4698TIP3    H114055   1.531   5.732   3.500  0.8888  0.5616  1.5878
 4698TIP3    H214056   1.641   5.829   3.541  2.0401  0.3533 -0.9209
 4699TIP3   OH214057   5.783   1.355   3.718 -0.8656  0.4111 -0.3064
 4699TIP3    H114058   5.725   1.287   3.685  0.2634 -0.3337 -0.7941
 4699TIP3    H214059   5.843   1.310   3.777 -0.9001  1.2069  0.3550
 4700TIP3   OH214060   0.520   5.944   2.692 -0.3794  0.3428  0.1349
 4700TIP3    H114061   0.455   5.928   2.624  0.5269 -1.6860 -0.2851
 4700TIP3    H214062   0.603   5.947   2.645  0.0208  1.2025  0.8854
 4701TIP3   OH214063   0.797   6.629   0.532 -0.2933 -0.4036  0.0381
 4701TIP3    H114064   0.757   6.664   0.612  2.5615  0.2306  1.2346
 4701TIP3    H214065   0.864   6.568   0.563  0.9840 -0.0082 -1.8651
 4702TIP3   OH214066   2.757   0.116   1.495 -0.1977 -0.5344  0.0313
 4702TIP3    H114067   2.741   0.023   1.485 -0.3974 -0.1320 -3.9989
 4702TIP3    H214068   2.670   0.155   1.502 -0.1717 -0.4304 -0.2528
 4703TIP3   OH214069   1.072   4.966   2.968 -0.1639 -0.8809  0.8167
 4703TIP3    H114070   1.056   5.015   2.888 -0.6710 -0.9021  0.9033
 4703TIP3    H214071   1.042   5.024   3.038 -1.9747 -1.8191  0.8478
 4704TIP3   OH214072   4.126   0.848   1.062  0.3426 -0.2666 -0.2985
 4704TIP3    H114073   4.185   0.923   1.061  0.6471 -0.4396  1.6994
 4704TIP3    H214074   4.179   0.776   1.026  0.3759  0.2266 -1.2558
 4705TIP3   OH214075   1.006   5.725   1.941  0.6763  0.0757 -0.0685
 4705TIP3    H114076   0.919   5.719   1.901  1.1488 -1.3145 -0.9106
 4705TIP3    H214077   1.030   5.634   1.959  1.3008  0.5496  1.6061
 4706TIP3   OH214078   0.699   6.593   3.424 -0.5404  0.1352 -0.5557
 4706TIP3    H114079   0.725   6.579   3.515  1.7361 -0.6528 -1.2897
 4706TIP3    H214080   0.632   6.527   3.408  0.9392 -1.4630 -0.2209
 4707TIP3   OH214081   2.572   4.815   1.627 -0.1747  0.3698 -0.0655
 4707TIP3    H114082   2.548   4.773   1.545  0.4398  1.3217 -0.7521
 4707TIP3    H214083   2.640   4.759   1.664  0.0757  0.3220 -0.5864
 4708TIP3   OH214084   0.114   5.864   1.730 -0.5300  0.2647  0.2104
 4708TIP3    H114085   0.038   5.915   1.760 -0.9955  0.5711 -1.4800
 4708TIP3    H214086   0.088   5.772   1.742 -0.8272  0.3818  0.4571
 4709TIP3   OH214087   0.648   6.288   0.512 -0.0278  0.1754 -0.3840
 4709TIP3    H114088   0.615   6.262   0.598  0.6509  1.2289  0.2103
 4709TIP3    H214089   0.728   6.337   0.532 -0.4512  1.3542 -1.5660
 4710TIP3   OH214090   0.659   0.690   1.921  0.1415  0.7199  0.5156
 4710TIP3    H114091   0.580   0.740   1.939 -1.4515 -1.4240 -0.3453
 4710TIP3    H214092   0.640   0.601   1.952  2.0169  0.0547 -0.1441
 4711TIP3   OH214093   3.031   5.915   3.956  0.4815 -0.0623 -0.9007
 4711TIP3    H114094   3.122   5.936   3.976  0.0065  0.6123  0.7027
 4711TIP3    H214095   3.034   5.872   3.871  2.2704  0.1390 -0.9637
 4712TIP3   OH214096   0.139   7.181   0.363  0.2387  0.3603 -0.0214
 4712TIP3    H114097   0.107   7.248   0.424  1.6046  1.8110 -0.8682
 4712TIP3    H214098   0.105   7.207   0.278  0.3315 -0.3243 -0.2716
 4713TIP3   OH214099   0.285   7.030   1.288  0.0305  0.4477 -0.6376
 4713TIP3    H114100   0.365   7.049   1.239 -0.4017 -0.6651 -1.8062
 4713TIP3    H214101   0.217   7.025   1.220 -0.5444 -1.3180  0.0510
 4714TIP3   OH214102   7.376   5.511   0.035 -0.0130  0.0998 -0.1824
 4714TIP3    H114103   7.391   5.579  -0.031 -1.2133  0.8472  0.2949
 4714TIP3    H214104   7.461   5.469   0.046  0.8277  1.7294 -0.2711
 4715TIP3   OH214105   1.422   6.997   1.496  0.2414 -0.2637 -0.0574
 4715TIP3    H114106   1.465   6.967   1.416 -2.5191 -0.7180 -1.4586
 4715TIP3    H214107   1.394   7.086   1.477 -0.0326 -0.2172  0.5386
 4716TIP3   OH214108   1.484   6.899   0.674 -0.5844  0.3028 -0.1909
 4716TIP3    H114109   1.450   6.814   0.646 -0.2709  0.4431 -1.0103
 4716TIP3    H214110   1.450   6.961   0.609 -2.3852  1.1066  1.4486
 4717TIP3   OH214111   7.808   6.491   2.579  0.3847 -0.4533 -0.0798
 4717TIP3    H114112   7.775   6.463   2.493 -1.2027  1.3876 -0.1086
 4717TIP3    H214113   7.814   6.587   2.572  1.6071 -0.4018  1.4116
 4718TIP3   OH214114   1.031   5.588   2.550 -0.5350 -0.3988 -0.3018
 4718TIP3    H114115   1.022   5.623   2.461  0.3634 -0.7125 -0.5175
 4718TIP3    H214116   1.124   5.569   2.559 -0.8481 -1.8140  0.1480
 4719TIP3   OH214117   0.537   7.080   1.198  0.6399  0.0567  1.3007
 4719TIP3    H114118   0.608   7.063   1.260  0.3371  1.1914  1.9582
 4719TIP3    H214119   0.522   7.174   1.203  0.0179  0.0295  0.1480
 4720TIP3   OH214120   5.786   7.072   0.922 -0.5075  0.0944  0.5546
 4720TIP3    H114121   5.698   7.035   0.918 -0.0786 -0.7867 -1.8447
 4720TIP3    H214122   5.778   7.150   0.977 -2.7057 -0.1881  0.6498
 4721TIP3   OH214123   2.231   6.492   2.104 -0.2731 -0.0132  0.2378
 4721TIP3    H114124   2.227   6.578   2.062 -0.6471 -0.6063 -0.9445
 4721TIP3    H214125   2.325   6.478   2.119 -0.0021 -0.4517 -1.7724
 4722TIP3   OH214126   1.015   0.762   1.268 -0.0668  0.3410 -0.0962
 4722TIP3    H114127   1.091   0.815   1.289 -0.1603  0.0538  0.9772
 4722TIP3    H214128   1.036   0.723   1.183  0.4951  1.1532 -0.3346
 4723TIP3   OH214129   1.598   6.509   0.157  0.2542 -0.0098 -0.1665
 4723TIP3    H114130   1.625   6.525   0.067  0.6393  1.3887  0.1799
 4723TIP3    H214131   1.589   6.597   0.195  2.4596 -0.5997  1.8577
 4724TIP3   OH214132   4.885   3.846   6.323 -0.5185 -0.0291  0.0877
 4724TIP3    H114133   4.913   3.809   6.407 -2.4959 -0.0168  0.7719
 4724TIP3    H214134   4.934   3.928   6.315  0.0246 -0.2623  1.0094
 4725TIP3   OH214135   0.166   3.189   5.769 -1.0120 -0.0818  0.7013
 4725TIP3    H114136   0.205   3.108   5.801  2.1213  1.3254  0.6779
 4725TIP3    H214137   0.094   3.206   5.829 -1.6567 -2.8147  0.7537
 4726TIP3   OH214138   6.941   6.641   2.776 -0.0052  0.4207 -0.3843
 4726TIP3    H114139   7.033   6.651   2.751 -0.2068  0.3665 -1.1415
 4726TIP3    H214140   6.945   6.615   2.868  0.7238  0.8287 -0.2916
 4727TIP3   OH214141   1.533   5.367   3.717 -0.2774  0.1846  0.3698
 4727TIP3    H114142   1.447   5.374   3.758 -0.3327  1.4659  0.0464
 4727TIP3    H214143   1.595   5.379   3.789 -0.3328 -1.8859  0.8112
 4728TIP3   OH214144   0.685   6.679   1.578 -0.2525  0.9990  0.5668
 4728TIP3    H114145   0.718   6.730   1.652  0.8030 -0.4362  1.1324
 4728TIP3    H214146   0.730   6.594   1.586 -0.3199  0.7299 -1.5737
 4729TIP3   OH214147   0.965   6.555   0.962  0.1409  0.1849 -0.3007
 4729TIP3    H114148   1.040   6.497   0.973  0.1707  0.3839  0.5733
 4729TIP3    H214149   0.995   6.640   0.996 -1.4536 -0.4756  2.9537
 4730TIP3   OH214150   2.335   6.207   4.279 -0.2886  0.3414 -0.1200
 4730TIP3    H114151   2.249   6.168   4.295  0.4557 -0.8561  1.0823
 4730TIP3    H214152   2.358   6.179   4.191 -0.9278  0.3192 -0.2877
 4731TIP3   OH214153   2.893   5.216   3.203 -0.0246  0.0144 -0.3408
 4731TIP3    H114154   2.839   5.285   3.164 -0.1033 -0.8683 -1.8372
 4731TIP3    H214155   2.846   5.135   3.183 -0.0834 -0.4798  1.6512
 4732TIP3   OH214156   6.071   2.348   5.172 -0.3649 -0.0586 -0.0818
 4732TIP3    H114157   6.138   2.375   5.110 -1.6800  0.9490 -1.1004
 4732TIP3    H214158   6.006   2.418   5.168 -0.9715 -0.5008  1.6618
 4733TIP3   OH214159   4.876   0.206   2.490 -0.2322  0.0293 -0.4628
 4733TIP3    H114160   4.866   0.119   2.529  0.1899 -0.2999 -1.0738
 4733TIP3    H214161   4.889   0.189   2.397 -0.6983  0.7819 -0.6695
 4734TIP3   OH214162   3.115   5.393   4.283  0.2760 -1.0457  0.6882
 4734TIP3    H114163   3.151   5.355   4.203 -0.7698 -0.0821 -0.2470
 4734TIP3    H214164   3.186   5.448   4.317  0.1978 -0.2518 -0.4028
 4735TIP3   OH214165   1.845   6.078   4.554  0.0081 -0.0659 -0.3843
 4735TIP3    H114166   1.917   6.019   4.531  0.8790  0.4997  0.8366
 4735TIP3    H214167   1.861   6.101   4.645 -0.6866  1.5586 -0.6530
 4736TIP3   OH214168   1.306   4.597   4.312  0.0618 -0.3618  0.2898
 4736TIP3    H114169   1.367   4.551   4.370  0.8970 -0.8678 -0.9745
 4736TIP3    H214170   1.225   4.600   4.362  0.7071 -0.9630  1.4209
 4737TIP3   OH214171   6.192   1.966   1.373 -0.3695 -0.1467 -0.3015
 4737TIP3    H114172   6.264   1.916   1.411 -0.8451 -0.9736 -0.4761
 4737TIP3    H214173   6.214   2.058   1.391  1.8131 -0.2545 -2.2431
 4738TIP3   OH214174   1.534   6.076   0.534 -0.1356 -0.4786  0.3692
 4738TIP3    H114175   1.503   6.046   0.448 -2.1593 -1.5538  1.4236
 4738TIP3    H214176   1.581   6.000   0.570  1.0314  0.0937  0.0777
 4739TIP3   OH214177   0.792   5.179   0.933 -0.3082 -0.0827 -0.2472
 4739TIP3    H114178   0.747   5.246   0.985 -1.7597 -0.7789 -0.5717
 4739TIP3    H214179   0.773   5.097   0.978 -3.8727 -1.0499 -3.2854
 4740TIP3   OH214180   0.412   5.349   1.394 -0.6766  0.1705 -0.2665
 4740TIP3    H114181   0.409   5.360   1.299  4.2950  0.7958 -0.4767
 4740TIP3    H214182   0.436   5.435   1.427 -4.6723  0.5594  1.8482
 4741TIP3   OH214183   2.342   5.843   1.154 -0.2081 -0.3201 -0.1968
 4741TIP3    H114184   2.391   5.791   1.090  3.4468  0.9988  1.3749
 4741TIP3    H214185   2.320   5.780   1.223  0.2260 -0.7411 -0.4334
 4742TIP3   OH214186   4.315   1.015   2.342 -0.5083  0.2236 -0.2707
 4742TIP3    H114187   4.314   1.062   2.425  0.7308  1.8667 -1.1679
 4742TIP3    H214188   4.314   1.083   2.275 -0.7843 -1.0637 -1.6097
 4743TIP3   OH214189   4.046   0.628   1.534 -0.0536 -0.1629  0.2078
 4743TIP3    H114190   3.992   0.681   1.474 -0.0613 -0.4524 -0.0419
 4743TIP3    H214191   4.121   0.684   1.553 -0.3496  0.1678  0.4075
 4744TIP3   OH214192   1.650   6.957   4.302  0.0995  0.6227 -0.4210
 4744TIP3    H114193   1.681   6.872   4.335 -0.4482  0.8911  0.8150
 4744TIP3    H214194   1.730   7.009   4.293  0.4816 -0.1343 -1.5442
 4745TIP3   OH214195   0.447   6.349   4.808 -0.0073  0.3218  0.0744
 4745TIP3    H114196   0.383   6.378   4.742 -0.2029  2.5552  1.1902
 4745TIP3    H214197   0.436   6.411   4.880 -0.2945 -2.5093  2.5547
 4746TIP3   OH214198   1.047   4.456   3.441  0.4254 -0.2506  0.1010
 4746TIP3    H114199   0.974   4.467   3.380  0.9803  1.2780 -0.3026
 4746TIP3    H214200   1.108   4.398   3.395 -0.5121 -1.5179  0.4332
 4747TIP3   OH214201   4.669   2.999   6.269 -0.3234  0.3965  0.4264
 4747TIP3    H114202   4.762   2.992   6.247  0.0117 -1.0137  2.1873
 4747TIP3    H214203   4.624   2.997   6.184  1.1804 -0.2416 -0.3711
 4748TIP3   OH214204   5.784   0.896   2.271  0.3633 -0.2994 -0.1690
 4748TIP3    H114205   5.855   0.954   2.246  1.7684 -1.7361  0.3478
 4748TIP3    H214206   5.726   0.893   2.195  1.2410  0.3376 -0.8651
 4749TIP3   OH214207   7.165   5.561   0.222  0.1021  0.0638  0.0179
 4749TIP3    H114208   7.236   5.534   0.164 -0.5362 -3.3214  0.6967
 4749TIP3    H214209   7.183   5.515   0.304 -2.7367 -0.5985  0.2850
 4750TIP3   OH214210   5.315   0.097   2.985  0.2357  0.0814 -0.3637
 4750TIP3    H114211   5.248   0.165   2.990  0.2466  0.1267 -0.8559
 4750TIP3    H214212   5.267   0.018   2.962  0.0808 -0.2901  1.1646
 4751TIP3   OH214213   1.425   5.017   2.216  0.2224 -0.4565  0.5121
 4751TIP3    H114214   1.504   5.068   2.230 -0.4553  0.3302  1.5208
 4751TIP3    H214215   1.357   5.064   2.263 -1.1764 -0.2648 -1.6306
 4752TIP3   OH214216   4.892   0.118   1.127  0.0621 -0.2944 -0.9526
 4752TIP3    H114217   4.946   0.042   1.151 -0.0145  0.0150  0.2355
 4752TIP3    H214218   4.804   0.094   1.155  0.3622  1.0040  1.2811
 4753TIP3   OH214219   0.073   7.325   2.786  0.1336  0.8325  0.4097
 4753TIP3    H114220   0.047   7.366   2.703 -0.7514  1.1881  0.8563
 4753TIP3    H214221   0.162   7.358   2.801  0.9025 -0.4563 -1.1678
 4754TIP3   OH214222   3.416   6.171   1.221  0.5018  0.3628  0.2785
 4754TIP3    H114223   3.473   6.096   1.237  1.8226  1.4978  1.0273
 4754TIP3    H214224   3.327   6.139   1.241  1.1983 -0.6039  1.9813
 4755TIP3   OH214225   4.463   1.596   3.741 -0.0484 -0.3500  0.1747
 4755TIP3    H114226   4.388   1.651   3.716  1.6326  0.8446 -2.4509
 4755TIP3    H214227   4.459   1.521   3.682  1.3808  0.2400 -0.7086
 4756TIP3   OH214228   0.133   6.502   2.043  0.4565  0.4523  0.2405
 4756TIP3    H114229   0.139   6.593   2.071  1.6997 -0.1639  2.0288
 4756TIP3    H214230   0.161   6.451   2.119  0.0175 -1.4194 -0.8190
 4757TIP3   OH214231   7.250   6.114   4.075 -0.2203  0.7071  0.7471
 4757TIP3    H114232   7.279   6.023   4.068  0.7262  0.9872  0.9616
 4757TIP3    H214233   7.167   6.116   4.027 -1.4999 -0.7994  2.8438
 4758TIP3   OH214234   0.201   5.290   0.361  0.3915 -0.0939  0.8170
 4758TIP3    H114235   0.109   5.295   0.334  0.8533  1.4971 -0.5876
 4758TIP3    H214236   0.250   5.313   0.281  1.9260  1.1936  2.0944
 4759TIP3   OH214237   1.309   5.687   2.122 -0.2703 -0.5127  0.5018
 4759TIP3    H114238   1.321   5.666   2.030  1.6189 -1.0986  0.8647
 4759TIP3    H214239   1.359   5.767   2.136 -0.1177 -0.7170  1.1456
 4760TIP3   OH214240   3.301   4.675   1.352  0.4623 -0.5005  0.0918
 4760TIP3    H114241   3.301   4.758   1.304  1.0635 -1.1429 -1.0304
 4760TIP3    H214242   3.224   4.629   1.320  0.2054 -0.4375  0.6150
 4761TIP3   OH214243   2.247   6.801   2.958 -0.1173  0.2680  0.5503
 4761TIP3    H114244   2.246   6.863   2.884 -0.2146  0.9894  1.1429
 4761TIP3    H214245   2.157   6.768   2.962 -0.4810  1.3036  1.2199
 4762TIP3   OH214246   7.011   6.696   0.130  0.0378 -0.3704  0.2229
 4762TIP3    H114247   7.087   6.739   0.091 -1.0088  0.4137 -0.9422
 4762TIP3    H214248   7.026   6.705   0.225 -0.5835  3.3577  0.0510
 4763TIP3   OH214249   0.074   6.798   2.148 -0.1862 -0.0439  0.1104
 4763TIP3    H114250   0.043   6.857   2.079  0.9643  0.2190 -0.2074
 4763TIP3    H214251   0.150   6.843   2.186  0.3975 -1.0716  0.2116
 4764TIP3   OH214252   5.527   2.213   5.273 -0.4444 -0.8316  0.8061
 4764TIP3    H114253   5.453   2.184   5.219 -0.0581 -1.2104  0.4751
 4764TIP3    H214254   5.542   2.304   5.248 -0.2725 -1.0051  0.2776
 4765TIP3   OH214255   1.619   6.984   2.264  0.3622  0.2271 -0.1955
 4765TIP3    H114256   1.693   6.961   2.209 -0.3514 -2.8796  0.0479
 4765TIP3    H214257   1.549   7.005   2.202  0.6281  0.4132 -0.4359
 4766TIP3   OH214258   6.815   5.099   0.570 -0.0829 -0.6828  0.0083
 4766TIP3    H114259   6.767   5.096   0.653  0.4695 -0.8869  0.3289
 4766TIP3    H214260   6.854   5.186   0.568  1.5391 -1.3588  0.9204
 4767TIP3   OH214261   1.961   4.732   2.771  0.0845  0.2381  0.5049
 4767TIP3    H114262   1.918   4.809   2.733 -0.3503 -0.0245  0.4596
 4767TIP3    H214263   1.964   4.751   2.865 -1.0218 -0.1717  0.6279
 4768TIP3   OH214264   3.209   6.914   2.332 -0.6073 -0.1677  0.1351
 4768TIP3    H114265   3.225   6.977   2.262 -0.2231  0.4237  0.7490
 4768TIP3    H214266   3.293   6.869   2.344 -0.8364 -0.6884 -0.1945
 4769TIP3   OH214267   7.557   5.985   2.825  0.3670  0.0451  0.1643
 4769TIP3    H114268   7.465   5.981   2.850  0.1375 -0.8659 -0.8117
 4769TIP3    H214269   7.569   6.074   2.792 -0.2504  0.0381 -0.0793
 4770TIP3   OH214270   2.680   5.493   3.402  0.7685 -0.2095 -0.2051
 4770TIP3    H114271   2.608   5.430   3.401 -0.3507  1.0100  0.8315
 4770TIP3    H214272   2.726   5.479   3.319  0.3246 -2.1292 -0.1420
 4771TIP3   OH214273   3.343   1.486   2.892  0.4321 -0.4305 -0.0903
 4771TIP3    H114274   3.253   1.500   2.922  0.8228  1.7969  0.1680
 4771TIP3    H214275   3.348   1.534   2.810  2.0612  1.6191  1.1481
 4772TIP3   OH214276   7.751   1.353   5.891 -0.0319  0.2415 -0.2432
 4772TIP3    H114277   7.750   1.275   5.946  0.3663 -1.3731 -2.4511
 4772TIP3    H214278   7.775   1.424   5.950 -1.9954 -1.0053  2.1560
 4773TIP3   OH214279   3.707   6.479   2.620  0.6130 -0.2902  0.4102
 4773TIP3    H114280   3.789   6.438   2.649  1.5450  0.0063 -1.6617
 4773TIP3    H214281   3.638   6.424   2.655  1.8034 -2.7757 -1.0470
 4774TIP3   OH214282   5.015   1.172   1.823  0.1686  0.2748  0.2988
 4774TIP3    H114283   5.048   1.133   1.904 -0.3145  0.0696  0.4004
 4774TIP3    H214284   4.979   1.098   1.774  0.8445  0.3280 -0.2992
 4775TIP3   OH214285   5.163   2.550   2.173  0.2783 -0.0021 -0.3818
 4775TIP3    H114286   5.078   2.547   2.216 -0.5366 -1.3676 -2.0145
 4775TIP3    H214287   5.163   2.632   2.124  0.9622  1.2559  1.7205
 4776TIP3   OH214288   1.634   7.349   2.136  0.0382 -0.9285 -0.4246
 4776TIP3    H114289   1.580   7.417   2.096 -1.1085 -1.1920  0.6477
 4776TIP3    H214290   1.610   7.269   2.090 -0.2110 -0.9786 -0.2098
 4777TIP3   OH214291   4.836   0.033   0.760  0.0218 -0.5954  0.5145
 4777TIP3    H114292   4.789   0.114   0.741  0.7155 -0.1952  0.4605
 4777TIP3    H214293   4.771  -0.025   0.799 -1.6496 -1.6729 -3.5514
 4778TIP3   OH214294   5.803   0.433   1.377  0.2768 -0.0917  0.0411
 4778TIP3    H114295   5.790   0.448   1.471  0.8016  3.1595 -0.3664
 4778TIP3    H214296   5.715   0.429   1.340  0.0878 -0.7285  0.5458
 4779TIP3   OH214297   5.968   1.196   4.282  0.3618 -0.8368 -0.0973
 4779TIP3    H114298   5.998   1.130   4.218  0.6746 -0.5859 -0.2131
 4779TIP3    H214299   5.875   1.207   4.263  0.2945 -1.2914 -0.0398
 4780TIP3   OH214300   6.663   1.108   1.013  0.0298  0.5505  0.9954
 4780TIP3    H114301   6.679   1.200   1.036 -0.7925  0.6389  1.2612
 4780TIP3    H214302   6.640   1.067   1.096  1.1041 -0.0650  0.9966
 4781TIP3   OH214303   3.624   5.667   2.135  0.1803  0.7023 -0.4248
 4781TIP3    H114304   3.708   5.642   2.096  0.8646 -0.2823  1.5492
 4781TIP3    H214305   3.577   5.712   2.066  1.0409 -1.5986 -2.5724
 4782TIP3   OH214306   5.341   6.986   3.726  0.5127 -0.4268  0.0100
 4782TIP3    H114307   5.323   6.903   3.770 -1.4475 -0.1030 -0.1735
 4782TIP3    H214308   5.291   6.981   3.645  0.5588  0.8601 -0.1013
 4783TIP3   OH214309   3.863   6.888   3.187  0.5493  0.2282  0.4243
 4783TIP3    H114310   3.793   6.943   3.152  1.1723 -0.1696 -1.4687
 4783TIP3    H214311   3.939   6.907   3.133  2.2582  1.4456  3.1344
 4784TIP3   OH214312   4.976   1.762   3.221 -0.0886  0.0329 -0.6451
 4784TIP3    H114313   4.907   1.828   3.224 -0.0145  0.0322  1.7446
 4784TIP3    H214314   4.930   1.679   3.206 -0.5517  0.1183  0.2844
 4785TIP3   OH214315   0.965   5.625   1.563  0.1391 -0.1506 -0.4585
 4785TIP3    H114316   0.973   5.535   1.531 -0.6728 -0.3936 -0.0031
 4785TIP3    H214317   0.899   5.619   1.632 -0.7044  1.0004 -1.1766
 4786TIP3   OH214318   5.380   0.831   3.503  0.1859  0.6087  0.0255
 4786TIP3    H114319   5.411   0.890   3.434  0.4888  1.1761  0.6412
 4786TIP3    H214320   5.400   0.877   3.585  1.6472 -0.9247  0.5634
 4787TIP3   OH214321   4.719   7.357   3.355 -0.1851 -0.0990 -0.0529
 4787TIP3    H114322   4.775   7.328   3.427  0.5804 -1.0960 -1.0333
 4787TIP3    H214323   4.631   7.328   3.379 -0.0262  0.0623  0.7325
 4788TIP3   OH214324   0.985   5.913   1.620  0.3751  0.3836 -0.0526
 4788TIP3    H114325   0.904   5.928   1.668 -0.4571  0.3826 -1.4472
 4788TIP3    H214326   0.996   5.818   1.621  2.6843  0.5707  3.8922
 4789TIP3   OH214327   3.351   5.803   1.423  0.0215 -0.0458 -0.0497
 4789TIP3    H114328   3.424   5.850   1.383 -0.6625  1.9700  1.0208
 4789TIP3    H214329   3.292   5.785   1.349  1.4528 -1.4815 -0.8768
 4790TIP3   OH214330   3.240   3.967   6.020 -0.0469  0.0180 -0.0396
 4790TIP3    H114331   3.302   3.928   5.958 -2.3171 -2.1162 -1.0328
 4790TIP3    H214332   3.165   3.993   5.966 -1.7914 -1.2700  1.7102
 4791TIP3   OH214333   3.187   1.065   1.329 -0.6285  0.1998  0.5237
 4791TIP3    H114334   3.136   1.102   1.401  0.3508 -0.7157  1.7160
 4791TIP3    H214335   3.168   1.122   1.254 -1.6836  1.1478  1.4871
 4792TIP3   OH214336   2.790   7.128   1.949  0.7585  0.2064 -0.0226
 4792TIP3    H114337   2.840   7.067   2.003  1.9632  0.4851 -0.7967
 4792TIP3    H214338   2.821   7.214   1.975  0.3220  0.4061 -0.1593
 4793TIP3   OH214339   7.151   7.121   1.581  0.5131 -0.3882 -0.4998
 4793TIP3    H114340   7.231   7.148   1.626  0.6236 -1.0262 -0.3102
 4793TIP3    H214341   7.153   7.025   1.584  0.3267 -0.4284 -1.5278
 4794TIP3   OH214342   1.898   6.547   1.637  0.3760  0.6441  0.2920
 4794TIP3    H114343   1.850   6.557   1.719  1.0143 -0.9679  0.8880
 4794TIP3    H214344   1.830   6.527   1.572 -0.2203  2.7256  0.2460
 4795TIP3   OH214345   0.129   7.155   6.286 -0.1404  0.0865  0.1900
 4795TIP3    H114346   0.105   7.161   6.379  0.0628 -1.3621  0.3505
 4795TIP3    H214347   0.217   7.194   6.282 -0.1080  0.0620  0.6297
 4796TIP3   OH214348   5.138   1.218   2.199  0.0672  0.4516  0.1574
 4796TIP3    H114349   5.225   1.233   2.236  0.4681  1.2189 -1.0891
 4796TIP3    H214350   5.149   1.144   2.139  0.5058  2.3509 -2.1790
 4797TIP3   OH214351   4.205   0.744   0.334  0.3361 -0.1005  0.2464
 4797TIP3    H114352   4.289   0.743   0.380 -0.5011 -0.4403  1.7706
 4797TIP3    H214353   4.175   0.654   0.336  0.1031 -0.0455 -0.6282
 4798TIP3   OH214354   0.897  -0.010   2.524 -0.2363  0.3714 -0.0622
 4798TIP3    H114355   0.988   0.003   2.497 -0.9091  0.4806 -2.4051
 4798TIP3    H214356   0.851   0.068   2.491 -1.0967  0.5752  1.5647
 4799TIP3   OH214357   3.708   6.117   2.362  0.3214 -0.0972 -0.2383
 4799TIP3    H114358   3.739   6.134   2.273 -0.1628  1.8294 -0.0587
 4799TIP3    H214359   3.627   6.168   2.369 -0.2327 -1.1059  0.9527
 4800TIP3   OH214360   3.157   6.250   1.593 -0.2112  0.3279 -0.0916
 4800TIP3    H114361   3.185   6.159   1.597 -1.3339 -0.0091  0.0008
 4800TIP3    H214362   3.157   6.279   1.684 -1.8688 -0.1846  0.0732
 4801TIP3   OH214363   4.495   0.959   2.944  0.3120  0.6550 -0.2050
 4801TIP3    H114364   4.467   0.898   3.012  0.0044  0.9370 -0.0742
 4801TIP3    H214365   4.459   0.923   2.863 -2.1771  2.0499  0.2024
 4802TIP3   OH214366   2.492   6.734   1.496  0.0023  0.0627 -0.0120
 4802TIP3    H114367   2.441   6.810   1.468  1.5980  0.4980 -1.8559
 4802TIP3    H214368   2.568   6.771   1.541  0.6984 -0.4133 -0.7633
 4803TIP3   OH214369   3.270   5.867   2.101 -0.2514  0.2603 -0.3605
 4803TIP3    H114370   3.176   5.864   2.082 -0.3265 -0.6727  0.1207
 4803TIP3    H214371   3.303   5.782   2.072 -0.0469 -0.4795  1.9169
 4804TIP3   OH214372   3.748   1.476   1.063 -0.0818 -0.3703  0.2210
 4804TIP3    H114373   3.713   1.393   1.030  0.4735 -0.7414  0.5447
 4804TIP3    H214374   3.672   1.525   1.092 -0.4931 -0.4239 -0.7405
 4805TIP3   OH214375   1.032   7.229   2.759  0.3766  0.2541  0.1641
 4805TIP3    H114376   1.053   7.322   2.766 -1.8508  0.9078 -1.0048
 4805TIP3    H214377   1.012   7.217   2.666 -1.0981 -0.9762  0.6236
 4806TIP3   OH214378   6.052   6.469   3.555  0.5310 -0.5349 -0.1936
 4806TIP3    H114379   6.014   6.419   3.627  0.9179 -2.0832 -1.0467
 4806TIP3    H214380   5.994   6.452   3.480  2.1588 -1.9111 -1.1830
 4807TIP3   OH214381   5.449   2.079   2.370 -0.1717 -0.0465  0.2075
 4807TIP3    H114382   5.499   2.012   2.417  0.1487 -0.7259 -1.0511
 4807TIP3    H214383   5.395   2.121   2.436 -0.0175 -1.2387  1.0972
 4808TIP3   OH214384   4.589   7.195   3.848  0.2236 -0.0792 -0.1733
 4808TIP3    H114385   4.623   7.126   3.906 -1.5903 -0.6755  0.1915
 4808TIP3    H214386   4.556   7.262   3.908 -2.0205 -0.8707 -0.4837
 4809TIP3   OH214387   5.066   0.545   2.116  0.4690 -0.2619  0.1318
 4809TIP3    H114388   5.057   0.471   2.176  0.3875 -0.5733 -0.2610
 4809TIP3    H214389   5.102   0.506   2.037  0.0212  0.0456 -0.2237
 4810TIP3   OH214390   6.253   0.738   2.645  0.2728 -0.4212 -0.7342
 4810TIP3    H114391   6.214   0.712   2.729  1.7879  0.0027  0.1185
 4810TIP3    H214392   6.181   0.778   2.597 -0.0910  1.5138  1.3267
 4811TIP3   OH214393   3.743   0.432   0.180 -0.1709 -0.1588  0.3367
 4811TIP3    H114394   3.778   0.521   0.177  1.3455 -0.7886 -1.9574
 4811TIP3    H214395   3.806   0.380   0.129 -0.5348 -2.7208  2.3820
 4812TIP3   OH214396   4.045   6.900   2.205 -0.3669  0.3167  0.5133
 4812TIP3    H114397   4.127   6.884   2.159 -1.0884  0.1809 -0.7617
 4812TIP3    H214398   4.070   6.945   2.285  0.9552  0.1965  0.1735
 4813TIP3   OH214399   3.872   0.113   1.743  0.5586  0.1222 -0.4356
 4813TIP3    H114400   3.960   0.151   1.742  0.2658  0.8191 -2.8685
 4813TIP3    H214401   3.815   0.181   1.708 -0.9883 -0.2873  1.2312
 4814TIP3   OH214402   3.570   0.104   1.042 -0.1758 -0.6475  0.0228
 4814TIP3    H114403   3.496   0.134   1.095  1.3864  3.6345 -0.0589
 4814TIP3    H214404   3.534   0.096   0.953 -1.0707 -0.8979  0.4017
 4815TIP3   OH214405   4.104   6.909   3.064 -0.1100 -0.3499 -0.1878
 4815TIP3    H114406   4.130   6.961   2.988  0.3094 -0.9911 -0.4904
 4815TIP3    H214407   4.092   6.820   3.029 -2.8394 -0.0636 -0.0853
 4816TIP3   OH214408   3.833   0.111   3.508  0.4319 -0.7372 -0.5395
 4816TIP3    H114409   3.762   0.059   3.545  1.5516 -1.1171  1.1043
 4816TIP3    H214410   3.910   0.054   3.511  1.0526  0.0244 -1.3523
 4817TIP3   OH214411   3.703   7.197   2.703  0.5887 -0.3693 -0.0194
 4817TIP3    H114412   3.706   7.287   2.670  1.8504 -0.6265 -0.6800
 4817TIP3    H214413   3.628   7.195   2.761 -0.2291  0.7722 -1.0026
 4818TIP3   OH214414   4.831   1.584   3.036  0.3290 -0.5121  0.4565
 4818TIP3    H114415   4.893   1.518   3.069  0.4647 -0.2890  0.6465
 4818TIP3    H214416   4.747   1.539   3.036  0.3034 -0.4706  1.2480
 4819TIP3   OH214417   2.008   6.223   3.108  0.0340  0.4784 -0.1878
 4819TIP3    H114418   1.916   6.205   3.086  0.7681 -0.8175 -2.3387
 4819TIP3    H214419   2.017   6.317   3.097 -1.4153  0.8796  1.6376
 4820TIP3   OH214420   4.906   0.243   1.592 -0.3450  0.0465  0.0827
 4820TIP3    H114421   4.913   0.338   1.600  2.9493 -0.1356  0.0024
 4820TIP3    H214422   4.864   0.229   1.508 -0.0432  1.4289 -0.3098
 4821TIP3   OH214423   4.552   7.193   2.975 -0.2838  0.4974  0.1682
 4821TIP3    H114424   4.632   7.226   2.934  0.5880 -0.6918  0.8924
 4821TIP3    H214425   4.556   7.098   2.962 -1.3543  0.3880  0.6049
 4822TIP3   OH214426   5.658   6.777   3.874 -1.1403 -0.2986  0.4130
 4822TIP3    H114427   5.749   6.757   3.899 -1.3113 -0.4678  0.8924
 4822TIP3    H214428   5.666   6.851   3.814 -0.6683 -0.4287  0.3133
 4823TIP3   OH214429   4.660   0.991   2.489  0.2287  0.4216  0.1907
 4823TIP3    H114430   4.647   1.084   2.507 -1.7072  0.2879 -0.3955
 4823TIP3    H214431   4.749   0.973   2.519  1.1817  2.8041 -1.1092
 4824TIP3   OH214432   5.744   0.194   4.129  0.4180 -0.2919 -0.0901
 4824TIP3    H114433   5.831   0.193   4.169  0.4261 -1.6564 -0.1261
 4824TIP3    H214434   5.685   0.166   4.199  0.4314 -2.7208 -1.0058
 4825TIP3   OH214435   4.392   1.436   1.773 -0.1096  0.3988 -0.0972
 4825TIP3    H114436   4.320   1.411   1.715  0.2177 -0.0433 -0.3083
 4825TIP3    H214437   4.454   1.480   1.715  0.5149 -0.6131 -0.2038
 4826TIP3   OH214438   7.714   0.987   1.804  0.2054  0.1351 -0.4581
 4826TIP3    H114439   7.733   1.053   1.738  1.0765  0.6847  0.3200
 4826TIP3    H214440   7.619   0.982   1.807  0.1321  1.2407 -0.6514
 4827TIP3   OH214441   4.369   2.179   1.197  0.8041 -0.0216 -0.5101
 4827TIP3    H114442   4.288   2.128   1.196 -0.2097  1.5681 -1.2587
 4827TIP3    H214443   4.389   2.194   1.105  1.5851  0.1531 -0.3134
 4828TIP3   OH214444   3.558   6.237   0.253  0.2447  0.4774  0.1415
 4828TIP3    H114445   3.509   6.155   0.253 -0.1339  0.6686 -1.9321
 4828TIP3    H214446   3.649   6.211   0.246  0.0746  0.2461 -1.2822
 4829TIP3   OH214447   6.194   6.803   2.539 -0.2238  0.5268  0.4848
 4829TIP3    H114448   6.201   6.854   2.619 -2.0420  1.1531  0.2739
 4829TIP3    H214449   6.141   6.858   2.480 -0.2744 -0.6139 -0.5625
 4830TIP3   OH214450   7.181   0.826   3.267 -0.4121 -0.1915 -0.4767
 4830TIP3    H114451   7.118   0.825   3.195 -1.3664  0.5463  0.3271
 4830TIP3    H214452   7.154   0.752   3.322 -0.5618  0.1202 -0.1353
 4831TIP3   OH214453   7.727   0.363   2.579  0.1237  0.6706 -0.2805
 4831TIP3    H114454   7.762   0.431   2.636 -1.1127  0.1724  1.0994
 4831TIP3    H214455   7.798   0.299   2.571  0.3770  0.8430  0.5489
 4832TIP3   OH214456   5.959   0.579   4.877  0.3427 -0.2695 -0.5926
 4832TIP3    H114457   5.963   0.630   4.958 -1.7824 -0.5352 -0.2868
 4832TIP3    H214458   5.960   0.645   4.807 -0.9148  0.1442 -0.2403
 4833TIP3   OH214459   2.544   5.627   3.675  0.0476  0.1768  0.2836
 4833TIP3    H114460   2.503   5.650   3.591 -1.5667 -0.1582  0.9609
 4833TIP3    H214461   2.601   5.701   3.696 -1.9177  1.6625  0.4187
 4834TIP3   OH214462   2.623   6.834   3.740 -0.0412 -0.1472 -0.2626
 4834TIP3    H114463   2.673   6.863   3.816  0.1401 -0.6374 -0.1908
 4834TIP3    H214464   2.547   6.892   3.737  1.3935  1.7127 -1.3646
 4835TIP3   OH214465   5.689   4.669   3.600  0.1854  0.1441  0.3738
 4835TIP3    H114466   5.650   4.677   3.686  1.3851 -0.9460  1.0342
 4835TIP3    H214467   5.776   4.709   3.610 -0.2624  1.4662 -0.7598
 4836TIP3   OH214468   0.581   5.082   5.061 -0.2161  0.0496 -0.0042
 4836TIP3    H114469   0.673   5.054   5.068 -0.1845 -0.0010 -0.6389
 4836TIP3    H214470   0.531   5.002   5.076 -0.1567  0.0735  0.3262
 4837TIP3   OH214471   1.406   7.251   2.790  0.0039  0.1581 -0.0502
 4837TIP3    H114472   1.354   7.329   2.770 -2.2319 -1.5849 -1.2167
 4837TIP3    H214473   1.408   7.202   2.708 -0.6153 -2.1320  1.2580
 4838TIP3   OH214474   0.191   1.338   2.899 -0.5783 -0.8425 -0.5801
 4838TIP3    H114475   0.135   1.279   2.950 -1.1994  1.1819  1.1430
 4838TIP3    H214476   0.144   1.421   2.898  2.2814  0.8649  0.7540
 4839TIP3   OH214477   2.746   6.547   2.183  0.1010  0.4904  0.1553
 4839TIP3    H114478   2.812   6.602   2.226 -1.6513  1.0029  2.2497
 4839TIP3    H214479   2.789   6.462   2.174  0.8154  0.6166  2.1372
 4840TIP3   OH214480   1.492   5.227   6.161 -0.2914 -0.1313  0.3082
 4840TIP3    H114481   1.441   5.171   6.102 -0.0724 -0.4253  0.3965
 4840TIP3    H214482   1.573   5.178   6.176  0.1610  0.4888 -0.1034
 4841TIP3   OH214483   1.745   0.916   3.837 -0.7791  0.0182  1.0822
 4841TIP3    H114484   1.825   0.964   3.815 -0.1414 -0.6647  1.8552
 4841TIP3    H214485   1.693   0.979   3.887 -0.8317  0.5473  0.3609
 4842TIP3   OH214486   6.116   0.026   2.483 -1.0320  0.3010  0.5022
 4842TIP3    H114487   6.058   0.087   2.436 -0.7193  1.0897  1.1367
 4842TIP3    H214488   6.163   0.081   2.545 -0.8318 -0.6163  1.1619
 4843TIP3   OH214489   4.899   1.021   1.264  0.2240  0.4250 -0.7193
 4843TIP3    H114490   4.849   0.958   1.213  0.2334 -0.7842  0.7284
 4843TIP3    H214491   4.840   1.094   1.278 -1.8474 -1.7503  2.5356
 4844TIP3   OH214492   1.316   3.882   2.602 -0.0429 -0.0643  0.4560
 4844TIP3    H114493   1.315   3.841   2.516 -1.6610 -2.6100  1.6201
 4844TIP3    H214494   1.408   3.901   2.619  0.3308  0.0910 -1.6387
 4845TIP3   OH214495   4.605   6.297   3.292 -0.1101 -0.2163 -0.3057
 4845TIP3    H114496   4.630   6.385   3.264  1.8535 -0.1855  1.4570
 4845TIP3    H214497   4.584   6.251   3.210  1.1590  1.1658 -1.4358
 4846TIP3   OH214498   5.504   1.680   3.199  0.2198  0.1478  0.4045
 4846TIP3    H114499   5.426   1.654   3.249 -0.4391  1.6504  0.1677
 4846TIP3    H214500   5.533   1.599   3.157 -0.2701 -0.7615  1.7857
 4847TIP3   OH214501   5.668   1.582   1.758  0.0827 -0.3593  0.3927
 4847TIP3    H114502   5.610   1.658   1.749  2.0424  1.2153  0.7983
 4847TIP3    H214503   5.712   1.595   1.842  0.7060 -1.7822  0.3069
 4848TIP3   OH214504   2.496   6.717   2.007 -0.1946 -0.4726  0.0419
 4848TIP3    H114505   2.499   6.665   2.087  0.9643 -0.1766  0.2049
 4848TIP3    H214506   2.447   6.796   2.031 -0.7708 -0.8709  0.1682
 4849TIP3   OH214507   0.066   7.160   1.736 -0.3788  0.1472 -0.4884
 4849TIP3    H114508   0.083   7.248   1.770 -0.7602  0.3273 -0.7536
 4849TIP3    H214509   0.075   7.169   1.641  2.9108 -0.8601 -0.3232
 4850TIP3   OH214510   0.208   6.457   4.222 -0.6558  0.3993 -0.5801
 4850TIP3    H114511   0.208   6.552   4.211 -2.0310  0.1673 -2.7850
 4850TIP3    H214512   0.117   6.435   4.238 -0.0517 -0.3632  2.1200
 4851TIP3   OH214513   0.447   6.975   2.151 -0.5438 -0.6910 -0.1854
 4851TIP3    H114514   0.483   6.909   2.091 -0.0157 -0.3083 -0.2894
 4851TIP3    H214515   0.392   6.925   2.210  0.8869 -1.4206  0.5657
 4852TIP3   OH214516   6.659   6.618   1.902 -0.3748  0.1387 -0.2134
 4852TIP3    H114517   6.615   6.700   1.922  0.4733  0.7516 -0.8288
 4852TIP3    H214518   6.590   6.559   1.872 -0.7665  1.0893 -1.1773
 4853TIP3   OH214519   6.254   0.228   1.678  0.4062 -0.5403 -0.2797
 4853TIP3    H114520   6.246   0.297   1.744  0.6819  0.1051 -0.9060
 4853TIP3    H214521   6.322   0.170   1.711  0.7317 -0.0708 -0.1293
 4854TIP3   OH214522   2.864   6.622   0.028  0.3826  0.2513  0.2221
 4854TIP3    H114523   2.880   6.603   0.120  1.3159  0.9690  0.2132
 4854TIP3    H214524   2.923   6.564  -0.019 -1.1487 -1.1748  0.0245
 4855TIP3   OH214525   2.104   1.338   1.710  0.3444 -0.1570 -0.9652
 4855TIP3    H114526   2.026   1.295   1.745  0.7806 -0.1765 -0.0229
 4855TIP3    H214527   2.105   1.313   1.617  1.3208 -3.2917 -0.1569
 4856TIP3   OH214528   2.063   0.048   1.059 -0.1485  0.1442 -0.4627
 4856TIP3    H114529   2.077  -0.043   1.032 -1.2064 -0.0678 -0.3292
 4856TIP3    H214530   2.039   0.093   0.978 -1.9035 -0.1913 -0.1516
 4857TIP3   OH214531   6.809   0.058   3.058 -0.0846  0.4287  0.7925
 4857TIP3    H114532   6.726   0.013   3.067 -0.3205  0.1659 -2.4585
 4857TIP3    H214533   6.795   0.142   3.102 -2.5572  0.9947 -0.9878
 4858TIP3   OH214534   0.589   5.122   2.979 -0.1341  0.5131 -0.2449
 4858TIP3    H114535   0.547   5.207   2.965 -0.6761  0.2749 -0.0810
 4858TIP3    H214536   0.659   5.140   3.042 -0.0440  0.8960 -0.4512
 4859TIP3   OH214537   7.191   1.172   1.148  0.4064  0.1219 -0.3243
 4859TIP3    H114538   7.260   1.121   1.106  1.1042  0.7977 -0.0155
 4859TIP3    H214539   7.146   1.109   1.205  0.4694 -0.4268 -0.8774
 4860TIP3   OH214540   0.135   2.584   1.075 -0.2483 -0.8267  0.2854
 4860TIP3    H114541   0.218   2.543   1.102 -1.6371 -1.5891  3.6865
 4860TIP3    H214542   0.125   2.559   0.983  1.3333 -4.1722  0.9251
 4861TIP3   OH214543   3.911   2.792   4.855  0.6425 -0.2413 -0.3736
 4861TIP3    H114544   3.878   2.881   4.867 -0.5014 -0.5331 -1.3228
 4861TIP3    H214545   3.884   2.746   4.935 -0.1973 -0.1670 -0.6140
 4862TIP3   OH214546   2.180   1.937   2.516 -0.2012  0.2869 -0.2157
 4862TIP3    H114547   2.238   1.860   2.516 -0.7970 -0.1890  1.9151
 4862TIP3    H214548   2.092   1.901   2.524 -0.7839  1.0531 -2.7172
 4863TIP3   OH214549   6.562   1.739   2.900  0.1851  0.2717  0.0643
 4863TIP3    H114550   6.609   1.724   2.982  0.4049 -1.9022 -0.4384
 4863TIP3    H214551   6.564   1.655   2.855 -1.1731  1.0658 -1.5457
 4864TIP3   OH214552   1.572   1.807   6.047 -0.0104 -0.3534 -0.5614
 4864TIP3    H114553   1.514   1.880   6.024 -0.4535 -0.1126  1.2625
 4864TIP3    H214554   1.565   1.747   5.972 -3.7121 -0.9760  0.1506
 4865TIP3   OH214555   6.762   1.383   1.028  0.0150 -0.3083  0.3886
 4865TIP3    H114556   6.740   1.449   1.093 -0.5849 -0.4469  0.3287
 4865TIP3    H214557   6.719   1.412   0.948 -0.4630 -0.9067  0.4263
 4866TIP3   OH214558   4.451   6.305   2.609  0.0356 -0.0515  0.3087
 4866TIP3    H114559   4.486   6.239   2.549 -1.0265 -0.3532 -0.0014
 4866TIP3    H214560   4.526   6.333   2.661  0.6955 -0.7885 -0.2343
 4867TIP3   OH214561   4.149   6.116   1.778  0.0769 -0.1976  0.5272
 4867TIP3    H114562   4.152   6.126   1.683  0.1134  1.2428  0.6597
 4867TIP3    H214563   4.070   6.163   1.804  0.6027  0.2584  1.3004
 4868TIP3   OH214564   6.685   1.591   0.073 -0.0486 -0.2394  0.3300
 4868TIP3    H114565   6.662   1.603  -0.019  0.7168  1.4602  0.3395
 4868TIP3    H214566   6.761   1.533   0.071 -0.0126 -0.1790 -0.1267
 4869TIP3   OH214567   4.181   6.163   2.496  0.3803  0.0684 -0.1627
 4869TIP3    H114568   4.200   6.121   2.412 -1.5621 -0.3867 -0.3886
 4869TIP3    H214569   4.164   6.090   2.556 -0.5811  0.4509  0.0371
 4870TIP3   OH214570   6.622   0.343   2.507 -0.3862 -0.1146  0.0989
 4870TIP3    H114571   6.566   0.421   2.504  1.7379  1.4495  0.2521
 4870TIP3    H214572   6.583   0.288   2.575  0.1467  2.4584  2.5734
 4871TIP3   OH214573   1.312   1.872   2.335  0.1483 -0.5574 -0.3739
 4871TIP3    H114574   1.273   1.950   2.375  1.8823  0.1951 -0.1118
 4871TIP3    H214575   1.357   1.905   2.257  0.4698 -1.3813 -0.5413
 4872TIP3   OH214576   2.708   5.534   5.613 -0.0285  0.1289  0.0059
 4872TIP3    H114577   2.706   5.495   5.700  2.2318 -0.8021 -0.3280
 4872TIP3    H214578   2.668   5.621   5.625  1.9069  0.7536  2.3798
 4873TIP3   OH214579   6.068   1.547   2.871 -0.4396  0.0469 -0.4529
 4873TIP3    H114580   6.151   1.571   2.912  0.6846 -2.8496 -0.8960
 4873TIP3    H214581   6.093   1.505   2.789 -2.4592  0.9771 -1.5919
 4874TIP3   OH214582   7.655   2.185   1.621 -0.2995  0.5014  0.1240
 4874TIP3    H114583   7.618   2.148   1.701 -0.4558 -0.1931 -0.2712
 4874TIP3    H214584   7.691   2.270   1.649 -1.6406  0.9077  0.6316
 4875TIP3   OH214585   7.299   1.575   1.931 -0.3430 -0.5911  0.6522
 4875TIP3    H114586   7.359   1.572   1.857  1.3374 -0.5434  1.9872
 4875TIP3    H214587   7.351   1.547   2.006 -1.1215  2.3811  2.3938
 4876TIP3   OH214588   4.309   4.907   1.222  0.5288  0.1845 -0.6412
 4876TIP3    H114589   4.322   4.820   1.260 -0.3923 -0.2348 -1.2621
 4876TIP3    H214590   4.335   4.897   1.130 -2.1634 -0.1621 -1.4084
 4877TIP3   OH214591   6.354   6.129   1.835  0.5537  0.4802 -0.3797
 4877TIP3    H114592   6.366   6.105   1.743 -0.4136  0.5617 -0.5343
 4877TIP3    H214593   6.382   6.221   1.840 -2.8271  1.6464 -1.3933
 4878TIP3   OH214594   6.151   0.912   1.603 -0.4510 -0.0086 -0.1610
 4878TIP3    H114595   6.103   0.915   1.520  0.9170  0.1476 -0.9501
 4878TIP3    H214596   6.229   0.964   1.588 -0.0222 -0.2535  1.1300
 4879TIP3   OH214597   6.883   6.958   1.290  0.1552 -0.2696 -0.0324
 4879TIP3    H114598   6.854   6.873   1.258  0.9153 -0.6977  0.4021
 4879TIP3    H214599   6.951   6.938   1.353  2.1444  0.7424 -1.7815
 4880TIP3   OH214600   4.666   7.283   1.539  0.3134 -0.4161 -0.1570
 4880TIP3    H114601   4.669   7.341   1.463  0.1150  0.0277  0.1749
 4880TIP3    H214602   4.575   7.253   1.544  0.1753  0.0831  0.3052
 4881TIP3   OH214603   1.666   0.073   2.770 -0.6530 -0.1154  0.5849
 4881TIP3    H114604   1.625   0.158   2.757 -1.0058 -0.0150  2.1998
 4881TIP3    H214605   1.646   0.050   2.861 -0.5447 -1.9152  0.1787
 4882TIP3   OH214606   4.516   5.150   3.834 -0.0410 -0.5851  0.1917
 4882TIP3    H114607   4.492   5.240   3.855  1.1144  0.2777 -2.0555
 4882TIP3    H214608   4.609   5.153   3.815 -0.1873 -2.0645 -0.8789
 4883TIP3   OH214609   0.753   0.212   2.458  0.2685  0.2106 -0.4135
 4883TIP3    H114610   0.686   0.261   2.506 -0.7287 -1.3430 -0.1866
 4883TIP3    H214611   0.781   0.273   2.389 -1.6899  0.7491 -0.7904
 4884TIP3   OH214612   6.906   0.409   3.029  0.0065  0.3465  0.1571
 4884TIP3    H114613   6.822   0.443   3.059 -0.5217  0.1775 -1.0904
 4884TIP3    H214614   6.893   0.393   2.935  0.6496 -2.0396  0.4395
 4885TIP3   OH214615   6.291   6.444   3.775  0.2162  0.0755 -0.2925
 4885TIP3    H114616   6.234   6.421   3.702  0.5700 -4.1756  0.6617
 4885TIP3    H214617   6.362   6.379   3.772  1.9625  1.7972  1.9036
 4886TIP3   OH214618   6.629   5.743   4.069 -0.0642  0.2676  0.7445
 4886TIP3    H114619   6.714   5.701   4.082  1.8425  3.6111 -0.1947
 4886TIP3    H214620   6.596   5.758   4.157 -0.2285 -2.0997  1.0986
 4887TIP3   OH214621   5.330   6.239   3.528  0.1204 -0.0949  0.3521
 4887TIP3    H114622   5.248   6.223   3.482  0.5090  0.1096 -0.4345
 4887TIP3    H214623   5.312   6.217   3.619 -1.1139  1.0028  0.3850
 4888TIP3   OH214624   6.610   5.724   2.198  0.6827  0.5865 -0.1478
 4888TIP3    H114625   6.569   5.639   2.178 -1.1889  1.1296  1.2321
 4888TIP3    H214626   6.610   5.728   2.293  1.5098  1.7965 -0.1980
 4889TIP3   OH214627   1.184   0.839   1.946 -0.0433  0.5944 -0.3431
 4889TIP3    H114628   1.112   0.829   1.884  1.0937  0.8305 -1.7332
 4889TIP3    H214629   1.190   0.934   1.960 -0.8803  0.4800  0.8452
 4890TIP3   OH214630   1.039   0.231   3.109  0.0912 -0.6142 -0.2208
 4890TIP3    H114631   1.022   0.160   3.047 -1.3156 -0.1413 -0.4024
 4890TIP3    H214632   0.990   0.306   3.074  1.7256  0.5153 -0.1395
 4891TIP3   OH214633   6.298   6.722   3.167 -0.4072 -0.6675 -0.0866
 4891TIP3    H114634   6.301   6.659   3.095 -2.3249 -0.6960 -0.1756
 4891TIP3    H214635   6.317   6.670   3.245  1.5647 -0.6606 -0.5356
 4892TIP3   OH214636   0.311   6.725   3.333 -0.0677  0.0615 -0.4134
 4892TIP3    H114637   0.394   6.718   3.381 -1.2638  1.8626  2.0237
 4892TIP3    H214638   0.277   6.811   3.358 -1.9533 -0.0223 -2.5803
 4893TIP3   OH214639   7.360   0.228   2.194 -0.3584 -0.1670  0.1547
 4893TIP3    H114640   7.337   0.138   2.218 -1.6484  0.1486  0.1522
 4893TIP3    H214641   7.279   0.277   2.206  0.7664  1.3328  1.8102
 4894TIP3   OH214642   5.606   2.256   3.285 -0.0483 -0.0537 -0.0073
 4894TIP3    H114643   5.684   2.312   3.281 -0.0914  0.0419  0.5058
 4894TIP3    H214644   5.550   2.298   3.350  0.4072 -1.3288  1.2384
 4895TIP3   OH214645   4.111   6.717   1.480 -0.1843  0.4853  0.5603
 4895TIP3    H114646   4.056   6.749   1.408 -0.2376 -0.6460  0.0839
 4895TIP3    H214647   4.100   6.782   1.549 -1.7895  0.5103  0.3053
 4896TIP3   OH214648   6.770   5.251   3.910 -0.2718 -0.3509  0.1790
 4896TIP3    H114649   6.752   5.158   3.892 -0.9235 -0.1932  0.0077
 4896TIP3    H214650   6.688   5.284   3.948 -0.5432  0.5282 -1.1544
 4897TIP3   OH214651   6.759   5.501   2.392 -0.0936  0.4193 -0.2765
 4897TIP3    H114652   6.825   5.558   2.353 -0.2969  0.5312 -0.4567
 4897TIP3    H214653   6.807   5.449   2.456  0.0874  0.8136 -0.0915
 4898TIP3   OH214654   0.470   0.233   2.341 -0.2052 -0.8423 -0.4004
 4898TIP3    H114655   0.408   0.161   2.334 -2.3364  0.9018  0.0515
 4898TIP3    H214656   0.496   0.235   2.433 -0.5239 -0.7280 -0.3135
 4899TIP3   OH214657   4.656   6.733   1.195 -0.1075  0.2835 -0.3280
 4899TIP3    H114658   4.583   6.670   1.189  1.0338 -1.2420  1.2421
 4899TIP3    H214659   4.628   6.796   1.261 -0.1666 -0.1187  0.0400
 4900TIP3   OH214660   6.781   4.839   1.472 -0.0356 -0.2921  0.4818
 4900TIP3    H114661   6.716   4.909   1.462 -1.8970 -1.8562  1.1498
 4900TIP3    H214662   6.761   4.778   1.402  2.0549  0.1851 -0.5456
 4901TIP3   OH214663   4.832   7.229   2.139 -0.3306  0.8127 -0.5022
 4901TIP3    H114664   4.760   7.247   2.199 -0.8308  0.4885 -0.9923
 4901TIP3    H214665   4.867   7.315   2.117  0.3062  0.8937  0.7875
 4902TIP3   OH214666   4.030   4.641   3.926 -0.1850  0.1308 -0.1079
 4902TIP3    H114667   3.939   4.655   3.949 -0.2299 -0.0260 -0.1929
 4902TIP3    H214668   4.030   4.565   3.869  0.0741 -0.2953  0.4501
 4903TIP3   OH214669   6.331   0.113   1.423 -0.8396  0.3044 -0.3822
 4903TIP3    H114670   6.300   0.172   1.492  2.4291 -0.2244  1.6350
 4903TIP3    H214671   6.284   0.031   1.439 -0.3116  0.2779  1.0204
 4904TIP3   OH214672   3.370   6.173   0.787 -0.2966  0.2808 -0.0460
 4904TIP3    H114673   3.368   6.078   0.789 -0.6692  0.2180 -1.8199
 4904TIP3    H214674   3.282   6.198   0.759 -0.3316  1.1645  0.8221
 4905TIP3   OH214675   4.293   6.973   1.692  0.0082 -0.1040 -0.2750
 4905TIP3    H114676   4.254   7.052   1.730  0.5061  1.6374 -3.2317
 4905TIP3    H214677   4.219   6.914   1.676 -0.4073 -0.1337  1.6283
 4906TIP3   OH214678   5.879   0.814   1.673 -0.2968 -0.0457  0.0591
 4906TIP3    H114679   5.853   0.898   1.711 -0.5457 -0.0725 -0.0524
 4906TIP3    H214680   5.975   0.817   1.673 -0.3064  0.8548 -1.3129
 4907TIP3   OH214681   7.021   4.705   4.979 -0.6452  0.1336  0.4076
 4907TIP3    H114682   6.957   4.704   5.050 -0.7857  1.3453  0.3039
 4907TIP3    H214683   7.090   4.645   5.008  0.0340  1.7577  2.2758
 4908TIP3   OH214684   4.721   4.199   6.267 -0.3203 -0.0997  0.3505
 4908TIP3    H114685   4.709   4.294   6.265 -0.6620 -0.0879  2.2164
 4908TIP3    H214686   4.788   4.182   6.201  1.2146  1.6805  1.3842
 4909TIP3   OH214687   7.433   0.146   4.803 -0.0837  0.0566 -0.4252
 4909TIP3    H114688   7.464   0.139   4.894  2.1022 -0.6767 -1.1868
 4909TIP3    H214689   7.477   0.074   4.757 -0.6554  0.8185 -2.2124
 4910TIP3   OH214690   1.425   1.209   3.695  0.0935 -0.2359  0.2183
 4910TIP3    H114691   1.386   1.293   3.673  1.0205  0.5645  1.5717
 4910TIP3    H214692   1.505   1.205   3.643  0.8079  0.3819  1.2597
 4911TIP3   OH214693   1.176   0.052   5.885 -0.0245 -0.1964 -0.4917
 4911TIP3    H114694   1.107   0.044   5.819  0.8566  0.7420 -1.5624
 4911TIP3    H214695   1.155   0.133   5.932  1.4558  1.2415 -2.2065
 4912TIP3   OH214696   5.954   6.203   5.030 -0.6303  0.9207  0.0966
 4912TIP3    H114697   5.973   6.272   4.966 -1.0517  1.3357  0.4177
 4912TIP3    H214698   5.906   6.137   4.980  1.1705  0.0976 -0.6062
 4913TIP3   OH214699   5.092   5.836   0.814  0.5519 -0.0827  0.0657
 4913TIP3    H114700   5.180   5.866   0.792  1.3916 -1.8882  0.8635
 4913TIP3    H214701   5.098   5.808   0.906 -0.5125 -1.4313 -0.2455
 4914TIP3   OH214702   3.645   1.335   4.764 -0.1022  0.2681  0.4085
 4914TIP3    H114703   3.663   1.250   4.723 -0.4614  0.7852 -0.8428
 4914TIP3    H214704   3.716   1.392   4.736 -0.4542  0.6828  0.3438
 4915TIP3   OH214705   4.070   6.662   5.759  0.0269 -0.1963 -0.3889
 4915TIP3    H114706   4.142   6.724   5.749 -0.1955  0.0586 -0.4392
 4915TIP3    H214707   4.041   6.645   5.669 -1.0157  0.9507 -0.2909
 4916TIP3   OH214708   2.452   1.013   5.113  0.5213  0.0127 -0.4771
 4916TIP3    H114709   2.495   0.928   5.104  0.9531  0.2706 -0.8486
 4916TIP3    H214710   2.373   1.005   5.059  1.0865  0.1930 -1.3466
 4917TIP3   OH214711   2.129   0.739   4.069  0.3238 -1.1993  0.1994
 4917TIP3    H114712   2.224   0.736   4.067  0.3198 -3.1476  1.8823
 4917TIP3    H214713   2.102   0.708   3.982  1.2025 -2.0281  0.2161
 4918TIP3   OH214714   4.035   3.775   0.244  0.2690  0.3890  0.5936
 4918TIP3    H114715   4.104   3.825   0.202  1.5227 -2.9102 -1.5311
 4918TIP3    H214716   4.073   3.744   0.326  1.2882 -1.2494 -0.4775
 4919TIP3   OH214717   0.181   0.334   5.630  0.4058  0.1490 -0.3241
 4919TIP3    H114718   0.253   0.323   5.692 -1.1324 -1.6463  1.2287
 4919TIP3    H214719   0.134   0.412   5.661 -0.2770 -0.6622  0.7338
 4920TIP3   OH214720   6.984   7.110   3.896 -0.2138  0.7283 -0.5078
 4920TIP3    H114721   6.996   7.016   3.910 -2.1207  0.6401  0.7234
 4920TIP3    H214722   7.035   7.151   3.966  1.2876  0.6651 -1.5303
 4921TIP3   OH214723   6.779   0.883   5.026 -0.3980  0.0797 -0.1740
 4921TIP3    H114724   6.838   0.919   4.961  0.8891  2.5909  2.3184
 4921TIP3    H214725   6.738   0.959   5.068 -1.5620 -1.4685  1.6283
 4922TIP3   OH214726   2.777   0.222   3.576  0.3516  0.0362  0.2708
 4922TIP3    H114727   2.810   0.152   3.520 -0.1642 -0.6368  0.7991
 4922TIP3    H214728   2.834   0.221   3.653  0.4350  0.2879  0.2112
 4923TIP3   OH214729   0.839   1.743   5.637  0.4093 -0.0152  1.2393
 4923TIP3    H114730   0.911   1.768   5.695  0.0018 -1.2253  2.3060
 4923TIP3    H214731   0.804   1.663   5.677 -1.0495  0.1598  0.3225
 4924TIP3   OH214732   1.608   1.252   5.818  0.6460 -0.0154 -0.1351
 4924TIP3    H114733   1.674   1.317   5.795  0.4570  0.1647 -0.1650
 4924TIP3    H214734   1.637   1.217   5.903  1.0020 -0.2320 -0.3443
 4925TIP3   OH214735   6.177   6.578   3.973 -0.5771 -0.0036 -0.2017
 4925TIP3    H114736   6.170   6.512   4.043 -0.1472 -0.0190 -0.1709
 4925TIP3    H214737   6.230   6.536   3.906  2.0430  1.2884  0.9887
 4926TIP3   OH214738   1.502   1.011   3.454 -0.1297  0.1566  0.0370
 4926TIP3    H114739   1.571   1.057   3.503 -0.8341  1.1335  0.1338
 4926TIP3    H214740   1.438   1.080   3.434 -0.9934 -0.7137 -0.1901
 4927TIP3   OH214741   5.990   5.658   4.551  0.2103 -0.4742  0.1155
 4927TIP3    H114742   5.994   5.719   4.626 -0.3221 -1.2200  0.7552
 4927TIP3    H214743   5.907   5.680   4.507  0.0800 -0.6525  0.2721
 4928TIP3   OH214744   6.980   7.022   4.950  0.6248 -0.6355  0.5980
 4928TIP3    H114745   6.891   7.053   4.964  0.5348 -0.6435  0.0347
 4928TIP3    H214746   7.010   7.067   4.871  1.1137 -0.6468  0.7739
 4929TIP3   OH214747   3.612   1.293   4.300 -0.7700  0.3995 -0.1059
 4929TIP3    H114748   3.552   1.299   4.226 -0.5221 -0.8609 -0.4040
 4929TIP3    H214749   3.696   1.268   4.263 -0.5132  0.2906  0.5316
 4930TIP3   OH214750   5.284   0.068   1.338  0.0819 -0.6855 -0.4588
 4930TIP3    H114751   5.199   0.027   1.324 -0.3444  0.3419 -0.9353
 4930TIP3    H214752   5.282   0.147   1.284  0.3201  0.7650  1.6197
 4931TIP3   OH214753   2.429   0.102   5.534  0.1933 -0.2460 -0.5408
 4931TIP3    H114754   2.423   0.025   5.590  0.2003  0.8967  1.0702
 4931TIP3    H214755   2.521   0.127   5.537  0.3677 -0.7034 -1.8051
 4932TIP3   OH214756   7.066   5.739   4.963 -0.1520 -0.3324  0.1799
 4932TIP3    H114757   7.109   5.654   4.976 -0.3203 -0.4927 -0.3207
 4932TIP3    H214758   7.119   5.784   4.898  0.1826  0.1265  0.7585
 4933TIP3   OH214759   0.816   6.637   3.758 -0.1041 -0.5277  0.4305
 4933TIP3    H114760   0.784   6.550   3.736 -0.4228 -0.2759 -0.1217
 4933TIP3    H214761   0.883   6.622   3.825 -2.2862 -0.9531  2.5555
 4934TIP3   OH214762   1.385   1.344   5.162  0.0023  0.6312 -0.4717
 4934TIP3    H114763   1.454   1.380   5.218  0.6172  1.0757 -1.4992
 4934TIP3    H214764   1.362   1.261   5.203  1.7257  0.0948 -0.5790
 4935TIP3   OH214765   3.763   3.917   1.304 -1.0612  0.4834 -0.5361
 4935TIP3    H114766   3.761   3.830   1.264  2.4333  0.4249 -0.7236
 4935TIP3    H214767   3.722   3.906   1.389  2.0982 -2.1087  0.7511
 4936TIP3   OH214768   0.058   7.127   4.765  0.4415 -0.2127  0.3749
 4936TIP3    H114769   0.057   7.222   4.777 -1.1004 -0.1880  0.2312
 4936TIP3    H214770  -0.006   7.095   4.829 -0.4290 -0.9822 -0.8708
 4937TIP3   OH214771   3.452   0.170   4.991  0.8034 -0.4145 -0.1870
 4937TIP3    H114772   3.476   0.124   5.072  0.3141  1.3473  0.9871
 4937TIP3    H214773   3.494   0.255   4.999  0.7036 -0.2139 -1.7818
 4938TIP3   OH214774   1.660   1.182   6.085 -0.4890  0.0955  0.0202
 4938TIP3    H114775   1.699   1.176   6.173 -1.5125 -0.0271  0.4642
 4938TIP3    H214776   1.617   1.098   6.072  1.4485 -0.6893 -1.4628
 4939TIP3   OH214777   3.154   3.707   0.044 -0.0141 -0.9845 -0.3994
 4939TIP3    H114778   3.079   3.687   0.099  0.8738  0.5529  1.4443
 4939TIP3    H214779   3.163   3.803   0.049  1.7265 -1.0925 -1.0395
 4940TIP3   OH214780   0.763   1.559   4.742  0.4288 -0.0593 -0.3604
 4940TIP3    H114781   0.815   1.504   4.801  0.8111  0.8176  0.1246
 4940TIP3    H214782   0.703   1.498   4.699  0.6977 -0.8253  0.3400
 4941TIP3   OH214783   1.359   0.369   4.547 -0.6438 -0.1435  0.2301
 4941TIP3    H114784   1.420   0.338   4.480  0.2271  0.2670  0.8204
 4941TIP3    H214785   1.311   0.290   4.574 -1.1207 -0.2708 -0.9906
 4942TIP3   OH214786   4.249   4.931   0.461  0.0216  0.5024  0.2605
 4942TIP3    H114787   4.312   4.906   0.528  0.2565  1.7972  0.5412
 4942TIP3    H214788   4.218   5.017   0.487 -1.8817 -0.1066  0.1114
 4943TIP3   OH214789   6.416   6.520   5.471  0.0039 -0.7038  0.4135
 4943TIP3    H114790   6.349   6.531   5.403  0.7745 -2.3632 -0.6660
 4943TIP3    H214791   6.484   6.582   5.448  0.1102 -1.0232 -0.1384
 4944TIP3   OH214792   7.631   0.494   6.036  0.6075 -0.2958 -0.1076
 4944TIP3    H114793   7.653   0.581   6.071 -2.2884  1.2838 -1.9582
 4944TIP3    H214794   7.687   0.434   6.084  2.4115  2.5615  1.5321
 4945TIP3   OH214795   1.771   0.174   1.904  0.0308  0.0906 -0.2598
 4945TIP3    H114796   1.765   0.230   1.827  0.0986  1.3843  0.6689
 4945TIP3    H214797   1.766   0.234   1.978  0.4766 -1.0935  0.7438
 4946TIP3   OH214798   2.478   0.746   5.968 -0.0619 -0.6151  0.2633
 4946TIP3    H114799   2.533   0.823   5.948 -0.8992  0.3182  1.4697
 4946TIP3    H214800   2.484   0.737   6.063  1.1503 -2.9267 -0.0095
 4947TIP3   OH214801   3.126   4.958   1.245 -0.0707  0.3330  0.2147
 4947TIP3    H114802   3.197   4.918   1.194 -0.9641  0.1839 -0.9333
 4947TIP3    H214803   3.152   4.944   1.336  1.1375 -0.1478 -0.1802
 4948TIP3   OH214804   1.191   0.787   4.153 -0.1978  0.5548  0.5900
 4948TIP3    H114805   1.262   0.812   4.095 -1.8148  2.1268 -0.7582
 4948TIP3    H214806   1.147   0.716   4.107  0.9792 -1.0210  1.8236
 4949TIP3   OH214807   4.686   4.026   0.185  0.0134  0.0269  0.2418
 4949TIP3    H114808   4.710   4.106   0.232  2.0015 -0.0638 -0.5952
 4949TIP3    H214809   4.769   3.989   0.156 -1.0542 -0.9729 -1.6109
 4950TIP3   OH214810   3.175   0.623   6.190 -0.5408 -0.9543 -0.1872
 4950TIP3    H114811   3.084   0.654   6.187 -0.7447 -1.3270  1.3567
 4950TIP3    H214812   3.177   0.547   6.132 -1.1259 -0.7270 -0.5078
 4951TIP3   OH214813   2.320   1.271   5.088 -0.7870 -0.2708 -0.0268
 4951TIP3    H114814   2.266   1.253   5.011  0.9703 -0.5708 -1.2234
 4951TIP3    H214815   2.380   1.197   5.093  0.4647  0.7517  0.4030
 4952TIP3   OH214816   6.387   0.484   5.255  0.0521 -0.4004 -0.2971
 4952TIP3    H114817   6.395   0.397   5.295  1.8849 -0.8524 -1.6020
 4952TIP3    H214818   6.347   0.468   5.170 -1.0020  0.2218  0.0710
 4953TIP3   OH214819   1.439   7.258   5.033  0.4026 -0.2339 -0.2248
 4953TIP3    H114820   1.517   7.220   5.073  0.0316 -1.0603 -0.2781
 4953TIP3    H214821   1.379   7.274   5.106  0.0811 -0.8906 -0.3463
 4954TIP3   OH214822   2.188   0.243   4.161  0.3383  0.7781  0.1404
 4954TIP3    H114823   2.250   0.213   4.094  1.2586 -0.1193  1.3627
 4954TIP3    H214824   2.132   0.305   4.116 -0.3724 -1.3428 -2.0021
 4955TIP3   OH214825   1.314   0.542   4.807  0.8429  0.4888 -0.8100
 4955TIP3    H114826   1.340   0.486   4.734  0.7607  0.1142 -0.5525
 4955TIP3    H214827   1.355   0.503   4.884 -0.2312  0.0483 -0.4437
 4956TIP3   OH214828   2.612   0.671   4.690 -0.2438  0.0556  0.1804
 4956TIP3    H114829   2.655   0.667   4.775 -1.2422 -4.0909  0.5909
 4956TIP3    H214830   2.521   0.646   4.707 -0.0683 -2.5046 -2.2872
 4957TIP3   OH214831   3.649   0.368   5.333  0.9311  0.1304 -0.2734
 4957TIP3    H114832   3.580   0.334   5.390  1.9082 -0.6730  0.4624
 4957TIP3    H214833   3.715   0.298   5.332  0.9461  0.1442 -2.3734
 4958TIP3   OH214834   1.925   1.183   5.907 -0.3849  0.5630  0.0405
 4958TIP3    H114835   1.867   1.210   5.978 -1.3391 -1.3293 -0.0089
 4958TIP3    H214836   1.980   1.115   5.945 -0.9390 -0.5066 -1.0558
 4959TIP3   OH214837   5.841   3.692   0.687 -0.1273 -0.0267  0.0695
 4959TIP3    H114838   5.927   3.655   0.710 -0.8845 -1.6230  0.3526
 4959TIP3    H214839   5.779   3.621   0.702 -1.5183  1.1237 -0.1213
 4960TIP3   OH214840   7.535   1.526   5.317  0.0508 -0.0120 -0.1319
 4960TIP3    H114841   7.590   1.554   5.391 -1.4639  3.1026 -0.1043
 4960TIP3    H214842   7.476   1.461   5.355  0.1333  0.6130  1.0946
 4961TIP3   OH214843   4.199   3.216   0.466 -0.0115  0.4243 -0.0549
 4961TIP3    H114844   4.236   3.164   0.538  0.8989 -0.4931 -1.1510
 4961TIP3    H214845   4.227   3.305   0.484  0.2647  0.1975  0.6838
 4962TIP3   OH214846   7.237   6.568   4.935  0.4100  0.0483 -0.3111
 4962TIP3    H114847   7.237   6.489   4.881  1.7358  1.1091 -1.8986
 4962TIP3    H214848   7.245   6.640   4.873 -2.7708  1.6037  0.9449
 4963TIP3   OH214849   2.006   0.207   4.626  0.3465  0.5952  0.2617
 4963TIP3    H114850   2.056   0.286   4.649  2.1036 -0.0789 -1.0615
 4963TIP3    H214851   2.008   0.153   4.704  1.0418  0.9196  0.4714
 4964TIP3   OH214852   2.281   0.849   5.758  0.2988  0.3657  0.1718
 4964TIP3    H114853   2.305   0.934   5.721 -0.1179  1.1834  1.7707
 4964TIP3    H214854   2.230   0.807   5.688  0.3598  1.4891 -0.5675
 4965TIP3   OH214855   1.224   1.544   4.587 -0.3482 -0.0330 -0.3276
 4965TIP3    H114856   1.148   1.597   4.611  2.1922  3.7522 -0.3423
 4965TIP3    H214857   1.258   1.585   4.508  1.6091 -1.8055 -0.4341
 4966TIP3   OH214858   6.974   7.301   5.587 -0.1045  0.1989 -0.1822
 4966TIP3    H114859   7.011   7.223   5.628  0.0378  0.3771  0.0354
 4966TIP3    H214860   7.020   7.308   5.503  2.4782  2.0232  1.3013
 4967TIP3   OH214861   5.127   4.458   0.090 -0.2949 -0.1573  0.3161
 4967TIP3    H114862   5.108   4.551   0.099 -2.5877 -0.4033 -1.3770
 4967TIP3    H214863   5.066   4.416   0.150  0.1262 -0.5950  0.4343
 4968TIP3   OH214864   1.531   5.602   4.899  0.0544 -0.2273 -0.3745
 4968TIP3    H114865   1.550   5.539   4.968  1.2186 -0.3678 -0.8217
 4968TIP3    H214866   1.445   5.638   4.923  0.5851 -0.0309  1.3150
 4969TIP3   OH214867   7.736   6.862   4.896  0.0212  0.4071  0.4496
 4969TIP3    H114868   7.827   6.841   4.917  0.6897  2.0238 -0.7004
 4969TIP3    H214869   7.685   6.821   4.965  1.6183 -0.6396  1.0274
 4970TIP3   OH214870   6.462   6.624   6.211 -0.2008  0.2651 -0.0301
 4970TIP3    H114871   6.480   6.717   6.207 -0.1531  0.2192 -1.0848
 4970TIP3    H214872   6.432   6.601   6.123  0.0342 -0.7642  0.1429
 4971TIP3   OH214873   2.318   0.950   4.587  0.3761  0.2352  0.0039
 4971TIP3    H114874   2.244   1.011   4.582 -1.1644 -1.4305  1.8747
 4971TIP3    H214875   2.363   0.973   4.668  0.9168  0.0934 -0.2507
 4972TIP3   OH214876   7.221   6.289   5.694  0.0593 -0.4270 -0.1823
 4972TIP3    H114877   7.211   6.204   5.738  0.1824  0.0285  0.7390
 4972TIP3    H214878   7.138   6.333   5.709 -0.0441 -0.4290 -0.7574
 4973TIP3   OH214879   6.627   5.024   4.809 -0.2381 -0.0831  0.5971
 4973TIP3    H114880   6.692   5.069   4.863  1.2784 -1.0638 -0.3532
 4973TIP3    H214881   6.561   4.993   4.871 -1.2966  3.3223  1.2875
 4974TIP3   OH214882   4.194   7.193   4.766  0.0006 -0.4111  0.1991
 4974TIP3    H114883   4.138   7.124   4.732 -0.4071 -0.6289  1.2930
 4974TIP3    H214884   4.157   7.215   4.851 -0.5156  1.9350 -0.6089
 4975TIP3   OH214885   2.104   0.671   4.943 -0.0123 -0.1471  1.1281
 4975TIP3    H114886   2.051   0.697   5.018 -0.9856  0.1497  0.3352
 4975TIP3    H214887   2.042   0.635   4.880  0.8219 -0.5651  0.5324
 4976TIP3   OH214888   3.594   0.515   4.655 -0.2997 -0.4471 -0.5925
 4976TIP3    H114889   3.590   0.552   4.567  0.6000 -0.9459 -0.8481
 4976TIP3    H214890   3.623   0.425   4.642  0.2316 -0.4030  0.2451
 4977TIP3   OH214891   0.134   1.563   2.590 -0.0239  0.0891 -0.1471
 4977TIP3    H114892   0.218   1.517   2.589  0.1060  0.3218  0.0295
 4977TIP3    H214893   0.079   1.511   2.648  0.5962  0.9892  1.2804
 4978TIP3   OH214894   1.419   0.641   5.371 -0.3693  0.7885  0.1980
 4978TIP3    H114895   1.391   0.690   5.293 -0.0859  0.2868 -0.2260
 4978TIP3    H214896   1.338   0.604   5.406 -0.4923  0.9611  0.0944
 4979TIP3   OH214897   6.725   5.847   4.343 -0.0911  0.1508  0.1530
 4979TIP3    H114898   6.658   5.914   4.358 -0.5139  0.3932 -2.5606
 4979TIP3    H214899   6.806   5.896   4.332 -0.1021  0.1246 -0.0617
 4980TIP3   OH214900   3.300   5.436   1.605 -0.1236  0.8922  0.1034
 4980TIP3    H114901   3.279   5.423   1.698 -0.2680  3.9975  0.5572
 4980TIP3    H214902   3.215   5.443   1.562 -0.0655 -1.1539 -0.4033
 4981TIP3   OH214903   1.999   5.488   1.910  0.4993 -0.0206  0.1337
 4981TIP3    H114904   1.924   5.531   1.950  0.3292  0.6966 -0.9531
 4981TIP3    H214905   1.968   5.462   1.824  0.6453 -2.1899  0.7048
 4982TIP3   OH214906   0.918   2.383   3.917  0.5771 -0.7850 -0.0908
 4982TIP3    H114907   0.955   2.295   3.908  0.5608 -0.7575 -0.4201
 4982TIP3    H214908   0.824   2.371   3.904  0.7034 -0.5507 -1.2256
 4983TIP3   OH214909   2.075   0.710   3.193  0.2421  0.1520 -0.0712
 4983TIP3    H114910   2.109   0.755   3.116  1.0373 -0.4288 -0.0651
 4983TIP3    H214911   2.064   0.620   3.165 -1.2154  0.3143 -0.0402
 4984TIP3   OH214912   5.559   4.315   0.876  0.4543 -0.3391  0.4134
 4984TIP3    H114913   5.563   4.408   0.852 -0.6104 -0.4577 -0.2500
 4984TIP3    H214914   5.641   4.278   0.844  0.7134  0.2923  0.3357
 4985TIP3   OH214915   1.456   1.497   4.220 -0.0506 -0.2791 -0.7974
 4985TIP3    H114916   1.552   1.497   4.214  0.2561  0.1555  2.6364
 4985TIP3    H214917   1.429   1.411   4.189  1.3014  0.1280 -3.2311
 4986TIP3   OH214918   7.262   4.814   4.386 -0.0567 -0.3054  0.3947
 4986TIP3    H114919   7.192   4.807   4.320  1.5785 -1.6159 -1.2366
 4986TIP3    H214920   7.232   4.757   4.458 -0.5005 -1.1571 -0.4467
 4987TIP3   OH214921   3.449   2.850   6.211  0.6489 -0.2633 -0.4562
 4987TIP3    H114922   3.481   2.764   6.241 -1.3136 -1.6062 -2.0401
 4987TIP3    H214923   3.402   2.830   6.130  0.1546  2.3378 -0.8264
 4988TIP3   OH214924   2.787   2.612   4.438  0.5156 -0.1323 -0.3796
 4988TIP3    H114925   2.768   2.630   4.346 -0.0290  2.2497  0.1788
 4988TIP3    H214926   2.713   2.558   4.467 -0.4456  0.9695 -0.7619
 4989TIP3   OH214927   3.249   0.143   2.349  0.1718  0.3817 -0.0044
 4989TIP3    H114928   3.302   0.064   2.352 -0.7055 -0.2934 -1.7096
 4989TIP3    H214929   3.200   0.143   2.431 -0.6610 -1.4304 -0.4960
 4990TIP3   OH214930   1.261   0.216   2.726  0.2539 -0.3283 -0.0953
 4990TIP3    H114931   1.205   0.284   2.763  0.9711 -0.2367  0.8224
 4990TIP3    H214932   1.350   0.249   2.737  0.5227 -0.7177 -1.0607
 4991TIP3   OH214933   2.235   0.956   4.951  0.1493  0.7179 -0.4864
 4991TIP3    H114934   2.211   0.864   4.939  1.9857 -0.2102  2.3067
 4991TIP3    H214935   2.155   1.004   4.934 -1.1150 -1.5037 -0.9971
 4992TIP3   OH214936   3.374   1.008   3.273 -0.1157  0.5127 -0.2181
 4992TIP3    H114937   3.371   1.100   3.248  2.4810  0.9569  0.9661
 4992TIP3    H214938   3.342   1.006   3.363  2.2022  0.6172  0.6221
 4993TIP3   OH214939   3.564   1.895   4.237  0.3341 -0.0460 -0.3094
 4993TIP3    H114940   3.493   1.856   4.286 -0.5556  0.7596 -0.9316
 4993TIP3    H214941   3.643   1.869   4.284 -0.1818 -2.8634 -0.8857
 4994TIP3   OH214942   4.119   1.587   3.789 -0.4716 -0.1530  0.2104
 4994TIP3    H114943   4.085   1.640   3.861 -1.3303 -0.4582  0.0457
 4994TIP3    H214944   4.042   1.570   3.734  0.1992  0.1725 -0.8397
 4995TIP3   OH214945   7.494   6.768   5.022 -0.3319 -0.5069 -0.0235
 4995TIP3    H114946   7.486   6.706   4.949  1.4181  0.2492 -0.9082
 4995TIP3    H214947   7.503   6.712   5.099 -1.2650 -1.3310 -0.4967
 4996TIP3   OH214948   0.284   5.344   4.818 -0.0589 -0.0164 -0.3421
 4996TIP3    H114949   0.247   5.397   4.888  1.1568 -0.7280  0.8729
 4996TIP3    H214950   0.247   5.256   4.834 -1.4484  0.2634 -1.8739
 4997TIP3   OH214951   5.162   3.502   0.512  0.3897 -0.0740 -0.0033
 4997TIP3    H114952   5.072   3.533   0.513  0.0864 -0.9388  1.5406
 4997TIP3    H214953   5.156   3.414   0.474  0.3827 -0.6535  1.3096
 4998TIP3   OH214954   7.532   6.267   4.430 -0.0965 -0.0165  0.2990
 4998TIP3    H114955   7.477   6.320   4.372 -1.3095  0.5024  1.8698
 4998TIP3    H214956   7.469   6.212   4.478  0.9510 -1.0970  0.4633
 4999TIP3   OH214957   6.618   2.300   0.623  0.4075  0.2146  0.1589
 4999TIP3    H114958   6.641   2.357   0.696  0.9154  0.0481  0.1278
 4999TIP3    H214959   6.530   2.268   0.645 -0.0539  1.3353 -0.0351
 5000TIP3   OH214960   0.139   5.554   4.287  0.6640  0.4426  0.0644
 5000TIP3    H114961   0.189   5.510   4.356  1.1620  0.9843  0.0506
 5000TIP3    H214962   0.128   5.643   4.319  0.6788  0.6243 -0.4430
 5001TIP3   OH214963   2.639   0.690   3.172 -0.0452  0.1497 -0.4916
 5001TIP3    H114964   2.663   0.720   3.084 -0.8755  2.9146  0.1467
 5001TIP3    H214965   2.583   0.614   3.158 -1.2530  1.3617 -2.4189
 5002TIP3   OH214966   4.500   0.070   4.458 -0.2539 -0.6533 -1.0376
 5002TIP3    H114967   4.591   0.099   4.458 -1.1784  2.4425 -0.3185
 5002TIP3    H214968   4.488   0.032   4.545 -0.2727  1.2435 -0.1680
 5003TIP3   OH214969   6.606   3.752   0.126 -0.5770  0.3570 -0.3349
 5003TIP3    H114970   6.683   3.744   0.070  0.7199 -0.7455  1.5499
 5003TIP3    H214971   6.535   3.775   0.066  1.2043  1.3740 -2.1074
 5004TIP3   OH214972   7.691   7.084   5.529  0.1723  0.1629  0.1563
 5004TIP3    H114973   7.672   7.167   5.572  0.2016 -0.2957  1.0612
 5004TIP3    H214974   7.755   7.041   5.585  1.0426  0.0312 -0.9101
 5005TIP3   OH214975   5.432   5.789   0.608  0.3481  0.6202  0.8379
 5005TIP3    H114976   5.423   5.851   0.681 -0.6329  2.9869 -1.2550
 5005TIP3    H214977   5.441   5.844   0.530 -0.5546 -1.8770 -1.0766
 5006TIP3   OH214978   3.001   2.364   2.698 -0.0809 -0.2086 -0.3559
 5006TIP3    H114979   3.022   2.408   2.616 -1.0783  0.8288 -0.0759
 5006TIP3    H214980   3.082   2.367   2.749  0.2140  0.1778 -0.8455
 5007TIP3   OH214981   2.422   3.560   5.112 -0.0887 -0.3496 -0.2484
 5007TIP3    H114982   2.371   3.546   5.192 -0.5838 -0.4432 -0.5774
 5007TIP3    H214983   2.367   3.524   5.042 -0.9256  2.2604 -0.9849
 5008TIP3   OH214984   3.679   0.702   4.828 -0.0631 -0.1393  0.2872
 5008TIP3    H114985   3.667   0.623   4.775 -0.1512 -1.1152  1.7415
 5008TIP3    H214986   3.772   0.703   4.848 -0.4663 -1.2587  2.3566
 5009TIP3   OH214987   5.366   1.628   2.028 -0.2232 -0.2165 -0.3035
 5009TIP3    H114988   5.291   1.570   2.039 -1.3979  1.1359 -1.0686
 5009TIP3    H214989   5.442   1.572   2.044 -1.3551 -1.8419 -0.5054
 5010TIP3   OH214990   3.940   0.775   4.057  0.5043  0.3138 -0.2091
 5010TIP3    H114991   3.991   0.791   3.978 -0.0292  0.6962 -0.4787
 5010TIP3    H214992   3.850   0.763   4.026  0.6980 -2.1565  0.0781
 5011TIP3   OH214993   4.090   4.792   4.363  0.4132  0.0361 -0.1752
 5011TIP3    H114994   4.168   4.746   4.332 -0.5014  0.1672 -2.8213
 5011TIP3    H214995   4.076   4.758   4.452  2.1315 -1.7043 -0.5241
 5012TIP3   OH214996   3.809   0.439   3.102  0.0585 -0.5332  0.0967
 5012TIP3    H114997   3.726   0.457   3.057 -0.8983 -3.5489  0.5014
 5012TIP3    H214998   3.802   0.487   3.184 -0.7337  0.3039 -0.4477
 5013TIP3   OH214999   2.537   1.882   3.654  0.3169  0.2819 -0.1647
 5013TIP3    H115000   2.452   1.839   3.646 -0.0860  0.8261  1.1364
 5013TIP3    H215001   2.599   1.810   3.666 -0.2193 -0.0186  0.8976
 5014TIP3   OH215002   2.460   0.053   5.242 -0.5029 -0.1912  0.0731
 5014TIP3    H115003   2.389   0.029   5.302  1.9252 -1.4579  2.5467
 5014TIP3    H215004   2.527   0.091   5.299  0.7702  1.0653 -2.2324
 5015TIP3   OH215005   2.622   2.696   2.480  0.2411  0.7256  0.4003
 5015TIP3    H115006   2.693   2.760   2.470  1.1170 -0.2055  0.5605
 5015TIP3    H215007   2.630   2.666   2.571 -0.3331  0.5771  0.4062
 5016TIP3   OH215008   1.690   7.196   5.186 -0.0782 -0.2168 -0.3962
 5016TIP3    H115009   1.669   7.221   5.276  0.1615  0.3586 -0.4982
 5016TIP3    H215010   1.785   7.185   5.185  0.0287  0.7008 -0.8045
 5017TIP3   OH215011   3.818   4.958   0.138  0.3909  0.1320 -0.4008
 5017TIP3    H115012   3.871   4.993   0.209 -0.5092  0.3563  0.1770
 5017TIP3    H215013   3.876   4.898   0.092  0.1864 -2.2325  2.2639
 5018TIP3   OH215014   0.514   0.487   5.505 -0.4428  0.1623  0.2403
 5018TIP3    H115015   0.561   0.441   5.436  0.0065 -0.4176  0.9257
 5018TIP3    H215016   0.448   0.425   5.535 -0.0058  0.0579  0.9897
 5019TIP3   OH215017   1.667   7.340   2.885 -0.5742 -0.3070 -0.5395
 5019TIP3    H115018   1.621   7.406   2.832 -0.9931 -0.3352 -0.2093
 5019TIP3    H215019   1.703   7.280   2.821  0.6482  0.7820 -0.9022
 5020TIP3   OH215020   7.283   6.851   5.723 -0.1417 -0.2288 -0.8729
 5020TIP3    H115021   7.289   6.810   5.809  0.2524  0.1212 -0.7307
 5020TIP3    H215022   7.360   6.820   5.675 -1.2890 -1.8244 -1.7205
 5021TIP3   OH215023   4.749   1.118   4.046  0.0021 -0.1074  0.1863
 5021TIP3    H115024   4.783   1.118   4.136  0.5808 -0.1587 -0.0278
 5021TIP3    H215025   4.801   1.051   4.002  1.3022  1.5357 -0.7846
 5022TIP3   OH215026   1.253   7.289   5.981 -0.3762 -0.0625  0.0847
 5022TIP3    H115027   1.172   7.282   5.932  0.6238 -0.3050 -1.5935
 5022TIP3    H215028   1.318   7.245   5.925  1.2668  1.7422  0.5309
 5023TIP3   OH215029   7.202   5.648   4.589  0.3765 -0.7130 -0.0663
 5023TIP3    H115030   7.165   5.564   4.564 -1.5567  0.4357 -1.2430
 5023TIP3    H215031   7.296   5.639   4.573  0.1312 -2.5093 -0.5375
 5024TIP3   OH215032   6.406   6.170   4.342  0.5696  0.0864  1.3471
 5024TIP3    H115033   6.349   6.100   4.312  0.4145  0.6495  0.2692
 5024TIP3    H215034   6.354   6.218   4.407  1.3627 -1.8996  3.5066
 5025TIP3   OH215035   0.372   0.720   5.500  1.2100  0.1218  0.1231
 5025TIP3    H115036   0.310   0.693   5.432 -0.2971 -0.7553  1.7895
 5025TIP3    H215037   0.438   0.651   5.501  1.2847  0.1866 -0.5351
 5026TIP3   OH215038   3.347   0.805   6.299 -0.0618  0.0529  0.4598
 5026TIP3    H115039   3.434   0.780   6.268  0.5059 -0.2223  2.2240
 5026TIP3    H215040   3.287   0.754   6.245  0.8747 -0.0469 -0.5089
 5027TIP3   OH215041   6.191   4.874  -0.015  0.0094 -0.0283 -0.5649
 5027TIP3    H115042   6.190   4.956   0.035  1.4676 -0.0797 -0.4433
 5027TIP3    H215043   6.186   4.806   0.051  0.9914 -0.0791 -0.5452
 5028TIP3   OH215044   2.534   1.536   2.656  0.1007 -0.2077  0.0679
 5028TIP3    H115045   2.532   1.519   2.750 -1.9944  2.0501  0.4761
 5028TIP3    H215046   2.610   1.593   2.643 -0.1072  0.1839  0.5457
 5029TIP3   OH215047   4.890   5.915   0.453 -0.1669 -0.0207 -0.1306
 5029TIP3    H115048   4.918   5.954   0.535  0.1417  1.2712 -0.8332
 5029TIP3    H215049   4.796   5.930   0.450 -0.4446 -1.5060  0.7294
 5030TIP3   OH215050   2.498   1.242   4.019 -0.3796 -0.0731  0.5890
 5030TIP3    H115051   2.493   1.159   3.971  1.0124  0.2528 -0.1493
 5030TIP3    H215052   2.502   1.217   4.111  1.5471 -0.9115  0.2986
 5031TIP3   OH215053   3.701   2.630   4.532  0.3535  0.6442 -0.2663
 5031TIP3    H115054   3.740   2.566   4.472 -1.1038 -0.5216 -0.0178
 5031TIP3    H215055   3.633   2.672   4.479  0.7363  1.3912 -0.1671
 5032TIP3   OH215056   1.188   6.961   5.837  0.3396  0.4627  0.3412
 5032TIP3    H115057   1.261   7.013   5.802  0.6058 -1.3534 -1.8981
 5032TIP3    H215058   1.229   6.906   5.904  1.0002 -0.2989 -0.6627
 5033TIP3   OH215059   3.582   0.946   5.831 -0.0592  0.0058  0.1986
 5033TIP3    H115060   3.540   0.998   5.899 -0.5290 -1.5107  1.0839
 5033TIP3    H215061   3.666   0.919   5.869  0.5081  0.7031 -0.5294
 5034TIP3   OH215062   1.339   6.804   4.986 -0.4846  0.2110  0.5382
 5034TIP3    H115063   1.341   6.877   4.924  0.7094  0.8772  1.3573
 5034TIP3    H215064   1.414   6.818   5.043  0.1856 -2.0797  0.2518
 5035TIP3   OH215065   4.175   0.956   4.802 -0.5950 -0.0567  0.2680
 5035TIP3    H115066   4.190   1.023   4.869  2.1596  0.9366 -1.2729
 5035TIP3    H215067   4.125   1.000   4.734 -1.7453 -0.5582  0.7587
 5036TIP3   OH215068   7.195   6.077   5.881  0.4332 -0.2551  0.1535
 5036TIP3    H115069   7.202   6.143   5.950  0.5096  0.3143 -0.3926
 5036TIP3    H215070   7.270   6.019   5.894 -0.8238 -1.5397  1.9845
 5037TIP3   OH215071   1.487   5.923   4.011  0.0898 -0.3262  0.7971
 5037TIP3    H115072   1.425   5.851   3.997 -0.3518  0.2939 -0.6270
 5037TIP3    H215073   1.447   5.977   4.079 -0.3859 -0.5369  0.6843
 5038TIP3   OH215074   0.512   4.985   4.138 -0.2054  0.3269 -0.3894
 5038TIP3    H115075   0.444   4.965   4.073 -0.7418 -0.5951  0.4417
 5038TIP3    H215076   0.464   4.996   4.220  0.3961  2.2084 -0.2782
 5039TIP3   OH215077   0.700   5.864   6.332  0.2883 -0.0401  0.5150
 5039TIP3    H115078   0.736   5.892   6.248 -0.4024  1.0302  0.5701
 5039TIP3    H215079   0.652   5.784   6.312 -0.4575  0.5949 -0.2301
 5040TIP3   OH215080   4.969   6.152   1.040  0.6317  0.2850 -0.5505
 5040TIP3    H115081   4.955   6.198   0.957 -1.1723  0.6864 -0.0538
 5040TIP3    H215082   4.887   6.104   1.055  1.4579 -0.8770  0.3258
 5041TIP3   OH215083   3.191   0.939   5.683  0.1749  0.1857 -0.0940
 5041TIP3    H115084   3.229   0.872   5.741  0.3693  0.3082 -0.0779
 5041TIP3    H215085   3.251   0.942   5.609 -0.4725 -0.4979 -0.6555
 5042TIP3   OH215086   4.264   4.588   0.157  0.3438  0.2454 -0.5490
 5042TIP3    H115087   4.297   4.498   0.158  0.3346  0.2392 -0.9694
 5042TIP3    H215088   4.244   4.607   0.249  1.0729  0.0867 -0.3563
 5043TIP3   OH215089   3.154   0.402   4.391  0.2617  0.7518 -0.0750
 5043TIP3    H115090   3.142   0.359   4.476 -3.9328 -0.2641 -1.0454
 5043TIP3    H215091   3.199   0.337   4.337  0.3932  0.3123  0.5645
 5044TIP3   OH215092   0.698   6.155   3.730  0.3534  0.7229  0.0195
 5044TIP3    H115093   0.758   6.088   3.696 -1.6943 -1.5704  0.7840
 5044TIP3    H215094   0.720   6.162   3.822 -0.1257  0.3145  0.1683
 5045TIP3   OH215095   2.512   1.152   5.826  0.2528 -0.7328 -0.0227
 5045TIP3    H115096   2.571   1.163   5.752 -0.9187 -1.8221 -1.1512
 5045TIP3    H215097   2.424   1.165   5.789 -0.3508 -1.1885  1.1944
 5046TIP3   OH215098   2.090   6.864   3.535 -0.2228 -0.0678  0.4374
 5046TIP3    H115099   2.172   6.815   3.546  0.2235  1.1313  2.9500
 5046TIP3    H215100   2.114   6.955   3.555 -1.9868  0.4112  0.4208
 5047TIP3   OH215101   6.925   3.931   5.248 -0.0308 -0.0873  0.1370
 5047TIP3    H115102   7.018   3.939   5.225 -0.0093 -0.5374  0.0503
 5047TIP3    H215103   6.905   4.011   5.296 -0.1971  1.1046 -1.8820
 5048TIP3   OH215104   1.805   1.966   6.016 -0.2214 -0.0592 -0.5118
 5048TIP3    H115105   1.746   1.893   6.035 -0.6827  0.3805 -0.2315
 5048TIP3    H215106   1.878   1.954   6.076  0.4151 -1.1099 -1.4790
 5049TIP3   OH215107   7.373   3.613   0.573 -0.0125 -0.3036 -0.5185
 5049TIP3    H115108   7.382   3.655   0.488  0.2553 -0.3785 -0.5269
 5049TIP3    H215109   7.282   3.630   0.599  0.4380  1.3412  0.0315
 5050TIP3   OH215110   4.372   0.012   4.215 -0.1874  0.0183  0.0438
 5050TIP3    H115111   4.416   0.037   4.296 -1.1690  0.6354  0.3940
 5050TIP3    H215112   4.440   0.018   4.148  0.8136 -1.1976  0.9193
 5051TIP3   OH215113   7.350   0.341   0.161 -0.7075  0.1925  0.4387
 5051TIP3    H115114   7.303   0.310   0.083  0.4076 -1.5488  0.4102
 5051TIP3    H215115   7.294   0.318   0.234 -0.9626  0.2418  0.2583
 5052TIP3   OH215116   5.280   2.897   0.946  0.1730  0.4458  0.4694
 5052TIP3    H115117   5.314   2.809   0.957 -1.6369 -0.2541  0.6670
 5052TIP3    H215118   5.188   2.890   0.970 -0.1773  2.2147 -0.2882
 5053TIP3   OH215119   1.066   0.900   5.286  0.0370  1.0420 -0.0959
 5053TIP3    H115120   1.007   0.839   5.329  0.8632  0.9260  0.8950
 5053TIP3    H215121   1.112   0.943   5.358  2.3253 -0.0262 -0.8688
 5054TIP3   OH215122   7.541   5.285   1.029 -0.8805  0.6584 -0.4143
 5054TIP3    H115123   7.588   5.340   0.966 -1.1996  0.0694 -1.1688
 5054TIP3    H215124   7.602   5.275   1.102 -0.4920  1.3056 -0.6430
 5055TIP3   OH215125   5.963   3.573   3.936  0.4064 -0.3209  0.2805
 5055TIP3    H115126   5.891   3.533   3.887  1.2413 -0.5848 -0.7690
 5055TIP3    H215127   5.984   3.510   4.004  0.4081 -0.7801 -0.1404
 5056TIP3   OH215128   0.798   5.635   4.961  0.1080 -0.4216 -0.3253
 5056TIP3    H115129   0.770   5.649   4.871  2.3210 -2.9883 -1.4836
 5056TIP3    H215130   0.889   5.664   4.963  0.1600 -0.6311  1.0277
 5057TIP3   OH215131   0.906   6.941   4.622  0.0934 -0.5911  0.9237
 5057TIP3    H115132   0.993   6.904   4.639  0.7538  0.4585 -0.0899
 5057TIP3    H215133   0.907   6.961   4.528 -0.0751  2.3972  1.5123
 5058TIP3   OH215134   5.000   3.910   1.005  0.1084  0.5073 -0.2003
 5058TIP3    H115135   4.943   3.891   1.080  2.3045 -2.0543  0.9088
 5058TIP3    H215136   4.968   3.852   0.936  1.0099 -0.5263  0.2458
 5059TIP3   OH215137   7.492   3.388   0.690 -0.1885 -0.1897 -0.3872
 5059TIP3    H115138   7.449   3.463   0.650  0.8665 -0.0004 -1.1823
 5059TIP3    H215139   7.585   3.408   0.685  0.1115 -1.5865 -0.6997
 5060TIP3   OH215140   4.561   0.666   5.238 -0.0824  0.4783 -0.0122
 5060TIP3    H115141   4.569   0.573   5.218 -0.2329  0.9172 -2.3426
 5060TIP3    H215142   4.469   0.686   5.221 -0.4025  0.7604  1.9400
 5061TIP3   OH215143   3.766   2.394   3.776  0.0738 -0.0707  0.4542
 5061TIP3    H115144   3.815   2.431   3.703  1.1264 -2.2156  0.0395
 5061TIP3    H215145   3.797   2.444   3.853 -1.3862  2.5081 -0.5733
 5062TIP3   OH215146   4.101   0.919   4.401 -0.8182  0.6409 -0.0271
 5062TIP3    H115147   4.061   0.995   4.358 -1.4479  0.8010  0.8383
 5062TIP3    H215148   4.041   0.897   4.472 -1.5194 -1.7197 -1.3100
 5063TIP3   OH215149   3.810   0.111   3.170  0.6156 -0.2327  0.1959
 5063TIP3    H115150   3.888   0.165   3.184 -0.7159  1.8592 -0.1551
 5063TIP3    H215151   3.774   0.143   3.087 -2.2176  0.9124  1.7810
 5064TIP3   OH215152   3.353   0.914   2.794  0.0209 -0.4507 -0.2071
 5064TIP3    H115153   3.339   0.827   2.756 -1.4377 -0.5347  0.5016
 5064TIP3    H215154   3.305   0.913   2.876 -0.2347  1.1232 -0.3138
 5065TIP3   OH215155   6.641   6.708   5.403 -0.1479 -0.4301  0.2059
 5065TIP3    H115156   6.602   6.794   5.393  0.6609  0.2221  2.5053
 5065TIP3    H215157   6.674   6.686   5.315 -0.0262  1.7490 -0.3103
 5066TIP3   OH215158   2.815   1.585   3.246  0.3551  0.0222  0.3825
 5066TIP3    H115159   2.770   1.535   3.315 -1.8311 -0.0713 -1.0566
 5066TIP3    H215160   2.787   1.675   3.259  0.7057  0.1586  0.2003
 5067TIP3   OH215161   4.607   5.965   0.467  0.0476 -0.4855 -0.3392
 5067TIP3    H115162   4.525   6.002   0.500 -0.7822 -2.6104  0.0727
 5067TIP3    H215163   4.585   5.874   0.446  1.9842 -0.7167 -1.4428
 5068TIP3   OH215164   1.099   1.659   3.882 -0.2199 -0.5541 -0.1946
 5068TIP3    H115165   1.188   1.624   3.871  0.1062  0.3840 -0.6102
 5068TIP3    H215166   1.093   1.678   3.975  0.1116 -0.3821 -0.2051
 5069TIP3   OH215167   7.364   6.509   5.163 -0.2971  0.4579  0.0013
 5069TIP3    H115168   7.435   6.449   5.139  0.6120  0.7662  1.8298
 5069TIP3    H215169   7.302   6.503   5.090  1.0203 -0.7396 -1.0529
 5070TIP3   OH215170   3.473   1.256   3.725  0.0988  0.3688  0.3382
 5070TIP3    H115171   3.472   1.346   3.758  0.6421  1.3205 -2.1199
 5070TIP3    H215172   3.388   1.245   3.684  0.1939 -0.0942  0.2678
 5071TIP3   OH215173   1.938   1.605   3.427  0.2341 -0.4614  0.8403
 5071TIP3    H115174   1.866   1.577   3.369 -0.0640  0.7774  0.6086
 5071TIP3    H215175   2.010   1.626   3.367 -0.4540  1.9569  0.8258
 5072TIP3   OH215176   4.763   1.785   3.434 -0.0299  0.4429 -0.6221
 5072TIP3    H115177   4.710   1.826   3.503  1.1078  1.9937 -0.6457
 5072TIP3    H215178   4.721   1.812   3.352  0.7593  1.6710 -0.6406
 5073TIP3   OH215179   3.020   3.020   2.569 -0.2204 -0.1891  0.1208
 5073TIP3    H115180   3.029   3.090   2.634  0.2650  0.5150 -0.6875
 5073TIP3    H215181   3.076   2.950   2.602  0.0222  0.1628  0.4683
 5074TIP3   OH215182   4.236   4.788   2.743 -0.3763  0.3332  0.1685
 5074TIP3    H115183   4.263   4.717   2.801  0.4358 -0.1268 -0.7541
 5074TIP3    H215184   4.296   4.782   2.668  1.0745  3.2268  1.0003
 5075TIP3   OH215185   0.168   7.281   3.280 -0.0762  0.3192  0.1333
 5075TIP3    H115186   0.153   7.216   3.211  0.1326  0.1367  0.2606
 5075TIP3    H215187   0.080   7.310   3.305 -0.2685 -1.3119  1.4213
 5076TIP3   OH215188   0.323   5.795   4.141  0.0257  0.7045 -0.7180
 5076TIP3    H115189   0.327   5.750   4.226 -1.0346 -1.0691 -1.5800
 5076TIP3    H215190   0.368   5.878   4.156  2.1851 -0.6904  0.9003
 5077TIP3   OH215191   4.949   6.659   6.039  0.4831 -0.2674 -0.5449
 5077TIP3    H115192   4.898   6.583   6.063  0.1509 -0.6266 -2.2728
 5077TIP3    H215193   5.007   6.628   5.969  0.6588  0.9446 -0.9556
 5078TIP3   OH215194   3.546   2.868   3.417 -0.4658 -0.6054 -0.1958
 5078TIP3    H115195   3.626   2.872   3.470 -0.1827 -1.8782 -0.5120
 5078TIP3    H215196   3.476   2.887   3.479 -0.1086 -1.7693  0.5928
 5079TIP3   OH215197   4.136   0.721   3.353  0.0963  0.1727 -0.1215
 5079TIP3    H115198   4.108   0.811   3.372  0.1524  0.2454 -0.3797
 5079TIP3    H215199   4.200   0.701   3.422 -1.3490 -0.3677  1.1063
 5080TIP3   OH215200   0.611   6.073   4.882  0.8242 -1.0326 -0.4401
 5080TIP3    H115201   0.577   6.006   4.942 -0.2523  1.7634  2.2138
 5080TIP3    H215202   0.705   6.055   4.877  1.2098 -0.6025  3.2218
 5081TIP3   OH215203   0.484   5.336   5.063 -0.9033  0.1721  0.1396
 5081TIP3    H115204   0.405   5.327   5.115 -1.2856 -2.1202 -0.7534
 5081TIP3    H215205   0.520   5.247   5.058  0.7661  0.8739 -0.9261
 5082TIP3   OH215206   5.547   4.410   5.813  0.2050  0.0325 -0.0142
 5082TIP3    H115207   5.557   4.487   5.757  0.1277 -0.1536 -0.2824
 5082TIP3    H215208   5.472   4.430   5.868  0.1230  0.1100 -0.1526
 5083TIP3   OH215209   5.193   1.568   4.067  0.3406 -0.0623  0.1998
 5083TIP3    H115210   5.122   1.588   4.129 -0.8936  2.8675 -2.0348
 5083TIP3    H215211   5.149   1.541   3.987  1.8025 -0.1219 -0.6043
 5084TIP3   OH215212   7.722   7.068   5.943 -0.5244 -0.3394  0.2483
 5084TIP3    H115213   7.728   7.157   5.978 -0.3608 -0.4274  0.4474
 5084TIP3    H215214   7.633   7.062   5.909 -0.8377 -0.4018  1.0597
 5085TIP3   OH215215   2.574   2.291   5.300  0.2354 -0.2101 -0.3109
 5085TIP3    H115216   2.584   2.347   5.224  0.2622 -1.2345 -1.0699
 5085TIP3    H215217   2.662   2.283   5.336 -0.0034  1.4972  0.7337
 5086TIP3   OH215218   6.568   6.927   4.993 -0.1263  0.1654 -0.2795
 5086TIP3    H115219   6.624   6.870   4.940  1.0973 -0.9659  2.1653
 5086TIP3    H215220   6.487   6.934   4.943  0.9512 -0.9638 -2.2429
 5087TIP3   OH215221   2.675   1.966   5.004 -0.0788 -0.3347 -0.4246
 5087TIP3    H115222   2.766   1.939   5.014  0.5956  2.3317  1.1718
 5087TIP3    H215223   2.670   1.996   4.913  0.6481 -0.5634 -0.5466
 5088TIP3   OH215224   0.260   0.916   0.296  0.7263 -0.6236 -0.3166
 5088TIP3    H115225   0.330   0.854   0.274 -1.4975 -2.6283 -1.9829
 5088TIP3    H215226   0.225   0.943   0.212 -0.3596  0.5727  0.4997
 5089TIP3   OH215227   2.613   0.782   4.179  0.2280  0.0374  0.8613
 5089TIP3    H115228   2.684   0.841   4.203 -0.1124  0.2968  1.2407
 5089TIP3    H215229   2.565   0.767   4.260 -2.4916  3.0334 -0.0367
 5090TIP3   OH215230   3.503   2.479   3.695 -0.2766  0.2889  0.3349
 5090TIP3    H115231   3.469   2.408   3.641 -0.6658  0.3289  0.5260
 5090TIP3    H215232   3.582   2.443   3.736  0.7062  0.6303 -1.1788
 5091TIP3   OH215233   5.313   1.315   5.426  0.5132  0.0674 -0.8840
 5091TIP3    H115234   5.304   1.222   5.449  3.3332 -0.4747 -1.7584
 5091TIP3    H215235   5.383   1.347   5.482 -0.1846  1.5825 -0.8639
 5092TIP3   OH215236   5.556   4.911   0.192 -0.3419 -0.2919 -0.2083
 5092TIP3    H115237   5.584   4.828   0.230  2.4105  0.5464 -0.3125
 5092TIP3    H215238   5.473   4.930   0.236  1.1846 -0.9192  3.0932
 5093TIP3   OH215239   2.302   2.481   4.721  0.1968  0.1787  0.0007
 5093TIP3    H115240   2.234   2.440   4.668 -1.2174  0.8042  1.2668
 5093TIP3    H215241   2.257   2.503   4.803  1.9573  0.5377  0.8843
 5094TIP3   OH215242   2.950   0.601   4.673  0.1409 -0.5218  0.1187
 5094TIP3    H115243   2.959   0.509   4.698  2.3433 -0.0719  1.1426
 5094TIP3    H215244   2.937   0.647   4.755 -1.0454  0.0900 -0.4000
 5095TIP3   OH215245   1.877   6.890   5.112  0.1350 -0.1358  0.0202
 5095TIP3    H115246   1.959   6.925   5.148  2.1798 -2.9364 -1.6438
 5095TIP3    H215247   1.861   6.942   5.033  0.4478  0.2630  0.2182
 5096TIP3   OH215248   4.871   3.181   0.123  0.1403  0.0425 -0.6837
 5096TIP3    H115249   4.967   3.177   0.114  0.1769 -2.6084  0.4687
 5096TIP3    H215250   4.854   3.270   0.153  2.2864  0.4237 -0.4628
 5097TIP3   OH215251   3.708   1.089   4.994 -0.0388  0.3548  0.0516
 5097TIP3    H115252   3.744   1.177   4.986 -0.6579  0.5428 -0.6948
 5097TIP3    H215253   3.701   1.057   4.903 -1.9390  0.3976  0.1724
 5098TIP3   OH215254   5.497   4.376   0.567 -0.0655 -0.7951 -0.4327
 5098TIP3    H115255   5.413   4.385   0.611  0.3622 -1.1184  0.4630
 5098TIP3    H215256   5.540   4.461   0.579  0.2348 -1.0245  0.1877
 5099TIP3   OH215257   0.660   6.757   5.201 -0.5718 -0.5061 -0.2287
 5099TIP3    H115258   0.657   6.668   5.236  1.9271  0.4670  2.7033
 5099TIP3    H215259   0.742   6.761   5.152 -0.7406  0.1251 -0.4644
 5100TIP3   OH215260   6.069   6.960   5.650  0.2694  0.1402  0.1180
 5100TIP3    H115261   6.033   6.966   5.561 -1.7340  0.4941  0.9238
 5100TIP3    H215262   5.996   6.929   5.703  1.3452  0.2948  1.7116
 5101TIP3   OH215263   5.036   0.480   5.241 -0.2091 -0.2266  0.5034
 5101TIP3    H115264   5.039   0.394   5.285 -0.4653 -0.8609 -0.6902
 5101TIP3    H215265   5.123   0.516   5.252  0.3988 -1.3766 -0.4064
 5102TIP3   OH215266   4.472   0.872   3.381 -0.0358 -0.4493  0.3161
 5102TIP3    H115267   4.389   0.868   3.430 -0.5397 -1.2280 -0.5750
 5102TIP3    H215268   4.478   0.963   3.352 -1.5089 -0.8175 -1.1748
 5103TIP3   OH215269   2.882   1.597   6.074  0.3164  0.5409 -0.0917
 5103TIP3    H115270   2.941   1.526   6.098 -1.8776 -1.3059  0.0329
 5103TIP3    H215271   2.920   1.634   5.995  3.0069  1.0934  1.3983
 5104TIP3   OH215272   2.037   0.986   5.538 -0.1107 -0.2592 -0.4747
 5104TIP3    H115273   1.990   1.023   5.613  1.5318  0.0335  0.4466
 5104TIP3    H215274   1.968   0.952   5.481 -1.4229 -0.0283  0.9232
 5105TIP3   OH215275   5.394   4.433   1.442 -0.1315  0.1879  0.8017
 5105TIP3    H115276   5.459   4.423   1.372 -0.6460  1.8039  0.0699
 5105TIP3    H215277   5.446   4.440   1.522  0.4867 -1.0495  0.5282
 5106TIP3   OH215278   2.719   0.530   3.582 -0.3316 -0.3881  0.6474
 5106TIP3    H115279   2.746   0.439   3.591 -1.2302 -0.7247  0.0341
 5106TIP3    H215280   2.722   0.565   3.671 -1.8375 -1.5580  1.1771
 5107TIP3   OH215281   1.938   1.567   4.001  0.4172 -0.2218  0.1165
 5107TIP3    H115282   1.925   1.652   4.042  0.1012 -0.0686 -0.2980
 5107TIP3    H215283   2.027   1.542   4.025  0.1715 -0.2261  1.0636
 5108TIP3   OH215284   4.955   0.886   5.952  0.7204  0.5738 -0.1841
 5108TIP3    H115285   4.920   0.876   5.863  0.6869 -0.2156 -0.0824
 5108TIP3    H215286   4.883   0.924   6.002  0.4051  0.0693 -0.2556
 5109TIP3   OH215287   5.125   4.724   0.582 -0.4150 -0.6693 -0.2572
 5109TIP3    H115288   5.112   4.784   0.655  0.2873  0.4594 -1.0466
 5109TIP3    H215289   5.050   4.739   0.525  0.8607  1.0503 -1.5272
 5110TIP3   OH215290   3.574   0.977   4.205  0.0283 -0.4735  0.0976
 5110TIP3    H115291   3.534   1.060   4.177 -0.5075 -0.8388 -0.2188
 5110TIP3    H215292   3.540   0.912   4.143  1.0010 -0.8127 -0.0991
 5111TIP3   OH215293   6.534   6.811   4.705  0.3521 -0.3679 -0.1292
 5111TIP3    H115294   6.579   6.820   4.621  0.3034  1.8246  0.0447
 5111TIP3    H215295   6.517   6.718   4.713  1.5764 -0.7753 -1.9211
 5112TIP3   OH215296   4.476   1.219   5.798 -0.0485  0.1041  0.7700
 5112TIP3    H115297   4.405   1.155   5.804 -0.3707  0.4918  1.1080
 5112TIP3    H215298   4.508   1.229   5.888  0.9736 -0.6705  0.5009
 5113TIP3   OH215299   4.159   1.826   4.203 -0.3093  0.1884 -0.4511
 5113TIP3    H115300   4.096   1.898   4.205  1.3165  1.6452 -0.9453
 5113TIP3    H215301   4.125   1.766   4.137 -1.3500  0.8046 -0.4800
 5114TIP3   OH215302   3.880   2.127   5.445  0.6693 -0.4463 -0.4157
 5114TIP3    H115303   3.822   2.126   5.369 -0.0786 -1.4560  0.1476
 5114TIP3    H215304   3.921   2.213   5.443 -1.7477  0.7462 -0.1496
 5115TIP3   OH215305   3.244   1.263   3.190  0.1111 -0.0614 -0.2448
 5115TIP3    H115306   3.177   1.210   3.148  0.0428  1.3690 -1.9993
 5115TIP3    H215307   3.216   1.353   3.174  2.0474  0.5445 -0.3327
 5116TIP3   OH215308   4.073   2.301   2.592 -0.5420  0.0234  0.2681
 5116TIP3    H115309   4.167   2.293   2.578 -0.6076 -0.1401 -0.0905
 5116TIP3    H215310   4.060   2.393   2.617 -0.3606  0.2101 -0.3068
 5117TIP3   OH215311   2.698   0.689   5.596  0.3788 -0.0024  0.3198
 5117TIP3    H115312   2.793   0.700   5.589  0.1321  1.0685 -1.6072
 5117TIP3    H215313   2.663   0.777   5.582 -0.8618 -0.1873  2.1422
 5118TIP3   OH215314   3.670   0.587   2.837  0.0851 -0.1035  0.4299
 5118TIP3    H115315   3.635   0.509   2.879 -0.6938 -0.4941 -0.9244
 5118TIP3    H215316   3.631   0.660   2.885  2.1832 -0.5088  2.8455
 5119TIP3   OH215317   4.345   0.116   5.068 -0.2243 -0.0579  0.6590
 5119TIP3    H115318   4.334   0.023   5.090 -0.5801  0.3921  2.4980
 5119TIP3    H215319   4.430   0.140   5.106 -0.5216  0.5781  0.9269
 5120TIP3   OH215320   5.207   0.751   6.253 -0.0678 -0.5306 -0.1953
 5120TIP3    H115321   5.165   0.717   6.174 -1.5153 -1.0709  0.7890
 5120TIP3    H215322   5.278   0.690   6.271 -0.2201 -0.8358 -0.6326
 5121TIP3   OH215323   1.667   0.745   4.715  0.6927 -0.2853  0.3061
 5121TIP3    H115324   1.654   0.684   4.642 -1.3831 -1.3057  1.4705
 5121TIP3    H215325   1.583   0.791   4.722  1.4845  1.0877  0.9240
 5122TIP3   OH215326   0.631   6.512   5.570  0.3979 -0.2161  0.3879
 5122TIP3    H115327   0.543   6.549   5.557  0.1766 -0.9460 -0.2004
 5122TIP3    H215328   0.618   6.440   5.631  0.8249  0.6308  1.4961
 5123TIP3   OH215329   3.210   1.377   4.178 -0.6701 -0.3415  0.0256
 5123TIP3    H115330   3.208   1.302   4.118  1.4766  0.3960 -0.9815
 5123TIP3    H215331   3.298   1.413   4.169 -0.6819  0.4667  2.8014
 5124TIP3   OH215332   6.307   2.948   0.877 -0.1825 -0.2012 -0.1289
 5124TIP3    H115333   6.295   2.888   0.804 -2.1214  0.7559 -0.6402
 5124TIP3    H215334   6.306   2.892   0.955  1.0402 -1.1312 -0.7619
 5125TIP3   OH215335   2.629   6.822   4.121 -0.3235  0.1705 -0.0165
 5125TIP3    H115336   2.621   6.917   4.135  1.5142  0.4933 -0.9251
 5125TIP3    H215337   2.721   6.803   4.142 -0.1009 -1.0157 -1.9776
 5126TIP3   OH215338   3.449   0.267   5.636  0.1191  0.5087 -0.6462
 5126TIP3    H115339   3.486   0.220   5.561 -1.1151 -2.8450  0.7857
 5126TIP3    H215340   3.357   0.278   5.614  0.3824  2.3248 -0.9540
 5127TIP3   OH215341   4.808   0.484   5.053 -0.0526  0.1119 -0.0952
 5127TIP3    H115342   4.811   0.406   4.998  1.4725  1.3507 -1.8336
 5127TIP3    H215343   4.885   0.477   5.109 -0.4766 -0.1241  0.4649
 5128TIP3   OH215344   4.201   2.360   1.593 -0.0199 -0.6420 -0.5258
 5128TIP3    H115345   4.113   2.396   1.599  0.4584  0.4556  0.1722
 5128TIP3    H215346   4.191   2.278   1.544 -1.1376  0.4693 -2.2089
 5129TIP3   OH215347   5.361   4.055   1.598 -0.2806 -0.0038 -0.3745
 5129TIP3    H115348   5.386   4.052   1.505  0.5460  0.3285 -0.1637
 5129TIP3    H215349   5.266   4.041   1.597 -0.3798  0.6382 -1.3223
 5130TIP3   OH215350   3.404   2.231   4.100  0.1489 -0.0010 -0.1719
 5130TIP3    H115351   3.409   2.315   4.055  1.4130 -0.7494 -1.4499
 5130TIP3    H215352   3.484   2.185   4.075 -1.3406 -2.2770 -0.8740
 5131TIP3   OH215353   2.520   4.916   0.115 -0.1833 -0.2873 -0.0529
 5131TIP3    H115354   2.591   4.855   0.095 -0.5869 -0.6667 -0.3377
 5131TIP3    H215355   2.483   4.884   0.197 -0.8751 -0.8686 -0.5841
 5132TIP3   OH215356   2.392   1.505   3.925 -0.0749 -0.1230  0.1950
 5132TIP3    H115357   2.300   1.511   3.952 -0.8070 -1.9223 -1.8068
 5132TIP3    H215358   2.418   1.416   3.947  1.4081  0.5617  1.3124
 5133TIP3   OH215359   3.918   0.857   5.460 -0.2879  0.4226 -0.2202
 5133TIP3    H115360   3.832   0.852   5.503 -0.6949 -1.0947 -1.1695
 5133TIP3    H215361   3.899   0.892   5.373 -0.2134 -1.6422 -1.0950
 5134TIP3   OH215362   1.977   1.984   5.392  0.1073  0.2976  0.1536
 5134TIP3    H115363   1.991   1.892   5.368 -0.1044 -0.0270  1.2597
 5134TIP3    H215364   1.911   2.016   5.331 -0.1366 -0.4109  0.0497
 5135TIP3   OH215365   1.965   0.120   3.186 -0.5253  0.2863  0.1749
 5135TIP3    H115366   1.878   0.158   3.179 -0.3481  0.4970 -1.0473
 5135TIP3    H215367   2.005   0.164   3.261 -0.7588  1.6481 -0.4857
 5136TIP3   OH215368   5.703   5.525   0.113 -0.2252  0.2130 -0.2471
 5136TIP3    H115369   5.693   5.604   0.060 -1.0133 -0.9016 -1.7677
 5136TIP3    H215370   5.730   5.457   0.052  2.4410 -0.2804  1.3666
 5137TIP3   OH215371   2.265   2.274   5.977  0.3196 -0.2753  0.2173
 5137TIP3    H115372   2.171   2.261   5.962  0.4034 -1.1870  0.4374
 5137TIP3    H215373   2.290   2.344   5.917 -0.7030  0.6473  0.8365
 5138TIP3   OH215374   3.767   1.815   4.448 -0.3317 -0.4150  0.2803
 5138TIP3    H115375   3.738   1.725   4.464 -0.9265 -0.1452  0.7366
 5138TIP3    H215376   3.860   1.815   4.472 -0.6395 -0.5960  1.4996
 5139TIP3   OH215377   4.400   0.987   5.543  0.0687 -0.6102  0.0233
 5139TIP3    H115378   4.414   1.081   5.539 -1.6750 -0.3558 -0.5188
 5139TIP3    H215379   4.306   0.976   5.530  0.1459 -2.3811  0.8187
 5140TIP3   OH215380   3.704   2.757   5.071 -0.0497 -0.2136  0.3416
 5140TIP3    H115381   3.641   2.700   5.114 -0.4608 -0.4412 -0.5529
 5140TIP3    H215382   3.651   2.826   5.031  0.2902 -0.1889 -0.0812
 5141TIP3   OH215383   6.665   2.968   0.178  0.1732  0.2351 -0.1020
 5141TIP3    H115384   6.690   2.965   0.271  1.3476  0.2872 -0.4100
 5141TIP3    H215385   6.578   3.008   0.178 -0.1887 -0.5452  1.0488
 5142TIP3   OH215386   1.676   1.541   3.623  0.4407 -0.2051  0.0936
 5142TIP3    H115387   1.701   1.496   3.703  0.0415  0.3813  0.5494
 5142TIP3    H215388   1.718   1.491   3.553 -0.7789 -1.8627  0.5275
 5143TIP3   OH215389   6.132   7.070   3.456 -0.2573  0.3327 -0.5960
 5143TIP3    H115390   6.157   7.027   3.538  0.9213  2.1451  0.0370
 5143TIP3    H215391   6.056   7.021   3.425 -0.2168 -0.8834  1.1649
 5144TIP3   OH215392   3.837   1.478   1.439 -0.4349  0.2285  0.7497
 5144TIP3    H115393   3.760   1.522   1.403 -0.3887  0.4180  0.8796
 5144TIP3    H215394   3.813   1.386   1.443 -0.9579  0.4032  1.5928
 5145TIP3   OH215395   2.103   2.522   5.867 -0.0582  0.0789  0.2034
 5145TIP3    H115396   2.172   2.586   5.847  0.2720 -0.3850 -0.1416
 5145TIP3    H215397   2.031   2.575   5.903  0.8109  0.4649  1.4168
 5146TIP3   OH215398   3.519   4.853   0.335 -0.1081  0.0768 -0.2509
 5146TIP3    H115399   3.596   4.826   0.286  1.3510  0.7304  1.6285
 5146TIP3    H215400   3.532   4.946   0.353 -0.2644 -0.2978  1.9474
 5147TIP3   OH215401   2.714   2.593   6.250  0.2302 -1.1430 -0.1730
 5147TIP3    H115402   2.756   2.637   6.324 -1.0393  0.0729 -0.1711
 5147TIP3    H215403   2.672   2.516   6.289 -0.5436 -0.4345  0.3991
 5148TIP3   OH215404   6.447   2.548   4.956 -0.2524 -0.2788 -0.1737
 5148TIP3    H115405   6.510   2.525   4.888  0.8077 -0.8823  0.9939
 5148TIP3    H215406   6.455   2.643   4.964 -0.7847 -0.1338 -1.2712
 5149TIP3   OH215407   1.443   3.764   1.855  0.8290 -0.0567 -0.2224
 5149TIP3    H115408   1.495   3.707   1.912  0.8739 -2.5454 -2.6615
 5149TIP3    H215409   1.354   3.731   1.863  0.4625  1.0337  0.1588
 5150TIP3   OH215410   4.347   2.166   4.856 -0.7844 -0.2634 -0.0539
 5150TIP3    H115411   4.277   2.153   4.792 -0.9200 -0.7183  0.1810
 5150TIP3    H215412   4.417   2.210   4.807 -0.8705 -0.6478 -0.5234
 5151TIP3   OH215413   5.276   0.673   5.853  0.3397 -0.3170 -0.3763
 5151TIP3    H115414   5.340   0.625   5.906  0.3220  0.3927  0.2950
 5151TIP3    H215415   5.194   0.662   5.900  0.2636  0.0576 -0.4257
 5152TIP3   OH215416   3.958   2.081   3.061  0.4660  0.8074 -0.3239
 5152TIP3    H115417   3.996   2.160   3.101  1.8592 -0.5782  1.1451
 5152TIP3    H215418   3.893   2.052   3.124 -2.8861  2.9206 -2.6328
 5153TIP3   OH215419   0.728   6.661   2.294  0.3846  0.4008  0.1792
 5153TIP3    H115420   0.668   6.711   2.239 -0.3398 -1.1515 -0.4803
 5153TIP3    H215421   0.711   6.693   2.383 -0.3786  1.0212 -0.1796
 5154TIP3   OH215422   7.750   5.811   4.716 -0.1496 -0.2679 -0.0577
 5154TIP3    H115423   7.770   5.900   4.687 -0.0768 -0.4650 -0.6166
 5154TIP3    H215424   7.714   5.822   4.805  0.0699  0.2949 -0.0389
 5155TIP3   OH215425   3.842   1.314   5.087 -0.5195  0.0607  0.1623
 5155TIP3    H115426   3.906   1.310   5.159 -0.5791 -0.8732  0.1737
 5155TIP3    H215427   3.767   1.361   5.124 -0.3092  0.1210  0.5190
 5156TIP3   OH215428   0.759   0.342   3.554 -0.4160  0.4739 -0.0013
 5156TIP3    H115429   0.681   0.308   3.509 -0.6436  1.5347 -0.4443
 5156TIP3    H215430   0.830   0.327   3.492 -0.2419 -0.6223  0.4608
 5157TIP3   OH215431   7.550   0.243   5.104  0.3629  0.4399  0.4297
 5157TIP3    H115432   7.644   0.241   5.091  0.3093  0.8182 -0.0026
 5157TIP3    H215433   7.532   0.330   5.139  0.1874  0.3235  0.6379
 5158TIP3   OH215434   1.363   6.596   4.075 -0.9689  0.0587  0.2873
 5158TIP3    H115435   1.448   6.614   4.035 -0.6742  0.1947  0.9704
 5158TIP3    H215436   1.314   6.677   4.063 -1.0072 -0.0215 -0.1135
 5159TIP3   OH215437   3.456   6.014   5.052  0.6176  0.0369  0.8366
 5159TIP3    H115438   3.491   6.097   5.021 -1.3806  0.1601 -1.1939
 5159TIP3    H215439   3.473   5.952   4.982  0.2821 -0.7935  1.4770
 5160TIP3   OH215440   1.573   6.863   5.155  0.2563  0.1662  0.0167
 5160TIP3    H115441   1.569   6.946   5.202  0.6365 -0.1688  0.6353
 5160TIP3    H215442   1.666   6.838   5.157 -0.2874 -1.8481  2.5783
 5161TIP3   OH215443   3.448   6.520   3.369 -0.0283  0.6681 -0.5010
 5161TIP3    H115444   3.416   6.452   3.310  0.0316  0.8664 -0.7625
 5161TIP3    H215445   3.486   6.472   3.443  0.4488  0.4147 -0.9110
 5162TIP3   OH215446   4.812   0.958   4.662  0.6113  0.2002 -0.2853
 5162TIP3    H115447   4.892   0.939   4.711  1.0013  3.1045  0.3317
 5162TIP3    H215448   4.829   1.043   4.622 -0.3856 -1.2901 -4.0589
 5163TIP3   OH215449   4.175   1.508   4.770 -0.3923  0.4303  0.1100
 5163TIP3    H115450   4.191   1.495   4.864 -2.0575  0.6538  0.4279
 5163TIP3    H215451   4.195   1.423   4.731 -0.8154 -0.0015  0.8106
 5164TIP3   OH215452   5.824   2.665   5.803  0.4645  0.6044 -0.5689
 5164TIP3    H115453   5.757   2.638   5.865  0.3147  0.0396 -0.9734
 5164TIP3    H215454   5.900   2.611   5.824  1.1382  1.9840  0.5753
 5165TIP3   OH215455   0.853   6.896   4.951  0.0261  0.1077  0.5278
 5165TIP3    H115456   0.924   6.849   4.993  1.8881  0.9140 -1.6012
 5165TIP3    H215457   0.845   6.856   4.864 -0.2472  1.8200 -0.2685
 5166TIP3   OH215458   2.255   6.369   6.065 -0.1112 -0.2124  0.0879
 5166TIP3    H115459   2.321   6.331   6.008  1.8574 -0.2979  2.3365
 5166TIP3    H215460   2.246   6.306   6.137  1.3935  2.2811  2.5844
 5167TIP3   OH215461   5.942   2.034   3.126 -0.4182 -0.3217 -0.4967
 5167TIP3    H115462   6.019   2.015   3.072  1.2052  1.4658  1.0928
 5167TIP3    H215463   5.931   1.957   3.181 -0.3315 -0.9651 -1.3750
 5168TIP3   OH215464   6.593   0.427   5.022  0.2628 -0.3556 -0.0235
 5168TIP3    H115465   6.676   0.404   4.978  0.7794  0.6613  0.4087
 5168TIP3    H215466   6.585   0.521   5.008  0.9595  0.1855  2.9579
 5169TIP3   OH215467   7.611   1.045   3.038  0.2544  0.3154 -0.6450
 5169TIP3    H115468   7.533   1.101   3.038 -0.3108 -0.4619 -1.6159
 5169TIP3    H215469   7.582   0.965   3.082  1.2669  1.0382  1.4031
 5170TIP3   OH215470   4.047   2.267   3.906 -0.3057 -0.7503 -0.1449
 5170TIP3    H115471   4.086   2.318   3.835 -0.8486  0.2025  0.2355
 5170TIP3    H215472   4.104   2.285   3.981 -0.2862 -0.9891 -0.1042
 5171TIP3   OH215473   0.556   0.809   4.417 -0.7072 -0.3859 -0.1591
 5171TIP3    H115474   0.482   0.767   4.373 -1.8110  1.4862 -0.1647
 5171TIP3    H215475   0.542   0.789   4.510 -0.0194 -1.8286 -0.3499
 5172TIP3   OH215476   5.987   2.406   5.834 -0.2562  0.1688  0.2776
 5172TIP3    H115477   5.963   2.410   5.742  1.7964  0.3443 -0.2820
 5172TIP3    H215478   6.021   2.317   5.846 -0.4762  0.1573  0.8518
 5173TIP3   OH215479   6.652   0.673   4.893  0.0095 -0.4084  0.1484
 5173TIP3    H115480   6.695   0.751   4.928 -1.0715  0.4309 -0.3820
 5173TIP3    H215481   6.591   0.707   4.827 -1.2314 -1.6091  0.6629
 5174TIP3   OH215482   5.769   1.888   3.514 -0.5459 -0.0332 -0.1269
 5174TIP3    H115483   5.734   1.807   3.550 -1.6140 -0.3977 -1.9035
 5174TIP3    H215484   5.735   1.891   3.425 -1.4385  2.9472  0.2704
 5175TIP3   OH215485   2.659   6.790   5.108  0.1782  0.1802  0.2577
 5175TIP3    H115486   2.700   6.827   5.029 -0.8197 -0.7039 -0.6792
 5175TIP3    H215487   2.725   6.802   5.176  1.1691  0.6934 -0.7700
 5176TIP3   OH215488   5.657   0.231   6.265 -0.0912  0.5373  0.2147
 5176TIP3    H115489   5.703   0.177   6.329  0.8987  1.9392  0.7267
 5176TIP3    H215490   5.707   0.219   6.184 -1.2317 -1.0895 -0.2626
 5177TIP3   OH215491   3.916   7.208   4.756  0.0028  0.0497 -0.3134
 5177TIP3    H115492   3.901   7.216   4.662 -0.2818 -1.5039 -0.4235
 5177TIP3    H215493   3.845   7.151   4.786 -0.7740  1.7112  1.1051
 5178TIP3   OH215494   7.471   1.549   4.588  0.3897  0.0181  0.5392
 5178TIP3    H115495   7.411   1.540   4.663  0.2265 -0.6092  0.3375
 5178TIP3    H215496   7.492   1.459   4.564 -0.3495  0.1847 -0.8059
 5179TIP3   OH215497   2.683   0.145   5.745 -0.1586 -0.2834  0.4037
 5179TIP3    H115498   2.676   0.239   5.765  1.1532 -0.1646  0.3080
 5179TIP3    H215499   2.693   0.142   5.650 -0.2632 -0.5349  0.4004
 5180TIP3   OH215500   3.210   0.915   5.034  0.4562 -0.0144  0.1696
 5180TIP3    H115501   3.296   0.924   4.991  0.0994 -3.2554 -1.3793
 5180TIP3    H215502   3.152   0.968   4.980  0.8870 -0.4808 -0.7891
 5181TIP3   OH215503   0.367   5.365   0.777  0.6282 -0.1667  0.3276
 5181TIP3    H115504   0.377   5.289   0.834  0.4563 -0.2186  0.2894
 5181TIP3    H215505   0.323   5.330   0.699 -0.5906  0.2170  0.8392
 5182TIP3   OH215506   5.847   1.009   4.641 -0.3822  0.3282 -0.2239
 5182TIP3    H115507   5.790   1.015   4.718  1.4674 -0.4776  1.2575
 5182TIP3    H215508   5.856   1.099   4.610 -2.1336  0.5096 -0.2456
 5183TIP3   OH215509   4.793   0.431   6.293  0.5241  0.2153 -0.0353
 5183TIP3    H115510   4.869   0.398   6.243 -0.2659 -2.3527  0.3866
 5183TIP3    H215511   4.766   0.357   6.347 -3.1620  0.6220 -1.1920
 5184TIP3   OH215512   6.355   2.686   4.446 -0.1634 -0.2044  0.4741
 5184TIP3    H115513   6.330   2.749   4.513 -0.6395 -0.6471  0.7120
 5184TIP3    H215514   6.273   2.664   4.402  0.2377  0.6021 -0.7159
 5185TIP3   OH215515   0.823   3.803   0.202  0.0735 -0.5720  0.8283
 5185TIP3    H115516   0.778   3.875   0.247  0.8037 -0.4114  1.3046
 5185TIP3    H215517   0.915   3.830   0.200  0.3848 -1.6019  1.2133
 5186TIP3   OH215518   3.501   1.097   5.210 -0.5491  0.4315 -0.6982
 5186TIP3    H115519   3.450   1.174   5.186 -1.6991 -0.7484 -2.1454
 5186TIP3    H215520   3.579   1.101   5.154  0.4741  1.6924  0.7906
 5187TIP3   OH215521   2.716   5.812   3.417  0.2258  0.0516  0.7768
 5187TIP3    H115522   2.740   5.721   3.400 -0.2820 -0.1694  1.2038
 5187TIP3    H215523   2.622   5.808   3.436  0.0261  0.7774 -0.0423
 5188TIP3   OH215524   4.225   2.841   4.864  0.1631  0.4924 -0.3907
 5188TIP3    H115525   4.131   2.820   4.870  0.6268 -1.3218  0.8376
 5188TIP3    H215526   4.245   2.886   4.946  1.1341 -2.3593  0.9826
 5189TIP3   OH215527   4.703   3.728   5.349  0.1530 -1.2113 -0.1873
 5189TIP3    H115528   4.646   3.794   5.311  1.0935 -0.8158 -0.9277
 5189TIP3    H215529   4.647   3.680   5.410 -0.2612  0.9567  1.1695
 5190TIP3   OH215530   6.051   3.246   5.628 -0.6234  0.3096  0.4387
 5190TIP3    H115531   5.989   3.302   5.581 -0.6152  0.6514  0.8317
 5190TIP3    H215532   6.128   3.241   5.570 -0.2242  1.5342  0.8542
 5191TIP3   OH215533   2.724   7.066   3.944  0.0187 -0.6268 -0.4655
 5191TIP3    H115534   2.793   7.109   3.994 -0.0476 -1.3850  0.2846
 5191TIP3    H215535   2.663   7.136   3.922  0.0562 -0.2790  0.5107
 5192TIP3   OH215536   5.201   2.933   5.494 -0.6488  0.1805 -0.4648
 5192TIP3    H115537   5.246   2.851   5.510  1.6824  1.3522 -0.7623
 5192TIP3    H215538   5.182   2.968   5.581 -1.3358 -0.4670 -0.3416
 5193TIP3   OH215539   6.501   2.476   3.800 -0.1212  0.5123 -0.0336
 5193TIP3    H115540   6.493   2.410   3.869 -0.8354  1.1614  0.5184
 5193TIP3    H215541   6.462   2.555   3.838 -1.5045  0.5979 -1.5550
 5194TIP3   OH215542   5.161   1.994   3.096  0.8022  0.3062  0.5902
 5194TIP3    H115543   5.179   2.058   3.164 -1.1646  0.6285  0.8285
 5194TIP3    H215544   5.072   1.963   3.114 -1.0062  2.6607 -3.5568
 5195TIP3   OH215545   7.490   0.676   5.406 -0.6195 -0.3305  0.0358
 5195TIP3    H115546   7.480   0.613   5.334 -1.4567 -0.0476 -0.0907
 5195TIP3    H215547   7.489   0.762   5.364  0.2528 -0.2062  0.2415
 5196TIP3   OH215548   3.403   0.296   3.699 -0.1790 -0.2443  0.2229
 5196TIP3    H115549   3.352   0.238   3.642 -2.3560  0.9895  0.8680
 5196TIP3    H215550   3.450   0.354   3.638  0.6252 -1.5050 -0.3758
 5197TIP3   OH215551   3.608   1.167   4.560  0.5103  0.0883 -0.5189
 5197TIP3    H115552   3.623   1.076   4.535  0.3372 -0.3409  0.8653
 5197TIP3    H215553   3.602   1.215   4.477 -2.1724 -1.6115 -1.3561
 5198TIP3   OH215554   6.346   1.530   3.858 -0.0929  0.0055  0.4774
 5198TIP3    H115555   6.352   1.605   3.917  1.8173  1.1240 -1.0738
 5198TIP3    H215556   6.383   1.457   3.908 -4.0215 -0.5090  2.8322
 5199TIP3   OH215557   3.060   0.488   5.091  0.3655 -0.4288 -0.0992
 5199TIP3    H115558   3.122   0.543   5.041  1.7533 -0.6279  1.3587
 5199TIP3    H215559   3.072   0.400   5.055 -0.5327 -0.1181 -1.1836
 5200TIP3   OH215560   5.450   1.195   3.992 -0.5963  0.3145 -0.5541
 5200TIP3    H115561   5.543   1.201   4.013 -0.5435 -0.4076 -0.5827
 5200TIP3    H215562   5.410   1.267   4.041 -0.0349  0.5951 -0.5000
 5201TIP3   OH215563   2.720   7.238   4.380  0.1103  0.7573  0.2493
 5201TIP3    H115564   2.698   7.330   4.364  1.1106  0.7659 -1.1482
 5201TIP3    H215565   2.659   7.189   4.325 -0.1760  0.5929  0.7121
 5202TIP3   OH215566   5.373   1.736   5.384 -0.0940  0.3603  0.5084
 5202TIP3    H115567   5.418   1.655   5.357 -1.6259  0.1490 -1.5238
 5202TIP3    H215568   5.400   1.800   5.319 -0.7520  0.8859  0.7620
 5203TIP3   OH215569   6.246   0.903   4.569 -0.0455 -0.1613  0.2537
 5203TIP3    H115570   6.201   0.833   4.520 -0.7287  1.1497 -1.0385
 5203TIP3    H215571   6.335   0.871   4.580 -0.4638 -1.4388  0.0763
 5204TIP3   OH215572   7.700   7.280   5.738  0.2918  0.3741 -0.2962
 5204TIP3    H115573   7.647   7.300   5.815  1.2194  3.4510 -0.3689
 5204TIP3    H215574   7.785   7.322   5.756  1.0235 -0.1627 -2.3398
 5205TIP3   OH215575   4.811   3.284   4.044 -0.0999 -0.4054 -0.2654
 5205TIP3    H115576   4.896   3.287   3.999  0.0092 -1.1336 -0.1114
 5205TIP3    H215577   4.798   3.191   4.063 -0.3054 -0.1417  0.9028
 5206TIP3   OH215578   2.346   1.252   4.535  0.0749  0.3829 -0.0076
 5206TIP3    H115579   2.328   1.319   4.600  1.2212  0.5350  0.1504
 5206TIP3    H215580   2.278   1.186   4.550 -1.4580  1.7908 -0.5907
 5207TIP3   OH215581   3.738   6.333   4.291  0.3146 -0.6279 -0.0769
 5207TIP3    H115582   3.792   6.403   4.328 -1.0388  0.6314 -0.4612
 5207TIP3    H215583   3.649   6.354   4.318  0.1417 -3.5049  1.8188
 5208TIP3   OH215584   3.319   2.627   2.954  0.4550 -0.0067  0.0305
 5208TIP3    H115585   3.312   2.589   3.042 -2.0458 -0.4633 -0.3192
 5208TIP3    H215586   3.331   2.720   2.969 -0.3702 -0.0206  0.8880
 5209TIP3   OH215587   4.337   0.631   5.558  0.1868 -0.4603 -0.2260
 5209TIP3    H115588   4.243   0.624   5.537  0.3313  0.5983 -1.2754
 5209TIP3    H215589   4.379   0.566   5.501  0.1480 -0.5168 -0.1896
 5210TIP3   OH215590   5.244   0.441   4.794 -0.1816  0.0570  0.3966
 5210TIP3    H115591   5.219   0.385   4.721 -1.4920  2.3918 -1.0282
 5210TIP3    H215592   5.162   0.482   4.821  0.3557 -0.4724  2.9514
 5211TIP3   OH215593   5.666   3.070   4.455  0.3040 -0.3695 -0.2124
 5211TIP3    H115594   5.599   3.132   4.428  0.1552  0.6675  2.3704
 5211TIP3    H215595   5.695   3.029   4.374  0.4823  3.1384 -2.0318
 5212TIP3   OH215596   3.917   1.422   5.907  0.5120 -0.4410 -0.0540
 5212TIP3    H115597   3.891   1.429   5.999 -2.1284 -2.8625 -0.5422
 5212TIP3    H215598   3.866   1.348   5.874  1.8743  0.0261 -3.3265
 5213TIP3   OH215599   4.649   1.398   5.228 -0.0011  0.5253  0.9013
 5213TIP3    H115600   4.679   1.322   5.178  2.1987  1.5994  0.5559
 5213TIP3    H215601   4.687   1.386   5.315 -1.2932  0.2379  1.4400
 5214TIP3   OH215602   2.717   6.066   4.283  0.0904 -0.2627  0.1499
 5214TIP3    H115603   2.706   6.129   4.212 -1.0439 -0.7753 -0.1416
 5214TIP3    H215604   2.787   6.008   4.253 -1.3622 -1.3581 -1.2056
 5215TIP3   OH215605   5.795   2.038   4.388  0.1042 -0.0946 -0.2122
 5215TIP3    H115606   5.735   2.062   4.459  1.6830  1.3300  0.6744
 5215TIP3    H215607   5.837   2.120   4.362 -0.3090 -0.6244 -2.7036
 5216TIP3   OH215608   2.919   5.075   3.592  0.0894  0.5199 -0.3156
 5216TIP3    H115609   2.992   5.014   3.585 -0.3968 -0.0391 -0.5553
 5216TIP3    H215610   2.959   5.157   3.622  0.6204 -0.1744  0.9130
 5217TIP3   OH215611   0.204   2.958   0.217 -0.3572  0.3193  0.5260
 5217TIP3    H115612   0.245   2.952   0.130 -0.6558 -0.8054  0.4513
 5217TIP3    H215613   0.118   2.996   0.200 -1.8756 -3.2159 -0.1966
 5218TIP3   OH215614   2.848   1.031   3.845  0.1437  0.0397  0.6190
 5218TIP3    H115615   2.908   1.011   3.773 -1.3430 -1.6457 -0.2116
 5218TIP3    H215616   2.855   0.955   3.903 -1.5327 -0.4088  0.2525
 5219TIP3   OH215617   5.072   0.347   4.361  0.1338 -0.0393 -0.0716
 5219TIP3    H115618   5.065   0.422   4.302  0.0637  0.0196  0.0108
 5219TIP3    H215619   5.138   0.291   4.321  0.6495  0.3678  0.2019
 5220TIP3   OH215620   5.074   1.865   5.093 -0.3274  0.4770 -0.1074
 5220TIP3    H115621   4.992   1.876   5.141  0.5565 -0.3866  1.6780
 5220TIP3    H215622   5.094   1.772   5.100  0.4374  0.5536 -1.1425
 5221TIP3   OH215623   4.063   2.114   1.718 -0.1259 -0.1536  0.8303
 5221TIP3    H115624   4.022   2.037   1.679  0.2540 -0.5206  1.1536
 5221TIP3    H215625   4.008   2.187   1.690  0.3817 -0.3592 -0.7407
 5222TIP3   OH215626   4.262   1.341   3.516  0.0991 -0.5371  0.5826
 5222TIP3    H115627   4.204   1.293   3.575  0.4586 -2.5652 -0.6903
 5222TIP3    H215628   4.209   1.415   3.486 -0.4334 -0.0714  2.6111
 5223TIP3   OH215629   5.157   2.281   5.086  0.4180  0.3012 -0.2555
 5223TIP3    H115630   5.188   2.343   5.153 -2.0248  2.4475 -1.0409
 5223TIP3    H215631   5.166   2.328   5.003 -2.3200 -0.0260 -0.7847
 5224TIP3   OH215632   1.491   5.095   0.888  0.5559  0.2029  0.3135
 5224TIP3    H115633   1.512   5.188   0.889 -0.5562  0.4736 -0.0405
 5224TIP3    H215634   1.543   5.057   0.958 -0.2380  1.3886  1.5670
 5225TIP3   OH215635   5.238   1.642   3.244 -0.2105  0.4678 -0.2557
 5225TIP3    H115636   5.206   1.553   3.229 -1.4038  1.2813 -2.8675
 5225TIP3    H215637   5.162   1.697   3.228 -0.0170  1.9000  3.3312
 5226TIP3   OH215638   6.949   1.865   5.829 -0.0902  0.4767 -0.4585
 5226TIP3    H115639   7.014   1.829   5.890 -2.1490  0.2898  1.7047
 5226TIP3    H215640   6.897   1.789   5.802  0.0734  0.7486 -1.5371
 5227TIP3   OH215641   7.362   1.304   3.242 -0.3103  0.1156  0.4824
 5227TIP3    H115642   7.375   1.285   3.149  1.9421  0.4459  0.7100
 5227TIP3    H215643   7.351   1.219   3.283 -1.1093 -0.0414 -0.0439
 5228TIP3   OH215644   4.708   7.238   5.532  0.2480 -0.7650 -0.5238
 5228TIP3    H115645   4.720   7.247   5.627  0.2415 -1.9900 -0.3874
 5228TIP3    H215646   4.714   7.143   5.517 -2.7206 -0.8922 -1.3253
 5229TIP3   OH215647   5.318   0.221   4.257 -0.2604  0.6507 -0.5403
 5229TIP3    H115648   5.406   0.185   4.261 -1.3243 -1.8917  0.7023
 5229TIP3    H215649   5.324   0.290   4.190  2.6444  0.5659 -0.4442
 5230TIP3   OH215650   4.863   2.242   5.117 -0.0081  0.2451 -0.0624
 5230TIP3    H115651   4.950   2.278   5.098  0.2510 -0.7273 -0.7426
 5230TIP3    H215652   4.806   2.282   5.052  0.1096  0.1459 -0.2265
 5231TIP3   OH215653   2.854   1.933   5.291  0.2302  0.2060  0.9665
 5231TIP3    H115654   2.894   1.848   5.307 -1.7422 -0.7987  0.5860
 5231TIP3    H215655   2.882   1.957   5.202 -0.3701 -0.6855  0.5395
 5232TIP3   OH215656   4.474   0.608   4.122 -0.3122 -0.2799  0.6957
 5232TIP3    H115657   4.460   0.517   4.146 -0.1839 -0.6029 -0.4499
 5232TIP3    H215658   4.402   0.655   4.163  0.3653 -0.6997  2.4244
 5233TIP3   OH215659   0.674   0.980   4.669 -0.5290  0.3274 -0.6001
 5233TIP3    H115660   0.602   1.015   4.616  0.3736  2.1342 -0.6407
 5233TIP3    H215661   0.631   0.947   4.748 -1.5658  0.0027 -1.2798
 5234TIP3   OH215662   0.588   4.532   0.574  0.0355 -0.4683 -0.0318
 5234TIP3    H115663   0.535   4.455   0.554 -1.2868  0.5737 -0.6391
 5234TIP3    H215664   0.678   4.501   0.567 -0.4595 -1.7280 -1.2511
 5235TIP3   OH215665   6.944   1.501   4.888  0.2672  0.5143 -0.1982
 5235TIP3    H115666   6.865   1.449   4.903  1.7105 -1.1443  1.8542
 5235TIP3    H215667   6.929   1.543   4.803 -2.3540 -0.6043 -0.3329
 5236TIP3   OH215668   5.453   2.924   1.842  0.2710 -0.8463 -0.0571
 5236TIP3    H115669   5.524   2.906   1.904  1.6890 -1.3014 -1.7547
 5236TIP3    H215670   5.497   2.965   1.767 -1.3172 -0.8688 -1.0192
 5237TIP3   OH215671   6.068   0.781   5.068 -0.3136 -0.5279 -0.0043
 5237TIP3    H115672   6.062   0.876   5.058  0.0113 -0.6631 -1.5322
 5237TIP3    H215673   6.157   0.760   5.043 -0.2416 -1.1860  0.7950
 5238TIP3   OH215674   3.330   6.388   5.139 -0.6847 -0.3046  0.0796
 5238TIP3    H115675   3.378   6.464   5.172 -0.6163  1.3864 -3.7257
 5238TIP3    H215676   3.243   6.395   5.180  0.2581  0.0559  2.1152
 5239TIP3   OH215677   4.005   2.702   2.437 -0.7701 -0.4771 -0.1182
 5239TIP3    H115678   4.077   2.668   2.383  0.2034 -0.1666  0.9744
 5239TIP3    H215679   3.933   2.641   2.421 -0.6938 -0.0871 -2.2001
 5240TIP3   OH215680   3.004   0.889   3.121  0.1736 -0.3349  0.4344
 5240TIP3    H115681   3.005   0.939   3.203  1.1025  0.0205  0.2083
 5240TIP3    H215682   2.970   0.951   3.056  0.3102 -0.3349  0.3643
 5241TIP3   OH215683   3.922   0.312   3.732  0.0178  0.0392 -0.1793
 5241TIP3    H115684   3.853   0.246   3.732  0.6808 -0.6602 -1.1656
 5241TIP3    H215685   3.927   0.343   3.642  0.7572  0.3397 -0.0425
 5242TIP3   OH215686   3.229   2.847   5.526  0.6231 -0.2400 -0.4456
 5242TIP3    H115687   3.149   2.899   5.535  0.4320 -0.6913  0.5410
 5242TIP3    H215688   3.285   2.878   5.598  1.3986  0.1749 -1.2111
 5243TIP3   OH215689   4.635   0.126   4.995  0.4637 -0.0536  0.7664
 5243TIP3    H115690   4.688   0.194   4.955 -0.1318  0.3387  0.6318
 5243TIP3    H215691   4.579   0.094   4.925  0.7210 -0.6650  0.8367
 5244TIP3   OH215692   5.008   6.508   4.570  0.0307  0.1617  0.1475
 5244TIP3    H115693   5.046   6.467   4.492 -1.1761 -0.1247 -0.2981
 5244TIP3    H215694   5.031   6.449   4.642  0.9899  0.3303 -0.0177
 5245TIP3   OH215695   3.117   2.112   5.626 -0.0533 -0.6567 -0.2281
 5245TIP3    H115696   3.068   2.153   5.697 -2.4994 -0.5871 -1.9111
 5245TIP3    H215697   3.137   2.183   5.566 -0.2495 -1.1690 -0.8971
 5246TIP3   OH215698   6.238   2.399   4.636  0.0149  0.6192  0.3080
 5246TIP3    H115699   6.328   2.417   4.609  0.1655 -0.9701 -0.3164
 5246TIP3    H215700   6.223   2.308   4.609 -2.1496  1.2207 -0.5989
 5247TIP3   OH215701   4.257   1.676   4.568 -0.4450 -0.2987  0.3089
 5247TIP3    H115702   4.244   1.604   4.630  2.9781 -2.3724 -1.2234
 5247TIP3    H215703   4.328   1.728   4.606  1.9098 -1.7653 -1.8466
 5248TIP3   OH215704   3.665   1.699   0.388 -0.1067 -0.4903 -0.4395
 5248TIP3    H115705   3.610   1.752   0.445 -0.7233 -0.3234 -1.1929
 5248TIP3    H215706   3.729   1.659   0.448 -0.6464 -0.1960  0.3457
 5249TIP3   OH215707   4.687   0.370   4.618 -0.2391  0.3520  0.3796
 5249TIP3    H115708   4.682   0.386   4.712 -0.5111  1.1516  0.2317
 5249TIP3    H215709   4.599   0.389   4.585 -0.4019 -0.8266  0.0946
 5250TIP3   OH215710   3.794   1.572   3.196  0.2921 -0.4560  0.7990
 5250TIP3    H115711   3.706   1.591   3.164  0.2208 -1.2433  0.5107
 5250TIP3    H215712   3.846   1.556   3.117  0.8657  0.7092  0.9355
 5251TIP3   OH215713   5.935   2.159   3.716  0.1819  0.6052  0.4416
 5251TIP3    H115714   5.958   2.100   3.644 -0.8531  0.0797  0.5204
 5251TIP3    H215715   5.909   2.100   3.787 -0.9361  1.1604  0.4976
 5252TIP3   OH215716   6.336   3.930   5.452 -0.0793  0.2467  0.2957
 5252TIP3    H115717   6.335   4.006   5.393  0.6163 -0.9792 -1.3597
 5252TIP3    H215718   6.293   3.861   5.402  0.5649 -0.8385  1.2084
 5253TIP3   OH215719   5.556   3.073   3.851  0.1715 -0.2275 -0.6290
 5253TIP3    H115720   5.512   3.078   3.767  1.1024  1.4033 -1.0571
 5253TIP3    H215721   5.648   3.057   3.829  0.9514  3.0912 -0.1399
 5254TIP3   OH215722   6.596   0.181   5.938 -0.2452 -0.1165  0.6028
 5254TIP3    H115723   6.676   0.220   5.903  0.2954  0.7242  2.6779
 5254TIP3    H215724   6.627   0.110   5.994 -0.9836 -0.2555  0.8397
 5255TIP3   OH215725   6.714   1.970   3.714 -0.2652 -0.0505  0.1624
 5255TIP3    H115726   6.642   1.917   3.679 -1.3170  1.9497 -0.8160
 5255TIP3    H215727   6.739   2.027   3.642  1.6100  0.0211  0.8368
 5256TIP3   OH215728   2.498   3.899   6.166 -0.0591 -0.2194 -0.1014
 5256TIP3    H115729   2.591   3.903   6.189  0.3483  2.4593 -2.0856
 5256TIP3    H215730   2.459   3.975   6.209 -1.2957 -1.1702  0.4826
 5257TIP3   OH215731   3.762   0.969   3.420  0.6800  0.4395 -0.3507
 5257TIP3    H115732   3.842   0.936   3.380  0.5033 -0.8322  0.2904
 5257TIP3    H215733   3.743   0.907   3.490 -0.9917  0.5746 -0.6428
 5258TIP3   OH215734   5.258   0.896   4.254 -0.1520  0.0789  0.3571
 5258TIP3    H115735   5.203   0.830   4.297  0.7977 -1.8574 -1.3009
 5258TIP3    H215736   5.299   0.944   4.327 -1.2176 -0.8440  1.5991
 5259TIP3   OH215737   5.659   0.288   3.142 -0.0029 -0.2126  0.4411
 5259TIP3    H115738   5.595   0.341   3.094  0.4631  2.0484  2.2412
 5259TIP3    H215739   5.610   0.209   3.167 -1.1700  0.0553 -0.9247
 5260TIP3   OH215740   3.292   6.705   6.185 -0.0782 -0.2848 -0.0726
 5260TIP3    H115741   3.253   6.731   6.102  1.1209  1.2317 -0.1820
 5260TIP3    H215742   3.333   6.621   6.167 -1.2417 -0.7506 -0.5758
 5261TIP3   OH215743   3.450   0.754   4.932 -0.3541 -0.2469  0.4231
 5261TIP3    H115744   3.484   0.781   5.017  0.9779 -0.5962  0.0215
 5261TIP3    H215745   3.527   0.721   4.885 -1.4846 -2.3111 -0.0339
 5262TIP3   OH215746   4.658   1.975   5.413  0.2507  0.3142  0.0654
 5262TIP3    H115747   4.636   2.059   5.372 -3.7100  0.3465  1.9816
 5262TIP3    H215748   4.596   1.913   5.374  1.3624 -1.1793  0.6364
 5263TIP3   OH215749   5.591   0.035   5.878 -0.4747 -0.0449 -0.0387
 5263TIP3    H115750   5.525   0.075   5.820 -1.4000  0.0960  1.0907
 5263TIP3    H215751   5.546   0.027   5.962  0.7973 -0.4415  0.6015
 5264TIP3   OH215752   5.340   1.836   3.422  0.0368 -0.1368  0.4938
 5264TIP3    H115753   5.305   1.798   3.342  0.2340 -2.7113  1.5760
 5264TIP3    H215754   5.295   1.921   3.430  0.7202  0.5804 -2.7655
 5265TIP3   OH215755   4.604   2.423   5.507  0.9774 -0.1662 -0.3678
 5265TIP3    H115756   4.613   2.471   5.589  1.3627  1.6333 -1.4544
 5265TIP3    H215757   4.514   2.440   5.479  0.8320 -0.8181 -0.3029
 5266TIP3   OH215758   3.412   5.964   5.337  0.2070 -0.4632 -0.3952
 5266TIP3    H115759   3.423   5.955   5.243  0.4930  0.9728 -0.5067
 5266TIP3    H215760   3.471   6.035   5.362  1.4380 -1.9591  1.1377
 5267TIP3   OH215761   4.350   1.091   4.381 -0.1928 -0.2561  0.2121
 5267TIP3    H115762   4.436   1.126   4.403  0.0500  0.3462 -1.5897
 5267TIP3    H215763   4.365   0.998   4.364  0.4023  0.1322 -1.5316
 5268TIP3   OH215764   5.122   0.890   5.287  0.1783 -0.0536 -0.1976
 5268TIP3    H115765   5.037   0.929   5.307 -0.6582 -1.4979 -0.8510
 5268TIP3    H215766   5.157   0.945   5.216 -0.6586 -0.0554 -0.6226
 5269TIP3   OH215767   2.179   5.527   4.596  0.1538  0.3817 -0.0915
 5269TIP3    H115768   2.245   5.589   4.627  0.9012  0.3629 -1.5691
 5269TIP3    H215769   2.106   5.537   4.657  1.0036  1.3599  0.7917
 5270TIP3   OH215770   4.818   2.463   4.940 -0.3411  0.4395 -0.0215
 5270TIP3    H115771   4.899   2.494   4.899 -1.4273  1.0654 -1.7276
 5270TIP3    H215772   4.800   2.529   5.008  0.5071  0.3604  0.2898
 5271TIP3   OH215773   4.352   1.401   4.412 -0.4872  0.3462 -0.5157
 5271TIP3    H115774   4.419   1.423   4.477 -1.4825 -0.9368  0.9608
 5271TIP3    H215775   4.303   1.482   4.401 -0.3942  0.5408  0.4360
 5272TIP3   OH215776   5.240   1.339   5.132 -0.3726  0.0131 -0.3889
 5272TIP3    H115777   5.262   1.327   5.225  0.7836  1.1996 -0.4959
 5272TIP3    H215778   5.254   1.253   5.093 -3.4925 -1.2342  1.0214
 5273TIP3   OH215779   3.800   0.516   3.356 -0.1674  0.7951 -0.3109
 5273TIP3    H115780   3.746   0.446   3.393  0.3870  0.4850 -0.0680
 5273TIP3    H215781   3.890   0.483   3.364  0.1196  1.6511  0.0533
 5274TIP3   OH215782   5.304   2.588   4.873 -0.1392 -0.0439  0.2685
 5274TIP3    H115783   5.367   2.532   4.919 -0.3897  0.3898  1.1497
 5274TIP3    H215784   5.358   2.659   4.837  0.0087 -0.1923  0.1959
 5275TIP3   OH215785   6.187   2.266   4.249 -0.1005  0.0866  0.0357
 5275TIP3    H115786   6.263   2.292   4.301 -1.6292 -2.2969  3.6533
 5275TIP3    H215787   6.224   2.216   4.176  1.8825  0.1393  0.9754
 5276TIP3   OH215788   4.982   1.635   4.257 -0.6775 -0.0761 -0.9806
 5276TIP3    H115789   4.888   1.642   4.240 -0.7796  1.6695  0.0742
 5276TIP3    H215790   5.000   1.709   4.315  0.5283 -2.8678  2.3980
 5277TIP3   OH215791   7.620   1.776   4.531  0.0636  0.1140 -0.0226
 5277TIP3    H115792   7.561   1.703   4.549 -2.6485  2.1721 -0.2351
 5277TIP3    H215793   7.698   1.758   4.583 -1.1039 -2.2318  0.9708
 5278TIP3   OH215794   6.323   2.081   4.960 -0.1739 -0.2821 -0.2657
 5278TIP3    H115795   6.230   2.080   4.982 -0.0563  2.3399  0.5173
 5278TIP3    H215796   6.361   2.012   5.014 -1.3518 -0.0467  0.8903
 5279TIP3   OH215797   5.140   1.478   2.084 -0.1759  0.1203 -0.1435
 5279TIP3    H115798   5.131   1.393   2.128  1.6194 -0.7601 -1.4350
 5279TIP3    H215799   5.057   1.489   2.038 -1.2618  0.0868  1.7204
 5280TIP3   OH215800   5.304   0.534   5.193 -0.1175  0.5321 -0.7795
 5280TIP3    H115801   5.358   0.606   5.162  3.1685 -2.0518 -1.3899
 5280TIP3    H215802   5.303   0.472   5.120 -2.0263 -0.4772  0.0719
 5281TIP3   OH215803   5.581   0.991   5.581 -0.0975  0.2978  0.0459
 5281TIP3    H115804   5.605   0.999   5.673 -0.7999 -3.0655  0.5950
 5281TIP3    H215805   5.663   1.005   5.533  0.7689 -0.2716  1.3295
 5282TIP3   OH215806   7.534   0.152   4.235  0.3099  0.6779  0.5855
 5282TIP3    H115807   7.558   0.232   4.189  0.0322  0.7199  0.5115
 5282TIP3    H215808   7.546   0.173   4.328 -0.6112  1.1002  0.6212
 5283TIP3   OH215809   3.346   0.440   1.805 -0.0246 -0.1113  0.3709
 5283TIP3    H115810   3.329   0.534   1.792  0.1849 -0.3243 -1.4886
 5283TIP3    H215811   3.260   0.399   1.799  0.0613 -0.1997 -0.2704
 5284TIP3   OH215812   4.085   2.270   5.767 -0.1843 -0.2018 -0.4465
 5284TIP3    H115813   4.008   2.219   5.791  0.2545 -0.4646  0.4145
 5284TIP3    H215814   4.143   2.207   5.724 -0.5039  0.0280 -1.2279
 5285TIP3   OH215815   5.478   6.384   1.030  0.5033 -0.0651 -0.1719
 5285TIP3    H115816   5.407   6.442   1.056  2.0860  1.4848  0.7529
 5285TIP3    H215817   5.469   6.307   1.086 -1.1940 -0.4436 -0.9438
 5286TIP3   OH215818   3.855   6.593   5.908  0.2039 -0.0295  0.0510
 5286TIP3    H115819   3.897   6.508   5.912  0.7633  0.2712  0.6195
 5286TIP3    H215820   3.925   6.654   5.883 -0.3788  0.1361 -1.2214
 5287TIP3   OH215821   6.440   2.739   5.870 -0.7053 -0.3992  0.0562
 5287TIP3    H115822   6.418   2.683   5.795 -2.0586 -0.1541  0.2521
 5287TIP3    H215823   6.375   2.717   5.936 -0.0896  0.0665  0.8213
 5288TIP3   OH215824   5.764   1.590   5.964  0.0114 -0.1515  0.2824
 5288TIP3    H115825   5.763   1.573   6.058 -2.9377  2.0964  0.7431
 5288TIP3    H215826   5.852   1.621   5.946  0.8165 -1.2785  2.1646
 5289TIP3   OH215827   2.567   5.749   5.727  0.4969 -0.1945  0.6470
 5289TIP3    H115828   2.586   5.795   5.808 -0.2486  1.7748 -0.2628
 5289TIP3    H215829   2.545   5.818   5.664  1.3762 -1.6489 -1.3179
 5290TIP3   OH215830   7.363   2.944   0.678  0.2469 -0.1052  0.1283
 5290TIP3    H115831   7.420   2.867   0.686 -0.1688 -0.3324  0.9125
 5290TIP3    H215832   7.274   2.909   0.687  0.0794  0.5226  0.9871
 5291TIP3   OH215833   4.422   0.488   5.039 -0.1373  0.6580  0.1643
 5291TIP3    H115834   4.396   0.435   5.114 -0.3869  0.3530 -0.1329
 5291TIP3    H215835   4.341   0.531   5.012 -0.4430 -0.6009 -1.0126
 5292TIP3   OH215836   4.435   2.090   6.294 -0.1578  0.1077  0.1480
 5292TIP3    H115837   4.496   2.095   6.368 -0.9130 -2.4488  0.9952
 5292TIP3    H215838   4.349   2.105   6.333 -0.3784  0.6887 -0.5473
 5293TIP3   OH215839   4.370   2.202   3.870 -0.2715 -0.5113  0.1832
 5293TIP3    H115840   4.299   2.260   3.841  0.4923  0.7741  0.7992
 5293TIP3    H215841   4.333   2.114   3.866 -1.7996  0.1160  0.2070
 5294TIP3   OH215842   1.338   6.540   5.795 -0.4515 -0.2044  0.3966
 5294TIP3    H115843   1.434   6.532   5.789 -0.6287 -0.6004 -2.9750
 5294TIP3    H215844   1.314   6.482   5.867  1.6507 -1.9270 -0.2039
 5295TIP3   OH215845   5.138   2.321   5.534 -0.1824  0.7157 -0.6084
 5295TIP3    H115846   5.198   2.335   5.461  0.2815  1.2508 -0.1290
 5295TIP3    H215847   5.072   2.390   5.524 -0.6096  0.2462 -1.0257
 5296TIP3   OH215848   3.712   4.328   4.577 -0.0471 -0.7726  0.5935
 5296TIP3    H115849   3.750   4.241   4.582  1.6610 -0.1557 -1.3992
 5296TIP3    H215850   3.750   4.375   4.652  1.0787 -0.9477  0.1340
 5297TIP3   OH215851   4.821   2.822   5.554  0.2520 -0.0788  0.0254
 5297TIP3    H115852   4.819   2.821   5.458 -1.3327  0.7989  0.0281
 5297TIP3    H215853   4.729   2.809   5.579  0.4493  1.1634  1.4037
 5298TIP3   OH215854   6.400   2.727   4.732 -0.2442  0.7052 -0.2263
 5298TIP3    H115855   6.488   2.693   4.752 -0.0760  1.7479  0.9442
 5298TIP3    H215856   6.345   2.695   4.803 -1.0433 -0.7895 -1.5056
 5299TIP3   OH215857   4.484   1.637   4.000 -0.0973  0.2683  0.2178
 5299TIP3    H115858   4.508   1.550   4.032  2.4968  0.7213 -0.4169
 5299TIP3    H215859   4.456   1.623   3.910 -0.5850 -0.0177  0.4100
 5300TIP3   OH215860   7.759   4.679   0.438 -0.1240  0.1748  0.1219
 5300TIP3    H115861   7.738   4.586   0.433 -1.9130  0.5838 -0.2369
 5300TIP3    H215862   7.829   4.684   0.503  0.7692 -1.5349 -0.6596
 5301TIP3   OH215863   0.952   2.861   4.109  0.2291 -0.3359  0.0745
 5301TIP3    H115864   1.002   2.933   4.070 -0.9292  0.2840 -0.3029
 5301TIP3    H215865   0.873   2.856   4.055 -0.4454 -0.8156  1.1010
 5302TIP3   OH215866   2.170   5.360   0.533  0.6335  0.0323  0.1986
 5302TIP3    H115867   2.100   5.319   0.482 -0.8497  2.9034 -0.2077
 5302TIP3    H215868   2.173   5.310   0.615 -1.5001 -0.5156 -0.0264
 5303TIP3   OH215869   6.651   1.926   3.366  0.4886  0.4449  0.2007
 5303TIP3    H115870   6.704   2.006   3.365  1.1352  0.0251  0.8806
 5303TIP3    H215871   6.611   1.924   3.453 -1.6578  1.4068 -0.7235
 5304TIP3   OH215872   7.615   4.435   0.093 -0.2274  0.3511  0.6941
 5304TIP3    H115873   7.681   4.441   0.024 -0.4478  0.1936  0.4710
 5304TIP3    H215874   7.533   4.417   0.048  0.0267 -2.1539  1.1519
 5305TIP3   OH215875   5.333   0.944   6.403  0.0286  0.3087  0.0574
 5305TIP3    H115876   5.292   0.867   6.363  0.9858 -0.7274  1.0807
 5305TIP3    H215877   5.350   1.003   6.329 -1.5647 -0.0466 -0.6111
 5306TIP3   OH215878   5.841   1.833   4.921 -0.2431 -0.6809  0.2563
 5306TIP3    H115879   5.796   1.760   4.879 -1.8062  0.6073 -0.3717
 5306TIP3    H215880   5.899   1.868   4.854 -0.2948 -0.6620  0.2218
 5307TIP3   OH215881   7.510   1.808   3.535 -0.1481 -0.6974 -0.0145
 5307TIP3    H115882   7.513   1.774   3.624  1.4825 -2.1215 -0.5862
 5307TIP3    H215883   7.426   1.776   3.501  0.3681 -2.3348  0.1854
 5308TIP3   OH215884   5.581   2.673   4.122 -0.0819  0.1439 -0.0054
 5308TIP3    H115885   5.503   2.725   4.103  0.6561  1.1063 -0.4719
 5308TIP3    H215886   5.649   2.738   4.142  0.6026 -0.6795  0.3725
 5309TIP3   OH215887   4.084   2.118   2.008  0.0620  0.6024  0.5842
 5309TIP3    H115888   4.053   2.207   1.993  0.8741  0.6232 -0.9913
 5309TIP3    H215889   4.096   2.081   1.921 -0.2856 -1.0721  1.2186
 5310TIP3   OH215890   6.398   2.340   5.120 -0.5275 -0.1662 -0.0705
 5310TIP3    H115891   6.443   2.419   5.090  0.3110 -0.4620  0.3916
 5310TIP3    H215892   6.381   2.291   5.039 -0.4771  0.1868 -0.2972
 5311TIP3   OH215893   3.367   7.231   4.887 -0.0367 -0.3996 -0.0108
 5311TIP3    H115894   3.435   7.250   4.823 -0.2694  0.4321 -0.0178
 5311TIP3    H215895   3.414   7.215   4.969  0.1408  0.6241  0.0901
 5312TIP3   OH215896   7.308   1.282   4.499  0.4537  0.6160  0.1275
 5312TIP3    H115897   7.271   1.214   4.444  0.5467 -0.3988  1.2985
 5312TIP3    H215898   7.401   1.260   4.506  0.3251  0.3799  1.1909
 5313TIP3   OH215899   5.985   2.109   4.593  0.0764  0.7161  0.0168
 5313TIP3    H115900   6.007   2.021   4.625  1.8485  1.2774  0.4135
 5313TIP3    H215901   5.908   2.096   4.538  0.2310 -1.0752  0.1944
 5314TIP3   OH215902   6.926   1.794   4.428 -0.0878 -0.3130  0.2207
 5314TIP3    H115903   6.988   1.806   4.356 -2.3907  3.0557 -1.3544
 5314TIP3    H215904   6.861   1.733   4.393  0.2558 -0.8158  0.4562
 5315TIP3   OH215905   4.961   2.300   1.566  0.0143  0.0100 -0.3316
 5315TIP3    H115906   5.049   2.318   1.598  0.6383 -0.9997 -1.4480
 5315TIP3    H215907   4.906   2.304   1.644  0.8063  2.1020  0.1635
 5316TIP3   OH215908   6.722   1.217   5.834  0.2622  0.0736  0.3640
 5316TIP3    H115909   6.653   1.151   5.825  0.0336  0.2757  0.6425
 5316TIP3    H215910   6.737   1.248   5.744  0.9333 -0.9247  0.1244
 5317TIP3   OH215911   4.138   1.322   5.814 -0.9553 -0.1007  0.3443
 5317TIP3    H115912   4.211   1.378   5.790  1.1921 -2.1432  1.8780
 5317TIP3    H215913   4.083   1.376   5.871 -0.4316  1.2977 -0.4714
 5318TIP3   OH215914   6.173   1.362   4.789  0.3759  0.3748 -0.0596
 5318TIP3    H115915   6.204   1.298   4.726 -0.4582  0.7225 -0.8294
 5318TIP3    H215916   6.078   1.354   4.787  0.2742  1.4877 -0.0117
 5319TIP3   OH215917   5.799   0.444   4.638  0.4818  0.3498  0.1304
 5319TIP3    H115918   5.778   0.433   4.731  0.3585  1.1084  0.1949
 5319TIP3    H215919   5.750   0.374   4.594 -1.5680  1.6152  0.3557
 5320TIP3   OH215920   7.458   3.053   4.280 -0.6859 -0.1974  0.1096
 5320TIP3    H115921   7.539   3.008   4.304 -0.5706  0.0745  0.2341
 5320TIP3    H215922   7.466   3.071   4.187 -0.4454  0.1472  0.1952
 5321TIP3   OH215923   0.920   2.579   4.188 -0.3283 -0.1593  0.2980
 5321TIP3    H115924   0.944   2.654   4.134 -0.4651 -0.0356  0.4089
 5321TIP3    H215925   0.952   2.503   4.139 -0.8574 -0.0780 -0.1782
 5322TIP3   OH215926   6.479   0.151   4.057 -0.0901 -0.2585 -0.0699
 5322TIP3    H115927   6.551   0.188   4.005 -1.0872  2.8229  0.6516
 5322TIP3    H215928   6.441   0.084   4.000  1.3139  0.3166 -1.7452
 5323TIP3   OH215929   0.421   2.743   5.784  0.5219  0.0964 -0.2233
 5323TIP3    H115930   0.482   2.707   5.849  0.5092  0.3093 -0.0922
 5323TIP3    H215931   0.476   2.794   5.724  0.6637 -0.9204 -0.9609
 5324TIP3   OH215932   5.721   2.311   2.058  0.4920 -0.5909 -0.0331
 5324TIP3    H115933   5.733   2.264   1.975  0.2664 -0.1867 -0.2919
 5324TIP3    H215934   5.634   2.286   2.087  1.6184 -2.9565  1.4883
 5325TIP3   OH215935   6.485   0.913   5.206 -0.1511 -0.4395  0.2122
 5325TIP3    H115936   6.501   0.994   5.157 -0.6913 -0.0459  0.6874
 5325TIP3    H215937   6.434   0.940   5.282 -2.0503 -1.4994 -0.6424
 5326TIP3   OH215938   0.753   1.739   2.720  0.1633 -0.6056  0.6811
 5326TIP3    H115939   0.807   1.665   2.747 -0.5342 -1.1627  0.5712
 5326TIP3    H215940   0.678   1.737   2.780 -1.0023 -1.3665 -0.7741
 5327TIP3   OH215941   4.972   1.927   3.511  0.7398  0.3271  0.1588
 5327TIP3    H115942   4.945   1.970   3.592  1.7129 -3.8092  2.8134
 5327TIP3    H215943   4.895   1.880   3.481  0.9979  0.1056 -0.1631
 5328TIP3   OH215944   6.387   1.271   5.258 -0.0006  0.2801 -0.0324
 5328TIP3    H115945   6.474   1.284   5.220  0.4291  2.6968  1.6340
 5328TIP3    H215946   6.327   1.311   5.195 -0.1810 -3.3502 -2.2640
 5329TIP3   OH215947   7.107   1.108   2.345 -0.5674 -0.3274  0.0410
 5329TIP3    H115948   7.176   1.042   2.355  0.5541  0.9995  1.2698
 5329TIP3    H215949   7.120   1.144   2.258  1.1169  0.8096  0.7428
 5330TIP3   OH215950   7.271   2.676   4.342 -0.4216  0.1503 -0.3285
 5330TIP3    H115951   7.256   2.587   4.308  2.9293 -0.8238  0.6089
 5330TIP3    H215952   7.222   2.678   4.425  1.2601 -1.6199  0.7509
 5331TIP3   OH215953   1.677   2.030   2.620  0.1816 -0.8917 -0.1986
 5331TIP3    H115954   1.756   2.082   2.602 -1.5976  1.7785 -0.6356
 5331TIP3    H215955   1.688   1.952   2.567  1.5755  0.4076 -1.9171
 5332TIP3   OH215956   1.872   5.836   0.099  0.2102  0.2422 -0.3414
 5332TIP3    H115957   1.904   5.902   0.160 -1.7737  0.3158  0.6638
 5332TIP3    H215958   1.819   5.885   0.036  1.4860  0.0363 -1.6112
 5333TIP3   OH215959   0.549   4.305   4.582 -0.5535  0.0917  0.5696
 5333TIP3    H115960   0.573   4.248   4.655  1.7484  1.8386  1.2330
 5333TIP3    H215961   0.576   4.257   4.504 -0.8470 -0.7562  0.9849
 5334TIP3   OH215962   0.642   0.855   3.512 -0.6691 -0.3883  0.1111
 5334TIP3    H115963   0.642   0.854   3.416 -2.0297 -0.8641  0.1097
 5334TIP3    H215964   0.553   0.832   3.536 -0.5182  0.4225  1.4984
 5335TIP3   OH215965   5.794   6.696   2.303  0.5568 -0.2272 -0.1651
 5335TIP3    H115966   5.787   6.715   2.397  1.9132 -0.2059 -0.0506
 5335TIP3    H215967   5.867   6.634   2.297  0.4351 -0.2795 -1.2081
 5336TIP3   OH215968   1.721   0.424   2.454 -0.4783 -0.5021 -0.3748
 5336TIP3    H115969   1.807   0.396   2.424 -0.2002 -0.3031  0.2184
 5336TIP3    H215970   1.659   0.373   2.402  0.0109 -2.8754  1.2660
 5337TIP3   OH215971   0.063   1.691   5.845 -0.5799  0.7065  0.3087
 5337TIP3    H115972   0.086   1.657   5.758 -1.1435  1.2300 -0.0464
 5337TIP3    H215973   0.075   1.617   5.904  0.6216  0.5723 -0.0899
 5338TIP3   OH215974   6.482   1.941   4.664  0.5169  0.1851 -0.4969
 5338TIP3    H115975   6.401   1.986   4.686  0.7249  0.3838 -0.1333
 5338TIP3    H215976   6.550   2.009   4.665  1.0130 -0.3022  1.1258
 5339TIP3   OH215977   7.011   0.131   4.646 -0.1457 -0.1021 -0.0503
 5339TIP3    H115978   7.056   0.106   4.565 -0.4291 -0.3778 -0.1267
 5339TIP3    H215979   6.919   0.110   4.628 -0.4775  1.4615 -0.3139
 5340TIP3   OH215980   0.355   0.839   6.372  0.0021 -0.6697  0.6071
 5340TIP3    H115981   0.427   0.861   6.431  0.5344 -0.7859 -0.0067
 5340TIP3    H215982   0.378   0.880   6.289  0.1797 -2.1058 -0.0688
 5341TIP3   OH215983   0.760   0.292   4.696  0.1814  0.6124  0.3337
 5341TIP3    H115984   0.770   0.206   4.737  0.4541  0.6764  0.3976
 5341TIP3    H215985   0.749   0.273   4.603 -0.1086  0.4876  0.3918
 5342TIP3   OH215986   5.209   0.060   5.981 -0.3146  0.5132 -0.2596
 5342TIP3    H115987   5.135  -0.001   5.976  0.8805 -1.0107  0.0469
 5342TIP3    H215988   5.225   0.070   6.074  0.7987 -0.3634 -0.3427
 5343TIP3   OH215989   7.663   1.483   3.205  0.2226  0.1260 -0.3592
 5343TIP3    H115990   7.596   1.419   3.227 -1.2005  0.8841 -2.3114
 5343TIP3    H215991   7.628   1.566   3.237 -0.5658  0.7805 -2.8177
 5344TIP3   OH215992   5.366   0.557   5.613  0.0975  0.3967 -0.2423
 5344TIP3    H115993   5.357   0.580   5.705 -0.2730 -1.4319  0.1985
 5344TIP3    H215994   5.297   0.606   5.569 -0.8776 -0.1273  0.7049
 5345TIP3   OH215995   2.361   0.299   3.345 -0.3734 -0.0187  0.1584
 5345TIP3    H115996   2.320   0.226   3.300 -0.7333 -0.3486  1.0003
 5345TIP3    H215997   2.419   0.258   3.409 -2.2344  0.3530  2.1862
 5346TIP3   OH215998   6.468   0.852   4.808 -0.3390 -0.0966  0.2339
 5346TIP3    H115999   6.425   0.813   4.884 -1.8274  0.1421 -0.4643
 5346TIP3    H216000   6.442   0.944   4.810 -0.7864 -0.1873 -0.8187
 5347TIP3   OH216001   0.255   0.374   4.380 -0.2907 -0.5594  0.9570
 5347TIP3    H116002   0.172   0.335   4.353 -0.8039  0.6981  0.6873
 5347TIP3    H216003   0.308   0.375   4.300 -0.4484 -0.2791  0.8548
 5348TIP3   OH216004   6.498   1.800   3.603 -0.3513 -0.3485  0.4353
 5348TIP3    H116005   6.546   1.719   3.588 -0.5370 -0.7148  1.7288
 5348TIP3    H216006   6.418   1.792   3.552  0.4536 -0.2130 -0.8496
 5349TIP3   OH216007   7.189   1.521   3.252 -1.0185 -0.1640 -0.1461
 5349TIP3    H116008   7.225   1.594   3.303  0.7790 -1.0487 -0.1153
 5349TIP3    H216009   7.249   1.448   3.269 -2.6154 -1.5626 -0.4260
 5350TIP3   OH216010   0.693   5.787   0.392 -0.7460 -0.5189 -0.2464
 5350TIP3    H116011   0.637   5.840   0.336 -0.5611 -0.9276 -0.8221
 5350TIP3    H216012   0.653   5.793   0.479  0.2564  2.0054  0.0692
 5351TIP3   OH216013   6.041   1.747   3.673 -0.0322 -0.0429 -0.3450
 5351TIP3    H116014   6.029   1.757   3.768  1.1915 -1.2251 -0.0427
 5351TIP3    H216015   5.978   1.680   3.648  1.1141 -1.3147  0.0474
 5352TIP3   OH216016   4.936   1.305   2.392  0.0634  0.5915 -0.2100
 5352TIP3    H116017   4.870   1.362   2.352  0.4565 -0.2734 -2.1733
 5352TIP3    H216018   4.983   1.268   2.317  2.3275  0.6619  1.1343
 5353TIP3   OH216019   0.245   2.310   3.903 -0.0744 -0.2389  1.1503
 5353TIP3    H116020   0.184   2.357   3.846 -0.4888 -1.1854  0.8013
 5353TIP3    H216021   0.195   2.235   3.935  0.8688 -0.9663  0.9473
 5354TIP3   OH216022   6.729   1.585   4.371  0.1694 -0.6481 -0.6883
 5354TIP3    H116023   6.727   1.505   4.424 -0.1846 -0.2239 -0.0580
 5354TIP3    H216024   6.658   1.639   4.406  4.2578  2.6248  3.0495
 5355TIP3   OH216025   6.361   3.676   4.021  0.3440 -0.1779 -0.5161
 5355TIP3    H116026   6.334   3.706   3.934  0.0733 -0.6203 -0.5895
 5355TIP3    H216027   6.291   3.704   4.079 -1.4119 -3.1892 -1.0313
 5356TIP3   OH216028   1.618   5.256   0.351 -0.4349  0.3070  0.6404
 5356TIP3    H116029   1.566   5.191   0.303  1.5043 -1.0410  0.3310
 5356TIP3    H216030   1.559   5.285   0.422 -1.8818 -0.6113 -0.1531
 5357TIP3   OH216031   2.865   5.766   6.260  0.0850 -1.0679 -0.3392
 5357TIP3    H116032   2.794   5.725   6.308  0.6835 -2.5233 -0.6505
 5357TIP3    H216033   2.920   5.693   6.232  0.5174 -0.1436 -1.9851
 5358TIP3   OH216034   5.843   1.460   5.339  0.0625 -0.5423  0.0258
 5358TIP3    H116035   5.855   1.457   5.434  0.1685 -1.6037 -0.0171
 5358TIP3    H216036   5.917   1.513   5.308 -1.5772  2.2719  0.7803
 5359TIP3   OH216037   5.656   0.254   2.760 -0.3657 -0.0032 -0.3411
 5359TIP3    H116038   5.717   0.279   2.691  1.2577  2.5805  1.9644
 5359TIP3    H216039   5.583   0.316   2.751 -0.0818  0.4332  0.3503
 5360TIP3   OH216040   6.872   0.283   3.319 -0.4426 -0.7074 -0.5301
 5360TIP3    H116041   6.842   0.371   3.297  0.8867 -0.1032  0.0286
 5360TIP3    H216042   6.967   0.286   3.309 -0.0752 -1.2563  2.2916
 5361TIP3   OH216043   7.343   6.860   0.415  0.3898 -0.2140  0.1760
 5361TIP3    H116044   7.266   6.910   0.442  0.6562 -0.0078  0.5555
 5361TIP3    H216045   7.367   6.898   0.330 -0.5849 -1.0162 -0.4599
 5362TIP3   OH216046   3.079   6.435   4.811  0.2617 -0.2427 -0.3792
 5362TIP3    H116047   3.074   6.438   4.907 -0.1427 -2.6227 -0.2867
 5362TIP3    H216048   2.995   6.472   4.782  0.2376  0.1615  0.2012
 5363TIP3   OH216049   4.939   3.048   4.835 -0.4342  0.3721  0.6173
 5363TIP3    H116050   4.876   2.989   4.794  1.1115 -1.7949  1.2768
 5363TIP3    H216051   5.017   3.041   4.781 -0.1157  1.6029  0.8903
 5364TIP3   OH216052   5.331   0.748   3.816 -0.2687 -0.2323  0.1124
 5364TIP3    H116053   5.373   0.672   3.775 -1.3790 -0.2711 -0.9938
 5364TIP3    H216054   5.400   0.815   3.819 -0.0104 -0.3961 -1.4187
 5365TIP3   OH216055   3.463   6.694   4.646  0.1001 -0.2769 -0.0166
 5365TIP3    H116056   3.485   6.678   4.554 -1.8167 -1.5769 -0.2625
 5365TIP3    H216057   3.525   6.640   4.695  0.6627 -0.1369 -0.5671
 5366TIP3   OH216058   5.773   0.929   4.231  0.0247  0.0325  0.3872
 5366TIP3    H116059   5.855   0.881   4.242 -0.9330 -1.7692 -0.2099
 5366TIP3    H216060   5.730   0.925   4.316 -0.4263 -0.8461  0.1135
 5367TIP3   OH216061   5.858   0.119   5.176  0.0995  0.4029  0.1106
 5367TIP3    H116062   5.769   0.100   5.148  1.0012 -0.6219 -2.2013
 5367TIP3    H216063   5.862   0.088   5.266 -1.6118 -0.3383 -0.0543
 5368TIP3   OH216064   5.775   0.850   2.655 -0.4351  0.0281 -0.3541
 5368TIP3    H116065   5.723   0.825   2.731 -0.0324  0.3130  0.0261
 5368TIP3    H216066   5.806   0.938   2.676 -0.2167  0.0570 -0.7921
 5369TIP3   OH216067   3.459   2.788   3.147  0.0274 -0.8976 -0.0330
 5369TIP3    H116068   3.471   2.799   3.241  0.2557  1.8020 -0.3141
 5369TIP3    H216069   3.412   2.867   3.119 -0.5821 -1.9352 -2.0909
 5370TIP3   OH216070   2.271   2.968   3.401 -0.4680  0.0261  0.5181
 5370TIP3    H116071   2.267   2.880   3.439  2.2785 -0.6442 -0.6375
 5370TIP3    H216072   2.337   3.014   3.453  1.5299 -0.1141 -1.8333
 5371TIP3   OH216073   1.765   6.262   0.059  0.2122  0.0712  0.1318
 5371TIP3    H116074   1.698   6.302   0.115 -0.6294  0.1636 -0.9188
 5371TIP3    H216075   1.846   6.307   0.083 -0.5644  1.8026 -0.3927
 5372TIP3   OH216076   4.620   0.250   2.268  0.7295  0.3805 -0.0688
 5372TIP3    H116077   4.698   0.261   2.214  0.8666  0.4261  0.1351
 5372TIP3    H216078   4.585   0.165   2.242 -0.2177  1.1872 -1.5066
 5373TIP3   OH216079   1.495   0.559   3.896  0.0173 -0.0229 -0.1755
 5373TIP3    H116080   1.473   0.471   3.929  0.2542 -0.8406 -2.1576
 5373TIP3    H216081   1.466   0.559   3.805 -0.7955  2.2873  0.0445
 5374TIP3   OH216082   6.106   0.972   4.121  0.3352 -0.2313 -0.2906
 5374TIP3    H116083   6.060   0.967   4.037  0.4431  1.3054 -0.4504
 5374TIP3    H216084   6.083   0.891   4.165 -1.6344  0.0062 -0.8311
 5375TIP3   OH216085   7.677   0.621   4.902  0.5507  0.0801 -0.3705
 5375TIP3    H116086   7.680   0.525   4.902 -1.0457 -0.0087 -2.8282
 5375TIP3    H216087   7.735   0.647   4.831  1.4285  0.9712  0.6638
 5376TIP3   OH216088   7.056   1.081   3.703 -0.1283 -0.1840  0.1996
 5376TIP3    H116089   7.151   1.070   3.700 -0.0361  0.4215  0.9041
 5376TIP3    H216090   7.033   1.069   3.795 -0.5812  0.8240  0.2270
 5377TIP3   OH216091   7.564   0.085   0.865 -0.4237 -0.4214  0.1802
 5377TIP3    H116092   7.644   0.111   0.818 -0.6994 -1.6579 -1.0190
 5377TIP3    H216093   7.493   0.128   0.816 -0.6474 -0.9518  0.0434
 5378TIP3   OH216094   1.038   1.318   3.679 -0.3524  0.5056 -0.0737
 5378TIP3    H116095   1.023   1.283   3.767 -2.6468  0.5699 -0.4066
 5378TIP3    H216096   1.003   1.407   3.681  1.7953  1.3853 -0.3838
 5379TIP3   OH216097   4.863   1.539   3.395  0.0618 -0.1718  0.4963
 5379TIP3    H116098   4.846   1.493   3.477 -1.4888  0.3723  0.4885
 5379TIP3    H216099   4.857   1.632   3.418 -1.5045 -0.0327 -0.4627
 5380TIP3   OH216100   7.046   1.104   3.972 -0.1923 -0.4907 -0.0287
 5380TIP3    H116101   6.960   1.117   4.012 -0.6000  1.3492 -1.4163
 5380TIP3    H216102   7.103   1.164   4.020  0.2138 -1.3620  0.5746
 5381TIP3   OH216103   1.880   7.302   5.497 -0.1434  0.2663  0.3604
 5381TIP3    H116104   1.907   7.352   5.420 -0.2671  0.1915  0.2686
 5381TIP3    H216105   1.960   7.259   5.528 -0.1795 -0.0462  0.0216
 5382TIP3   OH216106   1.166   0.875   4.626 -0.0363  0.1099  0.1398
 5382TIP3    H116107   1.091   0.925   4.657 -0.0205 -1.1027  2.1837
 5382TIP3    H216108   1.196   0.923   4.548 -2.4732  0.9802 -0.2935
 5383TIP3   OH216109   7.727   1.974   5.211 -0.5492  0.0061 -0.3867
 5383TIP3    H116110   7.712   1.892   5.164  1.5887 -0.8320  0.3522
 5383TIP3    H216111   7.643   2.020   5.207 -1.2537 -1.4097 -2.3699
 5384TIP3   OH216112   1.662   2.103   3.900  0.8085  0.1484 -0.0683
 5384TIP3    H116113   1.750   2.067   3.890  0.3330 -1.0740  0.0358
 5384TIP3    H216114   1.664   2.148   3.985  0.8399 -1.3661  0.7475
 5385TIP3   OH216115   0.347   1.877   5.408  0.5833  0.0167 -0.3377
 5385TIP3    H116116   0.406   1.809   5.374  0.8071  0.9622 -1.8922
 5385TIP3    H216117   0.333   1.936   5.334 -1.2022  0.5817  0.4198
 5386TIP3   OH216118   2.072   6.887   4.138  0.3592  0.0553 -0.1825
 5386TIP3    H116119   2.153   6.935   4.121  0.4676  0.6101  1.7964
 5386TIP3    H216120   2.009   6.924   4.076  0.4107  2.8573  1.3332
 5387TIP3   OH216121   1.426   2.422   3.783  0.6759 -0.4343  0.1215
 5387TIP3    H116122   1.339   2.461   3.796  0.6132 -0.5907  0.1771
 5387TIP3    H216123   1.463   2.471   3.710  0.5303 -0.3830  0.0803
 5388TIP3   OH216124   7.455   0.660   4.150 -0.1502  0.1884 -0.6784
 5388TIP3    H116125   7.440   0.589   4.088 -0.6594  0.1209 -0.4753
 5388TIP3    H216126   7.382   0.655   4.211 -0.4378  1.1592 -0.9252
 5389TIP3   OH216127   0.512   3.425   5.750 -0.2736 -0.7330  0.0976
 5389TIP3    H116128   0.522   3.375   5.831 -1.2954  0.2245  0.8320
 5389TIP3    H216129   0.561   3.506   5.765 -0.8568 -0.3457 -0.0372
 5390TIP3   OH216130   4.557   3.169   3.221  0.5265  0.3029 -0.3883
 5390TIP3    H116131   4.514   3.091   3.186 -0.9487  0.9278 -0.0087
 5390TIP3    H216132   4.626   3.135   3.278  1.3579 -0.7169 -1.9748
 5391TIP3   OH216133   4.943   2.699   5.774 -0.3378  0.6408  0.1241
 5391TIP3    H116134   4.867   2.734   5.729 -2.2945 -0.1207  2.7476
 5391TIP3    H216135   4.983   2.639   5.711 -0.9837  2.2265 -1.8278
 5392TIP3   OH216136   0.739   1.986   4.079 -0.2334  0.1574  0.0947
 5392TIP3    H116137   0.664   1.995   4.138 -1.2000 -0.0211 -1.0927
 5392TIP3    H216138   0.777   1.901   4.102  0.7924  1.0862  2.0175
 5393TIP3   OH216139   1.842   0.704   2.753 -0.5923 -0.5736 -0.6409
 5393TIP3    H116140   1.776   0.686   2.686 -1.9102  1.9365 -0.0561
 5393TIP3    H216141   1.795   0.699   2.836 -0.5462  3.0699 -0.3116
 5394TIP3   OH216142   6.733   3.222   4.636 -0.1197  0.5282 -0.1636
 5394TIP3    H116143   6.756   3.280   4.564 -0.7309  0.0492 -0.7564
 5394TIP3    H216144   6.760   3.269   4.715 -2.1716  2.3621 -0.5150
 5395TIP3   OH216145   5.931   6.986   3.024 -0.2688  0.6680  0.3873
 5395TIP3    H116146   5.993   7.039   2.973  0.1245 -0.0461  0.1194
 5395TIP3    H216147   5.981   6.958   3.100 -0.3132  0.2181  0.2487
 5396TIP3   OH216148   5.374   1.406   3.655  0.1377 -0.5511 -0.0924
 5396TIP3    H116149   5.430   1.365   3.721  1.6424  1.5471  0.0131
 5396TIP3    H216150   5.424   1.399   3.573 -0.1377 -0.0735 -0.3063
 5397TIP3   OH216151   6.776   1.750   2.699 -0.2242  0.0939  0.1185
 5397TIP3    H116152   6.712   1.777   2.633 -0.9599 -0.6659  0.5155
 5397TIP3    H216153   6.761   1.810   2.773  1.4495  1.7778 -0.8535
 5398TIP3   OH216154   5.273   1.227   1.822  0.0345 -0.0957 -0.4573
 5398TIP3    H116155   5.179   1.236   1.841  0.1320 -1.0591  0.5388
 5398TIP3    H216156   5.289   1.287   1.749 -1.1135  0.9455  0.1418
 5399TIP3   OH216157   3.735   1.153   3.687  1.1743 -0.4163 -0.0827
 5399TIP3    H116158   3.642   1.172   3.699  1.2488 -0.5062  0.6286
 5399TIP3    H216159   3.736   1.078   3.628  0.7907 -0.6379  0.1925
 5400TIP3   OH216160   0.042   2.508   5.907 -0.2214  0.5107 -0.0475
 5400TIP3    H116161   0.024   2.437   5.969  0.4177  0.1873 -0.2257
 5400TIP3    H216162  -0.008   2.484   5.829 -0.3145  0.4563  0.0282
 5401TIP3   OH216163   4.993   1.203   3.825  0.0882 -0.3866  0.1602
 5401TIP3    H116164   4.990   1.108   3.839  1.4576 -0.5014 -0.2456
 5401TIP3    H216165   4.974   1.241   3.911  0.3234 -1.0347  0.5018
 5402TIP3   OH216166   5.161   2.351   4.816  0.7338  1.0550 -0.0989
 5402TIP3    H116167   5.119   2.356   4.730 -1.1632 -0.2732  0.7030
 5402TIP3    H216168   5.215   2.430   4.821 -0.0934  1.7756 -2.0063
 5403TIP3   OH216169   6.910   3.130   5.448  0.5157 -0.0903 -0.1788
 5403TIP3    H116170   6.994   3.173   5.463  1.5082 -1.5150 -1.5459
 5403TIP3    H216171   6.928   3.037   5.458 -1.0012 -0.3946 -0.1045
 5404TIP3   OH216172   5.729   0.598   2.548 -0.6180 -0.2332 -0.6443
 5404TIP3    H116173   5.727   0.686   2.586 -1.0511 -0.1192 -0.9304
 5404TIP3    H216174   5.637   0.577   2.532 -0.5926 -1.1485  0.3598
 5405TIP3   OH216175   4.958   0.206   3.015 -0.4274  0.5520  0.5350
 5405TIP3    H116176   4.870   0.244   3.008 -0.7730  0.0405  1.8988
 5405TIP3    H216177   5.002   0.232   2.934 -1.2809  2.2715  0.5978
 5406TIP3   OH216178   2.951   7.233   4.016  0.1436 -0.1597  0.1006
 5406TIP3    H116179   2.934   7.326   4.030  2.3497  0.3272 -0.3259
 5406TIP3    H216180   2.984   7.202   4.100  1.0591 -0.1603 -0.2578
 5407TIP3   OH216181   6.552   1.778   4.441  0.1301  0.2722 -0.2931
 5407TIP3    H116182   6.560   1.821   4.526  1.7673  0.3850 -0.4970
 5407TIP3    H216183   6.512   1.844   4.385 -2.3433 -0.2864  0.7352
 5408TIP3   OH216184   4.373   0.290   2.383  0.1260  0.2776 -0.0539
 5408TIP3    H116185   4.464   0.281   2.356 -0.2393  1.3356 -1.7084
 5408TIP3    H216186   4.332   0.340   2.312 -0.7787  3.5964  2.7092
 5409TIP3   OH216187   6.306   1.737   4.033 -0.5079  0.1055 -0.8774
 5409TIP3    H116188   6.279   1.730   4.125  1.0456 -1.1623 -0.4984
 5409TIP3    H216189   6.392   1.780   4.036  0.1880 -1.1947 -1.6155
 5410TIP3   OH216190   0.228   0.622   5.300 -0.1605 -0.0459  0.0040
 5410TIP3    H116191   0.191   0.540   5.334  1.6436  0.0274  2.2773
 5410TIP3    H216192   0.154   0.682   5.295 -0.8807 -0.7854  1.5825
 5411TIP3   OH216193   0.984   1.940   2.636  0.2332 -0.1451 -0.1457
 5411TIP3    H116194   1.018   2.004   2.699 -2.0499  1.4126 -0.4385
 5411TIP3    H216195   0.912   1.897   2.683 -0.8905  0.3933 -1.3549
 5412TIP3   OH216196   5.366   6.252   3.067  0.2320  0.2253 -0.0460
 5412TIP3    H116197   5.359   6.344   3.041 -0.3428  0.9928  2.6580
 5412TIP3    H216198   5.425   6.252   3.143 -1.3138 -1.3397  1.2152
 5413TIP3   OH216199   6.309   0.895   3.907 -0.3329 -0.2177  0.1488
 5413TIP3    H116200   6.363   0.879   3.829  0.1609  0.5224  0.3265
 5413TIP3    H216201   6.367   0.940   3.968 -1.1062  0.4690  0.3995
 5414TIP3   OH216202   6.537   2.311   4.081 -0.0991 -0.3222  0.2934
 5414TIP3    H116203   6.617   2.261   4.098 -0.4387 -0.5348  1.2521
 5414TIP3    H216204   6.545   2.389   4.135 -0.0884  0.1421 -0.3633
 5415TIP3   OH216205   0.064   3.756   3.450 -0.4833  0.2790  0.3662
 5415TIP3    H116206   0.126   3.808   3.502 -0.7312  0.6861  0.2536
 5415TIP3    H216207   0.032   3.817   3.384  0.1251 -0.3384 -0.5080
 5416TIP3   OH216208   0.747   4.072   2.922 -0.0109 -0.3364  0.6686
 5416TIP3    H116209   0.806   4.056   2.849  1.0334 -0.3786  1.5157
 5416TIP3    H216210   0.663   4.035   2.893  0.8358 -1.9505  0.2042
 5417TIP3   OH216211   0.966   1.573   3.661  0.1119 -0.6969 -0.0173
 5417TIP3    H116212   1.012   1.608   3.738 -0.2955 -0.3432  0.0709
 5417TIP3    H216213   0.874   1.578   3.685  0.0317 -1.5648 -0.1275
 5418TIP3   OH216214   7.108   7.314   5.297  0.2131  0.3319 -0.4879
 5418TIP3    H116215   7.058   7.316   5.215  2.1604 -0.3794 -1.7320
 5418TIP3    H216216   7.163   7.236   5.290  0.0052 -0.0366  1.7531
 5419TIP3   OH216217   5.743   3.151   5.465 -0.4394 -0.5939 -0.3476
 5419TIP3    H116218   5.680   3.215   5.431  0.6283  0.3289 -0.6238
 5419TIP3    H216219   5.806   3.142   5.394  1.5096  0.9212  1.1477
 5420TIP3   OH216220   0.150   2.544   4.901 -0.0009  0.0300 -0.0226
 5420TIP3    H116221   0.137   2.491   4.979 -1.6234 -0.9790 -0.9305
 5420TIP3    H216222   0.224   2.503   4.856  0.5007  0.2050  0.6396
 5421TIP3   OH216223   6.506   1.939   5.108  0.2178 -0.0398  0.0786
 5421TIP3    H116224   6.588   1.987   5.121 -0.0774  0.6010 -0.4552
 5421TIP3    H216225   6.520   1.857   5.156  1.2723 -0.0427 -0.2109
 5422TIP3   OH216226   5.676   1.856   2.203  0.2485 -0.5916  0.1719
 5422TIP3    H116227   5.717   1.926   2.254 -1.3159  0.2821  0.2833
 5422TIP3    H216228   5.622   1.903   2.139  1.2517 -1.6863 -1.5143
 5423TIP3   OH216229   6.900   3.307   5.735  0.0362  0.0361  0.3281
 5423TIP3    H116230   6.973   3.246   5.721 -0.4049 -0.5222  0.4798
 5423TIP3    H216231   6.900   3.323   5.830 -0.7880 -0.8929  0.4872
 5424TIP3   OH216232   6.797   1.437   2.964 -0.3642 -0.1317  0.0447
 5424TIP3    H116233   6.873   1.380   2.979 -0.7708 -1.2920 -2.0569
 5424TIP3    H216234   6.722   1.381   2.983 -0.7316  0.4334  0.2550
 5425TIP3   OH216235   0.008   0.159   4.126 -0.1759 -0.1247 -0.2419
 5425TIP3    H116236  -0.049   0.226   4.087 -1.2147 -0.3235  0.8994
 5425TIP3    H216237   0.068   0.135   4.056 -1.0035  0.6566 -1.2353
 5426TIP3   OH216238   6.202   1.661   4.280  0.1233 -0.3325 -0.1516
 5426TIP3    H116239   6.180   1.574   4.248  0.4046 -0.9888  1.3856
 5426TIP3    H216240   6.253   1.646   4.359  0.3469  1.2282  0.0302
 5427TIP3   OH216241   0.166   1.336   4.723 -0.0385  0.0714 -0.6411
 5427TIP3    H116242   0.112   1.275   4.672 -0.4112 -0.3288  0.2185
 5427TIP3    H216243   0.195   1.401   4.660  0.5883 -1.1459 -1.6344
 5428TIP3   OH216244   1.512   6.121   2.373 -0.4150  0.1238  0.1450
 5428TIP3    H116245   1.532   6.080   2.457  1.0589  0.7762  0.1285
 5428TIP3    H216246   1.493   6.048   2.315  0.1414 -0.4309  0.6463
 5429TIP3   OH216247   1.528   0.019   3.305 -0.5243 -0.4299  0.0998
 5429TIP3    H116248   1.545   0.036   3.398 -1.4809  1.3582 -0.0338
 5429TIP3    H216249   1.432   0.019   3.298 -0.4782  2.5728 -1.3884
 5430TIP3   OH216250   0.034   1.422   4.164 -0.2466 -0.0878 -0.1018
 5430TIP3    H116251   0.011   1.450   4.253  1.9298  1.1056  0.1263
 5430TIP3    H216252   0.109   1.363   4.176 -1.4403 -1.8107 -0.9818
 5431TIP3   OH216253   5.760   1.610   4.727 -0.1571 -0.0563  0.0538
 5431TIP3    H116254   5.801   1.687   4.686 -0.3661 -0.8640 -1.7324
 5431TIP3    H216255   5.774   1.540   4.664 -2.2729 -0.8859  0.4742
 5432TIP3   OH216256   6.034   1.941   0.622 -0.6389 -0.3406 -0.3836
 5432TIP3    H116257   6.067   1.881   0.555 -1.1329  0.0237 -0.9583
 5432TIP3    H216258   5.952   1.901   0.651  0.0769 -1.0209  0.7331
 5433TIP3   OH216259   7.664   0.369   4.054  0.1954  0.2903  0.1600
 5433TIP3    H116260   7.677   0.417   4.135  0.2428  1.0766 -0.3136
 5433TIP3    H216261   7.592   0.414   4.010  0.7310  0.3859 -0.6322
 5434TIP3   OH216262   0.239   1.734   5.005  0.3070  0.2297  0.2084
 5434TIP3    H116263   0.231   1.749   5.099  0.6165  0.7897  0.1525
 5434TIP3    H216264   0.154   1.701   4.978  0.7443 -1.5928  0.9812
 5435TIP3   OH216265   7.703   1.647   5.495 -0.4313  0.7286  0.2006
 5435TIP3    H116266   7.779   1.600   5.530  0.3684  1.6963 -0.2198
 5435TIP3    H216267   7.716   1.738   5.522 -1.0091  1.0584 -0.6147
 5436TIP3   OH216268   1.907   5.584   1.301 -0.2634 -0.2758 -0.2302
 5436TIP3    H116269   1.873   5.638   1.372 -0.5398 -0.0294 -0.5506
 5436TIP3    H216270   1.869   5.497   1.318 -1.3604  0.0919 -0.8047
 5437TIP3   OH216271   6.787   0.587   4.285 -0.1194  0.7754  0.1353
 5437TIP3    H116272   6.844   0.563   4.212  1.3681  3.4649  0.3346
 5437TIP3    H216273   6.724   0.515   4.291  0.4653 -0.0752 -3.0010
 5438TIP3   OH216274   6.075   1.657   1.541  0.6283  0.1631 -0.4419
 5438TIP3    H116275   6.044   1.747   1.535  0.8231  0.2257 -0.5011
 5438TIP3    H216276   6.155   1.662   1.592 -0.9648 -0.3591  2.2342
 5439TIP3   OH216277   4.853   0.871   5.689  0.4350 -0.2266  0.0926
 5439TIP3    H116278   4.911   0.806   5.648 -0.2406 -0.4146 -0.5680
 5439TIP3    H216279   4.765   0.838   5.672  0.1369 -0.1223  1.4013
 5440TIP3   OH216280   7.562   1.755   5.157 -0.9362  0.4318  0.0726
 5440TIP3    H116281   7.560   1.674   5.206  2.4537 -0.1285 -0.5544
 5440TIP3    H216282   7.482   1.754   5.104 -2.9450 -0.5278  3.0036
 5441TIP3   OH216283   0.263   3.882   2.069 -0.4826  0.0182  0.2399
 5441TIP3    H116284   0.226   3.818   2.130  0.7272  0.1004  1.0855
 5441TIP3    H216285   0.357   3.877   2.084 -0.1423 -0.0821 -1.7722
 5442TIP3   OH216286   5.453   1.720   4.989 -0.2177  0.2713 -0.2337
 5442TIP3    H116287   5.504   1.796   5.018 -0.3243  1.2721 -2.5373
 5442TIP3    H216288   5.375   1.759   4.949 -1.6813 -1.1692  1.1644
 5443TIP3   OH216289   7.313   1.858   1.543  0.0830 -0.4068 -0.5311
 5443TIP3    H116290   7.228   1.829   1.511  0.0379 -1.5073  0.5244
 5443TIP3    H216291   7.340   1.927   1.483 -2.0280  0.6820 -0.2645
 5444TIP3   OH216292   6.477   1.013   4.112  0.1759 -0.5427  0.1969
 5444TIP3    H116293   6.432   1.096   4.128 -1.1593 -0.7113 -2.3289
 5444TIP3    H216294   6.503   0.982   4.198 -1.2768  1.4192  1.3719
 5445TIP3   OH216295   7.133   1.527   5.082  0.2719 -0.3726  0.3693
 5445TIP3    H116296   7.061   1.526   5.018  1.5542  2.3711 -1.1974
 5445TIP3    H216297   7.094   1.563   5.161 -0.0379  1.3612 -0.5544
 5446TIP3   OH216298   6.383   1.846   6.279 -0.3777 -0.2841 -0.3032
 5446TIP3    H116299   6.390   1.751   6.288 -0.1007 -0.2159  0.2363
 5446TIP3    H216300   6.474   1.877   6.278 -0.4825  0.0837  0.7813
 5447TIP3   OH216301   0.021   2.399   5.122 -0.2634 -0.0168  0.3026
 5447TIP3    H116302  -0.037   2.451   5.179  0.5187  0.7601  0.4049
 5447TIP3    H216303   0.042   2.322   5.175 -1.3874 -0.4262  0.1736
 5448TIP3   OH216304   7.379   1.414   5.980  0.0533  0.4552  0.0451
 5448TIP3    H116305   7.405   1.322   5.979  2.7962  1.1060  3.4305
 5448TIP3    H216306   7.377   1.439   5.887  0.6208 -2.6055 -0.8620
 5449TIP3   OH216307   1.224   2.910   5.744  0.0443 -0.5126 -0.2468
 5449TIP3    H116308   1.251   2.826   5.783  0.5392 -0.9520 -1.5216
 5449TIP3    H216309   1.237   2.973   5.815 -1.2971 -1.6522  1.0573
 5450TIP3   OH216310   6.636   1.836   5.335  0.6095  0.0341  0.2648
 5450TIP3    H116311   6.632   1.927   5.305 -2.4839  1.0011  3.3219
 5450TIP3    H216312   6.718   1.831   5.385  2.0257  0.4098 -1.9538
 5451TIP3   OH216313   6.464   1.966   4.256 -0.0662  0.5040 -0.6438
 5451TIP3    H116314   6.514   1.922   4.188 -1.3204 -0.1108 -1.1953
 5451TIP3    H216315   6.403   2.022   4.208  0.2408  1.4040  0.0167
 5452TIP3   OH216316   6.922   1.166   4.408  0.1134  0.2739  0.4998
 5452TIP3    H116317   6.893   1.179   4.498  0.9141  2.1568  0.5080
 5452TIP3    H216318   6.933   1.071   4.400 -1.9823 -0.1033  1.7373
 5453TIP3   OH216319   7.335   1.638   4.356 -0.0690 -0.5444  0.0221
 5453TIP3    H116320   7.391   1.603   4.287  0.6359 -1.2690  0.9576
 5453TIP3    H216321   7.376   1.611   4.437 -0.3413  1.1640  0.7573
 5454TIP3   OH216322   5.184   3.329   4.954  0.1261  0.0059  0.0693
 5454TIP3    H116323   5.142   3.314   5.038  1.6835 -1.6963  0.5812
 5454TIP3    H216324   5.236   3.408   4.968 -0.7290  0.5442  0.2590
 5455TIP3   OH216325   6.958   4.183   3.478 -0.1772 -0.0117 -0.7982
 5455TIP3    H116326   7.012   4.116   3.520  0.4299  1.3301  0.5802
 5455TIP3    H216327   7.010   4.213   3.403  0.7627  0.8621  0.1854
 5456TIP3   OH216328   0.799   2.901   3.343  0.3954  0.8197 -0.4254
 5456TIP3    H116329   0.754   2.939   3.419  1.6988  1.5100  0.0110
 5456TIP3    H216330   0.803   2.807   3.362  0.4196  0.9447  0.1996
 5457TIP3   OH216331   4.846   2.166   2.298  0.2399  0.1954  0.4960
 5457TIP3    H116332   4.905   2.138   2.228  0.1002 -0.2098  0.5365
 5457TIP3    H216333   4.758   2.151   2.263  0.1685 -0.3799  0.8969
 5458TIP3   OH216334   0.917   2.030   4.630 -0.4461  0.3471 -0.1783
 5458TIP3    H116335   0.933   1.937   4.645  1.8259  0.8160  0.4146
 5458TIP3    H216336   0.935   2.071   4.714 -0.0448  1.4897 -0.8131
 5459TIP3   OH216337   6.951   0.139   3.615  0.2649  0.7264 -0.0368
 5459TIP3    H116338   6.989   0.072   3.558 -0.6351  1.2729 -1.3117
 5459TIP3    H216339   6.876   0.095   3.655 -0.9689  1.2625 -1.6976
 5460TIP3   OH216340   0.781   3.119   5.339  0.2936  0.5279  0.0472
 5460TIP3    H116341   0.739   3.159   5.415 -1.3958 -3.9078  1.6171
 5460TIP3    H216342   0.709   3.103   5.278  1.2736  1.8306 -1.4742
 5461TIP3   OH216343   1.672   3.155   4.379 -0.3754 -0.1483 -0.4778
 5461TIP3    H116344   1.614   3.192   4.313 -1.3461  0.5020  0.7280
 5461TIP3    H216345   1.732   3.100   4.330 -3.1435 -2.2761 -1.5810
 5462TIP3   OH216346   0.971   1.725   3.421 -0.5647  0.8546 -0.1255
 5462TIP3    H116347   0.982   1.684   3.506 -0.9779 -1.2005 -1.0207
 5462TIP3    H216348   1.047   1.782   3.411  0.6094 -0.5400  0.7118
 5463TIP3   OH216349   2.550   3.718   5.407 -0.1121 -0.1498  0.0078
 5463TIP3    H116350   2.462   3.751   5.424 -0.0659  0.4434 -0.8715
 5463TIP3    H216351   2.608   3.792   5.425  0.1955 -0.4996  0.4597
 5464TIP3   OH216352   2.352   3.060   5.892 -0.2383  0.2335  0.1398
 5464TIP3    H116353   2.392   2.982   5.853  1.7454  0.9782  0.6193
 5464TIP3    H216354   2.399   3.134   5.852 -1.0608  1.1375  0.8083
 5465TIP3   OH216355   7.767   0.432   0.073  0.4225  0.3518  0.7232
 5465TIP3    H116356   7.754   0.463  -0.017  2.1965  1.6446  0.8916
 5465TIP3    H216357   7.855   0.394   0.073 -0.8928 -2.8373  1.0627
 5466TIP3   OH216358   3.811   7.176   0.124 -0.1285 -0.2271 -0.1593
 5466TIP3    H116359   3.732   7.199   0.076  0.0321  2.1027  0.6070
 5466TIP3    H216360   3.804   7.082   0.139 -3.2069  0.1021  0.7318
 5467TIP3   OH216361   1.513   3.719   3.304  0.1081  0.6955 -0.2239
 5467TIP3    H116362   1.555   3.653   3.248  0.2984  0.3019  0.3815
 5467TIP3    H216363   1.585   3.773   3.335 -0.1400  1.7817 -1.4671
 5468TIP3   OH216364   5.891   0.611   2.322  0.0950  0.1575  0.2236
 5468TIP3    H116365   5.866   0.680   2.262 -0.3042 -0.0791  0.1154
 5468TIP3    H216366   5.839   0.627   2.401  0.5747  0.4343  0.4880
 5469TIP3   OH216367   2.371   0.002   5.992 -0.2063 -0.9510  0.4429
 5469TIP3    H116368   2.452   0.034   6.033 -0.4503  1.2205 -0.6776
 5469TIP3    H216369   2.339   0.076   5.941 -0.0962 -3.4509 -3.4332
 5470TIP3   OH216370   2.047   2.605   3.517 -0.2265  0.0054  0.6853
 5470TIP3    H116371   1.993   2.649   3.451  0.6332  0.8023  0.4923
 5470TIP3    H216372   2.065   2.518   3.480  0.1645  0.4092 -0.0977
 5471TIP3   OH216373   0.553   0.924   5.605  0.7163 -0.0229 -0.2075
 5471TIP3    H116374   0.604   0.847   5.630  0.5264  0.3207  1.2649
 5471TIP3    H216375   0.480   0.888   5.555  0.0617 -0.9162  1.3418
 5472TIP3   OH216376   1.193   4.102   4.550  0.3050  0.2608 -0.2076
 5472TIP3    H116377   1.211   4.029   4.608 -0.6948  0.2594  0.1046
 5472TIP3    H216378   1.254   4.090   4.477  0.9039 -0.2631  0.3667
 5473TIP3   OH216379   2.353   2.050   4.804 -0.5736 -0.1799 -0.5477
 5473TIP3    H116380   2.410   1.994   4.751 -0.6061  0.0503 -0.8300
 5473TIP3    H216381   2.412   2.118   4.838 -0.8009  0.4757 -1.4266
 5474TIP3   OH216382   1.987   1.009   4.174  0.0092  0.2541  0.4703
 5474TIP3    H116383   1.985   0.916   4.197  0.5428  0.1404  0.0636
 5474TIP3    H216384   2.079   1.033   4.177 -0.0723  0.6405  0.0499
 5475TIP3   OH216385   3.327   3.011   4.799  0.4581  0.6385  0.4999
 5475TIP3    H116386   3.355   3.086   4.746  0.7467  0.6907  0.7301
 5475TIP3    H216387   3.246   3.040   4.841  0.5541  0.8101  0.5656
 5476TIP3   OH216388   6.231   5.120   0.095 -0.6944  0.2479  0.2399
 5476TIP3    H116389   6.317   5.156   0.075 -0.8339  0.5496  0.1834
 5476TIP3    H216390   6.231   5.111   0.190 -0.7212  0.5516  0.2688
 5477TIP3   OH216391   1.173   0.552   5.440  0.2627  0.0516 -0.1181
 5477TIP3    H116392   1.097   0.593   5.482 -0.3465  0.8984 -2.0010
 5477TIP3    H216393   1.180   0.467   5.483 -1.1618  0.3545  0.7603
 5478TIP3   OH216394   6.108   1.289   1.697 -0.0503 -0.0507  0.5391
 5478TIP3    H116395   6.045   1.293   1.626 -0.2221 -2.3526  0.5237
 5478TIP3    H216396   6.080   1.357   1.758 -1.9712 -0.4027  0.0665
 5479TIP3   OH216397   7.124   5.369   4.728  0.9559 -0.0434  0.0101
 5479TIP3    H116398   7.048   5.419   4.699  1.6755  1.5911  0.8867
 5479TIP3    H216399   7.174   5.353   4.648  0.0194 -0.5768 -0.4797
 5480TIP3   OH216400   0.988   2.053   4.893  0.4211 -0.1445  0.1260
 5480TIP3    H116401   0.953   1.968   4.920  0.2745  0.4256  1.8074
 5480TIP3    H216402   1.080   2.051   4.920  0.8147 -0.3304 -1.1899
 5481TIP3   OH216403   4.750   6.248   0.518  0.4120  0.4273 -0.5395
 5481TIP3    H116404   4.661   6.284   0.525  0.6294  0.8768 -0.0198
 5481TIP3    H216405   4.738   6.153   0.523 -0.2159  0.3770 -2.3578
 5482TIP3   OH216406   0.688   2.801   5.482 -0.3516  0.5402  0.3890
 5482TIP3    H116407   0.627   2.784   5.410 -1.3289 -0.6013  1.4716
 5482TIP3    H216408   0.633   2.828   5.555  0.3345 -1.3241  1.6413
 5483TIP3   OH216409   2.969   5.200   1.220  0.7387  0.0480 -0.5881
 5483TIP3    H116410   3.013   5.116   1.209  0.1549 -0.3234 -0.1309
 5483TIP3    H216411   2.939   5.199   1.311 -0.5545  0.1368 -1.0079
 5484TIP3   OH216412   5.625   6.163   0.143  0.0502  0.2123 -0.1835
 5484TIP3    H116413   5.652   6.087   0.093  0.4004 -0.7125  1.3875
 5484TIP3    H216414   5.529   6.164   0.137  0.1118  0.2961 -1.1265
 5485TIP3   OH216415   0.304   1.020   4.381  0.2919 -0.5326 -0.2058
 5485TIP3    H116416   0.352   1.018   4.464  1.7384 -1.9295 -1.0609
 5485TIP3    H216417   0.356   0.966   4.322 -1.1176 -0.1447 -1.8254
 5486TIP3   OH216418   2.425   4.112   3.812  0.1543 -0.2259 -0.4149
 5486TIP3    H116419   2.458   4.061   3.739 -0.3163  0.1542 -0.8975
 5486TIP3    H216420   2.504   4.143   3.858  0.4943  1.0307 -1.8016
 5487TIP3   OH216421   2.521   2.811   5.503  0.2329 -0.7490 -0.1938
 5487TIP3    H116422   2.532   2.756   5.580 -0.2794 -2.1283 -1.0869
 5487TIP3    H216423   2.559   2.895   5.528  1.6457 -1.6983  0.9617
 5488TIP3   OH216424   2.420   2.439   5.807 -0.2413 -0.1677 -0.4173
 5488TIP3    H116425   2.480   2.513   5.794  1.2707 -1.4059 -0.6198
 5488TIP3    H216426   2.342   2.462   5.756  1.1988  0.1639 -2.5224
 5489TIP3   OH216427   0.604   1.160   3.944 -0.1974 -0.6347  0.6075
 5489TIP3    H116428   0.572   1.245   3.976 -1.3924  0.2554 -2.7348
 5489TIP3    H216429   0.686   1.181   3.900 -1.2877 -0.9304 -1.6085
 5490TIP3   OH216430   0.694   1.436   5.632 -0.5674  0.1899 -0.0777
 5490TIP3    H116431   0.677   1.480   5.716  1.0019 -0.7010  0.7314
 5490TIP3    H216432   0.661   1.347   5.644  1.2061 -0.4454  0.2099
 5491TIP3   OH216433   6.580   6.861   6.111  0.6313  0.3561  0.4475
 5491TIP3    H116434   6.558   6.923   6.042  0.5909 -2.1000 -1.8382
 5491TIP3    H216435   6.674   6.848   6.102  0.7646  0.6267  1.3958
 5492TIP3   OH216436   0.027   2.406   4.460 -0.4019  0.2231 -0.0108
 5492TIP3    H116437   0.117   2.415   4.429 -0.0263  0.5176  1.1540
 5492TIP3    H216438   0.024   2.457   4.541 -1.0484 -1.4677  1.0585
 5493TIP3   OH216439   4.134   7.060   1.000  0.3676 -0.1984 -0.1107
 5493TIP3    H116440   4.094   7.108   1.073  0.2620  1.1482 -1.0281
 5493TIP3    H216441   4.060   7.028   0.949  0.4199  1.7439 -1.4563
 5494TIP3   OH216442   2.223   5.544   0.812  0.1399 -0.2831  0.1425
 5494TIP3    H116443   2.184   5.559   0.726  1.4009  0.4245 -0.3141
 5494TIP3    H216444   2.151   5.559   0.873 -0.7515 -0.7263 -0.7767
 5495TIP3   OH216445   1.620   3.177   4.951  0.3873 -0.0322  0.9249
 5495TIP3    H116446   1.551   3.116   4.924  0.9801 -1.3344  2.2813
 5495TIP3    H216447   1.671   3.128   5.015  2.1031  1.1980  0.5272
 5496TIP3   OH216448   0.578   1.322   4.750  0.5591 -0.3715 -0.5623
 5496TIP3    H116449   0.654   1.291   4.799  1.4745  0.4929 -1.4266
 5496TIP3    H216450   0.509   1.331   4.816  1.0506 -1.6057  0.1450
 5497TIP3   OH216451   1.392   2.219   5.418 -0.4171  0.0042 -0.5348
 5497TIP3    H116452   1.366   2.161   5.347 -1.5206  0.5289 -0.5782
 5497TIP3    H216453   1.438   2.163   5.480 -0.7021 -0.7399 -0.9917
 5498TIP3   OH216454   0.871   1.814   6.192 -0.1099  0.5352 -0.1380
 5498TIP3    H116455   0.809   1.818   6.119  0.0196 -0.1031 -0.2839
 5498TIP3    H216456   0.842   1.884   6.252 -0.3084  0.9550 -0.7216
 5499TIP3   OH216457   3.546   7.279   0.946  0.0170  0.3610  0.3333
 5499TIP3    H116458   3.509   7.343   1.007  3.1433  0.6609  2.0051
 5499TIP3    H216459   3.584   7.332   0.876 -0.6174  0.1683 -0.1558
 5500TIP3   OH216460   0.875   1.223   5.703  0.3452  0.2969  0.8238
 5500TIP3    H116461   0.842   1.306   5.669  0.3227 -0.6846 -1.6994
 5500TIP3    H216462   0.801   1.163   5.695  1.6990 -1.1277 -1.9352
 5501TIP3   OH216463   2.111   1.619   3.191 -0.2763  0.2473  0.1261
 5501TIP3    H116464   2.132   1.553   3.125 -4.6005  0.7916 -1.9551
 5501TIP3    H216465   2.067   1.689   3.143 -1.5950  1.6665  3.2555
 5502TIP3   OH216466   2.388   6.043   0.864  0.3423  0.5846 -0.2557
 5502TIP3    H116467   2.427   5.970   0.817  1.2372  1.6140 -1.1559
 5502TIP3    H216468   2.458   6.109   0.868 -0.3932  1.3174  0.6822
 5503TIP3   OH216469   6.349   6.572   5.095 -0.2300 -0.4291  0.2750
 5503TIP3    H116470   6.311   6.509   5.156 -1.1303  0.6653  0.8560
 5503TIP3    H216471   6.372   6.647   5.149 -3.7849  1.7737 -1.0884
 5504TIP3   OH216472   4.274   5.331   0.714  0.4017 -0.1852 -0.1560
 5504TIP3    H116473   4.272   5.277   0.793 -2.0118  0.0189 -0.0592
 5504TIP3    H216474   4.303   5.271   0.645  2.5666 -0.3458  0.8552
 5505TIP3   OH216475   1.959   0.620   5.495 -0.5124  0.1237 -0.2227
 5505TIP3    H116476   1.972   0.567   5.416  1.0730 -0.6140  0.5154
 5505TIP3    H216477   2.047   0.651   5.519 -0.7186 -1.0088  2.1675
 5506TIP3   OH216478   2.414   7.266   1.424 -0.2923 -0.3420  0.1000
 5506TIP3    H116479   2.423   7.250   1.331 -2.8032 -2.8348  0.2365
 5506TIP3    H216480   2.324   7.295   1.436  0.6978  2.4801  1.4921
 5507TIP3   OH216481   2.481   7.220   0.836  0.1010  0.3623 -0.2414
 5507TIP3    H116482   2.403   7.274   0.821  0.9823  2.0322  1.0245
 5507TIP3    H216483   2.551   7.268   0.792  0.7155 -0.2779  0.0359
 5508TIP3   OH216484   3.108   6.930   1.030  0.5772 -0.0674 -0.5751
 5508TIP3    H116485   3.078   6.917   1.120 -2.6258  1.0666 -1.4035
 5508TIP3    H216486   3.085   6.849   0.985 -0.3550  0.4176 -0.9846
 5509TIP3   OH216487   1.365   1.990   5.263 -0.1351 -0.1769 -0.2626
 5509TIP3    H116488   1.444   1.949   5.229 -1.2543 -1.3823 -1.5262
 5509TIP3    H216489   1.312   1.916   5.294 -0.8870  0.5780  0.2773
 5510TIP3   OH216490   2.417   3.751   5.740  0.4474 -0.2744 -0.5081
 5510TIP3    H116491   2.436   3.845   5.744  0.8505 -0.4381  1.5021
 5510TIP3    H216492   2.357   3.743   5.665 -0.0211  1.6415 -0.3775
 5511TIP3   OH216493   7.334   2.549   5.053 -0.5733  0.2236  0.4331
 5511TIP3    H116494   7.372   2.581   4.971 -2.6530  2.6558  0.3464
 5511TIP3    H216495   7.382   2.594   5.122 -0.5474  0.1766  0.4454
 5512TIP3   OH216496   1.173   2.991   4.962 -0.4725 -0.4158 -0.1630
 5512TIP3    H116497   1.225   2.912   4.970 -1.0072 -0.8290 -0.7132
 5512TIP3    H216498   1.148   2.994   4.870 -0.8366  0.1463 -0.0505
 5513TIP3   OH216499   4.362   5.279   0.008  0.0073 -0.5635  0.0212
 5513TIP3    H116500   4.305   5.242  -0.060 -0.9049  1.6691 -0.4693
 5513TIP3    H216501   4.302   5.325   0.067  0.9125 -1.5839  1.7633
 5514TIP3   OH216502   4.460   4.011   0.019 -0.4387 -0.2575  0.0539
 5514TIP3    H116503   4.516   4.001  -0.058 -0.3344  0.2548  0.0611
 5514TIP3    H216504   4.518   3.995   0.094 -0.2727  0.3956  0.0656
 5515TIP3   OH216505   3.641   4.864   1.327  0.2514 -0.1226  0.1551
 5515TIP3    H116506   3.597   4.931   1.379  1.4504 -0.0374  1.0866
 5515TIP3    H216507   3.650   4.903   1.240  1.6611  1.2421  0.9052
 5516TIP3   OH216508   1.146   0.291   5.598  0.0436  0.4767  0.5874
 5516TIP3    H116509   1.104   0.211   5.629 -0.6364  0.1295 -1.1336
 5516TIP3    H216510   1.205   0.261   5.529  0.5992  1.3431  0.6878
 5517TIP3   OH216511   1.003   1.152   4.468 -0.1435 -0.3586 -0.1367
 5517TIP3    H116512   0.981   1.245   4.460  0.9549 -0.0322  0.4602
 5517TIP3    H216513   1.091   1.145   4.429 -0.8624 -1.4358 -1.5990
 5518TIP3   OH216514   2.054   0.200   5.304 -0.0839 -0.0720 -0.2510
 5518TIP3    H116515   2.033   0.107   5.308 -1.3089  0.1820 -0.6817
 5518TIP3    H216516   1.979   0.244   5.342  1.7440  0.6131  2.6934
 5519TIP3   OH216517   1.956   3.280   3.966  0.4228  0.3520 -0.2352
 5519TIP3    H116518   1.972   3.188   3.946 -0.5113 -0.3813  2.2284
 5519TIP3    H216519   2.008   3.328   3.901 -1.5707 -1.8446 -3.5820
 5520TIP3   OH216520   3.199   0.646   3.526 -0.6464  0.2057  0.3463
 5520TIP3    H116521   3.231   0.655   3.616 -2.0647 -0.1192  0.8812
 5520TIP3    H216522   3.278   0.653   3.472  0.1812  0.6364  1.5989
 5521TIP3   OH216523   1.901   2.011   3.986  0.6113 -0.0974  0.1294
 5521TIP3    H116524   1.966   1.998   3.917  1.8574 -2.2558  1.6510
 5521TIP3    H216525   1.952   2.026   4.065 -0.7977  1.1231  0.8365
 5522TIP3   OH216526   4.975   4.404   1.942 -0.4884 -0.4403  0.1206
 5522TIP3    H116527   5.038   4.337   1.969  0.2551  0.1992 -0.0078
 5522TIP3    H216528   4.969   4.463   2.018 -0.9257 -0.4917  0.1265
 5523TIP3   OH216529   7.053   3.041   3.993  0.3467  0.3308 -0.0069
 5523TIP3    H116530   7.020   3.052   3.904  0.0942 -1.3833 -0.1444
 5523TIP3    H216531   7.088   2.951   3.995 -0.6558 -0.0487  1.9394
 5524TIP3   OH216532   5.613   7.001   3.656  0.5439  0.2649 -0.5570
 5524TIP3    H116533   5.600   7.036   3.568 -0.8792 -0.0153 -0.4714
 5524TIP3    H216534   5.529   7.012   3.699  0.6173 -1.4690  0.1004
 5525TIP3   OH216535   1.363   1.548   4.810 -0.1375  0.2316  0.4625
 5525TIP3    H116536   1.364   1.459   4.774 -0.8611  0.1168  0.7197
 5525TIP3    H216537   1.346   1.605   4.735 -0.6976  0.0707  0.4683
 5526TIP3   OH216538   7.694   0.947   5.683 -0.1445  0.7191  0.0123
 5526TIP3    H116539   7.720   1.030   5.642  0.0840  0.2921 -0.7147
 5526TIP3    H216540   7.748   0.881   5.639  0.4286  0.3085  1.3334
 5527TIP3   OH216541   0.659   2.306   4.843  0.2277 -0.3070  0.0656
 5527TIP3    H116542   0.734   2.348   4.886 -0.7830  1.4156  0.1948
 5527TIP3    H216543   0.634   2.236   4.903 -0.9197  1.8210  2.1612
 5528TIP3   OH216544   1.502   2.243   5.694 -0.0207 -0.1049 -0.1312
 5528TIP3    H116545   1.539   2.172   5.642 -1.8684 -0.0075 -1.6284
 5528TIP3    H216546   1.531   2.225   5.783 -0.4891 -2.7479 -0.4790
 5529TIP3   OH216547   0.105   3.783   5.617  0.5915 -0.1787 -0.2503
 5529TIP3    H116548   0.025   3.731   5.616 -0.2580  1.1281 -0.2790
 5529TIP3    H216549   0.166   3.731   5.670 -0.2939 -1.1138 -0.1294
 5530TIP3   OH216550   1.196   1.913   3.088  0.3736 -0.3407  0.0666
 5530TIP3    H116551   1.105   1.943   3.092  0.7752  0.8303  0.9661
 5530TIP3    H216552   1.239   1.977   3.031  1.0610  0.3256  1.3107
 5531TIP3   OH216553   1.248   2.646   3.352  0.2546  0.4219 -0.5705
 5531TIP3    H116554   1.331   2.639   3.399 -0.5209  0.3364  0.8465
 5531TIP3    H216555   1.231   2.559   3.317  0.3151  0.2056 -0.0638
 5532TIP3   OH216556   2.196   0.426   4.610 -0.4596  0.2376  0.5706
 5532TIP3    H116557   2.211   0.365   4.537  0.1321  0.4897  0.4738
 5532TIP3    H216558   2.151   0.501   4.571 -0.4083  0.2428  0.5223
 5533TIP3   OH216559   5.773   2.786   2.443  0.1174  0.2205 -0.2061
 5533TIP3    H116560   5.682   2.802   2.468  0.1978  0.6095 -0.1604
 5533TIP3    H216561   5.823   2.854   2.488  0.5287 -0.4885  0.4264
 5534TIP3   OH216562   4.933   0.548   0.280  0.3421  0.7300  0.4274
 5534TIP3    H116563   4.864   0.587   0.226  0.7501  0.7427 -0.0909
 5534TIP3    H216564   4.898   0.463   0.307  0.3212  0.5158 -0.2564
 5535TIP3   OH216565   3.046   5.884   1.731 -0.0544 -0.5811 -0.1881
 5535TIP3    H116566   3.044   5.970   1.774 -0.9555 -0.9308  0.4730
 5535TIP3    H216567   3.005   5.899   1.646  0.3399 -0.2220 -0.3160
 5536TIP3   OH216568   2.496   1.835   4.271 -0.1834  0.3317  0.1950
 5536TIP3    H116569   2.505   1.778   4.347  0.7908  0.4037  0.1391
 5536TIP3    H216570   2.515   1.923   4.305 -0.1896  0.4205 -0.0338
 5537TIP3   OH216571   0.816   0.229   5.585  0.1712 -0.5458 -0.0745
 5537TIP3    H116572   0.756   0.262   5.519 -0.2859  0.4369  0.8202
 5537TIP3    H216573   0.804   0.287   5.660  0.3504 -1.9194  1.0445
 5538TIP3   OH216574   7.768   6.913   5.200 -0.2801  0.2325  0.0660
 5538TIP3    H116575   7.694   6.972   5.217  0.6833  1.9570 -1.5469
 5538TIP3    H216576   7.734   6.826   5.219 -1.4772  1.3577  3.3663
 5539TIP3   OH216577   3.859   5.895   0.422 -1.1063 -0.0566  0.2464
 5539TIP3    H116578   3.790   5.932   0.367  0.0435  0.8683 -0.6187
 5539TIP3    H216579   3.927   5.869   0.360 -0.2963 -0.1058  1.1464
 5540TIP3   OH216580   0.888   2.790   6.144 -0.1820 -0.1052 -0.3644
 5540TIP3    H116581   0.965   2.740   6.117  0.2986  0.9120 -0.8948
 5540TIP3    H216582   0.862   2.838   6.066 -1.3049 -0.3764 -0.1628
 5541TIP3   OH216583   6.743   5.601   4.447 -0.2368 -0.4675 -0.5617
 5541TIP3    H116584   6.745   5.687   4.406 -2.6375 -0.7576 -1.3881
 5541TIP3    H216585   6.746   5.540   4.373  0.4494 -1.0648 -0.0379
 5542TIP3   OH216586   5.933   0.116   1.574 -0.3062 -0.0510  0.1164
 5542TIP3    H116587   5.861   0.132   1.635  0.0292 -1.6056  0.9698
 5542TIP3    H216588   6.012   0.121   1.628  0.1912  1.1541 -0.7130
 5543TIP3   OH216589   0.378   2.369   4.902  0.4769  0.4136 -0.0709
 5543TIP3    H116590   0.450   2.415   4.945  1.0917 -0.1117 -0.5223
 5543TIP3    H216591   0.416   2.286   4.874 -0.1327  0.4028 -0.8922
 5544TIP3   OH216592   0.991   1.955   5.757 -0.4060 -0.1458  0.1061
 5544TIP3    H116593   1.024   1.902   5.829 -0.4904 -2.2217 -1.3123
 5544TIP3    H216594   1.059   2.021   5.742  0.2783 -0.6092  1.1184
 5545TIP3   OH216595   2.169   1.970   4.460 -0.4300 -0.3225  0.4378
 5545TIP3    H116596   2.141   2.013   4.540 -1.5891 -0.9588  0.3852
 5545TIP3    H216597   2.185   1.879   4.486 -0.8183 -0.5326 -0.0440
 5546TIP3   OH216598   7.548   2.633   5.712 -0.2871  0.9457 -0.2269
 5546TIP3    H116599   7.612   2.693   5.751  1.4429  0.1214 -1.7580
 5546TIP3    H216600   7.464   2.678   5.723  0.5802  2.2458  1.4074
 5547TIP3   OH216601   1.307   3.086   5.941 -0.3097  0.5455 -0.6201
 5547TIP3    H116602   1.251   3.136   6.000 -0.4462 -0.8948  0.5144
 5547TIP3    H216603   1.368   3.150   5.904 -0.2451  1.4819  1.0676
 5548TIP3   OH216604   7.076   3.153   4.250 -0.1690  0.4000  0.2383
 5548TIP3    H116605   7.079   3.248   4.240  0.7191  0.3006 -0.4699
 5548TIP3    H216606   7.069   3.119   4.161  1.2609 -0.2622  0.3752
 5549TIP3   OH216607   1.186   0.191   3.712  0.2822 -0.7756 -0.1147
 5549TIP3    H116608   1.162   0.132   3.640 -0.5044  0.0462 -0.5450
 5549TIP3    H216609   1.186   0.135   3.790 -1.5087 -1.1404 -0.3465
 5550TIP3   OH216610   0.982   1.083   5.912 -0.3177 -0.2372  0.0269
 5550TIP3    H116611   0.954   1.130   5.833 -0.5689 -0.2804  0.0901
 5550TIP3    H216612   0.903   1.078   5.965 -0.8142 -2.5928 -0.8969
 5551TIP3   OH216613   0.901   3.107   3.707  0.4718  0.2037  0.1469
 5551TIP3    H116614   0.975   3.163   3.686  0.5798 -0.5569 -1.5699
 5551TIP3    H216615   0.824   3.158   3.681  0.5517 -0.2628 -1.0397
 5552TIP3   OH216616   0.159   2.478   5.448  0.2001 -0.1346 -0.1853
 5552TIP3    H116617   0.225   2.413   5.426  1.8290  1.3511  0.1605
 5552TIP3    H216618   0.191   2.518   5.528  0.2921  2.4590 -1.4570
 5553TIP3   OH216619   2.940   4.637   0.403 -0.2008 -0.5274 -0.0349
 5553TIP3    H116620   2.925   4.544   0.385 -0.3674 -0.2024 -1.6538
 5553TIP3    H216621   2.860   4.680   0.375 -0.3220  0.0643  1.1859
 5554TIP3   OH216622   6.336   1.598   4.539  0.1508  0.2116  0.7183
 5554TIP3    H116623   6.401   1.665   4.522  0.3740  0.0147  0.7889
 5554TIP3    H216624   6.377   1.540   4.603  0.2605 -0.4126  0.0991
 5555TIP3   OH216625   1.580   2.510   4.250 -0.5384 -0.0530 -0.4147
 5555TIP3    H116626   1.544   2.587   4.206  0.5493  1.6729  1.5695
 5555TIP3    H216627   1.529   2.503   4.331  0.7919 -0.0796  0.4398
 5556TIP3   OH216628   3.753   5.651   0.068 -0.2685  0.4708 -0.4667
 5556TIP3    H116629   3.680   5.702   0.033 -1.2816 -1.4010 -1.2124
 5556TIP3    H216630   3.822   5.660   0.002 -1.2803 -1.0038 -1.7737
 5557TIP3   OH216631   1.475   1.939   3.430 -0.2859  0.3786 -0.0914
 5557TIP3    H116632   1.432   2.024   3.424 -3.0077 -0.8463  0.9149
 5557TIP3    H216633   1.501   1.931   3.521 -1.2354 -0.3718  0.1324
 5558TIP3   OH216634   1.548   1.352   4.864 -0.1061  0.3217 -0.0748
 5558TIP3    H116635   1.498   1.397   4.932  1.0644  0.0521  0.9989
 5558TIP3    H216636   1.614   1.302   4.913  2.6198  2.3774 -1.5104
 5559TIP3   OH216637   1.812   3.319   4.554  0.4432 -0.2061  0.4118
 5559TIP3    H116638   1.901   3.339   4.523  0.9742 -2.1428  0.6152
 5559TIP3    H216639   1.772   3.270   4.483 -0.1632 -0.0822  0.6667
 5560TIP3   OH216640   5.252   5.595   0.363  0.4732 -0.5559  0.1573
 5560TIP3    H116641   5.159   5.615   0.366  0.5522 -0.3313  1.8405
 5560TIP3    H216642   5.257   5.506   0.328 -0.3104 -0.2626 -0.7133
 5561TIP3   OH216643   2.808   5.788   0.151 -0.3028  0.3144  0.0966
 5561TIP3    H116644   2.842   5.821   0.067  1.2963 -1.1785  0.1242
 5561TIP3    H216645   2.857   5.837   0.217  1.0689 -1.1006  0.1399
 5562TIP3   OH216646   7.012   7.008   3.518  0.1213 -0.0625  0.0355
 5562TIP3    H116647   7.107   6.995   3.520 -0.0263 -1.0777  0.3324
 5562TIP3    H216648   6.993   7.030   3.427  0.5006 -0.8792 -0.2376
 5563TIP3   OH216649   2.938   5.344   0.172 -0.7761  0.6150 -0.1484
 5563TIP3    H116650   2.941   5.400   0.094  0.3003  1.3255  0.3824
 5563TIP3    H216651   2.853   5.300   0.167 -1.5966  2.2076 -0.6621
 5564TIP3   OH216652   2.235   0.125   2.744  0.3661  0.0545  0.1547
 5564TIP3    H116653   2.158   0.149   2.693  0.5027  2.2762  0.9319
 5564TIP3    H216654   2.266   0.044   2.704 -0.0143  1.2654 -2.7248
 5565TIP3   OH216655   2.788   1.349   4.002  0.1119 -0.5793 -0.1259
 5565TIP3    H116656   2.773   1.439   3.973  2.7909 -0.4494 -1.2932
 5565TIP3    H216657   2.713   1.300   3.969 -0.7125  0.9862 -0.6197
 5566TIP3   OH216658   1.219   4.142   6.145  0.1220 -0.0446 -0.1618
 5566TIP3    H116659   1.249   4.053   6.161 -0.0101 -0.0093  0.3169
 5566TIP3    H216660   1.125   4.134   6.129 -0.1907  0.1546  1.4166
 5567TIP3   OH216661   2.838   5.228   1.521 -0.2591 -0.0663 -0.3320
 5567TIP3    H116662   2.798   5.312   1.499 -1.5625 -0.9624 -1.5164
 5567TIP3    H216663   2.868   5.238   1.611  0.5794  2.0172 -0.8259
 5568TIP3   OH216664   7.096   7.287   2.697  0.0054 -0.0639  0.5564
 5568TIP3    H116665   7.016   7.338   2.710 -0.1748 -0.2744  0.2798
 5568TIP3    H216666   7.148   7.302   2.777  0.6684  1.8291 -0.1963
 5569TIP3   OH216667   2.656   0.945   5.466  0.0023  0.3728  0.1184
 5569TIP3    H116668   2.743   0.985   5.462  0.9144 -1.6629 -1.4112
 5569TIP3    H216669   2.596   1.016   5.442  1.1753  1.8985  1.5601
 5570TIP3   OH216670   2.636   3.478   5.293 -0.0770  0.1965  0.1185
 5570TIP3    H116671   2.610   3.569   5.309  0.3447  0.4250 -0.4699
 5570TIP3    H216672   2.683   3.452   5.373 -2.2265 -0.2846  1.2756
 5571TIP3   OH216673   1.097   2.650   6.013 -0.1330  0.8383 -0.3213
 5571TIP3    H116674   1.054   2.609   5.938  0.2141  0.9720 -0.5959
 5571TIP3    H216675   1.191   2.635   5.998 -0.1415 -0.6910  0.9934
 5572TIP3   OH216676   1.586   0.777   2.252 -0.1966 -0.3394  0.9421
 5572TIP3    H116677   1.568   0.827   2.172 -3.8060 -2.1995  0.5019
 5572TIP3    H216678   1.657   0.718   2.228  0.6957  1.1059 -0.0218
 5573TIP3   OH216679   0.693   1.536   5.374  0.7053 -0.2388  0.3195
 5573TIP3    H116680   0.707   1.454   5.326  0.8836  0.1247 -0.2515
 5573TIP3    H216681   0.686   1.509   5.466  3.7450 -0.6069  0.4952
 5574TIP3   OH216682   3.982   5.441   1.604 -0.0770  0.7988 -0.3492
 5574TIP3    H116683   4.021   5.514   1.555  0.7928 -0.8247 -2.1700
 5574TIP3    H216684   4.019   5.363   1.562 -3.2827 -0.7501 -0.3851
 5575TIP3   OH216685   3.481   5.673   0.346 -0.0659  0.1726  0.2486
 5575TIP3    H116686   3.424   5.599   0.324  1.0432 -0.5381 -0.3073
 5575TIP3    H216687   3.424   5.735   0.392 -0.7025 -1.5878  1.8550
 5576TIP3   OH216688   1.170   2.165   4.496  0.0885 -0.2590 -0.0528
 5576TIP3    H116689   1.103   2.229   4.472 -0.0933 -0.5080 -0.2216
 5576TIP3    H216690   1.122   2.099   4.548 -0.5151 -2.1958 -2.9437
 5577TIP3   OH216691   3.808   6.100   0.196 -0.2489 -0.0440 -0.2323
 5577TIP3    H116692   3.864   6.176   0.180 -0.0114 -0.4636 -1.4149
 5577TIP3    H216693   3.864   6.024   0.181 -1.1020 -0.4690 -1.4131
 5578TIP3   OH216694   1.077   1.730   4.189 -0.0080  0.2466  0.3485
 5578TIP3    H116695   1.124   1.720   4.272  1.2142  1.4438 -0.1774
 5578TIP3    H216696   1.029   1.812   4.198  0.9791  0.9363 -0.5044
 5579TIP3   OH216697   1.642   6.309   5.610 -0.1145 -0.1664 -0.0534
 5579TIP3    H116698   1.569   6.314   5.548 -0.2073  0.4899  0.0968
 5579TIP3    H216699   1.670   6.218   5.608 -0.1365 -0.1538 -1.0400
 5580TIP3   OH216700   0.492   0.496   3.673  0.3694 -0.1821  0.5957
 5580TIP3    H116701   0.576   0.475   3.633  0.7288 -1.3613  1.9509
 5580TIP3    H216702   0.514   0.537   3.756 -0.3952  0.8137  0.3239
 5581TIP3   OH216703   2.733   3.463   5.563 -0.4575  0.4126  0.0700
 5581TIP3    H116704   2.650   3.486   5.605 -1.0440 -0.4160 -0.6016
 5581TIP3    H216705   2.794   3.531   5.590 -1.4083  1.1332  0.4277
 5582TIP3   OH216706   2.757   1.831   5.834 -0.3705  0.2880 -0.1715
 5582TIP3    H116707   2.782   1.912   5.879 -0.0104 -1.2787  2.5590
 5582TIP3    H216708   2.814   1.828   5.757  1.2195  1.5152  0.9090
 5583TIP3   OH216709   1.305   4.642   3.554 -0.0510  0.5746  0.1296
 5583TIP3    H116710   1.212   4.663   3.560 -0.2592 -0.2597 -0.1098
 5583TIP3    H216711   1.322   4.586   3.629  0.1463  0.3232 -0.1028
 5584TIP3   OH216712   2.689   5.531   0.941  0.0124  0.5190  0.2420
 5584TIP3    H116713   2.642   5.492   0.868  0.2333  1.3501 -0.3439
 5584TIP3    H216714   2.650   5.490   1.019  0.6195 -1.2881 -0.3712
 5585TIP3   OH216715   1.783   2.783   2.128 -0.1884  0.3092 -0.3724
 5585TIP3    H116716   1.703   2.738   2.099 -0.8936  1.8834 -0.9037
 5585TIP3    H216717   1.753   2.855   2.183  1.0222 -0.8466  1.8738
 5586TIP3   OH216718   3.126   6.700   1.429  0.1417 -0.1220  0.0742
 5586TIP3    H116719   3.115   6.639   1.355  0.1062  1.1383 -0.9821
 5586TIP3    H216720   3.038   6.712   1.463 -0.4114  2.1602 -2.0354
 5587TIP3   OH216721   0.168   5.842   5.741 -0.1193 -0.1832  0.3801
 5587TIP3    H116722   0.225   5.824   5.816 -1.1681  2.0586  1.7823
 5587TIP3    H216723   0.100   5.775   5.746 -0.7654  0.5544  2.1043
 5588TIP3   OH216724   1.538   6.847   1.929 -0.0022  0.2277 -0.4480
 5588TIP3    H116725   1.526   6.886   1.843  0.4755  1.5120  0.0631
 5588TIP3    H216726   1.449   6.837   1.963 -0.0969  1.5733 -0.2803
 5589TIP3   OH216727   1.284   1.503   3.383  0.3384 -0.0512  0.0304
 5589TIP3    H116728   1.270   1.595   3.360  1.3788  0.2172  0.4239
 5589TIP3    H216729   1.318   1.506   3.472  0.3213 -0.8249  0.0634
 5590TIP3   OH216730   1.375   3.114   5.388  0.3885 -0.6586 -0.3253
 5590TIP3    H116731   1.313   3.183   5.412  0.2346 -0.8662 -0.1301
 5590TIP3    H216732   1.320   3.038   5.369  0.6969 -1.5226  2.1051
 5591TIP3   OH216733   4.056   6.312   0.141 -0.2076  0.4663  0.4594
 5591TIP3    H116734   4.003   6.365   0.082  0.2884  0.2101 -0.2186
 5591TIP3    H216735   4.094   6.375   0.202 -1.4701  0.6242  1.0979
 5592TIP3   OH216736   5.759   6.752   2.043 -0.4713  0.0449  0.1812
 5592TIP3    H116737   5.850   6.774   2.025 -1.1707  3.0662 -0.0313
 5592TIP3    H216738   5.754   6.745   2.138  0.0762 -0.5597  0.1635
 5593TIP3   OH216739   3.266   4.534   2.099  0.6357  0.3610  0.1872
 5593TIP3    H116740   3.312   4.541   2.016  1.9822 -0.5255  0.8386
 5593TIP3    H216741   3.221   4.450   2.095  0.8636  0.2259  0.4344
 5594TIP3   OH216742   0.434   1.643   5.759  0.1361 -0.7558 -0.0254
 5594TIP3    H116743   0.504   1.601   5.809 -1.0459  0.1515  2.4705
 5594TIP3    H216744   0.443   1.736   5.780  0.2297 -0.2102 -2.3326
 5595TIP3   OH216745   1.904   0.658   4.190 -0.1732  0.8859 -0.1141
 5595TIP3    H116746   2.000   0.662   4.185 -0.1785 -0.0421 -1.3970
 5595TIP3    H216747   1.875   0.665   4.099 -1.3144  0.8264  0.2359
 5596TIP3   OH216748   4.185   6.641   0.057 -0.2126 -0.1655  0.2156
 5596TIP3    H116749   4.216   6.561   0.100  2.2203  0.5128 -0.2095
 5596TIP3    H216750   4.138   6.688   0.126 -3.7908 -3.0087 -0.1310
 5597TIP3   OH216751   0.836   2.464   4.961  0.4319 -0.1439 -0.4956
 5597TIP3    H116752   0.794   2.546   4.989 -0.7610  0.1551 -2.9448
 5597TIP3    H216753   0.929   2.485   4.960  0.1852  1.0410 -0.5027
 5598TIP3   OH216754   1.212   1.046   3.790 -0.4754  0.2304 -0.0065
 5598TIP3    H116755   1.234   1.060   3.882 -0.4024  2.6249 -0.3599
 5598TIP3    H216756   1.270   1.105   3.741 -2.4900  1.1582 -1.3744
 5599TIP3   OH216757   3.589   6.307   1.033  0.5409 -0.0752 -0.0399
 5599TIP3    H116758   3.615   6.329   1.122 -0.0570 -1.9468  0.6308
 5599TIP3    H216759   3.522   6.239   1.044  0.0144  0.1177 -1.8948
 5600TIP3   OH216760   2.199   1.646   4.071 -0.0593  0.1342 -0.2157
 5600TIP3    H116761   2.224   1.738   4.085  1.2361  0.0839 -1.9374
 5600TIP3    H216762   2.182   1.612   4.159  2.0121  1.3265  0.7073
 5601TIP3   OH216763   3.965   6.439   0.852  0.1928  0.5659 -0.2010
 5601TIP3    H116764   3.918   6.356   0.838 -0.5636  1.0139 -0.3252
 5601TIP3    H216765   3.922   6.501   0.793  0.4555  1.1573  0.2293
 5602TIP3   OH216766   2.000   2.926   5.356 -0.3582  0.2704  0.6422
 5602TIP3    H116767   1.953   2.994   5.405  0.5889  0.1718  1.6928
 5602TIP3    H216768   2.089   2.958   5.348 -0.0366 -0.5993  0.6535
 5603TIP3   OH216769   4.241   5.695   0.337 -0.1323  0.2161  0.4785
 5603TIP3    H116770   4.240   5.606   0.372  0.7867 -0.2586 -0.7012
 5603TIP3    H216771   4.181   5.743   0.395 -1.3937 -1.3773  0.5371
 5604TIP3   OH216772   3.450   5.682   1.002  0.5319  0.2775 -0.2531
 5604TIP3    H116773   3.509   5.729   0.943  2.7439 -0.2555  1.4466
 5604TIP3    H216774   3.509   5.641   1.067 -1.6394 -1.1725  0.8640
 5605TIP3   OH216775   5.381   2.445   5.673  0.1424 -0.2046 -0.0015
 5605TIP3    H116776   5.303   2.392   5.684 -0.3324  0.1719 -1.4897
 5605TIP3    H216777   5.428   2.437   5.756 -0.3146 -2.2862  0.0723
 5606TIP3   OH216778   6.683   7.151   6.166 -0.0532  0.7821  0.5779
 5606TIP3    H116779   6.604   7.205   6.161  0.1752  1.0429 -0.3096
 5606TIP3    H216780   6.751   7.211   6.197  0.0277  0.8170  0.3340
 5607TIP3   OH216781   0.873   0.731   5.348  0.0495 -0.0821 -0.0985
 5607TIP3    H116782   0.832   0.675   5.281  1.7579  0.5902 -1.7538
 5607TIP3    H216783   0.888   0.672   5.422 -0.3484 -1.2388 -0.9204
 5608TIP3   OH216784   3.901   4.540   1.645  0.4870 -0.1985 -0.1403
 5608TIP3    H116785   3.965   4.608   1.667  1.6077 -2.1854  3.0751
 5608TIP3    H216786   3.946   4.458   1.665 -2.8182 -1.6839  1.5644
 5609TIP3   OH216787   2.542   5.601   2.141  0.0655 -0.4531 -0.1607
 5609TIP3    H116788   2.452   5.630   2.121  0.6109  1.3804 -0.0888
 5609TIP3    H216789   2.556   5.526   2.083 -0.6008  0.8630 -2.0961
 5610TIP3   OH216790   1.097   4.071   4.179  0.2710 -0.0775 -0.0729
 5610TIP3    H116791   1.188   4.052   4.158  0.0645  0.6436 -1.6935
 5610TIP3    H216792   1.073   4.007   4.246  1.9012 -0.4019  0.1988
 5611TIP3   OH216793   7.545   3.658   4.153 -0.4477  0.3273  0.2303
 5611TIP3    H116794   7.475   3.610   4.198  0.1762 -0.1043  0.7460
 5611TIP3    H216795   7.544   3.745   4.195 -2.3552  1.1809 -1.5115
 5612TIP3   OH216796   3.231   6.403   0.223 -0.9056 -0.0842  0.2234
 5612TIP3    H116797   3.194   6.406   0.312 -0.8354 -0.2910  0.2586
 5612TIP3    H216798   3.172   6.459   0.172  0.1220  1.5601  0.7908
 5613TIP3   OH216799   0.602   0.806   5.930 -0.7568 -0.1898 -0.0282
 5613TIP3    H116800   0.610   0.787   5.837  0.6464 -1.2245  0.2940
 5613TIP3    H216801   0.582   0.722   5.971 -0.1254  0.0291  0.7469
 5614TIP3   OH216802   1.177   4.439   3.985  0.7905  0.8003  0.3625
 5614TIP3    H116803   1.162   4.453   4.079  0.7057  1.0373  0.3158
 5614TIP3    H216804   1.099   4.476   3.943  0.8804  0.7964  0.1926
 5615TIP3   OH216805   4.295   5.962   1.371  0.4146 -0.2086  0.4233
 5615TIP3    H116806   4.253   6.031   1.423 -2.3399 -1.7656  0.3766
 5615TIP3    H216807   4.325   5.898   1.436 -0.3802 -0.7149  0.3151
 5616TIP3   OH216808   2.440   5.209   1.175  0.1010 -0.4390 -0.7378
 5616TIP3    H116809   2.400   5.230   1.091 -0.5264 -0.6827 -0.4980
 5616TIP3    H216810   2.414   5.119   1.193 -0.6393 -0.0435  0.2153
 5617TIP3   OH216811   3.678   7.376   0.385  0.0798  0.4496  0.6545
 5617TIP3    H116812   3.755   7.344   0.337 -1.3826  0.4742 -1.7905
 5617TIP3    H216813   3.653   7.302   0.441 -1.2756 -1.5706 -2.4923
 5618TIP3   OH216814   2.456   4.839   0.908 -0.2898 -0.7946 -0.5989
 5618TIP3    H116815   2.436   4.820   0.999 -0.1629 -0.7429 -0.5595
 5618TIP3    H216816   2.541   4.797   0.893  0.0452 -0.1668 -0.4804
 5619TIP3   OH216817   7.643   7.138   4.044  0.0940  0.0161  0.0826
 5619TIP3    H116818   7.641   7.189   3.963  0.4558 -2.2011 -1.3717
 5619TIP3    H216819   7.618   7.049   4.017 -1.1427 -0.4523  2.6542
 5620TIP3   OH216820   3.671   6.629   0.239  0.1689  0.2326  0.3421
 5620TIP3    H116821   3.594   6.616   0.295 -1.6103  0.8879 -1.8551
 5620TIP3    H216822   3.645   6.590   0.155  1.7272  1.6908 -0.8351
 5621TIP3   OH216823   4.027   5.542   0.943  0.0206 -0.3885  0.1586
 5621TIP3    H116824   4.014   5.616   0.884  0.3819  0.2396  0.8680
 5621TIP3    H216825   3.940   5.527   0.981 -0.2330 -0.8492 -0.5889
 5622TIP3   OH216826   4.518   1.351   3.609  0.0955 -0.0682  0.1690
 5622TIP3    H116827   4.542   1.286   3.675  0.2151  0.1339  0.3221
 5622TIP3    H216828   4.427   1.331   3.588  0.4732 -1.0077 -0.6101
 5623TIP3   OH216829   3.243   2.704   3.928  0.1356 -0.5440  0.0341
 5623TIP3    H116830   3.239   2.791   3.968 -0.9166  0.1911 -1.5831
 5623TIP3    H216831   3.228   2.721   3.835 -0.7476 -2.5267 -0.1958
 5624TIP3   OH216832   0.531   1.416   4.052 -0.4101  0.5118 -0.1604
 5624TIP3    H116833   0.560   1.374   4.132  0.1939  1.3790  0.0869
 5624TIP3    H216834   0.589   1.492   4.042 -0.9606  0.8323 -1.0129
 5625TIP3   OH216835   4.426   5.455   2.393  0.4572 -0.4640 -0.0276
 5625TIP3    H116836   4.415   5.517   2.321 -2.2900 -2.2046 -1.2035
 5625TIP3    H216837   4.479   5.384   2.355  0.7607 -0.4100  0.2959
 5626TIP3   OH216838   1.884   1.081   4.859 -0.2659  0.2478 -0.4996
 5626TIP3    H116839   1.849   1.013   4.918 -0.6540  1.1653  0.3405
 5626TIP3    H216840   1.885   1.040   4.773 -1.1942 -0.5780 -0.1213
 5627TIP3   OH216841   2.516   0.466   2.850 -0.2225 -0.0206 -0.4811
 5627TIP3    H116842   2.466   0.530   2.801 -0.5365 -0.6464 -0.9925
 5627TIP3    H216843   2.450   0.408   2.889  0.0706 -0.3388 -0.4502
 5628TIP3   OH216844   2.044   3.735   3.927  0.0759 -0.1535 -0.3654
 5628TIP3    H116845   1.975   3.718   3.992 -0.2898 -0.7483 -0.9052
 5628TIP3    H216846   2.091   3.810   3.962  0.5679 -1.1461  1.1369
 5629TIP3   OH216847   1.776   1.648   5.347  0.0004 -0.5175  0.7130
 5629TIP3    H116848   1.747   1.661   5.437 -0.9467  1.7351  0.1204
 5629TIP3    H216849   1.710   1.589   5.309 -2.3267  2.3310  0.1844
 5630TIP3   OH216850   2.440   1.099   5.399 -0.5838  0.3077  0.0999
 5630TIP3    H116851   2.443   1.056   5.314 -0.0586 -1.6560  1.0678
 5630TIP3    H216852   2.352   1.137   5.403 -0.3863  0.9679 -1.5638
 5631TIP3   OH216853   4.622   6.078   1.850  0.8634 -0.0235 -0.3951
 5631TIP3    H116854   4.701   6.106   1.897  0.6989  0.3585 -0.3430
 5631TIP3    H216855   4.614   6.140   1.778 -0.0982  0.7330  0.3425
 5632TIP3   OH216856   1.125   0.459   5.178 -0.2218  0.7622  0.2576
 5632TIP3    H116857   1.107   0.519   5.105 -0.7323  0.1928 -0.0888
 5632TIP3    H216858   1.127   0.515   5.255 -0.7492  1.2180 -0.0589
 5633TIP3   OH216859   6.753   5.986   5.528 -0.1163 -0.4532  0.4573
 5633TIP3    H116860   6.786   5.938   5.604 -0.3179 -1.0791  0.1480
 5633TIP3    H216861   6.752   5.922   5.457 -0.9926 -0.1595  0.1971
 5634TIP3   OH216862   4.608   6.915   2.907 -0.0329  0.5691  0.2807
 5634TIP3    H116863   4.607   6.874   2.820 -1.2088  0.8595  0.1433
 5634TIP3    H216864   4.700   6.919   2.931  0.2998  0.4653 -0.9540
 5635TIP3   OH216865   1.389   3.611   6.090  0.4126  0.2242  0.7990
 5635TIP3    H116866   1.323   3.564   6.142  0.2054 -1.0623 -0.5831
 5635TIP3    H216867   1.470   3.603   6.141 -0.1786  0.5972  1.8192
 5636TIP3   OH216868   7.019   0.228   0.655  0.7952 -0.5923 -0.0408
 5636TIP3    H116869   6.938   0.273   0.679  0.7510 -1.5777  1.7204
 5636TIP3    H216870   6.998   0.135   0.664  1.4500 -0.9364 -1.8170
 5637TIP3   OH216871   0.423   0.920   6.117 -0.2466  0.0082 -0.1296
 5637TIP3    H116872   0.489   0.865   6.074 -0.7109 -1.4958  1.0448
 5637TIP3    H216873   0.427   1.003   6.070 -2.3762 -2.2930 -4.7107
 5638TIP3   OH216874   3.485   0.731   0.098  0.2570 -0.0423  0.0844
 5638TIP3    H116875   3.503   0.671   0.026  0.9981  0.5753 -0.2497
 5638TIP3    H216876   3.566   0.731   0.150  0.0577  0.2194  0.3981
 5639TIP3   OH216877   2.173   4.953   1.375  0.2662  0.1855  0.3423
 5639TIP3    H116878   2.198   4.908   1.456  1.4157  0.3533  0.0986
 5639TIP3    H216879   2.177   5.046   1.398 -2.8162  0.1974  1.0522
 5640TIP3   OH216880   1.884   1.305   5.670  0.4030 -0.2399  0.0914
 5640TIP3    H116881   1.915   1.393   5.690 -0.0496  0.0276 -0.3602
 5640TIP3    H216882   1.909   1.253   5.746  0.1536  0.4062  0.6242
 5641TIP3   OH216883   5.016   6.864   5.323 -0.3658  0.3887 -0.8007
 5641TIP3    H116884   5.104   6.876   5.358  0.6539 -1.2583 -2.6618
 5641TIP3    H216885   5.003   6.937   5.262 -0.1727  0.4500 -0.7662
 5642TIP3   OH216886   1.589   5.531   1.582 -0.5120  0.4743 -0.2758
 5642TIP3    H116887   1.556   5.613   1.546 -0.3419  0.2795 -0.8966
 5642TIP3    H216888   1.577   5.467   1.511  1.3692  0.4504 -0.6116
 5643TIP3   OH216889   2.127   5.228   0.782 -0.5168 -0.2937 -0.0544
 5643TIP3    H116890   2.116   5.134   0.792 -0.4896 -0.2440  0.4710
 5643TIP3    H216891   2.043   5.265   0.810 -1.1502 -0.2591 -1.9798
 5644TIP3   OH216892   4.385   5.205   0.502  0.3024 -0.5426  0.3346
 5644TIP3    H116893   4.476   5.221   0.528 -0.2607  1.5665  1.1284
 5644TIP3    H216894   4.391   5.167   0.414  1.8610  2.2617 -0.8140
 5645TIP3   OH216895   2.320   4.286   5.224  0.4726  0.1519  0.0980
 5645TIP3    H116896   2.354   4.218   5.166  1.6989 -0.8178  1.8931
 5645TIP3    H216897   2.340   4.368   5.180 -0.3260 -0.6192 -1.7298
 5646TIP3   OH216898   3.350   4.750   0.835  0.2318  0.5492  0.7451
 5646TIP3    H116899   3.342   4.806   0.758  0.9551  0.8703  0.8970
 5646TIP3    H216900   3.413   4.682   0.810 -0.7259 -0.2602  0.5251
 5647TIP3   OH216901   2.602   6.443   3.162  0.2999  0.3517 -0.3486
 5647TIP3    H116902   2.674   6.466   3.103  0.3905  0.9509 -0.0056
 5647TIP3    H216903   2.616   6.496   3.240 -1.0641  1.2382 -0.6743
 5648TIP3   OH216904   1.135   2.715   5.212  0.0253 -0.7358  0.1078
 5648TIP3    H116905   1.076   2.787   5.235  1.2410  1.3292 -2.9502
 5648TIP3    H216906   1.219   2.741   5.250 -0.3438 -2.3011  2.0371
 5649TIP3   OH216907   2.923   0.407   2.491  0.0289  0.1593  0.4698
 5649TIP3    H116908   2.991   0.462   2.531 -0.1933 -0.2244  1.3953
 5649TIP3    H216909   2.857   0.397   2.560 -1.0115  0.5968 -0.4527
 5650TIP3   OH216910   4.628   5.104   1.804 -0.9904 -0.4505 -0.0479
 5650TIP3    H116911   4.605   5.191   1.770  0.1851  0.7336  2.1465
 5650TIP3    H216912   4.708   5.081   1.758 -0.0404  0.6381  1.0509
 5651TIP3   OH216913   0.350   1.471   3.837  0.3121 -0.2495 -0.0202
 5651TIP3    H116914   0.292   1.454   3.911  1.0060 -1.7531  0.2080
 5651TIP3    H216915   0.421   1.408   3.848  0.6054 -0.2547 -1.7646
 5652TIP3   OH216916   6.497   6.840   4.362 -0.1835  0.3233 -0.5957
 5652TIP3    H116917   6.568   6.846   4.299 -0.4732  1.2977 -0.8471
 5652TIP3    H216918   6.515   6.760   4.412  2.0521  1.4613  0.5078
 5653TIP3   OH216919   7.518   0.967   4.142 -0.2240 -0.0998  0.0631
 5653TIP3    H116920   7.553   0.934   4.060  1.1643  1.0978  0.1609
 5653TIP3    H216921   7.470   0.893   4.179  0.4184 -1.1106 -1.0867
 5654TIP3   OH216922   2.044   2.293   3.394  0.0781 -0.4212  0.0363
 5654TIP3    H116923   2.026   2.351   3.320  0.3414 -0.3285  0.0445
 5654TIP3    H216924   1.994   2.214   3.375 -0.0935 -0.2811 -0.0921
 5655TIP3   OH216925   1.475   2.959   5.634 -0.4345 -0.4523 -0.2426
 5655TIP3    H116926   1.393   2.952   5.681 -0.7401 -1.0223 -0.8450
 5655TIP3    H216927   1.454   3.011   5.556  0.0582  0.4635  0.2137
 5656TIP3   OH216928   4.780   1.541   5.493  0.1001  0.2023  0.5363
 5656TIP3    H116929   4.812   1.555   5.582 -1.1431  0.3193  0.9784
 5656TIP3    H216930   4.791   1.447   5.477 -2.6421 -0.4281  2.0271
 5657TIP3   OH216931   0.275   0.412   3.521  0.3607 -0.1825  0.1228
 5657TIP3    H116932   0.349   0.441   3.575 -0.2886  0.3499  0.7288
 5657TIP3    H216933   0.235   0.493   3.489 -0.7374 -0.4368  0.8416
 5658TIP3   OH216934   2.610   2.374   6.351 -0.6657  0.6930 -0.0874
 5658TIP3    H116935   2.583   2.346   6.264 -0.7210 -0.7490  0.3772
 5658TIP3    H216936   2.548   2.331   6.410  1.8467 -1.7006  0.9198
 5659TIP3   OH216937   1.570   3.310   4.168 -0.3637 -0.4965 -0.5187
 5659TIP3    H116938   1.532   3.385   4.120 -2.3524  1.5939  4.0375
 5659TIP3    H216939   1.665   3.324   4.162 -0.6556  1.2975 -1.4312
 5660TIP3   OH216940   2.496   2.161   1.900 -0.0550  0.2880  0.0694
 5660TIP3    H116941   2.457   2.148   1.987  0.9112 -0.4282  0.4069
 5660TIP3    H216942   2.457   2.092   1.846  0.3968 -0.1366  0.2870
 5661TIP3   OH216943   3.636   7.111   0.489 -0.3778  0.4907  0.4552
 5661TIP3    H116944   3.569   7.067   0.437  1.8789 -0.0361 -2.0514
 5661TIP3    H216945   3.709   7.049   0.492 -0.0119  0.9680  3.3583
 5662TIP3   OH216946   0.519   2.422   5.619  0.3704  0.0298  0.2334
 5662TIP3    H116947   0.445   2.458   5.667  1.0899  2.1258 -0.2020
 5662TIP3    H216948   0.510   2.455   5.530  0.7539 -1.3178 -0.3263
 5663TIP3   OH216949   1.909   2.713   6.013  0.1764 -0.0167  0.4222
 5663TIP3    H116950   1.928   2.787   6.070  2.4084  0.8256 -1.3570
 5663TIP3    H216951   1.845   2.746   5.950  0.8431  0.2953 -0.1006
 5664TIP3   OH216952   4.292   6.817   2.131  0.9577  0.1911 -0.1919
 5664TIP3    H116953   4.314   6.724   2.134  1.7025  0.3757  0.2323
 5664TIP3    H216954   4.368   6.861   2.169 -0.8332  0.7023  3.0259
 5665TIP3   OH216955   4.282   5.697   0.054  0.3598 -0.2895  0.0249
 5665TIP3    H116956   4.306   5.703   0.147  0.1236  0.5093  0.0399
 5665TIP3    H216957   4.199   5.650   0.052  0.4519 -0.4571  0.2074
 5666TIP3   OH216958   2.024   3.835   6.057  0.6146 -0.2284  0.1906
 5666TIP3    H116959   2.107   3.798   6.028  1.8724  2.4160  0.3009
 5666TIP3    H216960   2.045   3.925   6.083 -2.1650  0.2961  0.8066
 5667TIP3   OH216961   2.660   0.742   4.988  0.4295 -0.3006  0.0231
 5667TIP3    H116962   2.674   0.763   5.080  0.4821 -0.9918  0.1730
 5667TIP3    H216963   2.746   0.750   4.947  0.7402 -1.7252  0.3809
 5668TIP3   OH216964   1.311   3.130   4.555  0.1423 -0.2204  0.1954
 5668TIP3    H116965   1.356   3.094   4.478  1.9744 -0.1524  1.1972
 5668TIP3    H216966   1.374   3.192   4.593 -1.1227  0.4820  1.1835
 5669TIP3   OH216967   3.838   6.160   2.097  0.1344  0.0807  0.2853
 5669TIP3    H116968   3.893   6.086   2.070  1.7616  0.9400  1.1660
 5669TIP3    H216969   3.827   6.212   2.017  0.4443 -0.1972  0.0591
 5670TIP3   OH216970   2.339   2.593   4.213 -0.2695 -0.4570 -0.1362
 5670TIP3    H116971   2.283   2.655   4.165 -1.4290 -3.1053 -2.3343
 5670TIP3    H216972   2.401   2.562   4.148  1.4134 -0.3481  1.3910
 5671TIP3   OH216973   4.011   6.842   0.625 -0.3037 -0.1393 -0.2713
 5671TIP3    H116974   3.958   6.862   0.548  0.4052 -1.0309 -0.9897
 5671TIP3    H216975   4.101   6.842   0.593  0.1103  0.8622  0.8469
 5672TIP3   OH216976   3.708   3.684   3.241  0.3809 -0.4675  0.3869
 5672TIP3    H116977   3.766   3.673   3.317  1.0090 -3.2173 -0.4239
 5672TIP3    H216978   3.756   3.643   3.169 -1.0517  0.4126 -1.0953
 5673TIP3   OH216979   7.615   2.910   5.370  1.1518 -0.2254 -0.1494
 5673TIP3    H116980   7.661   2.973   5.425  1.2367 -0.4962  0.0890
 5673TIP3    H216981   7.684   2.867   5.320  1.2910 -1.5057  1.1020
 5674TIP3   OH216982   3.879   2.658   3.726 -0.2148  0.2203 -0.2690
 5674TIP3    H116983   3.933   2.646   3.804  0.1162  0.4483 -0.4618
 5674TIP3    H216984   3.942   2.659   3.653 -0.6491 -1.6815 -0.7142
 5675TIP3   OH216985   1.762   2.447   4.704  0.7420 -0.2232 -0.0813
 5675TIP3    H116986   1.735   2.424   4.793 -1.1917 -0.4432 -0.7193
 5675TIP3    H216987   1.835   2.508   4.717 -0.8348  1.3594  1.6983
 5676TIP3   OH216988   1.088   1.062   5.502 -0.0783  0.8073  0.5880
 5676TIP3    H116989   1.081   1.142   5.554  0.3057  0.9723  0.3899
 5676TIP3    H216990   1.059   0.993   5.561 -0.8577  1.1472  0.6096
 5677TIP3   OH216991   4.804   1.568   3.911 -0.3272 -0.7779 -0.3706
 5677TIP3    H116992   4.898   1.562   3.899 -0.0090  1.0270  0.9671
 5677TIP3    H216993   4.784   1.506   3.981  0.1776  0.2517  0.7057
 5678TIP3   OH216994   0.513   1.826   3.703 -0.3106 -0.1173  0.0100
 5678TIP3    H116995   0.447   1.859   3.764  2.1711  1.5240  1.9193
 5678TIP3    H216996   0.596   1.835   3.750  1.4466 -0.8459 -2.8074
 5679TIP3   OH216997   5.652   4.840   0.484  0.0697  0.3136 -0.0333
 5679TIP3    H116998   5.597   4.916   0.504 -0.8772 -0.9011  2.1877
 5679TIP3    H216999   5.594   4.781   0.437 -0.0990 -0.3221  0.9613
 5680TIP3   OH217000   4.201   1.434   5.038  0.0956  0.0037 -0.0477
 5680TIP3    H117001   4.211   1.487   5.117  0.6144 -0.2695  0.0721
 5680TIP3    H217002   4.138   1.366   5.062  2.0783 -1.5410  0.8914
 5681TIP3   OH217003   1.059   2.393   4.633 -0.5815  0.1447 -0.3390
 5681TIP3    H117004   1.055   2.373   4.727 -3.2366 -1.9056 -0.8161
 5681TIP3    H217005   0.983   2.449   4.618  0.3592  1.2235 -1.1116
 5682TIP3   OH217006   1.738   2.481   3.689 -0.1414  0.1488 -0.4496
 5682TIP3    H117007   1.676   2.523   3.630 -0.0744 -1.9117 -2.0313
 5682TIP3    H217008   1.687   2.459   3.767 -0.9053  0.2524 -0.9246
 5683TIP3   OH217009   3.254   2.992   3.986  0.3236 -0.3332  0.0157
 5683TIP3    H117010   3.272   3.032   4.071 -0.4362 -0.0727  0.0640
 5683TIP3    H217011   3.201   3.058   3.940 -1.1073 -1.3681  0.1637
 5684TIP3   OH217012   2.389   2.123   4.355 -0.2608  0.2353 -0.0258
 5684TIP3    H117013   2.297   2.102   4.372 -0.2201 -0.7435 -0.9550
 5684TIP3    H217014   2.393   2.218   4.360 -1.0492  0.2115  1.3627
 5685TIP3   OH217015   2.828   2.184   5.384 -0.3437  0.3515 -0.0854
 5685TIP3    H117016   2.921   2.194   5.363  0.4032  0.7285  3.0871
 5685TIP3    H217017   2.812   2.090   5.375  0.6396  0.1259  0.3527
 5686TIP3   OH217018   1.395   1.511   3.623 -0.4942  0.1132  0.3186
 5686TIP3    H117019   1.479   1.556   3.614 -1.3992  1.9821  0.8646
 5686TIP3    H217020   1.374   1.519   3.716 -1.0673 -0.7388  0.2698
 5687TIP3   OH217021   4.889   6.323   0.829 -0.2739  0.0566  0.3138
 5687TIP3    H117022   4.929   6.268   0.760  1.3281 -0.6360  1.7574
 5687TIP3    H217023   4.932   6.408   0.820 -0.8018  0.2735 -0.1866
 5688TIP3   OH217024   4.883   4.199   4.577  0.0178  0.4131  0.0740
 5688TIP3    H117025   4.829   4.257   4.523 -2.3289 -1.5330  0.2186
 5688TIP3    H217026   4.878   4.236   4.665  0.5834  1.3871 -0.3074
 5689TIP3   OH217027   1.788   1.567   4.720  0.0631  0.1701 -0.4561
 5689TIP3    H117028   1.750   1.479   4.723 -0.6725  0.5493  1.5887
 5689TIP3    H217029   1.872   1.559   4.764 -0.0061  0.4965 -0.2629
 5690TIP3   OH217030   3.715   2.694   5.454  0.0351 -0.7900  0.0919
 5690TIP3    H117031   3.773   2.633   5.409  0.1292 -2.1846  2.0710
 5690TIP3    H217032   3.661   2.731   5.384  0.1719 -2.9018 -1.1758
 5691TIP3   OH217033   3.130   2.550   4.213  0.5320 -0.6914  0.6930
 5691TIP3    H117034   3.144   2.565   4.307  2.5865 -0.1144  0.3202
 5691TIP3    H217035   3.080   2.468   4.210 -1.5643  0.4832  2.3509
 5692TIP3   OH217036   4.415   1.963   2.039 -0.7135 -0.4686 -0.2474
 5692TIP3    H117037   4.338   1.949   2.094  0.7486 -3.1714  1.2436
 5692TIP3    H217038   4.396   1.916   1.958 -0.6819 -1.0509  0.0809
 5693TIP3   OH217039   3.348   3.409   4.553  0.3754  0.8875  0.6037
 5693TIP3    H117040   3.329   3.405   4.647 -0.4062 -1.4546  0.3824
 5693TIP3    H217041   3.266   3.382   4.511  1.6801 -1.3299 -0.6313
 5694TIP3   OH217042   2.969   3.490   4.329  0.6698 -0.3087  0.3468
 5694TIP3    H117043   2.958   3.558   4.263 -3.0648  1.2512  2.3982
 5694TIP3    H217044   2.961   3.536   4.413 -0.2276 -3.0068  1.8001
 5695TIP3   OH217045   1.965   1.821   2.745 -0.6359  0.1964 -0.1391
 5695TIP3    H117046   2.047   1.773   2.754 -1.1462 -0.2949  2.1584
 5695TIP3    H217047   1.927   1.789   2.663  0.8697 -0.4781 -0.5880
 5696TIP3   OH217048   3.420   3.674   6.160 -0.1521  0.0325 -0.1372
 5696TIP3    H117049   3.393   3.715   6.242 -0.0194  1.2055 -0.6671
 5696TIP3    H217050   3.515   3.673   6.163 -0.0719  2.1379 -1.2438
 5697TIP3   OH217051   3.509   5.510   6.133  0.2178  0.0186 -0.0341
 5697TIP3    H117052   3.457   5.430   6.120 -1.9777  1.4319 -0.2540
 5697TIP3    H217053   3.489   5.537   6.223  1.5448 -0.0921  0.2968
 5698TIP3   OH217054   2.889   4.268   3.593 -0.3748 -0.2705  0.2021
 5698TIP3    H117055   2.931   4.239   3.673 -0.3321 -1.7129 -0.3272
 5698TIP3    H217056   2.846   4.189   3.558 -1.8443  0.7170 -0.2843
 5699TIP3   OH217057   3.063   0.828   3.986 -0.6829 -0.2763 -0.3682
 5699TIP3    H117058   3.042   0.894   4.051  0.5726 -1.3631  1.1591
 5699TIP3    H217059   2.988   0.768   3.987 -0.1472 -0.9347  0.9240
 5700TIP3   OH217060   2.740   1.474   3.538  0.0783 -0.0747 -0.6843
 5700TIP3    H117061   2.650   1.441   3.539  0.0999 -0.1406  0.0848
 5700TIP3    H217062   2.731   1.566   3.515 -0.3936  0.4150  1.2885
 5701TIP3   OH217063   4.988   5.315   1.135  0.0185  0.3694  0.2183
 5701TIP3    H117064   4.944   5.269   1.207 -0.0762  1.3755  0.8166
 5701TIP3    H217065   5.037   5.247   1.089  0.2872 -0.2441  1.3936
 5702TIP3   OH217066   5.509   3.837   5.580 -0.2008 -0.0221  0.1536
 5702TIP3    H117067   5.469   3.904   5.635  0.3877  1.3850 -1.0671
 5702TIP3    H217068   5.464   3.756   5.602 -2.7423  1.2707 -0.1928
 5703TIP3   OH217069   3.494   1.355   5.757 -0.2220  0.0335 -0.3698
 5703TIP3    H117070   3.471   1.431   5.811 -0.1460  1.5527 -2.4251
 5703TIP3    H217071   3.579   1.378   5.719 -0.5352 -0.7763 -1.5747
 5704TIP3   OH217072   2.241   2.813   6.205 -0.5262 -0.2612 -0.2480
 5704TIP3    H117073   2.333   2.838   6.194 -0.2954 -1.1352 -0.3314
 5704TIP3    H217074   2.243   2.717   6.210 -1.3755 -0.2521  0.2847
 5705TIP3   OH217075   1.536   2.283   5.131 -0.6422 -0.8432 -0.3507
 5705TIP3    H117076   1.539   2.290   5.035 -0.6461 -1.6075 -0.4098
 5705TIP3    H217077   1.504   2.369   5.160  0.1587 -0.3174 -0.9806
 5706TIP3   OH217078   3.443   1.604   2.359  0.1280  0.1243 -0.4727
 5706TIP3    H117079   3.519   1.658   2.335  0.4625  0.9644  2.2787
 5706TIP3    H217080   3.383   1.665   2.402 -1.2754 -0.9118 -0.9434
 5707TIP3   OH217081   6.848   0.085   0.348  0.1509  0.0454 -0.2091
 5707TIP3    H117082   6.826   0.174   0.378  1.6530  0.0708  0.9185
 5707TIP3    H217083   6.914   0.098   0.280  0.2812 -0.2040 -0.1318
 5708TIP3   OH217084   3.130   1.760   5.823 -0.0673 -0.2016 -0.2296
 5708TIP3    H117085   3.052   1.760   5.768 -0.0454 -0.3726 -0.2618
 5708TIP3    H217086   3.174   1.843   5.803 -0.6639  0.2633  0.3908
 5709TIP3   OH217087   7.409   6.902   2.399  0.6244 -0.2587  0.0585
 5709TIP3    H117088   7.319   6.870   2.398  0.3524  0.4870  0.4161
 5709TIP3    H217089   7.417   6.955   2.320  0.2689  0.9725  0.8384
 5710TIP3   OH217090   2.223   3.993   3.115  0.0718  0.7738 -0.0191
 5710TIP3    H117091   2.207   4.084   3.087  1.1189  1.1458  0.5631
 5710TIP3    H217092   2.179   3.987   3.200 -2.2284 -0.0531 -1.2231
 5711TIP3   OH217093   2.070   5.647   0.202  0.0119 -0.3261  0.1141
 5711TIP3    H117094   2.022   5.717   0.158  1.2735 -0.3999 -1.4084
 5711TIP3    H217095   2.137   5.692   0.253 -0.2721 -0.3424  0.5047
 5712TIP3   OH217096   1.237   2.372   5.609 -0.4029 -0.3223  0.3161
 5712TIP3    H117097   1.277   2.301   5.558  2.0063  0.3120  1.2855
 5712TIP3    H217098   1.305   2.438   5.618 -2.4806  1.9960 -0.2227
 5713TIP3   OH217099   2.594   2.952   4.011  0.3806 -0.4953  0.4726
 5713TIP3    H117100   2.687   2.932   4.022  0.2972 -1.2978 -0.2098
 5713TIP3    H217101   2.592   3.018   3.942  0.5123  0.3713  1.2797
 5714TIP3   OH217102   2.698   3.918   4.471  0.3698  0.2448  0.4494
 5714TIP3    H117103   2.643   3.924   4.549 -0.5061  2.0194 -0.2768
 5714TIP3    H217104   2.707   4.009   4.441  0.6052 -0.4126 -1.5613
 5715TIP3   OH217105   1.500   2.517   5.693 -0.6077  0.1662 -0.6042
 5715TIP3    H117106   1.504   2.423   5.711 -0.6397  0.5952  1.7149
 5715TIP3    H217107   1.580   2.535   5.644 -0.9657 -1.1959 -1.7275
 5716TIP3   OH217108   2.868   2.649   3.007  0.0073  1.0515  0.2432
 5716TIP3    H117109   2.926   2.725   2.997  0.4242  0.5360 -1.3816
 5716TIP3    H217110   2.924   2.579   3.039 -0.1069  1.0660  0.4775
 5717TIP3   OH217111   3.001   1.750   4.069 -0.1760  0.2093  0.5864
 5717TIP3    H117112   2.919   1.709   4.097 -0.5621  1.5032  1.4070
 5717TIP3    H217113   3.044   1.776   4.150  1.2315 -0.7829  0.1762
 5718TIP3   OH217114   3.146   1.933   3.045  0.4644  0.7402  0.1797
 5718TIP3    H117115   3.129   1.870   3.115 -1.4063  0.2780 -0.6668
 5718TIP3    H217116   3.089   1.906   2.973  1.5169  1.8873 -1.1191
 5719TIP3   OH217117   4.152   0.241   2.743  0.4680  0.1722  0.1182
 5719TIP3    H117118   4.180   0.329   2.717  1.6279  0.1691  1.2692
 5719TIP3    H217119   4.132   0.250   2.836  0.9606 -0.8586  0.3269
 5720TIP3   OH217120   4.084   5.135   0.566 -0.1673 -0.1844  0.3919
 5720TIP3    H117121   4.008   5.079   0.582  2.2557 -3.6054  0.7333
 5720TIP3    H217122   4.110   5.165   0.653 -1.3332  1.3017  0.2349
 5721TIP3   OH217123   1.726   0.891   4.946  0.2110  0.1938 -0.0166
 5721TIP3    H117124   1.650   0.948   4.954  2.3985  3.2652 -0.3621
 5721TIP3    H217125   1.716   0.850   4.860 -1.8046 -0.6412  0.5858
 5722TIP3   OH217126   3.114   4.098   5.784  0.0668 -0.0488  0.6839
 5722TIP3    H117127   3.176   4.166   5.760 -1.1525  0.2595 -1.7749
 5722TIP3    H217128   3.030   4.143   5.790 -0.6337 -1.2084 -0.2664
 5723TIP3   OH217129   3.773   3.395   4.781  0.1820 -0.4300 -0.1878
 5723TIP3    H117130   3.829   3.409   4.857 -0.0981 -1.4294  0.2097
 5723TIP3    H217131   3.685   3.415   4.811  0.1662 -0.0491 -0.4774
 5724TIP3   OH217132   4.385   3.376   3.087 -0.1870 -0.9848 -0.0562
 5724TIP3    H117133   4.431   3.294   3.106 -0.6299 -0.7746  2.0432
 5724TIP3    H217134   4.408   3.433   3.160 -3.0777 -0.5877  0.5885
 5725TIP3   OH217135   2.016   1.833   4.984  0.5175  0.1765 -0.2712
 5725TIP3    H117136   2.001   1.790   5.068 -1.2173  2.2697  0.5215
 5725TIP3    H217137   2.063   1.913   5.006 -1.2815  1.4926 -1.1200
 5726TIP3   OH217138   2.383   4.457   4.639 -0.4600  0.2203 -0.0412
 5726TIP3    H117139   2.346   4.480   4.554 -1.1435  0.4811  0.3224
 5726TIP3    H217140   2.308   4.455   4.698  0.1576  1.1947  0.7936
 5727TIP3   OH217141   2.334   0.486   4.039 -0.4699 -0.0872  0.4634
 5727TIP3    H117142   2.291   0.509   4.121  0.2371 -1.6078  1.2831
 5727TIP3    H217143   2.427   0.481   4.061 -0.1916  0.2781 -0.6139
 5728TIP3   OH217144   2.756   1.655   4.152 -0.4518  0.3503 -0.1590
 5728TIP3    H117145   2.712   1.616   4.228 -1.4376 -0.3753 -1.0858
 5728TIP3    H217146   2.689   1.711   4.113 -0.7287 -1.1051 -1.8480
 5729TIP3   OH217147   2.650   1.787   5.489  0.4108 -0.0091  0.2356
 5729TIP3    H117148   2.617   1.836   5.415  0.2711  1.3432  1.1718
 5729TIP3    H217149   2.660   1.852   5.559  1.4569 -1.0650  1.1089
 5730TIP3   OH217150   1.942   2.530   5.040 -0.5913 -0.1985 -0.3762
 5730TIP3    H117151   1.865   2.587   5.042 -1.1755 -1.0223  2.2326
 5730TIP3    H217152   1.957   2.506   5.131  2.1215 -0.9449 -0.9611
 5731TIP3   OH217153   5.347   0.753   0.418  0.5185  0.0456  0.3712
 5731TIP3    H117154   5.367   0.665   0.451  0.9321 -0.1929 -0.4877
 5731TIP3    H217155   5.258   0.746   0.383  0.0264  0.3368  1.5615
 5732TIP3   OH217156   1.910   0.367   2.776 -0.3848 -0.2373 -0.2071
 5732TIP3    H117157   1.841   0.338   2.836  0.3985 -0.4156  0.6339
 5732TIP3    H217158   1.874   0.444   2.733 -0.3268  0.9425  1.7841
 5733TIP3   OH217159   3.133   2.719   6.316 -0.0782  0.3273  0.3539
 5733TIP3    H117160   3.197   2.731   6.386 -0.7666  1.6619  0.7604
 5733TIP3    H217161   3.088   2.638   6.338  0.6989 -0.0249  0.6679
 5734TIP3   OH217162   2.062   2.727   3.121  0.3918  0.3205  0.3866
 5734TIP3    H117163   2.014   2.661   3.171  0.5761 -0.2257 -0.1490
 5734TIP3    H217164   2.025   2.722   3.033  1.1779  0.1356  0.0536
 5735TIP3   OH217165   4.057   4.995   5.454 -0.0475 -0.1144  0.0945
 5735TIP3    H117166   4.092   4.923   5.401 -0.4673 -0.1596 -0.1257
 5735TIP3    H217167   4.124   5.011   5.520  1.6160  1.5795 -1.9287
 5736TIP3   OH217168   3.325   2.148   5.274 -0.8017 -0.9414 -0.0028
 5736TIP3    H117169   3.359   2.148   5.185 -2.1644  1.4852 -0.5463
 5736TIP3    H217170   3.295   2.058   5.288 -1.8811 -1.0062 -2.5131
 5737TIP3   OH217171   2.599   0.148   4.289 -0.4966 -0.2823 -0.1310
 5737TIP3    H117172   2.590   0.182   4.378  1.7851  0.2953 -0.0836
 5737TIP3    H217173   2.687   0.108   4.288 -0.3035  0.1595 -2.2573
 5738TIP3   OH217174   2.345   0.309   4.934  0.1812 -0.3147  0.2930
 5738TIP3    H117175   2.277   0.249   4.962 -3.0828  2.8149 -0.5767
 5738TIP3    H217176   2.343   0.306   4.839  0.8449  0.2437  0.2589
 5739TIP3   OH217177   1.935   3.311   3.563 -0.2837  0.6101 -0.6134
 5739TIP3    H117178   1.925   3.392   3.613 -0.5292 -0.2313  0.7234
 5739TIP3    H217179   2.026   3.313   3.532 -0.0565  1.0223  0.0760
 5740TIP3   OH217180   2.281   1.671   4.586 -0.6253  0.3012 -0.2949
 5740TIP3    H117181   2.214   1.710   4.643 -0.2748 -1.6656  1.5495
 5740TIP3    H217182   2.361   1.675   4.638  0.1215  0.1892 -1.4297
 5741TIP3   OH217183   4.068   4.470   5.411  0.8394 -0.4233  0.3027
 5741TIP3    H117184   3.987   4.504   5.449  1.1696 -1.9699  2.4932
 5741TIP3    H217185   4.041   4.391   5.365  1.1224 -1.0754  1.2437
 5742TIP3   OH217186   1.409   6.678   6.254 -0.0096  0.2951  0.4197
 5742TIP3    H117187   1.462   6.636   6.322 -1.4401 -0.3331  1.1659
 5742TIP3    H217188   1.329   6.705   6.299 -1.8972 -2.0117 -1.4116
 5743TIP3   OH217189   5.684   6.941   0.232  0.0934 -0.1135 -0.5025
 5743TIP3    H117190   5.717   6.855   0.207 -1.3788 -1.2445  1.3082
 5743TIP3    H217191   5.594   6.943   0.200 -0.8096 -0.4055  1.8653
 5744TIP3   OH217192   6.665   7.326   4.657  0.0503 -0.5228 -0.2655
 5744TIP3    H117193   6.616   7.379   4.719  0.0369 -0.9755  0.1102
 5744TIP3    H217194   6.598   7.284   4.603  0.0557 -0.3086 -0.4397
 5745TIP3   OH217195   2.278   1.011   4.195  1.0456 -0.6272  0.3701
 5745TIP3    H117196   2.336   1.077   4.234  1.5732 -1.8049  1.6597
 5745TIP3    H217197   2.332   0.969   4.128  0.6030  0.4705 -0.6691
 5746TIP3   OH217198   3.795   5.044   5.785  0.0682 -0.4176 -0.3701
 5746TIP3    H117199   3.780   4.958   5.745 -1.6521 -0.0155 -0.6293
 5746TIP3    H217200   3.827   5.024   5.873 -0.3967 -1.3339 -0.3975
 5747TIP3   OH217201   0.670   1.052   4.395  0.2857  0.4528 -0.1310
 5747TIP3    H117202   0.613   0.975   4.391  0.7222  0.0285  1.3821
 5747TIP3    H217203   0.744   1.024   4.449  1.8819  1.0426 -1.9456
 5748TIP3   OH217204   3.497   5.298   0.145  0.2909  0.0529 -0.0847
 5748TIP3    H117205   3.564   5.349   0.192  1.1277 -0.8210 -0.3133
 5748TIP3    H217206   3.470   5.354   0.073  0.1600  0.7574  0.5016
 5749TIP3   OH217207   3.385   2.905   5.141 -0.1799 -0.4259 -0.1081
 5749TIP3    H117208   3.348   2.925   5.055  1.1859  2.2466 -0.1329
 5749TIP3    H217209   3.361   2.980   5.195 -3.7749 -3.4626  2.8422
 5750TIP3   OH217210   2.174   4.231   4.577 -0.4299  0.0102 -0.0513
 5750TIP3    H117211   2.210   4.233   4.666  0.1929 -2.8701 -0.1687
 5750TIP3    H217212   2.082   4.208   4.589  0.4651 -4.1003 -0.2266
 5751TIP3   OH217213   3.341   3.748   5.875 -0.2829 -0.0734  0.0189
 5751TIP3    H117214   3.423   3.730   5.829 -1.3260 -1.5301 -1.3073
 5751TIP3    H217215   3.360   3.725   5.966  1.5717  2.1664  0.2549
 5752TIP3   OH217216   2.595   2.168   3.337  0.6202  0.3992  0.1609
 5752TIP3    H117217   2.603   2.152   3.243 -1.2065  0.7177 -0.0575
 5752TIP3    H217218   2.505   2.198   3.350  0.2565 -1.4782  2.2903
 5753TIP3   OH217219   4.539   5.582   2.168 -0.1070 -0.0960 -0.3352
 5753TIP3    H117220   4.627   5.613   2.143  0.4591 -1.1095  0.3712
 5753TIP3    H217221   4.526   5.503   2.116 -0.4153 -0.2080 -0.0851
 5754TIP3   OH217222   3.168   1.944   4.958 -0.6935 -0.3439  0.3238
 5754TIP3    H117223   3.245   1.887   4.959 -0.4339  0.0115  0.5946
 5754TIP3    H217224   3.152   1.961   4.865  0.0837  0.3041  0.3138
 5755TIP3   OH217225   1.520   2.317   4.856  0.3482 -0.2231 -0.5093
 5755TIP3    H117226   1.531   2.380   4.785  0.1814 -0.5888 -0.8598
 5755TIP3    H217227   1.498   2.234   4.813  1.5125 -0.7565 -0.1169
 5756TIP3   OH217228   4.685   2.216   2.981 -0.2436 -0.2664 -0.3127
 5756TIP3    H117229   4.616   2.254   3.034 -0.0215 -1.4695  0.8595
 5756TIP3    H217230   4.657   2.125   2.966  0.4521 -0.3858 -0.9054
 5757TIP3   OH217231   6.695   7.021   0.106  0.6218 -0.8196 -0.1390
 5757TIP3    H117232   6.676   6.957   0.175  1.6041 -0.5103  0.4274
 5757TIP3    H217233   6.782   6.998   0.075  0.4299 -0.5791 -0.8717
 5758TIP3   OH217234   1.459   3.527   4.714 -0.0799 -0.4487 -0.1537
 5758TIP3    H117235   1.398   3.529   4.788 -0.2120  0.5220 -0.2809
 5758TIP3    H217236   1.414   3.577   4.645  0.6994 -0.0537 -0.3762
 5759TIP3   OH217237   6.040   3.764   3.184  0.2029 -0.0923 -0.1975
 5759TIP3    H117238   6.029   3.675   3.150 -0.0869 -0.5089  0.9590
 5759TIP3    H217239   6.065   3.816   3.107 -1.2689 -0.8361 -1.2215
 5760TIP3   OH217240   1.802   3.098   5.518 -0.8260 -0.0916 -0.0492
 5760TIP3    H117241   1.831   3.103   5.609 -0.0010 -1.6794 -0.2112
 5760TIP3    H217242   1.745   3.174   5.507  1.2869  1.7008  0.9754
 5761TIP3   OH217243   3.301   2.218   3.272 -0.3660  0.5294  0.3390
 5761TIP3    H117244   3.280   2.231   3.180 -2.9208  0.9593  0.9542
 5761TIP3    H217245   3.224   2.248   3.319  1.2046  1.0724  2.6808
 5762TIP3   OH217246   2.951   2.030   4.067 -0.0283 -0.0156 -0.1860
 5762TIP3    H117247   2.858   2.047   4.055 -0.5599 -1.7761  1.1175
 5762TIP3    H217248   2.961   1.936   4.049  1.6491  0.3273 -1.1786
 5763TIP3   OH217249   2.794   3.298   6.240 -0.2556  0.1178 -0.0166
 5763TIP3    H117250   2.828   3.377   6.200  0.4158 -0.7440 -1.1528
 5763TIP3    H217251   2.720   3.272   6.184  1.5400 -1.8580 -1.5616
 5764TIP3   OH217252   4.462   6.009   5.283  0.4121  0.0308 -0.1064
 5764TIP3    H117253   4.490   5.951   5.354  0.5263 -0.8878 -0.9029
 5764TIP3    H217254   4.391   5.963   5.240  1.4007 -0.1266 -1.5907
 5765TIP3   OH217255   2.627   2.999   4.896  0.4198  0.0998 -0.2509
 5765TIP3    H117256   2.673   2.961   4.821  0.9012 -0.7924  0.4870
 5765TIP3    H217257   2.690   3.061   4.933  0.2459  0.4155 -0.4833
 5766TIP3   OH217258   2.983   3.428   3.896 -0.4890 -0.2204 -0.3368
 5766TIP3    H117259   2.906   3.436   3.839 -0.2956  0.0647 -0.5587
 5766TIP3    H217260   3.044   3.495   3.864 -0.4803  0.1193  0.3606
 5767TIP3   OH217261   5.037   5.795   5.713  0.5986  0.1744 -0.2988
 5767TIP3    H117262   4.978   5.791   5.638  0.3094  0.8718 -0.1178
 5767TIP3    H217263   5.123   5.814   5.676  0.8675 -1.6611 -0.6343
 5768TIP3   OH217264   3.005   3.320   3.337 -0.7042  0.4952 -0.0366
 5768TIP3    H117265   3.083   3.270   3.360 -1.3041 -0.3723  0.1514
 5768TIP3    H217266   3.025   3.356   3.251  0.0267  0.5437  0.1468
 5769TIP3   OH217267   1.289   1.702   4.362 -1.2695  0.0162 -0.1591
 5769TIP3    H117268   1.321   1.643   4.294 -1.7850 -0.9828  0.4502
 5769TIP3    H217269   1.368   1.735   4.404 -0.9433  0.6600 -1.2474
 5770TIP3   OH217270   4.066   3.163   2.575 -0.3500 -0.3101 -0.4860
 5770TIP3    H117271   4.095   3.077   2.606  0.0938  0.3432  0.9795
 5770TIP3    H217272   4.145   3.204   2.541  0.4582  1.2601  3.0120
 5771TIP3   OH217273   2.964   4.573   5.060  0.1412 -0.4302  0.0940
 5771TIP3    H117274   2.886   4.619   5.091 -0.9096 -1.4937 -0.9855
 5771TIP3    H217275   2.932   4.489   5.027  1.6915 -0.7227 -0.7058
 5772TIP3   OH217276   2.662   1.293   2.918  0.6647  1.0679  0.2407
 5772TIP3    H117277   2.573   1.277   2.885  0.9307  0.1331 -0.0368
 5772TIP3    H217278   2.652   1.296   3.013  0.7966 -2.0392  0.3825
 5773TIP3   OH217279   3.870   4.687   3.267 -0.2907  0.0461 -0.6071
 5773TIP3    H117280   3.898   4.625   3.334  2.0450 -0.3333 -1.8962
 5773TIP3    H217281   3.941   4.751   3.263 -1.3835  1.2353 -1.2626
 5774TIP3   OH217282   2.410   1.363   3.411 -0.9437 -0.0508  0.2026
 5774TIP3    H117283   2.468   1.388   3.339  1.3266  1.5437  2.5456
 5774TIP3    H217284   2.404   1.441   3.466 -3.3991 -0.9551  1.3126
 5775TIP3   OH217285   3.245   2.773   4.686  0.1740  0.2067 -0.0596
 5775TIP3    H117286   3.247   2.770   4.591  0.6188 -0.3239 -0.0357
 5775TIP3    H217287   3.299   2.848   4.709  0.9441 -0.3066 -0.1896
 5776TIP3   OH217288   1.911   0.602   4.755  0.1624  0.0223  0.3837
 5776TIP3    H117289   1.937   0.613   4.664  0.8503  2.8227  0.8754
 5776TIP3    H217290   1.832   0.655   4.764 -0.0044 -0.3846  1.3793
 5777TIP3   OH217291   1.387   0.824   4.810  0.5712 -0.5230 -0.1476
 5777TIP3    H117292   1.318   0.837   4.745  0.8459 -0.6530 -0.4652
 5777TIP3    H217293   1.382   0.731   4.833  1.2951 -0.7578 -0.9140
 5778TIP3   OH217294   5.019   4.342   0.316 -0.2646  0.1188 -0.1468
 5778TIP3    H117295   4.964   4.267   0.335 -0.2719  0.5248  1.5438
 5778TIP3    H217296   5.108   4.306   0.308 -0.2497 -0.0619  0.7943
 5779TIP3   OH217297   2.023   1.710   5.232 -0.3944 -0.2805 -0.2299
 5779TIP3    H117298   1.939   1.683   5.270 -0.9440 -0.6442 -1.6671
 5779TIP3    H217299   2.079   1.634   5.240 -0.4551 -0.3041 -0.0138
 5780TIP3   OH217300   2.354   1.152   3.159  0.3645  0.0460 -0.5392
 5780TIP3    H117301   2.392   1.077   3.205 -1.9833 -0.5728  0.4726
 5780TIP3    H217302   2.389   1.228   3.205  1.9722 -0.4161 -0.9396
 5781TIP3   OH217303   2.799   3.906   4.859 -0.5087  0.3241  0.3472
 5781TIP3    H117304   2.751   3.883   4.780 -0.9128  2.7226 -0.1588
 5781TIP3    H217305   2.746   3.871   4.930  0.3302 -2.6722 -0.4307
 5782TIP3   OH217306   1.212   1.062   5.047 -0.5638  0.5851 -0.2848
 5782TIP3    H117307   1.172   1.062   5.134 -0.5165  0.0037 -0.2601
 5782TIP3    H217308   1.167   0.994   4.999 -0.1298  0.4457 -0.5022
 5783TIP3   OH217309   3.368   3.327   3.594  0.3767 -0.2296  0.4898
 5783TIP3    H117310   3.296   3.363   3.646  2.2947  1.3155  2.1633
 5783TIP3    H217311   3.402   3.256   3.648  1.1649  0.1550  0.5097
 5784TIP3   OH217312   3.557   6.486   2.050 -0.0647  0.2708  0.2962
 5784TIP3    H117313   3.595   6.482   2.138  1.7306  1.4079 -0.3798
 5784TIP3    H217314   3.567   6.578   2.024 -0.2786 -0.1141 -1.2153
 5785TIP3   OH217315   1.198   3.725   3.851  0.5019  0.3040 -0.5286
 5785TIP3    H117316   1.283   3.715   3.894  0.0023 -2.4828 -0.0868
 5785TIP3    H217317   1.200   3.659   3.781 -2.1487 -1.3739  0.9253
 5786TIP3   OH217318   5.343   5.015   0.310  0.2072  0.1638 -0.2425
 5786TIP3    H117319   5.390   5.089   0.348 -1.6095  1.5380 -0.6022
 5786TIP3    H217320   5.251   5.029   0.336 -0.5591 -0.5750 -2.4608
 5787TIP3   OH217321   5.723   6.936   0.495  0.4472 -0.4572 -0.7717
 5787TIP3    H117322   5.815   6.910   0.495  1.1037  1.6843 -1.1588
 5787TIP3    H217323   5.703   6.952   0.402 -0.8569 -2.6398 -0.8909
 5788TIP3   OH217324   7.041   5.888   5.583 -0.2558 -0.6977  0.0237
 5788TIP3    H117325   7.136   5.875   5.586 -0.5129 -2.6934  0.1811
 5788TIP3    H217326   7.028   5.976   5.620  1.6060  0.1129 -1.1246
 5789TIP3   OH217327   3.674   5.489   0.282 -0.0969 -0.2572 -0.0929
 5789TIP3    H117328   3.624   5.555   0.330 -0.3280 -0.2052 -0.3992
 5789TIP3    H217329   3.702   5.534   0.202  0.4454 -0.2851  0.0767
 5790TIP3   OH217330   2.095   2.077   4.738 -0.2336  0.0240 -0.2119
 5790TIP3    H117331   2.184   2.058   4.767 -0.3338 -1.2778 -0.7007
 5790TIP3    H217332   2.072   2.158   4.782  1.4141  0.6891 -0.5405
 5791TIP3   OH217333   1.711   3.356   6.248 -0.3277  0.6620 -0.3903
 5791TIP3    H117334   1.720   3.391   6.336  1.7589  0.8707 -0.6546
 5791TIP3    H217335   1.773   3.283   6.244 -0.4465  0.6115 -1.6393
 5792TIP3   OH217336   1.795   1.603   2.833 -0.1887  0.1828 -0.0167
 5792TIP3    H117337   1.810   1.696   2.815  0.7652  0.7085  3.0739
 5792TIP3    H217338   1.737   1.603   2.909  0.6612 -1.7336  0.6583
 5793TIP3   OH217339   2.539   2.852   4.377  0.6836  0.1847 -0.3003
 5793TIP3    H117340   2.444   2.842   4.376  0.7118 -0.1248 -1.3674
 5793TIP3    H217341   2.572   2.770   4.338  1.3597  0.4953 -0.3873
 5794TIP3   OH217342   3.496   0.723   4.127  0.5259 -0.0823  0.0678
 5794TIP3    H117343   3.428   0.669   4.167  1.0560 -0.7609  0.0505
 5794TIP3    H217344   3.490   0.704   4.033 -0.3992  1.1499 -0.1388
 5795TIP3   OH217345   4.465   4.960   4.690  0.1399 -0.9031 -0.6506
 5795TIP3    H117346   4.405   5.021   4.647 -1.4880 -2.6280 -0.8432
 5795TIP3    H217347   4.468   4.990   4.781 -0.0246 -0.0676 -0.9124
 5796TIP3   OH217348   2.445   3.303   4.232  0.0432 -0.0827  0.1633
 5796TIP3    H117349   2.509   3.245   4.272  0.1700  0.3843  0.6479
 5796TIP3    H217350   2.362   3.281   4.274  0.0151 -0.2038  0.0434
 5797TIP3   OH217351   2.382   4.909   5.217 -0.0658  0.3789  0.3112
 5797TIP3    H117352   2.311   4.966   5.188  1.3479  1.3971 -1.3162
 5797TIP3    H217353   2.441   4.967   5.265  0.5236 -0.0708  0.1364
 5798TIP3   OH217354   3.328   0.523   4.212 -0.3070 -0.3764 -0.5221
 5798TIP3    H117355   3.269   0.511   4.286 -0.0272  1.9134  0.1143
 5798TIP3    H217356   3.275   0.503   4.135 -1.0587 -1.1926  0.1943
 5799TIP3   OH217357   4.343   3.382   6.344  0.2561  0.1774  0.5665
 5799TIP3    H117358   4.386   3.366   6.260 -0.3788 -1.5267  0.5502
 5799TIP3    H217359   4.414   3.380   6.408  0.5539  0.0726  0.2368
 5800TIP3   OH217360   7.719   1.939   5.866  0.7452 -0.3833 -0.5183
 5800TIP3    H117361   7.719   1.972   5.955 -1.1276 -0.1594 -0.5877
 5800TIP3    H217362   7.791   1.875   5.864  1.6045  0.5199  0.7848
 5801TIP3   OH217363   2.203   1.017   3.496  0.0041  0.0255 -0.0127
 5801TIP3    H117364   2.227   1.028   3.589 -1.1868  0.2930  0.2725
 5801TIP3    H217365   2.181   1.106   3.467 -1.5250 -0.3430 -0.0068
 5802TIP3   OH217366   2.129   2.458   3.934 -0.4744 -0.0264  0.2024
 5802TIP3    H117367   2.092   2.532   3.886  0.5698  1.1974  1.2611
 5802TIP3    H217368   2.171   2.405   3.866  0.6908  1.5043 -0.3237
 5803TIP3   OH217369   2.474   1.561   4.401 -0.4995 -0.4694 -1.0635
 5803TIP3    H117370   2.430   1.578   4.485 -0.7381 -0.7774 -1.1254
 5803TIP3    H217371   2.404   1.565   4.336 -0.3500 -0.4497 -1.2226
 5804TIP3   OH217372   2.340   2.681   5.344  0.0082 -0.4533  0.3571
 5804TIP3    H117373   2.421   2.713   5.384 -0.3149  0.4622  0.2813
 5804TIP3    H217374   2.341   2.718   5.256 -1.8410  1.8582  1.2640
 5805TIP3   OH217375   2.085   1.648   1.757  0.2369  0.3450  0.0432
 5805TIP3    H117376   2.087   1.588   1.683  1.2146 -0.7747  0.9600
 5805TIP3    H217377   2.133   1.603   1.826 -1.4600  0.9606  1.6725
 5806TIP3   OH217378   5.331   2.726   5.611 -0.1791  0.2156  0.0212
 5806TIP3    H117379   5.346   2.632   5.621  0.1520  0.3180  0.5141
 5806TIP3    H217380   5.278   2.749   5.687  0.8928  0.6790  0.6438
 5807TIP3   OH217381   1.611   1.737   3.264  0.4267 -0.3035  0.1425
 5807TIP3    H117382   1.619   1.643   3.282 -0.8955 -0.3602  0.5327
 5807TIP3    H217383   1.571   1.772   3.343  1.8596  0.7656  0.4005
 5808TIP3   OH217384   3.630   5.531   1.168 -0.2333 -0.3884  0.3266
 5808TIP3    H117385   3.637   5.483   1.250 -0.7677  1.7785  1.6896
 5808TIP3    H217386   3.679   5.612   1.184 -1.4941  0.6635 -1.0042
 5809TIP3   OH217387   4.531   6.218   0.054 -0.1441 -0.1631  0.3163
 5809TIP3    H117388   4.483   6.160   0.112 -1.8043  0.0487 -0.7989
 5809TIP3    H217389   4.479   6.219  -0.027  1.8773 -0.1159 -1.0158
 5810TIP3   OH217390   4.937   6.595   0.734 -0.4176  0.0330  0.4323
 5810TIP3    H117391   4.906   6.624   0.648 -0.4491  0.7822  0.6910
 5810TIP3    H217392   5.031   6.585   0.723 -0.3825  0.4223  0.3976
 5811TIP3   OH217393   3.928   6.029   0.853 -0.1784  0.7372  0.3255
 5811TIP3    H117394   3.960   6.028   0.763  0.7627  1.6723  0.6408
 5811TIP3    H217395   3.873   6.107   0.858  0.5304  1.2076  0.8192
 5812TIP3   OH217396   1.407   3.452   2.974  0.1243 -0.1250  0.0175
 5812TIP3    H117397   1.398   3.358   2.958  2.4034 -0.1616 -1.2027
 5812TIP3    H217398   1.501   3.469   2.964  0.0992  1.8472  2.6661
 5813TIP3   OH217399   3.241   5.201   0.620 -0.7136 -0.6105  0.7469
 5813TIP3    H117400   3.306   5.217   0.689 -1.5415  1.0050  1.1819
 5813TIP3    H217401   3.283   5.230   0.540 -0.3878 -0.8475  0.8338
 5814TIP3   OH217402   2.744   3.866   5.855  0.7712 -0.1671  0.6933
 5814TIP3    H117403   2.726   3.808   5.929  2.1034  0.5285  1.5831
 5814TIP3    H217404   2.723   3.954   5.887  0.0845  0.0037 -0.1925
 5815TIP3   OH217405   4.186   2.888   6.312 -0.0684  0.5218  0.0677
 5815TIP3    H117406   4.280   2.890   6.329 -0.4349  2.2792  2.1859
 5815TIP3    H217407   4.146   2.868   6.397 -1.5793 -1.1672 -0.9993
 5816TIP3   OH217408   5.226   4.749   0.881  0.6722 -0.1496  0.5398
 5816TIP3    H117409   5.190   4.702   0.955 -0.1130  0.6253  0.6622
 5816TIP3    H217410   5.155   4.807   0.852  1.1894  0.0343 -0.3935
 5817TIP3   OH217411   2.527   1.343   5.583 -0.3986 -0.2429 -0.3417
 5817TIP3    H117412   2.569   1.424   5.611 -0.7080 -0.0432 -0.4471
 5817TIP3    H217413   2.439   1.348   5.621  0.7471 -2.1953  2.6994
 5818TIP3   OH217414   3.909   1.070   6.281  0.5564  0.1791  0.4461
 5818TIP3    H117415   3.872   0.982   6.290 -0.7844  0.6665 -0.1055
 5818TIP3    H217416   3.834   1.128   6.294  1.3262  1.2237  0.2505
 5819TIP3   OH217417   2.023   1.693   3.682 -0.5503 -0.6541 -0.2657
 5819TIP3    H117418   1.963   1.758   3.717  0.1561 -1.0565  1.7584
 5819TIP3    H217419   1.979   1.659   3.604 -1.4574  1.3671 -0.6812
 5820TIP3   OH217420   2.464   2.524   3.360  0.2096 -0.6108 -0.5173
 5820TIP3    H117421   2.406   2.573   3.302 -0.6061  0.3484  1.0746
 5820TIP3    H217422   2.553   2.549   3.333 -0.1890  2.3015  0.6876
 5821TIP3   OH217423   2.505   3.485   5.783 -0.5147 -0.5730  0.0864
 5821TIP3    H117424   2.476   3.575   5.767 -1.3035 -0.8272  0.0973
 5821TIP3    H217425   2.505   3.477   5.878 -0.8572 -0.7282  0.0702
 5822TIP3   OH217426   3.707   6.388   1.343 -0.3097  0.2468 -0.3064
 5822TIP3    H117427   3.687   6.427   1.429  0.4569 -0.1773  0.0614
 5822TIP3    H217428   3.781   6.439   1.311  0.2173 -0.4238 -0.1545
 5823TIP3   OH217429   6.026   5.036   4.423  0.0582  0.4355 -0.6124
 5823TIP3    H117430   6.044   4.954   4.377  0.2094  0.7777 -1.1709
 5823TIP3    H217431   6.111   5.062   4.459 -0.4626 -0.9758  1.7927
 5824TIP3   OH217432   4.618   3.991   4.612  0.2002  0.6545 -0.3507
 5824TIP3    H117433   4.549   3.993   4.545 -0.1828  1.4901  0.0528
 5824TIP3    H217434   4.591   4.059   4.674  0.1563 -0.6334  1.0427
 5825TIP3   OH217435   5.872   2.574   3.765  0.4235 -0.7117 -0.1510
 5825TIP3    H117436   5.869   2.639   3.835  0.1059 -0.8960  0.0112
 5825TIP3    H217437   5.935   2.608   3.702 -1.2797  0.7873 -1.1050
 5826TIP3   OH217438   3.280   1.875   3.747  0.3647  0.1828  0.4608
 5826TIP3    H117439   3.361   1.898   3.701  0.2611 -0.4143 -0.0406
 5826TIP3    H217440   3.264   1.947   3.807  1.9587 -0.3038  1.4779
 5827TIP3   OH217441   2.377   1.979   1.727  0.3802 -0.0157 -0.3898
 5827TIP3    H117442   2.400   1.889   1.705  0.2248 -0.1935  0.1526
 5827TIP3    H217443   2.332   2.013   1.650  0.7823 -0.2765 -0.7412
 5828TIP3   OH217444   2.553   1.285   4.821  0.1972  0.1256 -0.4557
 5828TIP3    H117445   2.491   1.212   4.821  1.4467 -0.9673  0.7344
 5828TIP3    H217446   2.629   1.252   4.773  0.7834  0.6368  0.1150
 5829TIP3   OH217447   2.448   2.239   3.879  0.7464 -0.1219 -0.0212
 5829TIP3    H117448   2.459   2.144   3.880  1.5374 -0.0784 -1.9791
 5829TIP3    H217449   2.361   2.253   3.841  0.5781 -0.0635  0.3830
 5830TIP3   OH217450   5.181   1.396   2.956  0.2754 -0.1135  0.0853
 5830TIP3    H117451   5.206   1.486   2.937  2.3421 -0.4136  1.1760
 5830TIP3    H217452   5.130   1.401   3.037 -0.6551  0.1942 -0.5157
 5831TIP3   OH217453   1.481   0.193   1.421  0.3439  0.7551 -0.3698
 5831TIP3    H117454   1.540   0.198   1.496 -0.2302  0.3063  0.1243
 5831TIP3    H217455   1.396   0.169   1.460 -0.2718  1.8560 -1.0012
 5832TIP3   OH217456   3.250   3.748   4.627  0.1338 -0.1974 -0.0292
 5832TIP3    H117457   3.261   3.821   4.687 -0.4111  0.2675 -0.4900
 5832TIP3    H217458   3.339   3.720   4.607  0.3214 -1.3341  2.1688
 5833TIP3   OH217459   1.727   2.677   5.162 -0.4404  0.1145  0.0280
 5833TIP3    H117460   1.633   2.681   5.142 -0.3042  2.5991 -0.2373
 5833TIP3    H217461   1.731   2.635   5.248 -1.8224  0.2048  0.1466
 5834TIP3   OH217462   3.093   3.499   5.420  0.2736  0.5527 -0.6081
 5834TIP3    H117463   3.071   3.466   5.333  1.0430  1.6594 -1.2329
 5834TIP3    H217464   3.188   3.508   5.419  0.0576  3.3595 -0.6949
 5835TIP3   OH217465   7.363   5.982   0.446 -0.0333  0.0465  0.7675
 5835TIP3    H117466   7.404   5.969   0.361 -0.9273  2.8127 -0.1321
 5835TIP3    H217467   7.270   5.965   0.431 -0.2191  0.7194  1.1497
 5836TIP3   OH217468   3.236   1.500   3.357  0.1281  0.9435  0.0126
 5836TIP3    H117469   3.310   1.561   3.361  1.1314 -0.3313  1.4228
 5836TIP3    H217470   3.275   1.413   3.366 -1.4766  0.2197  0.1807
 5837TIP3   OH217471   3.665   0.791   2.623  0.4289 -0.6919  0.0567
 5837TIP3    H117472   3.740   0.850   2.616 -0.6436  0.7896  0.7455
 5837TIP3    H217473   3.682   0.738   2.701  0.6717 -0.2146  0.3294
 5838TIP3   OH217474   1.179   2.113   4.228  0.7169  0.2956  0.1730
 5838TIP3    H117475   1.209   2.121   4.319  0.2565 -0.4460  0.3888
 5838TIP3    H217476   1.253   2.146   4.176  1.8838 -1.4230  0.7057
 5839TIP3   OH217477   2.723   0.413   3.071 -0.0666 -0.7297 -0.2483
 5839TIP3    H117478   2.799   0.448   3.024  0.0045 -0.5469 -0.0001
 5839TIP3    H217479   2.649   0.429   3.014 -0.2914  1.3710  0.5998
 5840TIP3   OH217480   3.717   4.829   1.878 -0.3567 -0.6225 -0.1739
 5840TIP3    H117481   3.806   4.858   1.858  0.3097 -1.1888  1.8266
 5840TIP3    H217482   3.723   4.733   1.882 -0.5216 -0.5529  2.2637
 5841TIP3   OH217483   3.957   3.780   4.236 -0.3778 -0.0429  0.4437
 5841TIP3    H117484   3.890   3.723   4.198  0.0028  0.5865 -1.2251
 5841TIP3    H217485   4.006   3.813   4.161  2.7722 -1.6693  1.6718
 5842TIP3   OH217486   4.033   2.105   4.497 -0.4102 -0.3146  0.2877
 5842TIP3    H117487   3.942   2.078   4.510 -0.2204 -2.1249 -1.8597
 5842TIP3    H217488   4.048   2.096   4.403  2.5775 -2.0415  0.8622
 5843TIP3   OH217489   2.319   2.441   2.838 -0.0646  0.2961  0.2209
 5843TIP3    H117490   2.243   2.491   2.807 -0.5013  0.2214  1.1859
 5843TIP3    H217491   2.377   2.507   2.877  0.5748  0.4162 -0.9006
 5844TIP3   OH217492   2.362   1.416   6.110 -0.0339  0.4951  0.3847
 5844TIP3    H117493   2.320   1.473   6.046 -0.5492  1.1761  1.3231
 5844TIP3    H217494   2.455   1.437   6.103 -0.2904  2.0049  1.2499
 5845TIP3   OH217495   2.972   2.963   5.618  0.4519  0.3120  0.2640
 5845TIP3    H117496   2.995   2.992   5.706 -1.2043  1.6138  0.2794
 5845TIP3    H217497   2.964   3.045   5.567  1.1683 -0.4076 -1.0435
 5846TIP3   OH217498   3.409   5.682   0.017  0.0763 -0.6048  0.4097
 5846TIP3    H117499   3.346   5.662   0.087 -0.6307 -1.0678 -0.3436
 5846TIP3    H217500   3.466   5.749   0.055  0.4629 -1.7133  1.8480
 5847TIP3   OH217501   6.900   7.218   3.668 -0.2130 -0.4068 -0.3605
 5847TIP3    H117502   6.909   7.146   3.605  0.2954 -0.0053 -0.7488
 5847TIP3    H217503   6.940   7.185   3.748 -3.5716 -2.0828  0.7164
 5848TIP3   OH217504   4.163   2.979   4.507 -0.2394 -0.2452 -0.3563
 5848TIP3    H117505   4.132   2.991   4.417 -0.0831  0.8989 -0.2575
 5848TIP3    H217506   4.135   3.058   4.553  1.7973  0.2740  0.0219
 5849TIP3   OH217507   4.234   4.195   0.462 -0.2662  0.0703  0.0658
 5849TIP3    H117508   4.159   4.182   0.521  0.1581  0.9584  0.8290
 5849TIP3    H217509   4.195   4.215   0.377 -0.8947 -0.0166  0.3325
 5850TIP3   OH217510   5.517   0.138   1.638  0.0469 -0.2006 -0.1067
 5850TIP3    H117511   5.440   0.194   1.650  0.3292  0.2799 -0.5693
 5850TIP3    H217512   5.575   0.162   1.710 -0.1427 -0.4149  0.1199
 5851TIP3   OH217513   2.135   5.649   5.311  0.2066  0.0537  0.4116
 5851TIP3    H117514   2.128   5.593   5.233  2.2453  1.3391 -0.7768
 5851TIP3    H217515   2.179   5.595   5.376  1.4035 -0.0213 -0.4431
 5852TIP3   OH217516   3.775   6.249   0.856  0.1411 -0.1327 -0.2462
 5852TIP3    H117517   3.715   6.272   0.927  0.1723  1.2570 -0.6496
 5852TIP3    H217518   3.720   6.246   0.778  0.1617 -1.3530 -0.2237
 5853TIP3   OH217519   2.065   3.894   4.294  0.0497  0.0998 -0.2730
 5853TIP3    H117520   2.035   3.809   4.325 -1.9966  0.3503 -1.4397
 5853TIP3    H217521   2.142   3.874   4.240 -1.2764 -1.2217 -1.7680
 5854TIP3   OH217522   4.651   0.150   6.217  1.0297  0.3983  0.2523
 5854TIP3    H117523   4.683   0.197   6.140  0.5187  0.4025  0.0357
 5854TIP3    H217524   4.576   0.100   6.184  0.5456  0.7340  0.8446
 5855TIP3   OH217525   3.901   5.653   1.219 -0.0622 -0.0851 -0.4606
 5855TIP3    H117526   3.994   5.673   1.231 -0.2819  0.8384 -0.2899
 5855TIP3    H217527   3.869   5.720   1.159 -0.6743 -0.2706 -0.3485
 5856TIP3   OH217528   2.686   3.633   3.815 -0.2024 -0.3568 -0.6972
 5856TIP3    H117529   2.691   3.642   3.911 -0.1742  0.0234 -0.7317
 5856TIP3    H217530   2.713   3.719   3.782 -2.7890  0.4020 -0.9758
 5857TIP3   OH217531   3.350   3.459   5.370 -0.1063  0.0255  0.2130
 5857TIP3    H117532   3.377   3.418   5.288 -0.3104  0.6192 -0.1465
 5857TIP3    H217533   3.376   3.396   5.437 -1.2242 -1.1249 -0.4028
 5858TIP3   OH217534   3.897   2.679   5.680  0.1320 -0.4698 -0.0206
 5858TIP3    H117535   3.962   2.633   5.626  1.6264  1.1656  0.3629
 5858TIP3    H217536   3.829   2.705   5.618 -0.1428 -2.1441 -0.4377
 5859TIP3   OH217537   6.573   5.940   0.156  0.4925 -0.2698 -0.1899
 5859TIP3    H117538   6.484   5.930   0.122  0.0085 -0.2647  1.0767
 5859TIP3    H217539   6.589   6.034   0.156  0.1072 -0.2036  0.5809
 5860TIP3   OH217540   2.124   1.126   4.635  0.4091 -0.0388 -0.1429
 5860TIP3    H117541   2.032   1.140   4.614  0.1403 -0.1342  0.9698
 5860TIP3    H217542   2.136   1.167   4.720  1.3761 -0.1177 -0.2366
 5861TIP3   OH217543   2.834   0.874   5.818 -0.6155 -0.1448  0.0486
 5861TIP3    H117544   2.883   0.840   5.743 -0.7885 -1.6196  0.5910
 5861TIP3    H217545   2.897   0.876   5.890 -1.1565 -1.3837  0.5698
 5862TIP3   OH217546   2.529   3.717   4.820  0.0863 -0.2984 -0.3293
 5862TIP3    H117547   2.547   3.665   4.899 -0.1321 -0.4476 -0.3796
 5862TIP3    H217548   2.485   3.795   4.852  0.6482 -0.0201 -0.2253
 5863TIP3   OH217549   2.151   2.803   4.124 -0.0392 -0.3890  0.1194
 5863TIP3    H117550   2.161   2.823   4.031 -0.5207 -2.2168 -0.3520
 5863TIP3    H217551   2.056   2.809   4.139  0.2094  1.7842  0.9565
 5864TIP3   OH217552   6.159   6.732   1.289  0.3269 -0.3122  0.4130
 5864TIP3    H117553   6.073   6.731   1.246 -0.3208 -1.3181  1.7172
 5864TIP3    H217554   6.147   6.790   1.364  0.9394 -0.0631  0.3222
 5865TIP3   OH217555   3.427   1.628   2.663 -0.3763  0.1767  0.4387
 5865TIP3    H117556   3.480   1.706   2.644 -3.2692  1.6256 -1.9680
 5865TIP3    H217557   3.337   1.657   2.653 -1.6555 -2.6454  2.9481
 5866TIP3   OH217558   1.213   1.533   5.521  0.2577 -0.2138  0.0782
 5866TIP3    H117559   1.129   1.574   5.502 -0.0890 -2.0987 -2.8456
 5866TIP3    H217560   1.190   1.450   5.564  0.6902 -0.0804  0.5737
 5867TIP3   OH217561   6.978   6.754   5.831  0.3790  0.2634  0.5547
 5867TIP3    H117562   7.000   6.707   5.751 -1.5095  0.3440 -0.0253
 5867TIP3    H217563   6.908   6.702   5.871 -0.9784  1.9573  0.4540
 5868TIP3   OH217564   5.510   4.606   0.846  0.4607 -0.3242  0.5028
 5868TIP3    H117565   5.427   4.651   0.831  1.7442  1.8426 -0.3468
 5868TIP3    H217566   5.518   4.601   0.941  0.1610  1.0099  0.6108
 5869TIP3   OH217567   0.228   6.218   4.458  0.3350  0.1851 -0.1001
 5869TIP3    H117568   0.300   6.218   4.394  0.2005 -0.4687 -0.2606
 5869TIP3    H217569   0.161   6.273   4.418  0.2648 -0.1969 -0.5096
 5870TIP3   OH217570   1.898   1.911   6.288 -0.4373  0.2911 -0.6415
 5870TIP3    H117571   1.805   1.909   6.311 -0.3937  0.8664 -0.4088
 5870TIP3    H217572   1.935   1.981   6.342  0.4615 -0.9930  0.4513
 5871TIP3   OH217573   2.837   3.236   4.068  0.0767  0.6531  0.3764
 5871TIP3    H117574   2.798   3.180   4.001 -0.9172  0.6299  0.9522
 5871TIP3    H217575   2.878   3.307   4.020  0.7691 -0.2215 -0.3295
 5872TIP3   OH217576   1.483   0.400   6.243  0.2577 -0.6176  0.3663
 5872TIP3    H117577   1.418   0.422   6.176  0.4986  0.1610  0.3789
 5872TIP3    H217578   1.539   0.334   6.201  0.5633  0.0557 -0.3103
 5873TIP3   OH217579   1.889   0.476   5.752 -0.3726 -0.0951 -0.0877
 5873TIP3    H117580   1.927   0.507   5.670 -0.2931 -2.1626 -0.8556
 5873TIP3    H217581   1.850   0.391   5.730 -2.6773  0.5438  1.4067
 5874TIP3   OH217582   1.985   2.278   5.911  0.5433  0.4162 -0.1607
 5874TIP3    H117583   1.896   2.284   5.877  0.6515  0.2908 -0.4735
 5874TIP3    H217584   2.025   2.362   5.891 -0.1273  1.2172  1.7899
 5875TIP3   OH217585   1.970   4.637   4.061 -0.3294 -0.1593 -0.4170
 5875TIP3    H117586   2.065   4.645   4.073 -0.2736 -1.6048  0.1639
 5875TIP3    H217587   1.936   4.723   4.084  0.7975  0.2331 -0.1745
 5876TIP3   OH217588   3.410   2.702   4.894  0.0313 -0.0344 -0.4678
 5876TIP3    H117589   3.467   2.778   4.900 -1.9296  1.3523  1.4293
 5876TIP3    H217590   3.338   2.730   4.838 -1.1794 -0.1468  1.0030
 5877TIP3   OH217591   1.486   1.805   4.504  0.2403 -0.2831  0.4389
 5877TIP3    H117592   1.471   1.892   4.468  0.3963 -0.7672 -0.8163
 5877TIP3    H217593   1.552   1.817   4.572  0.3556  0.5573  0.1772
 5878TIP3   OH217594   1.365   4.974   4.898  0.6699  0.5767  0.0920
 5878TIP3    H117595   1.347   5.059   4.938 -1.0793  1.3208 -2.1427
 5878TIP3    H217596   1.451   4.984   4.857  0.4726  1.2967 -0.1548
 5879TIP3   OH217597   3.131   2.302   5.437 -0.2893 -0.2230 -0.6277
 5879TIP3    H117598   3.192   2.264   5.374 -0.4869 -0.5239 -0.6393
 5879TIP3    H217599   3.111   2.389   5.402  3.1973  1.4754  1.3982
 5880TIP3   OH217600   3.428   4.875   5.967  0.3031  0.0010  0.4197
 5880TIP3    H117601   3.502   4.832   6.009  1.4793  2.1821  0.6144
 5880TIP3    H217602   3.405   4.947   6.026 -0.5274  0.7257 -0.7629
 5881TIP3   OH217603   5.439   2.963   4.079  0.5537 -0.4783 -0.2054
 5881TIP3    H117604   5.477   3.014   4.007  0.5491  0.4632  0.4492
 5881TIP3    H217605   5.348   2.949   4.052  0.7425 -0.7631 -0.7138
 5882TIP3   OH217606   6.645   1.872   4.075 -0.1244  0.2251  0.0160
 5882TIP3    H117607   6.675   1.781   4.084 -3.3525 -0.9484 -0.3921
 5882TIP3    H217608   6.725   1.922   4.057  2.2188 -1.9911  3.6221
 5883TIP3   OH217609   5.042   5.560   4.693  0.1680 -0.1931  0.1624
 5883TIP3    H117610   4.956   5.591   4.718 -0.6202  0.3424 -2.9571
 5883TIP3    H217611   5.102   5.629   4.722 -0.6668  0.3686  0.5739
 5884TIP3   OH217612   1.176   2.356   3.281 -0.1613  0.0140 -0.4432
 5884TIP3    H117613   1.243   2.355   3.213  1.2772  0.8940  0.9098
 5884TIP3    H217614   1.203   2.287   3.342 -0.2633  0.6016  0.2834
 5885TIP3   OH217615   4.059   2.119   4.203  0.2242 -0.3791  0.0197
 5885TIP3    H117616   4.049   2.107   4.108  1.0522  0.0726 -0.1281
 5885TIP3    H217617   4.149   2.150   4.214  1.0661 -3.0273  1.1844
 5886TIP3   OH217618   5.428   2.740   4.571  0.4276 -0.3886 -0.0654
 5886TIP3    H117619   5.460   2.778   4.653  0.8370  0.3542 -0.5617
 5886TIP3    H217620   5.506   2.733   4.516  0.4285 -2.3077  0.1377
 5887TIP3   OH217621   6.779   2.408   2.925 -0.6458 -0.6158  0.2478
 5887TIP3    H117622   6.726   2.353   2.868 -0.3655 -0.2656 -0.3602
 5887TIP3    H217623   6.856   2.354   2.945  1.0910  0.5716 -2.7603
 5888TIP3   OH217624   6.309   4.031   4.722  0.5483  0.5602  0.2939
 5888TIP3    H117625   6.244   3.963   4.702 -0.4083  1.5238  0.1316
 5888TIP3    H217626   6.363   4.036   4.643  1.4921 -0.9615  0.8025
 5889TIP3   OH217627   4.634   3.235   4.664  0.3097  0.0210  0.0628
 5889TIP3    H117628   4.608   3.152   4.624 -1.0459  0.4702 -0.0073
 5889TIP3    H217629   4.623   3.300   4.595 -1.4740  0.7051  0.9572
 5890TIP3   OH217630   0.035   4.447   5.412  0.3131  0.5188 -0.4531
 5890TIP3    H117631   0.070   4.402   5.488 -0.8090  0.6291  0.1442
 5890TIP3    H217632   0.073   4.401   5.337 -0.5893 -1.2767  0.1407
 5891TIP3   OH217633   6.918   2.126   2.689 -0.0255 -0.1312  0.1589
 5891TIP3    H117634   6.977   2.060   2.724 -0.9115 -1.3411 -0.5866
 5891TIP3    H217635   6.880   2.086   2.610  0.1541  1.6304 -0.8617
 5892TIP3   OH217636   6.591   3.482   5.637 -0.3033 -0.1387 -0.3188
 5892TIP3    H117637   6.558   3.420   5.702 -0.7789  0.1426 -0.2876
 5892TIP3    H217638   6.671   3.517   5.676 -1.7057  1.6072  1.0878
 5893TIP3   OH217639   5.427   2.021   4.450 -0.1852 -0.4815 -0.5517
 5893TIP3    H117640   5.416   2.080   4.375 -0.3625  0.9945  0.6005
 5893TIP3    H217641   5.520   2.031   4.474 -0.4614  0.1295  0.2805
 5894TIP3   OH217642   3.693   2.223   3.993 -0.3811  0.2362 -0.0897
 5894TIP3    H117643   3.729   2.272   3.919 -1.0212  0.7603 -0.0565
 5894TIP3    H217644   3.739   2.258   4.069  0.8574 -0.8571 -0.3081
 5895TIP3   OH217645   2.086   1.466   5.375 -0.1973  0.4621 -0.0412
 5895TIP3    H117646   2.177   1.465   5.403 -0.0880  0.1655 -0.3978
 5895TIP3    H217647   2.036   1.486   5.454  0.1243 -0.0694  0.2922
 5896TIP3   OH217648   6.208   1.132   3.857  0.2753  0.1448 -0.0781
 5896TIP3    H117649   6.232   1.049   3.899  2.5451  0.4614 -0.6759
 5896TIP3    H217650   6.200   1.111   3.764 -0.4441  0.3237 -0.0560
 5897TIP3   OH217651   3.941   3.642   4.926  0.3429  0.3278 -0.5233
 5897TIP3    H117652   3.877   3.708   4.957  1.0654  0.9614 -0.3687
 5897TIP3    H217653   3.925   3.566   4.982 -1.4901 -0.1598 -1.6597
 5898TIP3   OH217654   6.839   3.337   3.458  0.0341  0.8030  0.0416
 5898TIP3    H117655   6.759   3.310   3.413 -0.3346 -0.6531  1.5195
 5898TIP3    H217656   6.809   3.388   3.533  0.4365 -0.3925  1.0331
 5899TIP3   OH217657   6.113   2.030   2.870  0.0595 -0.7467  0.1263
 5899TIP3    H117658   6.088   2.038   2.778 -0.2683  0.0062  0.2706
 5899TIP3    H217659   6.110   2.120   2.903 -1.6618 -1.2250  1.3410
 5900TIP3   OH217660   6.015   0.622   5.931 -0.1003  0.0605  0.6910
 5900TIP3    H117661   5.978   0.710   5.938 -0.6829  0.2426 -3.4751
 5900TIP3    H217662   6.106   0.635   5.905 -0.0456 -0.5488  0.5514
 5901TIP3   OH217663   6.505   1.494   4.717  0.9061 -0.3844 -0.1321
 5901TIP3    H117664   6.572   1.475   4.651  1.8632 -0.4713  0.8386
 5901TIP3    H217665   6.550   1.479   4.801 -0.3586 -0.5153  0.5294
 5902TIP3   OH217666   4.379   3.145   4.253 -0.0676 -0.0137  0.1025
 5902TIP3    H117667   4.436   3.212   4.217  0.3250 -0.3859  0.0194
 5902TIP3    H217668   4.301   3.192   4.281  0.3925  0.5454  0.4756
 5903TIP3   OH217669   3.310   3.957   3.192 -0.3215 -0.1765  0.1140
 5903TIP3    H117670   3.402   3.938   3.208 -0.1831  0.3953  0.0135
 5903TIP3    H217671   3.310   4.024   3.125 -0.8841 -1.8519 -1.6038
 5904TIP3   OH217672   5.429   4.297   5.373  0.2509  0.7971  0.1574
 5904TIP3    H117673   5.475   4.328   5.295  1.5033 -0.9749  0.1762
 5904TIP3    H217674   5.499   4.271   5.433 -0.7162  1.5395  1.6391
 5905TIP3   OH217675   2.441   6.110   2.794 -0.1853 -0.3723  0.1610
 5905TIP3    H117676   2.514   6.158   2.755 -0.3745 -1.0349 -1.0211
 5905TIP3    H217677   2.477   6.073   2.875  1.0628 -1.4788 -0.8694
 5906TIP3   OH217678   4.025   1.180   3.636 -0.2899 -0.2081  0.1404
 5906TIP3    H117679   3.965   1.171   3.710 -0.1150  0.7425  0.4065
 5906TIP3    H217680   3.977   1.232   3.572  0.5297  1.2697  0.6927
 5907TIP3   OH217681   5.295   5.194   4.920 -0.4056 -0.0149 -0.8595
 5907TIP3    H117682   5.261   5.110   4.889  1.6387 -2.4912  3.1700
 5907TIP3    H217683   5.383   5.200   4.884 -0.8639  0.9150 -1.8841
 5908TIP3   OH217684   5.466   3.004   2.237  0.3165  0.5960 -0.1637
 5908TIP3    H117685   5.404   3.069   2.206 -1.3484 -0.8508  0.0278
 5908TIP3    H217686   5.541   3.010   2.177 -0.7364  1.1936 -1.4301
 5909TIP3   OH217687   4.341   1.101   5.026 -0.3223  0.0332  0.2336
 5909TIP3    H117688   4.275   1.166   5.050  0.6137  1.2795 -0.5079
 5909TIP3    H217689   4.374   1.069   5.110  0.5507  1.9179  0.6417
 5910TIP3   OH217690   5.414   3.186   4.918 -0.0660  0.2917  0.1600
 5910TIP3    H117691   5.352   3.257   4.901  0.3869  0.3084 -1.4675
 5910TIP3    H217692   5.362   3.107   4.913  0.0392  0.3083 -1.1658
 5911TIP3   OH217693   4.831   0.886   3.908  0.2694  0.1509  0.7132
 5911TIP3    H117694   4.779   0.814   3.943  0.1308 -1.1386 -2.0200
 5911TIP3    H217695   4.876   0.849   3.833  0.9135  2.6911 -0.2179
 5912TIP3   OH217696   6.611   2.157   4.368 -0.2692 -0.8461  0.0996
 5912TIP3    H117697   6.683   2.181   4.310 -0.6724 -1.0044 -0.4759
 5912TIP3    H217698   6.568   2.084   4.323 -2.7317  1.2867 -1.1358
 5913TIP3   OH217699   4.938   1.811   2.037  0.7587  0.1592 -0.3507
 5913TIP3    H117700   5.030   1.826   2.058  0.8060 -0.2673 -0.2399
 5913TIP3    H217701   4.898   1.787   2.121  0.1233  2.2766 -0.0097
 5914TIP3   OH217702   7.101   2.331   2.765 -0.4252  0.1885  0.3211
 5914TIP3    H117703   7.067   2.419   2.743  0.8038  0.7653  0.6993
 5914TIP3    H217704   7.042   2.271   2.719 -0.1754  1.2718 -1.4615
 5915TIP3   OH217705   4.080   4.683   6.065  0.3515 -0.6579 -0.3568
 5915TIP3    H117706   4.161   4.645   6.029 -0.3381 -0.9809 -1.5977
 5915TIP3    H217707   4.047   4.617   6.125  2.2412  0.4489  2.0016
 5916TIP3   OH217708   4.479   4.093   4.118  0.2336 -0.3024  0.7679
 5916TIP3    H117709   4.502   4.165   4.059 -0.3921 -0.7747 -0.0644
 5916TIP3    H217710   4.562   4.065   4.155  0.6915 -0.3077 -0.2450
 5917TIP3   OH217711   6.453   0.991   5.995 -0.1052 -0.5903 -0.0317
 5917TIP3    H117712   6.423   0.903   6.016 -2.4740 -0.1249 -1.3153
 5917TIP3    H217713   6.436   1.000   5.901 -0.0522  1.2964  0.1268
 5918TIP3   OH217714   5.967   3.654   4.716  0.7630  0.8872  0.4812
 5918TIP3    H117715   5.993   3.562   4.730  0.4867  0.5965 -0.8482
 5918TIP3    H217716   5.871   3.651   4.711  0.7355  1.2979  0.7425
 5919TIP3   OH217717   6.186   2.343   3.540 -0.2107 -0.5940  0.7377
 5919TIP3    H117718   6.128   2.288   3.486 -0.2481  1.1912 -1.1070
 5919TIP3    H217719   6.198   2.293   3.621 -2.0831 -2.2632  0.0294
 5920TIP3   OH217720   4.669   2.237   4.425  0.8168 -0.1606  0.2672
 5920TIP3    H117721   4.760   2.230   4.452  1.0900 -1.0068 -0.8022
 5920TIP3    H217722   4.669   2.205   4.334 -0.2099  1.6765 -0.4025
 5921TIP3   OH217723   5.732   0.547   5.266  0.7174 -0.0628 -0.1824
 5921TIP3    H117724   5.745   0.528   5.359  0.5272 -2.1201 -0.5705
 5921TIP3    H217725   5.705   0.639   5.265  0.1446 -0.1756  1.8344
 5922TIP3   OH217726   4.357   3.017   1.996  0.1686  0.0328  0.9080
 5922TIP3    H117727   4.353   3.032   1.901  1.1070 -0.9383  0.7140
 5922TIP3    H217728   4.293   3.079   2.032 -0.3557  0.2605 -0.3738
 5923TIP3   OH217729   4.872   2.658   3.991 -0.5998  0.8314  0.0754
 5923TIP3    H117730   4.849   2.600   3.918  1.5259 -0.0397  0.0598
 5923TIP3    H217731   4.799   2.650   4.052 -1.2320 -0.3664 -0.8113
 5924TIP3   OH217732   5.257   3.221   3.646 -0.4797 -0.0227  0.0974
 5924TIP3    H117733   5.344   3.220   3.606  0.0546  1.6524  1.1571
 5924TIP3    H217734   5.255   3.143   3.700  0.1837 -0.3246 -0.2994
 5925TIP3   OH217735   3.561   2.520   3.333 -0.1587  0.1030 -0.5387
 5925TIP3    H117736   3.532   2.602   3.292 -3.0134 -0.1754  0.7587
 5925TIP3    H217737   3.610   2.475   3.265  2.2259  3.2554 -1.0175
 5926TIP3   OH217738   5.315   4.516   5.953  0.3595 -0.3140  0.8176
 5926TIP3    H117739   5.228   4.517   5.913  1.1407 -0.3750 -0.9365
 5926TIP3    H217740   5.324   4.602   5.994  0.2026  0.4379 -0.6733
 5927TIP3   OH217741   3.291   1.702   3.973 -0.1248 -0.2946 -0.0399
 5927TIP3    H117742   3.288   1.749   3.890 -0.8535 -1.9680 -0.9857
 5927TIP3    H217743   3.214   1.733   4.021  0.3107  0.6926  0.0363
 5928TIP3   OH217744   5.427   4.241   4.572  0.2954 -0.2701  0.3172
 5928TIP3    H117745   5.459   4.179   4.638 -0.6942 -3.1997 -1.8329
 5928TIP3    H217746   5.332   4.228   4.571  0.0959  1.1387 -0.3307
 5929TIP3   OH217747   5.131   2.869   4.729  0.4067 -0.0357  0.0634
 5929TIP3    H117748   5.058   2.851   4.670  0.5624  0.8128 -0.3868
 5929TIP3    H217749   5.200   2.810   4.699  0.1531 -0.3185  0.0286
 5930TIP3   OH217750   3.664   2.176   3.595  0.0558  0.4736 -0.1749
 5930TIP3    H117751   3.580   2.216   3.576  0.8712  3.0995  1.5029
 5930TIP3    H217752   3.728   2.245   3.580  2.0564 -1.7169 -2.2513
 5931TIP3   OH217753   2.687   1.377   4.450  0.9222  0.5727  0.4312
 5931TIP3    H117754   2.723   1.401   4.535  0.9685  1.8417  0.0636
 5931TIP3    H217755   2.613   1.436   4.438 -1.1062 -1.7868  1.0289
 5932TIP3   OH217756   1.233   6.265   1.523 -0.0393  0.6408 -0.0032
 5932TIP3    H117757   1.205   6.299   1.438  1.3823  2.7960  0.3634
 5932TIP3    H217758   1.278   6.183   1.502  0.7703  1.4189 -1.4040
 5933TIP3   OH217759   4.324   2.503   3.182 -0.2940 -0.3974  0.1235
 5933TIP3    H117760   4.288   2.520   3.094  1.5760 -2.4347 -1.0813
 5933TIP3    H217761   4.395   2.441   3.167  2.4441  1.9874  2.6914
 5934TIP3   OH217762   4.923   3.420   0.260  0.3402  0.0738  0.4792
 5934TIP3    H117763   4.875   3.473   0.324 -0.9590 -0.9387  0.3707
 5934TIP3    H217764   4.961   3.349   0.311 -1.4715 -1.2636  0.0421
 5935TIP3   OH217765   1.595   6.760   0.942  0.2729  0.3507  0.2726
 5935TIP3    H117766   1.517   6.713   0.972  0.4501 -0.0522  0.1089
 5935TIP3    H217767   1.562   6.818   0.872  0.3456 -0.8603 -0.7904
 5936TIP3   OH217768   4.385   2.537   5.356  0.2997 -0.3269 -0.0437
 5936TIP3    H117769   4.418   2.626   5.341 -3.7530  1.2185 -0.3053
 5936TIP3    H217770   4.367   2.503   5.268  0.2948 -0.8338  0.1494
 5937TIP3   OH217771   5.834   1.757   5.401  0.3041  0.5833  0.1247
 5937TIP3    H117772   5.905   1.695   5.418  0.6518  1.3313  1.4404
 5937TIP3    H217773   5.758   1.719   5.445 -0.3096 -0.5448 -1.8213
 5938TIP3   OH217774   5.363   0.900   4.857 -0.5602  0.5608 -0.1998
 5938TIP3    H117775   5.380   0.815   4.898 -0.9265  0.8379  0.5501
 5938TIP3    H217776   5.378   0.886   4.764  1.1870  0.1371  0.1255
 5939TIP3   OH217777   6.017   1.739   3.951 -0.2707 -0.1354 -0.3421
 5939TIP3    H117778   6.092   1.764   4.005 -1.6234  2.0097  0.6133
 5939TIP3    H217779   6.011   1.644   3.961  0.8363 -0.0310  1.5051
 5940TIP3   OH217780   0.975   3.205   6.274 -0.4984  0.1273 -0.3171
 5940TIP3    H117781   0.976   3.168   6.186  0.3749 -1.4356  0.3394
 5940TIP3    H217782   0.884   3.194   6.303 -0.8768  0.9612 -1.1238
 5941TIP3   OH217783   5.947   0.911   3.381  0.3939 -0.0796  0.0667
 5941TIP3    H117784   6.000   0.952   3.312 -0.2708  0.3811 -0.1739
 5941TIP3    H217785   6.011   0.881   3.445  0.9730  0.1640 -0.3907
 5942TIP3   OH217786   6.321   2.127   4.073 -0.8332 -0.6412 -0.2194
 5942TIP3    H117787   6.389   2.191   4.054  0.8317 -2.0955  0.6917
 5942TIP3    H217788   6.285   2.103   3.987  1.1185 -1.2642 -0.8867
 5943TIP3   OH217789   4.666   0.038   5.844 -0.1453 -0.5405  0.4415
 5943TIP3    H117790   4.721  -0.010   5.782 -0.5122  0.2413 -0.5046
 5943TIP3    H217791   4.584  -0.011   5.846 -0.3639 -0.2050 -0.1894
 5944TIP3   OH217792   3.060   2.632   4.834 -0.1954  0.0687  0.1737
 5944TIP3    H117793   3.117   2.688   4.782  0.8559 -1.1412 -0.0009
 5944TIP3    H217794   3.060   2.548   4.787 -0.9838 -0.3660  0.9402
 5945TIP3   OH217795   5.458   2.442   4.213  0.4317  0.0656  0.1873
 5945TIP3    H117796   5.429   2.462   4.302  0.0910  0.3967  0.0058
 5945TIP3    H217797   5.501   2.522   4.183  0.1006  0.1338 -0.1209
 5946TIP3   OH217798   5.467   2.481   3.522 -0.1216 -0.3255 -0.1419
 5946TIP3    H117799   5.561   2.471   3.535 -0.1451 -0.8248 -0.3474
 5946TIP3    H217800   5.453   2.576   3.517  0.4825 -0.2777 -0.9680
 5947TIP3   OH217801   3.452   2.649   5.191  0.3165  0.5556 -0.1642
 5947TIP3    H117802   3.435   2.720   5.130 -2.4323  0.3585  0.3426
 5947TIP3    H217803   3.369   2.633   5.235  1.3499 -1.7061  1.0894
 5948TIP3   OH217804   3.400   2.163   4.995  0.0770 -0.4838 -0.6867
 5948TIP3    H117805   3.319   2.151   4.944 -0.7608 -1.6572  0.9063
 5948TIP3    H217806   3.420   2.256   4.984 -0.5235 -0.5299 -2.4955
 5949TIP3   OH217807   3.008   1.368   3.368  0.5494 -0.1688  0.3532
 5949TIP3    H117808   2.943   1.420   3.416  0.7056  1.9614 -1.6364
 5949TIP3    H217809   3.082   1.428   3.357  0.9821 -1.0170 -1.4969
 5950TIP3   OH217810   1.893   2.907   4.829  0.3539 -0.0551 -0.3130
 5950TIP3    H117811   1.885   2.906   4.925 -2.5740 -1.6698 -0.5146
 5950TIP3    H217812   1.957   2.976   4.811  2.0674 -0.6973  2.8705
 5951TIP3   OH217813   5.813   1.616   3.663 -0.1049  0.0948  0.8759
 5951TIP3    H117814   5.755   1.647   3.733  1.2700 -0.9093  2.5116
 5951TIP3    H217815   5.814   1.521   3.673  2.3192  0.1284  1.3170
 5952TIP3   OH217816   5.548   3.561   2.967 -0.3923 -0.0661 -0.0988
 5952TIP3    H117817   5.612   3.491   2.975 -3.8225 -3.1548  1.7387
 5952TIP3    H217818   5.525   3.583   3.057 -1.9955  0.9036 -0.7160
 5953TIP3   OH217819   3.657   2.419   3.099 -0.4656 -0.3476  0.1884
 5953TIP3    H117820   3.700   2.366   3.031  2.5674  0.8686  1.0606
 5953TIP3    H217821   3.686   2.509   3.081 -2.6202  0.5114  0.8981
 5954TIP3   OH217822   5.943   3.531   2.848 -0.0478  0.0372 -0.1298
 5954TIP3    H117823   6.006   3.518   2.918  0.7644 -0.2647 -0.9056
 5954TIP3    H217824   5.995   3.528   2.767 -0.7271  1.9231 -0.6709
 5955TIP3   OH217825   4.969   1.432   4.923  0.3942 -0.1038  0.1385
 5955TIP3    H117826   5.023   1.491   4.975 -1.1205  1.4955 -0.0750
 5955TIP3    H217827   4.926   1.376   4.987  0.2801  0.3660  0.4774
 5956TIP3   OH217828   4.053   1.964   3.928 -0.3598 -0.2040  0.5910
 5956TIP3    H117829   4.122   1.944   3.864  0.5185  1.0801  1.1206
 5956TIP3    H217830   4.006   2.038   3.890 -1.4148 -1.0273  0.2702
 5957TIP3   OH217831   5.874   5.200   4.243 -0.6756 -0.4278 -0.3449
 5957TIP3    H117832   5.932   5.173   4.172  2.1328  1.6859  1.0238
 5957TIP3    H217833   5.896   5.141   4.316 -0.9121 -0.2312 -0.1112
 5958TIP3   OH217834   2.938   3.029   5.882 -0.0044  0.0180 -0.1328
 5958TIP3    H117835   2.853   3.048   5.921  0.5993  0.8595  0.8175
 5958TIP3    H217836   2.991   2.996   5.955  1.6126  3.0751  0.1581
 5959TIP3   OH217837   3.823   4.364   2.797 -0.5515 -0.3934  0.1974
 5959TIP3    H117838   3.805   4.440   2.743 -0.9139  0.2171  1.1646
 5959TIP3    H217839   3.919   4.360   2.802 -0.4961 -0.9924 -1.2283
 5960TIP3   OH217840   4.413   1.906   4.484 -0.3314 -0.0114  0.6066
 5960TIP3    H117841   4.450   1.860   4.409 -1.0697  0.9459 -0.3684
 5960TIP3    H217842   4.489   1.931   4.536  0.2909  0.4444 -0.4915
 5961TIP3   OH217843   6.648   2.074   3.009  0.6184 -0.3186 -0.4224
 5961TIP3    H117844   6.722   2.042   3.060 -0.3641 -0.9832  0.5877
 5961TIP3    H217845   6.608   2.141   3.065  0.7940  0.4614 -1.2136
 5962TIP3   OH217846   4.503   1.418   3.313 -0.1204 -0.1998  0.7800
 5962TIP3    H117847   4.595   1.411   3.286 -0.2975 -3.6848  0.8255
 5962TIP3    H217848   4.506   1.408   3.408 -0.4942  0.4130  0.8549
 5963TIP3   OH217849   7.559   3.796   5.054 -0.7053 -0.1592  0.1223
 5963TIP3    H117850   7.577   3.842   4.972 -0.5725 -0.1983  0.1295
 5963TIP3    H217851   7.606   3.713   5.046  2.3485  1.3362  1.7449
 5964TIP3   OH217852   5.142   3.749   3.821 -0.4207  0.4231 -0.3765
 5964TIP3    H117853   5.104   3.661   3.819 -0.6572  0.4811  1.3853
 5964TIP3    H217854   5.117   3.788   3.737 -3.1811  0.0232  0.2247
 5965TIP3   OH217855   6.609   3.876   5.519 -0.3036 -0.3765  0.1355
 5965TIP3    H117856   6.662   3.878   5.439  0.3422 -0.9588  0.5539
 5965TIP3    H217857   6.542   3.944   5.504  2.4452  2.6408  0.9117
 5966TIP3   OH217858   5.974   3.621   3.531 -0.7737  0.1637 -0.3606
 5966TIP3    H117859   5.971   3.593   3.623 -2.1263 -2.1907 -1.0957
 5966TIP3    H217860   5.887   3.656   3.514 -0.7919 -0.1775 -0.9713
 5967TIP3   OH217861   5.725   4.388   3.756  0.5185  0.4187 -0.2543
 5967TIP3    H117862   5.800   4.381   3.698  0.7554 -0.7753  0.1680
 5967TIP3    H217863   5.754   4.348   3.838 -0.5060  0.0904 -0.0323
 5968TIP3   OH217864   6.294   3.053   4.020 -0.2672  0.0871  0.5957
 5968TIP3    H117865   6.313   3.141   4.051 -0.5829 -0.3344  2.0175
 5968TIP3    H217866   6.258   3.008   4.096 -3.4688 -0.2317 -1.0177
 5969TIP3   OH217867   5.090   3.691   5.853 -0.2626  0.1298  0.0512
 5969TIP3    H117868   5.099   3.603   5.815 -0.1426  0.7747 -1.4496
 5969TIP3    H217869   5.095   3.750   5.778  0.3831  1.4704  1.1239
 5970TIP3   OH217870   6.477   3.498   3.537  0.0328 -0.3955 -0.0525
 5970TIP3    H117871   6.439   3.417   3.501  0.9242 -0.5517 -0.6710
 5970TIP3    H217872   6.519   3.540   3.462 -0.9275  0.9434  0.1505
 5971TIP3   OH217873   6.840   2.960   4.662 -0.0934  0.2179  0.0417
 5971TIP3    H117874   6.809   3.042   4.624 -1.0793 -0.2734 -0.2318
 5971TIP3    H217875   6.818   2.967   4.755 -0.3381  0.1928 -0.0137
 5972TIP3   OH217876   5.843   3.076   3.772  0.1000  0.2441 -0.2697
 5972TIP3    H117877   5.912   3.061   3.836 -1.3279 -0.8140  1.0469
 5972TIP3    H217878   5.865   3.161   3.733  3.3726 -1.1009 -1.5029
 5973TIP3   OH217879   4.459   2.345   5.908  0.3194 -0.0390 -0.1046
 5973TIP3    H117880   4.424   2.264   5.869 -0.5832 -1.1785  2.9106
 5973TIP3    H217881   4.401   2.414   5.877  0.0260 -0.8194 -1.3148
 5974TIP3   OH217882   5.850   2.111   2.198 -0.4692  0.5121 -0.0665
 5974TIP3    H117883   5.795   2.180   2.163  1.4919  1.9512 -0.4159
 5974TIP3    H217884   5.880   2.145   2.283  0.9467  0.3543 -0.4856
 5975TIP3   OH217885   7.272   3.453   5.614  0.0391 -0.1075 -0.1587
 5975TIP3    H117886   7.295   3.484   5.702 -0.6241  0.4505 -0.1777
 5975TIP3    H217887   7.207   3.516   5.583 -0.6557 -1.0157 -0.5559
 5976TIP3   OH217888   3.783   3.389   4.495 -0.5805 -0.0748  0.3149
 5976TIP3    H117889   3.766   3.414   4.586 -0.6543  0.3912  0.1726
 5976TIP3    H217890   3.878   3.386   4.488 -0.5663  0.4783  0.2492
 5977TIP3   OH217891   2.599   2.794   3.400 -0.0155 -0.1271 -0.0389
 5977TIP3    H117892   2.641   2.730   3.343 -0.2577 -0.3562  0.0400
 5977TIP3    H217893   2.506   2.788   3.378  0.0951  1.0029 -0.8390
 5978TIP3   OH217894   5.215   1.877   4.536 -0.4008 -0.0331  0.5121
 5978TIP3    H117895   5.296   1.921   4.509 -0.8404  1.1047  1.0509
 5978TIP3    H217896   5.197   1.911   4.624 -1.9431  0.3628  0.0441
 5979TIP3   OH217897   3.769   2.096   4.508 -0.0106 -0.1659 -0.5103
 5979TIP3    H117898   3.719   2.073   4.431 -0.0557 -2.9546  0.3237
 5979TIP3    H217899   3.746   2.030   4.573  1.1113  1.2996  1.4265
 5980TIP3   OH217900   4.906   4.553   1.284 -0.2870 -0.0369 -0.2341
 5980TIP3    H117901   4.876   4.637   1.320 -1.9096 -0.7491  0.1100
 5980TIP3    H217902   4.979   4.527   1.340 -0.6054  0.5259  0.4459
 5981TIP3   OH217903   5.752   4.095   4.387 -0.4568  0.2481  0.0253
 5981TIP3    H117904   5.731   4.182   4.420 -1.4986 -0.0098  0.0419
 5981TIP3    H217905   5.838   4.076   4.424 -1.0270  0.5151  1.5144
 5982TIP3   OH217906   5.597   3.359   3.986  0.1633  0.1219 -0.1030
 5982TIP3    H117907   5.577   3.277   3.940 -0.1459 -0.2585  0.7037
 5982TIP3    H217908   5.512   3.402   3.996  0.4302  0.9124 -1.2257
 5983TIP3   OH217909   6.333   4.669   5.654 -0.5123 -0.2414  0.2714
 5983TIP3    H117910   6.318   4.612   5.729  1.9327 -0.8581  0.3492
 5983TIP3    H217911   6.428   4.671   5.644 -0.6631  2.0375 -1.1257
 5984TIP3   OH217912   5.730   3.193   1.779  0.4208 -0.9471 -0.4088
 5984TIP3    H117913   5.741   3.282   1.815 -0.4370 -0.3761 -1.5356
 5984TIP3    H217914   5.760   3.135   1.850  3.3605  0.2847 -0.5791
 5985TIP3   OH217915   7.048   2.013   5.174  0.3602 -0.2980 -0.6591
 5985TIP3    H117916   7.021   2.087   5.228  0.4247 -0.7214 -0.0368
 5985TIP3    H217917   7.006   2.028   5.089  2.7594  1.9706 -1.4946
 5986TIP3   OH217918   0.270   2.727   3.886  0.4439 -0.3318  0.8363
 5986TIP3    H117919   0.181   2.705   3.912  0.3381 -1.1858 -0.1844
 5986TIP3    H217920   0.277   2.694   3.796  1.6353  0.1432  0.7467
 5987TIP3   OH217921   4.001   5.173   3.021 -0.1659 -0.1505  0.2724
 5987TIP3    H117922   4.061   5.236   3.060 -0.6969  1.2240 -1.0721
 5987TIP3    H217923   3.942   5.149   3.092 -0.4411  1.4965  0.6209
 5988TIP3   OH217924   4.347   3.991   4.460  0.3085 -0.1510  0.6207
 5988TIP3    H117925   4.269   3.992   4.405 -0.1991 -1.1104  1.3187
 5988TIP3    H217926   4.314   3.991   4.550  1.1035 -1.3465  0.9186
 5989TIP3   OH217927   4.045   3.398   4.463 -0.0239 -0.1402 -0.2195
 5989TIP3    H117928   4.041   3.342   4.386 -0.6126 -0.2024 -0.1468
 5989TIP3    H217929   4.094   3.475   4.434 -0.0776 -0.2492 -0.6004
 5990TIP3   OH217930   3.094   2.723   2.736  0.4702  0.4321 -0.7027
 5990TIP3    H117931   3.129   2.766   2.814 -0.0893 -0.3893  0.0007
 5990TIP3    H217932   3.136   2.638   2.734 -2.7052 -1.2990  1.1370
 5991TIP3   OH217933   2.602   3.111   5.524 -0.4460 -0.0594  0.0335
 5991TIP3    H117934   2.558   3.158   5.454 -0.8529  0.9348  0.9599
 5991TIP3    H217935   2.579   3.158   5.604 -0.2613 -1.3866  0.8828
 5992TIP3   OH217936   4.594   2.531   4.507  0.0716 -0.1529 -0.7509
 5992TIP3    H117937   4.499   2.518   4.510 -0.1205  0.7816 -2.2371
 5992TIP3    H217938   4.630   2.444   4.490 -0.4210 -0.7377  1.0998
 5993TIP3   OH217939   6.900   1.164   3.126 -0.3536  0.7274 -0.4123
 5993TIP3    H117940   6.821   1.114   3.147  0.8573 -0.5601  1.1947
 5993TIP3    H217941   6.914   1.149   3.032 -0.8871 -0.6968 -0.2743
 5994TIP3   OH217942   4.381   1.007   3.727 -0.1440  0.3847  0.1636
 5994TIP3    H117943   4.439   0.979   3.798  0.2136 -0.3188 -0.3905
 5994TIP3    H217944   4.364   0.927   3.678  1.4985  1.2491 -1.9069
 5995TIP3   OH217945   4.165   1.368   4.004 -0.1201  0.1570  0.6263
 5995TIP3    H117946   4.154   1.427   3.929 -0.8524 -0.3553  0.3239
 5995TIP3    H217947   4.183   1.283   3.964 -0.6772 -0.1522  1.0377
 5996TIP3   OH217948   3.179   2.555   3.208  0.1917 -0.5353  0.5043
 5996TIP3    H117949   3.161   2.478   3.262  2.9859 -1.2981  0.4065
 5996TIP3    H217950   3.133   2.537   3.126 -1.5598 -0.7607  1.5076
 5997TIP3   OH217951   5.810   2.394   2.906 -0.4990 -0.1856  0.4506
 5997TIP3    H117952   5.724   2.421   2.938 -0.2099  2.1204 -0.5593
 5997TIP3    H217953   5.867   2.467   2.929  0.3058  0.2058 -2.5578
 5998TIP3   OH217954   4.534   1.782   3.213  0.0711 -0.4160  0.5438
 5998TIP3    H117955   4.463   1.810   3.270 -1.1055  0.9953 -1.5520
 5998TIP3    H217956   4.500   1.704   3.168  0.2406 -0.3532  0.3062
 5999TIP3   OH217957   7.265   4.392   0.931  0.3109  0.2137  0.0467
 5999TIP3    H117958   7.262   4.309   0.978  0.3980  0.9594  1.3888
 5999TIP3    H217959   7.354   4.397   0.896  0.6878  0.2934  0.9936
 6000TIP3   OH217960   5.996   3.925   4.465  0.3279 -0.2960  0.2798
 6000TIP3    H117961   6.063   3.891   4.525 -0.0138 -0.4011  0.6122
 6000TIP3    H217962   5.946   3.848   4.440  1.0661 -0.3983 -0.9186
 6001TIP3   OH217963   4.242   3.479   4.706  0.6013  0.0565  0.0295
 6001TIP3    H117964   4.300   3.521   4.643  0.4065  1.5771  0.8367
 6001TIP3    H217965   4.269   3.515   4.791  1.9465 -3.1696  1.0384
 6002TIP3   OH217966   2.549   0.928   1.300 -0.2644  0.0307 -0.6582
 6002TIP3    H117967   2.545   0.838   1.332 -0.7185  0.1661 -0.3321
 6002TIP3    H217968   2.471   0.970   1.336  0.5218  0.8480  0.1017
 6003TIP3   OH217969   3.729   2.159   5.220 -0.4267 -0.6303 -0.1879
 6003TIP3    H117970   3.771   2.127   5.140  0.8619  1.3863 -0.3335
 6003TIP3    H217971   3.705   2.250   5.200 -1.0051 -0.4314  1.3819
 6004TIP3   OH217972   4.132   2.015   5.385 -0.6013  0.2758 -0.2558
 6004TIP3    H117973   4.043   2.050   5.382 -0.9684 -0.1929  3.4948
 6004TIP3    H217974   4.141   1.969   5.301 -3.0917  2.0829 -1.6256
 6005TIP3   OH217975   4.688   1.748   3.733 -0.2421 -0.3475 -0.0409
 6005TIP3    H117976   4.718   1.686   3.800 -0.8563 -0.2631  0.3116
 6005TIP3    H217977   4.598   1.722   3.715 -0.0192 -0.4977 -0.9848
 6006TIP3   OH217978   3.112   2.312   3.977 -0.1438  0.2239  0.4933
 6006TIP3    H117979   3.022   2.345   3.967  0.1772  0.2919 -2.6005
 6006TIP3    H217980   3.157   2.381   4.026 -1.4369  0.8348  0.8432
 6007TIP3   OH217981   4.380   3.296   6.035 -0.4196 -0.8259 -0.5118
 6007TIP3    H117982   4.475   3.306   6.041 -0.3769 -1.8739  0.5939
 6007TIP3    H217983   4.367   3.202   6.022 -1.4010 -0.9829  1.4990
 6008TIP3   OH217984   6.940   3.248   5.102  0.2551 -0.2045  0.4896
 6008TIP3    H117985   6.910   3.220   5.188 -1.0257 -0.9661 -0.1767
 6008TIP3    H217986   7.013   3.190   5.082 -0.2528 -0.8669  0.5349
 6009TIP3   OH217987   1.542   0.426   0.634  0.2432  0.3341  0.3027
 6009TIP3    H117988   1.517   0.507   0.590  1.1701 -0.6746 -2.1662
 6009TIP3    H217989   1.510   0.356   0.576  1.3787 -1.0442  1.2932
 6010TIP3   OH217990   7.817   6.544   0.548  0.0971  0.1687  0.2922
 6010TIP3    H117991   7.819   6.588   0.463 -0.8093 -0.8476 -0.2668
 6010TIP3    H217992   7.745   6.584   0.595  1.3757  1.6041  1.0836
 6011TIP3   OH217993   4.428   3.594   4.915  0.0251 -0.2929  0.0761
 6011TIP3    H117994   4.441   3.511   4.961 -0.7215  0.2941  1.3813
 6011TIP3    H217995   4.440   3.661   4.983 -0.6562  0.6183 -0.6826
 6012TIP3   OH217996   3.829   3.577   4.093 -0.3813  0.4798 -0.2896
 6012TIP3    H117997   3.810   3.652   4.037  1.1917  0.6424 -0.6034
 6012TIP3    H217998   3.812   3.500   4.038  0.7450  0.6354 -0.8667
 6013TIP3   OH217999   5.105   1.570   5.126  0.3278  0.1562 -0.1312
 6013TIP3    H118000   5.082   1.563   5.219  0.9353 -1.1870 -0.0697
 6013TIP3    H218001   5.155   1.490   5.108 -0.7894 -0.1628 -1.9059
 6014TIP3   OH218002   6.259   2.127   4.676  0.0358 -0.0850  0.0892
 6014TIP3    H118003   6.178   2.079   4.666  0.3464 -0.7161  0.5374
 6014TIP3    H218004   6.278   2.123   4.770 -0.1564  1.2746  0.2019
 6015TIP3   OH218005   3.863   1.831   2.675 -0.0826 -0.1541 -0.9881
 6015TIP3    H118006   3.895   1.752   2.631 -1.1795 -0.4656 -1.2414
 6015TIP3    H218007   3.894   1.822   2.765  3.0063  0.9713 -1.9016
 6016TIP3   OH218008   2.979   1.387   5.771 -0.4789 -0.3149  0.0396
 6016TIP3    H118009   3.009   1.445   5.701  0.7356 -0.1181  0.7243
 6016TIP3    H218010   3.019   1.302   5.750 -0.7070 -0.4362  0.0942
 6017TIP3   OH218011   4.792   2.737   4.417  0.1684 -0.4611  0.0666
 6017TIP3    H118012   4.733   2.709   4.486  1.3978  0.2537  1.4352
 6017TIP3    H218013   4.770   2.681   4.342 -0.1854 -2.2416  1.4714
 6018TIP3   OH218014   3.079   7.002   0.445  0.0584  0.4881  0.0897
 6018TIP3    H118015   3.056   7.095   0.453  0.8315  0.9896 -3.0301
 6018TIP3    H218016   3.024   6.969   0.374  1.1159 -0.9935 -0.0759
 6019TIP3   OH218017   4.067   3.226   4.235 -0.0560  0.0403 -0.0589
 6019TIP3    H118018   4.087   3.133   4.241 -1.8897 -0.4240 -0.6424
 6019TIP3    H218019   4.040   3.238   4.144  2.3460  1.6188 -0.5941
 6020TIP3   OH218020   4.890   2.115   4.636  0.1948  0.6377  0.7201
 6020TIP3    H118021   4.802   2.076   4.644 -0.4751  1.9403 -0.1021
 6020TIP3    H218022   4.924   2.113   4.726 -0.9546  0.7318  1.1759
 6021TIP3   OH218023   3.655   2.181   1.417 -0.2734  0.4717  1.2259
 6021TIP3    H118024   3.694   2.204   1.501 -1.4446  0.7380  1.7175
 6021TIP3    H218025   3.688   2.247   1.356 -1.0841  1.5707  1.9474
 6022TIP3   OH218026   5.754   3.880   4.645 -0.3999 -0.2195 -0.4918
 6022TIP3    H118027   5.761   3.809   4.709 -0.3359 -0.9263 -1.2724
 6022TIP3    H218028   5.821   3.943   4.672 -1.2334  0.0963  0.8854
 6023TIP3   OH218029   5.016   2.222   6.084 -0.2649 -0.0467  0.2598
 6023TIP3    H118030   4.950   2.166   6.125  0.8204 -0.9704  0.7788
 6023TIP3    H218031   5.098   2.172   6.092  0.7137  1.6199  0.7304
 6024TIP3   OH218032   5.712   1.148   4.100  0.5996  0.1418 -0.0859
 6024TIP3    H118033   5.797   1.170   4.062  1.5723  0.3364  2.1243
 6024TIP3    H218034   5.721   1.056   4.126  0.0482  0.1090 -0.0036
 6025TIP3   OH218035   5.665   2.643   3.135 -0.5270 -0.6054 -0.0291
 6025TIP3    H118036   5.699   2.595   3.210 -0.9363 -0.6118  0.1538
 6025TIP3    H218037   5.623   2.575   3.081 -1.5845 -0.3724  0.4979
 6026TIP3   OH218038   5.573   2.032   4.045 -0.1531 -0.3923 -0.2430
 6026TIP3    H118039   5.666   2.011   4.031  0.1620  0.3427  0.6469
 6026TIP3    H218040   5.534   1.950   4.073  1.1317  0.1693  3.5058
 6027TIP3   OH218041   3.753   2.661   4.121  0.8662  0.0335 -0.1588
 6027TIP3    H118042   3.660   2.667   4.098  0.8332  0.1795  0.0105
 6027TIP3    H218043   3.775   2.748   4.154  1.0536 -0.0129 -0.1624
 6028TIP3   OH218044   7.188   5.335   1.369  0.3269 -0.3832  0.6942
 6028TIP3    H118045   7.206   5.281   1.446 -1.0159 -1.1743  0.4666
 6028TIP3    H218046   7.147   5.414   1.404 -2.2264 -1.6436  0.6584
 6029TIP3   OH218047   5.435   3.622   4.805 -0.2396 -0.0649 -0.5542
 6029TIP3    H118048   5.413   3.538   4.764 -0.6694  0.8025 -2.1173
 6029TIP3    H218049   5.353   3.652   4.845  0.5082 -1.6319  2.3674
 6030TIP3   OH218050   6.920   2.239   3.742  0.2161  0.1605  0.4877
 6030TIP3    H118051   6.847   2.211   3.798 -1.4625 -0.5401 -2.0050
 6030TIP3    H218052   6.885   2.238   3.653  3.4948 -0.9130 -0.8641
 6031TIP3   OH218053   0.357   5.159   0.974 -0.8053 -0.2995 -0.1979
 6031TIP3    H118054   0.409   5.080   0.961  1.7919  1.0258  1.5646
 6031TIP3    H218055   0.269   5.127   0.993  0.1251 -2.7553  0.1623
 6032TIP3   OH218056   6.020   3.323   4.120 -0.0898  0.1113  0.7654
 6032TIP3    H118057   6.088   3.329   4.187 -0.1314 -0.8203  0.8916
 6032TIP3    H218058   5.945   3.369   4.159 -0.1574 -0.5395  1.4191
 6033TIP3   OH218059   3.368   3.070   4.468 -0.2066  0.1992  0.3214
 6033TIP3    H118060   3.423   3.013   4.521 -0.1156 -0.2807 -0.2856
 6033TIP3    H218061   3.427   3.135   4.432 -0.3573  0.8608  1.2529
 6034TIP3   OH218062   5.608   1.143   3.712  0.5376  0.0871 -0.4218
 6034TIP3    H118063   5.570   1.155   3.799  0.9766  1.0827 -0.3532
 6034TIP3    H218064   5.605   1.049   3.697  0.5295 -0.1053  0.7047
 6035TIP3   OH218065   5.738   3.360   2.905 -0.2038 -0.2143 -0.1739
 6035TIP3    H118066   5.795   3.304   2.958 -0.3953  0.2478  0.5426
 6035TIP3    H218067   5.799   3.421   2.862 -0.1969  0.7924  1.2157
 6036TIP3   OH218068   4.300   3.213   3.706  0.2405  0.0463 -0.1732
 6036TIP3    H118069   4.367   3.249   3.764 -0.3115  2.2214 -0.8320
 6036TIP3    H218070   4.349   3.164   3.640  1.0930  0.3990  0.1915
 6037TIP3   OH218071   5.334   3.393   4.693 -0.6742  0.2720 -0.4238
 6037TIP3    H118072   5.387   3.337   4.637 -0.3237 -1.8776  1.9775
 6037TIP3    H218073   5.249   3.351   4.696  0.0646 -1.1016  2.7154
 6038TIP3   OH218074   4.731   1.425   4.369 -0.0366 -0.1186 -0.0793
 6038TIP3    H118075   4.664   1.472   4.419 -1.6078 -0.9631 -1.3480
 6038TIP3    H218076   4.776   1.371   4.434 -0.9398  0.0510  0.6994
 6039TIP3   OH218077   4.756   4.120   3.190 -0.3448  0.5838 -0.1717
 6039TIP3    H118078   4.850   4.138   3.192 -0.1141 -0.5754 -0.2328
 6039TIP3    H218079   4.748   4.043   3.135 -1.3208  0.5430  0.0202
 6040TIP3   OH218080   0.635   4.035   5.238 -0.1414  0.4639  0.1887
 6040TIP3    H118081   0.641   4.018   5.332  1.7957 -0.9981 -0.1671
 6040TIP3    H218082   0.580   4.113   5.231 -1.6401 -0.3631  2.4356
 6041TIP3   OH218083   5.115   2.954   5.227 -0.3341 -0.6047  0.3301
 6041TIP3    H118084   5.074   3.033   5.190  1.2267 -0.0671 -0.2777
 6041TIP3    H218085   5.158   2.985   5.307 -0.9225 -1.1268  0.8529
 6042TIP3   OH218086   5.013   4.044   4.215 -0.1504  0.3029  0.6037
 6042TIP3    H118087   5.066   4.123   4.205 -1.7489  1.2676 -0.6501
 6042TIP3    H218088   5.053   3.980   4.158 -0.5938  1.1813 -0.7240
 6043TIP3   OH218089   6.118   2.609   2.712  0.1234 -0.2047 -0.0979
 6043TIP3    H118090   6.144   2.697   2.683 -0.3552  0.0079  0.1035
 6043TIP3    H218091   6.144   2.607   2.804 -2.4911  0.8056  0.7165
 6044TIP3   OH218092   0.650   1.706   3.039  0.4958  0.3955 -0.0623
 6044TIP3    H118093   0.736   1.678   3.070  1.4376  1.4274 -1.6816
 6044TIP3    H218094   0.644   1.799   3.063 -0.2013  0.3108  0.1105
 6045TIP3   OH218095   0.591   1.306   4.295  0.5164 -0.6710  0.3173
 6045TIP3    H118096   0.628   1.228   4.336  1.6814 -0.0246  0.5224
 6045TIP3    H218097   0.557   1.358   4.368 -0.0331 -0.8747  0.2048
 6046TIP3   OH218098   5.833   1.940   3.912 -0.1666  0.4556  0.2736
 6046TIP3    H118099   5.757   1.907   3.864  1.5220  0.0818 -2.2802
 6046TIP3    H218100   5.891   1.864   3.919  2.0294  1.8570 -2.1287
 6047TIP3   OH218101   3.450   1.370   2.626  0.2702  0.0012  0.3014
 6047TIP3    H118102   3.538   1.334   2.619  0.7286  1.3218 -0.8646
 6047TIP3    H218103   3.461   1.464   2.616 -1.5718 -0.0454 -2.7878
 6048TIP3   OH218104   4.301   1.876   3.355 -0.2806  0.1589  0.0893
 6048TIP3    H118105   4.211   1.908   3.355 -0.3823 -0.1204  0.1346
 6048TIP3    H218106   4.322   1.862   3.448 -0.3691 -0.2640  0.0481
 6049TIP3   OH218107   2.367   3.146   3.983 -0.1235  0.1479  0.0605
 6049TIP3    H118108   2.377   3.239   4.003 -0.7746  0.0169  1.0408
 6049TIP3    H218109   2.435   3.103   4.034 -1.2820 -0.1143  1.4298
 6050TIP3   OH218110   4.515   2.377   4.031 -0.0580  0.2025  0.3279
 6050TIP3    H118111   4.610   2.365   4.039  0.0754  0.1410 -1.2340
 6050TIP3    H218112   4.484   2.295   3.992 -1.0596 -0.6308  2.7778
 6051TIP3   OH218113   6.613   1.067   2.788 -0.6804  0.5709  0.2190
 6051TIP3    H118114   6.574   0.981   2.807 -0.0493 -0.0897 -1.4106
 6051TIP3    H218115   6.583   1.087   2.699  2.3557  0.2316 -0.9208
 6052TIP3   OH218116   4.623   3.513   2.894  0.1731  0.2691  0.1523
 6052TIP3    H118117   4.604   3.419   2.885  1.5006 -0.0338  0.3983
 6052TIP3    H218118   4.642   3.525   2.987  0.5044  0.6893  0.0296
 6053TIP3   OH218119   2.964   2.749   3.290 -0.3582  0.9293 -0.7539
 6053TIP3    H118120   2.985   2.817   3.226  1.5987  0.5311 -0.5616
 6053TIP3    H218121   2.959   2.669   3.238  0.3241  0.7496 -0.5433
 6054TIP3   OH218122   7.418   0.684   2.883  0.3583  0.1085  0.6310
 6054TIP3    H118123   7.323   0.674   2.872  0.3999  0.6575 -0.2869
 6054TIP3    H218124   7.444   0.610   2.937 -0.3617 -0.8805 -0.3677
 6055TIP3   OH218125   6.688   2.105   5.278 -0.1198  0.0875  0.1091
 6055TIP3    H118126   6.718   2.146   5.197  1.3714 -0.8005  0.1931
 6055TIP3    H218127   6.732   2.153   5.348 -0.6433  0.2253  0.3453
 6056TIP3   OH218128   5.803   4.555   4.655  0.3820 -0.3420 -0.1678
 6056TIP3    H118129   5.856   4.557   4.734  0.1674  0.2121 -0.0359
 6056TIP3    H218130   5.745   4.631   4.663 -0.2203 -0.7650 -0.4501
 6057TIP3   OH218131   7.383   2.541   6.295 -0.1505 -0.6244  0.3704
 6057TIP3    H118132   7.368   2.460   6.345 -0.7592 -0.0877  1.0744
 6057TIP3    H218133   7.462   2.578   6.334 -0.7200 -0.1199  1.0648
 6058TIP3   OH218134   4.630   1.699   5.277 -0.9776 -0.0827 -0.3798
 6058TIP3    H118135   4.681   1.678   5.199 -0.6671 -2.3232  0.3964
 6058TIP3    H218136   4.667   1.644   5.346 -2.3578  0.6122  0.9510
 6059TIP3   OH218137   2.986   1.120   4.422 -0.0019 -0.2917 -0.1603
 6059TIP3    H118138   3.077   1.127   4.395 -0.1525  1.5519 -0.2457
 6059TIP3    H218139   2.938   1.176   4.362 -1.2612 -1.5388 -0.3588
 6060TIP3   OH218140   3.705   1.473   5.607  0.3651  0.2206  0.0520
 6060TIP3    H118141   3.676   1.551   5.656  0.3112 -0.4773  1.1474
 6060TIP3    H218142   3.800   1.470   5.622  0.9142  1.9294 -2.7029
 6061TIP3   OH218143   3.894   3.076   3.381 -0.3663 -0.2460  0.3022
 6061TIP3    H118144   3.967   3.043   3.434  0.4446  0.5363 -0.3057
 6061TIP3    H218145   3.822   3.016   3.399  0.4565 -1.0824  0.8550
 6062TIP3   OH218146   7.235   1.758   3.439 -0.0912 -0.1851  0.8966
 6062TIP3    H118147   7.225   1.825   3.371  1.4470 -0.6041  0.2431
 6062TIP3    H218148   7.174   1.784   3.508 -0.1234  1.4203  0.2733
 6063TIP3   OH218149   2.453   1.519   3.642  0.0884 -0.0533 -0.5739
 6063TIP3    H118150   2.383   1.585   3.639 -1.5919 -1.7791 -0.9588
 6063TIP3    H218151   2.467   1.502   3.735 -1.8154 -1.4807 -0.5048
 6064TIP3   OH218152   5.509   2.384   4.901  0.0037 -0.0938  0.3953
 6064TIP3    H118153   5.537   2.405   4.991  0.5179  0.6537  0.0651
 6064TIP3    H218154   5.528   2.290   4.892 -0.7539 -0.3454  1.3190
 6065TIP3   OH218155   4.253   2.794   5.769 -0.0114 -0.2177 -0.4188
 6065TIP3    H118156   4.168   2.838   5.774  0.0245 -0.3047  1.5895
 6065TIP3    H218157   4.233   2.703   5.791  0.9430  0.2597  2.5955
 6066TIP3   OH218158   3.744   3.233   5.181 -0.3050  0.0813 -0.8053
 6066TIP3    H118159   3.737   3.179   5.260  1.4097  0.7125 -0.1889
 6066TIP3    H218160   3.816   3.195   5.132  0.1317  1.0725 -0.9480
 6067TIP3   OH218161   4.341   2.139   4.302 -0.3717  0.2027  0.3408
 6067TIP3    H118162   4.426   2.140   4.258 -1.6270  0.9581 -2.1460
 6067TIP3    H218163   4.335   2.051   4.341  1.4259  0.0664  0.3685
 6068TIP3   OH218164   3.973   3.338   4.951 -0.1088  0.2443  0.6851
 6068TIP3    H118165   4.011   3.299   5.029  0.1900  0.5113  0.6732
 6068TIP3    H218166   4.028   3.307   4.879  0.5304  1.2205  0.7487
 6069TIP3   OH218167   3.880   3.571   3.421  0.1961 -0.6115  0.5980
 6069TIP3    H118168   3.811   3.515   3.458 -0.1384 -0.6059 -0.0111
 6069TIP3    H218169   3.939   3.511   3.377 -1.4714 -0.3046 -2.1721
 6070TIP3   OH218170   4.982   2.550   5.450 -0.0897 -0.1821 -0.4142
 6070TIP3    H118171   4.892   2.521   5.434 -1.0448  1.8575  1.0145
 6070TIP3    H218172   5.009   2.590   5.367 -0.8843  0.1507 -0.5125
 6071TIP3   OH218173   4.422   4.438   3.381  0.3496 -0.0988  0.0006
 6071TIP3    H118174   4.427   4.478   3.294  1.5352 -1.0175 -0.3692
 6071TIP3    H218175   4.350   4.484   3.425 -0.9007 -0.2733 -1.8061
 6072TIP3   OH218176   6.227   5.999   0.301  0.0550  0.3882  0.2374
 6072TIP3    H118177   6.281   5.941   0.248  0.4961 -0.1048  1.2127
 6072TIP3    H218178   6.208   6.073   0.243  0.8314  0.0350 -0.4851
 6073TIP3   OH218179   1.447   0.658   0.561  0.2252 -0.5361  0.4727
 6073TIP3    H118180   1.359   0.690   0.540  0.1699 -0.7538  0.3641
 6073TIP3    H218181   1.496   0.735   0.588 -0.2298 -0.5389  1.2992
 6074TIP3   OH218182   3.811   1.611   3.732 -0.3133 -0.0021  0.4365
 6074TIP3    H118183   3.856   1.693   3.709 -0.8115  0.5044  1.2419
 6074TIP3    H218184   3.720   1.627   3.708 -0.2676 -0.6399 -0.1933
 6075TIP3   OH218185   6.138   3.031   4.568  0.1015 -0.0920  0.3964
 6075TIP3    H118186   6.215   3.087   4.557 -0.2539  0.6491  1.5700
 6075TIP3    H218187   6.065   3.092   4.569 -0.5444 -0.8281 -1.1321
 6076TIP3   OH218188   4.521   3.763   1.276  0.2184 -0.2138  0.3503
 6076TIP3    H118189   4.553   3.791   1.190 -0.8647 -1.2053 -0.4026
 6076TIP3    H218190   4.430   3.795   1.278 -0.6274 -2.5029 -0.0066
 6077TIP3   OH218191   4.156   3.996   5.880 -0.4660 -0.2710 -0.1564
 6077TIP3    H118192   4.227   4.047   5.919 -0.9436  0.3902 -0.1524
 6077TIP3    H218193   4.094   3.982   5.951  0.1883 -1.8278  0.1332
 6078TIP3   OH218194   5.702   3.960   3.772 -0.0139 -1.0761  0.8270
 6078TIP3    H118195   5.621   4.009   3.779 -0.2381 -1.2279 -0.5104
 6078TIP3    H218196   5.683   3.875   3.813 -0.7433 -1.3534 -0.0741
 6079TIP3   OH218197   1.675   6.639   4.045  0.5110  0.5934  0.0207
 6079TIP3    H118198   1.700   6.635   4.137 -1.2577 -0.1217  0.5015
 6079TIP3    H218199   1.687   6.550   4.012  0.2125  0.6246 -0.1787
 6080TIP3   OH218200   5.539   1.102   4.740 -0.1674  0.5283 -0.5084
 6080TIP3    H118201   5.571   1.184   4.703 -1.6001  1.0967 -0.5258
 6080TIP3    H218202   5.445   1.116   4.751 -0.5221 -1.2907 -0.9957
 6081TIP3   OH218203   6.224   1.681   3.188 -0.0790 -0.9573  0.0681
 6081TIP3    H118204   6.221   1.696   3.093 -1.9310  0.4444  0.3193
 6081TIP3    H218205   6.313   1.704   3.213  0.4833 -1.4997 -1.3450
 6082TIP3   OH218206   4.935   1.180   3.499 -0.0146  0.1799 -0.0568
 6082TIP3    H118207   4.995   1.163   3.427  0.7877  1.3765  0.3177
 6082TIP3    H218208   4.863   1.118   3.485  0.9797 -0.8205 -0.8757
 6083TIP3   OH218209   2.326   1.760   4.962  0.0438  0.1777 -0.2283
 6083TIP3    H118210   2.331   1.679   5.013 -0.8132  0.2321 -0.0377
 6083TIP3    H218211   2.238   1.759   4.924 -0.0400  1.0952 -0.0786
 6084TIP3   OH218212   4.984   0.286   6.150  0.7561  0.9796 -0.0583
 6084TIP3    H118213   4.973   0.335   6.069  1.3843 -1.5671 -1.7514
 6084TIP3    H218214   4.997   0.196   6.122  0.0690 -0.1181  2.9369
 6085TIP3   OH218215   6.813   2.001   2.446  0.0043  0.5244  0.5104
 6085TIP3    H118216   6.780   1.913   2.429  1.5276 -0.2085  1.2273
 6085TIP3    H218217   6.903   2.001   2.413 -0.0271  1.8558  0.3744
 6086TIP3   OH218218   2.869   4.479   3.405 -0.0626  0.0567  0.1291
 6086TIP3    H118219   2.816   4.527   3.468  0.5932  1.1364 -0.1434
 6086TIP3    H218220   2.881   4.393   3.445 -1.1043  0.1596  0.6858
 6087TIP3   OH218221   4.161   0.123   3.438  0.3138  1.1278  0.0930
 6087TIP3    H118222   4.132   0.039   3.473  1.0867 -0.0993 -2.1412
 6087TIP3    H218223   4.245   0.139   3.482 -0.6952  1.6668  1.8947
 6088TIP3   OH218224   6.608   1.144   4.391 -0.1565  0.5990 -0.0366
 6088TIP3    H118225   6.680   1.157   4.329 -0.6150 -0.9114 -0.9115
 6088TIP3    H218226   6.627   1.060   4.432 -1.6401 -0.0161 -0.5933
 6089TIP3   OH218227   6.513   2.505   2.997  0.1779  0.6640  0.1206
 6089TIP3    H118228   6.457   2.436   3.032  0.8139  0.2476  0.3242
 6089TIP3    H218229   6.591   2.459   2.966  0.7858  1.3299  0.6404
 6090TIP3   OH218230   4.830   3.834   4.676 -0.0720  0.6915  0.3882
 6090TIP3    H118231   4.768   3.907   4.667 -0.7396 -0.0577 -1.4444
 6090TIP3    H218232   4.779   3.763   4.713  0.2216  0.7031  0.8217
 6091TIP3   OH218233   3.087   7.114   6.018  0.3704 -0.4091  0.1333
 6091TIP3    H118234   3.037   7.125   6.099  0.6555  2.1078 -0.0047
 6091TIP3    H218235   3.022   7.121   5.949  0.2223 -1.9311  0.1049
 6092TIP3   OH218236   5.507   0.579   6.013  0.3364  0.1711 -0.3853
 6092TIP3    H118237   5.537   0.576   6.104  0.1820  0.0771 -0.3360
 6092TIP3    H218238   5.467   0.493   5.999  0.4325  0.1567 -0.5677
 6093TIP3   OH218239   2.679   2.686   4.190  0.5536 -0.0414  0.1763
 6093TIP3    H118240   2.736   2.749   4.146  2.1832 -1.5924 -0.0037
 6093TIP3    H218241   2.617   2.658   4.122  1.2977 -0.3491 -0.3815
 6094TIP3   OH218242   6.944   2.052   4.909 -0.6344 -0.1359  0.1040
 6094TIP3    H118243   6.914   2.018   4.825 -1.2502 -0.4083  0.4367
 6094TIP3    H218244   7.028   2.094   4.889 -0.5852 -0.5563 -0.5715
 6095TIP3   OH218245   0.190   3.365   5.198 -0.3710  0.1280 -0.5950
 6095TIP3    H118246   0.103   3.343   5.166  0.1184  1.4197 -2.9931
 6095TIP3    H218247   0.177   3.443   5.253 -0.9832 -0.9982  0.8882
 6096TIP3   OH218248   4.594   1.742   1.381  0.8916 -0.4501 -0.2983
 6096TIP3    H118249   4.605   1.837   1.393  0.3661 -0.7952  3.3395
 6096TIP3    H218250   4.678   1.705   1.408  0.6034 -1.1047 -0.2974
 6097TIP3   OH218251   7.634   3.854   4.808  0.2072  0.1708 -0.3922
 6097TIP3    H118252   7.674   3.786   4.754 -1.1475 -0.3093 -0.8287
 6097TIP3    H218253   7.549   3.870   4.766 -0.7725 -0.0363  1.4490
 6098TIP3   OH218254   5.106   3.519   4.142  0.0466 -0.3031  0.0786
 6098TIP3    H118255   5.086   3.465   4.219 -0.8056 -1.4137 -0.8974
 6098TIP3    H218256   5.098   3.458   4.068 -3.3149  1.6675 -1.2966
 6099TIP3   OH218257   0.982   5.797   4.016  0.1299  0.3786 -0.1230
 6099TIP3    H118258   1.008   5.713   4.054 -0.9562  0.4319  0.7741
 6099TIP3    H218259   1.027   5.863   4.069  0.7059  0.3780 -0.6072
 6100TIP3   OH218260   0.298   1.856   5.899  0.1111  1.1462  0.3536
 6100TIP3    H118261   0.278   1.934   5.848  1.4232  1.5034  0.3777
 6100TIP3    H218262   0.267   1.783   5.844  3.3433  1.3825 -1.9589
 6101TIP3   OH218263   0.280   1.253   4.091  0.1216  0.1740  0.5353
 6101TIP3    H118264   0.353   1.316   4.091  0.9503 -0.7570  1.6056
 6101TIP3    H218265   0.319   1.172   4.123 -1.2823 -0.4792  0.6108
 6102TIP3   OH218266   6.788   3.515   4.641 -0.6345  0.1880  0.0504
 6102TIP3    H118267   6.876   3.487   4.614 -0.9305  0.6058 -1.4135
 6102TIP3    H218268   6.755   3.563   4.565 -1.5088  1.4212  1.1940
 6103TIP3   OH218269   0.667   2.520   2.323  0.3720  0.2334 -0.2495
 6103TIP3    H118270   0.720   2.581   2.374  0.1352 -0.5735  0.9913
 6103TIP3    H218271   0.721   2.441   2.315 -1.0081 -0.9728  1.9099
 6104TIP3   OH218272   5.934   4.739   4.490  0.2444  0.0450 -0.5707
 6104TIP3    H118273   5.886   4.821   4.490 -1.3487 -0.8576 -0.0510
 6104TIP3    H218274   5.919   4.702   4.577  2.7803  0.2278  0.0020
 6105TIP3   OH218275   0.389   1.729   3.474 -0.1609 -0.0492  0.0546
 6105TIP3    H118276   0.378   1.794   3.405  1.1927 -0.3660 -0.4653
 6105TIP3    H218277   0.454   1.767   3.533  0.2030 -0.6806  0.0595
 6106TIP3   OH218278   7.691   1.901   5.590 -0.6189 -0.3854  0.3259
 6106TIP3    H118279   7.707   1.918   5.683 -1.5976 -1.4614  0.7026
 6106TIP3    H218280   7.729   1.976   5.545  0.9881 -0.4581  1.5100
 6107TIP3   OH218281   6.310   5.530   2.602 -0.1756  0.4566  0.3958
 6107TIP3    H118282   6.246   5.483   2.549  0.6690 -0.5447  0.2596
 6107TIP3    H218283   6.298   5.495   2.690  2.5409 -2.3414 -0.2327
 6108TIP3   OH218284   6.869   3.162   1.366  0.9240  0.3521 -0.0333
 6108TIP3    H118285   6.919   3.126   1.292  0.8742  1.1558 -0.4570
 6108TIP3    H218286   6.779   3.134   1.350  1.4153 -2.3876  1.5055
 6109TIP3   OH218287   6.376   3.445   3.291  0.3372  0.2184 -0.2580
 6109TIP3    H118288   6.309   3.506   3.320  0.1395  0.5462 -1.3821
 6109TIP3    H218289   6.364   3.439   3.196  1.1236 -0.6410 -0.3131
 6110TIP3   OH218290   7.475   1.978   3.881 -0.5123 -0.3833  0.7027
 6110TIP3    H118291   7.548   1.920   3.905 -0.7205 -0.3709  1.3699
 6110TIP3    H218292   7.398   1.921   3.882 -0.3771 -0.6466 -1.0654
 6111TIP3   OH218293   0.709   2.276   3.424 -0.1192 -0.1518  0.0387
 6111TIP3    H118294   0.784   2.289   3.366 -0.4447  2.7695  0.2057
 6111TIP3    H218295   0.748   2.255   3.509  0.5851  2.0750  0.3034
 6112TIP3   OH218296   4.605   1.179   4.549  0.4931  0.2817  0.2475
 6112TIP3    H118297   4.634   1.256   4.598 -1.2339  0.9220  0.2921
 6112TIP3    H218298   4.554   1.129   4.612  0.7682 -0.3960 -0.0696
 6113TIP3   OH218299   7.083   2.796   3.623  0.0206 -0.1135  0.3516
 6113TIP3    H118300   7.134   2.869   3.658  0.9426 -0.8938  0.6481
 6113TIP3    H218301   7.147   2.728   3.604 -0.7935 -0.7366 -0.2326
 6114TIP3   OH218302   1.167   2.407   2.348 -0.3511  0.3949  0.0031
 6114TIP3    H118303   1.209   2.456   2.277  0.2056 -1.5873 -1.0859
 6114TIP3    H218304   1.160   2.469   2.420  1.4433  1.7048 -0.9215
 6115TIP3   OH218305   0.025   2.589   4.670  0.1704 -0.0573 -0.2477
 6115TIP3    H118306   0.062   2.677   4.667  1.6757 -0.6651 -0.1049
 6115TIP3    H218307   0.052   2.555   4.755  1.1366 -1.3058 -1.0409
 6116TIP3   OH218308   5.696   0.822   3.475 -0.0183 -0.5816 -0.3842
 6116TIP3    H118309   5.788   0.824   3.450 -0.2414  1.1023 -1.1146
 6116TIP3    H218310   5.655   0.763   3.411 -0.1019  1.6145 -2.4043
 6117TIP3   OH218311   4.948   3.686   4.345  0.7781  0.1435 -0.3790
 6117TIP3    H118312   4.980   3.754   4.285  1.8335 -0.3310 -0.3671
 6117TIP3    H218313   4.908   3.735   4.417  0.6629  0.7379 -0.8358
 6118TIP3   OH218314   6.804   2.532   4.356 -0.1384  0.5557 -0.4835
 6118TIP3    H118315   6.802   2.580   4.439 -0.0788  1.4109 -0.9703
 6118TIP3    H218316   6.713   2.509   4.340 -0.6473  3.3186 -1.8460
 6119TIP3   OH218317   6.246   2.301   2.887 -0.4454  0.2518 -0.2036
 6119TIP3    H118318   6.316   2.260   2.937 -0.4574  0.7242  0.2099
 6119TIP3    H218319   6.194   2.348   2.953 -1.3535 -0.3859 -0.4630
 6120TIP3   OH218320   5.724   1.605   3.373  0.3900  0.3704 -0.0607
 6120TIP3    H118321   5.695   1.602   3.465  0.3154 -2.0703 -0.1141
 6120TIP3    H218322   5.643   1.596   3.323  0.7385 -1.9636 -0.2743
 6121TIP3   OH218323   2.855   2.234   4.836 -0.3444  0.8031  0.2118
 6121TIP3    H118324   2.813   2.315   4.864 -0.8133  0.3939  0.7021
 6121TIP3    H218325   2.873   2.187   4.917  1.3785  1.1263  0.0374
 6122TIP3   OH218326   5.891   3.380   3.321  0.0361 -1.1167 -0.7748
 6122TIP3    H118327   5.810   3.432   3.315 -0.6453 -2.0432  0.1625
 6122TIP3    H218328   5.861   3.290   3.327  1.0960 -1.4006  0.5981
 6123TIP3   OH218329   0.679   3.063   3.547  0.0831 -0.1980 -0.1184
 6123TIP3    H118330   0.590   3.047   3.578  0.0445 -1.6026 -0.9152
 6123TIP3    H218331   0.669   3.133   3.482 -0.6514 -1.3252 -1.2441
 6124TIP3   OH218332   0.371   1.351   5.614 -0.1056 -0.2786 -0.2885
 6124TIP3    H118333   0.380   1.415   5.684  1.8008 -2.2309  1.3480
 6124TIP3    H218334   0.277   1.331   5.612 -0.2996  0.4135  1.1530
 6125TIP3   OH218335   6.842   2.131   4.205 -0.2348 -0.3428 -0.2403
 6125TIP3    H118336   6.882   2.061   4.153 -0.0597 -0.2696 -0.2053
 6125TIP3    H218337   6.915   2.188   4.228 -0.3664 -0.1910 -0.2012
 6126TIP3   OH218338   7.658   3.028   2.279  0.4254 -0.0762 -0.0123
 6126TIP3    H118339   7.669   2.980   2.197  0.2529  1.2913 -0.8520
 6126TIP3    H218340   7.563   3.028   2.294  0.5999 -1.9774  1.2085
 6127TIP3   OH218341   6.829   4.909   3.458 -0.4172  0.2516 -0.1617
 6127TIP3    H118342   6.792   4.839   3.511 -0.1839  1.0400  1.0678
 6127TIP3    H218343   6.755   4.943   3.409 -0.5243 -0.8767 -0.7943
 6128TIP3   OH218344   7.461   4.663   2.731  0.2413 -0.1071 -0.1645
 6128TIP3    H118345   7.385   4.622   2.773  0.9577 -0.8272  0.4431
 6128TIP3    H218346   7.435   4.755   2.720  0.0377  0.1040  1.8773
 6129TIP3   OH218347   0.660   2.562   5.818  0.0376  0.3547  0.0359
 6129TIP3    H118348   0.722   2.608   5.762  0.7678 -0.1661  0.4042
 6129TIP3    H218349   0.632   2.486   5.767 -0.7631  0.9219 -0.3671
 6130TIP3   OH218350   7.702   1.435   3.905  0.1378  0.1690  0.1429
 6130TIP3    H118351   7.759   1.460   3.978  1.1252  0.2460 -0.6298
 6130TIP3    H218352   7.650   1.363   3.938  1.3926 -0.5616  0.5814
 6131TIP3   OH218353   7.034   3.465   4.540 -0.1423 -0.2249 -0.0964
 6131TIP3    H118354   7.062   3.539   4.486 -3.2982  1.2812  0.2601
 6131TIP3    H218355   7.001   3.400   4.478 -1.1142  0.3307 -0.1617
 6132TIP3   OH218356   5.455   1.975   2.058 -0.5797  0.4222 -0.9296
 6132TIP3    H118357   5.436   2.012   2.144  1.4885  0.8238 -0.6333
 6132TIP3    H218358   5.414   2.036   1.997 -2.0111  0.1659 -0.2590
 6133TIP3   OH218359   7.590   4.167   1.493 -0.3218  0.1336 -0.0464
 6133TIP3    H118360   7.567   4.201   1.406 -0.1496 -0.0148 -0.1505
 6133TIP3    H218361   7.686   4.169   1.495 -0.3424  0.8359  0.4228
 6134TIP3   OH218362   6.331   2.696   3.865  0.0227 -0.0530  0.2781
 6134TIP3    H118363   6.254   2.752   3.856  1.9140  2.4993 -0.6114
 6134TIP3    H218364   6.385   2.717   3.789  1.5256 -1.9293  0.7899
 6135TIP3   OH218365   7.445   3.559   4.766  0.0873  0.3311  0.4323
 6135TIP3    H118366   7.398   3.476   4.760 -0.8200  0.9533 -1.5017
 6135TIP3    H218367   7.482   3.560   4.855 -0.5358 -1.7753  0.7288
 6136TIP3   OH218368   6.809   1.255   6.087 -0.7133  0.2211 -0.4054
 6136TIP3    H118369   6.781   1.249   5.996  0.3651 -1.4103 -0.6477
 6136TIP3    H218370   6.733   1.227   6.138 -1.1227  0.5608 -0.8273
 6137TIP3   OH218371   6.928   3.743   4.811 -0.0704  1.2550  0.0504
 6137TIP3    H118372   7.009   3.742   4.861 -0.0721  0.5389  0.0450
 6137TIP3    H218373   6.888   3.658   4.828  0.6016  0.4401 -2.2722
 6138TIP3   OH218374   5.972   4.474   3.970  0.1626 -0.2683  0.0437
 6138TIP3    H118375   6.021   4.399   3.937 -1.2868 -0.9634 -0.5993
 6138TIP3    H218376   5.997   4.481   4.062  0.6160 -1.2849  0.0020
 6139TIP3   OH218377   0.397   1.343   2.664  0.4722  0.4046  0.2838
 6139TIP3    H118378   0.391   1.260   2.617 -0.8966 -0.0480  1.2038
 6139TIP3    H218379   0.344   1.329   2.743  0.9191  1.8722  0.8551
 6140TIP3   OH218380   0.490   0.964   3.791  0.0848  0.1614  0.3874
 6140TIP3    H118381   0.567   0.918   3.757 -0.2534 -0.8426  0.9687
 6140TIP3    H218382   0.525   1.043   3.831  0.4941  1.5159 -2.4708
 6141TIP3   OH218383   7.343   3.030   3.291  1.0272 -0.0897 -0.1693
 6141TIP3    H118384   7.317   3.115   3.327  0.5683  0.3378 -1.4889
 6141TIP3    H218385   7.272   3.006   3.232  1.2587 -1.2986  0.0351
 6142TIP3   OH218386   5.636   4.780   4.650  0.2642  0.3585  0.0829
 6142TIP3    H118387   5.559   4.729   4.676  1.5859  0.4065  4.6101
 6142TIP3    H218388   5.606   4.871   4.649 -0.0301  0.2672  0.6027
 6143TIP3   OH218389  -0.008   1.498   3.655  0.1320 -0.2577  0.3350
 6143TIP3    H118390   0.049   1.571   3.676 -0.2714 -0.3268  1.7534
 6143TIP3    H218391  -0.028   1.458   3.740  1.1000 -2.5741 -0.4933
 6144TIP3   OH218392   7.161   1.306   5.730 -0.3680  0.0923 -0.1545
 6144TIP3    H118393   7.140   1.399   5.739  0.4342  0.3241 -0.6697
 6144TIP3    H218394   7.130   1.282   5.643  0.7306  0.2307 -0.5868
 6145TIP3   OH218395   3.217   0.205   0.241 -0.0420 -0.2870  0.8406
 6145TIP3    H118396   3.221   0.112   0.216 -1.0228 -0.4525  1.2842
 6145TIP3    H218397   3.265   0.209   0.323 -1.2242 -0.6688  1.5635
 6146TIP3   OH218398   6.817   1.061   3.450 -0.1918  0.4140  0.6008
 6146TIP3    H118399   6.792   1.127   3.514 -0.4421  1.5038 -0.5927
 6146TIP3    H218400   6.908   1.081   3.429  0.1750 -0.4991  1.2751
 6147TIP3   OH218401   6.423   4.153   4.491 -0.0085  0.0817  0.2187
 6147TIP3    H118402   6.445   4.236   4.534  1.5278 -0.9959  1.6023
 6147TIP3    H218403   6.507   4.121   4.457 -0.7554 -0.4312 -1.1438
 6148TIP3   OH218404   0.238   2.120   4.951  0.6629 -0.1496 -0.0528
 6148TIP3    H118405   0.168   2.085   4.896 -0.9224  2.1940  0.3554
 6148TIP3    H218406   0.241   2.213   4.929  0.7247  0.6229  2.9721
 6149TIP3   OH218407   1.337   6.634   0.315  0.8320 -0.1648  0.6224
 6149TIP3    H118408   1.328   6.573   0.241 -2.0253  1.9784 -0.9055
 6149TIP3    H218409   1.427   6.665   0.310  0.9031 -0.6408 -1.5265
 6150TIP3   OH218410   7.078   3.273   5.972 -0.2086  0.4060 -0.0921
 6150TIP3    H118411   7.149   3.256   6.033 -0.1745 -0.9017 -0.4722
 6150TIP3    H218412   7.041   3.357   5.999  0.7512  0.5361  0.8007
 6151TIP3   OH218413   5.880   2.360   3.962  0.4315 -0.4367 -0.0651
 6151TIP3    H118414   5.784   2.353   3.963  0.5017 -1.7036 -1.2756
 6151TIP3    H218415   5.902   2.377   3.871  1.4958 -2.4530 -0.2204
 6152TIP3   OH218416   6.008   1.968   2.037  0.1580 -0.4237 -0.3153
 6152TIP3    H118417   5.945   2.031   2.072 -0.7056 -0.9381 -0.9413
 6152TIP3    H218418   6.083   2.022   2.011  0.4285  0.0719  1.4053
 6153TIP3   OH218419   0.845   2.592   5.284  0.6896 -0.4638  0.6261
 6153TIP3    H118420   0.908   2.521   5.282  1.4519  0.2289 -1.5261
 6153TIP3    H218421   0.897   2.671   5.297  0.0537 -0.0842  0.9392
 6154TIP3   OH218422   1.011   2.502   5.797  0.0439  0.4169 -0.0368
 6154TIP3    H118423   0.935   2.561   5.797  0.3811  0.8521 -1.1629
 6154TIP3    H218424   1.031   2.487   5.705  0.9658 -0.1741  0.2467
 6155TIP3   OH218425   5.668   2.702   2.729 -0.1070  0.2404 -0.6232
 6155TIP3    H118426   5.646   2.611   2.710  0.0905  0.2535 -0.9229
 6155TIP3    H218427   5.615   2.753   2.668 -0.7392  0.3597  0.0184
 6156TIP3   OH218428   0.571   2.483   5.341 -0.5520  0.4121 -0.1053
 6156TIP3    H118429   0.519   2.563   5.337  0.4167  1.1021  0.9975
 6156TIP3    H218430   0.661   2.513   5.353 -0.3061 -0.8536  1.4025
 6157TIP3   OH218431   6.558   5.438   2.210  0.1831 -0.0679  0.7238
 6157TIP3    H118432   6.624   5.461   2.276  1.2477  0.7072 -0.5810
 6157TIP3    H218433   6.596   5.364   2.163  0.8559  1.4060 -1.0817
 6158TIP3   OH218434   6.633   2.415   3.561 -0.1639 -0.1214 -0.2830
 6158TIP3    H118435   6.584   2.442   3.638  0.1217 -0.7210  0.1177
 6158TIP3    H218436   6.651   2.496   3.514 -2.3137  0.0075 -0.9160
 6159TIP3   OH218437   0.749   2.383   2.951 -0.6440  0.3580 -0.1608
 6159TIP3    H118438   0.708   2.433   2.880  0.7514 -1.1353 -2.0887
 6159TIP3    H218439   0.771   2.448   3.017 -2.4397  1.7209 -0.8915
 6160TIP3   OH218440   7.599   2.203   6.286  0.4887 -0.2698 -0.1306
 6160TIP3    H118441   7.663   2.218   6.356  0.8410 -0.0572 -0.4927
 6160TIP3    H218442   7.514   2.209   6.329  0.7316 -1.4789  0.5327
 6161TIP3   OH218443   6.653   1.087   5.404  0.0618 -0.3596 -0.3607
 6161TIP3    H118444   6.567   1.063   5.438  0.1970  1.3690  1.2846
 6161TIP3    H218445   6.637   1.112   5.313 -1.2151  0.1637  0.0020
 6162TIP3   OH218446   6.011   1.997   3.524 -0.5805 -0.1354  0.2205
 6162TIP3    H118447   6.022   1.923   3.584  0.1689 -0.4549 -0.3046
 6162TIP3    H218448   5.922   1.986   3.489  0.1527 -1.8191 -1.2185
 6163TIP3   OH218449   6.671   3.256   3.053 -0.0514  0.0271 -0.1376
 6163TIP3    H118450   6.684   3.295   3.139  0.6845 -1.4728  0.4433
 6163TIP3    H218451   6.583   3.219   3.057  0.2277 -0.6030  0.1919
 6164TIP3   OH218452   5.456   1.780   4.089 -0.3028 -0.3729  0.3611
 6164TIP3    H118453   5.402   1.712   4.048 -0.9389 -0.7680  1.8324
 6164TIP3    H218454   5.466   1.751   4.180  0.1471  1.0640  0.7743
 6165TIP3   OH218455   0.933   1.938   4.333  0.4915 -0.3607 -0.6433
 6165TIP3    H118456   1.010   1.987   4.304  0.8545 -0.6740 -0.2189
 6165TIP3    H218457   0.864   2.003   4.338  0.6929 -0.1043 -1.1764
 6166TIP3   OH218458   7.207   2.212   1.796 -0.4818  0.1322  0.0649
 6166TIP3    H118459   7.247   2.129   1.770 -0.4126  0.4838 -0.9686
 6166TIP3    H218460   7.123   2.187   1.835 -1.1376 -0.3466 -1.5904
 6167TIP3   OH218461   0.590   2.494   4.613  0.2753  0.0905 -0.1146
 6167TIP3    H118462   0.624   2.448   4.689 -0.1225  2.1020  1.3127
 6167TIP3    H218463   0.536   2.429   4.568 -0.2391 -0.8730  1.8388
 6168TIP3   OH218464   1.345   2.429   5.250  0.0994  0.3047  0.4696
 6168TIP3    H118465   1.252   2.429   5.270 -0.4917  0.3132 -2.0357
 6168TIP3    H218466   1.381   2.354   5.297 -1.5322 -0.8133 -0.0498
 6169TIP3   OH218467   0.156   2.235   2.647 -0.4599 -0.5462  0.1962
 6169TIP3    H118468   0.251   2.240   2.642 -0.2579 -2.3187  1.7085
 6169TIP3    H218469   0.127   2.326   2.650  1.3712  0.0017  2.4630
 6170TIP3   OH218470   0.924   2.885   5.361 -0.7472  0.0582  0.0079
 6170TIP3    H118471   0.895   2.972   5.331 -0.7802  0.0897  0.1301
 6170TIP3    H218472   0.846   2.846   5.400 -1.1884 -0.7251 -1.6289
 6171TIP3   OH218473   0.658   0.856   3.233  0.3420  0.4353  0.0514
 6171TIP3    H118474   0.704   0.802   3.168  0.1033 -0.2875  0.4787
 6171TIP3    H218475   0.666   0.946   3.199  1.7475  0.2828 -0.0731
 6172TIP3   OH218476   6.176   4.765   3.214 -0.2390 -0.3164 -0.7378
 6172TIP3    H118477   6.174   4.829   3.142  1.2879 -0.1637 -0.6521
 6172TIP3    H218478   6.156   4.817   3.292 -0.0285 -0.1249 -0.8083
 6173TIP3   OH218479   5.514   3.995   4.693 -0.2661 -0.4097  0.4141
 6173TIP3    H118480   5.464   3.935   4.637  0.0165  1.9896 -2.6092
 6173TIP3    H218481   5.605   3.981   4.669 -0.1873  1.0796 -0.2656
 6174TIP3   OH218482   7.420   2.374   3.432 -0.8282  0.2646 -0.0091
 6174TIP3    H118483   7.415   2.363   3.527 -1.5128 -0.7342 -0.1493
 6174TIP3    H218484   7.410   2.285   3.398 -0.0907  0.5502 -1.0014
 6175TIP3   OH218485   5.038   1.644   4.540 -0.4096  0.0432 -0.7103
 6175TIP3    H118486   5.068   1.734   4.550 -0.6013  0.1025 -0.6666
 6175TIP3    H218487   5.020   1.635   4.446 -2.3893  0.6869 -0.4121
 6176TIP3   OH218488   4.754   1.919   3.150 -0.0820 -0.0054  0.0207
 6176TIP3    H118489   4.779   1.914   3.057 -0.4573  0.8097 -0.1329
 6176TIP3    H218490   4.663   1.890   3.151 -0.3075  0.6898  0.0227
 6177TIP3   OH218491   7.107   3.694   4.383  0.2676 -0.2396 -0.1612
 6177TIP3    H118492   7.184   3.746   4.406 -1.2372  0.6568  3.2219
 6177TIP3    H218493   7.061   3.747   4.317  1.6951 -0.0016 -0.9687
 6178TIP3   OH218494   7.136   1.822   4.226 -0.8678  0.4150  0.3407
 6178TIP3    H118495   7.183   1.752   4.270 -0.0710  1.5079  1.2631
 6178TIP3    H218496   7.162   1.902   4.273 -1.1985  1.4183 -1.1413
 6179TIP3   OH218497   5.795   0.048   3.559 -0.2707 -0.3134  0.0104
 6179TIP3    H118498   5.869   0.087   3.514 -1.7460  0.3488 -1.9378
 6179TIP3    H218499   5.775  -0.031   3.509 -0.4114 -0.8819  0.9572
 6180TIP3   OH218500   7.133   3.013   4.706  0.1303 -0.1369  0.2789
 6180TIP3    H118501   7.157   2.995   4.797 -0.2899  1.2487  0.6706
 6180TIP3    H218502   7.045   2.976   4.697 -0.5252  1.2018  0.9405
 6181TIP3   OH218503   6.992   1.408   1.400  0.1968  0.5457 -0.7156
 6181TIP3    H118504   7.072   1.460   1.393  1.0797 -0.7593 -0.5921
 6181TIP3    H218505   7.019   1.329   1.448 -0.1974 -1.8239 -4.2213
 6182TIP3   OH218506   6.888   2.752   3.264 -0.2010 -0.2399 -0.9376
 6182TIP3    H118507   6.809   2.787   3.305 -0.1272 -0.5779 -0.5105
 6182TIP3    H218508   6.955   2.819   3.281 -0.2631 -0.2033 -0.8398
 6183TIP3   OH218509   3.589   0.037   6.147  0.4916 -0.2767 -0.2687
 6183TIP3    H118510   3.675   0.066   6.118  0.6440 -1.4010 -0.9586
 6183TIP3    H218511   3.529   0.106   6.118  1.1655  0.5820  0.3491
 6184TIP3   OH218512   7.272   1.976   4.969 -0.2926  0.0201  0.2073
 6184TIP3    H118513   7.267   1.880   4.971 -0.8735 -0.0089 -1.6381
 6184TIP3    H218514   7.203   2.004   5.030  0.8839 -0.7242  1.9182
 6185TIP3   OH218515   0.311   3.645   5.238  0.4024  0.7520 -0.3732
 6185TIP3    H118516   0.343   3.685   5.318  1.0882  0.3890 -0.4629
 6185TIP3    H218517   0.389   3.634   5.183  0.4602 -1.9538  0.1922
 6186TIP3   OH218518   0.789   2.187   5.470 -0.1710 -0.0305 -1.1689
 6186TIP3    H118519   0.838   2.229   5.399  0.1257  1.0207 -0.3636
 6186TIP3    H218520   0.814   2.095   5.465  0.8849  0.2640 -1.6025
 6187TIP3   OH218521   7.662   2.581   3.166  0.2600  0.1537 -0.1299
 6187TIP3    H118522   7.598   2.652   3.168 -1.9407 -1.7108 -1.5139
 6187TIP3    H218523   7.680   2.564   3.259 -3.0105 -0.7357  0.4343
 6188TIP3   OH218524   7.498   4.552   3.748  0.3231 -0.7122 -0.3628
 6188TIP3    H118525   7.535   4.621   3.804 -0.4606 -0.8703  0.3715
 6188TIP3    H218526   7.439   4.599   3.689  0.3393 -0.6673 -0.3437
 6189TIP3   OH218527   7.280   2.056   4.398  0.0110 -0.3508  0.4785
 6189TIP3    H118528   7.351   2.029   4.456 -0.0356  1.3362  1.3525
 6189TIP3    H218529   7.320   2.059   4.311  1.7351  3.0038  1.2988
 6190TIP3   OH218530   7.442   3.084   5.200  0.0733 -0.3408  0.0327
 6190TIP3    H118531   7.447   3.164   5.252 -0.8851 -0.6981  0.6770
 6190TIP3    H218532   7.483   3.017   5.255  0.6278 -0.3653 -0.3961
 6191TIP3   OH218533   0.288   4.158   1.299 -0.4402  0.3083  0.4212
 6191TIP3    H118534   0.282   4.069   1.263 -0.6039  0.3174  0.4259
 6191TIP3    H218535   0.329   4.209   1.229  1.3534 -0.1556  1.1080
 6192TIP3   OH218536   6.654   1.513   3.233  0.7637 -0.0390 -0.0744
 6192TIP3    H118537   6.719   1.498   3.301  2.4636  1.0504 -1.4390
 6192TIP3    H218538   6.705   1.526   3.153 -1.1086  1.3225 -1.0726
 6193TIP3   OH218539   6.623   4.240   2.598  0.1319 -0.5775  0.3750
 6193TIP3    H118540   6.606   4.166   2.540 -4.1626 -0.7609  1.6690
 6193TIP3    H218541   6.552   4.302   2.578 -0.5279  0.0265  4.2552
 6194TIP3   OH218542   7.141   3.196   5.656 -0.0118 -0.4174  1.1047
 6194TIP3    H118543   7.200   3.261   5.620 -0.1254  0.1848  1.9987
 6194TIP3    H218544   7.192   3.115   5.660 -0.2863 -0.7416 -1.3050
 6195TIP3   OH218545   0.175   2.259   3.539  0.3174  0.1192 -0.0581
 6195TIP3    H118546   0.185   2.308   3.457 -0.5905  0.7851  0.2256
 6195TIP3    H218547   0.145   2.324   3.602 -0.4588 -0.7185  0.4358
 6196TIP3   OH218548   7.140   4.042   4.742  0.2705  0.2045  0.2344
 6196TIP3    H118549   7.147   4.134   4.769  0.4594  0.2930 -0.1090
 6196TIP3    H218550   7.080   4.043   4.668  0.2229  0.0415  0.2705
 6197TIP3   OH218551   7.095   4.239   3.259  0.0289  0.3793  0.2258
 6197TIP3    H118552   7.134   4.323   3.237  0.8318  0.8147  3.1358
 6197TIP3    H218553   7.163   4.175   3.238  0.3478  0.6728  0.3632
 6198TIP3   OH218554   5.732   3.486   3.798 -0.8650  0.4534  0.0130
 6198TIP3    H118555   5.687   3.455   3.877 -0.6698 -0.8358 -0.3666
 6198TIP3    H218556   5.663   3.524   3.745 -1.8496 -2.8717 -1.2438
 6199TIP3   OH218557   7.300   3.417   3.886 -0.1149  0.0206  0.1486
 6199TIP3    H118558   7.351   3.421   3.967  0.6199  1.7194 -0.3930
 6199TIP3    H218559   7.297   3.507   3.854 -1.0205 -0.5172 -1.3407
 6200TIP3   OH218560   0.044   2.805   5.244  0.2572  0.0881  0.1773
 6200TIP3    H118561   0.059   2.829   5.153  1.0110 -0.8348  0.0500
 6200TIP3    H218562   0.112   2.851   5.293  0.0675  0.3078  0.2353
 6201TIP3   OH218563   7.534   2.737   4.566  0.6269  0.8854  0.2452
 6201TIP3    H118564   7.474   2.716   4.495 -0.8563 -1.9031  2.1959
 6201TIP3    H218565   7.586   2.809   4.533 -2.2054  1.8284 -2.4286
 6202TIP3   OH218566   5.057   2.318   4.557  0.4930  0.3540  0.2390
 6202TIP3    H118567   4.999   2.241   4.560  0.8544  0.0212 -1.2333
 6202TIP3    H218568   5.063   2.340   4.465  0.2870  2.2609  0.6708
 6203TIP3   OH218569   6.902   1.334   2.142  0.0742  0.0046 -0.7393
 6203TIP3    H118570   6.841   1.266   2.171  0.8973 -0.0320  0.9349
 6203TIP3    H218571   6.846   1.402   2.104 -0.8566 -0.9385 -1.0760
 6204TIP3   OH218572   5.932   2.214   2.454  0.2629 -0.5978  0.0900
 6204TIP3    H118573   5.938   2.308   2.469  1.9277 -0.6191 -0.4045
 6204TIP3    H218574   5.885   2.181   2.531 -0.8047  0.6957  0.0015
 6205TIP3   OH218575   0.285   0.178   3.360  0.6112  0.4323 -0.3457
 6205TIP3    H118576   0.276   0.254   3.418  0.3259  0.2865 -0.1989
 6205TIP3    H218577   0.226   0.197   3.287  1.1735  0.7416 -0.7232
 6206TIP3   OH218578   6.066   2.692   4.291 -0.2937  0.1786 -0.0376
 6206TIP3    H118579   6.078   2.630   4.219  0.2533  0.1882  0.0429
 6206TIP3    H218580   6.039   2.639   4.365  0.7964 -0.0521  0.2045
 6207TIP3   OH218581   7.246   2.290   3.822 -0.3656  0.0211  0.0310
 6207TIP3    H118582   7.169   2.305   3.768 -0.1754  0.3301 -0.1578
 6207TIP3    H218583   7.226   2.335   3.905 -1.3695 -1.9098  0.8524
 6208TIP3   OH218584   7.307   1.452   3.758  0.0529  0.1486 -0.1526
 6208TIP3    H118585   7.354   1.387   3.706 -1.9047  1.2212 -3.3416
 6208TIP3    H218586   7.226   1.408   3.783 -0.0795  0.4787 -0.0087
 6209TIP3   OH218587   6.413   2.675   3.264 -0.4287  0.2179 -0.0977
 6209TIP3    H118588   6.381   2.599   3.312 -0.5692 -0.5048 -1.3156
 6209TIP3    H218589   6.343   2.696   3.202  1.3443 -1.3304 -2.7331
 6210TIP3   OH218590   1.532   5.790   1.457 -0.1461  0.0652 -0.2418
 6210TIP3    H118591   1.448   5.833   1.472  0.5336  0.7354  1.8294
 6210TIP3    H218592   1.595   5.862   1.454  0.4924 -0.5111 -0.7318
 6211TIP3   OH218593   0.040   3.693   5.150 -0.0246 -0.2076 -0.4002
 6211TIP3    H118594   0.007   3.617   5.101 -0.0755 -0.3038 -0.2172
 6211TIP3    H218595   0.131   3.670   5.169 -0.3348 -0.6775  0.5536
 6212TIP3   OH218596   7.230   3.131   4.484  0.0335 -0.3184  0.0172
 6212TIP3    H118597   7.197   3.101   4.569  1.1336 -0.4430  0.4185
 6212TIP3    H218598   7.166   3.100   4.421 -1.3667  0.6886  0.9001
 6213TIP3   OH218599   7.595   2.939   6.279  0.3200 -0.2640 -0.1711
 6213TIP3    H118600   7.628   2.849   6.274  0.0611 -0.6170  3.1337
 6213TIP3    H218601   7.514   2.938   6.229  0.2299 -1.9290 -0.0268
 6214TIP3   OH218602   0.969   3.858   4.818  0.5175 -0.3132 -0.4109
 6214TIP3    H118603   0.890   3.837   4.768  1.3117 -3.1739 -0.5532
 6214TIP3    H218604   0.942   3.853   4.910 -0.2075  1.9256 -0.4729
 6215TIP3   OH218605   7.591   4.569   5.307 -0.3253  0.0224  0.1099
 6215TIP3    H118606   7.678   4.610   5.311 -0.5517  0.6313 -1.0287
 6215TIP3    H218607   7.605   4.479   5.336  0.4240  0.5138  1.3322
 6216TIP3   OH218608   1.480   2.429   2.833 -0.2015  0.6974  0.3742
 6216TIP3    H118609   1.516   2.369   2.768 -2.3519  0.5675 -0.7702
 6216TIP3    H218610   1.507   2.516   2.802 -0.7102  0.5931 -0.4040
 6217TIP3   OH218611   5.226   1.062   3.174  0.0800  0.5924 -0.7395
 6217TIP3    H118612   5.197   1.059   3.265  0.0675  0.5430 -0.7450
 6217TIP3    H218613   5.147   1.047   3.123  0.2726 -0.4901 -0.7341
 6218TIP3   OH218614   0.465   4.270   5.091 -0.5936 -0.6357 -0.1170
 6218TIP3    H118615   0.530   4.314   5.036 -0.3564  0.5779  1.0842
 6218TIP3    H218616   0.393   4.249   5.032 -1.0191  2.0133 -0.6104
 6219TIP3   OH218617   7.054   0.586   3.377 -0.3271 -0.6166  0.1794
 6219TIP3    H118618   7.038   0.515   3.439  1.6204 -1.4806 -0.3044
 6219TIP3    H218619   6.976   0.586   3.321 -1.2669 -1.0162  1.4594
 6220TIP3   OH218620   6.246   4.576   4.924 -0.1529 -0.1547  0.2998
 6220TIP3    H118621   6.337   4.593   4.948  0.5051 -1.5999 -1.0504
 6220TIP3    H218622   6.213   4.519   4.994  0.2164 -0.2248  0.4201
 6221TIP3   OH218623   0.537   4.649   5.619 -0.3014  0.0073  0.4606
 6221TIP3    H118624   0.533   4.741   5.641 -1.1369  0.4409 -1.3760
 6221TIP3    H218625   0.451   4.614   5.642  0.0340 -0.3362  1.2144
 6222TIP3   OH218626   6.332   3.805   4.923  0.1625  0.3397 -0.4611
 6222TIP3    H118627   6.305   3.879   4.977  1.5303  0.6669 -0.2106
 6222TIP3    H218628   6.411   3.836   4.878  1.4191 -1.3560  0.5361
 6223TIP3   OH218629   7.152   1.049   2.062 -0.3015  0.3115  0.1282
 6223TIP3    H118630   7.248   1.050   2.066 -0.0601 -0.6119 -3.4359
 6223TIP3    H218631   7.128   1.142   2.058  0.4083  0.5595  1.4312
 6224TIP3   OH218632   2.146   6.874   0.181  0.1851  0.4707 -0.2969
 6224TIP3    H118633   2.132   6.869   0.276 -0.2495  0.2588 -0.3711
 6224TIP3    H218634   2.082   6.939   0.152  1.2417  1.5558 -0.2588
 6225TIP3   OH218635   1.100   3.888   0.264 -0.3606  0.2948  0.0734
 6225TIP3    H118636   1.075   3.979   0.279 -0.4462 -0.1453  2.8871
 6225TIP3    H218637   1.162   3.892   0.191  0.0988  2.6709  0.5468
 6226TIP3   OH218638   5.885   2.549   5.164 -0.3390 -0.4724  0.4442
 6226TIP3    H118639   5.857   2.619   5.105  2.2677  1.4671  1.4212
 6226TIP3    H218640   5.854   2.578   5.250  0.4140 -0.7033  0.7919
 6227TIP3   OH218641   4.970   2.651   1.863 -0.1094  0.1220  0.0443
 6227TIP3    H118642   5.056   2.680   1.835  0.4263 -2.8531 -1.5361
 6227TIP3    H218643   4.909   2.716   1.826  1.4009  2.1981  1.1331
 6228TIP3   OH218644   7.149   2.219   4.856  0.3549  0.4832 -0.0151
 6228TIP3    H118645   7.230   2.202   4.904  1.4691  0.9062 -1.6787
 6228TIP3    H218646   7.140   2.314   4.858 -0.7537  0.3513  1.2029
 6229TIP3   OH218647   5.304   2.472   3.775 -0.3906 -0.3608  0.3265
 6229TIP3    H118648   5.360   2.471   3.697  0.4517  1.4242  0.8727
 6229TIP3    H218649   5.352   2.422   3.840  1.7914  3.1708  1.5541
 6230TIP3   OH218650   7.170   1.834   5.971  0.6838 -0.0264 -0.0588
 6230TIP3    H118651   7.224   1.908   5.943  0.7800  0.2886  0.9359
 6230TIP3    H218652   7.233   1.765   5.992  0.6283 -0.1453 -0.2781
 6231TIP3   OH218653   5.369   3.790   5.126 -0.4691  0.3741  0.3579
 6231TIP3    H118654   5.337   3.767   5.038 -1.0666  2.0026  0.1316
 6231TIP3    H218655   5.388   3.706   5.167 -0.7661 -0.4375 -1.1220
 6232TIP3   OH218656   5.106   1.509   5.389  0.0695 -0.3913 -0.0375
 6232TIP3    H118657   5.190   1.467   5.408  0.7481  0.6256 -0.7453
 6232TIP3    H218658   5.080   1.548   5.472 -0.1474 -1.4666  0.4095
 6233TIP3   OH218659   6.555   2.797   4.229  0.3030  0.1905  0.4032
 6233TIP3    H118660   6.507   2.740   4.170  0.2023  0.6560  0.0308
 6233TIP3    H218661   6.516   2.782   4.315 -0.6998  0.7649  0.0591
 6234TIP3   OH218662   4.151   2.281   3.280 -0.1182  0.1912 -0.3769
 6234TIP3    H118663   4.157   2.361   3.228  0.4829 -0.2696 -1.0343
 6234TIP3    H218664   4.225   2.227   3.250 -0.3019 -0.4559  0.3131
 6235TIP3   OH218665   0.227   4.547   5.939 -0.6890  0.4556  0.3322
 6235TIP3    H118666   0.297   4.565   6.002 -0.6995  0.7439  0.2586
 6235TIP3    H218667   0.173   4.480   5.982 -1.0681  1.1275  0.8989
 6236TIP3   OH218668   5.922   2.991   1.211 -0.7849 -0.7934 -0.5829
 6236TIP3    H118669   5.874   3.006   1.293 -0.1967  0.6746 -0.4788
 6236TIP3    H218670   6.012   3.017   1.232 -0.6439 -0.3531 -1.7063
 6237TIP3   OH218671   4.949   2.617   4.626 -0.2362 -0.2796  0.3746
 6237TIP3    H118672   4.898   2.537   4.642  0.9411 -1.1813 -0.2436
 6237TIP3    H218673   4.922   2.646   4.539 -0.0342 -0.5199  0.2273
 6238TIP3   OH218674   6.541   2.283   2.134  0.1919  0.0394 -0.1050
 6238TIP3    H118675   6.507   2.290   2.045 -0.4793 -0.9323  0.0690
 6238TIP3    H218676   6.591   2.202   2.135 -1.1949 -0.8294  0.8422
 6239TIP3   OH218677   6.656   3.605   3.293 -0.5299  0.1400 -0.1665
 6239TIP3    H118678   6.641   3.647   3.208 -0.5323  1.3411  0.4136
 6239TIP3    H218679   6.647   3.511   3.275  1.5559  0.2044 -1.9354
 6240TIP3   OH218680   5.541   2.175   4.269  0.1751  0.3501 -0.0625
 6240TIP3    H118681   5.591   2.131   4.201  0.3232  1.2387 -0.5290
 6240TIP3    H218682   5.543   2.268   4.245 -1.1631  0.4725  0.2555
 6241TIP3   OH218683   0.078   4.101   4.997 -0.0322  0.5000 -0.4337
 6241TIP3    H118684   0.153   4.149   4.960  1.0233  0.4450  1.5368
 6241TIP3    H218685   0.002   4.151   4.970  0.8965  1.9643 -0.4021
 6242TIP3   OH218686   5.786   3.211   5.743  0.3900 -0.2129  0.5694
 6242TIP3    H118687   5.882   3.212   5.741  0.4055  0.9426 -3.0779
 6242TIP3    H218688   5.761   3.188   5.654 -2.7831 -2.7029  2.0144
 6243TIP3   OH218689   6.589   3.314   4.216  0.7725 -0.0226  0.1175
 6243TIP3    H118690   6.565   3.225   4.241 -1.3682 -0.4170 -2.9750
 6243TIP3    H218691   6.655   3.303   4.147 -0.7356  0.6726 -1.4894
 6244TIP3   OH218692   6.832   2.345   4.729 -0.2566  0.6661  0.4055
 6244TIP3    H118693   6.855   2.263   4.687 -0.0265  0.3345  1.1708
 6244TIP3    H218694   6.907   2.403   4.713 -0.0249  0.4324  0.6459
 6245TIP3   OH218695   0.245   2.550   5.701  0.0177  0.4686 -0.4000
 6245TIP3    H118696   0.301   2.623   5.727  1.9481 -1.4909  1.1424
 6245TIP3    H218697   0.194   2.530   5.780 -1.9159  1.3378 -1.3871
 6246TIP3   OH218698   4.669   4.339   5.265 -0.1139 -0.5701 -0.1964
 6246TIP3    H118699   4.661   4.407   5.198 -2.1967  0.2541  0.8636
 6246TIP3    H218700   4.583   4.297   5.268  0.3847 -1.5618  0.9606
 6247TIP3   OH218701   7.400   1.154   5.413 -0.3350 -0.2214 -0.4812
 6247TIP3    H118702   7.353   1.223   5.365 -1.6902 -1.3572 -0.8227
 6247TIP3    H218703   7.331   1.105   5.457  0.6954 -0.8337  0.4560
 6248TIP3   OH218704   7.209   1.808   6.352  0.8271  0.1168 -0.0824
 6248TIP3    H118705   7.145   1.866   6.311  2.0568  1.5910  0.0453
 6248TIP3    H218706   7.239   1.856   6.429  2.1270 -0.5222 -0.1740
 6249TIP3   OH218707   2.993   6.971   1.401 -0.4315  0.1352 -0.0395
 6249TIP3    H118708   3.079   6.980   1.443 -1.0193 -0.1372  1.2347
 6249TIP3    H218709   2.966   7.061   1.382 -0.6153  0.3219  1.0942
 6250TIP3   OH218710   6.981   2.394   4.208  0.3951  1.2327  0.7074
 6250TIP3    H118711   6.899   2.429   4.242  0.0955  0.8506  0.3923
 6250TIP3    H218712   7.018   2.344   4.281  0.4980  1.6580  0.9469
 6251TIP3   OH218713   5.650   2.443   2.655 -0.6865 -0.4519 -0.2713
 6251TIP3    H118714   5.724   2.462   2.597 -0.9459 -1.9689 -1.1319
 6251TIP3    H218715   5.688   2.389   2.725 -0.9193 -0.9864 -0.5561
 6252TIP3   OH218716   5.175   3.422   5.830 -0.1417  0.0833 -0.1164
 6252TIP3    H118717   5.115   3.411   5.756  0.2222 -0.4458 -0.3406
 6252TIP3    H218718   5.199   3.332   5.854 -1.5058  0.1533  1.6877
 6253TIP3   OH218719   7.565   1.616   2.590  0.1723 -0.3759  0.3475
 6253TIP3    H118720   7.497   1.574   2.538 -0.2368 -1.2786  1.5796
 6253TIP3    H218721   7.586   1.697   2.543 -0.3460 -1.0587 -1.0744
 6254TIP3   OH218722   0.186   3.667   4.912  0.0086 -0.0624 -0.3373
 6254TIP3    H118723   0.153   3.663   4.822 -0.9518 -1.7480  0.0841
 6254TIP3    H218724   0.121   3.717   4.960  1.1259  1.9176 -0.8111
 6255TIP3   OH218725   0.040   3.683   4.108 -0.2413 -0.4997  0.1175
 6255TIP3    H118726   0.078   3.746   4.047 -3.6567  0.1176 -1.4938
 6255TIP3    H218727  -0.044   3.722   4.133 -0.9549 -2.9149  1.6445
 6256TIP3   OH218728   0.342   2.205   5.481 -0.2561  0.1024  0.2043
 6256TIP3    H118729   0.352   2.131   5.421  0.1645 -0.1848  0.6239
 6256TIP3    H218730   0.428   2.213   5.523  0.0176  1.4702 -0.5692
 6257TIP3   OH218731   5.474   2.228   2.725 -0.2924  0.3321 -0.1750
 6257TIP3    H118732   5.503   2.313   2.692  0.3070  0.4028  0.5180
 6257TIP3    H218733   5.392   2.211   2.680 -1.1856  1.9653  0.8035
 6258TIP3   OH218734   7.166   5.060   3.952 -0.8575  0.2409  0.1484
 6258TIP3    H118735   7.105   5.007   4.004 -1.7887  0.5978 -0.5567
 6258TIP3    H218736   7.212   4.996   3.898  0.2681 -0.1551  1.5350
 6259TIP3   OH218737   1.031   3.949   4.407  0.1323 -0.0672  0.0573
 6259TIP3    H118738   0.995   3.878   4.458 -1.1546  0.3708 -0.2180
 6259TIP3    H218739   1.070   4.009   4.471 -0.3899 -0.1236  0.4229
 6260TIP3   OH218740   6.678   2.931   3.981  0.1619  0.1037 -0.4905
 6260TIP3    H118741   6.608   2.937   4.046  0.0978 -1.1151 -0.4480
 6260TIP3    H218742   6.726   2.852   4.003  1.5137  0.8809 -0.5818
 6261TIP3   OH218743   6.770   4.526   2.544  0.0200 -0.4387  0.2575
 6261TIP3    H118744   6.739   4.445   2.582 -2.0921  1.0173  1.7514
 6261TIP3    H218745   6.810   4.574   2.616  0.8195  0.0560 -0.4956
 6262TIP3   OH218746   4.080   7.162   3.334 -0.5379 -0.2630  0.1216
 6262TIP3    H118747   4.097   7.138   3.243  2.2713  1.3847  0.1514
 6262TIP3    H218748   4.055   7.254   3.330 -0.4044 -0.1824  1.0145
 6263TIP3   OH218749   2.094   1.428   3.776  0.3335  0.1009 -0.1390
 6263TIP3    H118750   2.078   1.522   3.770  1.4149  0.2075 -1.5174
 6263TIP3    H218751   2.017   1.393   3.822 -0.6278  1.4853 -0.6928
 6264TIP3   OH218752   5.454   5.612   4.653 -0.3588 -0.2168  0.0049
 6264TIP3    H118753   5.394   5.549   4.693  0.1782 -0.3702  0.5898
 6264TIP3    H218754   5.525   5.558   4.618  0.2001  0.0642  0.6805
 6265TIP3   OH218755   1.257   1.039   4.382  0.8685  0.1992  0.1042
 6265TIP3    H118756   1.320   0.993   4.325  0.6767 -0.6611  0.5778
 6265TIP3    H218757   1.305   1.116   4.412  1.1728  0.3557 -0.7588
 6266TIP3   OH218758   0.509   1.495   3.149  0.1249  0.0179  0.4479
 6266TIP3    H118759   0.549   1.573   3.111  0.2296 -0.7473 -1.0345
 6266TIP3    H218760   0.429   1.528   3.191  0.3657  0.9737  0.1844
 6267TIP3   OH218761   0.155   1.963   4.469  0.1956 -0.4298  0.4613
 6267TIP3    H118762   0.150   1.910   4.389 -0.2822 -0.2050  0.3385
 6267TIP3    H218763   0.067   2.000   4.478  0.2441 -0.4782  1.1081
 6268TIP3   OH218764   6.233   5.630   4.143 -0.0179  0.3981  0.2293
 6268TIP3    H118765   6.140   5.650   4.153  0.0845  1.7467 -1.3169
 6268TIP3    H218766   6.237   5.579   4.062  0.5769  0.2866  0.3300
 6269TIP3   OH218767   7.762   3.326   4.186  0.0214 -0.2905 -0.8560
 6269TIP3    H118768   7.853   3.304   4.203 -0.1770 -0.1070  0.4746
 6269TIP3    H218769   7.761   3.421   4.176 -0.2711 -0.1063  0.7934
 6270TIP3   OH218770   6.533   1.154   6.192  0.1273  0.0582  0.3830
 6270TIP3    H118771   6.522   1.095   6.118  1.3961 -0.0239  0.2441
 6270TIP3    H218772   6.525   1.242   6.154  1.2806  0.0257  0.0527
 6271TIP3   OH218773   6.665   2.518   3.260  0.1910 -0.0894  0.1086
 6271TIP3    H118774   6.605   2.508   3.186  0.4733  0.7340 -0.2372
 6271TIP3    H218775   6.619   2.576   3.320  0.1373 -0.4310  0.4030
 6272TIP3   OH218776   0.828   2.299   2.308 -0.1358  0.4511 -0.1094
 6272TIP3    H118777   0.884   2.229   2.275 -1.8135 -1.0559  0.1841
 6272TIP3    H218778   0.834   2.293   2.403  0.6800  1.5183 -0.0789
 6273TIP3   OH218779   7.693   2.698   3.684 -0.9672 -0.2590  0.2069
 6273TIP3    H118780   7.621   2.743   3.729 -0.5809 -0.4797  1.0462
 6273TIP3    H218781   7.770   2.750   3.705 -0.9228  0.1773 -0.9829
 6274TIP3   OH218782   6.799   2.274   3.225 -0.2385  1.4150  0.5704
 6274TIP3    H118783   6.861   2.257   3.155  0.2779 -1.0662  1.5922
 6274TIP3    H218784   6.791   2.370   3.228  0.2619  1.5750 -2.3651
 6275TIP3   OH218785   7.049   2.574   3.944  0.4734 -0.5818  0.1789
 6275TIP3    H118786   7.052   2.530   3.859  0.0874  0.0025 -0.1442
 6275TIP3    H218787   7.048   2.503   4.008  1.3198 -1.0188 -0.2845
 6276TIP3   OH218788   5.701   0.377   4.882 -0.3557  0.8053  0.2598
 6276TIP3    H118789   5.740   0.294   4.911 -1.4631  0.4047  0.6167
 6276TIP3    H218790   5.754   0.444   4.925  0.2110  0.2712  0.4028
 6277TIP3   OH218791   0.777   1.750   1.311 -0.1721 -0.6470  0.5161
 6277TIP3    H118792   0.769   1.845   1.299 -1.1773 -0.8872 -0.8167
 6277TIP3    H218793   0.697   1.725   1.357  0.0283 -0.8672  0.7445
 6278TIP3   OH218794   6.808   1.442   3.785  0.4217  0.4250 -0.9061
 6278TIP3    H118795   6.807   1.536   3.802  0.9184  0.2874 -0.0733
 6278TIP3    H218796   6.741   1.406   3.843 -0.6229  0.4044 -2.1178
 6279TIP3   OH218797   4.768   3.514   4.227 -0.1528  0.4918  0.2859
 6279TIP3    H118798   4.808   3.446   4.174 -0.7148  0.4985 -0.1500
 6279TIP3    H218799   4.840   3.572   4.250  0.3069 -0.1820  0.5581
 6280TIP3   OH218800   0.523   5.932   0.241 -0.1486 -0.0817  0.9402
 6280TIP3    H118801   0.526   6.016   0.286 -0.0056 -0.6067  1.9134
 6280TIP3    H218802   0.534   5.955   0.148  1.8479  0.7969  1.3726
 6281TIP3   OH218803   4.032   1.984   3.442 -0.4343 -0.0829 -0.2680
 6281TIP3    H118804   3.987   1.931   3.375  0.3187  0.0286 -0.8595
 6281TIP3    H218805   4.000   2.073   3.427 -1.3313 -0.2779  0.4180
 6282TIP3   OH218806   7.234   2.876   5.347 -0.1186 -0.0139 -0.4833
 6282TIP3    H118807   7.283   2.929   5.409 -0.2276  2.0129 -2.0772
 6282TIP3    H218808   7.153   2.853   5.394 -0.1016  1.3049  0.2154
 6283TIP3   OH218809   5.758   4.854   1.595  0.6554  0.3291 -0.0762
 6283TIP3    H118810   5.710   4.827   1.674  1.0770  0.8276  0.3455
 6283TIP3    H218811   5.827   4.911   1.627  1.8482 -0.7829 -0.6409
 6284TIP3   OH218812   7.080   3.434   4.116 -0.3870 -0.3155 -0.0701
 6284TIP3    H118813   7.044   3.374   4.050  1.0407  0.3589 -1.4926
 6284TIP3    H218814   7.025   3.512   4.110 -0.2612 -0.2544 -0.4797
 6285TIP3   OH218815   7.328   2.341   4.555  0.0627  0.2945 -0.4508
 6285TIP3    H118816   7.423   2.352   4.566 -0.1640  1.0314  0.7960
 6285TIP3    H218817   7.312   2.249   4.576  0.4960  0.1622 -0.6834
 6286TIP3   OH218818   0.558   5.468   5.825 -0.0358  0.4391  0.0750
 6286TIP3    H118819   0.583   5.386   5.781 -0.2907 -0.1723  1.0548
 6286TIP3    H218820   0.548   5.443   5.917 -0.5221  1.4921  0.3068
 6287TIP3   OH218821   5.886   3.223   4.471  0.0620  0.4323 -0.1015
 6287TIP3    H118822   5.842   3.279   4.407 -0.2828 -2.5043 -2.5764
 6287TIP3    H218823   5.817   3.165   4.503  0.8517 -0.0957  0.6702
 6288TIP3   OH218824   6.206   5.473   3.928  0.2964 -0.6008  0.1294
 6288TIP3    H118825   6.153   5.491   3.851  3.2450  1.5781 -1.4586
 6288TIP3    H218826   6.173   5.389   3.961 -3.4955  0.2675 -1.2583
 6289TIP3   OH218827   2.055   4.176   5.270  0.3665 -0.2132  0.6386
 6289TIP3    H118828   2.148   4.196   5.261  0.5508 -0.1537  2.6085
 6289TIP3    H218829   2.011   4.241   5.215  1.5236 -0.8673 -1.1019
 6290TIP3   OH218830   1.018   3.527   4.632  0.3836  0.3057  0.3334
 6290TIP3    H118831   1.036   3.436   4.609  1.3945  1.0339 -1.9011
 6290TIP3    H218832   0.936   3.523   4.682  1.1807 -1.9563  1.5109
 6291TIP3   OH218833   5.542   3.180   2.930  0.0610 -0.4724  0.2302
 6291TIP3    H118834   5.573   3.108   2.876 -0.7502  0.0209 -0.9279
 6291TIP3    H218835   5.610   3.247   2.923  0.4743 -0.8375  0.7223
 6292TIP3   OH218836   6.621   2.543   4.740 -0.2197  0.7720  0.3134
 6292TIP3    H118837   6.660   2.610   4.684 -3.1832  1.3415 -1.1902
 6292TIP3    H218838   6.665   2.462   4.717 -0.8100  1.1595 -2.2890
 6293TIP3   OH218839   0.780   4.939   2.044  0.1666 -0.0890 -0.2420
 6293TIP3    H118840   0.752   5.012   1.989  0.7534 -1.4247 -2.3899
 6293TIP3    H218841   0.708   4.876   2.039  1.2296 -1.2440 -1.4683
 6294TIP3   OH218842   2.511   6.289   0.253 -0.3539  0.5279  0.1443
 6294TIP3    H118843   2.518   6.354   0.323  2.4272  0.9326 -0.4368
 6294TIP3    H218844   2.508   6.205   0.298  0.1372  0.8500  0.7826
 6295TIP3   OH218845   5.523   1.426   5.051 -0.2104 -0.2410  0.3128
 6295TIP3    H118846   5.535   1.515   5.018 -0.0757  0.0256  1.0807
 6295TIP3    H218847   5.428   1.419   5.066  0.0088  0.4144  2.0535
 6296TIP3   OH218848   6.367   1.298   4.016  0.5615 -0.4480  0.2497
 6296TIP3    H118849   6.305   1.255   3.957  2.4850 -1.4733 -1.1115
 6296TIP3    H218850   6.315   1.322   4.092 -1.5670 -0.9522 -0.9927
 6297TIP3   OH218851   1.736   1.104   2.772  0.4335  0.1520  0.4307
 6297TIP3    H118852   1.762   1.187   2.733  1.1658 -0.3772 -0.2052
 6297TIP3    H218853   1.716   1.047   2.698  0.6056 -0.4621  0.8440
 6298TIP3   OH218854   5.471   1.027   3.319  0.0969 -0.2578  0.2941
 6298TIP3    H118855   5.561   0.996   3.309 -0.5586 -2.0785 -0.0616
 6298TIP3    H218856   5.437   1.032   3.230  0.1460  1.3669  0.3592
 6299TIP3   OH218857   0.162   1.987   3.494 -0.1062  0.1595 -0.6927
 6299TIP3    H118858   0.179   2.080   3.481 -2.1995  0.5794 -0.5531
 6299TIP3    H218859   0.080   1.984   3.543  1.0811 -1.7117  1.2642
 6300TIP3   OH218860   7.632   2.563   4.312  0.2696  0.2462 -0.0708
 6300TIP3    H118861   7.696   2.633   4.306  0.3110  0.3581  1.4580
 6300TIP3    H218862   7.677   2.493   4.359 -0.5518  0.1175  0.5365
 6301TIP3   OH218863   6.340   1.244   2.817 -0.2004  0.5623  0.3385
 6301TIP3    H118864   6.347   1.226   2.723  2.0831  1.6664  0.2639
 6301TIP3    H218865   6.307   1.162   2.854 -0.9039  0.0364 -1.3979
 6302TIP3   OH218866   5.983   2.987   2.659 -0.2958 -0.0950  0.3806
 6302TIP3    H118867   6.057   2.927   2.658  0.5537  0.9376 -0.5197
 6302TIP3    H218868   6.021   3.070   2.688 -0.5533  1.0946 -2.4820
 6303TIP3   OH218869   5.504   3.365   3.345  0.0599 -0.0592 -0.5584
 6303TIP3    H118870   5.438   3.348   3.277  0.1405 -0.1043 -0.6256
 6303TIP3    H218871   5.494   3.457   3.366 -0.0987 -0.0923 -0.4911
 6304TIP3   OH218872   6.451   4.338   3.615 -0.3028 -0.3870  0.4277
 6304TIP3    H118873   6.520   4.324   3.550  0.7515  1.0722  1.1906
 6304TIP3    H218874   6.370   4.324   3.567  0.4823 -0.2866 -0.9672
 6305TIP3   OH218875   1.755   2.400   3.408  0.1936 -0.2709  0.0169
 6305TIP3    H118876   1.787   2.388   3.498 -0.3204 -0.2382  0.2056
 6305TIP3    H218877   1.675   2.451   3.417  0.4661  0.2642 -0.5154
 6306TIP3   OH218878   7.461   4.482   3.410 -0.7518 -0.5018 -0.0707
 6306TIP3    H118879   7.537   4.513   3.360  0.4202 -0.7162  1.5514
 6306TIP3    H218880   7.488   4.398   3.447 -1.5793 -0.3307  0.9665
 6307TIP3   OH218881   6.168   1.617   5.150  0.2428  0.0583  0.0162
 6307TIP3    H118882   6.227   1.650   5.217  0.2857  1.0015 -0.4703
 6307TIP3    H218883   6.141   1.695   5.101  0.3057 -0.6228 -1.1380
 6308TIP3   OH218884   7.214   1.512   6.163 -0.2348  0.3006  0.0060
 6308TIP3    H118885   7.135   1.474   6.123 -0.9189  0.1812  1.4480
 6308TIP3    H218886   7.285   1.486   6.104 -0.7444 -2.8407  0.6592
 6309TIP3   OH218887   4.661   3.588   0.855 -0.1340 -0.5590 -0.2235
 6309TIP3    H118888   4.713   3.508   0.862 -0.2932 -0.7807 -1.3618
 6309TIP3    H218889   4.589   3.564   0.797 -2.3278 -0.6782  2.4667
 6310TIP3   OH218890   0.650   1.777   5.970  0.2525 -0.0037  0.2546
 6310TIP3    H118891   0.660   1.866   5.937  2.3120 -0.2302  0.1967
 6310TIP3    H218892   0.570   1.779   6.021 -0.7473  1.3977 -1.3302
 6311TIP3   OH218893   7.640   3.691   3.886 -0.2923  0.3041 -0.6356
 6311TIP3    H118894   7.730   3.668   3.908 -0.4475 -2.1240 -2.3887
 6311TIP3    H218895   7.589   3.672   3.965  0.5849  0.9929  0.1102
 6312TIP3   OH218896   0.849   3.367   4.992 -0.5085  0.4302 -0.1005
 6312TIP3    H118897   0.935   3.352   5.031  0.1939  3.6446 -0.3148
 6312TIP3    H218898   0.792   3.387   5.067 -0.3158  1.5093 -0.2332
 6313TIP3   OH218899   6.387   4.141   2.070  0.4597  0.8390  0.6330
 6313TIP3    H118900   6.319   4.074   2.071  1.6992 -0.4634 -0.8655
 6313TIP3    H218901   6.343   4.220   2.037 -0.8549  0.6242  1.8354
 6314TIP3   OH218902   0.212   2.813   0.697 -0.2762 -0.5443  0.2233
 6314TIP3    H118903   0.209   2.884   0.761  0.8828 -0.8703  0.6500
 6314TIP3    H218904   0.242   2.854   0.616  1.9076 -0.8198  0.8695
 6315TIP3   OH218905   7.609   2.897   3.893 -0.4242  0.7083  0.1045
 6315TIP3    H118906   7.522   2.912   3.932 -0.6334  0.5379 -0.2879
 6315TIP3    H218907   7.627   2.978   3.844  0.5924  1.6153  1.9283
 6316TIP3   OH218908   6.937   3.758   0.887  0.1895  0.8781  0.5436
 6316TIP3    H118909   6.858   3.767   0.940 -0.2266  0.2413  0.0284
 6316TIP3    H218910   6.998   3.710   0.943  0.1489  1.2050  0.8702
 6317TIP3   OH218911   0.279   4.300   4.611  0.5479  0.0631  0.1338
 6317TIP3    H118912   0.251   4.343   4.530 -0.7130 -0.4777  0.2742
 6317TIP3    H218913   0.370   4.328   4.622  0.4921  0.7707 -1.0488
 6318TIP3   OH218914   6.205   3.360   4.324  0.1950 -0.3040  0.3971
 6318TIP3    H118915   6.171   3.329   4.408 -0.9496  1.1297  0.4878
 6318TIP3    H218916   6.258   3.436   4.347 -1.4036  1.0692 -0.2797
 6319TIP3   OH218917   6.667   1.399   4.905 -0.0795 -0.2150  0.0450
 6319TIP3    H118918   6.653   1.305   4.904 -2.2626  0.0685  0.7454
 6319TIP3    H218919   6.662   1.423   4.998  2.2398  0.3653  0.0442
 6320TIP3   OH218920   5.899   4.191   1.320 -0.0011  0.1967 -0.5862
 6320TIP3    H118921   5.862   4.266   1.365 -0.9830 -1.0630  0.7451
 6320TIP3    H218922   5.971   4.227   1.268 -0.2593  1.9868  0.2794
 6321TIP3   OH218923   6.015   0.402   0.213 -0.1779  0.1271  0.2139
 6321TIP3    H118924   6.047   0.400   0.303  2.7774  0.0789 -0.8146
 6321TIP3    H218925   5.990   0.493   0.199 -1.3852 -0.0077  1.2786
 6322TIP3   OH218926   5.947   3.712   1.392 -0.4678  0.3936  0.1238
 6322TIP3    H118927   6.003   3.698   1.315  0.2301 -0.2452  0.7370
 6322TIP3    H218928   6.008   3.723   1.465 -1.1185  1.3859  0.5315
 6323TIP3   OH218929   7.703   2.490   4.062 -0.1922 -0.3172  0.6428
 6323TIP3    H118930   7.706   2.404   4.104 -3.2746 -0.0887  1.4594
 6323TIP3    H218931   7.656   2.545   4.125  2.6122  2.2757  0.5924
 6324TIP3   OH218932   6.954   3.652   5.234 -0.3650  0.3167  0.4512
 6324TIP3    H118933   6.867   3.613   5.240 -0.2857  0.3091  1.6869
 6324TIP3    H218934   6.938   3.746   5.238 -0.3270  0.3180  0.5800
 6325TIP3   OH218935   7.348   1.064   3.664  0.1510 -0.5728  0.0441
 6325TIP3    H118936   7.442   1.071   3.683 -0.0918  0.4002  0.8622
 6325TIP3    H218937   7.341   1.091   3.572  0.4984  0.6540  0.3684
 6326TIP3   OH218938   7.773   3.384   4.493 -0.2296 -0.5030  0.1663
 6326TIP3    H118939   7.687   3.425   4.486 -0.5960 -1.4821 -1.4189
 6326TIP3    H218940   7.830   3.440   4.439 -0.2062 -0.7395 -0.0526
 6327TIP3   OH218941   2.206   3.255   4.368 -0.3652 -0.4667  0.6840
 6327TIP3    H118942   2.132   3.315   4.370  1.2642  1.6032  0.5297
 6327TIP3    H218943   2.233   3.248   4.460  0.0423 -0.1766  0.5904
 6328TIP3   OH218944   6.964   3.726   2.283  0.4324  0.6443 -0.3304
 6328TIP3    H118945   7.006   3.706   2.366  0.7313 -0.3806 -0.7210
 6328TIP3    H218946   6.874   3.749   2.306  0.2838 -0.4381  0.2152
 6329TIP3   OH218947   7.671   5.403   1.908 -0.0453 -0.5943  0.4249
 6329TIP3    H118948   7.685   5.326   1.854  1.6712  1.0199 -1.5432
 6329TIP3    H218949   7.740   5.400   1.974  0.7766 -0.1548 -0.3958
 6330TIP3   OH218950   4.041   2.395   3.040 -0.4415  0.2099 -0.6120
 6330TIP3    H118951   4.122   2.408   2.992  0.3986 -1.5080  0.2989
 6330TIP3    H218952   3.975   2.378   2.972 -0.0420  1.5789 -1.3453
 6331TIP3   OH218953   6.412   2.971   1.479 -0.0604 -0.2908  0.3410
 6331TIP3    H118954   6.353   2.997   1.551 -0.4384 -2.8506  1.0050
 6331TIP3    H218955   6.430   2.879   1.496 -0.5894 -1.0911 -3.1866
 6332TIP3   OH218956   0.838   2.660   1.786 -0.0021  0.0083 -0.4064
 6332TIP3    H118957   0.839   2.732   1.723  1.5826 -0.1262 -0.5512
 6332TIP3    H218958   0.908   2.682   1.848  0.4801 -1.4097 -0.4439
 6333TIP3   OH218959   0.530   1.934   2.097  0.6864 -0.1176  0.2107
 6333TIP3    H118960   0.447   1.973   2.125  0.3718  0.8029 -1.8717
 6333TIP3    H218961   0.506   1.876   2.025  1.9090  0.6724 -0.8679
 6334TIP3   OH218962   5.515   3.226   3.563 -0.5757  0.3459  0.4866
 6334TIP3    H118963   5.561   3.157   3.515 -0.5742  0.3310  0.5082
 6334TIP3    H218964   5.507   3.297   3.500 -3.3202 -0.8010 -0.5435
 6335TIP3   OH218965   0.655   1.667   6.316 -0.3078  0.5435 -0.2350
 6335TIP3    H118966   0.575   1.700   6.275 -0.4222 -0.9765 -1.2801
 6335TIP3    H218967   0.725   1.693   6.256 -0.0193  1.7289  0.5979
 6336TIP3   OH218968   1.302   3.119   4.171 -0.5264  0.0324  0.0288
 6336TIP3    H118969   1.330   3.071   4.249 -0.4833 -0.0774 -0.0526
 6336TIP3    H218970   1.381   3.165   4.141 -0.9970  1.5534  1.0997
 6337TIP3   OH218971   7.446   2.089   5.643 -0.3793 -0.4651 -0.8167
 6337TIP3    H118972   7.486   2.120   5.562  0.2783  0.4968 -0.1363
 6337TIP3    H218973   7.472   1.997   5.648  0.1914 -0.3359 -1.3201
 6338TIP3   OH218974   0.763   6.320   5.970 -0.2092 -0.1148 -0.1123
 6338TIP3    H118975   0.688   6.357   5.924 -1.0493 -0.5994  0.8501
 6338TIP3    H218976   0.757   6.357   6.059  0.3078 -0.6848  0.1637
 6339TIP3   OH218977   7.065   4.132   4.366 -0.3520 -0.1871 -0.3215
 6339TIP3    H118978   7.041   4.054   4.416 -0.5236 -0.9360 -1.5573
 6339TIP3    H218979   7.051   4.108   4.275  1.7629  0.5223 -0.8681
 6340TIP3   OH218980   7.674   3.192   2.841 -0.6570  0.2098 -0.5105
 6340TIP3    H118981   7.631   3.112   2.871  2.2314 -1.1372  0.2111
 6340TIP3    H218982   7.639   3.260   2.899 -0.0105 -1.2627  1.6719
 6341TIP3   OH218983   1.117   4.524   2.563  0.7804  0.0682 -0.0833
 6341TIP3    H118984   1.053   4.486   2.503 -0.1470  1.0342  0.2836
 6341TIP3    H218985   1.068   4.541   2.643  1.2826  1.5737 -0.0775
 6342TIP3   OH218986   6.664   3.358   2.177  0.3468 -0.0872  0.1350
 6342TIP3    H118987   6.613   3.399   2.106 -1.3018 -1.8407  0.2757
 6342TIP3    H218988   6.722   3.297   2.133 -0.5555 -1.0502  0.2615
 6343TIP3   OH218989   0.498   2.753   4.530  0.1540  0.5062  0.0534
 6343TIP3    H118990   0.527   2.668   4.563  1.1139  0.2975 -1.2802
 6343TIP3    H218991   0.578   2.804   4.520  0.0751  0.1379 -3.0610
 6344TIP3   OH218992   0.126   1.757   3.086  0.0300  0.3410  0.6142
 6344TIP3    H118993   0.203   1.722   3.131 -1.1692 -2.1071  0.8327
 6344TIP3    H218994   0.092   1.824   3.146  0.7952 -0.0269  1.4707
 6345TIP3   OH218995   1.411   2.114   4.701  0.5611 -0.7425  0.2330
 6345TIP3    H118996   1.467   2.080   4.632  0.3089  0.2448 -0.4579
 6345TIP3    H218997   1.336   2.153   4.656  1.7707  2.5086  0.8669
 6346TIP3   OH218998   6.422   3.718   2.926  0.5796  0.0030  0.1619
 6346TIP3    H118999   6.514   3.697   2.943  0.1216 -0.9408  1.6046
 6346TIP3    H219000   6.409   3.803   2.968  0.4756 -0.4634  1.0872
 6347TIP3   OH219001   6.943   3.425   3.237 -0.0559 -0.2024 -0.0047
 6347TIP3    H119002   7.038   3.433   3.241 -0.1509  1.0338 -0.0971
 6347TIP3    H219003   6.916   3.410   3.328 -0.0384  2.6546  0.4990
 6348TIP3   OH219004   1.454   3.538   5.307  0.0473 -0.0943  0.3903
 6348TIP3    H119005   1.399   3.467   5.342 -0.7912  1.1143  1.5986
 6348TIP3    H219006   1.454   3.604   5.377 -0.1813  1.6033 -1.1905
 6349TIP3   OH219007   0.504   3.364   3.137 -0.0945 -0.5376 -0.0953
 6349TIP3    H119008   0.490   3.416   3.057 -0.7563  1.1495  1.0899
 6349TIP3    H219009   0.454   3.283   3.121  0.2607 -0.4826 -1.6231
 6350TIP3   OH219010   7.266   3.501   1.343 -0.0674 -0.0207 -0.1835
 6350TIP3    H119011   7.181   3.545   1.351 -0.3316 -0.7823  1.4152
 6350TIP3    H219012   7.253   3.416   1.385  0.3193 -1.8384 -3.5725
 6351TIP3   OH219013   5.626   4.244   2.523 -0.7744 -0.4032  0.0080
 6351TIP3    H119014   5.697   4.273   2.580 -1.1669 -0.1296  0.3545
 6351TIP3    H219015   5.568   4.320   2.516  0.5470  0.4558 -2.7719
 6352TIP3   OH219016   7.186   4.781   2.854 -0.4950 -0.3015  0.7373
 6352TIP3    H119017   7.105   4.735   2.832 -2.4453  1.3386  3.9319
 6352TIP3    H219018   7.234   4.721   2.911  0.0378 -0.8591 -0.2939
 6353TIP3   OH219019   6.356   3.280   2.779  0.3769 -0.0203 -0.1870
 6353TIP3    H119020   6.373   3.289   2.685  1.1310  0.6481  0.0131
 6353TIP3    H219021   6.409   3.204   2.805 -1.1693 -1.2732 -0.6370
 6354TIP3   OH219022   0.425   3.883   3.980 -0.1690  0.1681 -0.0665
 6354TIP3    H119023   0.449   3.818   4.045 -1.3214 -1.0944 -0.8747
 6354TIP3    H219024   0.430   3.967   4.027  0.4095 -0.5819  1.2337
 6355TIP3   OH219025   2.256   2.601   5.627  0.1776  0.1703 -0.3467
 6355TIP3    H119026   2.190   2.537   5.600 -1.3437  1.3352  0.5546
 6355TIP3    H219027   2.287   2.639   5.545 -0.8143  0.1454 -0.7443
 6356TIP3   OH219028   2.135   7.298   2.118  0.1843 -0.0164  0.2208
 6356TIP3    H119029   2.155   7.206   2.103  0.2698  0.4017 -2.4533
 6356TIP3    H219030   2.051   7.298   2.163  0.9890 -1.4277  1.7960
 6357TIP3   OH219031   0.973   4.511   3.714  0.5281 -0.0803 -0.3208
 6357TIP3    H119032   0.953   4.604   3.715  2.5764  0.3815 -0.4113
 6357TIP3    H219033   1.035   4.500   3.641  2.0127 -1.1016  1.0505
 6358TIP3   OH219034   5.745   0.971   0.168  0.0261 -0.2290  0.2865
 6358TIP3    H119035   5.696   1.050   0.192  0.3644  0.1027 -0.1127
 6358TIP3    H219036   5.753   0.922   0.250  0.9317  0.7688  0.8158
 6359TIP3   OH219037   6.182   0.686   0.344 -0.0641 -0.0777  0.6014
 6359TIP3    H119038   6.156   0.767   0.386  1.2488  1.0130 -0.6388
 6359TIP3    H219039   6.220   0.713   0.260 -0.4422 -2.0221 -0.2472
 6360TIP3   OH219040   1.710   3.537   5.558  0.1318  0.0215  0.6487
 6360TIP3    H119041   1.645   3.485   5.511  0.0063  0.4626  0.3379
 6360TIP3    H219042   1.678   3.541   5.648 -0.4988  0.6204  0.3952
 6361TIP3   OH219043   1.685   4.075   4.915  0.0981 -0.3262 -0.1692
 6361TIP3    H119044   1.710   4.105   4.828  1.5258  4.6782  1.8073
 6361TIP3    H219045   1.768   4.057   4.959 -0.5306 -0.9828  0.7628
 6362TIP3   OH219046   6.317   0.530   0.982  0.2173  0.0589  0.0303
 6362TIP3    H119047   6.226   0.504   0.999  0.0975  0.3906 -0.1013
 6362TIP3    H219048   6.369   0.455   1.013 -0.0539  0.1931  0.8394
 6363TIP3   OH219049   7.567   3.504   2.895 -0.6372  0.1476  0.3211
 6363TIP3    H119050   7.541   3.595   2.911  2.3926  0.6148  3.0191
 6363TIP3    H219051   7.550   3.459   2.978  1.7184 -0.8021  0.3337
 6364TIP3   OH219052   0.125   2.994   6.184  0.1987  0.5472  0.1926
 6364TIP3    H119053   0.170   2.992   6.269  0.1844 -1.0422  0.1837
 6364TIP3    H219054   0.142   2.908   6.146 -1.1757  0.6523 -0.7026
 6365TIP3   OH219055   1.241   6.201   2.033  0.4474  0.0023  0.0650
 6365TIP3    H119056   1.237   6.264   2.105  0.9327 -1.4134  1.3749
 6365TIP3    H219057   1.153   6.162   2.031  0.6049 -0.3659  0.2759
 6366TIP3   OH219058   1.112   4.139   2.987 -0.4892  0.0822  0.4273
 6366TIP3    H119059   1.103   4.067   2.923 -0.8614 -0.9150  1.5852
 6366TIP3    H219060   1.075   4.104   3.068 -1.1387  1.7786  0.8729
 6367TIP3   OH219061   1.679   0.145   5.827  0.1987 -0.2576  0.2925
 6367TIP3    H119062   1.762   0.172   5.788  0.6653  0.4507  1.7388
 6367TIP3    H219063   1.646   0.077   5.768  0.8038  0.8805 -1.3942
 6368TIP3   OH219064   0.146   4.182   3.381  0.5643 -0.6016 -0.2000
 6368TIP3    H119065   0.148   4.123   3.305 -0.2779  0.8805 -1.3988
 6368TIP3    H219066   0.236   4.183   3.413  0.7819 -1.7962 -0.7409
 6369TIP3   OH219067   2.321   6.967   0.827  0.2092 -0.1137 -0.0501
 6369TIP3    H119068   2.388   6.924   0.880  0.7339 -0.1083 -0.6957
 6369TIP3    H219069   2.363   7.047   0.794 -0.2578  0.1156 -0.1062
 6370TIP3   OH219070   2.126   5.136   5.296 -0.1830  0.1416 -0.0136
 6370TIP3    H119071   2.101   5.044   5.306 -1.6661  0.5200 -0.0326
 6370TIP3    H219072   2.204   5.146   5.351  0.0713 -1.1537 -0.1176
 6371TIP3   OH219073   1.332   5.778   5.005  0.3853  0.0348  0.9717
 6371TIP3    H119074   1.390   5.850   4.981  1.5503 -1.0968  0.3391
 6371TIP3    H219075   1.363   5.749   5.091  0.7125 -0.5071  0.6765
 6372TIP3   OH219076   2.084   4.645   3.320  0.0829 -0.5779  0.1029
 6372TIP3    H119077   1.992   4.618   3.317  0.0010 -0.2905 -0.0409
 6372TIP3    H219078   2.131   4.572   3.281 -0.1289 -0.5502 -0.2090
 6373TIP3   OH219079   1.088   2.541   4.997  0.0053 -0.0331 -0.4970
 6373TIP3    H119080   1.100   2.607   5.065  0.6174  0.1660 -0.7907
 6373TIP3    H219081   1.164   2.553   4.939 -0.3744 -0.3686 -1.0675
 6374TIP3   OH219082   1.909   6.397   5.046  0.1844  0.3046  0.0671
 6374TIP3    H119083   1.869   6.360   5.125 -1.1597  1.7642  0.0830
 6374TIP3    H219084   1.877   6.487   5.042 -0.0227  0.1616 -2.3092
 6375TIP3   OH219085   0.568   6.682   3.901  0.4492 -0.1019  0.1680
 6375TIP3    H119086   0.555   6.600   3.948  1.3698 -0.2149  0.2255
 6375TIP3    H219087   0.639   6.664   3.840 -0.9493 -0.0670 -1.5290
 6376TIP3   OH219088   3.814   7.173   1.735  0.3260  0.0325  0.1585
 6376TIP3    H119089   3.780   7.190   1.824  1.3120  1.2202  0.3339
 6376TIP3    H219090   3.798   7.255   1.688  0.1460 -0.4702 -0.6657
 6377TIP3   OH219091   1.873   3.726   5.295  0.2291  0.6954 -0.0787
 6377TIP3    H119092   1.927   3.690   5.225  0.3419  0.6198  0.0479
 6377TIP3    H219093   1.934   3.777   5.349  0.4407 -0.5325  0.8567
 6378TIP3   OH219094   7.542   3.273   3.096 -0.0673 -0.3407  0.2047
 6378TIP3    H119095   7.619   3.294   3.149  0.7368 -2.3155 -0.1481
 6378TIP3    H219096   7.488   3.218   3.153 -1.2754  1.1136  0.4828
 6379TIP3   OH219097   2.288   6.999  -0.016  0.0333  0.4185 -0.2043
 6379TIP3    H119098   2.264   6.924   0.039 -2.3385  0.4398 -1.1312
 6379TIP3    H219099   2.347   7.051   0.039  0.0081 -1.0295  1.2392
 6380TIP3   OH219100   4.319   6.165   0.264 -0.6259 -0.2944 -0.2835
 6380TIP3    H119101   4.225   6.149   0.260 -0.4194 -1.5011 -0.3358
 6380TIP3    H219102   4.345   6.138   0.352 -0.1054 -1.1690 -0.7066
 6381TIP3   OH219103   3.085   6.223   0.780 -0.2627 -0.3078 -0.1898
 6381TIP3    H119104   2.997   6.262   0.776 -0.5061 -0.8932 -0.5114
 6381TIP3    H219105   3.072   6.131   0.758  0.6064 -0.1409 -1.4398
 6382TIP3   OH219106   4.800   1.620   0.278 -0.2357 -0.3557 -0.4039
 6382TIP3    H119107   4.834   1.631   0.189 -1.2008  1.5161 -0.5745
 6382TIP3    H219108   4.854   1.678   0.332 -0.7723 -0.1554 -0.0693
 6383TIP3   OH219109   2.549   3.621   6.045  0.1854 -0.6621  0.2765
 6383TIP3    H119110   2.523   3.709   6.075  0.1566 -0.5308 -0.1344
 6383TIP3    H219111   2.644   3.624   6.041  0.1036  0.0033 -1.7103
 6384TIP3   OH219112   5.520   1.134   0.679 -0.3242 -0.4045  0.6728
 6384TIP3    H119113   5.505   1.103   0.768 -1.6966  0.5314  0.7843
 6384TIP3    H219114   5.452   1.091   0.626  0.1869 -0.5953  0.1670
 6385TIP3   OH219115   0.444   7.122   5.645 -0.1634 -0.8295 -0.2290
 6385TIP3    H119116   0.357   7.152   5.619  1.0088  0.8171 -2.4037
 6385TIP3    H219117   0.445   7.028   5.623 -1.2745 -0.7833 -0.4820
 6386TIP3   OH219118   1.528   2.814   6.063  0.0597 -0.0923  0.1915
 6386TIP3    H119119   1.506   2.906   6.077 -0.1717 -0.1210  0.0240
 6386TIP3    H219120   1.621   2.808   6.087  0.2152  0.2935 -0.3125
 6387TIP3   OH219121   0.906   0.404   4.905 -0.2928  0.7178  0.1526
 6387TIP3    H119122   0.841   0.401   4.835 -2.0397 -1.5826  1.8069
 6387TIP3    H219123   0.872   0.468   4.967 -0.9812 -0.4325  0.9829
 6388TIP3   OH219124   1.206   5.573   5.412 -0.0940 -0.4907  0.1439
 6388TIP3    H119125   1.148   5.517   5.361 -2.1887  1.9690 -0.2516
 6388TIP3    H219126   1.201   5.538   5.501 -0.9232 -1.2863 -0.2111
 6389TIP3   OH219127   1.949   2.195   3.688  0.0438 -0.0702  0.4158
 6389TIP3    H119128   1.869   2.230   3.649  0.3582 -0.1723 -0.3323
 6389TIP3    H219129   1.960   2.109   3.647  0.5645 -0.0349  0.4771
 6390TIP3   OH219130   0.493   4.613   4.307  0.7225  0.5188 -0.7450
 6390TIP3    H119131   0.506   4.519   4.320  1.7949  0.7760  0.0842
 6390TIP3    H219132   0.442   4.640   4.384  1.3876  0.8282 -0.4160
 6391TIP3   OH219133   1.389   4.331   5.064 -0.0594 -0.3066 -0.2585
 6391TIP3    H119134   1.307   4.286   5.084 -0.4576  0.2490 -0.6295
 6391TIP3    H219135   1.457   4.267   5.084 -0.5846 -0.7930 -0.0112
 6392TIP3   OH219136   1.268   6.158   5.585 -0.7375 -0.4039  0.2962
 6392TIP3    H119137   1.178   6.174   5.613 -1.1617 -0.9496 -0.7179
 6392TIP3    H219138   1.299   6.088   5.641 -0.2292  1.1800  2.0529
 6393TIP3   OH219139   4.764   0.017   1.455 -0.0879 -0.2370 -0.5851
 6393TIP3    H119140   4.712   0.021   1.374 -0.4345 -0.4231 -0.3736
 6393TIP3    H219141   4.706   0.053   1.522  0.6836  1.1704 -0.6513
 6394TIP3   OH219142   1.718   5.020   5.240  0.6614  0.0986  0.4184
 6394TIP3    H119143   1.749   5.037   5.152 -0.9688 -1.2758 -0.4627
 6394TIP3    H219144   1.689   4.929   5.238 -0.6188  0.4406  2.0093
 6395TIP3   OH219145   6.974   3.843   4.202 -0.5297  0.0498  0.1198
 6395TIP3    H119146   6.943   3.915   4.147 -0.9848  0.0543  0.3777
 6395TIP3    H219147   6.919   3.769   4.177 -0.9780  0.1405  0.8102
 6396TIP3   OH219148   1.383   4.506   5.396 -0.2169 -0.0883  0.2148
 6396TIP3    H119149   1.291   4.493   5.372  0.0226  0.1963 -0.8940
 6396TIP3    H219150   1.424   4.421   5.383 -0.4654 -0.3939  1.3932
 6397TIP3   OH219151   2.555   3.311   0.293  0.1232  0.1401 -0.0581
 6397TIP3    H119152   2.606   3.384   0.327  0.6418 -0.1257 -0.2704
 6397TIP3    H219153   2.600   3.284   0.214  0.7880 -1.3763  0.8247
 6398TIP3   OH219154   7.657   1.056   4.396  0.3091  0.3507 -0.2974
 6398TIP3    H119155   7.639   0.977   4.446  0.0877  0.9957  0.6690
 6398TIP3    H219156   7.652   1.029   4.304  1.4145 -1.0039  0.0321
 6399TIP3   OH219157   4.381   0.638   1.584  0.3111 -0.0009  0.2417
 6399TIP3    H119158   4.368   0.706   1.649  1.3165 -0.9288  1.4361
 6399TIP3    H219159   4.441   0.676   1.520 -2.3139  1.6734 -1.3456
 6400TIP3   OH219160   1.038   0.888   4.924  0.0547  0.1167  0.2287
 6400TIP3    H119161   0.997   0.907   4.840 -0.0116  0.9826  0.4578
 6400TIP3    H219162   1.042   0.792   4.927 -1.5481  0.0282  0.0186
 6401TIP3   OH219163   1.137   4.108   2.666 -0.7405  0.5427  0.1827
 6401TIP3    H119164   1.191   4.030   2.670 -1.9247 -0.3536 -0.6777
 6401TIP3    H219165   1.173   4.159   2.593 -0.5614  0.3429  0.1335
 6402TIP3   OH219166   3.568   6.440   0.065 -0.9538  0.2747  0.4347
 6402TIP3    H119167   3.541   6.372   0.127 -1.8744 -0.0673 -0.3181
 6402TIP3    H219168   3.499   6.439  -0.002 -0.1381  0.8513 -0.4206
 6403TIP3   OH219169   7.635   4.867   5.359  0.3213  0.1479 -0.1891
 6403TIP3    H119170   7.657   4.953   5.393  1.4958 -0.1607 -0.1306
 6403TIP3    H219171   7.615   4.814   5.436  0.6191  0.0893 -0.1527
 6404TIP3   OH219172   1.133   2.204   3.515 -0.4385 -1.1475  0.6100
 6404TIP3    H119173   1.097   2.291   3.506  0.9540 -0.6301 -0.0958
 6404TIP3    H219174   1.070   2.157   3.571 -2.7347 -0.6431 -1.5022
 6405TIP3   OH219175   4.026   7.201   1.234  0.1834  0.3646  0.0758
 6405TIP3    H119176   3.934   7.176   1.244  0.5777 -0.6859  1.1696
 6405TIP3    H219177   4.041   7.265   1.304  0.6862 -0.6363  0.9018
 6406TIP3   OH219178   1.966   4.041   6.318 -0.4239 -0.3056  0.2019
 6406TIP3    H119179   1.882   3.995   6.322 -0.6195 -0.0528 -0.7571
 6406TIP3    H219180   1.945   4.132   6.336 -0.5963  0.0133 -1.5009
 6407TIP3   OH219181   4.050   6.847   0.209  0.2936  0.1593 -0.6013
 6407TIP3    H119182   3.959   6.846   0.177 -0.5767  2.7804  1.6541
 6407TIP3    H219183   4.056   6.771   0.267 -1.0480  1.0128  0.6935
 6408TIP3   OH219184   1.717   3.579   6.084 -0.0753  0.5756  0.7392
 6408TIP3    H119185   1.800   3.569   6.039 -0.9597  1.4335 -1.1683
 6408TIP3    H219186   1.699   3.493   6.122  1.5371  0.3151  0.9375
 6409TIP3   OH219187   0.260   0.336   0.102  0.2165 -0.0159 -0.1220
 6409TIP3    H119188   0.339   0.389   0.104 -1.5219  2.6677  0.0210
 6409TIP3    H219189   0.272   0.273   0.174  2.3361  0.1205 -0.3230
 6410TIP3   OH219190   0.675   4.409   5.667 -0.1618  0.0667 -0.1838
 6410TIP3    H119191   0.635   4.475   5.609  1.0265  1.5741  0.6681
 6410TIP3    H219192   0.600   4.365   5.708 -1.0153  2.4468  0.9311
 6411TIP3   OH219193   6.730   2.173   5.540  0.3496 -0.6896  0.7578
 6411TIP3    H119194   6.649   2.142   5.581 -0.7117  2.8206  1.5115
 6411TIP3    H219195   6.799   2.152   5.604 -0.8887  1.9677  3.0903
 6412TIP3   OH219196   1.227   6.950   0.014  0.1750 -0.2708 -0.1232
 6412TIP3    H119197   1.313   6.918  -0.012  0.5705  0.3533  0.4074
 6412TIP3    H219198   1.179   6.871   0.040  0.7402 -0.5706  0.0152
 6413TIP3   OH219199   7.610   4.470   4.556  0.1284 -0.3203 -0.2378
 6413TIP3    H119200   7.584   4.560   4.539  1.4402  0.7835  3.0624
 6413TIP3    H219201   7.585   4.454   4.647  2.9095 -2.1317  0.2892
 6414TIP3   OH219202   1.804   1.779   4.122  0.3986  0.7555 -0.0835
 6414TIP3    H119203   1.820   1.865   4.082  2.3253  0.8581  0.8048
 6414TIP3    H219204   1.834   1.789   4.213  0.3602 -0.7627  0.1157
 6415TIP3   OH219205   2.836   4.501   4.752 -0.2901  0.2985  0.1189
 6415TIP3    H119206   2.930   4.511   4.770 -0.7002  2.7882  0.9418
 6415TIP3    H219207   2.810   4.425   4.805  1.2538 -0.4291 -0.1391
 6416TIP3   OH219208   0.149   4.639   3.670  0.3971  0.4574  0.1030
 6416TIP3    H119209   0.123   4.601   3.586 -1.4467  0.5698  0.6087
 6416TIP3    H219210   0.226   4.587   3.697  0.5659 -0.0395 -1.2964
 6417TIP3   OH219211   0.999   3.271   5.627  0.0325  0.2152 -0.2974
 6417TIP3    H119212   0.995   3.284   5.532 -0.4372  0.4199 -0.2541
 6417TIP3    H219213   1.075   3.322   5.656 -0.1433  0.5919 -0.4954
 6418TIP3   OH219214   4.286   7.263   0.561  0.0246 -0.4966 -0.6696
 6418TIP3    H119215   4.276   7.329   0.493 -0.4201 -0.3807 -0.4990
 6418TIP3    H219216   4.324   7.187   0.517 -0.9432 -0.6822 -1.2006
 6419TIP3   OH219217   6.571   6.145   6.067 -0.4411  0.2025  0.5838
 6419TIP3    H119218   6.529   6.081   6.010 -0.9799 -0.5965  1.8432
 6419TIP3    H219219   6.563   6.228   6.020 -0.0176 -0.5958 -0.9231
 6420TIP3   OH219220   2.274   4.264   3.049  0.0776 -0.2498  0.0089
 6420TIP3    H119221   2.314   4.217   2.976 -1.0976 -0.4874 -0.5074
 6420TIP3    H219222   2.186   4.285   3.018 -1.0757 -1.9220  1.9899
 6421TIP3   OH219223   2.638   2.051   4.408  0.1234 -0.1176 -0.3199
 6421TIP3    H119224   2.550   2.085   4.421  0.2007 -0.1600  0.3372
 6421TIP3    H219225   2.679   2.111   4.346 -0.0722  0.4116  0.0663
 6422TIP3   OH219226   1.616   6.983   1.687 -0.0503  0.0953  0.6420
 6422TIP3    H119227   1.635   7.076   1.704 -1.0608  0.1131  1.7414
 6422TIP3    H219228   1.544   6.985   1.624  0.7644  0.0450 -0.3001
 6423TIP3   OH219229   6.995   4.025   5.683 -0.6056  0.1667 -0.1016
 6423TIP3    H119230   6.940   3.953   5.714 -2.2242  1.5599  0.3575
 6423TIP3    H219231   7.047   3.987   5.612 -0.7430 -1.6870  0.7616
 6424TIP3   OH219232   1.635   4.485   5.757 -0.6616 -0.0173 -0.0374
 6424TIP3    H119233   1.627   4.404   5.706  0.4031  0.0053 -0.2714
 6424TIP3    H219234   1.677   4.457   5.838 -0.5715  0.2469  0.0067
 6425TIP3   OH219235   0.457   3.706   4.991  0.5206 -0.3254  0.1090
 6425TIP3    H119236   0.366   3.705   4.961 -0.2521  1.2511  2.2946
 6425TIP3    H219237   0.483   3.614   4.989 -1.4907 -0.9287  0.5530
 6426TIP3   OH219238   3.409   6.872   1.027  0.2155 -0.0769  0.2266
 6426TIP3    H119239   3.407   6.782   1.059  0.0066  0.1833  0.9445
 6426TIP3    H219240   3.326   6.910   1.057  1.2317  0.9873  1.7676
 6427TIP3   OH219241   0.345   5.582   5.324 -0.2823 -0.2048  0.0377
 6427TIP3    H119242   0.427   5.580   5.274 -0.3819 -0.4205 -0.1191
 6427TIP3    H219243   0.373   5.585   5.415 -0.0366 -3.7762  0.1643
 6428TIP3   OH219244   3.252   4.826   5.106 -0.3613 -0.0380 -0.8770
 6428TIP3    H119245   3.310   4.753   5.128 -1.8803 -1.3018 -1.0084
 6428TIP3    H219246   3.278   4.852   5.018 -0.8442 -1.4458 -1.4404
 6429TIP3   OH219247   4.349   1.685   1.279  0.7199 -0.7479 -0.6036
 6429TIP3    H119248   4.443   1.700   1.292  0.5438 -0.2394  0.0797
 6429TIP3    H219249   4.342   1.589   1.274  0.8552 -0.9919  2.7801
 6430TIP3   OH219250   1.231   3.368   5.899 -0.3060  0.5300 -0.5324
 6430TIP3    H119251   1.209   3.452   5.940  0.7774  1.3596 -1.6122
 6430TIP3    H219252   1.160   3.310   5.925 -0.4092  1.4143  1.3182
 6431TIP3   OH219253   1.727   4.741   5.174  0.3035 -0.1625  0.1539
 6431TIP3    H119254   1.700   4.705   5.258  1.2099  1.8739  1.3728
 6431TIP3    H219255   1.663   4.708   5.112 -0.8821 -1.0203  1.7886
 6432TIP3   OH219256   1.700   5.463   4.718 -0.1545  0.1883  0.2085
 6432TIP3    H119257   1.718   5.554   4.691  1.0290  0.0625  0.5767
 6432TIP3    H219258   1.635   5.472   4.788  1.4587  0.8843  1.6539
 6433TIP3   OH219259   7.429   4.066   4.351 -0.0501  0.1074 -0.3936
 6433TIP3    H119260   7.426   4.122   4.273 -0.5494  0.1712 -0.3301
 6433TIP3    H219261   7.400   4.123   4.422  0.6363  0.1165 -0.1196
 6434TIP3   OH219262   6.922   4.873   2.533  0.8039  0.4787  0.5141
 6434TIP3    H119263   6.907   4.785   2.500  0.2841  0.3517  1.0667
 6434TIP3    H219264   6.988   4.911   2.475 -1.5073  0.9693 -1.8989
 6435TIP3   OH219265   4.637   0.992   0.545 -0.2521  0.6815  0.8510
 6435TIP3    H119266   4.619   1.080   0.514 -1.0272  0.7297  1.4328
 6435TIP3    H219267   4.638   0.938   0.465 -0.5088  1.0912  0.5683
 6436TIP3   OH219268   6.757   0.906   2.156  0.1646 -0.7060  0.4437
 6436TIP3    H119269   6.751   0.990   2.201  1.7582 -1.2607  1.7038
 6436TIP3    H219270   6.796   0.847   2.220 -0.7347 -2.3680 -0.5053
 6437TIP3   OH219271   0.027   3.942   3.233 -0.7999  0.2700  0.1788
 6437TIP3    H119272   0.013   4.027   3.191 -0.1751 -0.2367 -1.0521
 6437TIP3    H219273   0.066   3.887   3.166  2.1752  0.0421  1.9983
 6438TIP3   OH219274   2.560   4.514   5.799 -0.2719  0.1542  0.2959
 6438TIP3    H119275   2.540   4.593   5.848 -1.1292  0.7829 -1.0399
 6438TIP3    H219276   2.646   4.486   5.831  0.3290  1.9869  0.3268
 6439TIP3   OH219277   0.091   4.025   5.486 -0.0058  0.4727  0.0381
 6439TIP3    H119278   0.100   3.954   5.550 -0.0160  0.4819  0.0498
 6439TIP3    H219279   0.076   3.981   5.403  3.1375  0.3549 -0.5091
 6440TIP3   OH219280   4.899   0.138   0.137 -0.0400 -0.1727 -0.0866
 6440TIP3    H119281   4.870   0.192   0.063  0.5980 -0.6691 -0.7046
 6440TIP3    H219282   4.981   0.179   0.165 -1.3754  1.3162  1.7522
 6441TIP3   OH219283   7.584   4.120   6.167  0.9962  0.2929  0.1717
 6441TIP3    H119284   7.679   4.107   6.166  1.2453  2.0666 -0.9313
 6441TIP3    H219285   7.554   4.087   6.082  0.6627  0.0825  0.3675
 6442TIP3   OH219286   7.729   4.120   3.898 -0.3694 -0.0510 -0.3980
 6442TIP3    H119287   7.705   4.211   3.918  0.4829  0.5588 -1.9856
 6442TIP3    H219288   7.825   4.119   3.903 -0.3755 -0.8667 -0.3786
 6443TIP3   OH219289   0.099   4.095   4.560 -0.2446  0.2405 -0.0811
 6443TIP3    H119290   0.158   4.165   4.589 -0.7569  0.8885 -0.5774
 6443TIP3    H219291   0.107   4.096   4.464  0.4231 -0.9845 -0.0475
 6444TIP3   OH219292   1.525   4.563   3.368  0.4927  0.3685  0.4900
 6444TIP3    H119293   1.462   4.597   3.432 -0.9264 -2.1290  0.5233
 6444TIP3    H219294   1.604   4.544   3.419  0.5979  1.6858  0.8270
 6445TIP3   OH219295   1.087   3.267   5.088  0.6428  0.6899 -0.1443
 6445TIP3    H119296   1.138   3.186   5.089  1.2006  1.0375 -0.4267
 6445TIP3    H219297   1.152   3.337   5.092  0.3634  1.2014 -3.2333
 6446TIP3   OH219298   1.426   2.703   4.063  0.0556 -0.1635  0.2204
 6446TIP3    H119299   1.443   2.715   3.970 -3.7428 -1.2887 -0.7166
 6446TIP3    H219300   1.408   2.792   4.096  1.2370  0.2133 -0.1265
 6447TIP3   OH219301   4.968   0.973   0.608  0.4317 -0.2650 -0.4078
 6447TIP3    H119302   4.914   1.003   0.535  0.5969  3.4640  0.8916
 6447TIP3    H219303   5.058   0.984   0.578  0.5503 -2.8815 -1.1699
 6448TIP3   OH219304   6.777   0.795   0.331 -0.4742  0.2106 -0.1799
 6448TIP3    H119305   6.866   0.828   0.340 -0.4748  0.3422 -0.6155
 6448TIP3    H219306   6.751   0.821   0.242 -0.1401 -1.7640 -0.8924
 6449TIP3   OH219307   3.572   5.450   1.735  0.4525 -0.4376 -0.3168
 6449TIP3    H119308   3.529   5.500   1.666  1.2365 -0.9347 -1.1637
 6449TIP3    H219309   3.508   5.449   1.807  0.2431  1.3562 -0.4746
 6450TIP3   OH219310   1.181   5.542   4.968  0.0787 -0.2901 -0.0723
 6450TIP3    H119311   1.201   5.511   5.056  1.6444 -0.4562 -0.4672
 6450TIP3    H219312   1.220   5.630   4.964 -0.9811  0.1827 -0.2263
 6451TIP3   OH219313   1.227   2.989   3.550 -0.1193 -0.6856 -0.0516
 6451TIP3    H119314   1.146   2.956   3.589  0.1775 -1.3710  0.0003
 6451TIP3    H219315   1.252   3.063   3.605 -0.6949 -0.4952 -0.0483
 6452TIP3   OH219316   5.997   0.110   0.362 -0.3438 -0.0712 -0.5749
 6452TIP3    H119317   6.086   0.075   0.368 -0.1896 -0.0739 -2.5240
 6452TIP3    H219318   6.001   0.195   0.404 -0.1059 -1.2743  1.9128
 6453TIP3   OH219319   2.541   3.862   2.646  0.4079  0.1894  0.5911
 6453TIP3    H119320   2.549   3.912   2.728 -2.5990  0.9879  0.4607
 6453TIP3    H219321   2.622   3.880   2.599  1.0934  1.7580  2.2921
 6454TIP3   OH219322   0.721   2.591   6.233  0.6404  0.3626 -0.8639
 6454TIP3    H119323   0.778   2.659   6.195  0.4768 -0.0474 -1.8496
 6454TIP3    H219324   0.632   2.622   6.215  0.5675 -0.5759 -2.1505
 6455TIP3   OH219325   7.220   5.871   5.276 -0.0904  0.0391  0.2843
 6455TIP3    H119326   7.147   5.930   5.258  0.4097  0.8643  0.9258
 6455TIP3    H219327   7.179   5.788   5.300 -0.8028 -0.5337 -2.6650
 6456TIP3   OH219328   1.271   2.430   6.151  0.4027 -0.0015  0.3145
 6456TIP3    H119329   1.339   2.470   6.096  0.1485  0.0670  0.0500
 6456TIP3    H219330   1.259   2.491   6.223  1.6735 -0.7095  1.1584
 6457TIP3   OH219331   5.347   1.463   0.312 -0.2660 -0.4535  0.0117
 6457TIP3    H119332   5.385   1.534   0.364  0.7043  0.1685 -1.5091
 6457TIP3    H219333   5.422   1.412   0.282 -0.9216 -1.8007  0.6153
 6458TIP3   OH219334   2.203   7.253   0.185  0.1065 -0.1434 -0.0708
 6458TIP3    H119335   2.291   7.216   0.180  0.4376  0.7369 -0.9865
 6458TIP3    H219336   2.217   7.348   0.190 -0.7796 -0.0258  0.3224
 6459TIP3   OH219337   0.761   2.858   4.497 -0.0254  0.1634 -0.1934
 6459TIP3    H119338   0.802   2.914   4.431 -0.6032  0.4395 -0.3268
 6459TIP3    H219339   0.831   2.838   4.559  0.4223  0.2436 -0.6649
 6460TIP3   OH219340   4.418   2.436   0.255 -0.1696 -0.1330  0.3712
 6460TIP3    H119341   4.421   2.474   0.343  0.4178 -0.4063  0.4682
 6460TIP3    H219342   4.504   2.396   0.243 -0.4353 -0.5611 -0.1208
 6461TIP3   OH219343   3.978   6.836   1.270 -0.6448  0.1223 -0.2334
 6461TIP3    H119344   3.960   6.817   1.178  1.0694  0.4241 -0.6546
 6461TIP3    H219345   3.925   6.912   1.291 -1.9650 -0.6788 -0.6243
 6462TIP3   OH219346   7.515   3.146   4.593 -0.2185 -0.0482 -0.4937
 6462TIP3    H119347   7.602   3.185   4.603 -1.1491  2.3534 -1.3473
 6462TIP3    H219348   7.486   3.128   4.682  0.5540  0.5573 -0.1096
 6463TIP3   OH219349   1.444   3.859   5.399 -0.2251 -0.4065  0.1676
 6463TIP3    H119350   1.413   3.928   5.339 -1.0889 -0.3000  0.7296
 6463TIP3    H219351   1.525   3.895   5.436  0.3751 -0.5145 -1.0057
 6464TIP3   OH219352   5.086   0.577   0.881  0.2363 -0.4078 -0.2702
 6464TIP3    H119353   5.071   0.585   0.787  2.9776 -0.1485 -0.7074
 6464TIP3    H219354   5.111   0.485   0.894 -0.0758 -0.4288  0.2140
 6465TIP3   OH219355   7.434   1.542   0.597 -0.1856  0.6283 -0.4930
 6465TIP3    H119356   7.436   1.505   0.686 -0.2423  2.3124  0.2217
 6465TIP3    H219357   7.378   1.619   0.605  1.5433  2.0048 -1.5255
 6466TIP3   OH219358   1.277   4.546   2.911  0.3871  0.6666  0.2096
 6466TIP3    H119359   1.321   4.493   2.979 -0.2911 -0.2390 -0.0402
 6466TIP3    H219360   1.306   4.635   2.928  1.2199  0.2749  0.9177
 6467TIP3   OH219361   3.382   7.197   0.665 -0.9200  0.0566 -0.1685
 6467TIP3    H119362   3.419   7.174   0.751 -0.5604  2.3411  0.3024
 6467TIP3    H219363   3.454   7.183   0.604  0.0506  2.2501  0.4434
 6468TIP3   OH219364   0.872   3.714   4.481 -0.6532 -0.0301 -0.0589
 6468TIP3    H119365   0.827   3.675   4.406 -1.2185 -0.5660  0.5406
 6468TIP3    H219366   0.921   3.641   4.520 -0.5950  0.1759  0.2573
 6469TIP3   OH219367   6.126   3.422   4.896  0.4032  0.6118 -0.0119
 6469TIP3    H119368   6.177   3.479   4.953  0.6494 -0.0094  0.3941
 6469TIP3    H219369   6.169   3.429   4.811  0.4989  0.9482  0.0644
 6470TIP3   OH219370   2.538   6.461   0.462  0.2328 -0.4473  0.1012
 6470TIP3    H119371   2.555   6.394   0.528 -0.8490 -1.5029 -0.6638
 6470TIP3    H219372   2.480   6.524   0.505 -2.8695 -2.6472 -0.6860
 6471TIP3   OH219373   1.149   3.041   3.923 -0.1798  0.1558  0.3432
 6471TIP3    H119374   1.198   3.084   3.853 -0.4595  0.1397  0.1373
 6471TIP3    H219375   1.199   3.059   4.002 -0.8437  1.7184  0.4147
 6472TIP3   OH219376   5.803   0.257   0.729  0.2208  0.0664 -0.9044
 6472TIP3    H119377   5.850   0.185   0.770  0.6685  0.6789 -0.3408
 6472TIP3    H219378   5.714   0.223   0.716  0.3152 -0.4322 -0.2462
 6473TIP3   OH219379   7.529   3.250   5.876 -0.7716 -0.0855 -0.0589
 6473TIP3    H119380   7.579   3.170   5.892 -0.9437 -1.0308 -3.9527
 6473TIP3    H219381   7.471   3.256   5.952  0.6035 -2.5823  1.2658
 6474TIP3   OH219382   6.540   0.841   1.122  0.1691 -0.6869 -0.4350
 6474TIP3    H119383   6.564   0.898   1.195  0.4734 -0.2809 -0.8460
 6474TIP3    H219384   6.605   0.771   1.125 -1.0291 -1.7633  0.9070
 6475TIP3   OH219385   0.281   3.563   3.883  0.1577 -0.3860  0.0683
 6475TIP3    H119386   0.255   3.643   3.930 -0.0362 -0.6918  0.4813
 6475TIP3    H219387   0.201   3.535   3.838  0.3602 -0.0562 -0.5018
 6476TIP3   OH219388   1.461   2.686   5.195 -0.1631 -0.3050  0.8953
 6476TIP3    H119389   1.429   2.601   5.225 -1.2883  0.1958  1.1030
 6476TIP3    H219390   1.474   2.737   5.275 -0.6950  0.1533  0.6853
 6477TIP3   OH219391   2.664   6.829   0.091 -0.4918  0.6208 -0.8144
 6477TIP3    H119392   2.711   6.747   0.079 -1.5831 -0.2276  0.6438
 6477TIP3    H219393   2.599   6.831   0.020  0.4052  0.8605 -1.6365
 6478TIP3   OH219394   3.426   6.644   1.181 -0.0618 -0.1641 -0.1974
 6478TIP3    H119395   3.403   6.565   1.228  1.1689 -1.1713 -1.2341
 6478TIP3    H219396   3.466   6.701   1.247  1.8515 -1.6441 -0.0359
 6479TIP3   OH219397   5.794  -0.022   0.246  0.0242 -0.2359  0.7551
 6479TIP3    H119398   5.847   0.022   0.313  0.4154 -0.5688  0.6618
 6479TIP3    H219399   5.730   0.045   0.220  0.4244  0.1853  0.8346
 6480TIP3   OH219400   3.837   6.283   0.490 -0.0266 -0.4112 -0.6045
 6480TIP3    H119401   3.763   6.262   0.547  0.6046 -1.3757 -0.1336
 6480TIP3    H219402   3.815   6.368   0.453 -0.9046 -0.2372  0.3022
 6481TIP3   OH219403   5.560   0.112   0.349 -0.9121 -0.3200 -0.4674
 6481TIP3    H119404   5.581   0.047   0.416 -0.0392  0.5697  0.1312
 6481TIP3    H219405   5.510   0.063   0.284 -2.7394 -0.9827  1.3521
 6482TIP3   OH219406   0.666   6.682   4.177  0.6875  0.7604 -0.3116
 6482TIP3    H119407   0.579   6.670   4.217  0.9405  1.5831  0.5066
 6482TIP3    H219408   0.651   6.746   4.107  0.3239 -0.3682 -1.2912
 6483TIP3   OH219409   0.432   6.474   4.501 -0.0028 -0.4791 -0.7369
 6483TIP3    H119410   0.467   6.538   4.563  0.1918 -1.0927 -0.2033
 6483TIP3    H219411   0.494   6.475   4.428 -0.5668  0.6965 -1.2107
 6484TIP3   OH219412   1.093   3.738   5.624  0.0557 -0.5079  0.0610
 6484TIP3    H119413   1.089   3.700   5.712 -1.0479  0.0250  0.2513
 6484TIP3    H219414   1.132   3.825   5.638  0.7867 -0.8052 -0.1128
 6485TIP3   OH219415   3.983   3.645   4.643 -0.4742  0.8953 -0.1493
 6485TIP3    H119416   4.005   3.557   4.610  0.2238  1.1551 -0.3846
 6485TIP3    H219417   4.027   3.650   4.728  0.2308  1.3503 -0.5401
 6486TIP3   OH219418   2.530   4.345   3.055 -0.4820  0.0528 -0.2510
 6486TIP3    H119419   2.438   4.320   3.067  0.1969 -3.1328 -1.3350
 6486TIP3    H219420   2.579   4.281   3.106  1.3445 -0.9376 -3.1639
 6487TIP3   OH219421   1.478   7.083   3.802  0.3092 -0.2734  0.5069
 6487TIP3    H119422   1.527   7.048   3.876  1.7872 -0.8449 -0.7262
 6487TIP3    H219423   1.494   7.022   3.731 -0.1287  0.8941 -0.6227
 6488TIP3   OH219424   1.152   5.847   5.472 -0.1442 -0.1364 -0.1233
 6488TIP3    H119425   1.157   5.752   5.464 -1.5710 -0.1867 -0.5127
 6488TIP3    H219426   1.232   5.878   5.429  0.8677 -1.1841  0.9541
 6489TIP3   OH219427   7.299   3.553   4.245  0.1607  0.3125  0.4839
 6489TIP3    H119428   7.247   3.513   4.175  0.6563 -0.4220  0.5310
 6489TIP3    H219429   7.236   3.603   4.296 -0.0460  1.6758 -1.0622
 6490TIP3   OH219430   2.226   4.102   4.814 -0.1212  0.2313 -0.2414
 6490TIP3    H119431   2.153   4.091   4.874 -0.4432  0.7181 -0.5416
 6490TIP3    H219432   2.252   4.013   4.790 -0.8077  0.0669 -0.3683
 6491TIP3   OH219433   4.093   5.262   5.118  0.0082  0.4178  0.4036
 6491TIP3    H119434   4.041   5.253   5.198 -0.2529  2.5081  0.5018
 6491TIP3    H219435   4.039   5.223   5.050 -1.8428  2.7835  0.4618
 6492TIP3   OH219436   2.014   4.973   4.161  0.4285 -0.2501 -0.7598
 6492TIP3    H119437   2.041   5.056   4.201  1.2517 -0.1775 -1.4536
 6492TIP3    H219438   2.078   4.958   4.091  0.0565 -1.2808 -0.8848
 6493TIP3   OH219439   4.922   5.356   5.296 -0.0548  0.4502  0.2316
 6493TIP3    H119440   4.924   5.261   5.308  1.8666  0.2958 -1.0598
 6493TIP3    H219441   4.910   5.367   5.201 -1.5670  1.5180  0.5374
 6494TIP3   OH219442   6.735   4.276   5.582 -0.5060 -0.2240  0.0507
 6494TIP3    H119443   6.647   4.309   5.563 -0.8269 -0.1629  1.6032
 6494TIP3    H219444   6.752   4.301   5.672  0.8466 -0.8302 -0.0148
 6495TIP3   OH219445   1.586   3.237   6.021 -0.1151 -0.5397  0.2363
 6495TIP3    H119446   1.621   3.164   6.073  3.6246 -0.6007 -2.1735
 6495TIP3    H219447   1.555   3.299   6.086  1.9546 -1.7966  2.5300
 6496TIP3   OH219448   2.530   4.706   4.883  0.7160 -0.5349 -0.2294
 6496TIP3    H119449   2.560   4.673   4.798 -2.0752 -0.3250 -1.3339
 6496TIP3    H219450   2.468   4.776   4.861 -0.1705 -0.5905  1.9925
 6497TIP3   OH219451   7.683   3.559   4.974  0.1170  0.1907 -0.3313
 6497TIP3    H119452   7.683   3.471   5.011  1.2781  0.4629  0.3187
 6497TIP3    H219453   7.732   3.551   4.892 -0.3057  0.1162 -0.5820
 6498TIP3   OH219454   0.618   3.057   5.074  0.3426  0.0634  0.3741
 6498TIP3    H119455   0.688   3.084   5.015  1.2622 -0.3001  1.3032
 6498TIP3    H219456   0.550   3.123   5.062  0.0110 -0.6322 -1.9773
 6499TIP3   OH219457   0.868   6.084   6.354  0.1666 -0.0813 -0.5955
 6499TIP3    H119458   0.925   6.014   6.322 -0.2845 -0.1227 -1.3186
 6499TIP3    H219459   0.784   6.041   6.369  0.4787 -0.1537  1.0685
 6500TIP3   OH219460   3.794   6.770   1.035  0.5913  0.1362  0.0804
 6500TIP3    H119461   3.837   6.828   0.971  0.0783  1.4569  0.9066
 6500TIP3    H219462   3.705   6.804   1.041  0.4459 -0.4028  0.9941
 6501TIP3   OH219463   0.842   4.040   5.560  0.6086  0.0743 -0.2950
 6501TIP3    H119464   0.902   3.967   5.574  0.2855 -0.1019  0.1901
 6501TIP3    H219465   0.793   4.046   5.642 -0.8600 -0.5461 -1.1189
 6502TIP3   OH219466   7.758   3.091   4.925 -0.1844  0.2745 -0.7274
 6502TIP3    H119467   7.793   3.121   4.841 -0.9160  0.2938 -1.0379
 6502TIP3    H219468   7.776   2.997   4.926  1.4012  0.5754 -0.1081
 6503TIP3   OH219469   4.036   5.690   4.275 -0.4867  0.2178 -0.0231
 6503TIP3    H119470   3.969   5.754   4.298  0.8323  1.7880 -0.4219
 6503TIP3    H219471   4.116   5.742   4.264  0.4294 -1.3967 -1.2089
 6504TIP3   OH219472   4.023   5.904   0.197 -0.1831  0.5760  0.1307
 6504TIP3    H119473   4.104   5.942   0.162 -0.3416  0.9194  0.1348
 6504TIP3    H219474   3.982   5.861   0.122  1.0094 -1.3548  0.5594
 6505TIP3   OH219475   2.139   5.972   0.029  0.3255  0.6497 -0.4109
 6505TIP3    H119476   2.073   5.924  -0.022  0.8565  0.2580 -0.7280
 6505TIP3    H219477   2.089   6.010   0.102 -0.1289 -0.2685 -0.2304
 6506TIP3   OH219478   6.241   0.393   1.267 -0.2681 -0.1285  0.1529
 6506TIP3    H119479   6.177   0.336   1.309 -1.6879  1.1850 -0.1645
 6506TIP3    H219480   6.249   0.359   1.178 -3.5484  1.9974 -1.0650
 6507TIP3   OH219481   0.568   2.945   5.679  0.6676  0.5975  0.0233
 6507TIP3    H119482   0.644   2.986   5.721  0.7014  0.7604 -0.1942
 6507TIP3    H219483   0.509   3.019   5.661  0.7339  0.5507 -0.3816
 6508TIP3   OH219484   4.562   0.436   5.521  0.2853 -0.3149  1.2102
 6508TIP3    H119485   4.609   0.413   5.441  0.4070 -0.2721  1.2688
 6508TIP3    H219486   4.620   0.498   5.565 -0.4267  0.7846  0.6193
 6509TIP3   OH219487   2.372   4.950   4.796 -0.0499  0.2954 -0.1292
 6509TIP3    H119488   2.310   4.972   4.726 -2.0545 -2.1003  0.8102
 6509TIP3    H219489   2.333   4.988   4.874 -0.6341 -1.6351  0.5482
 6510TIP3   OH219490   1.531   4.072   5.144  0.2420  0.1263  0.3231
 6510TIP3    H119491   1.497   3.983   5.144 -1.2617  0.6872  0.1061
 6510TIP3    H219492   1.591   4.074   5.069  1.9017 -1.2701  1.5656
 6511TIP3   OH219493   0.782   6.008   5.934 -0.0650  0.1955  0.4894
 6511TIP3    H119494   0.690   5.996   5.907  0.1177  1.4252 -0.7203
 6511TIP3    H219495   0.798   6.101   5.923  1.2074  0.0604  1.1370
 6512TIP3   OH219496   0.211   2.189   5.768  0.0090 -0.0738 -0.6117
 6512TIP3    H119497   0.117   2.171   5.774 -0.1986  1.0304 -0.3948
 6512TIP3    H219498   0.228   2.202   5.675 -0.5064  2.0440 -0.4184
 6513TIP3   OH219499   2.675   2.603   3.225 -0.0519  0.0278  0.7129
 6513TIP3    H119500   2.674   2.511   3.201 -2.8465  0.2830 -0.3908
 6513TIP3    H219501   2.730   2.645   3.159  1.6131 -0.8872  1.4986
 6514TIP3   OH219502   0.402   2.740   5.364 -0.4209  0.1362  0.4029
 6514TIP3    H119503   0.317   2.774   5.391  0.2821  2.7122 -0.4944
 6514TIP3    H219504   0.403   2.751   5.269  0.6696 -0.4205  0.3380
 6515TIP3   OH219505   0.670   0.580   6.242  0.2328 -0.4811  0.0005
 6515TIP3    H119506   0.667   0.573   6.338  0.4437 -0.3812  0.0150
 6515TIP3    H219507   0.585   0.547   6.213  0.2668 -0.7538  0.2096
 6516TIP3   OH219508   7.631   5.118   6.230  0.2441 -0.3918  0.5216
 6516TIP3    H119509   7.684   5.132   6.308 -0.9755  1.1910  1.0956
 6516TIP3    H219510   7.542   5.103   6.263  0.1498 -2.0633 -0.4658
 6517TIP3   OH219511   0.451   3.111   4.378 -0.7199  0.9382  0.1037
 6517TIP3    H119512   0.481   3.201   4.384  1.1458  0.3252  0.1726
 6517TIP3    H219513   0.492   3.077   4.299  1.5339 -0.9045  1.9946
 6518TIP3   OH219514   2.092   3.633   5.122  0.1695 -0.5155 -0.2070
 6518TIP3    H119515   2.025   3.592   5.068  0.0199 -1.0802  0.3949
 6518TIP3    H219516   2.135   3.560   5.166  0.8054 -0.1183 -0.1559
 6519TIP3   OH219517   0.594   1.759   4.477 -0.3895 -0.3535  0.6787
 6519TIP3    H119518   0.676   1.712   4.463 -0.4846 -0.1919 -0.4455
 6519TIP3    H219519   0.587   1.767   4.572  0.5645 -0.9513  0.8048
 6520TIP3   OH219520   0.330   2.990   4.584  0.6135  0.2294 -0.0618
 6520TIP3    H119521   0.380   2.908   4.571  0.8349  0.0971  1.5915
 6520TIP3    H219522   0.356   3.045   4.510 -1.2975 -2.0372 -2.5096
 6521TIP3   OH219523   1.660   2.774   4.400 -0.1570  0.3264 -0.3285
 6521TIP3    H119524   1.575   2.731   4.393 -0.5533  1.0177  0.2054
 6521TIP3    H219525   1.667   2.798   4.493 -0.4903  2.5262 -0.8358
 6522TIP3   OH219526   2.481   6.539   2.259 -0.4310 -0.6293 -0.0396
 6522TIP3    H119527   2.572   6.518   2.239  0.2847  2.5227 -0.2907
 6522TIP3    H219528   2.469   6.510   2.349  1.4105  0.6871  0.6536
 6523TIP3   OH219529   0.441   3.160   2.417  0.3115  0.4233 -0.3896
 6523TIP3    H119530   0.413   3.131   2.330 -0.0909 -0.3421 -0.0088
 6523TIP3    H219531   0.496   3.089   2.449  0.8955  0.9388 -0.2263
 6524TIP3   OH219532   6.660   0.929   0.590  0.1845  0.0601  0.2763
 6524TIP3    H119533   6.569   0.901   0.579  0.1483 -0.2799  1.3568
 6524TIP3    H219534   6.705   0.896   0.512 -0.2298 -1.4187  0.6522
 6525TIP3   OH219535   2.376   5.171   1.433  0.4259 -0.3408 -0.2894
 6525TIP3    H119536   2.462   5.154   1.470  0.7602  1.3758 -0.2181
 6525TIP3    H219537   2.393   5.205   1.345 -0.2226 -0.8427 -0.6200
 6526TIP3   OH219538   4.533   0.944   0.799  0.3448  0.2762 -0.4019
 6526TIP3    H119539   4.441   0.924   0.784  0.0260  1.5828 -0.2478
 6526TIP3    H219540   4.567   0.971   0.714 -0.1473  2.5339  0.0592
 6527TIP3   OH219541   0.473   5.365   6.120 -0.5467 -0.0936 -0.5281
 6527TIP3    H119542   0.543   5.302   6.140 -0.4012 -0.0646 -0.9578
 6527TIP3    H219543   0.503   5.446   6.162 -0.7555 -0.3181  0.0626
 6528TIP3   OH219544   5.035   0.039   1.696 -0.7687 -0.1980  0.1886
 6528TIP3    H119545   4.974   0.100   1.656 -0.2102 -0.0486 -0.4437
 6528TIP3    H219546   5.038  -0.035   1.636  2.5485  1.4177 -1.7785
 6529TIP3   OH219547   0.485   3.625   4.146  0.5332  0.3419  0.2447
 6529TIP3    H119548   0.465   3.609   4.238 -1.6222  0.8931 -0.1055
 6529TIP3    H219549   0.441   3.555   4.098  0.5179  0.8247 -0.4676
 6530TIP3   OH219550   3.950   4.960   3.659  0.0913 -0.6356 -0.2529
 6530TIP3    H119551   4.010   4.889   3.682 -0.3440 -0.9915 -0.2165
 6530TIP3    H219552   3.874   4.947   3.716 -0.3747 -0.6712 -0.8808
 6531TIP3   OH219553   2.388   3.026   4.566 -0.0352 -0.2300 -0.9917
 6531TIP3    H119554   2.328   2.983   4.627  1.1059 -3.1777 -1.8749
 6531TIP3    H219555   2.359   2.998   4.480  1.5074 -0.2233 -1.5221
 6532TIP3   OH219556   0.627   3.002   4.155 -0.2977  0.1775 -0.6624
 6532TIP3    H119557   0.581   2.923   4.185  1.7808 -0.3758  1.1734
 6532TIP3    H219558   0.646   2.985   4.062  0.6170 -1.7214 -0.1414
 6533TIP3   OH219559   1.417   1.107   5.629 -0.4651  0.0629  0.2318
 6533TIP3    H119560   1.483   1.042   5.604 -0.9456 -0.0970 -0.6618
 6533TIP3    H219561   1.465   1.173   5.679  0.1910 -0.5325  0.3913
 6534TIP3   OH219562   3.278   5.277   6.089 -0.0215  0.1405 -0.3268
 6534TIP3    H119563   3.342   5.213   6.119  0.3659  0.8680  0.4310
 6534TIP3    H219564   3.299   5.292   5.997 -0.5518 -1.3253 -0.7032
 6535TIP3   OH219565   3.682   3.224   6.013  0.1684 -0.2184  0.3726
 6535TIP3    H119566   3.625   3.289   6.053  1.2434  0.2732  1.1477
 6535TIP3    H219567   3.766   3.235   6.058  1.4734  0.4583 -2.1391
 6536TIP3   OH219568   3.483   4.944   4.531  0.3177  0.0499 -0.5306
 6536TIP3    H119569   3.389   4.962   4.530  0.1282 -0.9186 -0.9530
 6536TIP3    H219570   3.489   4.849   4.522  1.2254 -0.2408  2.5496
 6537TIP3   OH219571   7.319   6.794   0.143 -0.1915  0.2129  0.4356
 6537TIP3    H119572   7.311   6.756   0.056 -0.7513  1.4986 -0.0839
 6537TIP3    H219573   7.337   6.719   0.200  0.4695 -0.6011 -0.8157
 6538TIP3   OH219574   3.689   4.657   3.076 -0.3431  0.4479 -0.2836
 6538TIP3    H119575   3.707   4.570   3.041  1.1595  1.1361 -1.2683
 6538TIP3    H219576   3.759   4.673   3.138 -2.5605 -0.4366  2.5265
 6539TIP3   OH219577   0.776   4.027   4.296  0.3601 -0.2433 -0.0046
 6539TIP3    H119578   0.776   3.999   4.205  1.4178 -0.2318 -0.0097
 6539TIP3    H219579   0.868   4.048   4.316  0.0997  0.0325  0.9721
 6540TIP3   OH219580   3.308   3.939   6.273  0.1921 -0.7407  0.1630
 6540TIP3    H119581   3.284   3.941   6.180  0.3356 -0.4109  0.1333
 6540TIP3    H219582   3.396   3.975   6.276  1.8364 -4.4992 -0.0568
 6541TIP3   OH219583   1.219   2.673   6.334 -0.5142  0.2760 -0.7055
 6541TIP3    H119584   1.142   2.701   6.383  0.1751  0.6179  0.1962
 6541TIP3    H219585   1.209   2.713   6.248 -0.0572  2.4827  0.2343
 6542TIP3   OH219586   1.422   3.904   2.950 -0.5030 -0.0296  0.5059
 6542TIP3    H119587   1.404   3.911   3.043 -1.1208  0.0601  0.3792
 6542TIP3    H219588   1.385   3.984   2.912 -2.0953 -1.0250 -0.0945
 6543TIP3   OH219589   1.899   4.505   4.619 -0.0976 -0.3647  0.2820
 6543TIP3    H119590   1.991   4.481   4.630 -0.6007 -2.5156 -0.1166
 6543TIP3    H219591   1.850   4.429   4.647 -1.7508  0.4184 -0.4094
 6544TIP3   OH219592   3.066   3.760   5.118 -0.1591  0.4735 -0.0799
 6544TIP3    H119593   3.089   3.852   5.101 -0.0565  0.5920  0.6972
 6544TIP3    H219594   3.148   3.712   5.103 -0.0592  0.5827  0.1144
 6545TIP3   OH219595   4.912   3.335   5.418  0.0423 -0.3316  0.0472
 6545TIP3    H119596   4.838   3.276   5.403 -1.4869  0.8612  2.6220
 6545TIP3    H219597   4.890   3.414   5.369  0.6377 -0.7289 -0.8857
 6546TIP3   OH219598   0.553   1.094   0.024  0.8973  0.2387  0.3266
 6546TIP3    H119599   0.494   1.022   0.046  0.0227  0.8770  0.0662
 6546TIP3    H219600   0.590   1.120   0.108  0.4248  0.1786  0.5553
 6547TIP3   OH219601   2.295   5.111   3.148  0.5530  0.4368  0.5011
 6547TIP3    H119602   2.218   5.088   3.200  1.1466  0.9625  1.6092
 6547TIP3    H219603   2.321   5.028   3.106  0.1195  0.0015  1.0866
 6548TIP3   OH219604   4.819   4.765   3.831 -0.4941 -0.4019 -0.9898
 6548TIP3    H119605   4.887   4.699   3.821  1.2773  0.7448  2.6208
 6548TIP3    H219606   4.764   4.733   3.902 -0.7089  1.0623 -0.4732
 6549TIP3   OH219607   4.343   4.102   6.048  0.0586  0.6188  0.1040
 6549TIP3    H119608   4.348   4.087   6.142 -1.8842  0.6375  0.2445
 6549TIP3    H219609   4.422   4.061   6.012 -0.2742 -1.3460  1.5310
 6550TIP3   OH219610   1.573   0.659   0.039 -0.1417 -0.1772 -0.5385
 6550TIP3    H119611   1.595   0.570   0.013  0.4358  0.1286 -1.0973
 6550TIP3    H219612   1.544   0.650   0.130 -1.8815 -1.1926 -1.1725
 6551TIP3   OH219613   1.491   3.721   3.859  0.3482 -0.1360 -0.5188
 6551TIP3    H119614   1.550   3.698   3.930  1.5185  0.3977 -1.3116
 6551TIP3    H219615   1.538   3.787   3.808 -1.3403  1.0872 -0.5682
 6552TIP3   OH219616   2.047   3.804   2.990  0.4752 -0.2785 -0.0069
 6552TIP3    H119617   1.960   3.829   3.020  0.5832 -1.5330  1.4080
 6552TIP3    H219618   2.104   3.874   3.022  0.2678 -0.4797  0.8089
 6553TIP3   OH219619   4.962   4.543   3.874 -0.3934 -0.2401 -0.9027
 6553TIP3    H119620   5.023   4.491   3.823  0.2196 -0.8341  0.4219
 6553TIP3    H219621   4.896   4.481   3.904 -0.5743  0.0513 -0.6912
 6554TIP3   OH219622   1.969   2.936   6.168 -0.2800 -0.5044  0.1312
 6554TIP3    H119623   1.992   2.987   6.091  0.8455  0.6473  1.2002
 6554TIP3    H219624   2.049   2.887   6.189 -0.8024 -1.3527  0.1495
 6555TIP3   OH219625   3.933   5.261   4.890  0.5679  0.2466 -0.0381
 6555TIP3    H119626   3.884   5.331   4.846 -1.2776 -0.5451  0.6926
 6555TIP3    H219627   3.988   5.224   4.821 -3.7409 -2.2818 -2.3442
 6556TIP3   OH219628   2.802   3.834   5.208  0.4182 -0.0965  0.0459
 6556TIP3    H119629   2.833   3.799   5.291  2.4824  2.5170  0.4628
 6556TIP3    H219630   2.879   3.833   5.151  0.0174  1.7151 -0.5666
 6557TIP3   OH219631   3.785   5.989   3.042  0.5623 -0.6179 -0.6907
 6557TIP3    H119632   3.761   6.039   2.964  2.5445 -0.5835 -1.3071
 6557TIP3    H219633   3.789   6.054   3.112 -0.0471 -0.4577 -0.7950
 6558TIP3   OH219634   2.738   4.210   4.426  0.2554  0.1545  0.0877
 6558TIP3    H119635   2.743   4.212   4.330 -0.6979 -1.0124  0.0053
 6558TIP3    H219636   2.774   4.295   4.453  1.0016  0.2881 -1.2739
 6559TIP3   OH219637   2.739   5.208   5.085 -0.2981 -0.0693  0.3711
 6559TIP3    H119638   2.693   5.225   5.003  1.0540 -1.2530 -0.6607
 6559TIP3    H219639   2.743   5.293   5.128 -0.5432  0.6695 -1.0354
 6560TIP3   OH219640   2.041   5.306   5.498 -0.4622  0.4978 -0.5414
 6560TIP3    H119641   2.124   5.348   5.476  0.3655 -0.7288  0.1779
 6560TIP3    H219642   2.018   5.254   5.421  0.7791 -1.2202  0.2194
 6561TIP3   OH219643   2.044   2.427   5.605 -0.6844  0.3432  0.4812
 6561TIP3    H119644   2.025   2.450   5.695 -0.1972 -0.3812  0.7733
 6561TIP3    H219645   1.957   2.420   5.563 -0.9698 -0.4857  1.1912
 6562TIP3   OH219646   3.018   4.086   4.224  0.5128 -0.6542 -0.3062
 6562TIP3    H119647   3.056   4.172   4.204  1.6963 -0.8704  0.8861
 6562TIP3    H219648   2.934   4.085   4.178 -0.7250  2.1818  1.7260
 6563TIP3   OH219649   3.186   6.482   0.777  0.0253 -0.7371  0.1680
 6563TIP3    H119650   3.134   6.524   0.846  0.7369 -0.2318  0.4061
 6563TIP3    H219651   3.184   6.389   0.799  0.2017 -0.5829  0.8416
 6564TIP3   OH219652   2.784   3.558   2.329  0.6514  0.3789 -0.0950
 6564TIP3    H119653   2.831   3.483   2.365 -0.5585 -0.0771  0.5356
 6564TIP3    H219654   2.831   3.634   2.363  1.8230 -0.0779 -0.6576
 6565TIP3   OH219655   1.050   5.064   4.128  0.8175 -0.0914 -0.1806
 6565TIP3    H119656   0.956   5.073   4.141  1.0145 -0.6847  1.7931
 6565TIP3    H219657   1.088   5.089   4.212  2.5062  1.3526 -1.3282
 6566TIP3   OH219658   3.683   5.841   3.381  0.1632  0.0294  0.2521
 6566TIP3    H119659   3.644   5.925   3.357 -1.2918 -0.9064 -0.7567
 6566TIP3    H219660   3.620   5.776   3.350  1.5070 -1.4533  0.5695
 6567TIP3   OH219661   5.877   0.088   0.925 -0.0526 -0.3680 -0.4260
 6567TIP3    H119662   5.920   0.119   1.005 -0.2004 -2.5521  0.5283
 6567TIP3    H219663   5.842   0.002   0.948 -0.1991 -0.9865 -2.8045
 6568TIP3   OH219664   3.831   3.544   5.361 -0.3712 -0.3842 -0.9275
 6568TIP3    H119665   3.835   3.609   5.431 -3.1963 -1.4923  0.3562
 6568TIP3    H219666   3.909   3.490   5.374  0.4866  1.0024 -0.2334
 6569TIP3   OH219667   1.701   7.035   3.076  0.3392 -0.2265  0.2127
 6569TIP3    H119668   1.685   7.049   3.170  0.7857 -1.1438  0.4370
 6569TIP3    H219669   1.781   7.085   3.058 -0.3747  0.8745  0.0587
 6570TIP3   OH219670   1.752   2.362   5.331  0.1965 -0.0996 -0.1566
 6570TIP3    H119671   1.674   2.366   5.275  1.0849 -2.8199 -1.7252
 6570TIP3    H219672   1.771   2.268   5.338  1.5681  0.3509  2.7124
 6571TIP3   OH219673   3.677   5.455   2.915 -0.5206  0.0516 -0.8460
 6571TIP3    H119674   3.646   5.500   2.837  0.2573  1.0731 -0.5872
 6571TIP3    H219675   3.659   5.362   2.899 -0.2504  0.2366 -2.2880
 6572TIP3   OH219676   2.754   4.153   5.381  0.3307  0.1448 -0.2135
 6572TIP3    H119677   2.780   4.067   5.415  0.8419  0.4894  0.2542
 6572TIP3    H219678   2.659   4.154   5.390  0.0622 -1.2530 -2.2402
 6573TIP3   OH219679   4.318   5.890   3.552  0.6826 -0.3086 -0.6902
 6573TIP3    H119680   4.305   5.981   3.527  1.7059  0.9087  2.8889
 6573TIP3    H219681   4.403   5.888   3.596  1.3246 -3.2704 -1.9388
 6574TIP3   OH219682   2.221   3.972   3.950 -0.2650 -0.0025 -0.1318
 6574TIP3    H119683   2.196   3.985   3.859  0.0138 -2.0498 -0.5321
 6574TIP3    H219684   2.302   4.022   3.960  1.2790 -2.0386 -1.8516
 6575TIP3   OH219685   5.007   4.207   5.591 -0.9152 -0.3761 -0.1003
 6575TIP3    H119686   5.082   4.170   5.545 -0.4671 -0.0254  0.3440
 6575TIP3    H219687   4.973   4.274   5.532  0.4216  0.9436  0.6038
 6576TIP3   OH219688   3.737   4.585   6.010  0.4536  0.2750  0.0895
 6576TIP3    H119689   3.707   4.516   6.069  1.9729  0.7538  1.4436
 6576TIP3    H219690   3.783   4.538   5.940  2.3555 -0.0527  1.5341
 6577TIP3   OH219691   2.613   4.619   4.635  0.0417 -0.4149  0.1568
 6577TIP3    H119692   2.701   4.596   4.666 -0.2289 -1.0842  0.4328
 6577TIP3    H219693   2.566   4.536   4.634 -0.6669 -0.0138  0.2403
 6578TIP3   OH219694   3.970   5.880   5.427  0.0468  0.0070 -0.0410
 6578TIP3    H119695   3.937   5.968   5.443 -1.0897 -0.5058  0.5535
 6578TIP3    H219696   3.905   5.822   5.469  0.2714 -1.1473 -1.2453
 6579TIP3   OH219697   4.585   4.745   4.824 -0.0680 -0.5167  0.0322
 6579TIP3    H119698   4.568   4.821   4.769 -1.0080 -0.8573 -0.1575
 6579TIP3    H219699   4.527   4.758   4.900 -0.9941 -1.5427 -0.4839
 6580TIP3   OH219700   1.576   3.696   4.142 -0.3669 -0.0254 -0.2470
 6580TIP3    H119701   1.491   3.654   4.153 -0.4231  0.3239  0.6659
 6580TIP3    H219702   1.615   3.696   4.229  0.3945  0.1987 -0.5803
 6581TIP3   OH219703   2.851   2.721   3.530 -0.1060  0.3148 -0.6983
 6581TIP3    H119704   2.762   2.752   3.510 -0.2994  0.0608 -0.2436
 6581TIP3    H219705   2.901   2.741   3.451 -0.2395  1.7096 -0.4347
 6582TIP3   OH219706   1.869   4.074   4.694  0.1259 -0.6245  0.3411
 6582TIP3    H119707   1.900   3.985   4.711 -0.2817 -0.6948  0.6943
 6582TIP3    H219708   1.861   4.078   4.598  2.0351 -0.3422  0.1627
 6583TIP3   OH219709   3.352   6.438   6.187 -0.0450  0.5435  0.5746
 6583TIP3    H119710   3.342   6.373   6.256  0.3365  0.8744  0.9412
 6583TIP3    H219711   3.393   6.390   6.115  0.4284  0.4239  0.9182
 6584TIP3   OH219712   2.906   4.592   3.822 -0.4182 -0.6646  0.4288
 6584TIP3    H119713   2.949   4.538   3.755 -0.0597 -0.6349  0.6321
 6584TIP3    H219714   2.963   4.585   3.898 -0.7316 -0.5525  0.6765
 6585TIP3   OH219715   0.706   1.126   6.324 -0.2751 -0.5920  0.3916
 6585TIP3    H119716   0.756   1.178   6.387  1.5787 -2.1543  0.2743
 6585TIP3    H219717   0.666   1.057   6.376 -1.0285 -0.2665  0.2501
 6586TIP3   OH219718   3.040   5.687   4.363 -0.3109  0.3024 -0.2363
 6586TIP3    H119719   3.004   5.771   4.333 -1.8215 -0.1760  0.1518
 6586TIP3    H219720   3.008   5.624   4.298 -1.0889 -0.2961  0.7142
 6587TIP3   OH219721   3.935   3.220   3.151 -0.2969  0.0632 -0.0214
 6587TIP3    H119722   3.844   3.213   3.121 -0.2946 -1.7475  0.3396
 6587TIP3    H219723   3.936   3.173   3.234  1.0789 -0.3493 -0.2650
 6588TIP3   OH219724   4.204   4.841   5.021  0.2188 -0.0407  0.0075
 6588TIP3    H119725   4.196   4.907   5.090  1.1824  0.2812 -0.1844
 6588TIP3    H219726   4.120   4.844   4.976  0.2437  1.0359  0.0242
 6589TIP3   OH219727   3.278   4.537   4.831  0.1935 -0.0095 -0.0503
 6589TIP3    H119728   3.199   4.590   4.829  0.3128  0.1782  0.0873
 6589TIP3    H219729   3.346   4.597   4.864  0.1396 -0.4877  0.9609
 6590TIP3   OH219730   3.689   3.400   3.533 -0.3556  0.0877  0.1042
 6590TIP3    H119731   3.705   3.371   3.623  1.7658  1.4333  0.1826
 6590TIP3    H219732   3.614   3.348   3.504  1.2148 -2.9950  1.3856
 6591TIP3   OH219733   2.313   6.785   4.475 -0.1829  0.2291  0.8769
 6591TIP3    H119734   2.260   6.735   4.413  1.0186  1.0508 -0.8669
 6591TIP3    H219735   2.275   6.765   4.561 -3.2424  0.7374 -0.2914
 6592TIP3   OH219736   1.436   3.827   5.062  0.0445 -0.1756 -0.1070
 6592TIP3    H119737   1.512   3.769   5.059  0.8420  0.7047  2.4303
 6592TIP3    H219738   1.362   3.769   5.043  0.9969 -1.7320  0.8254
 6593TIP3   OH219739   5.509   6.784   0.615  0.1547 -0.2928  0.8191
 6593TIP3    H119740   5.571   6.710   0.614 -0.8791 -1.1673 -1.5173
 6593TIP3    H219741   5.557   6.855   0.573  0.7203  0.0377  1.9895
 6594TIP3   OH219742   1.108   2.780   4.316  0.6456 -0.1552 -0.3449
 6594TIP3    H119743   1.059   2.829   4.250 -2.4134  0.9871  2.6025
 6594TIP3    H219744   1.085   2.688   4.300  0.6391  0.0195 -1.3843
 6595TIP3   OH219745   3.156   3.608   3.285  0.1330 -0.3395 -0.4752
 6595TIP3    H119746   3.175   3.622   3.193 -0.7214  1.7826 -0.3560
 6595TIP3    H219747   3.067   3.641   3.297  0.1526 -0.7921  1.0561
 6596TIP3   OH219748   2.245   3.046   3.735  0.4813  0.0252 -0.1214
 6596TIP3    H119749   2.279   3.093   3.659 -1.8866  1.6223 -0.2422
 6596TIP3    H219750   2.284   3.090   3.811  0.7343  0.1689 -0.3386
 6597TIP3   OH219751   2.859   4.329   4.965  0.1439 -0.2236 -0.1739
 6597TIP3    H119752   2.768   4.315   4.993  0.5786 -1.0285  0.8627
 6597TIP3    H219753   2.912   4.282   5.030  1.2344 -1.0613 -1.6308
 6598TIP3   OH219754   6.647   5.079   5.829  0.3239  0.1040  0.0017
 6598TIP3    H119755   6.557   5.062   5.857  0.4385 -1.2689 -0.4107
 6598TIP3    H219756   6.651   5.174   5.816 -1.2988  0.0907 -0.7733
 6599TIP3   OH219757   0.016   0.460   0.582 -0.4003 -0.2860  0.1637
 6599TIP3    H119758   0.086   0.461   0.516 -1.4079  0.9724 -0.8877
 6599TIP3    H219759   0.051   0.512   0.654  0.1821 -0.5788  0.1020
 6600TIP3   OH219760   4.524   5.485   4.991  0.2856 -1.0589  0.0311
 6600TIP3    H119761   4.518   5.570   5.035 -0.8656 -0.3099 -1.5360
 6600TIP3    H219762   4.548   5.424   5.061  3.0560  0.8439  0.8314
 6601TIP3   OH219763   2.593   6.061   4.547 -0.0523  0.6133  0.0957
 6601TIP3    H119764   2.564   6.143   4.507  0.6699  1.2575  0.8530
 6601TIP3    H219765   2.666   6.032   4.492 -1.4395 -0.4586 -1.1989
 6602TIP3   OH219766   4.481   4.747   3.708 -0.2538 -0.6284 -0.1637
 6602TIP3    H119767   4.483   4.749   3.804 -1.1337 -0.6473 -0.1380
 6602TIP3    H219768   4.554   4.802   3.681  0.3864 -1.1277  0.5171
 6603TIP3   OH219769   1.601   6.323   5.037  0.2403  0.0969 -0.0129
 6603TIP3    H119770   1.604   6.287   5.126  0.8427 -2.0360 -0.8528
 6603TIP3    H219771   1.663   6.396   5.039  0.5073 -0.1470  1.2376
 6604TIP3   OH219772   1.193   4.778   4.665 -0.3889 -0.3577  0.1983
 6604TIP3    H119773   1.252   4.720   4.713 -1.8697 -1.4207  0.7664
 6604TIP3    H219774   1.174   4.850   4.726  0.9033  0.3913 -0.2623
 6605TIP3   OH219775   4.985   5.083   5.319 -0.5490 -0.4350 -0.3260
 6605TIP3    H119776   5.041   5.008   5.298  2.6302  0.8524  2.8154
 6605TIP3    H219777   4.937   5.056   5.397  0.0226  0.4953  0.3577
 6606TIP3   OH219778   2.283   5.928   3.557  0.0209  0.0880 -0.4681
 6606TIP3    H119779   2.198   5.902   3.593 -0.1768  1.3323 -0.0035
 6606TIP3    H219780   2.263   5.995   3.492  0.6619  0.6245 -0.1231
 6607TIP3   OH219781   3.013   5.483   5.019 -0.5024  0.1278 -0.2303
 6607TIP3    H119782   3.020   5.528   5.103 -2.1399  0.2317 -0.1384
 6607TIP3    H219783   3.044   5.394   5.037 -0.8369  0.1517  0.4804
 6608TIP3   OH219784   3.533   5.673   4.384  0.0239 -0.0135  0.1478
 6608TIP3    H119785   3.499   5.661   4.473  1.0556  1.3584  0.7561
 6608TIP3    H219786   3.555   5.766   4.379  0.8878 -0.2729 -1.2118
 6609TIP3   OH219787   0.187   6.703   4.844 -0.5868 -0.0974  0.2886
 6609TIP3    H119788   0.120   6.645   4.808  0.0268 -0.5177 -0.1960
 6609TIP3    H219789   0.242   6.647   4.898 -0.4483  0.1852  0.4439
 6610TIP3   OH219790   4.493   5.736   5.078  0.2650 -0.0430 -0.3477
 6610TIP3    H119791   4.501   5.764   4.987  1.0444 -2.7385 -1.1434
 6610TIP3    H219792   4.399   5.725   5.092  0.0959  1.0105 -0.6073
 6611TIP3   OH219793   1.014   3.549   3.128 -0.3123 -0.1767  0.5964
 6611TIP3    H119794   1.011   3.454   3.133 -0.3585 -0.1845  0.4268
 6611TIP3    H219795   1.099   3.568   3.087 -0.6025 -0.1726 -0.0100
 6612TIP3   OH219796   4.859   5.656   4.466 -0.2696 -0.3008 -0.4435
 6612TIP3    H119797   4.882   5.700   4.383 -2.3816  0.6738 -0.5602
 6612TIP3    H219798   4.935   5.670   4.522  0.8490 -0.2255 -1.9297
 6613TIP3   OH219799   1.725   6.178   3.020  0.3294  0.0178  0.4087
 6613TIP3    H119800   1.639   6.159   3.059 -0.0693 -0.6636 -0.7540
 6613TIP3    H219801   1.713   6.160   2.927  0.3597  4.6432 -0.6097
 6614TIP3   OH219802   2.301   5.040   5.591 -0.3963 -0.3559  0.2476
 6614TIP3    H119803   2.356   4.974   5.633  0.0711 -0.2025 -0.1105
 6614TIP3    H219804   2.363   5.096   5.544 -0.8598 -0.1972 -0.1832
 6615TIP3   OH219805   7.470   5.623   4.593  0.1946 -0.0647  0.2974
 6615TIP3    H119806   7.469   5.603   4.499 -0.8084 -0.8794  0.4802
 6615TIP3    H219807   7.532   5.696   4.601 -0.3115  0.5293 -1.0986
 6616TIP3   OH219808   2.428   4.441   4.357 -0.8585  0.0315  0.1896
 6616TIP3    H119809   2.479   4.418   4.279 -1.4384 -0.0323 -0.1760
 6616TIP3    H219810   2.429   4.536   4.360 -0.2569  0.0157  0.4930
 6617TIP3   OH219811   3.015   3.154   5.284  0.0070 -0.1214 -0.7105
 6617TIP3    H119812   2.950   3.179   5.219  0.4460  0.6052 -0.8780
 6617TIP3    H219813   2.976   3.178   5.368 -0.9240 -1.8530 -0.6327
 6618TIP3   OH219814   3.086   3.429   5.684  0.1718  0.2005 -0.0005
 6618TIP3    H119815   3.025   3.500   5.706  0.5077  0.2117  0.8785
 6618TIP3    H219816   3.099   3.438   5.590  0.2101  1.3053  0.1078
 6619TIP3   OH219817   0.396   7.207   2.601 -0.3178 -0.1608  0.5690
 6619TIP3    H119818   0.370   7.169   2.685 -0.0460  0.3177  0.8734
 6619TIP3    H219819   0.468   7.151   2.571  1.2625  1.1370  1.8617
 6620TIP3   OH219820   3.105   4.485   3.648 -0.4573  0.3796  0.0587
 6620TIP3    H119821   3.150   4.400   3.642 -3.0222 -1.2729  2.7582
 6620TIP3    H219822   3.080   4.505   3.558  0.2600 -1.7075 -0.6464
 6621TIP3   OH219823   3.071   3.002   4.958  0.2403 -0.3196  0.5149
 6621TIP3    H119824   3.018   2.928   4.987  0.0201  0.1941  1.4291
 6621TIP3    H219825   3.017   3.079   4.976  1.2253  0.1911  1.2959
 6622TIP3   OH219826   4.095   3.114   2.086 -0.3054 -0.0389 -0.1867
 6622TIP3    H119827   4.034   3.182   2.111 -1.0529 -0.7345 -0.0965
 6622TIP3    H219828   4.130   3.081   2.169  0.4614  0.5941 -0.2512
 6623TIP3   OH219829   1.371   3.955   4.114 -0.2735  0.0511 -0.6688
 6623TIP3    H119830   1.397   3.867   4.140 -0.3516 -0.0225 -0.8404
 6623TIP3    H219831   1.437   3.983   4.051 -1.4097 -0.7161 -2.2497
 6624TIP3   OH219832   3.551   5.374   4.751  0.4858  0.5977 -0.0490
 6624TIP3    H119833   3.487   5.445   4.758 -1.2193 -0.6758 -1.9756
 6624TIP3    H219834   3.635   5.418   4.737 -0.3899  2.2422 -0.1900
 6625TIP3   OH219835   7.233   2.405   4.063  0.3112 -0.0112  0.1859
 6625TIP3    H119836   7.163   2.372   4.119  1.5664 -2.5026  0.3371
 6625TIP3    H219837   7.311   2.404   4.118  0.9902  0.2587 -0.7425
 6626TIP3   OH219838   1.599   4.817   4.759 -0.4568 -0.0793 -0.3526
 6626TIP3    H119839   1.692   4.794   4.759 -0.3929  0.1640 -0.8623
 6626TIP3    H219840   1.554   4.733   4.748 -0.2219  0.0234 -2.3535
 6627TIP3   OH219841   0.528   0.378   0.069 -0.3516 -0.0035 -0.0348
 6627TIP3    H119842   0.579   0.339  -0.002  0.6721  0.5739  0.3616
 6627TIP3    H219843   0.531   0.312   0.139  2.8298  1.3982  1.2716
 6628TIP3   OH219844   3.517   6.213   5.322  0.3357  0.1934 -0.1902
 6628TIP3    H119845   3.539   6.285   5.381  0.0073 -0.1393  0.3456
 6628TIP3    H219846   3.451   6.249   5.263 -1.4112 -0.2596  1.4299
 6629TIP3   OH219847   2.695   4.388   3.785  0.4851  0.3483 -0.1997
 6629TIP3    H119848   2.696   4.307   3.836 -1.6814  0.4184  0.0140
 6629TIP3    H219849   2.768   4.378   3.723 -0.6866 -2.4572 -1.2427
 6630TIP3   OH219850   3.369   5.302   3.874 -0.4667 -0.4707 -0.3185
 6630TIP3    H119851   3.414   5.309   3.958 -0.5833 -4.1103  0.1005
 6630TIP3    H219852   3.287   5.350   3.886 -1.0966 -2.1063  2.1098
 6631TIP3   OH219853   3.299   2.914   3.501 -0.0366 -0.1446  0.0215
 6631TIP3    H119854   3.288   2.828   3.463  2.2778  0.5499 -2.3735
 6631TIP3    H219855   3.223   2.964   3.471  0.5213 -0.3046 -1.7086
 6632TIP3   OH219856   0.275   4.251   4.872 -0.0401  0.0774 -0.0876
 6632TIP3    H119857   0.254   4.320   4.809 -1.7067 -0.9124 -0.6299
 6632TIP3    H219858   0.340   4.197   4.826  1.7510  1.6245  0.5826
 6633TIP3   OH219859   7.265   2.918   4.913 -0.2892  0.0338  0.3119
 6633TIP3    H119860   7.336   2.982   4.908  0.0485 -0.3474  0.2439
 6633TIP3    H219861   7.306   2.834   4.891 -0.5740 -0.3241  1.1385
 6634TIP3   OH219862   2.752   3.873   6.229  0.1208 -0.3244 -0.1010
 6634TIP3    H119863   2.828   3.835   6.185  0.0351 -0.8910  0.2335
 6634TIP3    H219864   2.788   3.923   6.302  0.2814  0.8631 -0.9947
 6635TIP3   OH219865   0.047   3.059   3.312  0.0008  0.2754  0.2729
 6635TIP3    H119866   0.135   3.095   3.301 -0.0028  0.2225  0.0768
 6635TIP3    H219867   0.046   2.980   3.259 -0.4231  0.7020 -0.3601
 6636TIP3   OH219868   3.457   4.694   4.956  0.3405 -0.2265 -0.2202
 6636TIP3    H119869   3.446   4.786   4.929  1.9382  0.2344  0.6148
 6636TIP3    H219870   3.543   4.670   4.920  1.1984 -0.5050  1.9508
 6637TIP3   OH219871   4.013   5.452   0.690 -0.5913  0.1958  0.1248
 6637TIP3    H119872   4.095   5.407   0.672 -0.9818 -0.8080  0.8181
 6637TIP3    H219873   4.017   5.473   0.783 -0.3397  1.7698 -0.2224
 6638TIP3   OH219874   1.761   4.592   1.276  0.2825 -0.4395  0.0400
 6638TIP3    H119875   1.724   4.507   1.302 -0.3971  0.1969  1.2043
 6638TIP3    H219876   1.848   4.570   1.243  0.5350 -1.5031  1.3253
 6639TIP3   OH219877   4.393   6.569   0.456 -0.3723  0.0492 -0.0175
 6639TIP3    H119878   4.382   6.611   0.541  1.2433  0.7905 -0.1663
 6639TIP3    H219879   4.377   6.639   0.392  2.5113  0.5351 -0.2644
 6640TIP3   OH219880   1.677   3.892   3.764  0.1049  0.1406 -0.5860
 6640TIP3    H119881   1.643   3.959   3.704  0.6828  0.7940 -0.1963
 6640TIP3    H219882   1.766   3.875   3.733  0.4487  0.5734  0.1619
 6641TIP3   OH219883   2.392   4.286   5.778  0.2802 -0.7462  0.5305
 6641TIP3    H119884   2.430   4.201   5.757  0.5640 -0.9937  1.9449
 6641TIP3    H219885   2.462   4.349   5.759  0.6992 -1.0075  1.1742
 6642TIP3   OH219886   4.094   5.090   4.291 -0.4299 -0.3489  0.0168
 6642TIP3    H119887   4.163   5.028   4.313 -0.2567 -0.0857  0.2171
 6642TIP3    H219888   4.108   5.164   4.350 -1.1914 -0.5154  0.4217
 6643TIP3   OH219889   3.999   3.432   2.637  0.4468  0.4502  0.1093
 6643TIP3    H119890   4.044   3.354   2.607 -2.4641 -1.3779  0.3061
 6643TIP3    H219891   4.012   3.431   2.732  0.8261  0.5005  0.0609
 6644TIP3   OH219892   2.492   2.683   3.942  0.2681  0.3042 -0.5615
 6644TIP3    H119893   2.405   2.721   3.945  0.5896  1.0234 -0.2894
 6644TIP3    H219894   2.550   2.753   3.971  0.6708 -0.9921  1.8993
 6645TIP3   OH219895   4.085   3.396   3.330 -0.2653  0.4842  0.2267
 6645TIP3    H119896   4.041   3.359   3.253  0.6372 -0.6141  0.2252
 6645TIP3    H219897   4.161   3.339   3.344 -0.3330  0.7650  1.8384
 6646TIP3   OH219898   7.109   3.700   0.644  0.1070  0.6232  0.5993
 6646TIP3    H119899   7.081   3.740   0.727 -1.5864 -1.1066  0.8951
 6646TIP3    H219900   7.057   3.621   0.637  0.7378  0.3868 -1.8176
 6647TIP3   OH219901   2.970   7.158   3.651  0.4011 -0.2187 -0.3017
 6647TIP3    H119902   2.981   7.068   3.680  0.5123 -0.0869  0.0735
 6647TIP3    H219903   3.015   7.210   3.718  0.6700  0.0896 -0.7183
 6648TIP3   OH219904   2.637   3.010   6.041  0.0858  0.0611 -0.3192
 6648TIP3    H119905   2.614   3.094   6.079  0.6904 -0.0387  0.2979
 6648TIP3    H219906   2.608   2.945   6.106 -0.0556 -0.1868 -0.6258
 6649TIP3   OH219907   7.725   2.560   5.340 -0.4709  0.1162  0.0064
 6649TIP3    H119908   7.768   2.641   5.313  0.3218 -0.2748  0.0890
 6649TIP3    H219909   7.796   2.506   5.377 -1.0338 -0.5159  0.1715
 6650TIP3   OH219910   2.435   3.298   5.375 -0.2115 -0.0867 -0.4035
 6650TIP3    H119911   2.365   3.360   5.396  0.3489  0.3577  0.1667
 6650TIP3    H219912   2.492   3.346   5.315  1.0217  0.4848  1.1801
 6651TIP3   OH219913   3.366   5.099   5.622 -0.1456 -0.1569  0.8442
 6651TIP3    H119914   3.315   5.115   5.542 -1.2644  2.0998  1.9590
 6651TIP3    H219915   3.358   5.005   5.636 -4.1887  0.1139  1.0292
 6652TIP3   OH219916   5.418   6.913   0.134 -0.8686  0.1932  0.2954
 6652TIP3    H119917   5.386   6.954   0.053  0.6190  0.3966 -0.2062
 6652TIP3    H219918   5.397   6.820   0.124  0.0782  0.0761 -0.7250
 6653TIP3   OH219919   2.223   3.747   5.541 -0.0246  0.1425  0.5106
 6653TIP3    H119920   2.147   3.721   5.592  0.1538  1.6872  1.6178
 6653TIP3    H219921   2.190   3.814   5.481  0.2654  0.1199  0.3257
 6654TIP3   OH219922   4.172   4.204   4.906  0.3626 -0.4739 -0.0059
 6654TIP3    H119923   4.252   4.230   4.861  1.0437  0.9954  1.9871
 6654TIP3    H219924   4.190   4.116   4.939  0.1385 -1.2463 -1.8563
 6655TIP3   OH219925   1.257   4.035   5.281 -0.4787 -0.1330 -0.2450
 6655TIP3    H119926   1.247   4.056   5.188  0.0282  2.1486  0.1645
 6655TIP3    H219927   1.168   4.040   5.316 -0.3035  2.2036 -0.0336
 6656TIP3   OH219928   3.074   5.090   1.984 -0.0113 -0.1303 -0.2652
 6656TIP3    H119929   3.130   5.056   1.915 -0.9658 -0.5814 -0.8375
 6656TIP3    H219930   2.985   5.080   1.950 -0.5239 -0.7013  1.1737
 6657TIP3   OH219931   2.196   3.838   4.730 -0.1653 -0.2958  0.7198
 6657TIP3    H119932   2.110   3.809   4.699  0.9388 -1.8357 -1.0658
 6657TIP3    H219933   2.257   3.804   4.664  1.7569  1.2803  1.6390
 6658TIP3   OH219934   1.951   6.390   3.953 -0.1582  0.1268 -0.0571
 6658TIP3    H119935   1.919   6.422   3.869 -1.8672  0.9836  0.8896
 6658TIP3    H219936   2.007   6.316   3.931  0.0996  0.8736 -1.9968
 6659TIP3   OH219937   1.047   1.622   6.117 -0.1668 -0.0104  0.3328
 6659TIP3    H119938   1.011   1.703   6.152 -0.3722 -0.2700  0.7227
 6659TIP3    H219939   1.062   1.567   6.194  0.6477 -0.0698  0.1361
 6660TIP3   OH219940   4.065   5.941   2.651 -0.0445  0.0054  0.0246
 6660TIP3    H119941   3.986   5.993   2.639  0.4642  0.5541 -1.0334
 6660TIP3    H219942   4.047   5.858   2.609 -0.0927  0.0954 -0.1329
 6661TIP3   OH219943   3.742   4.762   5.754 -0.5479 -0.2182  0.3209
 6661TIP3    H119944   3.662   4.715   5.733  0.7577 -2.2858 -0.1077
 6661TIP3    H219945   3.758   4.744   5.846  0.0766 -0.8080  0.0997
 6662TIP3   OH219946   2.288   7.367   6.092 -0.6044  0.2149 -0.2171
 6662TIP3    H119947   2.287   7.281   6.050 -1.7716 -0.0755  0.4082
 6662TIP3    H219948   2.208   7.410   6.061 -0.2614  0.9061 -0.1579
 6663TIP3   OH219949   4.359   6.194   3.676  0.3835 -0.8911  0.1260
 6663TIP3    H119950   4.432   6.166   3.730  1.7072  1.0808 -0.5730
 6663TIP3    H219951   4.283   6.188   3.733  1.0053 -3.3868  0.7258
 6664TIP3   OH219952   2.380   4.856   3.058 -0.0488  0.0586  0.1613
 6664TIP3    H119953   2.456   4.810   3.022  1.0401  1.0159  1.2132
 6664TIP3    H219954   2.312   4.843   2.992  1.1617 -0.3949 -1.0333
 6665TIP3   OH219955   4.891   5.308   3.806 -0.0037 -0.2472 -0.2209
 6665TIP3    H119956   4.904   5.325   3.713  1.3840  1.1513  0.1853
 6665TIP3    H219957   4.938   5.226   3.823  2.4014  1.0693 -0.1980
 6666TIP3   OH219958   1.315   0.567   1.204 -0.3134 -0.1916 -0.1912
 6666TIP3    H119959   1.317   0.473   1.185 -1.1202 -0.0734 -0.9031
 6666TIP3    H219960   1.288   0.573   1.296 -1.2184 -0.6285 -0.4284
 6667TIP3   OH219961   3.278   7.009   3.977 -0.6373  0.0174  0.0863
 6667TIP3    H119962   3.342   7.080   3.990 -2.7864  2.3554 -1.7116
 6667TIP3    H219963   3.319   6.951   3.913  0.3272  0.6748  0.0981
 6668TIP3   OH219964   0.669   3.504   6.227  0.4218  0.3664  1.0914
 6668TIP3    H119965   0.690   3.473   6.316  0.2427  0.1838  1.0702
 6668TIP3    H219966   0.753   3.506   6.182  0.2677 -1.3499  0.7014
 6669TIP3   OH219967   3.634   4.224   5.368  0.3102  0.7499 -0.3233
 6669TIP3    H119968   3.540   4.210   5.383  0.7619 -0.2539  1.8682
 6669TIP3    H219969   3.655   4.300   5.421  0.9242  0.3561  0.0011
 6670TIP3   OH219970   3.812   4.675   5.439 -0.1129  0.1133  0.3553
 6670TIP3    H119971   3.776   4.756   5.474 -1.3653 -0.3493  0.1545
 6670TIP3    H219972   3.838   4.697   5.350  0.9186  0.6728  0.7805
 6671TIP3   OH219973   3.224   3.651   3.536 -0.2575 -0.1393 -0.0707
 6671TIP3    H119974   3.317   3.663   3.513 -0.3280 -1.6252 -1.2507
 6671TIP3    H219975   3.178   3.651   3.452 -1.1921 -0.4206  0.4325
 6672TIP3   OH219976   4.498   4.468   4.823  0.6006  0.5942  0.5363
 6672TIP3    H119977   4.416   4.454   4.775  1.3038 -0.5166 -0.3678
 6672TIP3    H219978   4.502   4.562   4.837 -1.0069  0.6203  0.9017
 6673TIP3   OH219979   4.442   3.686   5.454  0.5144  0.4578 -0.2432
 6673TIP3    H119980   4.407   3.654   5.537  2.6226  0.4699  0.6656
 6673TIP3    H219981   4.411   3.777   5.449  0.3647  0.4532  0.5342
 6674TIP3   OH219982   2.715   2.611   2.782  0.1789  0.2470 -0.4493
 6674TIP3    H119983   2.762   2.598   2.864  0.6882  1.2877 -0.5672
 6674TIP3    H219984   2.730   2.703   2.760 -2.6626  0.8380 -0.0317
 6675TIP3   OH219985   4.398   5.496   4.491 -0.4255 -0.2562  0.3319
 6675TIP3    H119986   4.383   5.506   4.586  0.7192  1.7276  0.3224
 6675TIP3    H219987   4.479   5.544   4.474 -1.6353  1.0396 -1.9834
 6676TIP3   OH219988   3.345   6.124   3.578  0.3571  0.5732  0.2884
 6676TIP3    H119989   3.428   6.170   3.586 -0.9225  2.9112  0.7300
 6676TIP3    H219990   3.279   6.193   3.588 -1.6035 -0.9614 -1.6250
 6677TIP3   OH219991   1.370   3.634   5.581  0.0399  0.4664  0.4734
 6677TIP3    H119992   1.392   3.726   5.565  0.1802  0.4247  0.4211
 6677TIP3    H219993   1.436   3.605   5.644  0.6965  0.0912 -0.3735
 6678TIP3   OH219994   2.418   4.063   5.099  0.5274 -0.0880 -0.0562
 6678TIP3    H119995   2.479   3.992   5.081  0.2812  0.2347 -2.3024
 6678TIP3    H219996   2.343   4.046   5.041 -1.1879 -0.0335  2.0697
 6679TIP3   OH219997   3.400   2.474   3.953 -0.5436 -0.3321  0.0212
 6679TIP3    H119998   3.433   2.486   3.863 -0.7655  1.4922  0.1494
 6679TIP3    H219999   3.310   2.506   3.949 -0.9457 -1.3900  0.6284
 6680TIP3   OH220000   0.964   3.586   3.906  0.8180  0.1603  0.0489
 6680TIP3    H120001   1.039   3.646   3.909  2.8745 -2.3532  0.9445
 6680TIP3    H220002   1.003   3.499   3.918 -2.2894 -1.1941  0.6680
 6681TIP3   OH220003   3.076   5.317   3.388 -0.6531 -0.3425  0.4702
 6681TIP3    H120004   3.032   5.282   3.311 -0.3995 -0.5198  0.4066
 6681TIP3    H220005   3.116   5.399   3.358  1.0366 -1.3459 -0.0710
 6682TIP3   OH220006   7.592   3.732   5.962 -0.6136  0.7414 -0.9080
 6682TIP3    H120007   7.584   3.641   5.932 -3.2292  1.3519 -2.1098
 6682TIP3    H220008   7.684   3.754   5.945 -0.1647 -1.3852 -1.4238
 6683TIP3   OH220009   3.770   4.047   4.596 -0.3633  0.7552 -0.1584
 6683TIP3    H120010   3.777   3.962   4.640  2.4397  0.9441 -0.1790
 6683TIP3    H220011   3.811   4.032   4.510 -0.5068  1.9370 -0.4336
 6684TIP3   OH220012   2.750   5.428   3.114 -0.8670  0.0325 -0.0839
 6684TIP3    H120013   2.754   5.509   3.063  0.1428 -0.7681 -1.3034
 6684TIP3    H220014   2.675   5.381   3.079  0.3131 -0.8858 -1.4040
 6685TIP3   OH220015   3.016   4.081   4.830  0.7457 -0.2410 -0.1303
 6685TIP3    H120016   2.980   4.164   4.863  0.1896 -0.1893 -0.8650
 6685TIP3    H220017   2.953   4.015   4.857  0.4549 -0.2410 -0.8101
 6686TIP3   OH220018   2.986   3.211   3.600  0.3709 -0.9032  0.4983
 6686TIP3    H120019   2.982   3.117   3.581  1.1123 -1.1670  1.6265
 6686TIP3    H220020   2.981   3.253   3.514 -2.2588 -1.8882  0.1192
 6687TIP3   OH220021   2.861   5.319   5.456  0.2307  0.0322  0.4734
 6687TIP3    H120022   2.784   5.352   5.503 -1.5013 -1.5927 -1.1180
 6687TIP3    H220023   2.874   5.231   5.490 -0.7669 -0.9931 -1.7216
 6688TIP3   OH220024   2.005   4.369   3.896  0.0381  0.2413 -0.2069
 6688TIP3    H120025   2.090   4.361   3.851  0.7103 -1.3734  1.2733
 6688TIP3    H220026   1.952   4.299   3.859  0.2361 -0.4096  0.7288
 6689TIP3   OH220027   3.802   6.249   3.156  0.6264  0.2508 -0.4261
 6689TIP3    H120028   3.895   6.252   3.177  0.2230  0.9472  1.3335
 6689TIP3    H220029   3.784   6.332   3.111  1.0116 -0.2317 -1.4791
 6690TIP3   OH220030   5.410   5.110   3.063  0.4197 -0.2597 -0.0368
 6690TIP3    H120031   5.413   5.145   2.974  0.5269  2.5900  1.0653
 6690TIP3    H220032   5.412   5.186   3.120  0.7455 -2.0537  2.4551
 6691TIP3   OH220033   4.068   0.491   5.240 -0.0422 -0.3853 -0.1296
 6691TIP3    H120034   4.012   0.423   5.204  0.1515 -0.3224 -0.5528
 6691TIP3    H220035   4.147   0.445   5.269  0.1457 -0.3242 -0.5395
 6692TIP3   OH220036   1.917   6.270   5.918 -0.1640 -0.0576 -0.4259
 6692TIP3    H120037   1.933   6.316   6.001 -1.7456 -0.7423  0.2642
 6692TIP3    H220038   2.005   6.254   5.883  0.7609 -3.2092  3.0007
 6693TIP3   OH220039   1.898   3.492   5.878 -0.2528  0.3490  0.0146
 6693TIP3    H120040   1.885   3.414   5.823 -0.3563  1.0496 -0.9828
 6693TIP3    H220041   1.988   3.484   5.909 -0.7964 -1.0159  1.2964
 6694TIP3   OH220042   1.867   3.218   5.845  0.5778 -0.3608  0.1521
 6694TIP3    H120043   1.811   3.142   5.831  1.6391 -1.3381  1.1540
 6694TIP3    H220044   1.819   3.273   5.907 -0.0393 -0.3452 -0.3282
 6695TIP3   OH220045   2.394   2.401   4.394  0.1690  0.4223 -0.0841
 6695TIP3    H120046   2.364   2.474   4.339 -2.1241 -0.3305  0.0893
 6695TIP3    H220047   2.438   2.443   4.467  0.4151  1.5615 -0.8650
 6696TIP3   OH220048   1.933   1.531   4.379  0.9329 -0.0005  0.1711
 6696TIP3    H120049   1.865   1.464   4.366 -1.0094  1.7137  1.2894
 6696TIP3    H220050   1.885   1.612   4.393  3.2838  1.8839 -2.2845
 6697TIP3   OH220051   2.690   3.518   5.031 -0.1452 -0.1893  0.5110
 6697TIP3    H120052   2.626   3.549   5.095  0.1736  1.7084 -0.0481
 6697TIP3    H220053   2.661   3.430   5.008 -2.4591  0.5592  0.4211
 6698TIP3   OH220054   1.678   2.833   4.663 -0.4477 -0.2295 -0.7721
 6698TIP3    H120055   1.614   2.888   4.708  0.2359  1.0164 -1.2971
 6698TIP3    H220056   1.762   2.856   4.703 -0.0730 -0.4390 -1.4320
 6699TIP3   OH220057   2.717   2.917   4.584  0.4672  0.5834 -0.1791
 6699TIP3    H120058   2.636   2.941   4.540  0.2089 -1.0326 -0.6196
 6699TIP3    H220059   2.782   2.912   4.514  0.0202 -2.1565 -0.4624
 6700TIP3   OH220060   3.370   4.336   5.262  0.3206 -0.2542  0.2251
 6700TIP3    H120061   3.326   4.413   5.228  1.4448  1.2015  1.9836
 6700TIP3    H220062   3.459   4.341   5.226  0.2618 -0.9906 -0.0342
 6701TIP3   OH220063   2.201   3.423   3.880 -0.0825  0.9424  0.2131
 6701TIP3    H120064   2.223   3.409   3.788  0.0187  2.8553 -0.0689
 6701TIP3    H220065   2.284   3.412   3.927 -0.0146  0.5995  0.0180
 6702TIP3   OH220066   3.183   4.626   4.542  0.2832 -0.2693  0.6566
 6702TIP3    H120067   3.242   4.700   4.558 -0.2243  0.1876  0.4385
 6702TIP3    H220068   3.204   4.563   4.611 -0.2995  0.7091  1.7354
 6703TIP3   OH220069   2.234   3.362   4.972  0.2264  0.1752  0.2718
 6703TIP3    H120070   2.218   3.338   4.881  1.6441  0.8296 -0.1730
 6703TIP3    H220071   2.171   3.311   5.022 -2.7039  2.1860 -1.2805
 6704TIP3   OH220072   0.291   5.692   3.884  0.3212 -0.0405 -0.2404
 6704TIP3    H120073   0.368   5.744   3.862  1.5359 -0.6781  2.2924
 6704TIP3    H220074   0.279   5.706   3.978 -2.7185  0.0985 -0.5945
 6705TIP3   OH220075   2.506   6.687   3.013 -0.0726  0.2710 -0.3688
 6705TIP3    H120076   2.507   6.603   3.059  1.6492 -0.5397 -1.8182
 6705TIP3    H220077   2.417   6.720   3.025 -1.3301 -2.6219 -1.2600
 6706TIP3   OH220078   3.212   1.512   4.832  0.6060 -0.5336  0.2875
 6706TIP3    H120079   3.185   1.581   4.772 -0.3499  0.7624  2.1366
 6706TIP3    H220080   3.288   1.471   4.790  0.4083  0.8071 -1.4239
 6707TIP3   OH220081   1.748   2.502   5.563  0.8158 -0.6174  0.1919
 6707TIP3    H120082   1.803   2.576   5.537  2.2242 -1.0423  1.8062
 6707TIP3    H220083   1.748   2.443   5.488  0.0817  0.7915 -0.9250
 6708TIP3   OH220084   1.476   4.598   5.100 -0.1801 -0.5383 -0.3037
 6708TIP3    H120085   1.449   4.506   5.103 -0.8021 -0.3571 -0.2337
 6708TIP3    H220086   1.419   4.641   5.164 -0.3910  0.0252 -0.8663
 6709TIP3   OH220087   5.866   7.168   0.640  0.3061  0.0423  0.1206
 6709TIP3    H120088   5.833   7.103   0.701  2.7034 -1.4969 -0.1435
 6709TIP3    H220089   5.925   7.223   0.692  1.0504 -0.2356 -0.4065
 6710TIP3   OH220090   2.500   5.279   4.210 -0.0725  0.0617  0.2132
 6710TIP3    H120091   2.424   5.319   4.254  0.2906  1.4686 -0.4450
 6710TIP3    H220092   2.487   5.297   4.117  0.4496 -0.7763 -0.0320
 6711TIP3   OH220093   3.067   5.031   5.211  0.5738  0.1350 -0.1932
 6711TIP3    H120094   2.975   5.009   5.223  0.6907 -0.2039  0.0864
 6711TIP3    H220095   3.107   4.951   5.177  1.1069 -0.2752  1.3555
 6712TIP3   OH220096   5.386   6.958   5.008 -0.0542 -0.0465  0.0489
 6712TIP3    H120097   5.315   6.917   4.958 -0.8271 -1.0097  1.8968
 6712TIP3    H220098   5.346   6.984   5.090  1.4243  0.6561  0.5647
 6713TIP3   OH220099   4.218   7.005   4.379  0.5019  0.7830 -1.1661
 6713TIP3    H120100   4.201   7.097   4.398  0.0411  0.7706 -1.5059
 6713TIP3    H220101   4.307   6.990   4.412 -0.8246  0.3422  2.4283
 6714TIP3   OH220102   6.569   6.564   3.390 -0.1716 -0.3050 -0.2252
 6714TIP3    H120103   6.499   6.589   3.330 -1.4380 -2.2815  0.3683
 6714TIP3    H220104   6.563   6.627   3.462 -1.2131 -0.3089 -0.2947
 6715TIP3   OH220105   3.707   4.104   2.733  0.6152  0.0890  0.1357
 6715TIP3    H120106   3.758   4.178   2.766 -0.8812  0.5745  1.4059
 6715TIP3    H220107   3.672   4.136   2.649  2.3256 -0.2347 -0.7218
 6716TIP3   OH220108   3.806   3.577   3.006 -0.0390 -0.6563  0.0582
 6716TIP3    H120109   3.822   3.503   2.947  2.9755 -1.2231  1.4817
 6716TIP3    H220110   3.836   3.654   2.958  2.3106 -1.1058  0.7311
 6717TIP3   OH220111   4.721   4.793   5.073 -0.0142 -0.1591  0.1480
 6717TIP3    H120112   4.713   4.826   4.983  2.8674 -0.0961 -0.1372
 6717TIP3    H220113   4.729   4.698   5.062  0.4449 -0.1419  0.3195
 6718TIP3   OH220114   5.245   4.466   4.813 -0.0019  0.4788 -0.1420
 6718TIP3    H120115   5.309   4.413   4.861 -0.5637 -2.0693 -2.1072
 6718TIP3    H220116   5.293   4.498   4.737 -0.4974  0.1555 -0.6001
 6719TIP3   OH220117   4.184   4.170   3.639 -0.3550 -0.2869 -0.0744
 6719TIP3    H120118   4.165   4.078   3.625  0.3874 -0.7088  1.5568
 6719TIP3    H220119   4.280   4.174   3.644 -0.4597  0.2845  1.6694
 6720TIP3   OH220120   4.285   2.652   3.413  0.0702  0.1153  0.6545
 6720TIP3    H120121   4.304   2.601   3.334  1.9425 -0.4193  1.4379
 6720TIP3    H220122   4.370   2.674   3.449 -0.7630 -0.8678  3.3270
 6721TIP3   OH220123   5.349   4.715   3.955 -0.4668 -0.0935  0.1564
 6721TIP3    H120124   5.399   4.795   3.936 -1.3752  0.9360  1.9926
 6721TIP3    H220125   5.391   4.648   3.901  2.1450  0.9928  0.7426
 6722TIP3   OH220126   3.808   2.462   3.513 -0.2005 -0.4472 -0.1404
 6722TIP3    H120127   3.726   2.504   3.486 -1.1015 -2.5621 -0.8176
 6722TIP3    H220128   3.876   2.514   3.471 -1.4241 -1.5513 -3.7660
 6723TIP3   OH220129   3.790   4.405   4.843  0.5182  0.3703  0.3527
 6723TIP3    H120130   3.711   4.459   4.835  1.1434  1.4080  1.0101
 6723TIP3    H220131   3.856   4.464   4.881  1.3621 -0.7186  0.6221
 6724TIP3   OH220132   5.172   4.397   3.021 -0.2053  0.1548  0.0157
 6724TIP3    H120133   5.202   4.440   2.941  1.0578  2.2878  1.5774
 6724TIP3    H220134   5.251   4.366   3.063 -0.9658 -2.0663 -0.1427
 6725TIP3   OH220135   6.457   5.708   4.294  0.2480  0.3641 -0.0797
 6725TIP3    H120136   6.493   5.672   4.375  0.8241 -0.8006 -0.8417
 6725TIP3    H220137   6.371   5.667   4.286 -0.7052  2.1137  1.0409
 6726TIP3   OH220138   4.714   4.865   3.595 -0.9549 -0.1215 -0.2653
 6726TIP3    H120139   4.771   4.914   3.536 -0.7216 -1.2756 -1.0223
 6726TIP3    H220140   4.771   4.837   3.667 -1.1565  0.9651  0.3238
 6727TIP3   OH220141   2.448   4.966   3.623  0.8990  0.2195  0.4528
 6727TIP3    H120142   2.386   4.918   3.569  0.3760  1.0094  0.3547
 6727TIP3    H220143   2.516   4.995   3.562  0.4640  0.8527  0.2674
 6728TIP3   OH220144   4.071   5.269   3.317 -0.0609  0.3712  0.3070
 6728TIP3    H120145   4.000   5.205   3.326 -1.1267  1.4698 -0.2544
 6728TIP3    H220146   4.094   5.290   3.408 -0.5643  0.1358  0.4968
 6729TIP3   OH220147   0.445   0.730   0.208  0.1103  0.1055  0.4047
 6729TIP3    H120148   0.509   0.721   0.138  0.2502 -1.1263  0.6760
 6729TIP3    H220149   0.479   0.674   0.278 -0.2777  0.9409  1.2748
 6730TIP3   OH220150   2.652   5.631   2.714  0.0046  0.4673 -0.1868
 6730TIP3    H120151   2.583   5.670   2.660  0.1412  0.1786 -0.5703
 6730TIP3    H220152   2.683   5.556   2.664 -1.0518 -0.8449  1.0630
 6731TIP3   OH220153   4.311   4.066   2.660 -0.0923 -0.4857 -0.0180
 6731TIP3    H120154   4.331   4.116   2.739 -1.8509 -0.3079  0.3257
 6731TIP3    H220155   4.258   4.125   2.607 -2.0625 -1.9235  0.3243
 6732TIP3   OH220156   4.041   5.111   3.978 -0.4542 -0.4594 -0.3532
 6732TIP3    H120157   4.068   5.186   3.926 -1.3805  1.0175  1.2324
 6732TIP3    H220158   4.084   5.036   3.937  0.1296  0.8708 -2.2256
 6733TIP3   OH220159   0.399   0.373   4.163 -0.4370 -0.7205  0.1956
 6733TIP3    H120160   0.350   0.377   4.081 -1.4938 -1.2643  0.8014
 6733TIP3    H220161   0.491   0.368   4.135 -0.8499 -2.2101 -1.0040
 6734TIP3   OH220162   2.061   2.904   5.669  0.0522 -0.9249  0.2084
 6734TIP3    H120163   2.141   2.937   5.629 -0.9872  0.6608 -0.6087
 6734TIP3    H220164   2.037   2.827   5.617 -0.5055  0.2775 -1.3133
 6735TIP3   OH220165   5.076   4.547   4.293  0.3312 -0.0615 -0.2256
 6735TIP3    H120166   4.986   4.542   4.260  0.3111  0.3604 -0.2359
 6735TIP3    H220167   5.078   4.629   4.343  0.7535  0.0037 -0.3523
 6736TIP3   OH220168   3.647   4.373   3.273 -0.5751 -0.2223 -0.5044
 6736TIP3    H120169   3.715   4.309   3.258 -0.4146 -0.1276 -0.1942
 6736TIP3    H220170   3.603   4.383   3.189 -0.9343 -1.1205 -0.4246
 6737TIP3   OH220171   5.210   5.856   2.756 -0.2682  0.0662  0.3115
 6737TIP3    H120172   5.123   5.877   2.722 -1.1544 -0.8878  1.9411
 6737TIP3    H220173   5.269   5.877   2.684 -1.7841  1.2779 -0.6133
 6738TIP3   OH220174   3.593   6.411   3.555 -0.1154 -0.1957 -0.0886
 6738TIP3    H120175   3.673   6.452   3.587  0.8482 -1.6077 -0.5843
 6738TIP3    H220176   3.592   6.325   3.597 -0.9355 -0.5024 -0.7161
 6739TIP3   OH220177   2.652   4.762   3.277 -0.0541 -0.1981 -0.0639
 6739TIP3    H120178   2.680   4.688   3.223 -1.8151  0.3941 -1.8141
 6739TIP3    H220179   2.562   4.742   3.300 -0.5926  1.4609 -0.6602
 6740TIP3   OH220180   4.766   6.290   5.120 -0.0813 -0.1909 -0.2171
 6740TIP3    H120181   4.849   6.308   5.164  0.0652  0.1975 -0.6480
 6740TIP3    H220182   4.743   6.201   5.147  0.1640 -0.0712  0.3948
 6741TIP3   OH220183   4.073   6.673   5.033 -0.2484 -0.2895  0.0807
 6741TIP3    H120184   4.053   6.615   5.105  1.3283 -2.0463 -0.8574
 6741TIP3    H220185   4.163   6.701   5.048 -0.4165  0.5353 -0.3911
 6742TIP3   OH220186   4.344   5.267   4.085  0.6098 -1.0716 -0.5473
 6742TIP3    H120187   4.312   5.357   4.095  1.9777 -0.5073 -1.1046
 6742TIP3    H220188   4.439   5.274   4.095  0.8151 -2.3275 -1.4699
 6743TIP3   OH220189   4.511   2.917   4.170 -0.3637  0.0662 -0.2939
 6743TIP3    H120190   4.444   2.985   4.167 -0.0927  0.3481  0.1065
 6743TIP3    H220191   4.477   2.852   4.231 -0.2857  0.1967 -0.1112
 6744TIP3   OH220192   4.209   2.993   2.302 -0.2486 -0.0092  0.1855
 6744TIP3    H120193   4.297   3.004   2.338  0.2348  1.0707 -1.2671
 6744TIP3    H220194   4.152   2.985   2.378  1.0843 -0.4498  1.1395
 6745TIP3   OH220195   4.218   5.853   5.324 -0.3613  0.4499 -0.0670
 6745TIP3    H120196   4.140   5.853   5.380 -0.2191 -0.0050  0.1377
 6745TIP3    H220197   4.213   5.770   5.276  0.3941  0.0581  0.5153
 6746TIP3   OH220198   3.864   4.478   3.673  1.0824 -0.3790 -0.1497
 6746TIP3    H120199   3.916   4.417   3.727 -1.1603 -0.7171  1.6984
 6746TIP3    H220200   3.790   4.426   3.643 -0.8702  1.4136  1.4580
 6747TIP3   OH220201   5.199   4.783   3.460  0.3417 -0.1515 -0.1272
 6747TIP3    H120202   5.118   4.733   3.450  0.8593 -1.0053 -0.2074
 6747TIP3    H220203   5.181   4.845   3.530 -0.9215  0.8251 -1.2959
 6748TIP3   OH220204   4.305   5.688   3.069  0.6451 -0.1684 -0.1916
 6748TIP3    H120205   4.332   5.780   3.071 -0.1985  0.0642  1.2265
 6748TIP3    H220206   4.266   5.676   2.982 -0.4610  1.1902  0.0956
 6749TIP3   OH220207   4.414   5.181   5.722 -0.2798  0.5088 -0.4639
 6749TIP3    H120208   4.487   5.123   5.743 -0.5380  0.2238 -0.3546
 6749TIP3    H220209   4.455   5.259   5.683  0.2218  1.0847  1.1698
 6750TIP3   OH220210   4.815   7.289   4.114  0.5830  1.0740  0.2302
 6750TIP3    H120211   4.825   7.256   4.024 -1.7523  1.0938 -0.0697
 6750TIP3    H220212   4.865   7.370   4.116  0.6575  1.0664 -1.0774
 6751TIP3   OH220213   4.100   3.846   4.492 -0.0004  0.4162  0.2227
 6751TIP3    H120214   4.046   3.906   4.441  1.1797 -0.2136 -1.8308
 6751TIP3    H220215   4.038   3.783   4.529 -1.1266  2.2672  1.5569
 6752TIP3   OH220216   3.853   6.445   3.690 -0.1292  0.4736 -0.1189
 6752TIP3    H120217   3.914   6.409   3.626 -0.7764  0.8396 -0.9521
 6752TIP3    H220218   3.899   6.522   3.726  0.2527  0.2413 -0.1066
 6753TIP3   OH220219   3.054   5.076   4.033  0.1921  0.4086 -0.5855
 6753TIP3    H120220   3.050   5.053   4.125 -0.4341  0.4017 -0.6106
 6753TIP3    H220221   3.100   5.003   3.991  0.8923  0.6351 -0.2092
 6754TIP3   OH220222   4.430   5.418   2.974  0.1824  0.1476  0.1788
 6754TIP3    H120223   4.524   5.435   2.973  0.1131  0.6970  1.5450
 6754TIP3    H220224   4.392   5.495   3.016 -0.8457 -0.2145 -0.0649
 6755TIP3   OH220225   4.875   5.292   4.694  0.9594 -0.0494 -0.5441
 6755TIP3    H120226   4.936   5.356   4.732  1.0254  0.1878 -1.0365
 6755TIP3    H220227   4.793   5.307   4.740  1.0199  0.2852 -0.5385
 6756TIP3   OH220228   5.254   4.788   5.573  0.9579  0.0328  0.5410
 6756TIP3    H120229   5.170   4.833   5.568  0.8852 -0.0843  0.7248
 6756TIP3    H220230   5.242   4.709   5.521  1.2813  0.5375 -0.3061
 6757TIP3   OH220231   2.281   4.356   3.828  0.3319  0.2203 -0.1970
 6757TIP3    H120232   2.333   4.430   3.799  1.6323 -0.5192  0.2071
 6757TIP3    H220233   2.339   4.280   3.818  0.0048 -0.3706  2.0652
 6758TIP3   OH220234   6.424   4.985   5.062  0.1394 -0.4953  0.1467
 6758TIP3    H120235   6.366   5.055   5.033  0.5614  0.2503  1.0451
 6758TIP3    H220236   6.368   4.909   5.071 -0.5312 -0.0049  0.1359
 6759TIP3   OH220237   5.006   5.304   5.012  0.0638  0.3969 -0.2113
 6759TIP3    H120238   4.974   5.214   5.015  0.6638  0.1933  0.2528
 6759TIP3    H220239   5.100   5.296   5.027  0.0401  1.1465  0.3662
 6760TIP3   OH220240   3.517   3.124   2.105 -0.1261 -0.1591  0.0647
 6760TIP3    H120241   3.462   3.095   2.177 -1.4542  0.0100 -0.8618
 6760TIP3    H220242   3.607   3.110   2.135 -0.6638  0.0879  1.8094
 6761TIP3   OH220243   5.347   3.473   3.969 -0.8797  0.0027  0.1097
 6761TIP3    H120244   5.291   3.512   4.036 -0.0778  0.9025  0.2682
 6761TIP3    H220245   5.316   3.509   3.887  1.2698  2.7297  0.4497
 6762TIP3   OH220246   4.148   4.210   4.317  0.9575 -0.5586  0.0860
 6762TIP3    H120247   4.191   4.146   4.259 -1.6481 -0.4405 -2.0340
 6762TIP3    H220248   4.068   4.167   4.345  0.0801  1.0678  0.1339
 6763TIP3   OH220249   6.243   4.552   5.434 -0.2687  0.0729 -0.3686
 6763TIP3    H120250   6.287   4.613   5.493 -2.6445  1.1550  0.3660
 6763TIP3    H220251   6.215   4.480   5.490 -0.0888 -0.2540 -0.6976
 6764TIP3   OH220252   3.915   3.004   3.762  0.6945  0.4509  0.2533
 6764TIP3    H120253   3.875   3.026   3.846  0.3244 -1.1555  0.5227
 6764TIP3    H220254   4.009   3.008   3.779  0.6236  0.3416  0.6968
 6765TIP3   OH220255   4.213   5.377   5.809  0.1346  0.4980 -0.4056
 6765TIP3    H120256   4.290   5.321   5.814 -0.2210  0.1582  1.8378
 6765TIP3    H220257   4.147   5.323   5.766  0.4406 -0.0254 -0.2188
 6766TIP3   OH220258   2.193   4.330   2.111 -0.5375 -0.1481 -0.0822
 6766TIP3    H120259   2.208   4.236   2.109 -1.8544 -0.3649 -0.2554
 6766TIP3    H220260   2.148   4.349   2.028  0.3760  0.7555 -0.3858
 6767TIP3   OH220261   3.926   6.914   4.941  0.0405  0.0947  0.1042
 6767TIP3    H120262   3.977   6.968   4.880  1.0323  2.1493  2.6347
 6767TIP3    H220263   3.984   6.840   4.960  0.0261 -0.1765 -0.8736
 6768TIP3   OH220264   3.083   4.442   4.349  0.3047  0.1203  0.2165
 6768TIP3    H120265   3.030   4.386   4.405 -0.4557 -0.7499 -1.3260
 6768TIP3    H220266   3.084   4.527   4.392 -2.3910  0.1691  0.2452
 6769TIP3   OH220267   7.031   5.428   4.463 -0.0977 -0.4532 -0.4889
 6769TIP3    H120268   6.962   5.387   4.515 -0.2461  0.4192  0.0153
 6769TIP3    H220269   6.984   5.488   4.405  0.2464  0.1954 -0.0942
 6770TIP3   OH220270   3.757   3.778   4.712 -0.1773  0.0500 -0.5698
 6770TIP3    H120271   3.839   3.730   4.722 -0.6592 -0.7051 -0.1430
 6770TIP3    H220272   3.697   3.714   4.673 -1.4161 -0.3463  1.8934
 6771TIP3   OH220273   4.882   5.944   5.935 -0.3426  0.3456  0.0522
 6771TIP3    H120274   4.824   5.877   5.973  0.7368 -0.9702 -0.5659
 6771TIP3    H220275   4.873   5.932   5.840  0.8221  0.2184 -0.0512
 6772TIP3   OH220276   4.338   3.957   3.213  0.4087  0.1841 -0.5417
 6772TIP3    H120277   4.325   3.918   3.300  0.9772 -0.8361 -0.9059
 6772TIP3    H220278   4.364   4.048   3.232 -1.7481  0.6762  0.2920
 6773TIP3   OH220279   5.022   3.992   2.874 -0.3545 -0.3850 -0.5996
 6773TIP3    H120280   4.945   3.970   2.926 -1.3591 -0.3069 -2.0094
 6773TIP3    H220281   5.062   3.907   2.855  0.5446 -0.3533  1.0462
 6774TIP3   OH220282   4.973   4.908   2.676 -0.6410  0.1377  0.0851
 6774TIP3    H120283   5.047   4.905   2.736  0.0702  3.2228 -0.5153
 6774TIP3    H220284   4.911   4.969   2.717 -0.7920  1.1336 -1.5619
 6775TIP3   OH220285   3.895   5.097   3.383 -0.0741 -0.2389  0.4770
 6775TIP3    H120286   3.835   5.032   3.347  0.3235  0.2177 -1.0167
 6775TIP3    H220287   3.933   5.054   3.460 -1.9496 -0.7025  1.1704
 6776TIP3   OH220288   2.724   4.567   4.045  0.1131  0.3012  0.0148
 6776TIP3    H120289   2.653   4.505   4.026  0.7528 -1.2575  2.4230
 6776TIP3    H220290   2.777   4.567   3.966 -0.9749 -0.7728 -0.7347
 6777TIP3   OH220291   4.773   4.110   2.675 -0.0251  0.3977 -0.2137
 6777TIP3    H120292   4.735   4.064   2.750  0.4315  0.3101 -0.0347
 6777TIP3    H220293   4.769   4.046   2.604  0.2850  0.1988 -0.0552
 6778TIP3   OH220294   4.237   3.814   4.738  0.0072  0.0465 -0.1587
 6778TIP3    H120295   4.170   3.830   4.671  0.2967 -1.7691 -0.9042
 6778TIP3    H220296   4.310   3.774   4.690 -0.1884 -2.2468  1.3919
 6779TIP3   OH220297   4.883   4.011   3.904 -0.0389 -0.3124  0.0739
 6779TIP3    H120298   4.859   3.999   3.812  0.6304  1.2917 -0.3399
 6779TIP3    H220299   4.979   4.017   3.903 -0.1242  1.5017  0.6202
 6780TIP3   OH220300   6.468   5.988   4.918  0.3966  0.4601 -0.2664
 6780TIP3    H120301   6.378   5.954   4.922 -0.3565  2.5162  0.9971
 6780TIP3    H220302   6.515   5.939   4.986 -0.6146  1.6473  1.3412
 6781TIP3   OH220303   6.810   4.374   5.848 -0.6501  0.0706  0.0185
 6781TIP3    H120304   6.903   4.352   5.857 -0.3390  0.6948 -1.6556
 6781TIP3    H220305   6.778   4.375   5.938  0.9897 -0.0325  0.6275
 6782TIP3   OH220306   2.965   0.866   0.448 -0.5678 -0.1868 -0.4366
 6782TIP3    H120307   2.949   0.858   0.542  1.8356  0.5671  0.0494
 6782TIP3    H220308   2.931   0.784   0.411  1.4210 -1.9136  1.4935
 6783TIP3   OH220309   6.002   5.037   3.244  0.1432 -0.3422 -0.2189
 6783TIP3    H120310   5.997   5.041   3.148  1.6388 -2.0772 -0.3977
 6783TIP3    H220311   6.041   5.120   3.269 -1.3696  0.6408 -0.9974
 6784TIP3   OH220312   4.003   5.792   3.078  0.1902 -0.1622 -0.1084
 6784TIP3    H120313   3.938   5.858   3.055 -1.3713 -1.8274 -0.6040
 6784TIP3    H220314   3.985   5.719   3.018  0.5367 -1.8437  1.7980
 6785TIP3   OH220315   2.920   3.726   0.897 -0.4224 -0.3633  0.3689
 6785TIP3    H120316   3.013   3.719   0.920 -0.3155  0.0552  0.0685
 6785TIP3    H220317   2.908   3.818   0.873 -0.8292 -0.5036  0.0347
 6786TIP3   OH220318   3.296   4.300   3.571 -0.2718 -0.3168 -0.1737
 6786TIP3    H120319   3.391   4.309   3.580 -0.1497 -0.2891 -1.4461
 6786TIP3    H220320   3.278   4.211   3.602 -0.1445  0.4596  2.2777
 6787TIP3   OH220321   3.051   5.921   3.266 -0.2880 -0.0802 -0.3728
 6787TIP3    H120322   2.981   5.902   3.328 -0.3333  0.8452 -0.1384
 6787TIP3    H220323   3.127   5.873   3.301 -0.4781 -0.0795  0.0464
 6788TIP3   OH220324   3.616   4.673   3.411 -0.1158 -0.5739  0.3308
 6788TIP3    H120325   3.669   4.628   3.344  0.4938 -1.3848  1.3386
 6788TIP3    H220326   3.525   4.660   3.382  0.1674 -0.1618 -0.7984
 6789TIP3   OH220327   7.255   0.537   4.998 -0.4849  0.1971  0.0644
 6789TIP3    H120328   7.192   0.555   5.067  0.7728 -0.1756  1.3303
 6789TIP3    H220329   7.214   0.468   4.945 -0.4989 -1.1047  1.7501
 6790TIP3   OH220330   6.097   6.387   4.195 -0.2677  0.3756 -0.2644
 6790TIP3    H120331   6.041   6.405   4.271  0.9410  0.5673  0.5943
 6790TIP3    H220332   6.185   6.409   4.225  0.1591  0.9459 -1.8949
 6791TIP3   OH220333   5.163   5.593   2.647  0.1172  0.3661  0.0239
 6791TIP3    H120334   5.182   5.681   2.678  2.5633  0.0329 -0.4049
 6791TIP3    H220335   5.130   5.547   2.725 -0.0525  1.3454  0.5379
 6792TIP3   OH220336   4.735   5.103   4.526 -0.0110  0.4628 -0.3836
 6792TIP3    H120337   4.673   5.061   4.584 -0.6542 -0.6983 -1.8724
 6792TIP3    H220338   4.716   5.196   4.533 -0.2729  0.3056  1.0161
 6793TIP3   OH220339   7.265   2.873   3.950  0.1117 -0.3316 -0.5462
 6793TIP3    H120340   7.235   2.786   3.923  0.0760 -0.3167 -0.5537
 6793TIP3    H220341   7.276   2.921   3.867 -1.6704  0.2768 -0.4549
 6794TIP3   OH220342   3.910   5.630   2.854  0.0474 -0.0912  0.2305
 6794TIP3    H120343   3.874   5.693   2.790 -1.2118 -0.6594  0.3662
 6794TIP3    H220344   3.844   5.561   2.860  0.3397 -0.2528  1.8537
 6795TIP3   OH220345   2.582   6.524   4.636 -0.0907 -0.0464  0.0068
 6795TIP3    H120346   2.516   6.497   4.572 -1.8009  2.0578  0.8150
 6795TIP3    H220347   2.547   6.496   4.720  2.1282 -2.7619  0.1076
 6796TIP3   OH220348   3.386   4.850   2.690 -0.0590  0.2629 -0.0551
 6796TIP3    H120349   3.359   4.923   2.745  1.1352  0.6797 -0.0015
 6796TIP3    H220350   3.367   4.879   2.601  2.8154  1.7435 -0.2382
 6797TIP3   OH220351   3.423   5.710   2.903  0.4041 -0.3526 -0.2602
 6797TIP3    H120352   3.350   5.695   2.963 -0.5579 -0.4401 -1.4208
 6797TIP3    H220353   3.501   5.687   2.953 -0.2762  0.8156  1.3630
 6798TIP3   OH220354   4.888   4.651   2.489 -0.1552  0.4652 -0.1257
 6798TIP3    H120355   4.954   4.718   2.506  0.5477 -0.1148 -0.5133
 6798TIP3    H220356   4.897   4.589   2.561 -0.8273  0.7979  0.2508
 6799TIP3   OH220357   6.044   4.813   4.189 -0.0097 -0.0866  0.2021
 6799TIP3    H120358   6.113   4.770   4.240  1.2411 -1.1380 -2.2736
 6799TIP3    H220359   6.085   4.833   4.105 -1.6821  2.6179 -0.0335
 6800TIP3   OH220360   4.355   5.022   4.356 -0.9074 -0.0970  0.1779
 6800TIP3    H120361   4.335   5.109   4.389  0.0830  0.2749 -0.1679
 6800TIP3    H220362   4.415   5.037   4.283 -0.0901 -1.1004  0.6200
 6801TIP3   OH220363   4.104   6.284   4.157 -0.1545 -0.3542  0.2805
 6801TIP3    H120364   4.073   6.194   4.167 -2.6947  0.4037 -0.4031
 6801TIP3    H220365   4.066   6.313   4.074  0.3890  1.4514  0.6509
 6802TIP3   OH220366   7.282   3.346   4.708 -0.2184  0.1744 -0.0222
 6802TIP3    H120367   7.251   3.262   4.741  3.2644 -0.9623  0.5575
 6802TIP3    H220368   7.219   3.370   4.640 -1.7288 -2.4631  0.3760
 6803TIP3   OH220369   6.626   4.434   4.207 -0.0364 -0.2739  0.0692
 6803TIP3    H120370   6.634   4.507   4.146  1.0995  0.3961  0.9951
 6803TIP3    H220371   6.542   4.394   4.186  0.0078  0.4088 -1.4180
 6804TIP3   OH220372   3.545   5.851   4.029  0.4822 -0.2880 -0.0193
 6804TIP3    H120373   3.631   5.825   3.994  0.5016 -0.4187  0.1245
 6804TIP3    H220374   3.561   5.872   4.121  0.4188 -0.0030 -0.0718
 6805TIP3   OH220375   2.737   4.619   3.592 -0.3837  0.4507  0.1453
 6805TIP3    H120376   2.803   4.634   3.661  1.3195 -0.7067 -1.1746
 6805TIP3    H220377   2.736   4.701   3.542 -1.0404  1.0081  1.0608
 6806TIP3   OH220378   4.218   3.997   4.162 -0.0328  0.2690  0.5750
 6806TIP3    H120379   4.307   4.017   4.130 -0.1654  0.8568  0.5568
 6806TIP3    H220380   4.183   3.934   4.099  0.4887 -0.2070  0.7585
 6807TIP3   OH220381   3.140   3.277   4.407  0.2522  0.3300 -0.3118
 6807TIP3    H120382   3.079   3.212   4.372  0.2677 -0.2181  0.6520
 6807TIP3    H220383   3.106   3.361   4.376  0.6788 -0.1881 -2.2237
 6808TIP3   OH220384   3.652   4.934   5.181 -0.0268  0.0316  0.7807
 6808TIP3    H120385   3.637   5.017   5.137  1.1016 -0.0355  0.2459
 6808TIP3    H220386   3.572   4.917   5.230  0.0710  1.8588  1.5941
 6809TIP3   OH220387   4.517   4.799   6.055 -0.2549  0.3831  0.2661
 6809TIP3    H120388   4.481   4.729   6.109 -1.0537  0.2042 -0.4935
 6809TIP3    H220389   4.612   4.792   6.066 -0.3635 -0.4198  0.6827
 6810TIP3   OH220390   3.958   6.660   3.840  0.9066  0.4446  0.0634
 6810TIP3    H120391   3.946   6.743   3.794 -2.9498  0.2805  0.6050
 6810TIP3    H220392   3.892   6.660   3.909  1.2805 -2.7741  0.5424
 6811TIP3   OH220393   3.847   6.738   3.488  0.4399 -0.1900  0.7355
 6811TIP3    H120394   3.899   6.794   3.545 -0.2685  0.6949  0.5303
 6811TIP3    H220395   3.767   6.721   3.537  1.3546 -2.4299  1.4943
 6812TIP3   OH220396   3.204   6.091   5.108 -0.1008  0.3602 -0.1136
 6812TIP3    H120397   3.215   6.181   5.079  1.4941 -0.2545 -1.5155
 6812TIP3    H220398   3.287   6.049   5.087 -0.3084 -1.0917  1.8462
 6813TIP3   OH220399   4.301   5.458   2.646  0.5277  0.1114  0.3004
 6813TIP3    H120400   4.330   5.369   2.664  0.1437 -0.1314 -0.2572
 6813TIP3    H220401   4.339   5.479   2.560  0.1635  0.2769  0.1766
 6814TIP3   OH220402   4.617   4.233   3.929  0.2108  0.3562 -0.1968
 6814TIP3    H120403   4.694   4.288   3.942  0.0147  0.8317 -0.9790
 6814TIP3    H220404   4.549   4.294   3.899 -0.9448  0.2373  2.0562
 6815TIP3   OH220405   1.839   4.606   1.591  0.8452 -0.0884  0.0562
 6815TIP3    H120406   1.817   4.644   1.506  1.7771  0.2451 -0.0344
 6815TIP3    H220407   1.773   4.640   1.651  0.8008  0.4947 -0.3247
 6816TIP3   OH220408   5.660   0.209   4.574 -0.3139 -0.6206  0.0583
 6816TIP3    H120409   5.583   0.190   4.627 -1.8200 -1.4313 -2.2963
 6816TIP3    H220410   5.724   0.142   4.599 -1.4975 -1.8504 -0.0983
 6817TIP3   OH220411   4.997   2.966   2.962  0.4337 -0.5199 -0.9180
 6817TIP3    H120412   4.988   2.892   2.902 -0.9771  0.0793 -1.4694
 6817TIP3    H220413   5.080   3.006   2.938  0.8283 -1.4594 -1.1394
 6818TIP3   OH220414   1.381   0.715   0.992  0.4643  0.2430 -0.2122
 6818TIP3    H120415   1.364   0.640   0.935  2.7518 -1.4892  1.2969
 6818TIP3    H220416   1.343   0.691   1.076 -0.8351  1.8126 -0.3065
 6819TIP3   OH220417   2.895   2.749   5.024  0.1737 -0.2233 -0.6244
 6819TIP3    H120418   2.946   2.751   5.105 -0.6004  0.0872 -0.1393
 6819TIP3    H220419   2.955   2.712   4.958  0.9669 -0.0088 -0.0269
 6820TIP3   OH220420   4.767   2.862   4.735  0.2347 -0.3256  0.0086
 6820TIP3    H120421   4.703   2.861   4.664  1.4758  0.5224 -1.1303
 6820TIP3    H220422   4.717   2.832   4.811 -1.2062 -0.8766 -1.1173
 6821TIP3   OH220423   3.999   4.247   4.029 -0.1694 -0.2434 -0.7990
 6821TIP3    H120424   3.924   4.236   4.087  0.0212 -0.0680 -0.5163
 6821TIP3    H220425   4.075   4.227   4.084  0.0354  0.2606 -0.8998
 6822TIP3   OH220426   3.806   5.246   4.078 -0.1058 -0.2259  0.5208
 6822TIP3    H120427   3.797   5.238   3.983 -0.2046  2.6787  0.2448
 6822TIP3    H220428   3.716   5.247   4.110 -0.1626  1.5346  0.3565
 6823TIP3   OH220429   5.562   4.368   5.121 -0.3672 -0.4467  0.1351
 6823TIP3    H120430   5.564   4.464   5.124  0.3654 -0.4077 -1.0605
 6823TIP3    H220431   5.624   4.346   5.051 -0.4886 -1.7954  0.4517
 6824TIP3   OH220432   3.183   4.882   4.635 -0.1920 -0.0170  0.1204
 6824TIP3    H120433   3.136   4.936   4.573 -1.0226  1.1800  1.7514
 6824TIP3    H220434   3.115   4.835   4.684  0.4979 -2.3457 -1.0636
 6825TIP3   OH220435   4.458   4.396   4.316  0.3200 -0.3140  0.1937
 6825TIP3    H120436   4.408   4.456   4.370 -0.3855  0.7519 -1.5781
 6825TIP3    H220437   4.395   4.364   4.251  1.2144 -1.2784 -0.2250
 6826TIP3   OH220438   3.587   3.875   5.587 -0.1135 -0.2967 -0.3164
 6826TIP3    H120439   3.531   3.951   5.602  1.7710  1.0421  0.1876
 6826TIP3    H220440   3.533   3.815   5.537 -2.1281  0.7662  0.5252
 6827TIP3   OH220441   3.877   3.487   2.251 -0.2191  0.2809 -0.1548
 6827TIP3    H120442   3.937   3.458   2.320 -0.7468 -0.9676 -0.2041
 6827TIP3    H220443   3.919   3.563   2.212  0.1413  0.9415  1.4823
 6828TIP3   OH220444   7.023   2.190   4.411 -0.2515 -0.2740  0.6931
 6828TIP3    H120445   7.103   2.144   4.439 -0.2500  0.6683  2.3057
 6828TIP3    H220446   6.955   2.157   4.470 -0.6678  0.2994  0.5377
 6829TIP3   OH220447   5.532   5.138   5.429 -0.0464 -0.5599  0.2349
 6829TIP3    H120448   5.516   5.044   5.441  0.4085 -0.7277 -0.4386
 6829TIP3    H220449   5.615   5.154   5.476 -0.2136 -0.4613  0.4968
 6830TIP3   OH220450   1.893   3.985   5.065 -0.2463  0.4829  0.6713
 6830TIP3    H120451   1.905   3.992   5.160 -1.8630 -2.5976  1.1495
 6830TIP3    H220452   1.978   3.954   5.032 -0.2241 -0.1638  1.3299
 6831TIP3   OH220453   4.917   3.581   5.300  0.5624  0.7530 -0.5894
 6831TIP3    H120454   4.978   3.627   5.242  2.7934 -0.6578  0.5697
 6831TIP3    H220455   4.850   3.646   5.320  1.9158  2.5045 -1.5347
 6832TIP3   OH220456   4.524   3.017   4.467  0.6746 -0.4013 -0.0396
 6832TIP3    H120457   4.585   3.025   4.394  0.3158 -1.3599 -0.4535
 6832TIP3    H220458   4.439   3.040   4.430  0.6325  0.0013  0.3022
 6833TIP3   OH220459   0.966   1.114   0.017  0.7377 -0.0690  0.3893
 6833TIP3    H120460   1.026   1.126  -0.057  1.2380 -0.0120  0.8032
 6833TIP3    H220461   0.980   1.190   0.072  0.0482  0.1057  0.3284
 6834TIP3   OH220462   1.031   0.636   0.996 -0.6892 -0.0603 -0.4365
 6834TIP3    H120463   1.067   0.548   1.006 -0.5640  0.0924  0.4636
 6834TIP3    H220464   0.968   0.628   0.924  0.2160 -0.6072 -1.1792
 6835TIP3   OH220465   6.458   4.370   5.564  0.2397  0.1807  0.8739
 6835TIP3    H120466   6.411   4.371   5.648 -0.3577  0.7413  0.5418
 6835TIP3    H220467   6.496   4.457   5.557  0.9121 -0.1062  0.8987
 6836TIP3   OH220468   6.411   4.218   4.911 -0.4170  0.8067 -0.5003
 6836TIP3    H120469   6.343   4.163   4.871 -0.0462  0.4111 -0.5936
 6836TIP3    H220470   6.431   4.284   4.844 -1.4948  1.5971 -0.0477
 6837TIP3   OH220471   2.171   6.222   2.839  0.5879  0.1642 -0.0724
 6837TIP3    H120472   2.264   6.198   2.844  1.1148  2.2944  0.5592
 6837TIP3    H220473   2.151   6.261   2.924 -0.4344  1.3476 -0.8450
 6838TIP3   OH220474   4.974   4.622   3.515 -0.1469 -0.0900  0.3718
 6838TIP3    H120475   4.949   4.534   3.544 -1.0410  0.3597  1.0071
 6838TIP3    H220476   4.902   4.651   3.459  1.4307 -0.8271 -2.1332
 6839TIP3   OH220477   4.497   6.992   4.392 -0.6008  0.2937  0.1394
 6839TIP3    H120478   4.552   6.980   4.469 -1.0920  0.3023  0.4929
 6839TIP3    H220479   4.529   6.928   4.329 -1.6380 -1.2530  1.1473
 6840TIP3   OH220480   5.097   4.232   1.516  0.1795 -0.0753  1.0813
 6840TIP3    H120481   5.031   4.178   1.560  0.6284 -1.9546 -0.5029
 6840TIP3    H220482   5.144   4.274   1.587 -1.0536 -0.7151  2.3132
 6841TIP3   OH220483   5.320   5.931   6.163  0.2268 -0.6595  0.3574
 6841TIP3    H120484   5.378   5.899   6.094 -0.0353  0.9079 -0.6268
 6841TIP3    H220485   5.370   5.921   6.244  1.6632  0.1836 -0.4173
 6842TIP3   OH220486   5.674   3.340   4.861  0.0621 -0.5009  0.6215
 6842TIP3    H120487   5.581   3.316   4.868  0.2218 -1.4854 -0.4679
 6842TIP3    H220488   5.717   3.291   4.930 -0.1193 -0.6442  0.6329
 6843TIP3   OH220489   4.809   5.068   4.910  0.4569  0.4976 -0.3154
 6843TIP3    H120490   4.770   5.142   4.864 -2.5712 -1.7981 -1.6721
 6843TIP3    H220491   4.773   5.073   4.999 -1.1227 -0.2423 -0.8850
 6844TIP3   OH220492   2.551   4.283   2.623 -0.5722 -0.0118 -0.1466
 6844TIP3    H120493   2.458   4.276   2.602 -1.2465 -1.2218  2.8888
 6844TIP3    H220494   2.555   4.345   2.696  1.0397  0.1520 -0.3373
 6845TIP3   OH220495   5.935   4.570   4.911  0.2439 -0.4682 -0.3954
 6845TIP3    H120496   5.943   4.602   5.001  0.0246 -0.5231 -0.3561
 6845TIP3    H220497   5.991   4.629   4.860 -1.1424  0.7662 -0.5094
 6846TIP3   OH220498   3.785   4.159   3.178  0.1211  0.3951 -0.3738
 6846TIP3    H120499   3.745   4.095   3.119  0.5285 -1.9513  1.8274
 6846TIP3    H220500   3.815   4.108   3.253 -0.8154  3.3408  2.1224
 6847TIP3   OH220501   5.607   4.873   3.151  0.5505  0.0782  0.2986
 6847TIP3    H120502   5.639   4.913   3.232 -1.6097  1.6773  0.4022
 6847TIP3    H220503   5.545   4.937   3.115 -0.8568 -1.9533 -1.0031
 6848TIP3   OH220504   3.558   4.562   5.759  0.0033  0.5351 -0.0949
 6848TIP3    H120505   3.552   4.507   5.837  1.3433 -0.9331 -1.0077
 6848TIP3    H220506   3.483   4.536   5.705 -0.8927  1.5136  0.6446
 6849TIP3   OH220507   5.172   5.167   4.532 -0.1084 -0.4572  0.3819
 6849TIP3    H120508   5.161   5.189   4.625 -0.0081 -0.4063  0.3815
 6849TIP3    H220509   5.097   5.110   4.512 -0.1323 -0.4646  0.4928
 6850TIP3   OH220510   5.395   4.302   3.121  0.7173 -0.1287  0.0330
 6850TIP3    H120511   5.472   4.324   3.069  1.0781 -0.1570  0.5513
 6850TIP3    H220512   5.430   4.267   3.203  0.2023  1.8857  1.1705
 6851TIP3   OH220513   5.696   3.944   3.482 -0.4619  0.3390  0.7339
 6851TIP3    H120514   5.710   3.984   3.568 -1.3979 -0.5659  1.3194
 6851TIP3    H220515   5.784   3.921   3.452 -0.1421  0.5067  1.5249
 6852TIP3   OH220516   5.474   5.945   4.794 -0.3486  0.0787  0.0881
 6852TIP3    H120517   5.408   5.887   4.755  0.7773 -2.2602  1.5292
 6852TIP3    H220518   5.531   5.970   4.721  0.4067 -2.4016 -0.2180
 6853TIP3   OH220519   1.423   1.661   0.038  0.2786  0.0818  0.2809
 6853TIP3    H120520   1.473   1.624   0.111  1.5018 -0.8494 -1.0060
 6853TIP3    H220521   1.373   1.586   0.004  1.6953 -0.0896 -1.4582
 6854TIP3   OH220522   5.549   4.601   4.875  0.2538 -0.4744  0.0063
 6854TIP3    H120523   5.457   4.628   4.878  1.0476  3.0718 -3.0172
 6854TIP3    H220524   5.547   4.510   4.846 -2.3166 -1.2599  2.4211
 6855TIP3   OH220525   3.458   3.303   5.139 -0.2244  0.6099  0.4492
 6855TIP3    H120526   3.549   3.274   5.145  0.0043  0.8570 -1.6670
 6855TIP3    H220527   3.411   3.245   5.199  0.6532 -2.4180 -1.6875
 6856TIP3   OH220528   5.554   3.770   3.914  0.6355 -0.1518  0.2698
 6856TIP3    H120529   5.479   3.827   3.933 -1.3581 -2.7384  0.3693
 6856TIP3    H220530   5.590   3.748   4.000 -0.2883 -1.2460  0.3814
 6857TIP3   OH220531   5.709   6.087   2.301  0.3646  0.3335 -0.7782
 6857TIP3    H120532   5.711   5.992   2.317 -0.5425 -0.0353 -2.6351
 6857TIP3    H220533   5.760   6.098   2.221  0.3557  1.4058 -0.6323
 6858TIP3   OH220534   1.210   4.126   5.025 -1.0685  0.0565  0.0443
 6858TIP3    H120535   1.129   4.128   4.975 -0.4076  0.0828 -1.0235
 6858TIP3    H220536   1.271   4.078   4.970 -0.0784  0.8783  0.4217
 6859TIP3   OH220537   3.076   6.200   3.245 -0.7303 -0.0977 -0.0375
 6859TIP3    H120538   3.069   6.105   3.235  0.6015 -0.0150 -1.8735
 6859TIP3    H220539   3.004   6.235   3.192  0.8076  0.0077 -2.1211
 6860TIP3   OH220540   2.821   6.545   3.013  0.0078 -0.5252  1.0123
 6860TIP3    H120541   2.881   6.618   3.029 -0.3739 -0.3443  1.5961
 6860TIP3    H220542   2.875   6.467   3.027 -0.2222 -0.3789  2.8737
 6861TIP3   OH220543   5.655   4.899   4.941 -0.1965 -0.5166 -0.2731
 6861TIP3    H120544   5.734   4.953   4.939  0.0066 -0.8244 -0.6182
 6861TIP3    H220545   5.674   4.826   4.882 -0.4838 -0.9451  0.1612
 6862TIP3   OH220546   6.901   0.537   4.030  0.0002 -0.0534  0.6220
 6862TIP3    H120547   6.872   0.573   3.946  1.2443 -0.7468 -0.1191
 6862TIP3    H220548   6.949   0.458   4.007 -0.9324 -1.0679  2.1057
 6863TIP3   OH220549   5.840   6.631   5.351 -0.3734 -0.3929  0.0408
 6863TIP3    H120550   5.759   6.581   5.366 -0.1086 -0.2866  1.9408
 6863TIP3    H220551   5.888   6.623   5.433  2.6324 -2.3579 -1.8292
 6864TIP3   OH220552   4.507   5.252   4.600 -0.4423  0.4197  0.1841
 6864TIP3    H120553   4.422   5.212   4.617 -1.4316  2.3635 -0.1135
 6864TIP3    H220554   4.487   5.334   4.556  1.6223  0.6407 -0.3915
 6865TIP3   OH220555   5.363   0.283   5.536 -0.3797 -0.3085 -0.2610
 6865TIP3    H120556   5.352   0.367   5.581 -0.0434  0.1847 -1.0939
 6865TIP3    H220557   5.426   0.301   5.466 -0.3328 -1.2469 -0.4687
 6866TIP3   OH220558   3.463   7.124   5.119  0.3458 -0.3542  0.2522
 6866TIP3    H120559   3.506   7.039   5.128  0.6335 -0.6333 -3.0673
 6866TIP3    H220560   3.535   7.186   5.108  0.0893  0.1108  1.1604
 6867TIP3   OH220561   5.623   5.814   3.019 -0.0142 -0.0017 -0.0623
 6867TIP3    H120562   5.634   5.796   2.925  1.0884  0.9235 -0.1272
 6867TIP3    H220563   5.553   5.880   3.022  0.4190  0.4765 -0.2935
 6868TIP3   OH220564   3.708   5.362   3.347  0.1696 -0.2852  0.6913
 6868TIP3    H120565   3.748   5.276   3.335  1.9493  0.0951  3.4632
 6868TIP3    H220566   3.614   5.344   3.354  0.5897 -2.1102  2.0883
 6869TIP3   OH220567   4.221   6.366   4.666  0.2473 -0.5714 -0.0529
 6869TIP3    H120568   4.142   6.332   4.709 -0.4437 -0.3405 -1.1329
 6869TIP3    H220569   4.193   6.448   4.627  0.9168 -0.6980 -0.8065
 6870TIP3   OH220570   2.882   4.328   1.645 -0.0380  0.6316 -0.2625
 6870TIP3    H120571   2.831   4.258   1.604  0.6396  1.0905 -1.8832
 6870TIP3    H220572   2.816   4.391   1.675 -0.5799 -0.1253  0.1548
 6871TIP3   OH220573   6.870   5.282   2.641 -0.0006  0.3120 -0.4528
 6871TIP3    H120574   6.948   5.230   2.622 -0.8714 -1.3640  0.4576
 6871TIP3    H220575   6.834   5.244   2.721 -1.7166  1.0879 -0.8205
 6872TIP3   OH220576   5.222   5.016   3.623 -0.2874 -0.2239 -0.7720
 6872TIP3    H120577   5.272   5.012   3.704 -0.8107  0.5969 -0.4086
 6872TIP3    H220578   5.133   5.038   3.650 -0.7339 -1.1356 -1.4622
 6873TIP3   OH220579   4.922   3.446   3.711  0.1363 -0.1626  0.4700
 6873TIP3    H120580   4.942   3.494   3.631  1.8613 -0.1781  0.8717
 6873TIP3    H220581   4.886   3.511   3.771  0.6915  0.2356  0.3643
 6874TIP3   OH220582   2.711   6.206   3.309  0.1882  0.8939 -0.0112
 6874TIP3    H120583   2.702   6.117   3.273 -1.4725  1.0696 -0.0665
 6874TIP3    H220584   2.669   6.262   3.243  0.3051  1.6102  0.5252
 6875TIP3   OH220585   1.814   4.131   3.337  0.0961  0.4699  0.2226
 6875TIP3    H120586   1.835   4.092   3.252 -0.7649  0.7145 -0.1136
 6875TIP3    H220587   1.765   4.211   3.315  2.4570  2.1471  0.8838
 6876TIP3   OH220588   4.329   6.226   5.424  0.4434 -0.0484 -0.1301
 6876TIP3    H120589   4.337   6.308   5.376 -0.2446 -0.6670 -1.3095
 6876TIP3    H220590   4.387   6.165   5.378  2.6109  0.3004  1.9819
 6877TIP3   OH220591   3.423   2.297   3.504  0.1648  0.3337 -0.9724
 6877TIP3    H120592   3.368   2.242   3.448 -0.2280  1.1033 -1.3463
 6877TIP3    H220593   3.476   2.349   3.443  2.1243 -1.2009 -0.6179
 6878TIP3   OH220594   3.204   5.674   3.079 -0.3068  0.3365  0.0016
 6878TIP3    H120595   3.201   5.578   3.080  2.7367  0.1632 -0.9112
 6878TIP3    H220596   3.150   5.699   3.004 -0.4384 -0.6999 -0.2621
 6879TIP3   OH220597   4.098   3.190   3.922  0.9756 -0.3178 -0.0153
 6879TIP3    H120598   4.039   3.214   3.851  2.0396 -0.5383 -0.9867
 6879TIP3    H220599   4.174   3.153   3.878  1.4269 -0.9278  1.2701
 6880TIP3   OH220600   4.630   5.278   4.829  0.5059 -0.2096  0.3393
 6880TIP3    H120601   4.581   5.345   4.877  0.3691  0.3661 -0.6029
 6880TIP3    H220602   4.578   5.260   4.751 -0.4735 -2.9037  1.5684
 6881TIP3   OH220603   6.208   4.832   3.947  0.2783 -0.0435 -0.2495
 6881TIP3    H120604   6.190   4.861   3.858 -1.6697 -2.1385 -0.5678
 6881TIP3    H220605   6.235   4.741   3.937 -0.2906 -0.3939  1.3356
 6882TIP3   OH220606   6.042   2.913   5.374 -0.1815 -0.0474 -0.0138
 6882TIP3    H120607   6.011   2.849   5.438 -0.7141  0.4067  0.1918
 6882TIP3    H220608   6.095   2.974   5.425  1.2255 -0.9327 -0.4002
 6883TIP3   OH220609   3.405   4.460   4.027  0.1943  0.6749  0.0697
 6883TIP3    H120610   3.483   4.404   4.035 -0.2242 -0.2972 -2.1554
 6883TIP3    H220611   3.402   4.483   3.934 -1.9278  1.0908  0.2224
 6884TIP3   OH220612   5.104   4.734   4.594 -0.3102  0.0223  0.5251
 6884TIP3    H120613   5.073   4.776   4.513  0.8299 -0.6172 -0.2617
 6884TIP3    H220614   5.047   4.769   4.662  0.0878  2.2284 -0.2186
 6885TIP3   OH220615   4.124   6.884   4.139  0.2566  0.2323 -0.2922
 6885TIP3    H120616   4.174   6.812   4.100 -1.7029 -2.1256  1.3799
 6885TIP3    H220617   4.182   6.920   4.206  0.4016 -1.3143  0.4243
 6886TIP3   OH220618   5.785   4.337   1.732 -0.1177 -0.0406  0.1401
 6886TIP3    H120619   5.761   4.390   1.808  1.3535  0.6811  0.1216
 6886TIP3    H220620   5.801   4.249   1.767 -2.2669 -0.4201  0.2189
 6887TIP3   OH220621   6.098   4.241   3.899 -0.4733  0.0073 -0.0915
 6887TIP3    H120622   6.137   4.188   3.969 -2.2842  0.8420  1.6118
 6887TIP3    H220623   6.060   4.177   3.838 -0.1950 -0.7061  0.4755
 6888TIP3   OH220624   4.760   5.755   4.075  0.0790  0.7128  0.6263
 6888TIP3    H120625   4.781   5.791   3.989 -0.0233  1.9360  1.1118
 6888TIP3    H220626   4.784   5.662   4.068  0.3341  0.8609 -0.6266
 6889TIP3   OH220627   7.178   4.911   2.416  0.1129  0.1165  0.2057
 6889TIP3    H120628   7.229   4.959   2.350  0.1376 -0.6301 -0.3169
 6889TIP3    H220629   7.218   4.824   2.419 -1.1151 -0.4626 -0.1796
 6890TIP3   OH220630   5.530   4.716   4.260 -0.5995 -0.3659 -0.4573
 6890TIP3    H120631   5.578   4.650   4.211  0.9750  0.9742 -0.7737
 6890TIP3    H220632   5.504   4.672   4.341  4.3758 -0.1385  1.3942
 6891TIP3   OH220633   5.799   4.145   5.100  0.3793 -0.3096 -0.0786
 6891TIP3    H120634   5.741   4.069   5.107  0.2820 -0.2186  0.1210
 6891TIP3    H220635   5.813   4.172   5.191  0.3093 -0.0096 -0.1572
 6892TIP3   OH220636   6.047   5.568   3.704 -0.0594 -0.0979 -0.2274
 6892TIP3    H120637   6.078   5.633   3.642  0.4637  1.1534  1.3031
 6892TIP3    H220638   5.984   5.516   3.655  0.2548  0.9443 -1.7622
 6893TIP3   OH220639   7.422   3.357   4.395  0.1314  0.3939  0.0541
 6893TIP3    H120640   7.451   3.423   4.458  1.0011 -1.2094  1.3540
 6893TIP3    H220641   7.385   3.408   4.323 -0.2115  2.2666  1.5207
 6894TIP3   OH220642   0.764   4.779   2.458  0.0273 -0.1643 -0.7768
 6894TIP3    H120643   0.680   4.752   2.495 -0.2421 -1.4274 -2.2367
 6894TIP3    H220644   0.820   4.796   2.533 -0.1009 -3.9368  0.2573
 6895TIP3   OH220645   5.385   3.941   4.052 -0.5751  0.1575 -0.0279
 6895TIP3    H120646   5.294   3.921   4.073 -0.1529 -0.9046  0.8937
 6895TIP3    H220647   5.424   3.966   4.136  0.4190 -1.2030 -0.0582
 6896TIP3   OH220648   6.819   4.882   2.787  0.0750 -0.0131  0.4472
 6896TIP3    H120649   6.836   4.790   2.809  1.4227  0.5381  1.7336
 6896TIP3    H220650   6.852   4.891   2.697 -0.5895 -0.9232  0.1041
 6897TIP3   OH220651   4.996   3.720   2.862  0.5732 -0.8779 -0.0398
 6897TIP3    H120652   4.910   3.731   2.823  0.1874 -1.5516  0.6020
 6897TIP3    H220653   5.004   3.625   2.875  1.3376 -0.8021  0.0697
 6898TIP3   OH220654   5.913   5.243   4.612  0.6591 -0.1199  0.6395
 6898TIP3    H120655   5.858   5.205   4.544  1.9941 -1.4713  0.2943
 6898TIP3    H220656   5.914   5.177   4.682 -0.2506  1.0135  1.7628
 6899TIP3   OH220657   7.101   5.297   5.618 -0.2803  0.0296  0.1731
 6899TIP3    H120658   7.039   5.291   5.545  0.9902 -0.1339 -0.9236
 6899TIP3    H220659   7.059   5.356   5.680 -1.8542 -0.6631 -0.2228
 6900TIP3   OH220660   6.883   3.622   4.068 -0.0365 -0.2088  0.1276
 6900TIP3    H120661   6.867   3.644   3.976  1.7744  1.7849  0.2398
 6900TIP3    H220662   6.797   3.624   4.109 -0.5681  1.3028 -1.0327
 6901TIP3   OH220663   6.865   4.021   3.934 -0.7158  0.3106 -0.0017
 6901TIP3    H120664   6.894   4.005   3.844 -0.7943 -0.4109  0.0988
 6901TIP3    H220665   6.813   4.101   3.929 -0.3279  0.5336 -0.5166
 6902TIP3   OH220666   4.818   6.362   3.657  0.1906  0.3535  0.2370
 6902TIP3    H120667   4.732   6.347   3.696 -0.0381  0.0631 -0.3635
 6902TIP3    H220668   4.844   6.276   3.623  2.1236 -0.2909  3.1679
 6903TIP3   OH220669   0.562   5.940   3.431 -0.0506  0.7177  0.2980
 6903TIP3    H120670   0.644   5.968   3.389 -0.0429  1.1872  0.6223
 6903TIP3    H220671   0.590   5.877   3.498 -0.0821 -0.2161 -0.5425
 6904TIP3   OH220672   6.190   3.620   3.368  0.4360  0.1698 -0.8002
 6904TIP3    H120673   6.112   3.589   3.414  1.0741 -3.2330 -1.8288
 6904TIP3    H220674   6.160   3.695   3.317 -1.3460  1.0306  1.4054
 6905TIP3   OH220675   2.067   6.886   0.718 -0.1749  0.0496 -0.3554
 6905TIP3    H120676   2.152   6.928   0.733 -1.4450  2.3072  0.9212
 6905TIP3    H220677   2.044   6.847   0.802 -0.3669 -0.5854 -0.7039
 6906TIP3   OH220678   6.229   4.637   2.916  0.2267 -0.2208 -0.0817
 6906TIP3    H120679   6.231   4.711   2.856  0.4480 -0.3120 -0.1874
 6906TIP3    H220680   6.137   4.630   2.942  0.1848  0.0183 -0.1597
 6907TIP3   OH220681   6.160   3.819   4.222  0.6241  1.1111  0.0146
 6907TIP3    H120682   6.089   3.853   4.274 -0.2680 -0.0046 -0.4480
 6907TIP3    H220683   6.238   3.829   4.277 -0.2733  0.0879  1.4879
 6908TIP3   OH220684   7.485   3.540   3.310 -0.4707  0.4942  0.2439
 6908TIP3    H120685   7.538   3.619   3.316 -0.8820  0.7849  0.0684
 6908TIP3    H220686   7.549   3.469   3.306 -0.1048  0.7698  1.0052
 6909TIP3   OH220687   4.029   2.669   3.499 -0.4315 -0.0049  0.4447
 6909TIP3    H120688   3.994   2.684   3.411 -0.2739 -1.5211  0.0993
 6909TIP3    H220689   4.124   2.676   3.490 -0.3224 -1.5952  0.1712
 6910TIP3   OH220690   6.084   5.180   3.761 -0.3772  0.1801 -0.5067
 6910TIP3    H120691   6.089   5.222   3.676  0.6715  1.5172  0.1974
 6910TIP3    H220692   6.007   5.124   3.756 -1.2769  1.5111 -1.7555
 6911TIP3   OH220693   7.378   5.478   2.493 -0.8089 -0.0302 -1.0352
 6911TIP3    H120694   7.458   5.497   2.445 -0.7786  1.9696 -0.2597
 6911TIP3    H220695   7.327   5.422   2.435  2.1333 -3.3120 -0.5865
 6912TIP3   OH220696   6.970   3.897   4.568 -0.3889 -0.1931 -0.0673
 6912TIP3    H120697   7.030   3.824   4.552 -1.0093 -0.8968  0.7693
 6912TIP3    H220698   6.908   3.863   4.632  0.1293  1.5054  1.3838
 6913TIP3   OH220699   7.370   2.121   3.390  0.5855  0.6560 -0.7741
 6913TIP3    H120700   7.346   2.044   3.339 -1.8888  1.2907 -0.6501
 6913TIP3    H220701   7.382   2.089   3.479  2.1214  0.0047 -1.2097
 6914TIP3   OH220702   6.297   5.614   5.786  0.0169 -0.2197 -0.2133
 6914TIP3    H120703   6.368   5.667   5.820  0.2348 -0.9731  0.5198
 6914TIP3    H220704   6.221   5.672   5.786 -0.0649 -0.2944  1.8569
 6915TIP3   OH220705   6.724   5.561   3.218  0.0243  0.7087 -0.1193
 6915TIP3    H120706   6.808   5.554   3.263 -0.1837  1.5134  0.3877
 6915TIP3    H220707   6.724   5.486   3.158 -0.6246 -1.6322  2.7257
 6916TIP3   OH220708   0.127   5.064   2.266  0.0236 -0.6112 -0.0232
 6916TIP3    H120709   0.129   5.076   2.171  2.1980 -1.2173 -0.0869
 6916TIP3    H220710   0.055   5.003   2.281 -1.6370  1.0141 -1.0670
 6917TIP3   OH220711   7.013   5.044   4.170 -0.0932 -0.1964  0.6822
 6917TIP3    H120712   7.007   4.955   4.205 -0.8320 -0.6415 -0.5336
 6917TIP3    H220713   7.056   5.094   4.239  0.4993 -1.5350  1.2999
 6918TIP3   OH220714   5.824   4.116   1.876  0.5401 -0.2988 -0.2218
 6918TIP3    H120715   5.748   4.063   1.899 -0.0887  0.5330 -0.3473
 6918TIP3    H220716   5.881   4.056   1.828  0.4276 -1.1959  0.7366
 6919TIP3   OH220717   0.789   6.312   2.635  0.0644  0.5465  0.4197
 6919TIP3    H120718   0.714   6.290   2.580  0.8309 -1.0240 -0.0209
 6919TIP3    H220719   0.768   6.275   2.720 -0.7884  2.3384  1.0223
 6920TIP3   OH220720   4.706   4.005   4.214 -0.3532 -0.3744 -0.1407
 6920TIP3    H120721   4.785   4.022   4.266 -2.2453  4.1622  1.5117
 6920TIP3    H220722   4.739   3.982   4.127  2.8342  1.9226  0.3710
 6921TIP3   OH220723   0.204   5.313   6.188 -0.4449  0.0120  0.4002
 6921TIP3    H120724   0.298   5.303   6.176 -0.5745 -1.5172  0.5876
 6921TIP3    H220725   0.167   5.306   6.100 -0.4007  0.6026  0.3283
 6922TIP3   OH220726   6.097   3.813   3.948 -0.1810  0.0364  0.5408
 6922TIP3    H120727   6.036   3.739   3.948 -0.9151  0.6340  0.1147
 6922TIP3    H220728   6.125   3.820   4.039  0.9905 -1.6476  0.3406
 6923TIP3   OH220729   5.957   3.508   2.267  0.3976 -0.3750  0.7592
 6923TIP3    H120730   6.003   3.428   2.292 -0.2555 -1.0691 -0.2025
 6923TIP3    H220731   5.915   3.538   2.347  0.7207 -0.9542  1.1448
 6924TIP3   OH220732   6.137   3.158   4.946  0.2930 -0.1292 -0.7287
 6924TIP3    H120733   6.122   3.252   4.955  1.8957  0.1353 -0.8459
 6924TIP3    H220734   6.066   3.128   4.889  0.5949  1.2430 -1.8448
 6925TIP3   OH220735   5.058   6.186   3.450  0.5032 -0.0066  0.2802
 6925TIP3    H120736   4.969   6.168   3.481  0.7497 -1.7876  0.0335
 6925TIP3    H220737   5.076   6.115   3.388  2.3615 -0.1015  0.8961
 6926TIP3   OH220738   7.440   5.177   5.583  0.2027 -0.2919 -0.0466
 6926TIP3    H120739   7.359   5.213   5.547  0.2196 -0.1264  0.0800
 6926TIP3    H220740   7.416   5.090   5.615  0.0827 -0.2538 -0.0353
 6927TIP3   OH220741   6.792   3.931   1.654  0.7838  0.6070  0.1545
 6927TIP3    H120742   6.848   3.977   1.717  0.0234 -0.1489  1.4024
 6927TIP3    H220743   6.840   3.936   1.572  2.5221  0.3029  1.1235
 6928TIP3   OH220744   6.477   4.917   3.885  0.2792 -0.0779 -0.5146
 6928TIP3    H120745   6.423   4.883   3.957  0.1318 -0.9290 -1.0199
 6928TIP3    H220746   6.557   4.948   3.928 -0.8569  1.7582  0.3119
 6929TIP3   OH220747   6.487   5.057   4.470  0.3484  0.7487  0.0107
 6929TIP3    H120748   6.555   5.006   4.515  1.6092  1.4042 -1.1413
 6929TIP3    H220749   6.457   5.120   4.536  2.9116  2.3836 -0.3159
 6930TIP3   OH220750   6.333   4.862   4.650 -0.1848  0.2402  0.4363
 6930TIP3    H120751   6.341   4.896   4.560  0.3182 -0.3408  0.2617
 6930TIP3    H220752   6.292   4.934   4.698 -0.9458  0.3626 -0.3735
 6931TIP3   OH220753   0.706   5.453   3.965 -0.0521  0.5585 -0.2868
 6931TIP3    H120754   0.634   5.406   3.923 -1.0282  1.6661  0.1286
 6931TIP3    H220755   0.672   5.477   4.052  1.1273  0.3125  0.2504
 6932TIP3   OH220756   7.474   2.993   2.903 -0.1510  0.0381 -0.9309
 6932TIP3    H120757   7.396   3.049   2.903 -0.2942 -0.1461  0.1412
 6932TIP3    H220758   7.449   2.915   2.854 -0.3237  0.4106 -1.4337
 6933TIP3   OH220759   5.396   6.139   5.451 -0.4156 -0.4340 -0.1754
 6933TIP3    H120760   5.389   6.125   5.356  0.4813  0.0606 -0.3189
 6933TIP3    H220761   5.323   6.197   5.472  1.3662  2.2302 -1.1459
 6934TIP3   OH220762   3.836   4.428   4.360 -0.6638  0.4497 -0.2811
 6934TIP3    H120763   3.823   4.375   4.281  1.7722  1.0194 -1.1196
 6934TIP3    H220764   3.780   4.388   4.426 -2.4851 -0.2600 -2.1861
 6935TIP3   OH220765   6.929   4.141   3.044  0.0456 -0.0541  0.7724
 6935TIP3    H120766   6.842   4.130   3.082 -0.2031  0.7571  0.4659
 6935TIP3    H220767   6.976   4.195   3.108  0.5350 -1.0471  1.2469
 6936TIP3   OH220768   1.414   5.121   5.186 -0.0629  0.4075  0.3670
 6936TIP3    H120769   1.400   5.154   5.275  0.5525 -0.3719  0.7664
 6936TIP3    H220770   1.507   5.099   5.184 -0.1300  0.1948 -0.3968
 6937TIP3   OH220771   2.092   2.858   0.305 -0.2630  0.1563 -0.0998
 6937TIP3    H120772   2.050   2.916   0.241  0.9576 -0.8190 -1.8213
 6937TIP3    H220773   2.028   2.788   0.320 -0.8993  0.8425  0.4116
 6938TIP3   OH220774   5.692   3.650   3.434 -0.2175  0.4409  0.2488
 6938TIP3    H120775   5.616   3.669   3.488  0.7754 -0.8514  2.1654
 6938TIP3    H220776   5.661   3.660   3.344 -2.3970  0.7899  1.0113
 6939TIP3   OH220777   6.301   4.885   2.766 -0.2715 -0.4666  0.2538
 6939TIP3    H120778   6.390   4.907   2.738  0.7405 -3.3742  1.0220
 6939TIP3    H220779   6.271   4.820   2.702 -2.0642  0.8159 -0.2700
 6940TIP3   OH220780   7.817   4.912   6.208 -0.7544  0.1160 -0.2048
 6940TIP3    H120781   7.764   4.989   6.228 -0.3974  0.4289 -0.4484
 6940TIP3    H220782   7.754   4.846   6.179 -1.1620  0.0099  0.8858
 6941TIP3   OH220783   6.884   3.682   3.444  0.6450  0.1589 -0.1211
 6941TIP3    H120784   6.844   3.742   3.507  1.5489 -0.7196  1.3120
 6941TIP3    H220785   6.811   3.654   3.389 -0.4835 -0.2748  1.5377
 6942TIP3   OH220786   6.805   2.345   2.541  0.1835  0.3080 -0.5209
 6942TIP3    H120787   6.817   2.250   2.551 -0.4659  0.0883 -1.7554
 6942TIP3    H220788   6.786   2.376   2.630  1.6049 -0.5354  0.0846
 6943TIP3   OH220789   7.661   4.160   4.731 -0.0686  0.1143 -0.1338
 6943TIP3    H120790   7.748   4.157   4.691  0.6543 -1.6453  1.4844
 6943TIP3    H220791   7.629   4.070   4.724  0.1370 -0.2960  3.2953
 6944TIP3   OH220792   6.297   5.344   2.274  0.1973  0.2746  0.5249
 6944TIP3    H120793   6.380   5.391   2.268 -1.1908  2.6010 -1.3747
 6944TIP3    H220794   6.263   5.343   2.184 -1.9413 -0.4049  1.2976
 6945TIP3   OH220795   7.611   3.011   5.671 -0.3431  0.3900  0.2680
 6945TIP3    H120796   7.644   3.100   5.655 -0.3561  0.5515  1.1229
 6945TIP3    H220797   7.682   2.968   5.719 -0.2532 -0.1317 -0.3307
 6946TIP3   OH220798   6.467   4.070   1.360  0.3360  0.1923 -0.6779
 6946TIP3    H120799   6.430   4.146   1.315  0.9087  0.4232 -0.7686
 6946TIP3    H220800   6.560   4.070   1.335  0.2149 -0.9046 -1.1968
 6947TIP3   OH220801   5.482   5.288   3.324  0.4314 -0.2665  0.1915
 6947TIP3    H120802   5.552   5.223   3.317  0.0429 -0.8702  1.8111
 6947TIP3    H220803   5.529   5.371   3.334  0.9553 -0.0096 -3.6301
 6948TIP3   OH220804   5.513   4.056   5.836  0.0457  0.3852  0.2100
 6948TIP3    H120805   5.572   4.012   5.897  1.4110 -0.7112 -1.8228
 6948TIP3    H220806   5.426   4.031   5.865  0.7069 -1.0153  1.0818
 6949TIP3   OH220807   0.039   2.988   2.741 -0.4961 -0.4218 -0.0458
 6949TIP3    H120808  -0.013   2.912   2.765 -0.0177 -0.1097  2.0421
 6949TIP3    H220809  -0.013   3.063   2.770 -0.1965 -0.0148 -0.5541
 6950TIP3   OH220810   5.213   5.322   3.172  0.1617  0.1206  0.3379
 6950TIP3    H120811   5.308   5.320   3.182  0.2706  0.4905 -0.5216
 6950TIP3    H220812   5.187   5.409   3.204  0.3576  0.7902 -1.2397
 6951TIP3   OH220813   5.552   6.256   4.791  0.0342  0.4249 -0.4420
 6951TIP3    H120814   5.555   6.305   4.709  0.1509 -0.0785 -0.7421
 6951TIP3    H220815   5.541   6.322   4.859  0.0053  0.8470 -0.8609
 6952TIP3   OH220816   6.767   4.649   5.173 -0.4347 -0.1899  0.1224
 6952TIP3    H120817   6.806   4.664   5.260 -0.1031  1.5508 -0.3153
 6952TIP3    H220818   6.772   4.554   5.161  1.8284 -0.2044  0.9380
 6953TIP3   OH220819   4.935   4.983   3.406  0.1005 -0.2409  0.3141
 6953TIP3    H120820   5.030   4.996   3.408 -0.0269  0.7089  0.8704
 6953TIP3    H220821   4.922   4.903   3.356  1.1000  0.5636 -1.2881
 6954TIP3   OH220822   7.341   5.481   5.731  0.0434  0.2070 -0.3388
 6954TIP3    H120823   7.258   5.432   5.733 -0.2486  0.6611 -1.2225
 6954TIP3    H220824   7.377   5.464   5.644  0.5943  0.4897 -0.1682
 6955TIP3   OH220825   4.571   6.556   5.344 -0.6343  0.3157  0.1401
 6955TIP3    H120826   4.656   6.516   5.360 -1.0690 -0.4817  0.4790
 6955TIP3    H220827   4.586   6.616   5.271  0.1237 -0.1404 -0.0850
 6956TIP3   OH220828   7.252   1.700   2.753 -0.3113  0.5474 -0.4763
 6956TIP3    H120829   7.189   1.638   2.791 -0.8607  0.0965 -2.0807
 6956TIP3    H220830   7.334   1.682   2.799  0.3224 -3.4524 -2.9028
 6957TIP3   OH220831   5.896   2.476   6.118 -0.4364 -0.6073  0.0906
 6957TIP3    H120832   5.936   2.426   6.047  1.2256 -0.9110  1.2180
 6957TIP3    H220833   5.924   2.566   6.103 -0.4902 -0.5890  0.0967
 6958TIP3   OH220834   6.758   2.524   5.057 -0.7714  0.3630  0.0427
 6958TIP3    H120835   6.718   2.592   5.003  1.1555  1.2827 -0.2776
 6958TIP3    H220836   6.852   2.537   5.046 -0.3654 -2.7857 -0.5347
 6959TIP3   OH220837   6.881   4.604   2.778  0.1869  0.4073 -0.1867
 6959TIP3    H120838   6.800   4.565   2.811 -0.0959  1.1270 -0.0214
 6959TIP3    H220839   6.949   4.540   2.798 -0.0663  0.5860  1.2780
 6960TIP3   OH220840   0.565   5.584   6.239 -0.1038 -0.2241 -0.3294
 6960TIP3    H120841   0.660   5.579   6.243 -0.0154 -0.6086 -2.3076
 6960TIP3    H220842   0.536   5.558   6.327  1.5811 -0.8481  0.0619
 6961TIP3   OH220843   5.158   2.377   2.416 -0.5704 -0.3185  0.2722
 6961TIP3    H120844   5.094   2.445   2.399  0.8501  0.4775 -2.1412
 6961TIP3    H220845   5.170   2.333   2.332  1.4294 -0.9714  0.8597
 6962TIP3   OH220846   0.748   5.922   2.521  0.0428  0.1583  0.2688
 6962TIP3    H120847   0.832   5.889   2.555  0.2300 -0.0764 -0.4170
 6962TIP3    H220848   0.761   5.929   2.427 -1.5415 -2.4591 -0.2161
 6963TIP3   OH220849   6.384   3.061   4.943 -0.7508 -0.3156 -0.5538
 6963TIP3    H120850   6.295   3.096   4.952 -1.0005 -0.7625 -1.1996
 6963TIP3    H220851   6.389   3.033   4.851 -0.6527 -2.1864 -0.0029
 6964TIP3   OH220852   6.754   3.999   2.172 -0.1661  0.5717 -0.0511
 6964TIP3    H120853   6.834   3.951   2.149  0.7105  1.7902  0.3907
 6964TIP3    H220854   6.717   4.025   2.088  0.6768  1.2204 -0.2352
 6965TIP3   OH220855   6.781   5.759   4.863 -0.1392 -0.1011 -0.5687
 6965TIP3    H120856   6.803   5.824   4.796 -0.5327  1.5826  0.8674
 6965TIP3    H220857   6.861   5.752   4.916 -0.6673  0.5676  0.3332
 6966TIP3   OH220858   5.793   4.239   3.445  0.2183  0.3617  0.3625
 6966TIP3    H120859   5.764   4.148   3.443  1.7064 -0.2088  2.6689
 6966TIP3    H220860   5.836   4.253   3.360 -0.8480 -0.7911 -0.3770
 6967TIP3   OH220861   6.863   4.276   5.019  0.4751 -0.4884  0.0699
 6967TIP3    H120862   6.848   4.330   5.096 -1.3830 -0.9443  0.0440
 6967TIP3    H220863   6.787   4.219   5.014  0.5170 -0.4043 -2.1642
 6968TIP3   OH220864   6.049   5.140   4.038  0.0040  0.2416 -0.2171
 6968TIP3    H120865   6.050   5.171   3.948  0.5632  0.9464  0.0331
 6968TIP3    H220866   6.122   5.078   4.044  1.4194  1.9342  0.3607
 6969TIP3   OH220867   7.264   4.069   2.674  0.4159 -0.6321 -0.2976
 6969TIP3    H120868   7.218   4.081   2.756  1.2345 -0.4639  0.1416
 6969TIP3    H220869   7.277   3.974   2.667  1.6450 -0.5295  0.4920
 6970TIP3   OH220870   1.071   7.144   4.112  0.1419 -0.1338 -0.3085
 6970TIP3    H120871   1.019   7.065   4.099 -0.4449  0.5102 -1.9369
 6970TIP3    H220872   1.025   7.192   4.181 -1.8288  0.7496 -2.1865
 6971TIP3   OH220873   0.436   5.208   3.584  0.4065 -0.1651 -0.5105
 6971TIP3    H120874   0.388   5.287   3.559  0.0031 -0.4248 -0.5799
 6971TIP3    H220875   0.422   5.148   3.510 -0.7531 -0.9211  0.3087
 6972TIP3   OH220876   6.136   4.830   3.480 -0.0386 -0.1488  0.4569
 6972TIP3    H120877   6.069   4.879   3.528  0.1524  0.3597  0.2068
 6972TIP3    H220878   6.216   4.842   3.532 -0.2142 -1.0266  0.9305
 6973TIP3   OH220879   5.857   5.387   3.234 -0.0722 -0.1915 -0.2463
 6973TIP3    H120880   5.948   5.358   3.233 -0.2041 -0.6228 -1.7726
 6973TIP3    H220881   5.824   5.363   3.147 -1.7972 -0.5655  0.4997
 6974TIP3   OH220882   3.478   4.679   4.479  0.2018  0.3842  0.0606
 6974TIP3    H120883   3.545   4.672   4.412  0.7697 -2.2088  0.8616
 6974TIP3    H220884   3.427   4.599   4.471  0.2101  0.0921  2.6464
 6975TIP3   OH220885   6.064   5.310   2.080  0.0882 -0.0882 -0.2716
 6975TIP3    H120886   6.022   5.281   1.999 -0.0951 -0.0581 -0.1881
 6975TIP3    H220887   6.103   5.395   2.058  1.4826 -0.8461 -0.7948
 6976TIP3   OH220888   4.176   4.849   3.889  0.0456 -0.5462 -0.0501
 6976TIP3    H120889   4.264   4.813   3.902  0.0858  0.6456  3.3393
 6976TIP3    H220890   4.117   4.779   3.919 -0.0379  0.0184  1.1250
 6977TIP3   OH220891   6.973   4.681   3.166 -0.0121  0.0355  0.4767
 6977TIP3    H120892   7.001   4.687   3.257 -0.2543  2.0823  0.4481
 6977TIP3    H220893   7.031   4.741   3.119 -1.5695  0.9889 -0.2787
 6978TIP3   OH220894   0.109   5.835   3.577 -0.2156  0.1186  0.4706
 6978TIP3    H120895   0.144   5.858   3.490  1.3571 -2.3067  0.4351
 6978TIP3    H220896   0.176   5.865   3.638 -0.2487 -0.3138  0.7150
 6979TIP3   OH220897   6.226   4.359   2.311  0.2833 -0.4542 -0.3001
 6979TIP3    H120898   6.225   4.311   2.394  1.1627 -1.2286 -0.7256
 6979TIP3    H220899   6.134   4.378   2.293  0.0517 -0.6930  0.6173
 6980TIP3   OH220900   7.315   5.072   4.200 -0.1928 -0.3113 -0.4508
 6980TIP3    H120901   7.258   5.060   4.124  0.9056  2.7604 -1.8145
 6980TIP3    H220902   7.258   5.109   4.267 -0.4928 -0.1734 -0.7797
 6981TIP3   OH220903   5.209   4.521   2.355  0.3198 -0.0879 -0.2628
 6981TIP3    H120904   5.163   4.446   2.392 -0.6583  1.1981  1.1822
 6981TIP3    H220905   5.202   4.589   2.422  1.7847  1.0755 -1.2608
 6982TIP3   OH220906   6.863   3.527   5.567  0.0314  0.1468 -0.5409
 6982TIP3    H120907   6.810   3.501   5.491 -1.9390  1.4495  0.3543
 6982TIP3    H220908   6.886   3.444   5.610 -1.1481 -0.4419 -1.0234
 6983TIP3   OH220909   6.251   3.622   2.293  0.0533 -0.1678 -0.5345
 6983TIP3    H120910   6.294   3.581   2.218 -0.9934  0.1951 -1.3546
 6983TIP3    H220911   6.181   3.676   2.254 -0.2602  0.3233  0.6773
 6984TIP3   OH220912   6.729   4.981   3.952  0.1967 -0.5473 -0.1610
 6984TIP3    H120913   6.771   4.989   4.037  2.7744  0.2795 -1.4486
 6984TIP3    H220914   6.777   4.910   3.908 -0.9982 -0.8631 -0.9838
 6985TIP3   OH220915   6.117   5.321   3.288  0.0390 -0.3706  0.1221
 6985TIP3    H120916   6.194   5.313   3.232 -0.2339  0.5510 -0.3988
 6985TIP3    H220917   6.152   5.330   3.376  0.6859  3.4255 -0.4474
 6986TIP3   OH220918   6.873   5.215   3.300 -0.1937 -0.2739 -0.1251
 6986TIP3    H120919   6.901   5.130   3.333 -0.1482  0.3360  1.4459
 6986TIP3    H220920   6.874   5.272   3.376 -1.4087  0.8487 -0.9208
 6987TIP3   OH220921   5.436   4.898   5.107 -0.1436  0.1403 -0.0303
 6987TIP3    H120922   5.517   4.935   5.071 -0.4793  2.7802  1.7794
 6987TIP3    H220923   5.371   4.910   5.038  0.4451  0.1249 -0.5990
 6988TIP3   OH220924   0.054   3.182   4.681  0.0534  0.2160  0.0903
 6988TIP3    H120925   0.068   3.254   4.620  2.9631  0.3445  0.8152
 6988TIP3    H220926   0.142   3.153   4.704 -1.0101 -1.3113  2.4766
 6989TIP3   OH220927   6.441   6.030   2.073  0.2071  0.8091  0.4417
 6989TIP3    H120928   6.537   6.028   2.071  0.2014 -0.0158  0.6715
 6989TIP3    H220929   6.416   6.046   1.982  0.5453 -0.4968  0.1038
 6990TIP3   OH220930   5.218   4.950   3.194  0.0403 -0.6127 -0.4691
 6990TIP3    H120931   5.271   5.016   3.150  0.4991 -0.0315  0.9511
 6990TIP3    H220932   5.268   4.926   3.272 -1.1463 -1.0314  0.1836
 6991TIP3   OH220933   6.445   4.653   3.067  0.3774  0.1806  0.6465
 6991TIP3    H120934   6.362   4.651   3.019  1.3715 -0.1592 -1.0897
 6991TIP3    H220935   6.423   4.695   3.150 -1.3086  1.1548 -0.2565
 6992TIP3   OH220936   5.447   4.156   3.880  0.0473 -0.5712  0.5274
 6992TIP3    H120937   5.418   4.092   3.945  1.8301 -0.8946  1.0224
 6992TIP3    H220938   5.516   4.205   3.924  0.3297  0.1135 -0.6728
 6993TIP3   OH220939   6.010   4.206   2.079  0.6002  0.6557 -0.7083
 6993TIP3    H120940   6.065   4.260   2.023 -0.5993  0.8051 -1.7834
 6993TIP3    H220941   5.939   4.177   2.021 -2.2061  3.0387  1.3538
 6994TIP3   OH220942   7.391   4.431   4.081  0.0050  0.1156  0.3324
 6994TIP3    H120943   7.359   4.360   4.136 -0.1066  0.9021  1.3085
 6994TIP3    H220944   7.451   4.480   4.138 -1.5411  2.0347  0.3728
 6995TIP3   OH220945   0.674   3.300   5.519 -0.1507 -0.2269  0.2667
 6995TIP3    H120946   0.748   3.331   5.571 -0.4734  0.4713  0.3248
 6995TIP3    H220947   0.597   3.322   5.571 -0.3353 -2.3022  0.8820
 6996TIP3   OH220948   7.704   4.629   4.933  0.2945  0.1481  0.4351
 6996TIP3    H120949   7.629   4.570   4.940  1.8617 -1.9304  0.0038
 6996TIP3    H220950   7.670   4.706   4.887 -1.6772 -0.5645  0.6670
 6997TIP3   OH220951   6.934   4.988   4.497 -0.4485 -0.8689  0.8874
 6997TIP3    H120952   6.972   4.944   4.573 -1.9650 -1.4639  1.3169
 6997TIP3    H220953   7.005   5.042   4.463  0.9855 -2.4824  1.2622
 6998TIP3   OH220954   4.084   4.384   3.801  0.4674  0.3836  0.1553
 6998TIP3    H120955   4.078   4.343   3.887 -0.0202  0.0071 -0.0523
 6998TIP3    H220956   4.123   4.316   3.746  0.9933  0.7032  0.1307
 6999TIP3   OH220957   3.706   4.888   2.913  0.5269 -0.5491  0.0554
 6999TIP3    H120958   3.724   4.861   2.823  0.2285 -0.6314  0.0181
 6999TIP3    H220959   3.704   4.806   2.963  0.7247 -0.5003  0.1429
 7000TIP3   OH220960   2.915   7.051   5.816 -0.1699  0.4570  0.6350
 7000TIP3    H120961   2.959   7.063   5.731 -1.3217  1.3087  0.1395
 7000TIP3    H220962   2.826   7.083   5.801 -0.8554 -0.9233  1.7276
 7001TIP3   OH220963   5.243   3.478   3.716 -0.2541 -0.2393  0.5942
 7001TIP3    H120964   5.167   3.509   3.667  0.6364  0.5595 -0.3034
 7001TIP3    H220965   5.249   3.385   3.694 -1.1315 -0.3786  0.9045
 7002TIP3   OH220966   5.322   3.871   2.432  0.0595 -0.0472  0.3390
 7002TIP3    H120967   5.278   3.827   2.505  0.1606 -0.6392  0.0488
 7002TIP3    H220968   5.401   3.909   2.471  1.0002 -1.8042  0.2286
 7003TIP3   OH220969   7.829   0.811   5.271 -0.0626  0.7796 -0.0765
 7003TIP3    H120970   7.742   0.825   5.309  0.4283 -0.1424  1.4094
 7003TIP3    H220971   7.813   0.806   5.177 -1.6352  0.4654  0.1903
 7004TIP3   OH220972   5.113   6.123   5.034  0.3242  0.8382 -0.3829
 7004TIP3    H120973   5.149   6.057   5.092 -1.1566 -0.8673 -1.3332
 7004TIP3    H220974   5.018   6.115   5.044  0.0829  1.6560 -1.7669
 7005TIP3   OH220975   7.535   4.728   4.461 -0.1230 -0.3334  0.0269
 7005TIP3    H120976   7.584   4.796   4.507 -1.6224 -0.4831  1.8992
 7005TIP3    H220977   7.458   4.773   4.426  0.8798 -0.2704 -2.1796
 7006TIP3   OH220978   5.532   6.613   2.416 -0.7800 -0.0143  0.3681
 7006TIP3    H120979   5.567   6.667   2.487 -0.2965  0.1249  0.0237
 7006TIP3    H220980   5.597   6.621   2.346 -1.1279 -0.3642  0.0089
 7007TIP3   OH220981   7.238   5.293   2.017  0.0105 -0.2000  0.5488
 7007TIP3    H120982   7.297   5.332   1.952  1.2588 -0.0678  1.7568
 7007TIP3    H220983   7.205   5.368   2.066 -1.7796 -0.1953 -0.5996
 7008TIP3   OH220984   4.637   4.632   3.443  0.0870  0.0045  0.4516
 7008TIP3    H120985   4.637   4.715   3.490  0.7844 -0.1927  0.8158
 7008TIP3    H220986   4.557   4.588   3.472  1.7339 -1.1958  3.4215
 7009TIP3   OH220987   6.906   4.766   3.879 -0.0430  0.4016 -0.2731
 7009TIP3    H120988   6.938   4.810   3.801  0.7317  1.7271  0.7661
 7009TIP3    H220989   6.978   4.709   3.905 -0.1542  0.2413 -0.3174
 7010TIP3   OH220990   6.896   7.121   2.015 -0.4591 -0.6055 -0.1435
 7010TIP3    H120991   6.829   7.104   1.949  0.3158 -1.2476 -0.7807
 7010TIP3    H220992   6.967   7.163   1.966 -0.3905  0.0588  0.5224
 7011TIP3   OH220993   4.800   0.773   0.068  0.0301  0.0461 -0.1023
 7011TIP3    H120994   4.750   0.691   0.064  0.9380 -0.5670  0.9839
 7011TIP3    H220995   4.749   0.834   0.015 -2.0287 -0.4879  1.2175
 7012TIP3   OH220996   0.735   2.355   0.171  0.5370  0.4834  0.1504
 7012TIP3    H120997   0.703   2.318   0.253  1.0414 -1.2081 -0.4073
 7012TIP3    H220998   0.685   2.310   0.103  1.4534  0.5067 -0.5496
 7013TIP3   OH220999   7.114   3.364   0.547  0.3610  0.1403 -1.0077
 7013TIP3    H121000   7.118   3.269   0.530  0.9317  0.0996 -0.6600
 7013TIP3    H221001   7.205   3.393   0.540 -0.0178  0.9440 -2.7019
 7014TIP3   OH221002   5.466   3.710   6.118  0.6567 -0.1784  0.1813
 7014TIP3    H121003   5.396   3.646   6.103  0.4745 -0.1426  0.8584
 7014TIP3    H221004   5.501   3.687   6.205  0.2146  0.9919  0.6746
 7015TIP3   OH221005   1.144   1.360   5.024  0.0292  0.1354 -0.0859
 7015TIP3    H121006   1.143   1.305   4.946 -1.0648 -2.6918  1.8344
 7015TIP3    H221007   1.229   1.344   5.065 -0.6160 -0.8018  0.9145
 7016TIP3   OH221008   7.119   4.662   3.419 -0.4102 -0.3244  0.0546
 7016TIP3    H121009   7.188   4.686   3.481  0.0171  0.2488 -0.6442
 7016TIP3    H221010   7.038   4.671   3.469 -0.0689  0.1876  0.5142
 7017TIP3   OH221011   6.698   4.023   2.882  0.2656 -0.2089  0.5419
 7017TIP3    H121012   6.663   4.043   2.969 -0.1419  0.1421  0.2972
 7017TIP3    H221013   6.754   4.098   2.861 -0.3345  0.1286  0.1263
 7018TIP3   OH221014   0.225   3.262   4.235  0.4461  0.6893  0.0354
 7018TIP3    H121015   0.287   3.281   4.164 -0.3820  0.9966 -0.6272
 7018TIP3    H221016   0.265   3.191   4.284  0.5742 -0.2056 -1.3434
 7019TIP3   OH221017   0.200   2.908   5.439 -0.3924  0.1910 -0.2733
 7019TIP3    H121018   0.188   2.894   5.533  1.7439 -0.7545 -0.1115
 7019TIP3    H221019   0.218   3.001   5.430 -0.7344  0.3070  0.2203
 7020TIP3   OH221020   4.906   5.056   4.064 -0.0980 -0.4054 -0.1797
 7020TIP3    H121021   4.933   4.995   4.132  0.4834  1.5853  1.4527
 7020TIP3    H221022   4.814   5.034   4.046  0.0793 -1.6673  0.4512
 7021TIP3   OH221023   0.282   6.150   2.703 -0.1369 -0.4871 -0.6044
 7021TIP3    H121024   0.281   6.102   2.786 -0.4909 -0.6976 -0.7299
 7021TIP3    H221025   0.248   6.237   2.725 -0.8300 -0.7455 -0.6536
 7022TIP3   OH221026   7.559   7.231   1.984 -0.6622  0.1184  0.3799
 7022TIP3    H121027   7.489   7.166   1.997 -1.0131  0.5108  0.4852
 7022TIP3    H221028   7.620   7.189   1.923 -0.6780 -0.4671  0.7614
 7023TIP3   OH221029   6.024   5.705   5.150 -0.1785  0.1232  0.5976
 7023TIP3    H121030   5.966   5.647   5.200  0.4336  0.8448  2.1841
 7023TIP3    H221031   5.964   5.764   5.103 -0.7867 -1.4909 -0.6874
 7024TIP3   OH221032   1.746   5.461   0.627 -0.2037  0.0901 -0.5148
 7024TIP3    H121033   1.677   5.524   0.607 -1.4791 -1.6690 -1.8208
 7024TIP3    H221034   1.818   5.485   0.569 -0.2773  1.0162 -0.2240
 7025TIP3   OH221035   6.131   3.682   5.607 -0.5223 -0.0365  0.3740
 7025TIP3    H121036   6.183   3.754   5.643 -1.1377 -0.0267  1.2649
 7025TIP3    H221037   6.167   3.603   5.648 -1.1188 -0.0408  0.9042
 7026TIP3   OH221038   5.976   3.966   3.338 -0.1417 -0.0433  0.5558
 7026TIP3    H121039   5.923   4.008   3.270  0.4519  0.5342  0.4474
 7026TIP3    H221040   5.990   3.877   3.305 -2.4319 -0.7257  1.3518
 7027TIP3   OH221041   0.074   2.828   4.968  0.1839 -0.3020  0.0770
 7027TIP3    H121042   0.118   2.743   4.972 -0.0041 -0.5374 -2.1067
 7027TIP3    H221043   0.115   2.873   4.894 -0.3159  1.1783  0.6719
 7028TIP3   OH221044   4.452   6.063   5.758 -0.4086 -0.5584  1.0496
 7028TIP3    H121045   4.429   6.038   5.669  0.9560  0.7606  0.2982
 7028TIP3    H221046   4.449   6.158   5.758  1.7537 -0.4551  1.7874
 7029TIP3   OH221047   6.699   4.612   4.015 -0.0112 -0.3217 -0.1004
 7029TIP3    H121048   6.747   4.637   3.936  0.8031  0.0675  0.5003
 7029TIP3    H221049   6.631   4.680   4.024 -0.6815 -0.8778 -0.9562
 7030TIP3   OH221050   6.392   3.566   6.164  0.0590  0.1302  0.3236
 7030TIP3    H121051   6.380   3.471   6.156 -1.0497  0.3240 -0.4056
 7030TIP3    H221052   6.364   3.601   6.079 -1.6487  1.2975  1.3261
 7031TIP3   OH221053   7.044   6.518   3.510  0.1684  0.0653  0.6168
 7031TIP3    H121054   7.009   6.430   3.528 -0.0290  0.3028  1.4135
 7031TIP3    H221055   7.136   6.504   3.490  0.5949 -0.1193  2.6803
 7032TIP3   OH221056   6.326   5.975   2.896 -0.1263 -0.0754  0.3801
 7032TIP3    H121057   6.363   6.051   2.942  0.3588  0.2542 -0.5598
 7032TIP3    H221058   6.262   6.013   2.836 -0.2054 -0.4523  0.2292
 7033TIP3   OH221059   6.172   6.521   5.304  0.3038  0.2468 -0.5018
 7033TIP3    H121060   6.164   6.427   5.319  0.8585 -0.3645 -3.6834
 7033TIP3    H221061   6.087   6.556   5.331  0.2780 -1.0517  1.2339
 7034TIP3   OH221062   0.731   6.872   3.382 -0.0210  0.4052 -0.3323
 7034TIP3    H121063   0.723   6.777   3.393  0.0885  0.3774 -0.4967
 7034TIP3    H221064   0.704   6.888   3.292  0.4090  0.4756 -0.4501
 7035TIP3   OH221065   7.150   5.672   3.247 -0.2553 -0.0073  0.2087
 7035TIP3    H121066   7.204   5.744   3.213 -2.2656  0.8716 -1.1732
 7035TIP3    H221067   7.152   5.606   3.178 -0.0832 -0.4560  0.6323
 7036TIP3   OH221068   6.756   6.432   1.587  0.2644 -0.2116 -0.0529
 7036TIP3    H121069   6.666   6.445   1.618  0.5681 -0.3560  0.9113
 7036TIP3    H221070   6.810   6.445   1.665  1.3998  3.7762 -1.3845
 7037TIP3   OH221071   6.634   6.092   4.737 -0.1114  0.0242  0.3358
 7037TIP3    H121072   6.601   6.053   4.656  0.3774  0.8541 -0.2654
 7037TIP3    H221073   6.580   6.054   4.806  0.1507 -1.4823 -0.2768
 7038TIP3   OH221074   4.928   4.249   2.262 -0.4721  0.2482  0.3694
 7038TIP3    H121075   4.933   4.153   2.266  0.4429  0.2398 -0.6087
 7038TIP3    H221076   4.842   4.267   2.224  0.0472 -0.2435 -1.0585
 7039TIP3   OH221077   6.330   2.682   2.447 -0.0018 -0.5075  0.2171
 7039TIP3    H121078   6.412   2.634   2.462 -0.0250 -0.7668 -0.4407
 7039TIP3    H221079   6.314   2.673   2.353  0.3733  1.4149 -0.0539
 7040TIP3   OH221080   0.817   0.435   2.263 -0.5901 -0.2063  0.0078
 7040TIP3    H121081   0.825   0.525   2.297  1.1864 -0.5651  0.6230
 7040TIP3    H221082   0.730   0.432   2.224 -0.0674  2.3329 -1.5347
 7041TIP3   OH221083   0.864   5.198   3.467 -0.1115  0.7410 -0.0992
 7041TIP3    H121084   0.874   5.114   3.422  0.0430  1.6049 -1.7488
 7041TIP3    H221085   0.769   5.206   3.482 -0.1535  0.3895 -0.1877
 7042TIP3   OH221086   0.423   4.072   3.665  0.2631  0.0110 -0.2307
 7042TIP3    H121087   0.428   4.146   3.725  1.1794  0.6811 -1.1069
 7042TIP3    H221088   0.509   4.032   3.668 -0.0839 -0.7359 -0.1191
 7043TIP3   OH221089   6.874   3.002   3.759  0.9197 -0.3768  0.6703
 7043TIP3    H121090   6.811   3.007   3.831 -1.6009 -0.3697 -1.5012
 7043TIP3    H221091   6.868   2.912   3.727 -0.2029  0.4288 -1.4661
 7044TIP3   OH221092   0.277   5.486   4.539  0.1974  0.0189 -0.3229
 7044TIP3    H121093   0.262   5.575   4.570 -0.8347 -0.3739  0.3052
 7044TIP3    H221094   0.242   5.429   4.607  0.2909 -0.8767 -0.9961
 7045TIP3   OH221095   5.091   3.449   1.334  0.0489 -0.0753  0.1667
 7045TIP3    H121096   5.138   3.399   1.268  0.2782  0.5659 -0.1627
 7045TIP3    H221097   5.159   3.493   1.385 -0.1786  0.8855 -0.3387
 7046TIP3   OH221098   7.382   3.998   6.324 -0.5591 -0.0481  0.0619
 7046TIP3    H121099   7.448   4.029   6.262 -0.5069  1.6747  0.9244
 7046TIP3    H221100   7.315   4.067   6.323 -0.7355 -0.1707  1.6239
 7047TIP3   OH221101   0.137   6.370   4.847 -0.1852  0.1865 -0.0623
 7047TIP3    H121102   0.093   6.287   4.829  0.6793 -0.0945 -0.9488
 7047TIP3    H221103   0.107   6.428   4.778  1.4433 -0.2461 -1.1584
 7048TIP3   OH221104   5.901   4.879   2.529  0.2096  0.2662 -0.2391
 7048TIP3    H121105   5.924   4.787   2.539  2.0095  0.7523  0.1946
 7048TIP3    H221106   5.848   4.881   2.449  1.5880 -0.9038 -1.2037
 7049TIP3   OH221107   0.378   4.967   5.653 -0.3881  0.6868 -0.1412
 7049TIP3    H121108   0.456   4.961   5.597 -0.4570  1.2103 -0.3053
 7049TIP3    H221109   0.308   4.926   5.602 -0.0180 -0.6508  0.4076
 7050TIP3   OH221110   0.430   5.187   2.567  0.4244 -0.1647 -0.0056
 7050TIP3    H121111   0.348   5.232   2.551 -1.0177 -2.5463  0.4381
 7050TIP3    H221112   0.444   5.134   2.488  1.5979  0.2794 -0.1139
 7051TIP3   OH221113   6.954   3.573   5.927 -0.0725  0.6910 -0.2229
 7051TIP3    H121114   6.865   3.587   5.894  0.1199  0.2881 -0.9211
 7051TIP3    H221115   6.973   3.651   5.980 -1.4958 -0.0044  1.3759
 7052TIP3   OH221116   6.356   6.256   4.783  0.0722 -0.0499 -0.2388
 7052TIP3    H121117   6.443   6.274   4.746  0.2388 -0.0335  0.1598
 7052TIP3    H221118   6.298   6.254   4.707  0.3098  0.6124 -0.4485
 7053TIP3   OH221119   0.197   1.103   3.884  0.5535  0.1228 -0.0710
 7053TIP3    H121120   0.104   1.089   3.904  0.5541  1.1267  0.6419
 7053TIP3    H221121   0.227   1.166   3.949  1.3575  0.9683 -1.2203
 7054TIP3   OH221122   6.372   3.621   2.679  0.0624  0.0626 -0.0929
 7054TIP3    H121123   6.462   3.589   2.673 -0.2767 -0.8317 -0.3722
 7054TIP3    H221124   6.368   3.666   2.764  1.3503  1.9294 -0.9706
 7055TIP3   OH221125   7.182   3.915   5.525  0.5721  0.4193  0.0603
 7055TIP3    H121126   7.173   3.945   5.435 -2.3579  0.4927  0.3425
 7055TIP3    H221127   7.151   3.825   5.525  1.9721 -0.0802  0.7262
 7056TIP3   OH221128   5.053   2.659   4.937  0.1114 -0.0416  0.2441
 7056TIP3    H121129   5.028   2.711   4.860  0.2835  1.2793  1.0553
 7056TIP3    H221130   5.147   2.645   4.927  0.3863  1.2542  0.8480
 7057TIP3   OH221131   7.604   3.501   2.038 -0.0828  0.4467  0.6002
 7057TIP3    H121132   7.659   3.428   2.067 -0.9610  0.5376  2.5245
 7057TIP3    H221133   7.598   3.559   2.114 -1.8146  1.0752  0.0052
 7058TIP3   OH221134   6.699   3.817   3.633  0.0465 -0.0483 -0.0283
 7058TIP3    H121135   6.671   3.902   3.668 -1.7886 -1.2446  1.5068
 7058TIP3    H221136   6.631   3.794   3.570  0.3709 -0.5499 -0.1971
 7059TIP3   OH221137   0.565   7.218   2.166  0.1289 -0.0438 -0.2651
 7059TIP3    H121138   0.504   7.145   2.154 -1.0589  0.9623 -0.4946
 7059TIP3    H221139   0.509   7.290   2.197  1.3665  0.6159  0.4441
 7060TIP3   OH221140   6.875   3.672   3.789  0.5845 -0.0806  0.8971
 7060TIP3    H121141   6.805   3.723   3.749  0.8108 -0.1481  0.4021
 7060TIP3    H221142   6.871   3.587   3.746 -0.2027 -0.7044  2.1814
 7061TIP3   OH221143   6.510   5.382   4.867 -0.0440  0.2783  0.1078
 7061TIP3    H121144   6.518   5.477   4.856 -0.2156  0.3611  0.6584
 7061TIP3    H221145   6.591   5.356   4.911 -0.8089  0.4646  1.6926
 7062TIP3   OH221146   6.622   4.789   5.829  0.1442  0.3882 -0.1441
 7062TIP3    H121147   6.618   4.884   5.842  1.3352  0.4978 -0.4567
 7062TIP3    H221148   6.551   4.754   5.882  0.2930  1.3978  0.7396
 7063TIP3   OH221149   5.169   5.940   3.942  0.2308 -0.1603  0.1960
 7063TIP3    H121150   5.173   5.863   4.000 -0.1207 -0.3553 -0.0373
 7063TIP3    H221151   5.160   6.014   4.001 -0.0610 -0.3526  0.3974
 7064TIP3   OH221152   5.772   6.069   4.857  0.4702  0.2200  0.4720
 7064TIP3    H121153   5.686   6.101   4.827  0.4546 -0.4913 -0.2853
 7064TIP3    H221154   5.835   6.120   4.806  0.4687 -0.0213  0.2243
 7065TIP3   OH221155   5.314   0.570   0.111  0.4393  0.4916  0.1149
 7065TIP3    H121156   5.359   0.502   0.161  2.1358  0.3010 -1.5993
 7065TIP3    H221157   5.240   0.596   0.166  0.7607 -1.5232  1.5550
 7066TIP3   OH221158   4.647   6.957   5.598 -0.0223  0.3666 -0.1973
 7066TIP3    H121159   4.569   6.913   5.631  0.5810 -0.7635 -0.2813
 7066TIP3    H221160   4.702   6.970   5.675 -0.1815  0.9502 -0.1779
 7067TIP3   OH221161   4.169   5.366   3.884  0.2651  0.3494  0.0735
 7067TIP3    H121162   4.233   5.318   3.936 -0.2581 -0.3535  0.0857
 7067TIP3    H221163   4.104   5.396   3.948 -0.1476 -0.1362 -0.1161
 7068TIP3   OH221164   4.261   7.271   1.871  0.8107  0.1757  0.2097
 7068TIP3    H121165   4.195   7.271   1.941  1.1814  0.2785  0.5575
 7068TIP3    H221166   4.210   7.286   1.792  0.2458 -1.0741  0.3207
 7069TIP3   OH221167   0.770   7.015   2.070  0.2724 -0.0626  0.4578
 7069TIP3    H121168   0.698   7.066   2.105  0.4279  0.7883 -0.4190
 7069TIP3    H221169   0.734   6.928   2.057  0.0226 -0.2091  2.0461
 7070TIP3   OH221170   7.708   5.425   4.776  0.5830  0.2353  0.2946
 7070TIP3    H121171   7.746   5.476   4.705 -1.8655  1.1592 -0.3857
 7070TIP3    H221172   7.743   5.464   4.856  0.2691  1.7211 -0.2858
 7071TIP3   OH221173   6.486   2.819   5.042  0.0347  0.4862 -0.3880
 7071TIP3    H121174   6.431   2.897   5.048  1.0815  1.1557  0.7360
 7071TIP3    H221175   6.529   2.814   5.128  0.9580 -0.5889 -0.9060
 7072TIP3   OH221176   5.130   6.033   5.981 -0.0508 -0.3721  0.4086
 7072TIP3    H121177   5.058   5.972   5.964 -0.0325 -0.2200 -0.2079
 7072TIP3    H221178   5.178   5.993   6.054  0.5102 -1.5654 -0.6072
 7073TIP3   OH221179   6.571   4.106   3.784 -0.4528 -0.5423  0.0722
 7073TIP3    H121180   6.588   4.189   3.739  0.3294 -1.0378 -0.5514
 7073TIP3    H221181   6.476   4.107   3.801 -0.8021 -0.4559 -1.7951
 7074TIP3   OH221182   5.138   0.191   0.258 -0.3389  0.5159 -0.5003
 7074TIP3    H121183   5.220   0.231   0.230 -1.9195  1.8788 -3.3953
 7074TIP3    H221184   5.140   0.197   0.354  2.6809  0.9927 -0.5647
 7075TIP3   OH221185   7.128   4.925   3.167  0.0019  0.0210  0.0145
 7075TIP3    H121186   7.128   4.987   3.093 -0.4010 -0.9932 -0.8416
 7075TIP3    H221187   7.220   4.900   3.176  0.3245  1.5048  1.0158
 7076TIP3   OH221188   6.204   4.463   3.270  0.1027 -0.3605 -0.0179
 7076TIP3    H121189   6.239   4.549   3.247  1.6457 -1.2724 -1.1723
 7076TIP3    H221190   6.112   4.468   3.245  0.3151  0.7566 -0.6606
 7077TIP3   OH221191   6.149   2.395   3.174 -0.1538  0.7698  0.2576
 7077TIP3    H121192   6.143   2.480   3.218 -0.4667  0.3561  1.0319
 7077TIP3    H221193   6.087   2.339   3.222 -1.4617  0.6426 -1.5073
 7078TIP3   OH221194   4.540   3.347   4.139 -0.0107  0.1110 -0.4282
 7078TIP3    H121195   4.634   3.342   4.119 -0.2142  0.2616 -1.4218
 7078TIP3    H221196   4.528   3.436   4.174  0.9064 -1.1452  3.3737
 7079TIP3   OH221197   7.097   4.398   2.813 -0.0656 -0.1741 -0.1720
 7079TIP3    H121198   7.025   4.339   2.833 -1.5871  0.5739 -3.1314
 7079TIP3    H221199   7.098   4.403   2.717  1.2449  3.1189 -0.0404
 7080TIP3   OH221200   5.982   4.375   3.651  0.3037 -0.2485  0.2764
 7080TIP3    H121201   5.983   4.303   3.588 -1.8700 -1.7576  1.8984
 7080TIP3    H221202   6.052   4.354   3.713  1.3460  0.3744 -0.6776
 7081TIP3   OH221203   6.642   5.581   2.771 -0.1485  0.8127  0.0727
 7081TIP3    H121204   6.644   5.629   2.853 -1.8781  0.3094  0.4319
 7081TIP3    H221205   6.572   5.517   2.782 -0.3967  0.7337 -1.7933
 7082TIP3   OH221206   5.770   5.971   5.319 -0.0404  0.5783  0.8693
 7082TIP3    H121207   5.833   5.915   5.365  1.1465  1.9463  0.9441
 7082TIP3    H221208   5.721   6.014   5.389 -0.2688  0.3776  0.8299
 7083TIP3   OH221209   4.760   3.699   2.710  0.1327  0.7065  0.1501
 7083TIP3    H121210   4.724   3.626   2.762 -0.0182  0.2266 -0.6114
 7083TIP3    H221211   4.797   3.657   2.633 -0.3131  1.4818 -0.4911
 7084TIP3   OH221212   6.121   4.177   2.493 -0.2181 -0.0066  0.2196
 7084TIP3    H121213   6.185   4.120   2.536  1.5463  1.4038 -0.4687
 7084TIP3    H221214   6.068   4.117   2.441 -0.0818 -1.3189  1.5264
 7085TIP3   OH221215   5.806   4.757   3.999 -0.2556 -0.1658  0.9084
 7085TIP3    H121216   5.800   4.852   3.986 -2.9656 -0.3937  0.2468
 7085TIP3    H221217   5.895   4.743   4.032  0.5208  2.4901  0.0744
 7086TIP3   OH221218   0.246   3.205   5.439  0.1793 -0.2031 -0.1137
 7086TIP3    H121219   0.213   3.287   5.477  0.0327 -0.5204  0.4470
 7086TIP3    H221220   0.273   3.229   5.350  3.0375  1.1457  1.0518
 7087TIP3   OH221221   6.472   3.107   5.614  0.3020 -0.0441 -0.0135
 7087TIP3    H121222   6.394   3.052   5.609  1.2529 -1.2710 -1.4228
 7087TIP3    H221223   6.466   3.164   5.537  0.8524 -0.2113 -0.1799
 7088TIP3   OH221224   3.311   4.589   3.800  0.6009  0.3059  0.2878
 7088TIP3    H121225   3.330   4.664   3.744  1.5011 -0.6113 -0.6801
 7088TIP3    H221226   3.240   4.543   3.754 -0.9764  1.3559  1.6401
 7089TIP3   OH221227   6.277   3.300   6.109 -0.3728  0.1745  0.3105
 7089TIP3    H121228   6.338   3.256   6.168 -0.8955  0.5879  1.1554
 7089TIP3    H221229   6.217   3.231   6.081  0.6581 -0.3065 -0.7718
 7090TIP3   OH221230   0.460   6.461   2.898 -0.1884  0.0029  0.2472
 7090TIP3    H121231   0.412   6.536   2.932 -0.2686  0.0320  0.0680
 7090TIP3    H221232   0.422   6.386   2.944 -0.9188 -0.0559 -0.4406
 7091TIP3   OH221233   5.370   3.352   2.501 -0.0423  0.7224  0.0639
 7091TIP3    H121234   5.431   3.415   2.461  0.3678  0.4102  0.1931
 7091TIP3    H221235   5.382   3.364   2.595 -0.0322  0.5185  0.0892
 7092TIP3   OH221236   6.432   6.131   3.212  0.3740  0.4552  0.3542
 7092TIP3    H121237   6.416   6.178   3.294 -0.0823 -0.0033  0.5347
 7092TIP3    H221238   6.455   6.042   3.239  0.9299  0.4909  0.0048
 7093TIP3   OH221239   1.334   5.066   4.335 -0.0769  0.2199  0.2282
 7093TIP3    H121240   1.325   5.154   4.371  0.3893 -0.3107  1.7049
 7093TIP3    H221241   1.396   5.022   4.394 -0.0370 -0.9891 -0.6827
 7094TIP3   OH221242   6.834   2.681   2.905 -0.0367  0.3967 -0.0182
 7094TIP3    H121243   6.793   2.707   2.987 -1.7139 -0.1691 -0.6673
 7094TIP3    H221244   6.815   2.588   2.896  1.6744  0.0486 -0.1687
 7095TIP3   OH221245   4.949   4.020   1.645 -0.0093 -0.4409 -0.1417
 7095TIP3    H121246   4.868   4.028   1.696  0.5519 -2.3693  1.1088
 7095TIP3    H221247   4.935   3.943   1.591  1.5245 -1.6249  1.1142
 7096TIP3   OH221248   5.883   6.135   2.093 -0.0811  0.0888 -0.0214
 7096TIP3    H121249   5.854   6.226   2.097 -0.0796  0.0762  0.3551
 7096TIP3    H221250   5.969   6.139   2.052  0.0486  0.2902  0.2671
 7097TIP3   OH221251   7.407   4.238   2.524  0.1963 -0.4036 -0.2042
 7097TIP3    H121252   7.350   4.191   2.584 -0.0343  2.5784  2.0316
 7097TIP3    H221253   7.475   4.276   2.580  1.5753  0.1491 -2.1857
 7098TIP3   OH221254   0.786   5.430   5.516  0.6439  0.1875  0.1539
 7098TIP3    H121255   0.832   5.466   5.592  1.1763  0.3755 -0.2465
 7098TIP3    H221256   0.856   5.393   5.462  0.5173  1.8661 -1.2160
 7099TIP3   OH221257   7.364   4.697   3.564 -0.1186 -0.2448 -0.0640
 7099TIP3    H121258   7.406   4.781   3.543  1.0472 -0.8684 -0.2847
 7099TIP3    H221259   7.404   4.635   3.502 -0.1767 -1.1739  0.8245
 7100TIP3   OH221260   7.572   5.330   4.323 -0.1471  0.0310  0.2461
 7100TIP3    H121261   7.630   5.308   4.396 -1.6558 -0.0918  1.4336
 7100TIP3    H221262   7.567   5.250   4.271  0.5968 -0.0157  0.2465
 7101TIP3   OH221263   5.980   3.936   1.766 -0.0330  0.2140 -0.7779
 7101TIP3    H121264   6.042   3.961   1.697  0.6019  0.3741 -0.1564
 7101TIP3    H221265   6.000   3.843   1.782  0.1337  0.2979 -0.4929
 7102TIP3   OH221266   7.790   4.874   5.111 -0.5281  0.3389  0.2359
 7102TIP3    H121267   7.770   4.874   5.204  1.0803 -0.4791  0.6057
 7102TIP3    H221268   7.735   4.805   5.074 -1.2456  0.7372  0.5555
 7103TIP3   OH221269   5.971   4.503   2.224  0.5574  0.1051 -0.2641
 7103TIP3    H121270   5.908   4.575   2.218 -0.6109 -0.6804  1.8399
 7103TIP3    H221271   5.922   4.425   2.198  0.5552 -0.5437  1.5535
 7104TIP3   OH221272   5.172   5.939   0.404  0.0706  0.5870 -0.6044
 7104TIP3    H121273   5.081   5.966   0.417  0.1208 -0.8583  3.5499
 7104TIP3    H221274   5.166   5.851   0.368 -0.1798  0.6495 -0.7143
 7105TIP3   OH221275   7.130   3.757   3.572  0.3507 -0.2182  0.4279
 7105TIP3    H121276   7.151   3.706   3.650  0.8399 -0.9986 -0.2068
 7105TIP3    H221277   7.062   3.706   3.527 -1.0568  0.9871  1.1150
 7106TIP3   OH221278   7.621   4.280   3.627  0.3186  0.7340 -0.1076
 7106TIP3    H121279   7.631   4.360   3.678 -1.2359  0.2629  0.9838
 7106TIP3    H221280   7.599   4.213   3.692  1.2478 -0.5019 -1.0521
 7107TIP3   OH221281   7.036   6.846   3.960  0.0037 -0.8250 -0.7058
 7107TIP3    H121282   6.946   6.819   3.942 -0.3397  0.1178 -0.4350
 7107TIP3    H221283   7.065   6.789   4.031 -1.5010  0.9817  1.4607
 7108TIP3   OH221284   7.122   5.518   2.767  0.2936  0.0487 -0.0443
 7108TIP3    H121285   7.053   5.499   2.703 -0.3291  2.0416  0.0188
 7108TIP3    H221286   7.139   5.612   2.758  2.2031 -0.1939  0.7413
 7109TIP3   OH221287   1.592   5.416   5.873 -0.3310  0.5333  0.8183
 7109TIP3    H121288   1.596   5.512   5.880 -0.8471  0.4151  3.0726
 7109TIP3    H221289   1.619   5.385   5.960 -1.4527 -1.3374  0.5127
 7110TIP3   OH221290   2.452   5.746   3.437  0.4659 -0.1985  0.2227
 7110TIP3    H121291   2.428   5.754   3.344  1.4123 -0.0215 -0.0149
 7110TIP3    H221292   2.390   5.804   3.482 -0.4452 -0.8185 -0.2175
 7111TIP3   OH221293   6.831   5.614   5.620  0.0306 -0.2902  0.2544
 7111TIP3    H121294   6.806   5.692   5.669  0.1301 -0.3875  0.4654
 7111TIP3    H221295   6.749   5.570   5.601 -0.2368  1.1225 -2.0272
 7112TIP3   OH221296   7.525   6.562   4.561  0.7169 -0.4368 -0.1517
 7112TIP3    H121297   7.443   6.585   4.604  0.4651 -0.3626 -0.6657
 7112TIP3    H221298   7.499   6.531   4.474  1.2774  0.2462 -0.5665
 7113TIP3   OH221299   5.122   6.274   2.394  0.2458 -0.0196  0.1464
 7113TIP3    H121300   5.093   6.300   2.481  1.9703 -1.0566  1.0491
 7113TIP3    H221301   5.213   6.304   2.389  1.0019 -2.3231 -0.2817
 7114TIP3   OH221302   7.668   5.830   3.038 -0.0064  0.0086  0.6299
 7114TIP3    H121303   7.669   5.888   3.114  2.5338  1.5828 -0.5208
 7114TIP3    H221304   7.638   5.886   2.966  3.0803  0.1542 -0.6163
 7115TIP3   OH221305   7.237   7.219   2.458 -0.3364 -0.0857  0.2236
 7115TIP3    H121306   7.330   7.244   2.460 -0.3725  0.1263 -0.5397
 7115TIP3    H221307   7.205   7.238   2.546 -0.4050  2.6920 -0.3574
 7116TIP3   OH221308   6.806   5.244   4.838  0.0440  0.5489 -0.1616
 7116TIP3    H121309   6.777   5.238   4.747 -0.4774  2.8089 -0.1819
 7116TIP3    H221310   6.885   5.298   4.835  0.3840  0.1029  0.6377
 7117TIP3   OH221311   1.066   5.562   4.132 -0.0315 -0.2094  0.6306
 7117TIP3    H121312   1.101   5.474   4.115 -0.3815  0.0118 -1.2634
 7117TIP3    H221313   1.017   5.552   4.214  1.5460 -1.3213  1.4868
 7118TIP3   OH221314   7.333   6.077   2.957 -0.1684  0.0649 -0.3830
 7118TIP3    H121315   7.237   6.076   2.958 -0.2602 -2.9137  5.4173
 7118TIP3    H221316   7.357   6.160   2.998 -0.2041  0.5138 -1.2450
 7119TIP3   OH221317   6.102   6.218   5.265  0.1055  0.3265 -0.6366
 7119TIP3    H121318   6.144   6.133   5.251 -1.7614 -0.7620  0.1261
 7119TIP3    H221319   6.045   6.229   5.189 -1.0401  0.0141  0.1650
 7120TIP3   OH221320   7.672   5.251   2.228 -0.0681  0.5216 -0.4282
 7120TIP3    H121321   7.653   5.180   2.167 -1.4579  1.1621 -0.7670
 7120TIP3    H221322   7.737   5.305   2.183 -1.1393  1.0304 -1.3898
 7121TIP3   OH221323  -0.035   3.976   2.144 -0.0050 -0.1903  0.0214
 7121TIP3    H121324   0.024   3.903   2.127 -0.4045 -0.9482  1.7853
 7121TIP3    H221325   0.011   4.030   2.207 -0.4503  0.1491  0.0567
 7122TIP3   OH221326   6.272   3.474   4.672  0.0733 -0.4774  0.2278
 7122TIP3    H121327   6.285   3.385   4.639  1.1486 -0.3123  0.1860
 7122TIP3    H221328   6.361   3.506   4.690 -0.3269  0.4719  0.5416
 7123TIP3   OH221329   7.664   2.640   2.459 -0.0304  0.1396  0.4397
 7123TIP3    H121330   7.588   2.617   2.405  0.7432 -1.0370 -0.1656
 7123TIP3    H221331   7.739   2.633   2.400  0.4957  1.8720  0.8837
 7124TIP3   OH221332   0.759   4.057   3.187  0.1967  0.1814  0.0498
 7124TIP3    H121333   0.755   4.056   3.091  0.8698  1.5129  0.0060
 7124TIP3    H221334   0.699   3.987   3.213  0.8202 -0.9209 -1.3597
 7125TIP3   OH221335   6.826   4.256   4.456 -0.0800 -0.5739  0.0624
 7125TIP3    H121336   6.902   4.223   4.408 -0.3541 -2.6116  0.9748
 7125TIP3    H221337   6.860   4.283   4.541  0.1491  1.5924 -0.6953
 7126TIP3   OH221338   7.259   5.198   2.446 -0.2278  0.2179 -0.1465
 7126TIP3    H121339   7.224   5.134   2.384 -0.1674  0.4785 -0.4549
 7126TIP3    H221340   7.353   5.181   2.449  0.0791  1.4997 -1.6735
 7127TIP3   OH221341   7.776   5.303   2.723  0.3428  0.0755 -0.1388
 7127TIP3    H121342   7.753   5.243   2.794 -0.7329 -0.3199 -0.8166
 7127TIP3    H221343   7.838   5.364   2.763 -2.6760  1.8354  2.0544
 7128TIP3   OH221344   5.317   4.316   5.019 -0.6657  0.1932  0.9602
 7128TIP3    H121345   5.402   4.333   5.059  0.8069 -0.9484 -1.5756
 7128TIP3    H221346   5.326   4.229   4.980 -3.4802 -0.5533  1.8734
 7129TIP3   OH221347   7.483   3.813   3.509  0.3160 -0.2153 -0.1358
 7129TIP3    H121348   7.514   3.904   3.507  1.4418 -0.5953 -0.4202
 7129TIP3    H221349   7.425   3.809   3.585  0.6027  0.6288  0.1339
 7130TIP3   OH221350   0.217   4.454   0.749  0.1852  0.0246  0.2746
 7130TIP3    H121351   0.214   4.450   0.654  1.1002  1.0395  0.1919
 7130TIP3    H221352   0.135   4.496   0.774 -0.0072 -0.1437 -0.0704
 7131TIP3   OH221353   6.663   4.139   3.124 -0.5628  0.0136 -0.2534
 7131TIP3    H121354   6.632   4.079   3.191  0.7885  0.1382  0.5117
 7131TIP3    H221355   6.609   4.218   3.136 -1.3006 -0.4890 -0.2594
 7132TIP3   OH221356   2.741   0.838   5.239 -0.1852 -1.0087 -0.0810
 7132TIP3    H121357   2.689   0.850   5.318 -0.6339 -0.2058 -0.4877
 7132TIP3    H221358   2.798   0.915   5.237  0.0690 -1.2036 -0.3539
 7133TIP3   OH221359   1.876   0.797   1.646 -0.1751 -0.0866 -0.3541
 7133TIP3    H121360   1.914   0.740   1.578 -0.8614  0.3779 -1.1325
 7133TIP3    H221361   1.811   0.849   1.600 -0.7405  0.1463  0.6963
 7134TIP3   OH221362   7.086   4.608   4.561  0.8404  0.5141  0.3127
 7134TIP3    H121363   7.069   4.569   4.475  1.4527  1.9777 -0.5004
 7134TIP3    H221364   7.145   4.547   4.604 -0.5497 -0.9034  0.2306
 7135TIP3   OH221365   0.093   3.571   4.362 -0.2188 -0.2283  0.0964
 7135TIP3    H121366   0.132   3.641   4.415 -0.4487 -0.8952  1.1643
 7135TIP3    H221367   0.092   3.607   4.273 -0.0947  1.0250  0.5811
 7136TIP3   OH221368   2.863   0.081   3.945 -0.8823  0.3057 -0.2255
 7136TIP3    H121369   2.918   0.012   3.909 -0.9249  0.2810 -0.2424
 7136TIP3    H221370   2.785   0.036   3.976 -1.3356  0.4822 -1.1255
 7137TIP3   OH221371   7.244   4.445   3.200 -0.2371 -0.1075  0.2521
 7137TIP3    H121372   7.337   4.435   3.223 -0.3624 -1.9919 -0.0322
 7137TIP3    H221373   7.209   4.502   3.269  1.5135  2.1274 -0.6472
 7138TIP3   OH221374   2.239   0.074   0.574  0.2327 -0.2473 -0.0127
 7138TIP3    H121375   2.238  -0.019   0.556  2.3016  0.1419 -2.3669
 7138TIP3    H221376   2.148   0.102   0.561 -0.3004 -1.8108  0.2398
 7139TIP3   OH221377   3.524   0.178   2.053  0.0689 -0.6648  0.1178
 7139TIP3    H121378   3.449   0.134   2.013 -0.1340 -1.3810  1.2401
 7139TIP3    H221379   3.598   0.120   2.034 -0.0439 -1.0560  0.8272
 7140TIP3   OH221380   0.811   6.379   3.611  0.1128 -0.0559  0.6628
 7140TIP3    H121381   0.759   6.318   3.664  0.5843 -0.5427  0.5746
 7140TIP3    H221382   0.822   6.335   3.527 -1.5544  1.1958 -0.2224
 7141TIP3   OH221383   7.803   5.105   3.619  0.0581 -0.8334 -0.4675
 7141TIP3    H121384   7.766   5.185   3.656 -0.6418 -1.0138 -0.7616
 7141TIP3    H221385   7.796   5.117   3.525 -1.3965 -1.8375 -0.5123
 7142TIP3   OH221386   2.427   0.612   3.587  0.2906  0.5138 -0.1902
 7142TIP3    H121387   2.518   0.622   3.560 -0.3125  0.6190 -2.2190
 7142TIP3    H221388   2.378   0.669   3.528 -1.5375 -2.5734 -1.7454
 7143TIP3   OH221389   0.502   3.835   1.398 -0.4155  0.2925 -0.3194
 7143TIP3    H121390   0.509   3.742   1.423 -1.6780  0.4309  0.5982
 7143TIP3    H221391   0.408   3.850   1.386 -0.1137  1.1230 -1.8156
 7144TIP3   OH221392   7.561   6.877   2.146  0.0249 -0.4654 -0.1323
 7144TIP3    H121393   7.501   6.943   2.110  0.8678  1.0592  1.1870
 7144TIP3    H221394   7.647   6.901   2.111  0.0746 -1.9370 -1.0634
 7145TIP3   OH221395   6.729   6.814   2.869  0.1948 -0.4877 -0.4770
 7145TIP3    H121396   6.776   6.734   2.845 -1.3168 -0.9647 -1.9305
 7145TIP3    H221397   6.754   6.830   2.960  0.3518 -2.7297 -0.1047
 7146TIP3   OH221398   5.146   2.471   5.865  0.0380  0.2556 -0.0100
 7146TIP3    H121399   5.075   2.464   5.801  0.2054  2.5188 -0.5184
 7146TIP3    H221400   5.103   2.487   5.948 -0.1639 -2.2525  0.4080
 7147TIP3   OH221401   0.390   4.832   2.200  0.1507 -0.0127 -0.1250
 7147TIP3    H121402   0.322   4.869   2.143 -0.2486 -1.3339 -0.5133
 7147TIP3    H221403   0.459   4.804   2.140  0.1402 -0.5593  0.1215
 7148TIP3   OH221404   6.235   3.915   2.182 -0.2089 -0.0771  0.2528
 7148TIP3    H121405   6.163   3.873   2.135  0.2114  0.7062 -1.1268
 7148TIP3    H221406   6.200   3.932   2.269 -1.5367 -0.1371 -0.2568
 7149TIP3   OH221407   6.436   3.933   3.557  0.2637 -0.5849  0.1149
 7149TIP3    H121408   6.345   3.908   3.541  0.2075 -0.3528  0.0742
 7149TIP3    H221409   6.434   3.982   3.639  0.2176  0.2131 -0.3596
 7150TIP3   OH221410   6.530   3.047   4.340 -0.4393  0.1997 -0.1711
 7150TIP3    H121411   6.516   3.017   4.430 -1.0290  0.1088 -0.2924
 7150TIP3    H221412   6.552   2.968   4.291  1.0963  0.4275  0.1360
 7151TIP3   OH221413   6.203   3.787   1.595 -0.4869 -0.0152  0.1177
 7151TIP3    H121414   6.222   3.859   1.535 -0.3055 -0.8668 -0.8761
 7151TIP3    H221415   6.283   3.736   1.598 -1.3368 -1.4665 -1.0438
 7152TIP3   OH221416   6.148   5.662   3.173 -0.1284  0.4120 -0.4298
 7152TIP3    H121417   6.082   5.663   3.104 -0.6678  1.8771  0.1022
 7152TIP3    H221418   6.231   5.656   3.126 -0.6350 -2.0147 -1.0870
 7153TIP3   OH221419   6.348   5.742   4.716  0.5624 -0.1263 -0.4274
 7153TIP3    H121420   6.381   5.671   4.662  0.6590  0.0228 -0.5651
 7153TIP3    H221421   6.376   5.720   4.805 -0.0062 -0.6135 -0.3653
 7154TIP3   OH221422   1.020   5.583   4.522 -0.3235  0.2121  0.4545
 7154TIP3    H121423   1.078   5.650   4.487 -0.1213  0.7626  1.7918
 7154TIP3    H221424   1.071   5.543   4.593  0.3099 -2.6895 -1.5525
 7155TIP3   OH221425   3.962   1.110   2.785 -0.3699 -0.0507  0.3983
 7155TIP3    H121426   3.931   1.070   2.704  0.8942 -1.7352  0.7125
 7155TIP3    H221427   3.968   1.037   2.847  0.8307  0.8194  1.3333
 7156TIP3   OH221428   7.699   5.605   1.370  0.0126  0.2583  0.0346
 7156TIP3    H121429   7.741   5.597   1.284  0.3696  1.7389  0.0580
 7156TIP3    H221430   7.634   5.674   1.358  0.6297  1.0397  1.1700
 7157TIP3   OH221431   1.119   4.846   4.002  0.1313 -0.1032 -0.2901
 7157TIP3    H121432   1.091   4.932   4.034 -0.2205 -0.3421  0.0516
 7157TIP3    H221433   1.037   4.798   3.988  0.3745 -1.3660  2.2306
 7158TIP3   OH221434   2.171   0.052   1.842 -0.3118 -0.5180  0.6666
 7158TIP3    H121435   2.238  -0.003   1.882 -2.3566 -1.7808  2.5003
 7158TIP3    H221436   2.138   0.001   1.768 -0.8746 -0.9550  1.2087
 7159TIP3   OH221437   7.455   1.817   5.863  0.1263 -0.1099  0.2305
 7159TIP3    H121438   7.542   1.852   5.844 -0.9108  2.7979  0.5345
 7159TIP3    H221439   7.419   1.795   5.777  0.0036  1.5778 -0.1566
 7160TIP3   OH221440   7.266   6.424   2.056  0.4254  0.5020 -0.3227
 7160TIP3    H121441   7.271   6.516   2.082  1.5038  0.2837  0.2604
 7160TIP3    H221442   7.295   6.376   2.134  1.3098 -0.2677 -1.1221
 7161TIP3   OH221443   0.612   3.923   4.959  0.9614  0.4008  0.0855
 7161TIP3    H121444   0.553   3.848   4.950  0.7304  0.7855 -1.8145
 7161TIP3    H221445   0.592   3.959   5.045 -0.6597 -0.2501  0.0044
 7162TIP3   OH221446   0.863   4.811   2.715 -0.0107 -0.6297 -0.0477
 7162TIP3    H121447   0.929   4.764   2.768  1.0181  2.6446  1.6953
 7162TIP3    H221448   0.784   4.809   2.769  0.3035  0.4416  0.4606
 7163TIP3   OH221449   7.308   3.199   2.815  0.3017 -0.1381 -0.3009
 7163TIP3    H121450   7.263   3.273   2.855  0.4227  0.3585 -1.0952
 7163TIP3    H221451   7.239   3.134   2.801 -0.1018  0.4582 -1.1216
 7164TIP3   OH221452   6.702   2.954   3.414 -0.1808 -0.1580  0.8674
 7164TIP3    H121453   6.640   3.015   3.454 -0.9836 -1.6183  1.9242
 7164TIP3    H221454   6.786   2.998   3.420 -0.8720  1.1871  0.8553
 7165TIP3   OH221455   6.977   3.154   2.166  0.5121  0.3029 -0.4814
 7165TIP3    H121456   7.041   3.202   2.115  0.4422 -1.4846 -2.2903
 7165TIP3    H221457   6.894   3.170   2.122  0.5543 -1.8106 -1.3576
 7166TIP3   OH221458   0.395   5.489   3.720  0.2941  0.0892  0.3812
 7166TIP3    H121459   0.359   5.546   3.788 -1.7100 -1.4324  0.6149
 7166TIP3    H221460   0.321   5.473   3.661  1.3075 -0.8405 -0.6465
 7167TIP3   OH221461   0.286   4.940   3.990  0.0850  0.1575  0.1117
 7167TIP3    H121462   0.214   4.883   4.017  1.5254 -1.1446  1.3255
 7167TIP3    H221463   0.261   4.970   3.903 -1.2120 -1.4975 -0.1308
 7168TIP3   OH221464   6.605   3.293   3.309 -1.0463  0.0783  0.1157
 7168TIP3    H121465   6.530   3.325   3.258 -1.1992 -0.7761 -0.2208
 7168TIP3    H221466   6.565   3.250   3.385 -0.8214  1.2741  0.9111
 7169TIP3   OH221467   6.701   6.854   2.252 -0.8248  0.0304 -0.5225
 7169TIP3    H121468   6.683   6.831   2.344  0.6594 -1.0695 -0.4973
 7169TIP3    H221469   6.672   6.945   2.244 -2.0226 -0.2145  0.7329
 7170TIP3   OH221470   6.191   4.901   1.659 -0.5877 -0.4428  0.0755
 7170TIP3    H121471   6.251   4.960   1.613  0.1669 -0.3296  1.1976
 7170TIP3    H221472   6.109   4.949   1.663 -0.4736 -0.1857 -0.5717
 7171TIP3   OH221473   7.368   4.213   4.605 -0.1372 -0.2862 -0.1248
 7171TIP3    H121474   7.308   4.276   4.565 -1.9992 -0.9467  1.5816
 7171TIP3    H221475   7.422   4.266   4.664 -0.5449 -0.0353  0.0229
 7172TIP3   OH221476   7.644   5.756   3.651  0.0611 -0.0579 -0.2171
 7172TIP3    H121477   7.621   5.712   3.569 -0.5701  0.0748 -0.1101
 7172TIP3    H221478   7.729   5.796   3.633 -0.0652 -0.0461 -0.8027
 7173TIP3   OH221479   7.236   4.321   1.384 -0.3713 -0.4382  0.1351
 7173TIP3    H121480   7.223   4.376   1.462  0.4401 -1.5544  1.0705
 7173TIP3    H221481   7.331   4.310   1.378 -0.4972 -1.2528 -0.3940
 7174TIP3   OH221482   7.329   2.983   5.594 -0.4084  0.2848 -0.4527
 7174TIP3    H121483   7.313   2.896   5.629  1.4112  1.2592  3.0324
 7174TIP3    H221484   7.424   2.995   5.602 -0.4596  2.1208 -2.0860
 7175TIP3   OH221485   6.838   4.455   3.747 -0.0032  0.1508  0.0947
 7175TIP3    H121486   6.770   4.520   3.731  0.0035  0.0706 -0.2663
 7175TIP3    H221487   6.877   4.440   3.661  0.1618 -0.1425  0.2211
 7176TIP3   OH221488   6.006   4.655   3.756 -0.3121  0.1793 -0.4424
 7176TIP3    H121489   5.963   4.624   3.835 -1.9593  1.0760 -0.9625
 7176TIP3    H221490   6.041   4.577   3.714  0.4145 -0.3153  1.0792
 7177TIP3   OH221491   0.325   3.231   3.701  0.1183  0.2913 -0.0376
 7177TIP3    H121492   0.355   3.200   3.786  1.3904  0.5926 -0.3683
 7177TIP3    H221493   0.230   3.223   3.705  0.2013 -0.1837  1.2193
 7178TIP3   OH221494   6.936   2.835   5.157 -0.2885  0.2226  0.4059
 7178TIP3    H121495   7.015   2.877   5.123  0.7642 -1.1062  1.1682
 7178TIP3    H221496   6.920   2.878   5.240 -0.4560  0.5970  0.1801
 7179TIP3   OH221497   6.365   4.576   2.098 -0.5530 -0.3749  0.2061
 7179TIP3    H121498   6.279   4.588   2.058 -0.9394  1.2452  1.4744
 7179TIP3    H221499   6.397   4.665   2.114  1.0724 -0.9657  0.3516
 7180TIP3   OH221500   6.692   5.288   2.015 -0.0129  0.1621  0.4017
 7180TIP3    H121501   6.768   5.324   1.970 -0.1509 -0.8053 -0.6390
 7180TIP3    H221502   6.636   5.256   1.945 -0.6233 -0.6130  1.2299
 7181TIP3   OH221503   0.490   6.436   4.002  0.3722 -0.1340  0.2679
 7181TIP3    H121504   0.455   6.373   4.066 -0.3689  1.6715  1.6846
 7181TIP3    H221505   0.423   6.440   3.934  1.1798 -2.0910 -0.6808
 7182TIP3   OH221506   2.241   0.525   6.276 -0.4854 -0.2516 -0.5107
 7182TIP3    H121507   2.283   0.442   6.252  0.9036  0.6012 -1.0722
 7182TIP3    H221508   2.201   0.556   6.195  0.6012  0.5465 -0.7500
 7183TIP3   OH221509   7.034   6.006   2.778 -0.3725 -0.3691  0.2309
 7183TIP3    H121510   6.975   6.067   2.735 -1.1289 -0.6752  0.8304
 7183TIP3    H221511   7.022   6.022   2.872 -1.5082 -2.2759  0.4460
 7184TIP3   OH221512   0.709   7.356   1.952 -1.3319  0.2537  0.4086
 7184TIP3    H121513   0.675   7.315   2.031 -1.2166 -1.2570 -0.3123
 7184TIP3    H221514   0.640   7.344   1.887 -0.1611 -1.2475 -0.5659
 7185TIP3   OH221515   3.274   0.663   3.788  0.1277 -0.2376  0.3228
 7185TIP3    H121516   3.366   0.648   3.808  0.4948  0.7953 -0.5345
 7185TIP3    H221517   3.227   0.628   3.863  1.1004 -2.4856 -0.0728
 7186TIP3   OH221518   6.996   4.375   1.846  0.3322  0.1199 -0.2871
 7186TIP3    H121519   6.970   4.417   1.764  0.2282 -1.1643 -0.9138
 7186TIP3    H221520   6.978   4.282   1.833  0.0176 -0.0620  1.3021
 7187TIP3   OH221521   6.747   4.900   4.285  0.2399  0.1819  0.9141
 7187TIP3    H121522   6.843   4.898   4.288  0.3195 -0.0803 -1.0187
 7187TIP3    H221523   6.720   4.839   4.353  1.5131 -2.0606 -0.5044
 7188TIP3   OH221524   7.549   5.503   2.289 -0.2593 -0.3151 -0.7896
 7188TIP3    H121525   7.595   5.422   2.266  0.2641 -0.1390 -0.3810
 7188TIP3    H221526   7.579   5.566   2.223  1.8650  0.4028  0.8085
 7189TIP3   OH221527   0.746   3.899   2.278  0.0487  0.0514 -0.0134
 7189TIP3    H121528   0.756   3.994   2.287 -0.2682 -0.0534  1.5461
 7189TIP3    H221529   0.778   3.863   2.361 -1.6005 -1.0880  0.1591
 7190TIP3   OH221530   6.857   4.433   3.236  0.6788  0.2812  0.7206
 7190TIP3    H121531   6.901   4.512   3.205  1.6531 -1.1266 -1.6138
 7190TIP3    H221532   6.927   4.380   3.275  0.8291 -1.2144 -1.4680
 7191TIP3   OH221533   6.105   3.638   0.790  0.1006  0.3041 -0.0952
 7191TIP3    H121534   6.179   3.579   0.773 -0.4408 -0.5387  0.4026
 7191TIP3    H221535   6.142   3.726   0.781  1.0419 -0.1079 -0.3648
 7192TIP3   OH221536   0.847   2.131   3.642 -0.5137 -0.0294 -0.3022
 7192TIP3    H121537   0.768   2.136   3.696 -0.7319  0.2777 -0.6418
 7192TIP3    H221538   0.912   2.089   3.698 -0.7339  0.2955  0.2020
 7193TIP3   OH221539   7.615   4.747   3.932 -0.0503  0.7196  0.3192
 7193TIP3    H121540   7.655   4.830   3.905  1.2672  0.3039  0.9713
 7193TIP3    H221541   7.684   4.682   3.919 -0.9834 -0.2434  0.0892
 7194TIP3   OH221542   5.450   5.573   1.270  0.1269 -0.4521  0.1023
 7194TIP3    H121543   5.379   5.521   1.233 -1.0406  1.0001  0.2681
 7194TIP3    H221544   5.488   5.619   1.195 -0.7919  0.7654  0.3759
 7195TIP3   OH221545   6.973   5.283   5.938 -0.2045  0.5049  0.1017
 7195TIP3    H121546   7.029   5.345   5.890 -0.0510 -0.1231 -0.5554
 7195TIP3    H221547   6.957   5.324   6.022  1.0115  0.8386  0.1810
 7196TIP3   OH221548   2.678   0.415   5.664 -0.2034 -0.3941  0.8747
 7196TIP3    H121549   2.691   0.504   5.696 -1.2969 -0.6780  2.1900
 7196TIP3    H221550   2.634   0.425   5.580  0.6701  0.3320  0.5061
 7197TIP3   OH221551   7.209   5.306   5.101 -0.3231 -0.1017 -0.7867
 7197TIP3    H121552   7.218   5.294   5.196 -0.2225 -0.1798 -0.8066
 7197TIP3    H221553   7.151   5.382   5.093  1.5558  1.3759 -0.6634
 7198TIP3   OH221554   0.811   2.969   5.932  0.2727 -0.2837  0.0584
 7198TIP3    H121555   0.719   2.955   5.954  0.1281 -2.0105 -1.4992
 7198TIP3    H221556   0.809   3.028   5.856  0.4947  0.2313  0.4453
 7199TIP3   OH221557   0.530   5.627   4.283  0.2287  0.2284 -0.2943
 7199TIP3    H121558   0.559   5.627   4.191 -1.5696  0.2715 -0.8913
 7199TIP3    H221559   0.598   5.676   4.330  1.3062 -0.0215 -1.5534
 7200TIP3   OH221560   7.259   4.080   3.809 -0.7756  0.1990 -0.3586
 7200TIP3    H121561   7.271   4.175   3.804 -0.6361  0.1442 -1.1836
 7200TIP3    H221562   7.345   4.046   3.833 -0.8530  0.2899  0.0471
 7201TIP3   OH221563   2.003   5.586   4.779  0.2633 -0.2941 -0.2001
 7201TIP3    H121564   2.053   5.637   4.843 -1.0543 -0.0529  0.6588
 7201TIP3    H221565   1.938   5.647   4.746 -1.0514 -1.2891  0.5255
 7202TIP3   OH221566   7.179   6.274   3.823 -0.1346 -0.1167  0.1889
 7202TIP3    H121567   7.169   6.290   3.729 -0.4110  1.0920  0.4209
 7202TIP3    H221568   7.093   6.293   3.860  0.4199  1.0411  0.9099
 7203TIP3   OH221569   1.775   5.725   4.923  0.5695 -0.1875  0.8034
 7203TIP3    H121570   1.695   5.687   4.959  0.1911  1.0357  1.3073
 7203TIP3    H221571   1.846   5.668   4.954 -0.0510 -0.9251  0.8677
 7204TIP3   OH221572   6.212   2.091   0.793  0.0406  0.1471  0.2713
 7204TIP3    H121573   6.167   2.135   0.864 -0.6037  2.9864 -1.8084
 7204TIP3    H221574   6.142   2.055   0.739  0.4461 -0.1971 -0.0326
 7205TIP3   OH221575   2.257   5.492   5.499 -0.1219  0.3520  0.2662
 7205TIP3    H121576   2.352   5.494   5.511 -0.0811  2.5080 -0.2818
 7205TIP3    H221577   2.222   5.536   5.576 -0.6185  0.6657 -0.1372
 7206TIP3   OH221578   0.245   2.943   5.860 -0.4285  0.5909 -0.0773
 7206TIP3    H121579   0.298   2.888   5.802 -1.3087 -1.0529  0.6563
 7206TIP3    H221580   0.227   2.888   5.936 -5.4816  0.0810 -1.4624
 7207TIP3   OH221581   6.934   6.339   5.746 -0.2909  0.0488  0.2023
 7207TIP3    H121582   6.847   6.360   5.711  0.1328 -0.1195 -0.9905
 7207TIP3    H221583   6.972   6.423   5.770 -0.2617  0.2485 -0.5414
 7208TIP3   OH221584   2.417   5.329   3.911  0.1747 -0.2984  0.0516
 7208TIP3    H121585   2.334   5.377   3.912 -0.5239 -1.4929 -0.3088
 7208TIP3    H221586   2.443   5.329   3.819  0.5180 -0.0233  0.1492
 7209TIP3   OH221587   1.002   4.573   5.082  0.0852 -0.3567 -0.2841
 7209TIP3    H121588   1.012   4.606   4.993  0.3732 -1.3733 -0.6360
 7209TIP3    H221589   1.043   4.640   5.137  1.0056 -0.2936 -1.0209
 7210TIP3   OH221590   1.124   5.112   5.180 -0.2088  0.3326 -0.0037
 7210TIP3    H121591   1.105   5.167   5.104 -1.4975  0.2006  0.2161
 7210TIP3    H221592   1.219   5.113   5.187 -0.0871  0.3622 -1.6101
 7211TIP3   OH221593   1.075   3.282   3.563  0.3885  0.1658 -0.4493
 7211TIP3    H121594   1.094   3.360   3.614 -1.6590 -0.4418  1.3178
 7211TIP3    H221595   1.160   3.254   3.529  1.8620  0.4045  2.8840
 7212TIP3   OH221596   0.951   6.892   4.074 -0.4200 -0.1546  0.1844
 7212TIP3    H121597   1.011   6.818   4.060 -0.5507 -0.1561 -0.3768
 7212TIP3    H221598   0.864   6.856   4.057 -0.6565 -0.3322  1.6672
 7213TIP3   OH221599   7.773   4.927   5.753  0.0029 -0.0889 -0.2120
 7213TIP3    H121600   7.797   4.847   5.705 -0.8666 -0.3586 -0.2108
 7213TIP3    H221601   7.683   4.945   5.724  0.1250  0.7702 -0.0470
 7214TIP3   OH221602   6.572   2.326   0.093 -0.4812 -0.1866  0.3811
 7214TIP3    H121603   6.518   2.307   0.017  0.5914 -1.8828  0.0313
 7214TIP3    H221604   6.514   2.376   0.152 -0.7124  2.9585 -2.3645
 7215TIP3   OH221605   5.965   0.680   0.120 -0.0024  0.1222  0.0979
 7215TIP3    H121606   6.047   0.687   0.071  0.1047 -1.3529  0.0527
 7215TIP3    H221607   5.967   0.755   0.180  1.3909  0.0906  0.1066
 7216TIP3   OH221608   7.100   5.498   1.729 -0.1537  0.5683 -0.5835
 7216TIP3    H121609   7.179   5.456   1.763 -0.4003 -0.2471 -1.0063
 7216TIP3    H221610   7.046   5.425   1.698 -0.9018  1.1508 -0.6455
 7217TIP3   OH221611   1.761   3.894   5.947  0.0361  0.3291 -0.1575
 7217TIP3    H121612   1.716   3.893   6.032  0.1827  3.3524  0.0314
 7217TIP3    H221613   1.846   3.854   5.964 -1.1908 -2.1866  0.3076
 7218TIP3   OH221614   0.692   5.894   4.030 -0.3698  0.1775 -0.1352
 7218TIP3    H121615   0.625   5.927   4.089 -0.0030  0.7804 -0.0500
 7218TIP3    H221616   0.750   5.843   4.085 -0.0701  0.6779  0.0163
 7219TIP3   OH221617   0.455   4.273   5.755  0.8785  0.2870  0.4959
 7219TIP3    H121618   0.365   4.269   5.722  0.4751 -0.5580  1.6655
 7219TIP3    H221619   0.453   4.220   5.835  2.2075  1.0068  1.0126
 7220TIP3   OH221620   1.104   6.608   3.591  0.3732 -0.4706  0.0628
 7220TIP3    H121621   1.044   6.538   3.564  0.8114 -1.0039  0.4688
 7220TIP3    H221622   1.186   6.563   3.610  0.2895 -0.0194  1.5645
 7221TIP3   OH221623   0.378   4.959   4.399  0.0250  0.0996  0.1234
 7221TIP3    H121624   0.341   5.040   4.434 -0.8451 -0.2531  0.0078
 7221TIP3    H221625   0.334   4.889   4.446  2.2586 -0.2860  1.6932
 7222TIP3   OH221626   6.993   3.101   1.141 -0.6934  0.6974 -0.3774
 7222TIP3    H121627   7.034   3.026   1.097 -0.7082  0.5541 -0.1502
 7222TIP3    H221628   7.061   3.168   1.141 -0.7226  0.7280 -0.6959
 7223TIP3   OH221629   4.047   2.124   0.142  0.6019  0.3312 -0.1772
 7223TIP3    H121630   4.077   2.047   0.190  1.1946  1.1737  0.8170
 7223TIP3    H221631   3.989   2.169   0.203  1.4001  1.4323 -0.2167
 7224TIP3   OH221632   0.125   2.862   4.687 -0.2883  1.0733  0.2005
 7224TIP3    H121633   0.194   2.910   4.642  0.3673  0.0658  0.1206
 7224TIP3    H221634   0.050   2.867   4.629 -0.0025  1.3444 -0.1478
 7225TIP3   OH221635   1.961   7.110   5.849  0.1067 -0.3498  0.8583
 7225TIP3    H121636   1.967   7.064   5.765  0.1119  2.5106 -0.7673
 7225TIP3    H221637   1.867   7.114   5.868 -0.1702  2.0200 -0.8011
 7226TIP3   OH221638   1.059   4.398   3.122 -0.2301 -0.1925  0.0496
 7226TIP3    H121639   1.098   4.315   3.095 -0.7138 -0.5642  0.4851
 7226TIP3    H221640   0.971   4.397   3.084 -0.5679 -0.2919  0.8226
 7227TIP3   OH221641   6.760   5.853   5.824  0.2477 -0.5114 -0.2366
 7227TIP3    H121642   6.796   5.824   5.908 -3.2686 -0.7156  1.2529
 7227TIP3    H221643   6.790   5.944   5.816  1.1094 -0.6703  0.9248
 7228TIP3   OH221644   0.273   5.938   5.493  0.2883  0.2912 -0.8116
 7228TIP3    H121645   0.295   5.852   5.457 -0.4326  0.3462 -1.3996
 7228TIP3    H221646   0.250   5.921   5.584  0.6098 -0.0713 -0.7963
 7229TIP3   OH221647   7.381   5.831   5.505 -0.2411  0.5944  0.2692
 7229TIP3    H121648   7.317   5.846   5.436  0.4935  1.4703 -0.2346
 7229TIP3    H221649   7.405   5.739   5.497 -1.5156  0.2300  0.5392
 7230TIP3   OH221650   5.801   1.045   0.670 -0.3428 -0.4434  0.1390
 7230TIP3    H121651   5.715   1.088   0.667  0.7761  1.8395  0.3278
 7230TIP3    H221652   5.821   1.038   0.763  0.1161 -0.0781  0.0691
 7231TIP3   OH221653   1.382   5.746   4.251  0.4382 -0.0178  0.7192
 7231TIP3    H121654   1.358   5.719   4.162  1.8323 -1.5024  0.7792
 7231TIP3    H221655   1.299   5.749   4.298 -0.5172  2.2816 -1.0092
 7232TIP3   OH221656   1.550   4.728   5.776  0.2831  0.1897 -0.0223
 7232TIP3    H121657   1.597   4.646   5.760  0.8362  0.7279 -1.2000
 7232TIP3    H221658   1.619   4.793   5.787 -0.1055  0.1664  2.9389
 7233TIP3   OH221659   4.265   0.145   6.352 -0.2375 -0.7765 -0.5991
 7233TIP3    H121660   4.301   0.114   6.269 -1.8441 -0.8330 -1.3014
 7233TIP3    H221661   4.237   0.235   6.333 -2.2847 -1.4022 -0.6631
 7234TIP3   OH221662   4.295   1.857   0.167 -0.2423 -0.2458  0.3297
 7234TIP3    H121663   4.226   1.857   0.100  0.2986  0.6507 -0.2319
 7234TIP3    H221664   4.362   1.798   0.132 -1.4343 -2.4291  1.6340
 7235TIP3   OH221665   0.377   5.616   5.618  0.1571  0.0532  0.1572
 7235TIP3    H121666   0.290   5.598   5.654 -0.6221 -1.0271 -2.1558
 7235TIP3    H221667   0.436   5.559   5.669 -0.3896  1.1655  2.0753
 7236TIP3   OH221668   0.672   5.292   4.234 -0.1098 -0.5469 -0.8959
 7236TIP3    H121669   0.719   5.218   4.194  0.9516 -0.2686 -0.1834
 7236TIP3    H221670   0.581   5.279   4.208  0.0089 -2.2817 -0.5212
 7237TIP3   OH221671   6.943   5.051   1.860  0.2940  0.0968  0.1137
 7237TIP3    H121672   6.909   5.118   1.800  0.4476  0.4182  0.3798
 7237TIP3    H221673   6.896   4.971   1.836 -1.0989  0.6735  0.8932
 7238TIP3   OH221674   0.910   6.675   6.283 -0.0522  0.5078  0.1713
 7238TIP3    H121675   0.875   6.586   6.292 -1.5648  1.1693  0.9941
 7238TIP3    H221676   0.907   6.693   6.189 -0.8465  0.1295  0.1238
 7239TIP3   OH221677   1.890   4.094   4.093  0.5485  0.5028 -0.4506
 7239TIP3    H121678   1.946   4.018   4.111  0.3718  0.5364  0.2626
 7239TIP3    H221679   1.939   4.169   4.125  1.2877  0.8527 -2.3324
 7240TIP3   OH221680   5.818   1.332   0.041 -0.7055  0.4263  0.3266
 7240TIP3    H121681   5.754   1.400   0.060 -2.1398 -1.2978  1.7108
 7240TIP3    H221682   5.785   1.289  -0.038 -1.3243 -0.5220  1.0926
 7241TIP3   OH221683   0.946   5.476   3.186  0.4924 -0.0939 -0.3148
 7241TIP3    H121684   0.964   5.386   3.215 -2.0762 -0.1861  1.1850
 7241TIP3    H221685   0.957   5.474   3.091  0.7792 -1.9216 -0.2588
 7242TIP3   OH221686   0.953   4.656   4.787 -0.0494 -0.3481 -0.3966
 7242TIP3    H121687   0.944   4.614   4.702  0.3414  1.7142 -1.4956
 7242TIP3    H221688   0.863   4.672   4.816 -0.1727 -0.2789 -0.8211
 7243TIP3   OH221689   2.053   3.924   5.404  0.1275  0.4407 -0.2471
 7243TIP3    H121690   2.050   3.991   5.336 -3.0197  1.6340  0.9756
 7243TIP3    H221691   2.040   3.971   5.486  0.3679 -1.3762  0.8733
 7244TIP3   OH221692   3.220   0.444   3.982 -0.0063  0.3833 -0.3476
 7244TIP3    H121693   3.225   0.357   3.941  0.7226  1.2768 -2.2362
 7244TIP3    H221694   3.132   0.447   4.020  0.3035 -1.5329  0.5691
 7245TIP3   OH221695   0.397   5.079   2.313  0.4112 -0.0349 -0.0405
 7245TIP3    H121696   0.303   5.073   2.326  0.2900 -0.6511 -1.0952
 7245TIP3    H221697   0.423   4.990   2.287  1.6493 -0.4630  2.5026
 7246TIP3   OH221698   6.740   5.898   1.807  0.1545  0.2753  0.5348
 7246TIP3    H121699   6.664   5.847   1.778  0.5079 -0.0806  0.2380
 7246TIP3    H221700   6.755   5.869   1.897 -0.5015  0.8680  0.8449
 7247TIP3   OH221701   4.046   4.467   4.930 -0.0201  0.2854  0.4673
 7247TIP3    H121702   4.096   4.385   4.929  0.3369  0.4901 -1.5897
 7247TIP3    H221703   4.103   4.530   4.886 -0.4233  1.5715  1.7508
 7248TIP3   OH221704   1.256   4.408   6.339  0.0546 -0.2871 -0.1265
 7248TIP3    H121705   1.255   4.379   6.248 -2.4492 -2.5289  0.5464
 7248TIP3    H221706   1.326   4.356   6.379  3.4757  3.0697 -1.3657
 7249TIP3   OH221707   2.580   5.565   4.258 -0.0593  0.2525 -0.0699
 7249TIP3    H121708   2.591   5.573   4.353  0.5699 -0.6370 -0.0674
 7249TIP3    H221709   2.595   5.473   4.239  0.7208  0.5840 -1.1558
 7250TIP3   OH221710   6.379   4.313   4.127  0.1855  0.3583 -0.1347
 7250TIP3    H121711   6.350   4.275   4.210 -1.5662  1.7525 -0.0828
 7250TIP3    H221712   6.379   4.239   4.066  0.5752 -0.4873  0.8617
 7251TIP3   OH221713   6.660   5.003   3.269 -0.8075  0.2481  0.0461
 7251TIP3    H121714   6.665   4.934   3.202 -0.2360  0.0603  0.2807
 7251TIP3    H221715   6.572   4.994   3.306 -1.1545  0.4073 -0.7401
 7252TIP3   OH221716   7.109   4.154   4.071 -0.2065 -0.2320 -0.3920
 7252TIP3    H121717   7.096   4.102   3.991 -2.0139  0.4900 -0.5997
 7252TIP3    H221718   7.033   4.212   4.074  0.5224  0.6746  1.1631
 7253TIP3   OH221719   7.174   5.722   5.884  0.1591  0.3946 -0.4093
 7253TIP3    H121720   7.245   5.784   5.867  0.8693 -0.3693 -0.2541
 7253TIP3    H221721   7.202   5.675   5.962 -1.3059  1.2434  0.6578
 7254TIP3   OH221722   0.290   7.022   5.048  1.1577 -0.1163 -0.6375
 7254TIP3    H121723   0.218   6.969   5.015  0.1386 -1.0673  2.8945
 7254TIP3    H221724   0.369   6.973   5.024  0.3453 -1.8790  0.2526
 7255TIP3   OH221725   3.394   1.185   4.030 -0.0093 -0.2924 -0.0622
 7255TIP3    H121726   3.316   1.151   3.987 -0.7669  1.1194  0.1770
 7255TIP3    H221727   3.452   1.211   3.958  0.2357 -1.3159 -0.2392
 7256TIP3   OH221728   3.481   0.563   5.984  0.1906 -0.7483  0.4877
 7256TIP3    H121729   3.556   0.559   5.924 -0.6539 -1.2632 -0.5364
 7256TIP3    H221730   3.436   0.479   5.971 -0.0764 -0.8040  1.7381
 7257TIP3   OH221731   4.050   1.582   1.997 -0.1817  0.1101  0.1112
 7257TIP3    H121732   4.057   1.655   1.936  0.1051 -0.8903 -1.0666
 7257TIP3    H221733   4.021   1.508   1.943 -0.9914 -0.5128  1.3841
 7258TIP3   OH221734   0.844   6.102   3.109  0.4666 -0.9035  0.1426
 7258TIP3    H121735   0.811   6.192   3.114 -0.3911 -1.2089  0.0366
 7258TIP3    H221736   0.866   6.090   3.017 -0.2150 -1.0748 -0.0037
 7259TIP3   OH221737   0.087   4.557   4.709 -0.2186  0.7251 -0.0650
 7259TIP3    H121738   0.023   4.522   4.647  0.5047  1.2030 -1.1012
 7259TIP3    H221739   0.036   4.614   4.766 -0.9505  0.0212 -0.0043
 7260TIP3   OH221740   0.745   5.764   5.726  0.5928  0.5787  0.5667
 7260TIP3    H121741   0.665   5.766   5.673  1.5772 -2.3723 -1.0994
 7260TIP3    H221742   0.714   5.777   5.816 -1.5254  1.4320 -0.2475
 7261TIP3   OH221743   3.136   5.489   3.869  0.6394 -0.2578 -0.7157
 7261TIP3    H121744   3.144   5.515   3.778 -0.0228 -0.7159 -0.9058
 7261TIP3    H221745   3.074   5.416   3.868  0.3765 -0.0524  0.1369
 7262TIP3   OH221746   7.078   3.634   6.313  0.0346  0.4502 -0.7544
 7262TIP3    H121747   6.986   3.614   6.331  0.0331  0.7644 -0.3866
 7262TIP3    H221748   7.076   3.696   6.240  0.0108 -0.4261 -1.4961
 7263TIP3   OH221749   0.107   4.552   3.396 -0.4424  0.2790 -0.1691
 7263TIP3    H121750   0.200   4.561   3.376 -0.3762  1.0454  0.4525
 7263TIP3    H221751   0.086   4.462   3.370  0.6494 -0.1620  0.4147
 7264TIP3   OH221752   2.434   1.931   0.519 -0.6729  0.0398  0.0003
 7264TIP3    H121753   2.474   1.975   0.594  1.1430 -1.2796 -0.1762
 7264TIP3    H221754   2.391   1.854   0.556  0.1797 -0.5843 -0.2983
 7265TIP3   OH221755   1.007   4.790   6.093 -0.7328  0.3605  0.4163
 7265TIP3    H121756   1.035   4.806   6.003 -1.1995 -0.7821  0.0686
 7265TIP3    H221757   0.914   4.770   6.086 -0.3863 -1.5350  0.9506
 7266TIP3   OH221758   2.015   3.996   5.670  0.5634 -0.2382  0.5804
 7266TIP3    H121759   2.068   3.995   5.750  2.3131 -0.2941 -0.5560
 7266TIP3    H221760   1.938   3.945   5.692  1.7914 -1.6469  1.7233
 7267TIP3   OH221761   3.345   5.913   2.387  0.2519 -0.4114  0.0041
 7267TIP3    H121762   3.439   5.899   2.387  0.3982  0.5247 -0.3721
 7267TIP3    H221763   3.323   5.929   2.295 -0.0696  0.6345  0.2542
 7268TIP3   OH221764   0.935   5.755   3.210  0.5807  0.0737  0.1220
 7268TIP3    H121765   0.949   5.662   3.193 -0.9208  0.3061 -2.5517
 7268TIP3    H221766   1.010   5.799   3.170 -1.7234  0.4205 -4.1125
 7269TIP3   OH221767   7.249   4.651   5.934  0.0833 -0.1568 -0.3316
 7269TIP3    H121768   7.194   4.715   5.981  1.8277 -0.1468  1.7457
 7269TIP3    H221769   7.272   4.696   5.852 -2.1528  0.2169 -0.8175
 7270TIP3   OH221770   0.454   5.280   4.007  0.0847  0.0944 -0.3228
 7270TIP3    H121771   0.390   5.280   3.935  0.1026 -0.7185 -0.3445
 7270TIP3    H221772   0.517   5.211   3.983 -0.2993 -0.6573  0.8140
 7271TIP3   OH221773   4.790   1.230   3.206  0.2066 -0.6043  0.0093
 7271TIP3    H121774   4.858   1.178   3.164  1.9784  1.4439  0.2257
 7271TIP3    H221775   4.708   1.185   3.185  1.5056 -2.3689 -1.4014
 7272TIP3   OH221776   7.740   6.228   3.960 -0.0457  0.5800 -0.1399
 7272TIP3    H121777   7.644   6.228   3.950 -0.0920 -0.3108  0.2631
 7272TIP3    H221778   7.760   6.141   3.993  0.8637  0.9293  0.2378
 7273TIP3   OH221779   0.808   5.764   4.302  0.2177 -0.0052 -0.2773
 7273TIP3    H121780   0.792   5.833   4.366  2.0007 -0.1551  0.3576
 7273TIP3    H221781   0.903   5.748   4.307 -0.0566 -1.9591 -0.9536
 7274TIP3   OH221782   2.595   4.740   5.210 -0.0558 -0.1041 -0.1801
 7274TIP3    H121783   2.510   4.781   5.226  0.3791  0.5361  0.5428
 7274TIP3    H221784   2.596   4.722   5.116 -0.9999 -0.1439 -0.1919
 7275TIP3   OH221785   1.555   6.029   4.667  0.1398  0.1024 -0.4992
 7275TIP3    H121786   1.615   6.097   4.634 -1.7645  1.1125 -1.9467
 7275TIP3    H221787   1.492   6.016   4.596 -2.1185 -0.0490  1.4857
 7276TIP3   OH221788   1.351   7.217   4.648  0.0579 -0.4047 -0.2472
 7276TIP3    H121789   1.269   7.267   4.647  0.7297  0.7644  1.0856
 7276TIP3    H221790   1.373   7.206   4.556  0.7150  3.1679 -0.5916
 7277TIP3   OH221791   0.377   4.509   3.388 -0.1536  0.0587 -0.9149
 7277TIP3    H121792   0.432   4.521   3.311  1.2134 -0.6634 -0.0707
 7277TIP3    H221793   0.384   4.416   3.409  0.0081  0.3624  0.4522
 7278TIP3   OH221794   0.662   6.204   1.879  0.2781  0.0776 -0.3500
 7278TIP3    H121795   0.583   6.149   1.875  0.7971 -0.6717 -0.4684
 7278TIP3    H221796   0.633   6.285   1.920 -0.4061 -0.4603  0.2359
 7279TIP3   OH221797   0.180   6.345   5.624  0.1460 -0.3769  0.4605
 7279TIP3    H121798   0.219   6.388   5.700  0.6818 -1.8934  1.0735
 7279TIP3    H221799   0.111   6.289   5.660 -0.6536  0.0823 -0.3341
 7280TIP3   OH221800   1.895   5.445   5.774 -0.0218  0.0115 -0.3627
 7280TIP3    H121801   1.856   5.397   5.848  2.7303 -0.5398  0.7767
 7280TIP3    H221802   1.955   5.382   5.734  0.0793  0.9985 -1.8005
 7281TIP3   OH221803   2.126   5.986   3.106 -0.5031  0.0729  0.1284
 7281TIP3    H121804   2.085   6.071   3.088 -0.7426  0.4905  2.4311
 7281TIP3    H221805   2.054   5.923   3.103 -1.0355  0.5373  2.2862
 7282TIP3   OH221806   7.566   4.698   5.576 -0.1707 -0.0048 -0.1439
 7282TIP3    H121807   7.533   4.608   5.575 -0.5806  0.0994  1.4624
 7282TIP3    H221808   7.650   4.693   5.622 -0.6655  0.5593  0.8528
 7283TIP3   OH221809   1.829   3.533   3.749 -0.6159  0.6497 -0.6109
 7283TIP3    H121810   1.919   3.556   3.727 -0.9868  1.5649 -1.2096
 7283TIP3    H221811   1.823   3.547   3.844  0.3322 -1.0334 -0.2879
 7284TIP3   OH221812   0.438   6.350   5.933 -0.9672 -0.0789  0.1393
 7284TIP3    H121813   0.424   6.372   6.025  1.4771  1.0366  0.2897
 7284TIP3    H221814   0.388   6.416   5.885 -1.0394  0.2443  0.6585
 7285TIP3   OH221815   0.630   4.903   4.662  0.0125  0.1105 -0.1164
 7285TIP3    H121816   0.662   4.992   4.677  0.2963 -0.1860  1.1051
 7285TIP3    H221817   0.655   4.883   4.572 -0.5112  1.4568 -0.5711
 7286TIP3   OH221818   0.974   5.634   5.219  0.4682 -0.3611 -0.7461
 7286TIP3    H121819   0.926   5.703   5.266 -1.0863  0.2801 -3.1884
 7286TIP3    H221820   0.975   5.560   5.280 -1.6054  0.4075  0.2721
 7287TIP3   OH221821   3.088   5.806   5.077 -0.1429  0.4207  0.7818
 7287TIP3    H121822   3.095   5.880   5.017 -1.2053  0.7612  1.0599
 7287TIP3    H221823   3.005   5.820   5.123 -0.7840 -1.4108  0.2221
 7288TIP3   OH221824   1.727   6.200   6.282 -0.2181 -0.3949 -0.1958
 7288TIP3    H121825   1.662   6.254   6.327  0.2836 -0.6593  0.8509
 7288TIP3    H221826   1.786   6.263   6.241 -0.0538 -0.1414  0.4192
 7289TIP3   OH221827   0.137   5.466   3.987  0.0140 -0.6662 -0.1150
 7289TIP3    H121828   0.162   5.483   4.078  1.1952 -0.3533 -0.4944
 7289TIP3    H221829   0.150   5.549   3.943  0.1219 -1.0090 -0.7283
 7290TIP3   OH221830   2.191   4.635   6.006 -0.0391  0.0332  0.5384
 7290TIP3    H121831   2.159   4.700   5.944 -1.4698 -1.5416 -0.4268
 7290TIP3    H221832   2.286   4.648   6.008 -0.1639  1.2342 -0.6789
 7291TIP3   OH221833   7.341   2.082   0.261 -0.4128 -0.2622 -0.0377
 7291TIP3    H121834   7.321   2.154   0.201  1.0549  1.1715  1.1370
 7291TIP3    H221835   7.276   2.091   0.331 -0.2379 -0.0615  0.1025
 7292TIP3   OH221836   1.420   6.698   5.568 -0.0383 -0.3009 -0.3146
 7292TIP3    H121837   1.504   6.659   5.591 -0.0815  0.6098  1.4509
 7292TIP3    H221838   1.357   6.655   5.626 -0.2780  1.3704  0.7046
 7293TIP3   OH221839   1.065   5.923   6.257 -0.1112 -0.2451  0.3888
 7293TIP3    H121840   1.057   5.880   6.342 -0.3130 -1.2611 -0.1321
 7293TIP3    H221841   1.003   5.876   6.200 -1.2222  1.5026  0.0954
 7294TIP3   OH221842   6.899   0.863   0.061 -0.1090  0.1000 -0.0890
 7294TIP3    H121843   6.844   0.877  -0.017  0.8142  1.6885 -0.4884
 7294TIP3    H221844   6.966   0.801   0.033 -0.7879 -0.6601 -0.0489
 7295TIP3   OH221845   1.016   5.350   5.392  0.7204  0.6419 -0.1653
 7295TIP3    H121846   1.029   5.289   5.465  1.5489 -0.1826 -0.9955
 7295TIP3    H221847   1.011   5.294   5.314 -1.9709  1.3659 -0.5807
 7296TIP3   OH221848   0.278   5.708   4.948  0.2525 -0.1166  0.2858
 7296TIP3    H121849   0.320   5.696   5.033  1.0604  0.3110 -0.0388
 7296TIP3    H221850   0.348   5.692   4.884 -0.2184  0.0554 -0.2839
 7297TIP3   OH221851   1.080   5.412   4.736  0.4782  0.8959  0.4809
 7297TIP3    H121852   1.137   5.468   4.787  0.6068  0.9603  0.2667
 7297TIP3    H221853   0.991   5.438   4.762  0.5378  1.1505  0.4331
 7298TIP3   OH221854   0.352   4.752   5.383  0.0396  0.1861  0.3357
 7298TIP3    H121855   0.445   4.742   5.399 -0.2596 -0.6749  1.6754
 7298TIP3    H221856   0.316   4.664   5.394 -1.0835  0.7033  0.9467
 7299TIP3   OH221857   1.397   4.106   4.349 -0.8597  0.1439  0.3357
 7299TIP3    H121858   1.480   4.138   4.314 -1.1761  0.1978 -0.3646
 7299TIP3    H221859   1.370   4.036   4.289 -1.3579  0.1757  0.5170
 7300TIP3   OH221860   1.265   5.663   3.698 -0.2826  0.6297  0.1354
 7300TIP3    H121861   1.323   5.629   3.630  0.0965  1.7683 -0.1196
 7300TIP3    H221862   1.223   5.739   3.657 -0.0071  1.3577  1.1794
 7301TIP3   OH221863   1.289   6.756   5.987  0.0326  0.7251  0.2364
 7301TIP3    H121864   1.293   6.691   5.916  0.3776  0.2330  0.6970
 7301TIP3    H221865   1.304   6.705   6.066  2.3441  1.6706  0.4393
 7302TIP3   OH221866   6.905   3.055   0.370  0.0833  0.8530 -0.0518
 7302TIP3    H121867   6.875   3.107   0.444 -2.2406  1.5491 -1.4332
 7302TIP3    H221868   6.931   3.119   0.304  0.9338  0.2446 -0.3178
 7303TIP3   OH221869   3.468   6.263   4.923 -0.0567  0.3677 -0.0499
 7303TIP3    H121870   3.409   6.278   4.849 -0.2741  0.8907  0.2219
 7303TIP3    H221871   3.426   6.308   4.996  0.7030  0.7866  0.1349
 7304TIP3   OH221872   1.462   5.798   5.508 -0.0425 -0.0859 -0.3445
 7304TIP3    H121873   1.489   5.852   5.582 -1.4656  0.0242  0.1113
 7304TIP3    H221874   1.425   5.719   5.547 -2.0680  0.5698 -0.8719
 7305TIP3   OH221875   1.664   5.294   4.514  0.2139  0.5741 -0.1453
 7305TIP3    H121876   1.654   5.358   4.585 -2.2713  0.1710 -0.0893
 7305TIP3    H221877   1.590   5.311   4.456  1.7418  0.3248 -2.2077
 7306TIP3   OH221878   5.607   1.916   3.284 -0.0237  0.6152 -0.0028
 7306TIP3    H121879   5.570   1.828   3.275  0.1060  0.5489  0.1106
 7306TIP3    H221880   5.572   1.965   3.209 -0.8497  0.7356  0.4568
 7307TIP3   OH221881   4.126   5.501   4.963  0.0515  0.2065 -0.4251
 7307TIP3    H121882   4.060   5.437   4.935  0.5974 -0.6003  0.0988
 7307TIP3    H221883   4.123   5.497   5.059  1.2763 -0.2842 -0.3994
 7308TIP3   OH221884   1.014   4.325   5.998 -0.1974 -0.0068  0.1911
 7308TIP3    H121885   1.101   4.357   5.975  0.1088 -0.2051  1.0532
 7308TIP3    H221886   0.955   4.376   5.943  0.6009 -1.7530 -2.3596
 7309TIP3   OH221887   7.584   2.521   0.159  0.1341  0.1113 -0.3338
 7309TIP3    H121888   7.630   2.458   0.103 -0.7783  0.8249 -1.8989
 7309TIP3    H221889   7.511   2.470   0.196 -0.4013  0.1448 -1.3263
 7310TIP3   OH221890   5.094   0.429   4.069 -0.2980 -0.3852  0.0300
 7310TIP3    H121891   5.186   0.455   4.066 -0.1294 -1.0243 -0.5885
 7310TIP3    H221892   5.068   0.424   3.977 -1.2809  0.9092  0.2166
 7311TIP3   OH221893   0.981   3.776   3.548  0.5375 -0.2980 -0.0896
 7311TIP3    H121894   0.984   3.867   3.577  0.4636 -0.5745  0.7891
 7311TIP3    H221895   1.027   3.776   3.464 -0.9040  0.8620 -0.8995
 7312TIP3   OH221896   3.641   5.498   5.678 -0.1939 -0.4517 -0.6104
 7312TIP3    H121897   3.616   5.407   5.660 -0.7474 -0.4737  0.2400
 7312TIP3    H221898   3.567   5.534   5.726  0.9218 -0.1789  0.9636
 7313TIP3   OH221899   4.605   6.760   4.272 -0.2710 -0.1264 -0.6398
 7313TIP3    H121900   4.695   6.776   4.298  0.5827 -0.3609 -3.3139
 7313TIP3    H221901   4.585   6.672   4.304 -0.0647  0.4895  1.2249
 7314TIP3   OH221902   1.199   5.786   4.451  0.5273 -0.6980 -0.4159
 7314TIP3    H121903   1.134   5.855   4.462 -0.8269 -1.6289 -2.2958
 7314TIP3    H221904   1.261   5.799   4.524  0.1168  2.2276 -0.5499
 7315TIP3   OH221905   2.584   5.438   4.523 -0.1549 -0.2795 -0.5332
 7315TIP3    H121906   2.503   5.389   4.511 -0.8076  0.9974 -1.5374
 7315TIP3    H221907   2.617   5.412   4.609 -1.9805 -0.3052  0.1650
 7316TIP3   OH221908   1.091   6.154   3.287 -0.1241  0.2287 -0.5028
 7316TIP3    H121909   1.080   6.210   3.211  0.1982  1.0229  0.0293
 7316TIP3    H221910   1.173   6.184   3.327  0.0675 -0.6419 -0.2362
 7317TIP3   OH221911   1.471   5.287   5.661 -0.1908  0.2970 -0.4277
 7317TIP3    H121912   1.536   5.317   5.724  0.3594  0.9341 -1.2857
 7317TIP3    H221913   1.460   5.194   5.680 -0.5258  0.6315  1.0406
 7318TIP3   OH221914   4.132   5.770   3.764 -0.4061 -0.4880 -0.0622
 7318TIP3    H121915   4.197   5.826   3.722  1.2002 -2.7650 -0.6918
 7318TIP3    H221916   4.142   5.685   3.722 -2.6883 -1.3341  0.9849
 7319TIP3   OH221917   3.442   6.144   3.929  0.1233 -0.2693 -0.4455
 7319TIP3    H121918   3.454   6.065   3.982  1.2403  0.2688  0.1305
 7319TIP3    H221919   3.348   6.148   3.914 -0.2132 -0.5214  1.3979
 7320TIP3   OH221920   0.394   2.289   0.044 -0.0408 -0.4655  0.0016
 7320TIP3    H121921   0.449   2.239   0.104 -0.7981 -1.3027  0.0013
 7320TIP3    H221922   0.341   2.224  -0.001 -2.5964  0.4299  1.5598
 7321TIP3   OH221923   4.706   0.631   4.004 -0.2436 -0.8202  0.0689
 7321TIP3    H121924   4.775   0.588   4.054 -1.0975 -0.8900  1.2079
 7321TIP3    H221925   4.628   0.622   4.059 -0.4998  1.9615  0.2292
 7322TIP3   OH221926   3.946   5.737   3.340  0.1691 -0.0233  0.2833
 7322TIP3    H121927   3.856   5.760   3.318  0.2967 -0.5189 -0.7795
 7322TIP3    H221928   3.938   5.676   3.413 -0.3442  0.1295  0.3578
 7323TIP3   OH221929   0.668   5.174   6.194  0.0426 -0.5133  0.0405
 7323TIP3    H121930   0.673   5.114   6.120  0.8044 -0.9658  0.4563
 7323TIP3    H221931   0.701   5.124   6.269 -2.0086 -0.5186  0.9773
 7324TIP3   OH221932   6.968   6.630   3.266  0.0918 -0.4164 -0.1430
 7324TIP3    H121933   7.039   6.692   3.281  0.2697 -0.4127 -0.9817
 7324TIP3    H221934   6.975   6.567   3.338  1.9438 -1.3421 -1.1143
 7325TIP3   OH221935   5.379   1.830   0.021  0.4173 -0.2273 -0.9761
 7325TIP3    H121936   5.307   1.816   0.083  0.0936 -0.8790 -1.4934
 7325TIP3    H221937   5.371   1.758  -0.042 -0.2015  1.2896 -2.6818
 7326TIP3   OH221938   1.562   6.962   6.280  0.5075  0.2719 -0.1830
 7326TIP3    H121939   1.516   6.883   6.252 -1.0322  0.2602  2.2279
 7326TIP3    H221940   1.602   6.938   6.364  0.1088  2.0040  0.5241
 7327TIP3   OH221941   0.406   4.234   3.432 -0.0168  0.0870  0.0382
 7327TIP3    H121942   0.444   4.184   3.359 -0.7809 -0.1228 -0.2131
 7327TIP3    H221943   0.443   4.193   3.510  1.3308  0.7328 -0.2350
 7328TIP3   OH221944   3.254   5.105   3.715  0.3741  0.6684 -0.2107
 7328TIP3    H121945   3.253   5.176   3.779  2.0625  0.2254  0.3259
 7328TIP3    H221946   3.207   5.033   3.757  0.1173  0.8996 -0.1008
 7329TIP3   OH221947   2.229   7.205   3.657 -0.0169  0.1067  0.1558
 7329TIP3    H121948   2.280   7.286   3.672  1.2245 -0.2216 -2.0459
 7329TIP3    H221949   2.282   7.137   3.699  1.5366 -0.2701 -2.3391
 7330TIP3   OH221950   2.553   0.385   5.384  0.2341  0.0716  0.2887
 7330TIP3    H121951   2.460   0.360   5.392  0.3385 -0.2241  0.6257
 7330TIP3    H221952   2.558   0.434   5.302 -0.9016  3.2110  2.0192
 7331TIP3   OH221953   7.340   0.883   6.058  0.3601 -0.0356  0.2523
 7331TIP3    H121954   7.348   0.940   6.134 -0.3845  0.0063  0.3002
 7331TIP3    H221955   7.413   0.909   6.001  0.7672  0.1062  0.8298
 7332TIP3   OH221956   1.880   3.544   4.974  0.1250  0.4018 -0.1310
 7332TIP3    H121957   1.800   3.589   5.004  0.0087 -0.1395  0.3784
 7332TIP3    H221958   1.851   3.490   4.901  0.1372  0.6284 -0.3060
 7333TIP3   OH221959   3.079   5.420   2.765  0.8748 -0.5187 -0.1656
 7333TIP3    H121960   3.121   5.446   2.847 -0.7699 -0.9183  0.8163
 7333TIP3    H221961   3.144   5.441   2.697  1.1581  2.4905  0.9551
 7334TIP3   OH221962   0.854   7.059   5.427 -0.4851  0.1567 -0.1958
 7334TIP3    H121963   0.768   7.044   5.388 -0.8293  0.6851  0.3617
 7334TIP3    H221964   0.911   6.997   5.382 -0.7710  1.1038 -1.8953
 7335TIP3   OH221965   2.686   4.982   2.845  0.1434  0.4411 -0.0774
 7335TIP3    H121966   2.624   4.909   2.843  0.0787  0.5243 -1.8315
 7335TIP3    H221967   2.651   5.045   2.782  0.7391  1.5517  0.6841
 7336TIP3   OH221968   4.157   5.575   5.281 -0.1950  0.2315  0.5417
 7336TIP3    H121969   4.212   5.498   5.292 -1.2780 -0.7171 -0.4657
 7336TIP3    H221970   4.100   5.575   5.358 -1.0551 -0.7262 -0.0748
 7337TIP3   OH221971   1.019   6.836   5.576 -0.4247  0.2623  0.5124
 7337TIP3    H121972   1.036   6.777   5.650  0.0142  0.0876  0.2725
 7337TIP3    H221973   0.958   6.901   5.611 -1.4543 -0.7249  0.5929
 7338TIP3   OH221974   5.238   7.082   5.786  0.2270 -0.0310  0.2647
 7338TIP3    H121975   5.152   7.045   5.807 -0.1649  1.0664  0.6329
 7338TIP3    H221976   5.295   7.055   5.858 -0.4234  1.3299  1.3129
 7339TIP3   OH221977   2.563   4.012   4.732  0.3890 -0.6542  0.5270
 7339TIP3    H121978   2.592   4.075   4.798 -0.6687 -0.3230  0.6957
 7339TIP3    H221979   2.511   4.065   4.671  1.3482 -0.9591 -0.5669
 7340TIP3   OH221980   3.041   6.771   5.634  0.1421 -0.1693 -0.0833
 7340TIP3    H121981   3.094   6.725   5.700 -0.5785 -0.5434  0.2365
 7340TIP3    H221982   2.999   6.842   5.682  1.6644  1.1823 -0.6819
 7341TIP3   OH221983   1.793   4.899   4.013  0.3560 -0.1104  0.2839
 7341TIP3    H121984   1.834   4.927   3.931  0.8570  1.4091  1.0494
 7341TIP3    H221985   1.853   4.929   4.082  0.2889 -1.9790  1.1877
 7342TIP3   OH221986   3.618   6.773   3.671 -0.2643 -0.0860  0.0176
 7342TIP3    H121987   3.566   6.851   3.652  0.1213 -0.1804 -1.4955
 7342TIP3    H221988   3.564   6.722   3.731 -0.4678  1.4042  1.1420
 7343TIP3   OH221989   2.765   6.047   5.454 -0.1964 -0.5832  0.1911
 7343TIP3    H121990   2.805   6.071   5.370 -0.4917  0.3223  0.3000
 7343TIP3    H221991   2.836   6.054   5.517 -0.3856  0.5099  0.2989
 7344TIP3   OH221992   0.815   6.244   3.361  0.4923  0.3139  0.4658
 7344TIP3    H121993   0.907   6.227   3.340  0.9252 -0.1257  2.6313
 7344TIP3    H221994   0.769   6.166   3.330  0.9635  0.1338  0.2132
 7345TIP3   OH221995   0.490   6.131   5.552 -1.3783 -0.0532  0.3155
 7345TIP3    H121996   0.426   6.195   5.522 -1.0193 -0.1349 -0.6642
 7345TIP3    H221997   0.447   6.046   5.538 -0.7224 -0.1576 -1.2506
 7346TIP3   OH221998   2.484   4.367   4.099  0.9602 -0.7068 -0.2969
 7346TIP3    H121999   2.566   4.327   4.070  1.4845 -0.6150  1.0284
 7346TIP3    H222000   2.421   4.295   4.099  0.8475 -0.6403 -1.9670
 7347TIP3   OH222001   0.309   5.977   3.730 -0.6793  0.1699 -0.0039
 7347TIP3    H122002   0.379   5.922   3.766  0.9898 -0.4949 -4.0182
 7347TIP3    H222003   0.314   6.058   3.780  1.1418 -0.8942  1.6084
 7348TIP3   OH222004   2.331   5.923   4.610  0.0853 -0.1531 -0.2188
 7348TIP3    H122005   2.414   5.962   4.584 -0.9373  1.1998 -1.5279
 7348TIP3    H222006   2.305   5.971   4.688 -0.3856  0.7005 -0.8988
 7349TIP3   OH222007   0.167   5.932   5.036 -0.4466  0.0542  0.0092
 7349TIP3    H122008   0.223   5.990   4.985 -1.1536 -0.4275 -1.3411
 7349TIP3    H222009   0.196   5.844   5.012 -1.6915 -0.1920 -0.6051
 7350TIP3   OH222010   1.131   5.237   5.627 -0.8981  0.3047  0.0188
 7350TIP3    H122011   1.084   5.161   5.663 -2.2570  1.2231  0.2437
 7350TIP3    H222012   1.178   5.273   5.702 -0.5653 -0.0922 -0.0000
 7351TIP3   OH222013   1.974   6.069   3.368  0.6426  0.0071 -0.1797
 7351TIP3    H122014   1.914   6.140   3.386  0.1447 -0.7693  1.3286
 7351TIP3    H222015   2.029   6.100   3.295 -2.1608  0.3578 -2.2121
 7352TIP3   OH222016   2.628   6.116   5.136  0.0698 -0.3112 -0.3166
 7352TIP3    H122017   2.722   6.103   5.151  0.0726 -0.7033 -0.6617
 7352TIP3    H222018   2.619   6.121   5.041 -0.0998  1.0302 -0.2359
 7353TIP3   OH222019   4.577   0.191   1.595 -0.1892 -0.5730 -0.0824
 7353TIP3    H122020   4.593   0.278   1.630 -0.3599 -0.1181 -1.1351
 7353TIP3    H222021   4.517   0.205   1.522  0.0928 -1.5335 -0.5041
 7354TIP3   OH222022   7.585   6.930   4.334  0.1307 -0.0966 -0.1432
 7354TIP3    H122023   7.524   7.003   4.335  0.8953  0.6219 -2.5691
 7354TIP3    H222024   7.659   6.958   4.388  0.2179  0.7547 -0.7007
 7355TIP3   OH222025   1.716   6.928   2.695 -0.2935 -0.7789  0.1189
 7355TIP3    H122026   1.743   6.890   2.779  0.0455 -0.6358  0.0746
 7355TIP3    H222027   1.674   6.855   2.649 -1.1661 -0.6668  0.7184
 7356TIP3   OH222028   1.941   6.475   4.259 -0.0069 -0.1973 -0.3492
 7356TIP3    H122029   1.927   6.434   4.174 -0.4580  0.1240 -0.4291
 7356TIP3    H222030   1.962   6.402   4.318 -0.0498 -0.4561 -0.6536
 7357TIP3   OH222031   0.875   3.016   0.768  0.2239 -0.8448  0.4980
 7357TIP3    H122032   0.892   2.937   0.820 -1.4242 -1.1069  0.6521
 7357TIP3    H222033   0.784   3.007   0.739 -0.6693  2.0372  2.2975
 7358TIP3   OH222034   3.711   6.165   4.941  0.3233 -0.4460 -0.9856
 7358TIP3    H122035   3.719   6.087   4.996 -1.6180 -0.7146 -1.0540
 7358TIP3    H222036   3.617   6.185   4.940  0.6782  1.3093 -1.7791
 7359TIP3   OH222037   3.523   6.976   4.370 -0.0987 -0.2807  0.2860
 7359TIP3    H122038   3.585   7.047   4.352 -0.7521  0.3222  0.3947
 7359TIP3    H222039   3.532   6.959   4.464 -0.9822  0.6657  0.5577
 7360TIP3   OH222040   2.983   3.859   4.438 -0.1362 -0.2104 -0.5418
 7360TIP3    H122041   2.991   3.773   4.479  0.6256  0.7643  1.4139
 7360TIP3    H222042   2.889   3.875   4.431 -0.2655 -0.6881  0.1844
 7361TIP3   OH222043   2.497   5.325   3.041  0.4755  0.4376  0.3184
 7361TIP3    H122044   2.487   5.324   2.946  1.1865 -0.4110  0.2482
 7361TIP3    H222045   2.421   5.278   3.075 -0.7085  2.2551  0.2722
 7362TIP3   OH222046   2.110   6.356   3.716  0.0667  0.1541  0.3763
 7362TIP3    H122047   2.153   6.271   3.700 -0.7487 -0.2742  0.4481
 7362TIP3    H222048   2.180   6.412   3.750  0.9546 -0.0644 -1.0178
 7363TIP3   OH222049   7.086   4.396   4.374  0.4596 -0.3977 -0.5088
 7363TIP3    H122050   7.109   4.307   4.348  0.5076 -1.1198  1.9086
 7363TIP3    H222051   6.990   4.398   4.370  0.4541 -0.5880 -0.4377
 7364TIP3   OH222052   1.067   7.154   4.781  0.3858  0.6946 -0.2559
 7364TIP3    H122053   1.149   7.122   4.817  0.1118  0.0232 -0.2312
 7364TIP3    H222054   1.004   7.083   4.795 -0.1047  1.0460 -0.6287
 7365TIP3   OH222055   0.680   7.003   3.142  0.1436 -0.7235  0.2239
 7365TIP3    H122056   0.603   6.956   3.108  0.3394  0.9407 -2.7723
 7365TIP3    H222057   0.655   7.096   3.137  2.1791 -0.1852 -0.4336
 7366TIP3   OH222058   2.974   6.663   2.286  0.2837  0.0790  0.6396
 7366TIP3    H122059   3.018   6.652   2.371  0.3117  0.9263  0.7362
 7366TIP3    H222060   3.037   6.630   2.222  0.4160 -0.2102  0.9188
 7367TIP3   OH222061   1.606   6.573   5.712  0.3051 -0.2520 -0.0234
 7367TIP3    H122062   1.649   6.487   5.711 -0.4247 -0.6021 -1.6782
 7367TIP3    H222063   1.676   6.634   5.736  0.7961 -1.3132  1.3560
 7368TIP3   OH222064   1.356   5.467   6.156 -0.4854  1.1827 -0.6824
 7368TIP3    H122065   1.426   5.402   6.162 -0.0939  1.5728 -0.9848
 7368TIP3    H222066   1.383   5.525   6.085 -1.4284  0.9688 -1.2239
 7369TIP3   OH222067   1.510   4.059   6.071  0.0941 -0.5840  0.5469
 7369TIP3    H122068   1.429   4.066   6.122 -0.0755 -1.6142  0.4389
 7369TIP3    H222069   1.548   3.976   6.099  0.9577 -0.2572  0.3598
 7370TIP3   OH222070   7.397   4.874   3.178 -0.7763 -0.1407 -0.0141
 7370TIP3    H122071   7.442   4.847   3.098 -2.2139  0.4233 -1.0223
 7370TIP3    H222072   7.431   4.962   3.196 -0.8022 -0.0788 -0.2697
 7371TIP3   OH222073   0.525   5.455   4.749  0.7623  0.3869 -0.0337
 7371TIP3    H122074   0.441   5.420   4.777  1.0287 -0.0179  0.2857
 7371TIP3    H222075   0.543   5.411   4.666 -0.4322  2.2408 -1.2771
 7372TIP3   OH222076   0.783   6.170   3.987 -0.4543  0.2420 -0.3802
 7372TIP3    H122077   0.758   6.105   4.053  0.8566  0.3311  0.2334
 7372TIP3    H222078   0.877   6.156   3.974 -0.7736 -0.0499 -2.5479
 7373TIP3   OH222079   2.552   5.295   6.354 -0.1511 -0.5405  0.4417
 7373TIP3    H122080   2.606   5.322   6.280 -0.5447 -1.0490 -0.0413
 7373TIP3    H222081   2.561   5.366   6.417 -0.2829  0.1877 -0.3414
 7374TIP3   OH222082   1.857   7.108   4.334  0.6314  0.0829 -0.3457
 7374TIP3    H122083   1.840   7.188   4.284  0.8906  0.3227 -0.0613
 7374TIP3    H222084   1.953   7.099   4.332  0.6336  0.0225 -0.0072
 7375TIP3   OH222085   2.210   5.885   4.113  0.2668  0.3097  0.2866
 7375TIP3    H122086   2.251   5.843   4.037  1.8995 -2.9872  2.8264
 7375TIP3    H222087   2.284   5.910   4.169 -0.9233  2.4855  0.9440
 7376TIP3   OH222088   3.261   3.972   4.807 -0.8044 -0.6043  0.0319
 7376TIP3    H122089   3.277   3.973   4.902 -0.9976  0.6616  0.0556
 7376TIP3    H222090   3.179   4.020   4.796 -0.5447 -0.3477 -0.8198
 7377TIP3   OH222091   2.048   7.034   5.592  0.3960  0.0698 -0.4631
 7377TIP3    H122092   2.092   6.950   5.601  0.3198 -0.0348 -1.0741
 7377TIP3    H222093   2.065   7.061   5.502 -0.3949  0.2479 -0.5610
 7378TIP3   OH222094   0.844   4.083   2.664  0.6767 -0.1764 -0.0380
 7378TIP3    H122095   0.833   4.177   2.675  1.4062 -0.2938  1.8183
 7378TIP3    H222096   0.932   4.073   2.629  0.8094 -0.2166  0.3142
 7379TIP3   OH222097   4.025   0.536   3.866 -0.3145  0.4534 -1.0900
 7379TIP3    H122098   4.008   0.462   3.807 -0.4425  0.0539 -0.5558
 7379TIP3    H222099   3.973   0.517   3.944 -0.2049  1.0180 -0.8803
 7380TIP3   OH222100   0.849   5.564   6.243 -0.1007  0.2843  0.2972
 7380TIP3    H122101   0.871   5.564   6.336  0.6406  1.4142  0.1423
 7380TIP3    H222102   0.927   5.602   6.201 -1.4209  2.1449 -0.5207
 7381TIP3   OH222103   2.047   7.257   3.984  0.2701 -0.2293  0.0568
 7381TIP3    H122104   2.051   7.342   4.028 -0.0379 -0.2785  0.1794
 7381TIP3    H222105   2.122   7.209   4.018  0.8217  0.2307 -0.5027
 7382TIP3   OH222106   1.822   5.317   6.006  0.4552 -0.1580 -0.0997
 7382TIP3    H122107   1.765   5.255   5.961 -0.3684  0.6025 -0.1394
 7382TIP3    H222108   1.852   5.270   6.083 -1.4060 -0.1065  0.6965
 7383TIP3   OH222109   0.187   6.507   5.836  0.2622 -0.2952  1.0695
 7383TIP3    H122110   0.193   6.547   5.923 -0.3063  1.5571  0.2861
 7383TIP3    H222111   0.196   6.581   5.775  0.1273 -1.4963 -0.4449
 7384TIP3   OH222112   3.803   0.391   2.723  0.5013 -0.1900  0.6498
 7384TIP3    H122113   3.776   0.474   2.762  0.9388  0.4398 -0.3581
 7384TIP3    H222114   3.794   0.405   2.628 -0.9790 -1.8291  0.5018
 7385TIP3   OH222115   1.378   4.947   4.095  0.2846  0.1437 -0.2239
 7385TIP3    H122116   1.336   4.978   4.175  1.7028 -2.1894  1.4821
 7385TIP3    H222117   1.449   5.009   4.079  1.5171 -0.7326  1.7215
 7386TIP3   OH222118   1.957   5.893   5.652 -0.7499 -0.6839 -0.1505
 7386TIP3    H122119   1.960   5.822   5.716 -1.5628 -0.3602  0.2549
 7386TIP3    H222120   1.881   5.945   5.677  0.1093  0.6099 -0.1556
 7387TIP3   OH222121   3.109   0.022   5.956  0.3216 -0.5151 -0.4833
 7387TIP3    H122122   3.027  -0.018   5.927  0.4144 -3.1373  2.5000
 7387TIP3    H222123   3.082   0.098   6.007 -0.2055 -0.8198 -0.3030
 7388TIP3   OH222124   2.897   5.447   4.134 -0.9285 -0.1528 -0.1604
 7388TIP3    H122125   2.867   5.358   4.147 -0.6644 -0.1765  0.3139
 7388TIP3    H222126   2.977   5.454   4.187 -0.9020  0.3377 -0.2550
 7389TIP3   OH222127   6.933   5.547   4.694  0.1426  0.0120  0.2514
 7389TIP3    H122128   6.847   5.561   4.655 -1.0647  2.0452  3.5509
 7389TIP3    H222129   6.988   5.617   4.658 -0.2684  0.3229  0.2334
 7390TIP3   OH222130   1.170   6.374   1.283 -0.6705  1.0190 -0.4119
 7390TIP3    H122131   1.241   6.424   1.322 -0.2747  0.3772 -0.2954
 7390TIP3    H222132   1.182   6.386   1.188 -0.1493  0.5724 -0.4072
 7391TIP3   OH222133   0.897   6.263   4.436 -0.9776 -0.3906 -0.2843
 7391TIP3    H122134   0.914   6.277   4.530  1.8773 -0.6014 -0.7449
 7391TIP3    H222135   0.884   6.352   4.401  0.2354 -0.1408 -0.1064
 7392TIP3   OH222136   2.167   5.789   4.886 -0.2032  0.3259 -0.3479
 7392TIP3    H122137   2.231   5.859   4.877 -1.4604  1.2429 -2.6768
 7392TIP3    H222138   2.130   5.801   4.973  0.4947  1.7964 -0.2430
 7393TIP3   OH222139   7.517   3.512   5.798 -0.0071  0.3640 -0.2061
 7393TIP3    H122140   7.437   3.534   5.847  0.8497  0.3510  1.2247
 7393TIP3    H222141   7.523   3.417   5.803 -0.5872  0.2505 -1.4325
 7394TIP3   OH222142   1.258   6.410   2.233 -0.3300 -0.0686  0.6412
 7394TIP3    H122143   1.285   6.396   2.324 -1.7087  0.1014  1.1047
 7394TIP3    H222144   1.303   6.490   2.207 -2.2785  1.6243  2.2372
 7395TIP3   OH222145   1.756   6.667   4.376  0.8862 -0.0832  0.0654
 7395TIP3    H122146   1.807   6.713   4.442  0.7978  2.0752 -1.3226
 7395TIP3    H222147   1.814   6.598   4.344  0.4443 -2.0225  3.2946
 7396TIP3   OH222148   1.180   1.284   5.632 -0.2897 -0.1292  0.6122
 7396TIP3    H122149   1.146   1.269   5.720  1.3957 -1.3281  1.0920
 7396TIP3    H222150   1.252   1.221   5.623  0.9879  1.4658 -0.8032
 7397TIP3   OH222151   1.924   5.679   4.515  0.4113 -0.4715 -0.2434
 7397TIP3    H122152   1.920   5.640   4.427 -1.1532  0.4970 -0.6148
 7397TIP3    H222153   1.834   5.707   4.533  0.8346 -0.1730  1.4487
 7398TIP3   OH222154   1.975   6.686   2.933 -0.5188  0.2069  0.5548
 7398TIP3    H122155   1.989   6.649   2.846  0.8647 -1.5805  1.4956
 7398TIP3    H222156   1.887   6.725   2.929 -0.4868  0.0975 -1.6064
 7399TIP3   OH222157   1.791   6.819   3.733  0.4300  0.5604 -0.3699
 7399TIP3    H122158   1.811   6.775   3.815  1.7035  0.8080 -0.5406
 7399TIP3    H222159   1.696   6.832   3.735  0.3478 -0.1737  0.6829
 7400TIP3   OH222160   1.518   5.168   3.347  0.3608 -0.3456  0.3182
 7400TIP3    H122161   1.561   5.165   3.433  0.4754  0.6477  0.2963
 7400TIP3    H222162   1.434   5.209   3.364  1.3571  2.0836 -0.4429
 7401TIP3   OH222163   3.519   0.032   4.730 -0.2539 -0.1607  0.3121
 7401TIP3    H122164   3.494   0.084   4.806  1.3163  0.9508  0.0864
 7401TIP3    H222165   3.578  -0.035   4.765  2.0242  1.5372 -0.1748
 7402TIP3   OH222166   1.078   6.429   4.214  0.0521 -0.4103 -0.3139
 7402TIP3    H122167   1.140   6.478   4.267  0.0703  0.0559 -0.7671
 7402TIP3    H222168   1.108   6.338   4.220  0.0440 -0.3624  0.4790
 7403TIP3   OH222169   0.236   6.218   3.888 -0.0559 -0.0743  0.0311
 7403TIP3    H122170   0.237   6.299   3.837 -2.2011 -0.6341 -0.9339
 7403TIP3    H222171   0.147   6.215   3.925 -0.0421 -2.0874 -0.0949
 7404TIP3   OH222172   0.182   6.085   3.186  0.0441 -0.3534 -0.4917
 7404TIP3    H122173   0.162   6.135   3.266 -0.3220 -1.8343  0.3657
 7404TIP3    H222174   0.250   6.136   3.142  0.3895  0.3844  0.8634
 7405TIP3   OH222175   1.045   6.177   2.409  0.2614  0.1900 -0.5422
 7405TIP3    H122176   0.993   6.231   2.350  0.7516  1.5871  0.2943
 7405TIP3    H222177   1.134   6.209   2.399  0.3873  0.2818  0.7744
 7406TIP3   OH222178   2.709   4.559   3.072 -0.0916 -0.0945 -0.0275
 7406TIP3    H122179   2.786   4.541   3.017 -0.2144 -2.2470  0.4648
 7406TIP3    H222180   2.649   4.487   3.052 -0.7543 -0.0641  1.7955
 7407TIP3   OH222181   0.491   3.450   4.689 -0.4496  0.7294 -0.1893
 7407TIP3    H122182   0.575   3.492   4.671  1.5336 -2.2437  1.6353
 7407TIP3    H222183   0.490   3.439   4.784 -2.7078  0.3264 -0.2369
 7408TIP3   OH222184   0.443   6.403   5.164  0.3558  0.5349 -0.1290
 7408TIP3    H122185   0.524   6.352   5.154  1.8498  2.8793 -0.2792
 7408TIP3    H222186   0.416   6.388   5.255  0.6132 -0.7083 -0.2417
 7409TIP3   OH222187   3.196   5.550   3.347 -0.3178 -0.0436  0.0849
 7409TIP3    H122188   3.140   5.616   3.307 -0.7848  0.3166  1.3040
 7409TIP3    H222189   3.275   5.549   3.293 -0.0215  1.9897  0.4392
 7410TIP3   OH222190   0.590   5.521   3.528 -0.1517 -0.4474 -0.0076
 7410TIP3    H122191   0.525   5.500   3.595  0.0081 -2.0099 -0.3237
 7410TIP3    H222192   0.611   5.613   3.543 -1.1454 -0.4049  1.2053
 7411TIP3   OH222193   1.243   6.560   4.759  0.0933  0.1043 -0.4569
 7411TIP3    H122194   1.199   6.631   4.712 -1.6599 -1.7964 -1.7727
 7411TIP3    H222195   1.222   6.576   4.851 -1.6864  0.3710 -0.8975
 7412TIP3   OH222196   7.423   5.341   3.190  0.0375  0.1128  0.3021
 7412TIP3    H122197   7.355   5.325   3.255 -0.4718  3.4488  0.6556
 7412TIP3    H222198   7.376   5.378   3.115  1.0956 -0.3285 -0.5985
 7413TIP3   OH222199   2.475   4.184   4.513  0.1790 -0.3575  0.0425
 7413TIP3    H122200   2.460   4.273   4.544 -0.0908 -1.1251  2.2226
 7413TIP3    H222201   2.561   4.187   4.470  0.2639  0.9052  0.2895
 7414TIP3   OH222202   5.738   0.831   5.214  0.0706 -0.6044  0.2356
 7414TIP3    H122203   5.813   0.875   5.173  1.3228 -1.4220  1.5930
 7414TIP3    H222204   5.672   0.899   5.223  1.3958  0.6234  0.8529
 7415TIP3   OH222205   2.851   0.389   2.214  0.0195  0.7105 -0.2533
 7415TIP3    H122206   2.794   0.466   2.210 -0.1051  0.6773  0.7615
 7415TIP3    H222207   2.905   0.403   2.292  1.0310  0.4802 -0.8996
 7416TIP3   OH222208   1.333   4.774   3.310 -0.0683  0.4655 -0.4000
 7416TIP3    H122209   1.343   4.739   3.398  0.5194 -1.1461 -1.0913
 7416TIP3    H222210   1.421   4.776   3.274 -0.1009  2.6411 -0.3939
 7417TIP3   OH222211   2.910   6.420   3.929 -0.0296 -0.2004  0.4804
 7417TIP3    H122212   2.844   6.465   3.876  0.0089 -0.6288  0.0526
 7417TIP3    H222213   2.924   6.337   3.882  1.7999  0.4641 -0.1864
 7418TIP3   OH222214   3.425   5.480   4.218  0.3448 -0.3692 -0.1042
 7418TIP3    H122215   3.480   5.545   4.261  0.8076 -1.2188  0.5825
 7418TIP3    H222216   3.361   5.532   4.168  0.5716  0.6067  0.6207
 7419TIP3   OH222217   4.438   0.510   3.725 -0.4458  0.0757 -0.9219
 7419TIP3    H122218   4.518   0.458   3.732 -0.1560  0.5622 -0.5050
 7419TIP3    H222219   4.369   0.447   3.705  0.0326 -0.3561 -1.2192
 7420TIP3   OH222220   1.294   3.636   4.243  0.2211  0.3172 -0.1680
 7420TIP3    H122221   1.314   3.664   4.332 -1.2033 -0.7025  0.4941
 7420TIP3    H222222   1.225   3.570   4.253  2.5508 -2.5152 -1.7398
 7421TIP3   OH222223   4.516   6.560   4.464  0.0706  0.3523 -0.6112
 7421TIP3    H122224   4.442   6.500   4.470 -0.4670  0.9107 -1.5389
 7421TIP3    H222225   4.582   6.524   4.524 -0.4311 -0.8783 -0.7996
 7422TIP3   OH222226   2.993   4.173   3.840 -0.0435  0.3735  0.0726
 7422TIP3    H122227   2.947   4.141   3.917 -1.6217  2.1845 -0.0821
 7422TIP3    H222228   3.075   4.209   3.874  1.2032 -2.5882  0.3833
 7423TIP3   OH222229   7.821   7.302   4.531  0.0687  0.2257  0.2575
 7423TIP3    H122230   7.811   7.207   4.528 -0.1164  0.2197  0.9367
 7423TIP3    H222231   7.749   7.335   4.477  0.1523 -0.0203 -0.0053
 7424TIP3   OH222232   3.912   6.129   5.509  0.0001  0.1279  0.1220
 7424TIP3    H122233   3.956   6.209   5.479 -0.6938  0.4287 -0.1184
 7424TIP3    H222234   3.961   6.101   5.586  1.5024 -0.3570 -0.9716
 7425TIP3   OH222235   5.620   0.506   6.253  0.4800 -0.2825 -0.3466
 7425TIP3    H122236   5.704   0.539   6.285 -0.2006 -0.3351  1.6168
 7425TIP3    H222237   5.638   0.415   6.229  0.9406 -0.3601  0.2791
 7426TIP3   OH222238   1.995   4.760   4.349 -0.7293 -0.4314 -0.5225
 7426TIP3    H122239   1.984   4.835   4.291 -0.1558 -0.0277 -0.1197
 7426TIP3    H222240   1.907   4.725   4.361 -1.4190  1.8311  1.4716
 7427TIP3   OH222241   3.659   0.386   3.964  0.0748 -0.2095  0.2194
 7427TIP3    H122242   3.744   0.392   4.009  0.4912 -0.2696 -0.5577
 7427TIP3    H222243   3.676   0.330   3.889 -0.5200  0.2680 -0.2736
 7428TIP3   OH222244   1.755   5.055   5.501 -0.0411 -0.5080 -0.4167
 7428TIP3    H122245   1.740   5.131   5.445  0.5234  0.8441  1.2256
 7428TIP3    H222246   1.792   4.989   5.442 -0.7421  0.3999 -1.9072
 7429TIP3   OH222247   3.803   1.146   4.183  0.0086  0.7829 -0.2676
 7429TIP3    H122248   3.759   1.064   4.204  0.5561  0.3896 -0.6302
 7429TIP3    H222249   3.839   1.133   4.096  1.7860  0.6758  0.4425
 7430TIP3   OH222250   0.254   6.649   0.856 -0.4515 -0.6148  0.3283
 7430TIP3    H122251   0.344   6.659   0.887 -0.4951 -1.3014  0.6800
 7430TIP3    H222252   0.261   6.596   0.777 -0.3302  1.2150 -0.9331
 7431TIP3   OH222253   3.578   0.768   3.039  0.3364 -0.1720 -0.1136
 7431TIP3    H122254   3.633   0.834   3.081 -0.0737 -0.1931  0.4600
 7431TIP3    H222255   3.511   0.820   2.993  0.5436 -0.1633 -0.4108
 7432TIP3   OH222256   3.400   0.643   3.324  0.5815 -0.4128  0.0246
 7432TIP3    H122257   3.424   0.602   3.240 -1.0650  0.0221 -0.6664
 7432TIP3    H222258   3.443   0.728   3.322  0.5261 -0.3933 -0.3763
 7433TIP3   OH222259   1.495   7.169   4.406 -0.1317 -0.8526  0.2261
 7433TIP3    H122260   1.504   7.225   4.330  0.1920 -1.2047  0.0054
 7433TIP3    H222261   1.547   7.091   4.386 -0.5210 -1.2047  0.5539
 7434TIP3   OH222262   1.825   0.979   2.111  0.9906  0.0120 -0.1670
 7434TIP3    H122263   1.765   1.041   2.070  1.6043  1.3978  1.0184
 7434TIP3    H222264   1.821   0.901   2.055 -1.8293  0.1048 -0.1749
 7435TIP3   OH222265   1.904   5.972   4.940 -0.5338  0.2920 -0.0792
 7435TIP3    H122266   1.888   5.878   4.946  1.8465 -0.2187 -1.2372
 7435TIP3    H222267   1.926   5.998   5.030 -1.5305 -0.1937  0.3031
 7436TIP3   OH222268   3.419   6.268   2.924  0.8684 -0.0361  0.3752
 7436TIP3    H122269   3.384   6.353   2.895 -1.3338 -1.1441 -0.3113
 7436TIP3    H222270   3.417   6.273   3.019 -1.1235 -0.0080  0.3648
 7437TIP3   OH222271   4.730   0.821   5.410 -0.1078  1.0214  0.0680
 7437TIP3    H122272   4.660   0.853   5.467  0.8745  1.1428  1.2249
 7437TIP3    H222273   4.687   0.759   5.352 -1.3194  1.6438  0.2820
 7438TIP3   OH222274   2.305   5.685   5.719 -0.1032 -0.7674  0.1251
 7438TIP3    H122275   2.399   5.698   5.714 -0.0496 -1.1531  0.1208
 7438TIP3    H222276   2.293   5.620   5.789 -0.4399  0.0991  0.8747
 7439TIP3   OH222277   0.778   7.117   5.120  0.0742  0.0553 -0.0937
 7439TIP3    H122278   0.702   7.168   5.091  0.3353  0.1335 -0.6509
 7439TIP3    H222279   0.776   7.038   5.065 -0.3222 -0.5345  0.7559
 7440TIP3   OH222280   0.506   6.663   4.695 -0.2171 -0.1632  0.0250
 7440TIP3    H122281   0.469   6.630   4.776  1.5665 -0.8164  0.5887
 7440TIP3    H222282   0.598   6.681   4.715 -0.4337  2.4153 -1.0552
 7441TIP3   OH222283   1.766   5.764   3.173 -0.5681  0.1240 -0.5198
 7441TIP3    H122284   1.815   5.809   3.104 -0.5757  1.9064  0.5923
 7441TIP3    H222285   1.734   5.835   3.229  0.5822 -1.3129  2.0807
 7442TIP3   OH222286   6.161   3.365   0.586 -0.1478 -0.4392 -0.1777
 7442TIP3    H122287   6.109   3.322   0.518 -0.7208 -0.9893  0.5972
 7442TIP3    H222288   6.102   3.369   0.662  0.6087 -0.1799  0.4007
 7443TIP3   OH222289   2.740   6.029   3.890  0.0327  0.3450 -0.8196
 7443TIP3    H122290   2.695   5.960   3.842 -2.0843 -0.0268  1.5609
 7443TIP3    H222291   2.819   5.987   3.924 -1.5481 -1.1382  1.1267
 7444TIP3   OH222292   0.273   6.656   6.027  0.3416  0.2081 -0.1748
 7444TIP3    H122293   0.298   6.747   6.043  0.5558 -0.0362  0.8909
 7444TIP3    H222294   0.326   6.605   6.089  1.3566 -0.7758 -1.8057
 7445TIP3   OH222295   0.913   4.678   2.970  0.2569  0.0363  0.1826
 7445TIP3    H122296   0.971   4.737   3.019  1.2730  0.0079 -0.9746
 7445TIP3    H222297   0.954   4.592   2.978  0.0609 -0.0895 -0.1640
 7446TIP3   OH222298   1.076   6.367   3.116 -0.1168 -0.4984  0.3192
 7446TIP3    H122299   1.019   6.431   3.159  1.6743  0.1077  1.8501
 7446TIP3    H222300   1.084   6.399   3.026  0.4627  1.2644  0.9640
 7447TIP3   OH222301   2.720   6.824   4.782  0.1013  0.0064  0.1620
 7447TIP3    H122302   2.704   6.917   4.765 -0.5296  0.2587  2.0253
 7447TIP3    H222303   2.633   6.788   4.800  0.3560 -0.9324 -0.4535
 7448TIP3   OH222304   7.638   6.736   5.749  0.1274  0.0830  0.0716
 7448TIP3    H122305   7.700   6.780   5.807 -0.2518  0.6111  0.0754
 7448TIP3    H222306   7.604   6.805   5.693 -0.4085 -0.2193  0.0223
 7449TIP3   OH222307   2.278   4.738   4.381  0.0078 -0.3028  0.0849
 7449TIP3    H122308   2.182   4.745   4.378 -0.0506 -1.0416  0.3659
 7449TIP3    H222309   2.306   4.769   4.294 -0.4958 -0.3265 -0.0891
 7450TIP3   OH222310   7.680   6.061   4.542 -0.2277  0.4872 -0.2983
 7450TIP3    H122311   7.670   6.119   4.466  0.2393 -1.4242 -1.8516
 7450TIP3    H222312   7.615   5.992   4.528  0.9464 -0.7376  0.2124
 7451TIP3   OH222313   0.635   0.663   0.038 -0.0805  0.0837  0.7980
 7451TIP3    H122314   0.728   0.663   0.064 -0.1075 -1.5996  0.9542
 7451TIP3    H222315   0.607   0.572   0.051 -1.4264  0.3131 -0.4303
 7452TIP3   OH222316   1.561   4.079   0.309  0.2677 -0.4192  0.0125
 7452TIP3    H122317   1.610   4.153   0.273  0.8325 -0.3640  0.8734
 7452TIP3    H222318   1.483   4.072   0.254  1.4808 -0.8124 -1.6850
 7453TIP3   OH222319   2.529   6.580   6.309  0.0869 -0.1022  0.6181
 7453TIP3    H122320   2.536   6.502   6.364  0.2603 -0.6697 -0.2076
 7453TIP3    H222321   2.568   6.554   6.225  1.0943  1.1793  0.6638
 7454TIP3   OH222322   0.888   3.895   5.073 -0.2402  0.0010 -0.4548
 7454TIP3    H122323   0.918   3.964   5.132 -0.2271 -1.1600  0.9143
 7454TIP3    H222324   0.793   3.907   5.070 -0.3333 -0.4498  0.4734
 7455TIP3   OH222325   2.900   4.934   4.715  0.4013  0.1451  0.2702
 7455TIP3    H122326   2.928   5.024   4.698 -1.9409  0.8590  0.0090
 7455TIP3    H222327   2.858   4.906   4.634  0.3947 -0.8928  0.6278
 7456TIP3   OH222328   2.589   6.812   4.520  0.6701 -0.0094 -0.1372
 7456TIP3    H122329   2.630   6.728   4.541 -0.0767 -0.4746 -0.5336
 7456TIP3    H222330   2.519   6.790   4.458 -0.0300  0.8120  0.3511
 7457TIP3   OH222331   5.143   0.193   4.651 -0.3207  0.6031 -0.2898
 7457TIP3    H122332   5.090   0.116   4.668  1.1222 -0.1939  0.8117
 7457TIP3    H222333   5.147   0.200   4.556 -0.5161 -0.6450 -0.3947
 7458TIP3   OH222334   0.679   5.304   3.694 -0.2128 -0.5193 -0.5234
 7458TIP3    H122335   0.590   5.270   3.689 -0.3409 -0.1114 -1.0272
 7458TIP3    H222336   0.683   5.372   3.627 -0.5261  1.7708  1.7120
 7459TIP3   OH222337   1.527   6.657   4.847  0.3434 -0.5342  0.6665
 7459TIP3    H122338   1.494   6.730   4.796  1.8859  0.0989  0.5370
 7459TIP3    H222339   1.457   6.636   4.908 -0.9883 -0.4226 -0.7992
 7460TIP3   OH222340   5.206   1.189   0.766  0.0187 -0.1419 -0.4551
 7460TIP3    H122341   5.251   1.110   0.736  0.2128 -0.2550  0.1299
 7460TIP3    H222342   5.122   1.157   0.799 -0.3095  0.0162 -1.1329
 7461TIP3   OH222343   0.633   6.240   4.651  0.0810 -0.0937  0.1497
 7461TIP3    H122344   0.647   6.168   4.713 -1.4452 -0.5221  0.0217
 7461TIP3    H222345   0.569   6.296   4.694 -0.2744  0.1007 -0.6216
 7462TIP3   OH222346   3.524   5.515   5.218 -0.4418 -0.5676 -0.1715
 7462TIP3    H122347   3.449   5.572   5.199  1.9187  1.4224 -3.9346
 7462TIP3    H222348   3.582   5.569   5.272 -0.2768 -1.0249  0.1139
 7463TIP3   OH222349   1.409   4.358   0.072 -0.0062 -0.5953 -0.2275
 7463TIP3    H122350   1.409   4.446   0.036 -1.1080 -0.9459 -1.1037
 7463TIP3    H222351   1.361   4.366   0.155 -0.5914 -0.4785 -0.5766
 7464TIP3   OH222352   1.268   7.059   3.533  0.5699  0.3735  0.2401
 7464TIP3    H122353   1.218   7.068   3.452  0.8549  0.7430  0.1072
 7464TIP3    H222354   1.208   7.015   3.593 -0.1888  1.5135  0.3256
 7465TIP3   OH222355   1.159   5.941   4.185  0.0230  0.6748 -0.2656
 7465TIP3    H122356   1.143   6.009   4.251  0.9902  0.7871 -0.1423
 7465TIP3    H222357   1.247   5.908   4.205 -0.1469 -0.1083 -0.7779
 7466TIP3   OH222358   6.824   0.173   5.329 -0.1263  0.1525  0.0833
 7466TIP3    H122359   6.885   0.242   5.302 -0.4800  0.8756  1.0890
 7466TIP3    H222360   6.737   0.210   5.314 -0.3153 -0.3328 -0.0126
 7467TIP3   OH222361   2.274   6.565   3.237  0.5870 -0.1512  0.4222
 7467TIP3    H122362   2.304   6.486   3.192  0.9730  0.1495  0.1464
 7467TIP3    H222363   2.296   6.551   3.329 -0.4405 -0.8831  0.5621
 7468TIP3   OH222364   1.566   4.382   1.596 -0.6164 -0.4181 -0.6848
 7468TIP3    H122365   1.505   4.370   1.669  0.1748 -0.6017 -0.0566
 7468TIP3    H222366   1.563   4.477   1.578 -0.5557 -0.3244 -0.1973
 7469TIP3   OH222367   2.297   6.221   2.417  0.8417 -0.1599 -0.5238
 7469TIP3    H122368   2.247   6.233   2.336 -3.2298 -1.8901  1.5876
 7469TIP3    H222369   2.299   6.126   2.430  0.4938  0.1282  1.9058
 7470TIP3   OH222370   1.666   5.950   6.212  0.3383  0.0996  0.5745
 7470TIP3    H122371   1.670   6.038   6.249 -0.4271  0.8852 -1.1396
 7470TIP3    H222372   1.611   5.901   6.272  0.3694  0.9265  1.2894
 7471TIP3   OH222373   1.187   5.320   4.082 -0.0488 -0.6899 -0.0873
 7471TIP3    H122374   1.151   5.233   4.102  2.2248 -2.1606 -2.0907
 7471TIP3    H222375   1.282   5.309   4.090  0.3443  1.2778 -1.6320
 7472TIP3   OH222376   2.067   5.764   3.803  0.4125 -0.1776 -0.6624
 7472TIP3    H122377   2.051   5.834   3.740  0.0895  0.5364  0.1968
 7472TIP3    H222378   1.995   5.773   3.867  1.7680  0.2938  0.8348
 7473TIP3   OH222379   3.879   6.642   4.800 -0.3746  0.0498 -0.1340
 7473TIP3    H122380   3.944   6.630   4.868 -1.4187  1.9035  1.2335
 7473TIP3    H222381   3.810   6.580   4.821  0.0181 -0.5006 -0.4415
 7474TIP3   OH222382   1.709   3.948   2.435  0.0930 -0.2108 -0.0979
 7474TIP3    H122383   1.654   3.933   2.512  0.9120  0.0829  0.5600
 7474TIP3    H222384   1.791   3.981   2.471  1.4382 -2.5265 -0.8951
 7475TIP3   OH222385   2.904   4.834   1.737  0.0455 -0.3344 -0.2466
 7475TIP3    H122386   2.900   4.795   1.649  0.1722 -1.2876  0.1638
 7475TIP3    H222387   2.891   4.927   1.722  1.2394 -0.3271 -1.4101
 7476TIP3   OH222388   6.335   1.446   3.584 -0.6665  0.2401  0.4597
 7476TIP3    H122389   6.429   1.458   3.576 -0.5427 -0.7277  0.4183
 7476TIP3    H222390   6.314   1.473   3.674 -0.1057 -1.0093  0.9794
 7477TIP3   OH222391   1.368   4.338   4.511  0.3574  0.0289 -0.1905
 7477TIP3    H122392   1.281   4.335   4.550  0.3526  0.1474 -0.1919
 7477TIP3    H222393   1.375   4.257   4.460  0.4778 -0.2718  0.3030
 7478TIP3   OH222394   0.994   4.101   5.337 -0.4959 -0.1800  0.8556
 7478TIP3    H122395   0.949   4.102   5.421 -2.8435 -0.0078 -0.3620
 7478TIP3    H222396   0.955   4.174   5.288  0.7571 -0.3428 -0.4265
 7479TIP3   OH222397   3.660   5.904   3.653  0.2917 -0.0025  0.1396
 7479TIP3    H122398   3.693   5.865   3.572 -1.0794  1.1773 -1.0071
 7479TIP3    H222399   3.586   5.849   3.678  0.3718 -0.0448  0.2806
 7480TIP3   OH222400   4.817   5.893   4.651  0.1797 -0.5488  0.4116
 7480TIP3    H122401   4.904   5.870   4.617  0.3657  0.4788  0.1845
 7480TIP3    H222402   4.793   5.818   4.705  0.2553 -1.8351 -1.2700
 7481TIP3   OH222403   2.337   5.069   4.295 -0.1342  0.5471  0.1918
 7481TIP3    H122404   2.249   5.104   4.282 -0.0997  0.0349 -1.5001
 7481TIP3    H222405   2.394   5.124   4.241  0.3845 -0.0379  0.1320
 7482TIP3   OH222406   2.806   4.740   6.081 -1.2202  0.2246  0.0237
 7482TIP3    H122407   2.870   4.806   6.054 -0.7537  0.3065  1.3243
 7482TIP3    H222408   2.722   4.779   6.060 -0.8475 -0.1390 -2.2840
 7483TIP3   OH222409   4.791   6.660   4.939  0.4557 -0.0558 -0.1966
 7483TIP3    H122410   4.723   6.597   4.917  1.0522 -0.8684  0.2322
 7483TIP3    H222411   4.746   6.730   4.987 -0.2729  0.0425 -1.0066
 7484TIP3   OH222412   4.241   5.668   3.400  0.0254 -0.6894 -0.2667
 7484TIP3    H122413   4.260   5.756   3.433 -1.3026 -0.3626 -0.3601
 7484TIP3    H222414   4.243   5.613   3.478  0.0544 -0.4440 -0.0934
 7485TIP3   OH222415   0.334   3.091   3.386  0.3139 -0.1425 -0.3293
 7485TIP3    H122416   0.343   3.108   3.293 -0.6679 -0.1169 -0.4241
 7485TIP3    H222417   0.396   3.151   3.428  0.0459  0.5333 -0.9010
 7486TIP3   OH222418   2.035   4.322   4.159  0.1124  0.4677 -0.2379
 7486TIP3    H122419   1.976   4.390   4.191 -0.0508  0.1448  0.1604
 7486TIP3    H222420   2.042   4.338   4.065 -1.3485 -0.0593 -0.4515
 7487TIP3   OH222421   3.649   6.622   4.390 -0.0721  0.2075 -0.3280
 7487TIP3    H122422   3.587   6.599   4.320 -2.2680  1.7290  1.0573
 7487TIP3    H222423   3.714   6.677   4.346  0.1856 -1.1731 -1.7471
 7488TIP3   OH222424   1.018   7.252   5.851  0.4713 -0.0222  0.4300
 7488TIP3    H122425   0.924   7.271   5.853  0.4722 -0.1120  1.8020
 7488TIP3    H222426   1.027   7.185   5.783 -0.6692 -1.0566  1.2765
 7489TIP3   OH222427   7.475   6.174   3.935 -0.7094  0.5221  0.0779
 7489TIP3    H122428   7.486   6.086   3.898  0.7708  0.2313  1.1670
 7489TIP3    H222429   7.395   6.168   3.987  0.2885 -0.6909  1.5342
 7490TIP3   OH222430   1.463   6.603   3.353  0.8194  0.4567 -0.0479
 7490TIP3    H122431   1.484   6.567   3.267 -0.0482 -1.3617  0.4797
 7490TIP3    H222432   1.404   6.676   3.335 -1.1750 -1.3309 -0.8867
 7491TIP3   OH222433   2.492   5.886   4.193 -0.1797 -0.0092 -0.2070
 7491TIP3    H122434   2.543   5.806   4.185 -2.0249 -1.0123 -2.8303
 7491TIP3    H222435   2.547   5.945   4.243  1.2403 -2.8840  1.7403
 7492TIP3   OH222436   2.926   4.986   5.503  0.2737  0.3622  0.2514
 7492TIP3    H122437   3.004   4.993   5.447  0.5696  0.2281  0.6469
 7492TIP3    H222438   2.956   5.015   5.589 -0.0832  0.1864  0.4330
 7493TIP3   OH222439   7.021   7.021   5.893 -0.6974 -0.1317  0.0186
 7493TIP3    H122440   7.050   7.051   5.807  0.0683 -0.9652 -0.0272
 7493TIP3    H222441   7.007   6.926   5.882 -0.0327 -0.3464  0.9446
 7494TIP3   OH222442   4.223   0.049   3.775  0.3415 -0.2884 -0.6729
 7494TIP3    H122443   4.280  -0.025   3.798  2.3355  1.2668 -0.4370
 7494TIP3    H222444   4.147   0.039   3.833  0.4111 -2.3299 -0.8820
 7495TIP3   OH222445   0.395   1.945   5.651  0.5168 -0.3062 -0.4379
 7495TIP3    H122446   0.460   2.014   5.649 -1.0643  1.1959 -1.0705
 7495TIP3    H222447   0.375   1.928   5.559 -0.8858  0.1403 -0.2324
 7496TIP3   OH222448   4.105   0.966   3.457  1.1338  0.2715 -0.2680
 7496TIP3    H122449   4.154   1.025   3.515 -2.1524  0.7348  2.2097
 7496TIP3    H222450   4.073   1.023   3.387 -0.5914  1.1357  1.1894
 7497TIP3   OH222451   2.069   6.569   2.360 -0.3709 -0.0873 -0.1002
 7497TIP3    H122452   1.978   6.540   2.371 -1.0836  2.2640  0.6984
 7497TIP3    H222453   2.091   6.544   2.270 -1.5325 -1.4239 -0.0253
 7498TIP3   OH222454   0.807   4.648   0.186  0.1965 -0.5725  0.0528
 7498TIP3    H122455   0.769   4.648   0.098  1.0480  1.3634 -0.3381
 7498TIP3    H222456   0.887   4.596   0.177 -1.7225 -3.7674  0.6415
 7499TIP3   OH222457   1.954   7.083   2.914 -0.6267 -0.0015  0.0026
 7499TIP3    H122458   2.044   7.089   2.882 -1.2081 -2.2963 -2.2252
 7499TIP3    H222459   1.901   7.124   2.846 -1.3452  0.9323  1.0951
 7500TIP3   OH222460   3.411   0.449   2.779 -0.0790 -0.4070  0.2837
 7500TIP3    H122461   3.430   0.444   2.873 -0.7923 -0.3498  0.4334
 7500TIP3    H222462   3.482   0.401   2.737  1.4153  1.3632  0.7056
 7501TIP3   OH222463   0.965   5.650   5.883 -0.0345 -0.0630 -0.2746
 7501TIP3    H122464   0.888   5.690   5.843  0.1038  0.0899 -0.3878
 7501TIP3    H222465   0.952   5.556   5.870  0.1920  0.0020 -1.0135
 7502TIP3   OH222466   0.854   4.367   5.219 -0.1469  0.4339 -0.0719
 7502TIP3    H122467   0.902   4.434   5.169  1.3522  0.4414  1.3086
 7502TIP3    H222468   0.764   4.399   5.222  0.4907  2.2738  0.3194
 7503TIP3   OH222469   3.248   5.880   3.489  0.7185 -0.3787 -0.3074
 7503TIP3    H122470   3.294   5.864   3.407  2.2444 -1.4143  0.7482
 7503TIP3    H222471   3.285   5.962   3.522 -1.3298  1.1411 -1.6249
 7504TIP3   OH222472   2.436   6.420   4.401  0.4992 -0.2867  0.4649
 7504TIP3    H122473   2.440   6.490   4.337  0.8936  0.3928  1.2251
 7504TIP3    H222474   2.397   6.346   4.354  0.9749  0.1392 -0.6045
 7505TIP3   OH222475   0.928   5.399   5.921  0.3016  0.6900  0.3796
 7505TIP3    H122476   0.920   5.385   6.016  0.8948  0.8075  0.4505
 7505TIP3    H222477   0.900   5.316   5.883 -1.2374  1.1011  0.6084
 7506TIP3   OH222478   1.669   4.457   4.910 -0.7390 -0.2852 -0.3424
 7506TIP3    H122479   1.686   4.450   4.817  1.1611  0.5814 -0.0926
 7506TIP3    H222480   1.595   4.518   4.917 -1.2064 -0.7483 -1.2990
 7507TIP3   OH222481   1.819   5.051   4.981  0.6993  0.3275 -0.1031
 7507TIP3    H122482   1.787   5.111   4.914 -1.0403  1.3776  1.6164
 7507TIP3    H222483   1.866   4.984   4.932 -0.2603  1.2299 -2.3497
 7508TIP3   OH222484   4.188   5.916   3.254 -0.3708 -0.6485  0.1131
 7508TIP3    H122485   4.235   5.987   3.298  1.1191 -2.1498  0.9869
 7508TIP3    H222486   4.118   5.960   3.206  1.9946  1.6627 -1.3487
 7509TIP3   OH222487   0.617   5.289   4.520 -0.5910  0.0623 -0.4735
 7509TIP3    H122488   0.649   5.301   4.430 -1.7248 -0.5392 -0.9632
 7509TIP3    H222489   0.658   5.208   4.550 -1.2540 -0.4352 -0.9165
 7510TIP3   OH222490   3.361   6.284   3.240 -0.5919  0.2747  0.7517
 7510TIP3    H122491   3.277   6.245   3.267 -0.3918 -1.4985 -1.0625
 7510TIP3    H222492   3.426   6.218   3.263 -0.0484  0.2766 -0.7552
 7511TIP3   OH222493   2.424   5.218   4.528 -0.4041 -0.2382  0.2003
 7511TIP3    H122494   2.400   5.160   4.455  1.6781  1.2595 -1.7513
 7511TIP3    H222495   2.486   5.167   4.579  1.3175  0.1591 -1.4338
 7512TIP3   OH222496   1.364   7.047   4.851 -0.0523 -0.0018 -0.2182
 7512TIP3    H122497   1.406   7.107   4.913 -1.7124  2.7779 -1.6953
 7512TIP3    H222498   1.377   7.089   4.766 -2.0950 -1.2701 -1.1639
 7513TIP3   OH222499   2.198   7.226   2.841  0.4159 -0.0030 -0.2281
 7513TIP3    H122500   2.256   7.257   2.910  2.0788 -0.9615 -1.1504
 7513TIP3    H222501   2.237   7.143   2.812 -2.3012 -1.4838  0.1983
 7514TIP3   OH222502   2.131   4.445   4.788  0.2260  0.4153  0.7402
 7514TIP3    H122503   2.117   4.529   4.832 -0.5064 -0.0736  1.4582
 7514TIP3    H222504   2.061   4.388   4.821  0.0855 -0.1773 -0.5259
 7515TIP3   OH222505   2.159   5.361   5.081 -0.4501  0.1735  0.2783
 7515TIP3    H122506   2.215   5.324   5.013 -1.1948 -1.2118  0.3975
 7515TIP3    H222507   2.142   5.287   5.140 -1.6042  0.8208  0.7665
 7516TIP3   OH222508   3.601   6.629   2.979  0.1753  0.1605  0.1479
 7516TIP3    H122509   3.637   6.710   2.943 -1.3601  0.9722  0.3717
 7516TIP3    H222510   3.508   6.633   2.958 -0.2524 -0.6504  1.7750
 7517TIP3   OH222511   1.863   5.328   4.168  0.3299 -0.1064  0.2592
 7517TIP3    H122512   1.815   5.259   4.215  0.9283  0.0058  1.0510
 7517TIP3    H222513   1.954   5.298   4.169  0.3700 -0.0148 -0.6876
 7518TIP3   OH222514   1.043   7.051   5.182  0.4533  0.3424  0.1821
 7518TIP3    H122515   0.960   7.094   5.162  0.2143  0.8757  2.2722
 7518TIP3    H222516   1.056   6.989   5.110 -1.2856  0.8978 -0.6283
 7519TIP3   OH222517   5.579   6.584   4.220 -0.9434  0.4312 -0.5616
 7519TIP3    H122518   5.658   6.562   4.170  0.1611  1.6674  0.6063
 7519TIP3    H222519   5.548   6.499   4.253 -0.7387 -0.1924 -1.9209
 7520TIP3   OH222520   2.716   7.262   4.799  0.1565  0.3425 -0.3760
 7520TIP3    H122521   2.771   7.193   4.763 -0.1645  0.0015 -0.2142
 7520TIP3    H222522   2.722   7.334   4.736 -0.2377 -0.1706 -1.0009
 7521TIP3   OH222523   5.016   6.773   3.008 -0.0470 -0.1799  0.1567
 7521TIP3    H122524   4.945   6.710   3.016 -0.4038  0.3211  1.0503
 7521TIP3    H222525   5.035   6.777   2.914 -3.2853  1.9591 -0.4730
 7522TIP3   OH222526   7.530   0.140   2.917 -0.2222  0.0061 -0.0351
 7522TIP3    H122527   7.609   0.120   2.967 -0.1956  2.4938  1.0012
 7522TIP3    H222528   7.475   0.188   2.978 -2.4632 -1.4646 -0.8219
 7523TIP3   OH222529   6.111   0.205   5.728 -0.4113 -0.4620  1.0031
 7523TIP3    H122530   6.188   0.207   5.786 -0.2916 -2.8471  0.9939
 7523TIP3    H222531   6.038   0.228   5.786 -0.0651 -1.0728  1.6976
 7524TIP3   OH222532   3.604   4.563   4.744 -0.2352  0.1539  0.0505
 7524TIP3    H122533   3.557   4.507   4.682 -0.1178  0.0056  0.0960
 7524TIP3    H222534   3.592   4.652   4.710  0.3897  0.0095 -0.5424
 7525TIP3   OH222535   2.485   7.168   4.186 -0.0103 -0.3976 -0.7994
 7525TIP3    H122536   2.444   7.252   4.206  2.7956  1.0442 -0.7524
 7525TIP3    H222537   2.454   7.109   4.255  0.2158  1.3673  0.8536
 7526TIP3   OH222538   6.041   0.494   3.369  0.0837  0.0470  0.1903
 7526TIP3    H122539   6.043   0.492   3.465  0.2821  1.8815  0.2368
 7526TIP3    H222540   5.948   0.499   3.347  0.0059 -0.9564  0.2572
 7527TIP3   OH222541   3.605   7.066   5.610 -0.0971  0.6297 -0.3962
 7527TIP3    H122542   3.558   7.132   5.661 -0.0652  0.8621 -0.6666
 7527TIP3    H222543   3.537   7.007   5.579 -0.0109 -0.1007  0.7694
 7528TIP3   OH222544   5.489   6.317   3.313  0.1748 -1.1417  0.6553
 7528TIP3    H122545   5.428   6.290   3.382 -0.9708  0.3176  0.2457
 7528TIP3    H222546   5.498   6.412   3.325  0.9938 -1.0805 -0.3941
 7529TIP3   OH222547   4.398   6.561   2.386 -0.4857  0.9025 -0.0255
 7529TIP3    H122548   4.421   6.534   2.475  0.3031  1.0983 -0.1692
 7529TIP3    H222549   4.333   6.496   2.358  0.1086  0.1706  0.2719
 7530TIP3   OH222550   3.924   5.568   3.977 -0.2641  0.3663  0.4176
 7530TIP3    H122551   3.935   5.571   4.072  2.2595  1.2246  0.1574
 7530TIP3    H222552   3.977   5.642   3.945  0.2925 -0.9130 -1.7288
 7531TIP3   OH222553   4.443   4.980   5.383  0.4622  0.3102 -0.5024
 7531TIP3    H122554   4.448   4.889   5.354 -0.7145  0.1539 -0.2360
 7531TIP3    H222555   4.386   4.978   5.460  0.2741  1.3027 -0.6076
 7532TIP3   OH222556   2.417   6.451   1.863  0.5021 -0.1648  0.0429
 7532TIP3    H122557   2.401   6.544   1.846  0.9411  0.5042  2.9578
 7532TIP3    H222558   2.335   6.419   1.900  0.1336 -1.1304 -1.5599
 7533TIP3   OH222559   3.437   6.258   2.360 -0.1082 -0.7262  0.1871
 7533TIP3    H122560   3.348   6.291   2.376  0.1247  0.6874 -1.2806
 7533TIP3    H222561   3.427   6.199   2.286  0.3261  0.1635 -0.5812
 7534TIP3   OH222562   4.619   6.728   2.696  0.0858 -0.4632 -0.1170
 7534TIP3    H122563   4.674   6.764   2.626 -0.8568 -1.0243 -1.1529
 7534TIP3    H222564   4.632   6.634   2.691  1.8077 -0.4066  1.9835
 7535TIP3   OH222565   4.392   5.233   3.458  0.1447  0.6702 -0.1119
 7535TIP3    H122566   4.315   5.219   3.513  0.2741  0.1449 -0.0636
 7535TIP3    H222567   4.416   5.145   3.427  0.3272  0.9086 -0.6633
 7536TIP3   OH222568   5.077   7.101   1.956  0.5842 -0.6225 -0.3669
 7536TIP3    H122569   5.028   7.180   1.982 -2.5993 -2.3773 -0.7593
 7536TIP3    H222570   5.081   7.107   1.861  0.4397 -0.8628 -0.3877
 7537TIP3   OH222571   5.819   4.229   5.365 -0.0474  0.5750 -0.3772
 7537TIP3    H122572   5.794   4.163   5.429 -0.9311  0.2832 -1.0100
 7537TIP3    H222573   5.770   4.307   5.389  1.4971  1.2213  0.7657
 7538TIP3   OH222574   3.546   5.890   4.833 -0.5951  0.3787 -0.2279
 7538TIP3    H122575   3.596   5.898   4.751 -1.7285 -0.1381 -0.9805
 7538TIP3    H222576   3.576   5.807   4.871  0.9789  1.3125  0.6113
 7539TIP3   OH222577   2.317   6.182   3.726 -0.2512 -0.6799  0.2023
 7539TIP3    H122578   2.319   6.186   3.631 -1.5163  0.9998  0.2147
 7539TIP3    H222579   2.342   6.092   3.748  1.8831 -0.5589 -1.6360
 7540TIP3   OH222580   2.980   6.099   5.282 -0.6935  0.3634 -0.3313
 7540TIP3    H122581   3.014   6.167   5.340 -0.3607 -0.1351  0.0641
 7540TIP3    H222582   3.052   6.083   5.221 -0.7897  0.3982 -0.4527
 7541TIP3   OH222583   2.190   5.508   3.886  0.3751 -0.9960 -0.1553
 7541TIP3    H122584   2.132   5.564   3.833  0.5549 -1.2778 -0.6519
 7541TIP3    H222585   2.256   5.568   3.919  0.5290 -0.8942 -0.6330
 7542TIP3   OH222586   4.988   2.869   1.477  0.0534  0.5622 -0.2089
 7542TIP3    H122587   4.925   2.868   1.405  1.0340  0.0919 -1.0748
 7542TIP3    H222588   5.072   2.884   1.435  0.6476  0.1829  0.8338
 7543TIP3   OH222589   5.028   5.898   3.716 -0.2961 -0.1345 -0.1042
 7543TIP3    H122590   4.990   5.811   3.711  1.7877 -0.9869 -1.7197
 7543TIP3    H222591   5.078   5.899   3.798 -2.0796  0.3101  1.0068
 7544TIP3   OH222592   4.959   5.989   2.770  0.0053  0.4222 -1.0836
 7544TIP3    H122593   4.887   6.001   2.707  1.3099  1.4962 -2.4026
 7544TIP3    H222594   4.949   6.061   2.831 -0.0602  0.5397 -1.2323
 7545TIP3   OH222595   6.627   0.098   4.774  0.5942  0.0883 -0.3763
 7545TIP3    H122596   6.630   0.140   4.688 -2.6110 -0.0639 -0.6473
 7545TIP3    H222597   6.585   0.013   4.757  1.5502 -0.6924  1.0786
 7546TIP3   OH222598   4.178   3.740   1.879 -0.4399 -0.1402 -0.2460
 7546TIP3    H122599   4.212   3.697   1.958  1.0003  0.8538 -0.3086
 7546TIP3    H222600   4.105   3.685   1.852 -0.5286 -0.8649  1.4008
 7547TIP3   OH222601   2.114   0.545   2.457 -0.0142 -0.3807  0.4849
 7547TIP3    H122602   2.057   0.622   2.457  1.0762  0.4402  0.3023
 7547TIP3    H222603   2.072   0.484   2.396  0.4484  1.1019 -1.3900
 7548TIP3   OH222604  -0.014   0.109   3.659  0.8083  0.1007  0.4376
 7548TIP3    H122605   0.036   0.042   3.706 -1.0293 -0.4547  1.6329
 7548TIP3    H222606  -0.015   0.184   3.719  0.6855  0.3107  0.1742
 7549TIP3   OH222607   6.709   0.610   2.200 -0.0297  0.5968 -0.0820
 7549TIP3    H122608   6.631   0.643   2.244  1.4444  0.9759  2.3753
 7549TIP3    H222609   6.711   0.517   2.221 -0.0177  0.5086 -0.4690
 7550TIP3   OH222610   5.484   6.317   4.305 -0.4744 -0.8541  0.4283
 7550TIP3    H122611   5.489   6.269   4.222  1.9313  1.5091 -0.8526
 7550TIP3    H222612   5.561   6.288   4.354 -0.0621  0.2550  0.4432
 7551TIP3   OH222613   1.731   6.797   2.931  0.2884  0.2123 -0.0742
 7551TIP3    H122614   1.722   6.885   2.968  1.2008 -0.0890  0.8998
 7551TIP3    H222615   1.670   6.743   2.981  0.0695  0.2021 -0.3538
 7552TIP3   OH222616   3.197   6.744   4.715  0.2661 -0.3496  0.2729
 7552TIP3    H122617   3.180   6.676   4.780  1.4273 -3.1531 -2.2588
 7552TIP3    H222618   3.290   6.737   4.695 -0.0862  0.3276 -1.8070
 7553TIP3   OH222619   0.254   5.410   3.475  0.2527 -0.5649 -0.1262
 7553TIP3    H122620   0.288   5.447   3.393 -0.3783  1.9216  0.6832
 7553TIP3    H222621   0.159   5.421   3.469  0.2053 -0.2599  0.9616
 7554TIP3   OH222622   2.385   6.138   4.014  0.1043 -0.3021  0.5611
 7554TIP3    H122623   2.413   6.051   3.987 -0.5406 -0.2205 -0.4119
 7554TIP3    H222624   2.353   6.179   3.933 -0.6388  0.4313  1.2160
 7555TIP3   OH222625   7.206   0.978   5.484  0.5253 -0.1779  0.0429
 7555TIP3    H122626   7.239   0.918   5.552  0.4276 -0.8413 -0.4851
 7555TIP3    H222627   7.127   1.016   5.523 -0.7056 -2.1360 -0.4844
 7556TIP3   OH222628   3.614   6.516   4.853  0.3526 -0.3578 -0.3464
 7556TIP3    H122629   3.605   6.559   4.938  0.0307 -2.0454  0.4858
 7556TIP3    H222630   3.558   6.439   4.858  1.4693 -1.2826 -1.5612
 7557TIP3   OH222631   6.575   6.093   3.819 -0.1057  0.2722 -0.5853
 7557TIP3    H122632   6.496   6.139   3.792 -0.3548 -0.3490 -0.9262
 7557TIP3    H222633   6.559   6.070   3.910  0.7839  2.4693  0.1602
 7558TIP3   OH222634   5.968   6.385   4.431  0.1755 -0.0009  0.4014
 7558TIP3    H122635   6.009   6.449   4.489  0.5369  0.1422 -0.0065
 7558TIP3    H222636   5.884   6.366   4.472 -0.2267  1.2333  0.1866
 7559TIP3   OH222637   5.998   0.773   4.697  0.4952 -0.3384  0.0937
 7559TIP3    H122638   5.946   0.750   4.620  0.0889 -0.8682  0.5226
 7559TIP3    H222639   5.994   0.868   4.702 -1.0056 -0.4135  0.5111
 7560TIP3   OH222640   4.895   0.303   3.531 -0.2902 -0.4577 -0.4990
 7560TIP3    H122641   4.936   0.383   3.564  1.4154 -1.8390  0.8648
 7560TIP3    H222642   4.945   0.280   3.452 -1.2296  0.2001 -1.2885
 7561TIP3   OH222643   5.610   6.477   5.323 -0.1478 -0.4796  0.1693
 7561TIP3    H122644   5.647   6.389   5.322 -1.5450 -1.0684 -1.1070
 7561TIP3    H222645   5.576   6.490   5.235  2.2432  2.3256 -0.4343
 7562TIP3   OH222646   3.150   6.278   2.405  0.0508  0.4537  0.2659
 7562TIP3    H122647   3.086   6.345   2.431 -1.4928  0.0748 -2.3989
 7562TIP3    H222648   3.135   6.265   2.311  3.3515 -0.4306 -0.2130
 7563TIP3   OH222649   3.578   5.489   3.613  0.2582  0.3969  0.3271
 7563TIP3    H122650   3.551   5.400   3.634  0.4838  0.7478  2.1710
 7563TIP3    H222651   3.670   5.494   3.638  0.3324  1.0654 -0.0489
 7564TIP3   OH222652   5.950   6.036   4.317  0.4208  0.1961  0.5486
 7564TIP3    H122653   6.005   5.959   4.329  1.1877  0.5752 -0.5028
 7564TIP3    H222654   5.976   6.072   4.232 -2.1359 -0.1780 -0.4374
 7565TIP3   OH222655   4.524   0.676   2.040  0.8600 -0.2654  0.2799
 7565TIP3    H122656   4.516   0.736   1.965 -0.1168 -2.2856 -1.2775
 7565TIP3    H222657   4.612   0.692   2.074  0.0037  3.2922  1.0225
 7566TIP3   OH222658   3.204   6.105   2.627 -0.3645 -0.1988 -0.1875
 7566TIP3    H122659   3.277   6.046   2.614 -0.1440 -0.0648  0.4444
 7566TIP3    H222660   3.194   6.149   2.543  0.0047 -0.5267 -0.4041
 7567TIP3   OH222661   6.384   7.283   4.917  0.4876 -0.6132 -0.2757
 7567TIP3    H122662   6.330   7.226   4.973 -0.9294  0.3642 -0.6032
 7567TIP3    H222663   6.415   7.226   4.847  1.9800 -1.7677  1.2880
 7568TIP3   OH222664   6.639   0.451   3.487 -0.2950  0.1977  0.1950
 7568TIP3    H122665   6.608   0.444   3.578 -1.0229 -2.1411 -0.1973
 7568TIP3    H222666   6.560   0.475   3.437  0.1044  1.4826  0.1732
 7569TIP3   OH222667   6.033   1.733   2.178  0.5860 -0.0788 -0.0969
 7569TIP3    H122668   6.021   1.823   2.149 -0.9362 -0.6203 -1.2311
 7569TIP3    H222669   6.038   1.738   2.274 -0.5158  1.0987 -0.0975
 7570TIP3   OH222670   5.667   0.347   3.893 -0.2964  0.1360  0.7105
 7570TIP3    H122671   5.739   0.325   3.835  1.3773  1.3599  2.2842
 7570TIP3    H222672   5.677   0.288   3.968 -3.3881 -2.5792 -0.8648
 7571TIP3   OH222673   7.245   0.417   3.945  0.0226 -0.2266 -0.5236
 7571TIP3    H122674   7.162   0.381   3.914  0.4164 -2.3074  0.7708
 7571TIP3    H222675   7.284   0.458   3.868 -2.0269  0.4627 -1.2297
 7572TIP3   OH222676   4.053   6.974   4.685  0.4586  0.4208 -0.2025
 7572TIP3    H122677   3.972   6.943   4.645  0.0312  1.8908 -0.4716
 7572TIP3    H222678   4.109   6.896   4.688 -1.0906 -0.6827  0.3365
 7573TIP3   OH222679   6.310   6.583   4.285 -0.0585 -0.3450  0.2204
 7573TIP3    H122680   6.378   6.620   4.229 -0.9579 -0.2285 -0.8165
 7573TIP3    H222681   6.254   6.657   4.307 -0.6777 -0.6879 -0.1517
 7574TIP3   OH222682   6.869   0.720   6.178  0.4324 -0.1367 -0.7349
 7574TIP3    H122683   6.883   0.792   6.240  1.2726 -1.8488  1.1472
 7574TIP3    H222684   6.926   0.739   6.104 -0.1291  1.6548 -0.7144
 7575TIP3   OH222685   4.800   5.383   4.418  0.3055 -0.1955 -0.1322
 7575TIP3    H122686   4.854   5.318   4.462  0.1518 -0.2607 -0.0389
 7575TIP3    H222687   4.825   5.466   4.457  1.5738 -0.0160 -1.2966
 7576TIP3   OH222688   4.533   5.746   4.248  0.1149 -0.3962  0.3749
 7576TIP3    H122689   4.542   5.703   4.334  1.3456  0.3853  0.6402
 7576TIP3    H222690   4.619   5.736   4.207  0.2594  1.3648  0.2310
 7577TIP3   OH222691   6.679   0.194   3.890 -0.3152 -0.4767  0.4672
 7577TIP3    H122692   6.733   0.156   3.821 -0.5444 -0.3214  0.2045
 7577TIP3    H222693   6.742   0.217   3.959 -0.0019  0.0276  0.0153
 7578TIP3   OH222694   7.248   0.427   2.797 -0.4815 -0.8875 -0.3108
 7578TIP3    H122695   7.324   0.388   2.753 -1.9524 -1.7881 -2.1156
 7578TIP3    H222696   7.180   0.360   2.790 -2.0172  0.6598 -0.4148
 7579TIP3   OH222697   4.742   6.489   4.589 -0.3774 -0.4238 -0.3415
 7579TIP3    H122698   4.756   6.414   4.647 -0.7424 -0.1121  0.1581
 7579TIP3    H222699   4.830   6.517   4.564 -0.0583  1.2274  2.4051
 7580TIP3   OH222700   5.572   7.279   3.484  0.0710 -0.0550  0.6031
 7580TIP3    H122701   5.498   7.221   3.474 -1.7962  2.2203  0.7722
 7580TIP3    H222702   5.540   7.365   3.456  3.7905  0.2331 -3.3178
 7581TIP3   OH222703   5.249   6.432   4.036 -0.5848  0.4942  0.5228
 7581TIP3    H122704   5.271   6.508   4.090  0.3466  0.6314 -0.0384
 7581TIP3    H222705   5.235   6.469   3.948 -1.6797  0.2200  0.5699
 7582TIP3   OH222706   2.835   5.145   1.804 -0.0574 -0.3824 -0.1589
 7582TIP3    H122707   2.772   5.125   1.872  1.1927 -1.0953  0.8118
 7582TIP3    H222708   2.855   5.238   1.816  1.6488 -0.9513  1.7667
 7583TIP3   OH222709   4.431   6.998   5.071 -0.1134 -0.3669  0.0696
 7583TIP3    H122710   4.415   7.093   5.068 -1.0673 -0.4859  1.0558
 7583TIP3    H222711   4.392   6.970   5.154 -2.9946 -2.1997 -1.8282
 7584TIP3   OH222712   4.349   6.815   2.486 -0.2136 -0.1909 -0.3187
 7584TIP3    H122713   4.372   6.780   2.572 -2.6024 -2.3817 -0.4915
 7584TIP3    H222714   4.374   6.746   2.424 -1.1954  0.1309 -1.0938
 7585TIP3   OH222715   4.351   5.936   5.527 -0.3853  0.6399 -0.6759
 7585TIP3    H122716   4.401   5.855   5.535  1.0420  1.3227 -2.1752
 7585TIP3    H222717   4.298   5.923   5.448 -0.2781  1.0780 -0.8228
 7586TIP3   OH222718   3.553   5.252   4.167  0.4712 -0.1960  0.0394
 7586TIP3    H122719   3.548   5.222   4.258 -0.5113  1.0731  0.4345
 7586TIP3    H222720   3.522   5.343   4.171  2.2076  0.4721 -1.2806
 7587TIP3   OH222721   2.124   7.099   5.327  0.5921  0.1066  0.4880
 7587TIP3    H122722   2.080   7.137   5.251  0.4854  0.3277  0.6604
 7587TIP3    H222723   2.204   7.059   5.291  0.8886  0.8054  0.3606
 7588TIP3   OH222724   3.837   6.698   2.518  0.8264  0.4798  0.1123
 7588TIP3    H122725   3.790   6.619   2.546 -0.3157  0.5947 -1.4480
 7588TIP3    H222726   3.929   6.672   2.518  0.3630 -1.2406 -1.5872
 7589TIP3   OH222727   4.905   5.877   4.269 -0.1815  0.6038 -0.1439
 7589TIP3    H122728   4.858   5.959   4.251 -0.9824  0.2873  0.4574
 7589TIP3    H222729   4.885   5.821   4.194 -3.3291 -0.6352  1.5229
 7590TIP3   OH222730   3.946   6.351   2.679  0.0287  0.9849  0.6112
 7590TIP3    H122731   3.938   6.257   2.658 -0.8211  0.7208  2.0505
 7590TIP3    H222732   4.039   6.370   2.669  0.1769  0.0272  0.1114
 7591TIP3   OH222733   5.011   0.211   5.100 -0.3963 -0.7528 -0.6917
 7591TIP3    H122734   4.979   0.231   5.012  2.0829 -0.4455 -1.5755
 7591TIP3    H222735   5.093   0.164   5.086  1.5439  1.8319  1.4304
 7592TIP3   OH222736   6.389   5.275   4.635 -0.0911  0.2707 -0.1163
 7592TIP3    H122737   6.303   5.315   4.622 -1.4801 -2.6103 -0.2150
 7592TIP3    H222738   6.418   5.308   4.720 -1.1812  1.4396 -0.1772
 7593TIP3   OH222739   6.484   5.535   4.539 -0.0007 -0.6475 -0.1911
 7593TIP3    H122740   6.460   5.444   4.556 -0.0297 -0.1813  2.4056
 7593TIP3    H222741   6.577   5.532   4.516  0.1598 -1.2612  0.5490
 7594TIP3   OH222742   6.512   1.138   3.459  0.1339  0.0111 -0.0242
 7594TIP3    H122743   6.508   1.209   3.394 -0.6165  0.2154  0.2379
 7594TIP3    H222744   6.578   1.168   3.521  1.0413 -0.3019 -0.8216
 7595TIP3   OH222745   3.960   6.566   6.323 -0.0269  0.0367 -0.0202
 7595TIP3    H122746   3.963   6.657   6.295  1.0461  0.6923  2.1139
 7595TIP3    H222747   4.052   6.541   6.332 -0.3140 -1.2757 -0.6004
 7596TIP3   OH222748   5.500   0.742   5.081  0.1117 -0.4017 -0.2917
 7596TIP3    H122749   5.452   0.817   5.117 -0.6692 -0.3841 -1.3417
 7596TIP3    H222750   5.592   0.769   5.081 -0.3340  1.2514 -2.3055
 7597TIP3   OH222751   3.397   6.596   3.919  0.0879 -0.1040  0.5493
 7597TIP3    H122752   3.327   6.532   3.911  0.5927 -0.3956 -2.0611
 7597TIP3    H222753   3.362   6.675   3.878  1.0965 -0.1224 -0.3729
 7598TIP3   OH222754   3.679   0.908   5.569  0.5267  0.7808  0.0948
 7598TIP3    H122755   3.685   0.994   5.526 -0.0710  0.5357 -0.4813
 7598TIP3    H222756   3.641   0.927   5.654 -0.5915  0.9624 -0.4393
 7599TIP3   OH222757   3.803   6.173   3.532  0.6011  0.8359 -0.5034
 7599TIP3    H122758   3.744   6.188   3.606  0.7546  1.0020 -0.4143
 7599TIP3    H222759   3.852   6.094   3.556 -0.4042  0.0297 -1.0976
 7600TIP3   OH222760   1.517   6.536   2.611  0.2769  0.2572 -0.8543
 7600TIP3    H122761   1.554   6.621   2.588  2.3106 -0.1984  0.5878
 7600TIP3    H222762   1.455   6.555   2.681  0.9172  0.5281 -0.3584
 7601TIP3   OH222763   5.665   6.134   3.415  0.2159  0.1449  0.6681
 7601TIP3    H122764   5.610   6.129   3.494  1.0304 -1.6790  1.1517
 7601TIP3    H222765   5.619   6.196   3.358 -2.0303 -0.8561  1.3089
 7602TIP3   OH222766   6.033   6.789   2.037  0.5968  0.2136 -0.1675
 7602TIP3    H122767   6.063   6.860   1.981  1.3037 -0.7364 -1.0177
 7602TIP3    H222768   6.057   6.816   2.125  2.3117  0.3279 -0.6393
 7603TIP3   OH222769   3.273   6.818   3.760 -0.1218  0.3303 -0.3592
 7603TIP3    H122770   3.246   6.769   3.683  0.3863  1.3509 -1.1950
 7603TIP3    H222771   3.197   6.871   3.784  1.1380  3.4100 -2.8759
 7604TIP3   OH222772   5.200   6.021   3.085  0.0423 -0.2580  0.1063
 7604TIP3    H122773   5.245   6.099   3.054 -0.6225 -0.0819 -0.4259
 7604TIP3    H222774   5.201   5.961   3.011 -0.1138 -0.4617  0.2657
 7605TIP3   OH222775   3.597   7.085   4.010  0.5670 -0.0142 -0.1434
 7605TIP3    H122776   3.573   6.994   4.021  2.0160 -0.3452  0.4067
 7605TIP3    H222777   3.637   7.110   4.093  0.8478  0.9046 -0.5439
 7606TIP3   OH222778   5.543   6.404   3.634 -0.1328 -0.0275  0.2392
 7606TIP3    H122779   5.528   6.394   3.728 -0.3265  0.0321  0.2157
 7606TIP3    H222780   5.482   6.342   3.593 -0.3207  0.2194  0.1421
 7607TIP3   OH222781   4.287   1.156   5.314  0.0022  0.0668 -0.2576
 7607TIP3    H122782   4.358   1.196   5.364  1.4128 -2.2406 -0.3479
 7607TIP3    H222783   4.254   1.086   5.370  0.2409 -1.2207 -1.6805
 7608TIP3   OH222784   6.860   0.370   5.958 -0.2794  0.3150  0.3470
 7608TIP3    H122785   6.902   0.443   6.004 -2.4913  2.1871 -0.5099
 7608TIP3    H222786   6.859   0.397   5.866 -0.8988 -0.8963 -0.0050
 7609TIP3   OH222787   6.432   0.620   4.538  0.0960  0.2015  0.6854
 7609TIP3    H122788   6.361   0.604   4.600 -0.2158  1.0551  0.5562
 7609TIP3    H222789   6.500   0.665   4.589  0.8181 -1.1973  0.9643
 7610TIP3   OH222790   5.031   5.148   3.177 -0.4548  0.1711  0.2327
 7610TIP3    H122791   5.088   5.222   3.196  0.1176  0.1667 -1.4242
 7610TIP3    H222792   5.090   5.075   3.160 -1.0176 -1.1240  3.4289
 7611TIP3   OH222793   5.082   0.565   3.200 -0.1620 -0.4841  0.6853
 7611TIP3    H122794   5.039   0.591   3.119 -0.2164  1.1850  1.2298
 7611TIP3    H222795   5.176   0.579   3.183 -0.1908  0.1142  0.9686
 7612TIP3   OH222796   5.343   5.386   3.572 -0.6712 -0.3349 -0.3882
 7612TIP3    H122797   5.267   5.421   3.526 -1.8325 -1.4442  0.6618
 7612TIP3    H222798   5.378   5.319   3.513 -2.4019 -2.0423  0.4887
 7613TIP3   OH222799   1.518   0.330   2.746 -0.5332  0.2126  0.4961
 7613TIP3    H122800   1.572   0.332   2.825  0.0869  0.5431  0.0666
 7613TIP3    H222801   1.506   0.422   2.723  0.5520  0.0811 -0.6479
 7614TIP3   OH222802   4.596   5.025   3.123  0.1089  0.4449 -0.6214
 7614TIP3    H122803   4.660   5.015   3.053  1.1086 -2.7903  0.6558
 7614TIP3    H222804   4.631   5.094   3.179  1.4454  0.1110 -1.0406
 7615TIP3   OH222805   3.208   5.616   4.542  0.6030 -0.5661 -0.4233
 7615TIP3    H122806   3.185   5.645   4.630  0.9001  0.5756 -0.7193
 7615TIP3    H222807   3.128   5.626   4.491  0.9256  0.5505 -0.7265
 7616TIP3   OH222808   5.204   6.169   4.117 -0.1524 -0.5608  0.3589
 7616TIP3    H122809   5.202   6.255   4.076 -2.8407 -0.4222  0.7129
 7616TIP3    H222810   5.207   6.187   4.211 -1.5970 -0.8487  0.4617
 7617TIP3   OH222811   5.098   1.490   6.002 -0.4152 -0.1589  0.4201
 7617TIP3    H122812   5.122   1.530   5.919 -1.8728  2.2169  1.0717
 7617TIP3    H222813   5.024   1.433   5.981 -1.5894  1.3808  0.2197
 7618TIP3   OH222814   7.693   0.599   3.672  0.2821 -0.0433  0.6128
 7618TIP3    H122815   7.693   0.576   3.579  2.8562 -0.1773  0.6026
 7618TIP3    H222816   7.733   0.685   3.676  0.3214 -0.1000  1.6030
 7619TIP3   OH222817   1.764   2.353   0.391  0.0466  0.0693 -0.4287
 7619TIP3    H122818   1.772   2.376   0.298 -0.6229  1.4617 -0.1646
 7619TIP3    H222819   1.708   2.276   0.393  0.2788 -0.1186 -1.2058
 7620TIP3   OH222820   0.292   6.466   3.799 -0.2927  0.3850 -0.2244
 7620TIP3    H122821   0.357   6.476   3.729 -0.2781  1.6548 -0.0428
 7620TIP3    H222822   0.227   6.534   3.781 -0.4392  0.5360  0.8435
 7621TIP3   OH222823   6.062   1.910   4.769  0.0358  0.3185 -0.1428
 7621TIP3    H122824   6.100   1.823   4.762  0.9548  0.7324 -0.4044
 7621TIP3    H222825   6.062   1.929   4.863 -1.2837 -0.4360  0.0263
 7622TIP3   OH222826   4.954   6.091   2.340  0.0721  0.3493  0.1904
 7622TIP3    H122827   4.928   6.048   2.421  0.1537  0.4484  0.2698
 7622TIP3    H222828   5.032   6.142   2.364 -0.5326  1.2343  0.3073
 7623TIP3   OH222829   1.034   4.436   2.818 -0.0639 -0.4810 -0.4000
 7623TIP3    H122830   1.070   4.347   2.824  0.5887 -0.2485 -0.7872
 7623TIP3    H222831   1.106   4.493   2.843 -1.1426 -0.1345  2.0998
 7624TIP3   OH222832   4.277   6.465   3.608  0.3484  0.1392  0.2162
 7624TIP3    H122833   4.284   6.545   3.662 -1.1427  0.1321  0.4260
 7624TIP3    H222834   4.303   6.395   3.667 -0.3959  0.2387  0.6741
 7625TIP3   OH222835   2.134   5.245   4.563  0.0486  0.3302  0.1844
 7625TIP3    H122836   2.125   5.338   4.585  1.0110  0.1877  1.2193
 7625TIP3    H222837   2.229   5.233   4.554 -0.0510 -0.6609  0.5114
 7626TIP3   OH222838   2.088   6.073   4.288 -0.3123 -0.2470 -0.1668
 7626TIP3    H122839   2.085   6.001   4.351 -1.9959 -0.4917 -0.5006
 7626TIP3    H222840   2.122   6.033   4.208 -0.5681 -0.5135 -0.1441
 7627TIP3   OH222841   2.578   6.508   3.924 -0.2518 -0.2542 -0.1752
 7627TIP3    H122842   2.556   6.484   4.014  1.4422 -0.9235  0.0780
 7627TIP3    H222843   2.537   6.594   3.911 -1.9953 -0.9468  0.6345
 7628TIP3   OH222844   2.370   5.922   3.820 -0.1818 -0.4060 -0.1162
 7628TIP3    H122845   2.394   5.844   3.871  0.0640 -0.2508  0.0098
 7628TIP3    H222846   2.333   5.888   3.739 -0.7831 -0.6586  0.2627
 7629TIP3   OH222847   3.242   5.637   4.096  0.1784 -0.2212 -0.4544
 7629TIP3    H122848   3.185   5.588   4.037 -0.5054  1.1213 -0.9351
 7629TIP3    H222849   3.262   5.718   4.048 -1.2388  1.3639  1.5424
 7630TIP3   OH222850   2.881   6.398   2.653  0.4606 -0.4275 -0.1355
 7630TIP3    H122851   2.926   6.474   2.616  0.6107 -0.1878  0.5338
 7630TIP3    H222852   2.938   6.368   2.724 -0.0197 -0.6387  0.1647
 7631TIP3   OH222853   3.318   7.125   5.376  0.1793  0.5064  0.4181
 7631TIP3    H122854   3.312   7.218   5.401 -0.8455  0.7501 -0.6680
 7631TIP3    H222855   3.360   7.127   5.290 -0.3278  0.0009  0.1590
 7632TIP3   OH222856   5.058   5.653   3.542 -0.0391  0.6732 -0.0119
 7632TIP3    H122857   4.975   5.630   3.501  0.4761 -2.1964  0.4804
 7632TIP3    H222858   5.092   5.726   3.490 -2.9460  2.0174 -0.0806
 7633TIP3   OH222859   5.834   6.482   4.076 -0.3961  0.8350  0.2314
 7633TIP3    H122860   5.912   6.431   4.099 -1.5687 -1.4524 -0.6914
 7633TIP3    H222861   5.868   6.567   4.049  1.6713  0.3594  1.2367
 7634TIP3   OH222862   2.203   4.855   2.007  0.6781  0.0956  0.2748
 7634TIP3    H122863   2.282   4.909   2.009  1.7860 -1.4197 -1.3213
 7634TIP3    H222864   2.228   4.775   2.053  0.4451 -0.8909 -1.3077
 7635TIP3   OH222865   3.625   6.864   2.540 -0.2652  0.3269 -0.1050
 7635TIP3    H122866   3.705   6.816   2.518 -1.0859 -0.4421 -1.5243
 7635TIP3    H222867   3.619   6.931   2.472 -1.7409 -0.7521 -1.0813
 7636TIP3   OH222868   3.615   6.106   3.317  0.1512 -0.2634  0.2785
 7636TIP3    H122869   3.677   6.121   3.389  2.6741 -2.0300 -1.4149
 7636TIP3    H222870   3.648   6.161   3.245  0.9760 -2.6901 -1.2719
 7637TIP3   OH222871   7.362   0.049   2.593  0.1648 -0.3636 -0.2734
 7637TIP3    H122872   7.418   0.034   2.517 -0.0493  0.2517 -0.5562
 7637TIP3    H222873   7.393   0.133   2.628 -2.5938  1.5463 -2.2411
 7638TIP3   OH222874   5.663   0.431   3.519  0.1590  0.2518 -0.1395
 7638TIP3    H122875   5.618   0.350   3.494 -1.2766  1.0114 -0.1040
 7638TIP3    H222876   5.676   0.478   3.437  1.3523 -0.1813 -0.2082
 7639TIP3   OH222877   4.585   5.673   4.493  0.2950 -0.2750  0.1445
 7639TIP3    H122878   4.680   5.663   4.501  0.4020  0.9507  0.4631
 7639TIP3    H222879   4.567   5.761   4.526 -1.0416 -0.7766  0.8121
 7640TIP3   OH222880   2.051   6.285   4.495  0.3541 -0.3335  0.3115
 7640TIP3    H122881   2.075   6.211   4.439 -0.6122 -0.8804  0.6022
 7640TIP3    H222882   1.959   6.269   4.516  1.0243 -0.7854  3.0683
 7641TIP3   OH222883   0.396   1.850   2.655  0.3996  0.0191 -0.2530
 7641TIP3    H122884   0.306   1.859   2.623 -0.1731 -0.7961  1.0794
 7641TIP3    H222885   0.412   1.755   2.654  0.2481 -0.0612  2.1385
 7642TIP3   OH222886   2.534   4.870   4.487 -0.1787  0.3363  0.3967
 7642TIP3    H122887   2.449   4.868   4.443 -0.3379 -2.7826  0.7480
 7642TIP3    H222888   2.535   4.791   4.541  1.6471  1.9843  2.9291
 7643TIP3   OH222889   4.236   0.536   3.165  0.2945 -0.1506 -0.7410
 7643TIP3    H122890   4.154   0.507   3.125  0.8555 -2.7524 -0.0780
 7643TIP3    H222891   4.211   0.566   3.253 -0.0208 -0.4516 -0.7278
 7644TIP3   OH222892   0.762   5.588   0.647  0.2203 -0.4349  0.2793
 7644TIP3    H122893   0.677   5.571   0.688 -0.1197 -0.0700 -0.2592
 7644TIP3    H222894   0.762   5.532   0.569  0.0834  0.2491 -0.2181
 7645TIP3   OH222895   5.640   1.181   5.036 -0.0221 -0.0221 -0.1717
 7645TIP3    H122896   5.602   1.269   5.035 -0.7901 -0.3531 -1.0262
 7645TIP3    H222897   5.607   1.140   4.956  0.1527 -1.1653  0.3354
 7646TIP3   OH222898   4.469   7.197   0.122 -0.2892  0.3042  0.3994
 7646TIP3    H122899   4.536   7.154   0.174 -0.0368 -0.4771 -0.5430
 7646TIP3    H222900   4.386   7.156   0.149 -0.1266 -0.3064 -0.0084
 7647TIP3   OH222901   3.853   6.809   4.584  0.5778 -0.2413  0.3951
 7647TIP3    H122902   3.863   6.747   4.656 -0.7935 -0.8411  0.0838
 7647TIP3    H222903   3.786   6.770   4.528  3.0725 -0.7976 -2.3196
 7648TIP3   OH222904   5.232   6.779   3.868 -0.2919  0.5542 -0.4881
 7648TIP3    H122905   5.276   6.731   3.938  0.3889  1.5474 -0.2228
 7648TIP3    H222906   5.185   6.849   3.913 -0.6616  0.6065 -0.9482
 7649TIP3   OH222907   6.975   2.284   0.433 -0.5406 -0.0385  0.3233
 7649TIP3    H122908   6.988   2.260   0.341 -0.6521 -0.9870  0.5439
 7649TIP3    H222909   6.910   2.354   0.431 -0.1796  0.2844 -0.3507
 7650TIP3   OH222910   6.124   0.334   3.981 -0.4097  0.2792  0.1817
 7650TIP3    H122911   6.146   0.246   4.010  0.1247  0.2063 -0.4369
 7650TIP3    H222912   6.102   0.325   3.889 -0.1681  0.8187  0.0658
 7651TIP3   OH222913   3.193   6.644   3.577 -0.6847 -0.1025 -0.2163
 7651TIP3    H122914   3.231   6.577   3.521 -1.7214 -1.1338  0.2993
 7651TIP3    H222915   3.157   6.596   3.651 -0.5646  1.1227  0.6436
 7652TIP3   OH222916   3.409   6.993   3.316  0.0773  0.0434  0.2788
 7652TIP3    H122917   3.337   7.056   3.319  0.9638  1.1030 -0.3228
 7652TIP3    H222918   3.454   7.004   3.400  0.1688  0.1316  0.2179
 7653TIP3   OH222919   4.195   7.113   3.849 -0.1782 -0.1314 -0.1856
 7653TIP3    H122920   4.261   7.045   3.866 -1.1204 -0.6863  1.2742
 7653TIP3    H222921   4.112   7.067   3.852 -1.1879  1.7625  5.1074
 7654TIP3   OH222922   1.839   6.214   4.833  0.4049 -0.3970  0.2292
 7654TIP3    H122923   1.806   6.282   4.892  2.6694  1.0105 -0.0777
 7654TIP3    H222924   1.831   6.133   4.884 -1.3732  0.2218  0.9774
 7655TIP3   OH222925   3.476   7.251   2.856 -0.0673 -0.2864  0.4310
 7655TIP3    H122926   3.383   7.251   2.834 -0.0728 -1.7702  0.3606
 7655TIP3    H222927   3.490   7.331   2.906 -0.8666  1.2196 -1.6800
 7656TIP3   OH222928   5.974   0.747   4.250 -0.4871  0.1263 -0.3120
 7656TIP3    H122929   5.957   0.697   4.330 -2.6467 -1.2761 -1.5884
 7656TIP3    H222930   5.953   0.686   4.179  3.3723  0.6474 -2.0235
 7657TIP3   OH222931   4.443   5.970   2.079  0.0980 -0.0758  0.1673
 7657TIP3    H122932   4.409   5.884   2.055 -0.1510 -0.1127  0.6604
 7657TIP3    H222933   4.519   5.982   2.022  0.3426 -0.7725  0.3437
 7658TIP3   OH222934   6.587   6.379   4.258  0.0517 -0.2296  0.3942
 7658TIP3    H122935   6.538   6.324   4.319 -1.0672  1.0140  0.6313
 7658TIP3    H222936   6.571   6.339   4.172 -2.1233  0.6740  0.3541
 7659TIP3   OH222937   7.618   0.196   1.516  0.0480  0.0966 -0.0592
 7659TIP3    H122938   7.707   0.161   1.526 -0.0630 -0.2592 -0.3033
 7659TIP3    H222939   7.624   0.286   1.547  0.2151 -0.3000  1.0739
 7660TIP3   OH222940   4.646   6.838   5.080 -0.4558  0.2187  0.1801
 7660TIP3    H122941   4.670   6.853   5.171 -0.8949 -1.3281  0.5600
 7660TIP3    H222942   4.575   6.901   5.063  0.3135  1.2059  0.5899
 7661TIP3   OH222943   2.486   3.372   0.834 -0.2232  0.0745 -0.3161
 7661TIP3    H122944   2.497   3.450   0.889 -0.4701  1.3145 -2.0001
 7661TIP3    H222945   2.427   3.400   0.765  0.3056 -1.3993 -1.3756
 7662TIP3   OH222946   6.609   0.057   5.662 -0.0605 -0.7513  0.3816
 7662TIP3    H122947   6.647   0.045   5.749 -0.5287  1.1071  0.8767
 7662TIP3    H222948   6.650  -0.010   5.608  1.2497 -1.0603  1.7235
 7663TIP3   OH222949   5.549   1.493   5.351  0.1043 -0.4185  0.0232
 7663TIP3    H122950   5.643   1.480   5.336  0.0437 -0.5445 -0.2495
 7663TIP3    H222951   5.507   1.420   5.306 -0.1103 -0.5366  0.4076
 7664TIP3   OH222952   2.918   6.948   4.391 -0.3054  0.5461  0.1770
 7664TIP3    H122953   2.961   6.915   4.469 -0.3567 -0.1835 -0.0954
 7664TIP3    H222954   2.901   6.869   4.338  0.0551  1.0718 -0.7281
 7665TIP3   OH222955   2.947   7.079   4.777  0.0390  0.6915 -0.0941
 7665TIP3    H122956   3.017   7.037   4.827 -0.7654 -1.7635 -0.9450
 7665TIP3    H222957   2.919   7.012   4.715 -1.4805  2.4405 -1.3392
 7666TIP3   OH222958   3.759   4.567   3.960  0.1290  0.3672 -0.4595
 7666TIP3    H122959   3.736   4.483   3.999  0.6067  0.6494  0.4171
 7666TIP3    H222960   3.675   4.612   3.950 -0.3075 -0.7765 -2.2688
 7667TIP3   OH222961   3.193   6.741   5.368  0.2239  0.6794 -0.3926
 7667TIP3    H122962   3.125   6.763   5.432 -0.2971 -0.0119 -0.6966
 7667TIP3    H222963   3.272   6.733   5.421 -0.5943 -1.9643  0.5299
 7668TIP3   OH222964   0.041   1.619   2.299 -0.0088  0.0790 -0.6828
 7668TIP3    H122965   0.080   1.612   2.386  2.9900  0.0810 -1.9587
 7668TIP3    H222966   0.041   1.713   2.280 -0.3104  0.0488 -0.8359
 7669TIP3   OH222967   5.372   7.216   4.399  0.4092 -0.3359 -0.4787
 7669TIP3    H122968   5.385   7.229   4.493 -0.2298 -0.2071 -0.4084
 7669TIP3    H222969   5.437   7.272   4.358  0.7952 -0.5101 -0.1113
 7670TIP3   OH222970   3.328   7.304   4.412 -0.0265 -0.4044 -0.1585
 7670TIP3    H122971   3.407   7.294   4.464 -0.4705  0.3974  0.6855
 7670TIP3    H222972   3.256   7.280   4.470 -0.6138  1.5691 -0.0067
 7671TIP3   OH222973   4.699   3.195   4.949  0.0395  0.6099  0.1901
 7671TIP3    H122974   4.721   3.103   4.930 -2.0849  0.2557 -0.6971
 7671TIP3    H222975   4.695   3.236   4.862 -3.3729  0.4796  0.2149
 7672TIP3   OH222976   3.609   6.517   5.470 -0.0713  0.1328 -0.2041
 7672TIP3    H122977   3.628   6.457   5.543  0.0753  0.0409 -0.3174
 7672TIP3    H222978   3.613   6.604   5.510 -1.1957  0.0209  0.1557
 7673TIP3   OH222979   5.907   0.620   3.839  0.2763  0.1455 -0.2491
 7673TIP3    H122980   5.843   0.597   3.906 -0.3423  2.5183  0.0289
 7673TIP3    H222981   5.987   0.641   3.888  0.3085  0.3118 -0.3726
 7674TIP3   OH222982   1.949   5.768   4.069 -0.4002  0.0540 -0.1834
 7674TIP3    H122983   2.040   5.794   4.086  0.4533 -1.5197 -2.0998
 7674TIP3    H222984   1.934   5.694   4.128  0.2615 -0.9845 -1.2923
 7675TIP3   OH222985   5.824   2.439   3.307 -0.4743  0.1552 -0.0159
 7675TIP3    H122986   5.814   2.439   3.402 -1.9196 -0.4677 -0.1530
 7675TIP3    H222987   5.904   2.390   3.291  0.9339  2.0702  0.9720
 7676TIP3   OH222988   1.895   7.376   2.229 -0.2660 -0.0130 -0.2047
 7676TIP3    H122989   1.819   7.360   2.175  1.0241 -1.7983 -1.5634
 7676TIP3    H222990   1.880   7.325   2.309 -0.9588  0.4929 -0.0117
 7677TIP3   OH222991   7.678   0.785   4.008  0.4163 -0.6833 -0.0809
 7677TIP3    H122992   7.622   0.757   4.081 -0.4183 -0.1234 -0.4870
 7677TIP3    H222993   7.620   0.783   3.932  1.2092 -0.9923 -0.6737
 7678TIP3   OH222994   2.501   5.936   5.462  0.1210 -0.1723  0.1102
 7678TIP3    H122995   2.472   5.873   5.396  0.6587 -2.0918  1.6311
 7678TIP3    H222996   2.586   5.966   5.430 -0.3177  0.0756 -0.8327
 7679TIP3   OH222997   6.174   6.099   4.501 -0.1290  0.5407 -0.8861
 7679TIP3    H122998   6.151   6.006   4.497  1.5061  0.1291 -1.1179
 7679TIP3    H222999   6.101   6.144   4.458  0.0399 -0.8125 -2.6181
 7680TIP3   OH223000   5.857   5.919   4.628 -0.5380 -0.1123  0.5341
 7680TIP3    H123001   5.949   5.912   4.653 -0.0030  0.1982 -1.2828
 7680TIP3    H223002   5.831   6.007   4.655 -0.3368 -0.2297  1.1239
 7681TIP3   OH223003   5.575   0.884   3.708  0.4036  0.0927  0.3942
 7681TIP3    H123004   5.623   0.871   3.626 -0.1361  0.8370 -0.0385
 7681TIP3    H223005   5.594   0.805   3.759  0.4522 -0.5491 -0.5911
 7682TIP3   OH223006   6.936   0.148   2.195 -0.7323 -0.2854  0.4624
 7682TIP3    H123007   6.963   0.158   2.104  0.4891  1.3968  0.9859
 7682TIP3    H223008   6.939   0.054   2.211 -0.3541 -0.5386 -1.0481
 7683TIP3   OH223009   6.843   5.740   3.561  0.2993 -0.0604  0.0527
 7683TIP3    H123010   6.872   5.672   3.500 -0.3979 -0.6334  0.3533
 7683TIP3    H223011   6.755   5.762   3.533 -0.2796 -0.8053  1.2556
 7684TIP3   OH223012   5.599   5.902   1.236 -0.2392  0.4159 -0.1854
 7684TIP3    H123013   5.569   5.898   1.326  1.5974  0.4759  0.4379
 7684TIP3    H223014   5.576   5.816   1.200 -0.4715  0.1924  0.4903
 7685TIP3   OH223015   6.208   5.004   2.459 -0.3988 -0.0809  0.0419
 7685TIP3    H123016   6.161   4.943   2.402 -0.5634  0.2174 -0.1382
 7685TIP3    H223017   6.146   5.025   2.528 -0.0563 -0.7820  0.5806
 7686TIP3   OH223018   4.438   4.808   3.993 -0.0737 -0.0969 -0.2233
 7686TIP3    H123019   4.522   4.848   4.019  0.7790 -2.0313  0.0676
 7686TIP3    H223020   4.429   4.732   4.050 -1.8491 -0.1306 -0.5315
 7687TIP3   OH223021   2.630   5.081   4.827 -0.0622  0.4481 -0.1272
 7687TIP3    H123022   2.708   5.030   4.806  0.7516  1.9123 -0.7728
 7687TIP3    H223023   2.557   5.029   4.792  0.9406  0.8171 -2.9335
 7688TIP3   OH223024   5.611   5.457   4.374 -0.7501 -0.3707  0.4174
 7688TIP3    H123025   5.638   5.469   4.465 -1.4144 -0.7685  0.6657
 7688TIP3    H223026   5.640   5.537   4.330 -0.0782 -0.3473  0.8911
 7689TIP3   OH223027   0.705   4.956   3.254 -0.7933 -0.1390 -0.0824
 7689TIP3    H123028   0.675   4.917   3.336 -1.0670 -0.4742 -0.3433
 7689TIP3    H223029   0.694   4.887   3.189  2.5170 -1.0150  0.1845
 7690TIP3   OH223030   4.558   5.371   1.683 -0.0119  0.0559 -0.5117
 7690TIP3    H123031   4.536   5.398   1.594  0.1962  0.5842 -0.4066
 7690TIP3    H223032   4.557   5.453   1.733  3.2833  0.3029 -0.7424
 7691TIP3   OH223033   6.089   5.697   0.218 -0.5347 -0.0411 -0.2687
 7691TIP3    H123034   6.145   5.620   0.206 -1.6192 -0.7694 -0.7036
 7691TIP3    H223035   6.088   5.739   0.133  2.2366  1.9863  0.6240
 7692TIP3   OH223036   3.104   4.939   6.163  0.1219 -0.1827 -0.0697
 7692TIP3    H123037   3.099   4.893   6.246  1.5018 -1.8513 -0.8842
 7692TIP3    H223038   3.172   4.893   6.113 -0.7658  0.6995 -2.1758
 7693TIP3   OH223039   4.659   4.870   2.771  0.3548 -0.0241  0.8156
 7693TIP3    H123040   4.637   4.928   2.698  0.8382  0.7381  1.2723
 7693TIP3    H223041   4.731   4.914   2.816 -0.0504 -0.4054  1.8509
 7694TIP3   OH223042   3.732   7.222   5.429  0.0316  0.2352 -0.6386
 7694TIP3    H123043   3.745   7.304   5.476  2.6659  0.0473 -0.9757
 7694TIP3    H223044   3.690   7.164   5.494 -1.0778  1.5445 -0.1506
 7695TIP3   OH223045   6.346   5.914   4.110  0.2198 -0.4818  0.2226
 7695TIP3    H123046   6.382   5.835   4.152 -0.2052 -1.2327 -0.8182
 7695TIP3    H223047   6.253   5.895   4.100  0.2965 -0.2680 -0.9698
 7696TIP3   OH223048   6.691   0.589   2.689  0.8070 -0.3214  0.1678
 7696TIP3    H123049   6.753   0.517   2.700  0.8723 -0.5096 -1.3398
 7696TIP3    H223050   6.624   0.554   2.630  0.3583  0.5575  0.1511
 7697TIP3   OH223051   3.891   5.388   5.984 -0.1936 -0.0741  0.4178
 7697TIP3    H123052   3.911   5.428   6.069  4.0996 -0.3110 -0.3372
 7697TIP3    H223053   3.877   5.462   5.925 -1.2725  0.1255  0.9166
 7698TIP3   OH223054   4.213   5.757   4.984  0.2107 -0.4167 -0.7124
 7698TIP3    H123055   4.140   5.801   5.027  0.2649 -0.1074 -0.9379
 7698TIP3    H223056   4.179   5.670   4.962 -0.7760  0.4397 -2.7203
 7699TIP3   OH223057   5.249   6.122   4.792  0.1613  0.1002 -0.2222
 7699TIP3    H123058   5.228   6.124   4.885  0.0133  1.1602 -0.2687
 7699TIP3    H223059   5.343   6.140   4.787  0.4642 -1.4118 -0.2026
 7700TIP3   OH223060   6.398   5.935   2.502  0.0956  0.5705  0.1217
 7700TIP3    H123061   6.407   6.005   2.437 -3.0579 -0.4576 -1.5246
 7700TIP3    H223062   6.428   5.857   2.457 -0.6295  0.1109  0.4325
 7701TIP3   OH223063   3.041   6.698   3.043  0.4801  0.0239 -0.0836
 7701TIP3    H123064   3.130   6.675   3.071  0.6319 -1.2680 -1.5542
 7701TIP3    H223065   3.012   6.762   3.107  1.5366 -1.4080  1.8970
 7702TIP3   OH223066   4.840   0.927   3.448 -0.2885 -0.6642  0.3425
 7702TIP3    H123067   4.763   0.875   3.472  0.0150 -1.3649 -0.1773
 7702TIP3    H223068   4.907   0.861   3.429  0.8383 -0.0556  2.0665
 7703TIP3   OH223069   3.976   1.496   4.221 -0.1630  0.1507  0.5604
 7703TIP3    H123070   3.910   1.563   4.205  0.9446  0.8112 -1.3847
 7703TIP3    H223071   4.013   1.477   4.134  1.7349 -0.6791  1.5211
 7704TIP3   OH223072   7.219   0.769   4.831 -0.6925 -0.3791 -0.3215
 7704TIP3    H123073   7.289   0.747   4.769  0.1972  0.2698  0.4441
 7704TIP3    H223074   7.231   0.708   4.904  0.5967  1.3249  0.9273
 7705TIP3   OH223075   6.312   0.230   5.328  0.2292 -0.2571 -0.0317
 7705TIP3    H123076   6.254   0.245   5.403  0.5035 -0.6215  0.2593
 7705TIP3    H223077   6.260   0.180   5.266  0.9879 -2.8145  1.2942
 7706TIP3   OH223078   0.441   1.246   3.003  0.1078 -0.2319  0.4325
 7706TIP3    H123079   0.362   1.293   2.980 -0.5083 -0.7094  1.5366
 7706TIP3    H223080   0.484   1.301   3.069  0.9780  0.2905 -0.5553
 7707TIP3   OH223081   2.423   6.369   4.852 -0.1289 -0.6355 -0.3001
 7707TIP3    H123082   2.359   6.380   4.782 -0.1164  0.2400 -0.1738
 7707TIP3    H223083   2.374   6.329   4.924 -0.7876  0.9329  0.1558
 7708TIP3   OH223084   4.437   4.418   3.782  0.4161 -0.0165 -0.5346
 7708TIP3    H123085   4.372   4.474   3.739  0.9610 -0.4132 -1.9319
 7708TIP3    H223086   4.448   4.345   3.721  1.0967 -0.6888  0.3863
 7709TIP3   OH223087   6.493   1.749   3.240 -0.0676  0.4177  0.6013
 7709TIP3    H123088   6.541   1.672   3.269  0.0031  0.9562  1.9644
 7709TIP3    H223089   6.544   1.823   3.272 -0.3276  1.0216 -0.3747
 7710TIP3   OH223090   4.005   6.006   4.221  0.4028  0.4126 -0.3092
 7710TIP3    H123091   3.956   5.989   4.141 -1.3067 -2.3908  1.2223
 7710TIP3    H223092   4.096   5.988   4.198 -0.0723 -0.3420 -1.6582
 7711TIP3   OH223093   6.956   1.009   4.853 -0.5532  0.1359 -0.2049
 7711TIP3    H123094   7.036   0.963   4.830  0.1713  1.3379 -0.1259
 7711TIP3    H223095   6.986   1.090   4.895 -1.8036 -0.2562  1.5230
 7712TIP3   OH223096   6.374   0.264   5.807 -0.0809  0.0797 -0.2212
 7712TIP3    H123097   6.386   0.345   5.758  0.8808 -0.9336 -1.6829
 7712TIP3    H223098   6.459   0.221   5.803 -0.8216 -1.3936 -0.1791
 7713TIP3   OH223099   3.679   7.271   4.963 -0.1886 -0.0674  0.3005
 7713TIP3    H123100   3.659   7.352   4.917 -1.4485 -0.2125  0.5609
 7713TIP3    H223101   3.746   7.295   5.027  0.8835  0.3322 -0.9635
 7714TIP3   OH223102   5.518   1.015   5.272  0.7726  0.2792 -0.1525
 7714TIP3    H123103   5.538   1.094   5.223  1.5857  0.6749  0.8007
 7714TIP3    H223104   5.448   1.041   5.332  0.0277 -0.1096 -0.8419
 7715TIP3   OH223105   3.886   4.910   4.615 -0.2098 -0.2117 -0.2166
 7715TIP3    H123106   3.799   4.941   4.641  0.5509  0.1707  1.9395
 7715TIP3    H223107   3.872   4.867   4.531 -2.6906 -1.1173  0.6270
 7716TIP3   OH223108   7.374   2.328   2.882  0.0269 -0.3446 -0.1008
 7716TIP3    H123109   7.279   2.329   2.874  0.1258 -0.1365 -1.3097
 7716TIP3    H223110   7.406   2.302   2.796  1.0917  0.8968 -0.1131
 7717TIP3   OH223111   4.844   7.119   4.343  0.2726  0.5760 -0.0825
 7717TIP3    H123112   4.835   7.187   4.277  0.2881  2.3003  1.6270
 7717TIP3    H223113   4.928   7.137   4.385 -0.1408  0.0673  0.9983
 7718TIP3   OH223114   3.542   7.233   4.576  0.6503  0.1607  0.3879
 7718TIP3    H123115   3.520   7.141   4.587  0.2373  0.2753  0.5541
 7718TIP3    H223116   3.638   7.235   4.571  0.5831 -0.4328 -1.1977
 7719TIP3   OH223117   4.351   7.296   3.979 -0.5924 -0.1462 -0.3432
 7719TIP3    H123118   4.311   7.233   3.920 -0.7956 -0.9186  0.6231
 7719TIP3    H223119   4.345   7.257   4.065  1.3230  0.1754 -0.0374
 7720TIP3   OH223120   3.624   5.744   3.078 -0.0558 -0.3101  0.1899
 7720TIP3    H123121   3.701   5.696   3.110  0.2540  0.7722  1.0998
 7720TIP3    H223122   3.656   5.833   3.063 -1.3369  0.3756  1.4254
 7721TIP3   OH223123   2.909   5.174   5.742  0.2151 -0.5101 -0.0865
 7721TIP3    H123124   2.910   5.102   5.805 -0.1026 -0.5805 -0.1594
 7721TIP3    H223125   2.932   5.251   5.793 -1.1413 -0.3897  0.3364
 7722TIP3   OH223126   3.889   6.712   4.261 -0.1987  0.3629 -0.7104
 7722TIP3    H123127   3.964   6.759   4.225 -0.5970  1.2387 -0.4088
 7722TIP3    H223128   3.927   6.635   4.303  0.5580  0.9420 -0.3225
 7723TIP3   OH223129   3.723   5.872   4.626  0.4643  0.7490 -0.3507
 7723TIP3    H123130   3.758   5.800   4.679 -0.8787 -0.7707 -1.4640
 7723TIP3    H223131   3.791   5.891   4.562  0.8407  0.4903 -0.0313
 7724TIP3   OH223132   5.194   4.361   2.608  0.7852 -0.4111  0.3038
 7724TIP3    H123133   5.195   4.425   2.679  2.2404 -0.0784 -0.0142
 7724TIP3    H223134   5.102   4.356   2.582  0.5050  0.7752  1.0281
 7725TIP3   OH223135   3.908   0.842   4.590 -0.1256  0.0934 -0.0637
 7725TIP3    H123136   3.946   0.817   4.674  1.1465  3.3371  0.3993
 7725TIP3    H223137   3.814   0.851   4.608 -0.1758 -1.2436  0.4554
 7726TIP3   OH223138   1.282   3.976   1.822 -0.9684  0.4239  0.1823
 7726TIP3    H123139   1.355   3.916   1.839 -2.2647 -0.9330  1.1475
 7726TIP3    H223140   1.318   4.063   1.838  1.0088 -0.0597 -1.4226
 7727TIP3   OH223141   6.897   0.238   1.667 -0.2999  0.0012 -0.6497
 7727TIP3    H123142   6.928   0.208   1.581 -0.9939 -0.8411 -0.6178
 7727TIP3    H223143   6.824   0.179   1.687 -1.3775  1.4300 -0.3469
 7728TIP3   OH223144   5.302   0.236   3.624 -0.1701 -0.0640 -0.2309
 7728TIP3    H123145   5.375   0.216   3.565 -1.6085 -0.6713 -1.8521
 7728TIP3    H223146   5.319   0.183   3.702  2.3614  1.6200  0.4421
 7729TIP3   OH223147   5.365   0.706   4.081 -0.0012  0.6041  0.2502
 7729TIP3    H123148   5.338   0.777   4.139 -0.5326  0.8659 -0.3199
 7729TIP3    H223149   5.333   0.731   3.995 -1.2955 -0.9150  0.2622
 7730TIP3   OH223150   2.904   5.229   4.650  0.0610 -0.6236  0.3104
 7730TIP3    H123151   2.909   5.304   4.710  0.1618 -1.1289  0.9394
 7730TIP3    H223152   2.882   5.268   4.565  4.2156  0.6263 -0.3173
 7731TIP3   OH223153   2.056   5.911   5.358  0.4019  0.2299 -0.3584
 7731TIP3    H123154   2.026   5.905   5.449  0.8895  1.6801 -0.0774
 7731TIP3    H223155   2.104   5.830   5.343 -0.6876 -0.5410  0.3012
 7732TIP3   OH223156   4.882   0.558   4.202  0.3345  0.2766 -0.4475
 7732TIP3    H123157   4.923   0.638   4.235  0.0693  0.1869  0.1024
 7732TIP3    H223158   4.949   0.519   4.146  0.8018  0.4201 -0.0035
 7733TIP3   OH223159   5.179   6.820   4.935 -0.2088  0.1033  0.3314
 7733TIP3    H123160   5.194   6.753   5.002 -2.5540 -1.4900 -0.6510
 7733TIP3    H223161   5.084   6.818   4.920 -0.1940  2.9366 -0.4868
 7734TIP3   OH223162   6.347   0.363   4.183 -0.3888 -0.4913 -0.3389
 7734TIP3    H123163   6.275   0.402   4.134 -0.1105 -1.1665 -1.2847
 7734TIP3    H223164   6.380   0.293   4.127  1.2984  0.0951 -0.1237
 7735TIP3   OH223165   5.644   7.153   5.239 -0.3032  0.2832 -0.2016
 7735TIP3    H123166   5.686   7.237   5.257 -0.2460 -0.1826  1.9260
 7735TIP3    H223167   5.713   7.098   5.205  0.5136 -0.0167  1.8733
 7736TIP3   OH223168   3.376   0.706   2.298  0.1777  0.6492  0.1259
 7736TIP3    H123169   3.411   0.790   2.328  2.3273 -0.0218 -0.4311
 7736TIP3    H223170   3.417   0.641   2.354 -0.5108 -0.1318 -0.2672
 7737TIP3   OH223171   7.243   5.335   3.975 -0.0279  0.4164 -0.4540
 7737TIP3    H123172   7.327   5.313   3.935  0.8723  1.2081  0.9478
 7737TIP3    H223173   7.203   5.251   3.994  1.1678  0.0005  0.3129
 7738TIP3   OH223174   7.396   0.783   5.657 -0.1989 -0.5368  0.3575
 7738TIP3    H123175   7.349   0.715   5.609  0.6748  0.7320 -2.3764
 7738TIP3    H223176   7.486   0.752   5.660  0.0942  0.2261 -0.4125
 7739TIP3   OH223177   3.848   7.256   4.517  0.1101  0.3658  0.0051
 7739TIP3    H123178   3.843   7.328   4.455 -1.1584  0.3991  0.1393
 7739TIP3    H223179   3.889   7.184   4.468 -2.3807 -0.1496 -1.3778
 7740TIP3   OH223180   4.199   4.483   4.140 -0.0678 -0.3791  0.1998
 7740TIP3    H123181   4.125   4.537   4.112  0.5305  0.5122  0.3508
 7740TIP3    H223182   4.158   4.408   4.184 -0.9100 -0.3309 -0.4844
 7741TIP3   OH223183   6.784   6.485   5.519  0.1969 -0.3635 -0.1275
 7741TIP3    H123184   6.759   6.571   5.488  0.6976  0.0269  0.5247
 7741TIP3    H223185   6.706   6.452   5.564 -0.0733 -0.3577 -0.5892
 7742TIP3   OH223186   2.839   2.748   6.043 -0.2918  0.3573 -0.3133
 7742TIP3    H123187   2.826   2.715   6.132 -2.4246  1.8648 -0.0237
 7742TIP3    H223188   2.752   2.775   6.014  0.6081  1.2707 -2.3018
 7743TIP3   OH223189   5.649   5.501   3.365  0.5955  0.0402  0.0034
 7743TIP3    H123190   5.722   5.466   3.315 -0.2754 -0.0683 -1.2066
 7743TIP3    H223191   5.630   5.586   3.325  1.3838  1.0177  1.6364
 7744TIP3   OH223192   1.320   6.436   3.592 -0.1067  0.2054  0.0767
 7744TIP3    H123193   1.316   6.358   3.647 -0.2449  0.2867  0.1814
 7744TIP3    H223194   1.314   6.403   3.503 -1.9179  0.2335  0.1738
 7745TIP3   OH223195   5.824   5.648   1.533  0.0076 -0.0550 -0.1352
 7745TIP3    H123196   5.878   5.723   1.560 -0.8889  0.3830  0.4416
 7745TIP3    H223197   5.849   5.578   1.592  0.9027 -0.2450 -0.7216
 7746TIP3   OH223198   5.755   4.500   5.524  0.3359  0.1665 -0.3294
 7746TIP3    H123199   5.665   4.514   5.494  0.5024  0.9535 -0.4611
 7746TIP3    H223200   5.767   4.563   5.594  0.6503 -0.2295 -0.0251
 7747TIP3   OH223201   7.702   6.251   1.736 -0.1730 -0.1942  0.1403
 7747TIP3    H123202   7.609   6.236   1.718 -0.4937  0.9335  0.8308
 7747TIP3    H223203   7.726   6.180   1.796 -0.5642 -0.5260 -0.0873
 7748TIP3   OH223204   5.398   4.982   3.833 -0.3600  0.6830 -0.4833
 7748TIP3    H123205   5.494   4.978   3.839 -0.5492 -0.3792  2.7210
 7748TIP3    H223206   5.374   5.053   3.892 -1.6122  0.3640 -0.6100
 7749TIP3   OH223207   6.477   6.947   3.200  0.4860 -0.4075 -0.3609
 7749TIP3    H123208   6.403   6.886   3.202 -0.9152  1.2566  0.3091
 7749TIP3    H223209   6.491   6.964   3.107 -1.8088  1.3655 -0.4292
 7750TIP3   OH223210   6.554   4.938   2.716 -0.7555  0.3609 -0.5716
 7750TIP3    H123211   6.633   4.929   2.770  0.0761 -1.7543 -2.0840
 7750TIP3    H223212   6.550   5.031   2.697  2.5086  0.2821 -2.0694
 7751TIP3   OH223213   5.252   6.331   4.449  0.2581  0.3838  0.0853
 7751TIP3    H123214   5.328   6.333   4.391  1.0207 -0.8116  1.0194
 7751TIP3    H223215   5.245   6.239   4.477 -2.0160  0.3002 -0.6086
 7752TIP3   OH223216   5.364   5.645   4.335 -0.0726 -0.0109  0.6879
 7752TIP3    H123217   5.399   5.613   4.418  1.4135  0.3949  0.2186
 7752TIP3    H223218   5.301   5.577   4.308  1.2038 -1.3247  0.9520
 7753TIP3   OH223219   6.454   4.523   2.386  0.3564  0.0511  0.2300
 7753TIP3    H123220   6.455   4.507   2.480  0.9814  1.6243  0.4974
 7753TIP3    H223221   6.489   4.611   2.376 -0.2164  0.1051 -1.4370
 7754TIP3   OH223222   5.720   5.049   4.524 -0.1570  0.1516 -0.2683
 7754TIP3    H123223   5.732   4.983   4.455  0.2168  0.3589 -0.3996
 7754TIP3    H223224   5.641   5.097   4.497  0.0752  0.3302 -0.6316
 7755TIP3   OH223225   5.656   4.967   2.703 -0.1574  0.2411 -0.2727
 7755TIP3    H123226   5.595   4.898   2.727 -0.5239  1.4058  2.2644
 7755TIP3    H223227   5.733   4.920   2.669 -0.8780 -1.3526  0.2484
 7756TIP3   OH223228   5.580   5.522   3.022 -0.2801 -0.3235  0.1370
 7756TIP3    H123229   5.593   5.614   3.001 -1.0865 -0.5566 -1.4898
 7756TIP3    H223230   5.663   5.493   3.059  0.1067  0.9501  0.2757
 7757TIP3   OH223231   7.701   6.487   4.058 -0.2806  0.1903  0.3778
 7757TIP3    H123232   7.712   6.394   4.081 -0.3088  0.2145  0.4893
 7757TIP3    H223233   7.658   6.486   3.973  1.3233  0.0828 -0.4607
 7758TIP3   OH223234   7.111   5.535   0.956  0.2372 -0.2454 -0.1500
 7758TIP3    H123235   7.088   5.622   0.990 -0.4498 -0.6656  0.4919
 7758TIP3    H223236   7.029   5.501   0.920  0.4478 -0.7256 -0.1763
 7759TIP3   OH223237   6.223   4.058   4.106 -0.5112  0.2126 -0.2967
 7759TIP3    H123238   6.205   4.114   4.181  2.2556 -0.2663  0.7704
 7759TIP3    H223239   6.187   3.972   4.130 -1.2874  0.5329 -0.3133
 7760TIP3   OH223240   3.710   6.715   6.085  0.2354 -0.1924  0.5604
 7760TIP3    H123241   3.771   6.671   6.026 -2.5702 -1.4887 -1.4977
 7760TIP3    H223242   3.701   6.803   6.049  1.3921  0.2221  1.2700
 7761TIP3   OH223243   6.972   0.803   2.400 -0.1900  0.0745  0.1560
 7761TIP3    H123244   6.959   0.816   2.494  1.2306 -2.2054  0.7019
 7761TIP3    H223245   7.067   0.808   2.388 -0.2877 -0.7345 -0.9951
 7762TIP3   OH223246   6.451   7.192   2.045  0.0757  0.1867  0.0009
 7762TIP3    H123247   6.385   7.141   1.997  0.2537 -1.2541  1.2275
 7762TIP3    H223248   6.475   7.263   1.986  0.9947 -2.0803 -2.4384
 7763TIP3   OH223249   3.941   0.455   1.757  0.8451  0.0744 -0.5861
 7763TIP3    H123250   4.009   0.508   1.716  1.3536 -1.4125 -1.7223
 7763TIP3    H223251   3.861   0.477   1.710  0.0218  3.4571  2.1752
 7764TIP3   OH223252   6.548   6.100   4.119 -0.1730  0.2510 -0.1488
 7764TIP3    H123253   6.511   6.124   4.204 -0.2276 -1.1045  0.2267
 7764TIP3    H223254   6.504   6.018   4.096  0.3744  0.2249 -1.1468
 7765TIP3   OH223255   6.883   6.451   1.822  0.2691  0.1569 -0.9873
 7765TIP3    H123256   6.933   6.441   1.903  1.3543 -0.0532 -1.6780
 7765TIP3    H223257   6.820   6.521   1.841 -0.2045 -0.6134  0.3841
 7766TIP3   OH223258   0.422   7.206   3.883 -0.0262 -0.0919 -0.3501
 7766TIP3    H123259   0.511   7.235   3.865 -0.2620  1.2773  0.6089
 7766TIP3    H223260   0.433   7.126   3.935  0.7038  1.7069  2.3932
 7767TIP3   OH223261   6.905   5.673   4.077 -0.0492  0.5352  0.2202
 7767TIP3    H123262   6.914   5.578   4.064  1.2105  0.4961  1.3389
 7767TIP3    H223263   6.916   5.709   3.989 -2.6562 -0.4803 -0.5669
 7768TIP3   OH223264   7.663   5.150   5.402 -0.9970 -0.3325 -0.5619
 7768TIP3    H123265   7.622   5.165   5.316 -1.9089 -2.6274 -0.5557
 7768TIP3    H223266   7.610   5.202   5.462 -0.0958  1.6354 -1.4207
 7769TIP3   OH223267   7.529   6.314   2.817  0.4829 -0.7507  0.2551
 7769TIP3    H123268   7.507   6.347   2.730  2.2857  0.6767  0.3194
 7769TIP3    H223269   7.616   6.275   2.807 -0.0440 -2.1749  1.0263
 7770TIP3   OH223270   2.783   0.789   1.998  0.1194  0.3565  0.3244
 7770TIP3    H123271   2.739   0.841   1.931  0.4035  1.2515  0.8315
 7770TIP3    H223272   2.874   0.786   1.969  0.2488  0.7764  0.7045
 7771TIP3   OH223273   7.308   6.965   3.575 -0.1408  0.0515  0.3240
 7771TIP3    H123274   7.361   6.896   3.615  0.6522  0.5534  0.1475
 7771TIP3    H223275   7.291   7.027   3.646 -0.8306 -0.3032  0.4758
 7772TIP3   OH223276   0.644   4.688   3.072  0.3363 -0.5519  0.0561
 7772TIP3    H123277   0.645   4.633   3.150  1.0863 -1.3787 -0.5244
 7772TIP3    H223278   0.735   4.692   3.044  0.6130  2.6379  1.2110
 7773TIP3   OH223279   1.086   0.435   3.767  0.2504  0.0645 -0.2228
 7773TIP3    H123280   1.108   0.342   3.760  0.9066  0.0583  1.6745
 7773TIP3    H223281   1.118   0.473   3.685 -1.1067 -1.5696 -1.5519
 7774TIP3   OH223282   5.717   3.322   6.133 -0.2079  0.6305 -0.0226
 7774TIP3    H123283   5.678   3.407   6.113  2.3572  1.8923  0.1218
 7774TIP3    H223284   5.810   3.341   6.143  0.3483 -2.1662  0.3118
 7775TIP3   OH223285   2.629   6.829   6.321  0.1491  0.0203 -0.4233
 7775TIP3    H123286   2.607   6.739   6.346  1.3865  0.1405  1.2028
 7775TIP3    H223287   2.609   6.834   6.228 -0.7333 -1.6898 -0.3457
 7776TIP3   OH223288   6.395   7.065   3.671 -0.7531  0.1227  0.1484
 7776TIP3    H123289   6.383   7.048   3.765  1.5074 -3.3679 -0.1021
 7776TIP3    H223290   6.450   7.143   3.668 -1.7591  0.9247  1.6860
 7777TIP3   OH223291   5.929   5.841   2.672  0.7793  0.1408  0.1487
 7777TIP3    H123292   5.919   5.933   2.700 -0.1869  1.2131 -3.4393
 7777TIP3    H223293   6.023   5.830   2.660  0.6158  2.0202 -3.4520
 7778TIP3   OH223294   5.328   7.290   1.801  0.7795  0.0464  0.8754
 7778TIP3    H123295   5.421   7.298   1.777  1.6116 -1.8649  3.2204
 7778TIP3    H223296   5.295   7.221   1.743  0.6564  1.1198 -0.3550
 7779TIP3   OH223297   4.857   6.082   3.590 -0.5343 -0.1208  0.0887
 7779TIP3    H123298   4.769   6.053   3.614 -0.4923  1.1050  1.7882
 7779TIP3    H223299   4.915   6.025   3.639 -0.3649 -0.9567 -1.0650
 7780TIP3   OH223300   1.414   1.164   2.934 -1.2515 -0.1938 -0.4101
 7780TIP3    H123301   1.489   1.118   2.971 -1.2123 -0.2359 -0.5430
 7780TIP3    H223302   1.444   1.193   2.848 -0.9441  0.9220  0.0589
 7781TIP3   OH223303   5.025   0.298   3.265  0.3793  0.2333  0.0194
 7781TIP3    H123304   5.022   0.381   3.217  1.8870 -0.4300 -1.2686
 7781TIP3    H223305   4.987   0.234   3.205 -1.4529  0.0898  1.2867
 7782TIP3   OH223306   6.315   5.880   3.624  0.8001  0.2396  0.3045
 7782TIP3    H123307   6.260   5.836   3.558  2.8501 -0.0132 -1.3024
 7782TIP3    H223308   6.336   5.810   3.686  0.0561  0.1245  0.4403
 7783TIP3   OH223309   1.201   5.201   4.581  0.2302 -0.1444  0.3985
 7783TIP3    H123310   1.162   5.283   4.612 -0.3468 -0.2376 -0.0713
 7783TIP3    H223311   1.296   5.216   4.586  0.1231  0.9593 -0.7509
 7784TIP3   OH223312   5.580   6.703   3.382 -0.6224 -0.5088 -0.0138
 7784TIP3    H123313   5.646   6.689   3.450  1.0828 -0.1294 -1.5520
 7784TIP3    H223314   5.562   6.797   3.384 -0.3027 -0.4393 -0.3166
 7785TIP3   OH223315   6.014   6.273   1.847  0.1710  0.7012 -0.3463
 7785TIP3    H123316   5.990   6.354   1.892  1.3210  1.5005 -1.1447
 7785TIP3    H223317   6.087   6.297   1.791  1.3252 -1.1579  0.3007
 7786TIP3   OH223318   6.206   6.690   1.586 -0.4729 -0.7512  0.1782
 7786TIP3    H123319   6.146   6.764   1.573  0.3087 -0.0265  0.6632
 7786TIP3    H223320   6.253   6.683   1.502  0.8623  0.5900  0.7835
 7787TIP3   OH223321   4.650   3.701   4.084  0.0877 -0.1425 -0.0119
 7787TIP3    H123322   4.667   3.626   4.140  0.2505 -0.5252 -0.5660
 7787TIP3    H223323   4.632   3.773   4.144 -0.6425 -0.7579  0.5162
 7788TIP3   OH223324   1.643   0.655   2.585 -0.1881 -0.5741 -0.0487
 7788TIP3    H123325   1.686   0.592   2.526  0.6086  0.9175 -1.0858
 7788TIP3    H223326   1.549   0.641   2.570 -0.0346 -1.8587  0.1106
 7789TIP3   OH223327   6.294   5.364   5.636  0.0849  0.3762  0.2335
 7789TIP3    H123328   6.290   5.444   5.688 -1.0238  1.4845 -1.5245
 7789TIP3    H223329   6.387   5.339   5.639  0.5711  2.0890  0.2531
 7790TIP3   OH223330   5.958   7.004   3.709 -0.1512  0.3356  0.2648
 7790TIP3    H123331   5.983   7.093   3.733 -0.8871  0.5333  0.3103
 7790TIP3    H223332   5.863   7.003   3.717 -0.0871 -0.6733  0.9919
 7791TIP3   OH223333   5.487   5.964   4.456 -0.3744  0.5450  0.6860
 7791TIP3    H123334   5.515   5.901   4.389 -3.3811 -1.4630  1.2265
 7791TIP3    H223335   5.546   6.039   4.444  1.1445 -1.0014 -2.1723
 7792TIP3   OH223336   7.143   5.104   4.655  0.0265 -0.7450 -0.3682
 7792TIP3    H123337   7.137   5.173   4.721 -0.1254  0.0236 -1.1850
 7792TIP3    H223338   7.123   5.024   4.703 -1.3842 -0.0363  0.2422
 7793TIP3   OH223339   3.845   2.035   0.792 -0.1452  0.0965  0.2633
 7793TIP3    H123340   3.853   2.108   0.731  0.7836  1.8029  2.3571
 7793TIP3    H223341   3.751   2.015   0.793 -0.1959  0.1660 -1.5476
 7794TIP3   OH223342   6.994   0.650   2.175 -0.0144 -0.3784 -0.5105
 7794TIP3    H123343   7.025   0.709   2.244  0.9732 -2.1255  0.5701
 7794TIP3    H223344   6.902   0.634   2.196  0.0834 -0.2982 -0.0219
 7795TIP3   OH223345   0.687   6.582   2.751 -0.2819 -0.1000  0.1233
 7795TIP3    H123346   0.599   6.554   2.774 -0.7538  0.7609 -0.5910
 7795TIP3    H223347   0.721   6.513   2.694 -1.3260  0.6254 -1.4009
 7796TIP3   OH223348   5.052   5.634   1.934  0.0377  0.1575 -0.5291
 7796TIP3    H123349   5.116   5.606   1.999  0.9698  1.4018 -0.8751
 7796TIP3    H223350   5.000   5.556   1.916  1.3076 -0.8206 -0.0525
 7797TIP3   OH223351   5.305   5.174   4.035  0.3389  0.5728 -0.3464
 7797TIP3    H123352   5.310   5.099   4.094 -2.2989 -0.6365 -1.5897
 7797TIP3    H223353   5.352   5.244   4.081  0.7768 -1.1581  1.8944
 7798TIP3   OH223354   0.233   6.921   2.583  0.0034  0.0599 -0.4235
 7798TIP3    H123355   0.209   6.870   2.661 -2.1048  0.4287 -0.7963
 7798TIP3    H223356   0.166   6.989   2.578  2.2660  2.3506 -0.4369
 7799TIP3   OH223357   7.612   7.315   4.273  0.3198  0.1074 -0.4931
 7799TIP3    H123358   7.612   7.261   4.194 -0.6562 -0.0463 -0.4047
 7799TIP3    H223359   7.691   7.368   4.267  0.3846 -0.0954 -1.4401
 7800TIP3   OH223360   7.646   5.903   4.967 -0.6308  0.3273  0.4481
 7800TIP3    H123361   7.677   5.948   5.045  0.2863 -2.0946  1.5094
 7800TIP3    H223362   7.558   5.871   4.990 -0.0360 -1.0858  0.7861
 7801TIP3   OH223363   7.414   5.097   4.732 -0.0172  0.1088 -0.0184
 7801TIP3    H123364   7.319   5.105   4.737  0.0394  0.4651  0.4219
 7801TIP3    H223365   7.431   5.080   4.639 -0.3528  2.2125 -0.5067
 7802TIP3   OH223366   5.959   6.252   3.722  0.0211  0.6707 -0.1417
 7802TIP3    H123367   5.996   6.164   3.730 -1.6822 -0.0944 -0.4073
 7802TIP3    H223368   5.895   6.258   3.793  0.1515  1.7203 -0.1008
 7803TIP3   OH223369   3.806   0.655   0.482 -0.5018 -0.0594 -0.3699
 7803TIP3    H123370   3.748   0.616   0.548  1.0812 -0.6965  0.6647
 7803TIP3    H223371   3.894   0.628   0.508  0.1679 -0.2259 -2.6742
 7804TIP3   OH223372   3.881   6.237   5.836 -0.3337  0.5286 -0.1159
 7804TIP3    H123373   3.944   6.180   5.792 -0.1179 -2.4025  3.6914
 7804TIP3    H223374   3.928   6.271   5.912 -2.2327  1.2737  0.7684
 7805TIP3   OH223375   1.353   0.149   4.817 -0.2242  0.0321  0.5259
 7805TIP3    H123376   1.307   0.232   4.805 -1.1194 -0.3755  1.0655
 7805TIP3    H223377   1.297   0.099   4.876  0.5817 -0.7453  0.6476
 7806TIP3   OH223378   5.714   6.189   6.267  0.4561  0.1934 -0.1024
 7806TIP3    H123379   5.634   6.209   6.219  1.3982  2.1643 -0.8698
 7806TIP3    H223380   5.689   6.195   6.359  0.0057  1.9621 -0.3400
 7807TIP3   OH223381   5.689   4.226   3.996  0.5625 -0.1434 -0.0839
 7807TIP3    H123382   5.738   4.261   4.071 -2.0255 -2.5259  2.8106
 7807TIP3    H223383   5.732   4.143   3.976  0.1833 -0.3218 -0.1548
 7808TIP3   OH223384   5.569   5.848   3.954 -0.4038 -0.1172 -0.5795
 7808TIP3    H123385   5.509   5.817   3.886  0.1554 -0.9610 -0.6979
 7808TIP3    H223386   5.651   5.863   3.908 -0.4433  0.7828 -0.3686
 7809TIP3   OH223387   7.027   6.892   2.135  0.1686  0.0046 -0.2504
 7809TIP3    H123388   6.988   6.968   2.092  0.0685  0.3613  0.4535
 7809TIP3    H223389   6.955   6.829   2.142  0.3993 -0.3870 -1.3581
 7810TIP3   OH223390   1.368   0.075   2.374  0.6865 -0.0937 -0.0142
 7810TIP3    H123391   1.303   0.009   2.352  1.2443 -0.7362  0.2348
 7810TIP3    H223392   1.418   0.036   2.446  2.1504 -0.1479 -1.0177
 7811TIP3   OH223393   6.093   5.922   3.976  0.3420  0.5588  0.3526
 7811TIP3    H123394   6.077   5.937   3.883 -1.0185  1.0444  0.6547
 7811TIP3    H223395   6.061   6.001   4.019 -0.0733 -0.1271  1.3231
 7812TIP3   OH223396   1.763   0.337   4.811  0.0697 -0.4128  0.5348
 7812TIP3    H123397   1.714   0.341   4.729 -1.6974 -0.9122  1.5293
 7812TIP3    H223398   1.840   0.392   4.796 -1.1226  0.9370 -0.8531
 7813TIP3   OH223399   6.473   7.113   2.598  0.2852 -0.5772 -0.1421
 7813TIP3    H123400   6.486   7.166   2.519 -0.5752  0.0444  0.1195
 7813TIP3    H223401   6.473   7.023   2.567 -0.3772 -0.3207 -0.8976
 7814TIP3   OH223402   3.971   6.362   3.372 -0.3454 -0.6712 -0.1134
 7814TIP3    H123403   4.026   6.296   3.330  1.0014  0.4883 -0.1959
 7814TIP3    H223404   3.902   6.312   3.415  2.0358 -2.3402  1.8930
 7815TIP3   OH223405   6.250   6.214   6.112  0.1130  0.2411 -0.4249
 7815TIP3    H123406   6.289   6.139   6.067  1.1678  1.1913 -1.1201
 7815TIP3    H223407   6.171   6.179   6.152  1.6449 -1.7131  0.9833
 7816TIP3   OH223408   7.438   6.616   5.408  0.4124 -0.0199  0.1466
 7816TIP3    H123409   7.446   6.610   5.313 -0.7909 -2.3081  0.1730
 7816TIP3    H223410   7.460   6.529   5.440  0.0648  0.5226  1.9242
 7817TIP3   OH223411   0.102   6.163   2.487  0.1705  0.0098 -0.4182
 7817TIP3    H123412   0.143   6.162   2.574 -0.0967  0.3833 -0.2861
 7817TIP3    H223413   0.138   6.241   2.445 -1.4396  1.1222  0.2049
 7818TIP3   OH223414   6.918   7.171   2.428  0.4313  0.3718 -0.1261
 7818TIP3    H123415   6.923   7.220   2.346  0.6144 -0.2758 -0.5089
 7818TIP3    H223416   6.837   7.200   2.469 -0.5604 -0.5999 -1.3741
 7819TIP3   OH223417   4.192   6.328   5.144  0.2026  0.1820 -0.9817
 7819TIP3    H123418   4.278   6.287   5.156  0.0436 -0.1539 -0.9681
 7819TIP3    H223419   4.206   6.392   5.074  0.3236 -0.2945 -1.3995
 7820TIP3   OH223420   2.023   0.062   3.775  0.2861 -0.0267 -0.2295
 7820TIP3    H123421   1.977   0.054   3.691 -1.1808 -0.2713  0.5728
 7820TIP3    H223422   2.038   0.156   3.784 -3.8683  0.6007  1.4084
 7821TIP3   OH223423   7.079   3.365   2.857 -0.3822 -0.1573  0.3832
 7821TIP3    H123424   7.093   3.441   2.913  0.2235  0.4856 -0.6066
 7821TIP3    H223425   6.985   3.360   2.845 -0.3470  1.2837 -0.6591
 7822TIP3   OH223426   1.252   0.582   1.478 -0.3750 -0.0122  0.1466
 7822TIP3    H123427   1.244   0.500   1.527 -2.2605 -0.2111 -0.4778
 7822TIP3    H223428   1.262   0.649   1.545 -2.9347 -0.2803  0.8208
 7823TIP3   OH223429   5.435   4.487   4.437  0.1167 -0.8205 -0.5069
 7823TIP3    H123430   5.416   4.475   4.344 -1.2240  0.7530 -0.4651
 7823TIP3    H223431   5.435   4.399   4.473  0.7058 -1.4580 -1.9949
 7824TIP3   OH223432   0.721   1.547   3.822 -0.7143 -0.5493 -0.2474
 7824TIP3    H123433   0.739   1.641   3.825 -0.6430 -0.5412 -0.9359
 7824TIP3    H223434   0.660   1.537   3.750  2.7252 -1.5823 -3.1765
 7825TIP3   OH223435   0.831   0.012   5.385  0.1762  0.2783 -0.4072
 7825TIP3    H123436   0.915   0.000   5.342  0.5470  1.5473 -0.0577
 7825TIP3    H223437   0.844   0.086   5.444 -1.4717  1.1864 -1.1293
 7826TIP3   OH223438   6.633   0.291   1.540  0.4475 -0.1064  0.8424
 7826TIP3    H123439   6.557   0.350   1.546  0.7498  0.2523  1.1527
 7826TIP3    H223440   6.701   0.344   1.499  0.0607 -0.9012 -0.8947
 7827TIP3   OH223441   7.539   7.167   3.490  0.1980 -1.2178  0.1236
 7827TIP3    H123442   7.511   7.076   3.504  0.1286 -0.7918  3.1102
 7827TIP3    H223443   7.463   7.210   3.450 -0.0955 -2.2630 -0.4574
 7828TIP3   OH223444   2.401   1.011   2.064  0.2282 -0.6511  0.2326
 7828TIP3    H123445   2.340   0.972   2.126 -1.3999 -1.4298 -1.8175
 7828TIP3    H223446   2.377   1.104   2.062  0.4719 -0.5658  0.9544
 7829TIP3   OH223447   0.879   7.347   5.269  0.6460  0.4394 -0.7025
 7829TIP3    H123448   0.824   7.320   5.343 -0.3868  4.0367 -0.0843
 7829TIP3    H223449   0.847   7.295   5.195 -1.5939  0.3227  0.3147
 7830TIP3   OH223450   2.063   0.330   3.729 -0.1848 -0.1126  0.0256
 7830TIP3    H123451   1.990   0.361   3.782 -1.4022 -0.7024 -1.2933
 7830TIP3    H223452   2.133   0.394   3.744 -0.8572  0.2752  1.5383
 7831TIP3   OH223453   6.892   6.855   4.341 -0.1425 -0.0230  0.0543
 7831TIP3    H123454   6.879   6.949   4.339  0.4083  0.0412 -0.5957
 7831TIP3    H223455   6.823   6.820   4.285 -0.3247  0.0009  0.2670
 7832TIP3   OH223456   1.729   0.190   4.140  0.5460 -0.2363 -0.4360
 7832TIP3    H123457   1.777   0.108   4.126  0.1148 -0.4938 -0.4430
 7832TIP3    H223458   1.759   0.221   4.225  1.2956  0.0095 -0.7902
 7833TIP3   OH223459   4.861   7.001   2.852 -0.1537 -0.7533 -0.2377
 7833TIP3    H123460   4.955   7.019   2.857 -0.2487 -0.2988 -0.0781
 7833TIP3    H223461   4.821   7.086   2.838 -0.5374 -0.9597 -0.3900
 7834TIP3   OH223462   5.247   5.410   0.861  0.0112  0.3685 -0.2216
 7834TIP3    H123463   5.245   5.326   0.816  1.0301 -0.1646  0.7186
 7834TIP3    H223464   5.285   5.471   0.797  2.3004 -0.5670  0.1962
 7835TIP3   OH223465   6.719   5.334   4.309 -0.0692  0.2844  0.3148
 7835TIP3    H123466   6.740   5.253   4.263 -0.1363 -0.9925  2.5027
 7835TIP3    H223467   6.627   5.349   4.288 -0.2156 -0.5124  0.3607
 7836TIP3   OH223468   1.558   0.889   0.720  0.2611 -0.0982 -0.0640
 7836TIP3    H123469   1.525   0.955   0.782  2.3143  1.0181 -0.1100
 7836TIP3    H223470   1.612   0.939   0.659  0.6551 -1.6286 -0.9726
 7837TIP3   OH223471   0.832   0.681   2.385 -0.0550 -0.7605 -0.0113
 7837TIP3    H123472   0.813   0.641   2.470  0.4693 -0.8172  0.0794
 7837TIP3    H223473   0.747   0.714   2.354 -0.5833 -2.3000 -0.2747
 7838TIP3   OH223474   1.295   0.995   0.082  0.1859 -0.2740 -0.1896
 7838TIP3    H123475   1.305   0.945   0.001 -2.5729  0.3962 -0.9854
 7838TIP3    H223476   1.293   1.086   0.053 -3.3017 -0.1375  0.3051
 7839TIP3   OH223477   3.698   6.040   5.895 -0.2432 -0.2995  0.6621
 7839TIP3    H123478   3.769   6.104   5.888 -1.4282  1.1179  1.3489
 7839TIP3    H223479   3.709   6.002   5.983  0.4913 -1.0985  0.2343
 7840TIP3   OH223480   0.689   0.729   1.667 -0.0256  0.3012 -0.3706
 7840TIP3    H123481   0.726   0.642   1.651 -0.5175  0.0173  0.0203
 7840TIP3    H223482   0.674   0.732   1.761  1.1292  1.2742 -0.2008
 7841TIP3   OH223483   7.002   0.707   4.636  0.0585 -0.0108  0.6300
 7841TIP3    H123484   7.033   0.624   4.600  0.8157  0.2138  0.7441
 7841TIP3    H223485   7.046   0.713   4.721 -0.5552  0.1655  0.9327
 7842TIP3   OH223486   6.992   0.161   1.929 -0.4713 -0.0885 -0.0910
 7842TIP3    H123487   6.987   0.214   1.850  2.0356  0.6607  0.1917
 7842TIP3    H223488   6.999   0.071   1.897 -2.9933 -0.1317 -0.6066
 7843TIP3   OH223489   6.216   5.380   3.551 -0.2073  0.6105  0.1578
 7843TIP3    H123490   6.296   5.378   3.604 -0.4089  0.9758  0.4822
 7843TIP3    H223491   6.181   5.468   3.565  0.4884  1.2076 -1.7056
 7844TIP3   OH223492   6.693   7.320   2.585  0.2534  0.2095 -0.1350
 7844TIP3    H123493   6.637   7.255   2.625  1.1844  0.4275  1.5437
 7844TIP3    H223494   6.753   7.347   2.654  4.0788 -1.7805 -2.4780
 7845TIP3   OH223495   6.202   6.373   2.905 -0.0679  0.1012 -0.1293
 7845TIP3    H123496   6.122   6.412   2.940 -0.3625 -0.0827 -0.6035
 7845TIP3    H223497   6.177   6.285   2.878  0.5418 -0.3361  0.7088
 7846TIP3   OH223498   6.917   7.342   4.489  0.4590  0.1666 -0.6489
 7846TIP3    H123499   6.910   7.258   4.443 -1.0545  0.6668 -1.3819
 7846TIP3    H223500   6.870   7.329   4.571  0.0157  0.3495 -0.8675
 7847TIP3   OH223501   5.124   7.050   2.510  0.3671  0.3011 -0.2251
 7847TIP3    H123502   5.036   7.073   2.482  0.6052  1.2482 -0.2197
 7847TIP3    H223503   5.152   7.124   2.564  1.4865  0.3995 -0.9276
 7848TIP3   OH223504   6.141   6.343   2.216  0.0817  0.2481 -0.6501
 7848TIP3    H123505   6.163   6.252   2.233 -1.3579  0.4418  2.6948
 7848TIP3    H223506   6.220   6.380   2.175  0.3657 -2.6316 -2.8699
 7849TIP3   OH223507   7.089   5.069   2.907  0.4565  0.2987 -0.0984
 7849TIP3    H123508   7.085   4.978   2.878  0.1626 -0.1913  1.4181
 7849TIP3    H223509   7.100   5.120   2.826 -2.9656 -0.7967 -1.3623
 7850TIP3   OH223510   6.044   7.243   3.853 -0.2830 -0.2331 -0.6061
 7850TIP3    H123511   6.013   7.239   3.943  0.0538  0.8791 -0.4364
 7850TIP3    H223512   6.139   7.249   3.860 -0.1073 -1.9976 -1.0895
 7851TIP3   OH223513   5.222   5.427   1.387  0.2570  0.1724 -0.3151
 7851TIP3    H123514   5.228   5.522   1.402  1.4538  0.1119 -0.3875
 7851TIP3    H223515   5.200   5.419   1.295  2.6428  0.3336 -0.9162
 7852TIP3   OH223516   4.540   5.264   2.265  0.2254 -0.1243  0.2967
 7852TIP3    H123517   4.503   5.177   2.248  2.3247 -0.5853 -2.3626
 7852TIP3    H223518   4.550   5.303   2.178  2.8464  1.2519  1.1552
 7853TIP3   OH223519   7.617   1.631   2.015 -0.1000  0.1404  0.5501
 7853TIP3    H123520   7.559   1.660   1.945 -0.9636  1.3336  1.7295
 7853TIP3    H223521   7.566   1.642   2.095  0.6307 -1.8544  1.3165
 7854TIP3   OH223522   5.798   7.189   4.297  0.2007 -0.2712 -0.0434
 7854TIP3    H123523   5.702   7.194   4.291  0.0649 -1.7990  0.7210
 7854TIP3    H223524   5.815   7.118   4.359  1.7917  1.7906  1.9686
 7855TIP3   OH223525   6.407   0.662   2.291 -0.3553  0.0436  0.4179
 7855TIP3    H123526   6.378   0.753   2.293 -0.7957 -0.0370 -1.3309
 7855TIP3    H223527   6.366   0.626   2.213  3.1965 -0.4903 -1.2969
 7856TIP3   OH223528   6.697   6.354   3.834  0.3789 -0.2035  0.0344
 7856TIP3    H123529   6.653   6.269   3.830  0.1136 -0.0194 -1.0576
 7856TIP3    H223530   6.658   6.405   3.763  1.5079  0.3660 -0.1938
 7857TIP3   OH223531   1.544   0.750   1.245 -0.4577  0.1729  0.0058
 7857TIP3    H123532   1.607   0.691   1.285  1.3405  2.8576  1.3219
 7857TIP3    H223533   1.472   0.694   1.216  0.7829 -2.4898  1.9528
 7858TIP3   OH223534   4.769   6.979   4.007 -0.5334  0.1966 -0.4281
 7858TIP3    H123535   4.831   6.937   3.947  0.8714  2.2766 -0.5072
 7858TIP3    H223536   4.816   7.056   4.039 -2.4028  0.7840  0.9925
 7859TIP3   OH223537   5.966   5.732   4.130 -0.2898 -0.3543 -0.1725
 7859TIP3    H123538   6.012   5.795   4.075  0.1033  0.2287  0.8125
 7859TIP3    H223539   5.895   5.699   4.074 -0.5920  1.0581 -0.6508
 7860TIP3   OH223540   6.601   1.530   3.553 -0.4599  0.0594  0.2355
 7860TIP3    H123541   6.659   1.490   3.618  0.0553 -1.0866 -0.9080
 7860TIP3    H223542   6.642   1.511   3.469 -0.9321  1.8470 -0.4252
 7861TIP3   OH223543   6.927   5.311   3.557  0.1660  0.2052 -0.5261
 7861TIP3    H123544   6.996   5.256   3.595 -0.8989 -0.7905  0.0132
 7861TIP3    H223545   6.871   5.334   3.631 -1.4730 -1.0705 -1.3302
 7862TIP3   OH223546   7.434   6.317   3.086  0.2660  0.3666  0.0514
 7862TIP3    H123547   7.434   6.331   2.991  0.5036 -1.1202 -0.1757
 7862TIP3    H223548   7.403   6.400   3.122  1.1155  1.2895 -1.2749
 7863TIP3   OH223549   4.256   5.668   5.745  0.2377 -0.0694 -0.2214
 7863TIP3    H123550   4.262   5.578   5.777 -0.4383 -0.4211 -1.0602
 7863TIP3    H223551   4.318   5.672   5.672  3.4931  1.3780  2.5064
 7864TIP3   OH223552   1.862   2.049   3.440  0.1869  0.5432 -0.0363
 7864TIP3    H123553   1.821   1.974   3.484  0.1504  1.0104  0.7486
 7864TIP3    H223554   1.794   2.082   3.381 -0.8915  1.8145  1.8519
 7865TIP3   OH223555   6.983   7.166   3.067  0.8848 -0.0624 -1.2129
 7865TIP3    H123556   6.910   7.203   3.018  1.0698 -0.0039 -1.4440
 7865TIP3    H223557   7.040   7.241   3.085 -0.2822  0.3376  1.0471
 7866TIP3   OH223558   4.704   6.722   3.299 -0.0906  0.1597  0.2658
 7866TIP3    H123559   4.766   6.665   3.345  0.7334  0.4979 -0.4103
 7866TIP3    H223560   4.644   6.753   3.367  1.1444  0.6904  1.1282
 7867TIP3   OH223561   6.934   6.340   3.994  0.1126 -0.2229  0.1544
 7867TIP3    H123562   6.856   6.349   3.938 -0.2030 -0.9790  0.4621
 7867TIP3    H223563   6.931   6.416   4.051 -0.0938  0.0516 -0.2178
 7868TIP3   OH223564   1.627   0.509   1.591 -0.2555  0.3706 -0.3397
 7868TIP3    H123565   1.674   0.430   1.620 -0.1331 -0.7356 -3.3269
 7868TIP3    H223566   1.691   0.580   1.602  0.0329 -0.1132  1.2916
 7869TIP3   OH223567   6.919   6.449   5.226  0.0269  0.5157  0.0895
 7869TIP3    H123568   7.007   6.483   5.242  0.8761 -0.9466 -1.3237
 7869TIP3    H223569   6.912   6.373   5.284 -0.2216  0.5065  0.0466
 7870TIP3   OH223570   1.099   0.297   4.750 -0.0271  0.8326 -0.0366
 7870TIP3    H123571   1.066   0.338   4.830  0.1971  1.1986 -0.1293
 7870TIP3    H223572   1.089   0.364   4.683 -1.3051  0.1208 -0.5677
 7871TIP3   OH223573   5.500   6.193   2.137  0.2066  0.3413 -0.4414
 7871TIP3    H123574   5.529   6.280   2.166 -0.0211  0.2013  0.2084
 7871TIP3    H223575   5.547   6.132   2.193  0.6646  0.0265 -1.1617
 7872TIP3   OH223576   4.675   6.141   4.533 -0.1611  0.2272  0.1013
 7872TIP3    H123577   4.692   6.207   4.600  1.4203  0.7245 -0.7513
 7872TIP3    H223578   4.722   6.063   4.563 -0.7764 -0.0416  0.3647
 7873TIP3   OH223579   6.830   5.333   3.078 -0.5642  0.2848  0.1959
 7873TIP3    H123580   6.823   5.263   3.012  0.5317  0.1997  0.1608
 7873TIP3    H223581   6.846   5.287   3.160  0.7749  0.5212  0.0708
 7874TIP3   OH223582   5.766   3.992   5.571 -0.6433 -0.1220  0.1784
 7874TIP3    H123583   5.775   3.907   5.613 -1.2717  0.4880  1.5777
 7874TIP3    H223584   5.676   3.994   5.539 -0.3094 -0.3937 -0.8044
 7875TIP3   OH223585   7.351   6.567   0.280 -0.1037 -0.0062 -0.8402
 7875TIP3    H123586   7.356   6.518   0.361 -0.1701 -0.2233 -0.9663
 7875TIP3    H223587   7.383   6.507   0.213 -1.5140 -0.3782 -1.2013
 7876TIP3   OH223588   6.522   4.853   4.163  0.0996 -0.1533 -0.6047
 7876TIP3    H123589   6.614   4.875   4.182 -0.0733  1.1235 -1.1906
 7876TIP3    H223590   6.483   4.840   4.249  0.2974  1.5673 -0.2201
 7877TIP3   OH223591   6.041   5.128   2.664 -0.4197  0.7569 -0.7873
 7877TIP3    H123592   6.016   5.037   2.646 -1.2148  0.8932 -0.3848
 7877TIP3    H223593   5.968   5.163   2.714  0.5259  1.2091  0.2854
 7878TIP3   OH223594   2.218   0.723   5.501  0.8260  0.0418 -0.3930
 7878TIP3    H123595   2.279   0.719   5.428  2.1442  0.9641  0.6378
 7878TIP3    H223596   2.175   0.808   5.493 -2.2392 -1.6482 -2.5957
 7879TIP3   OH223597   6.627   3.692   4.169 -0.5607  0.4261 -0.2398
 7879TIP3    H123598   6.626   3.758   4.099 -0.0517 -0.9638 -1.5963
 7879TIP3    H223599   6.538   3.657   4.170 -0.4981  0.2668 -0.3501
 7880TIP3   OH223600   6.444   6.864   2.466 -0.0445 -0.4685 -0.9382
 7880TIP3    H123601   6.446   6.858   2.370 -1.7358 -1.8191 -0.9178
 7880TIP3    H223602   6.367   6.813   2.491 -0.6804  1.3956  1.0297
 7881TIP3   OH223603   7.264   5.546   4.942  0.1299  0.0669 -0.7052
 7881TIP3    H123604   7.213   5.477   4.901  1.5533 -2.1946  1.1659
 7881TIP3    H223605   7.314   5.585   4.871  1.4888 -2.8239 -1.4454
 7882TIP3   OH223606   5.031   7.209   4.983 -0.5155 -0.1766  0.7591
 7882TIP3    H123607   5.005   7.135   5.037  0.2755  0.2616  1.7565
 7882TIP3    H223608   4.996   7.286   5.028 -0.0163  0.1790  0.5495
 7883TIP3   OH223609   6.185   4.821   5.015  0.0165  0.5811 -0.2486
 7883TIP3    H123610   6.233   4.742   4.992 -0.5508  0.5095 -1.1983
 7883TIP3    H223611   6.148   4.803   5.101  1.3889  0.5047  0.3427
 7884TIP3   OH223612   1.675   1.821   4.684 -0.6810 -0.4277  0.3513
 7884TIP3    H123613   1.733   1.896   4.674 -1.1386 -0.5275 -4.0652
 7884TIP3    H223614   1.734   1.745   4.682 -0.7769 -0.4829 -3.1768
 7885TIP3   OH223615   5.036   6.090   5.420  0.1014  0.7269  0.6062
 7885TIP3    H123616   5.113   6.034   5.422  0.5118  1.2406 -0.3653
 7885TIP3    H223617   4.974   6.044   5.365  0.3138  1.0611  0.0820
 7886TIP3   OH223618   6.475   4.385   4.693 -0.2784 -0.6972 -0.0676
 7886TIP3    H123619   6.489   4.474   4.726  1.4520 -1.2784  0.8268
 7886TIP3    H223620   6.563   4.354   4.669 -0.4035 -3.2156  2.4236
 7887TIP3   OH223621   5.669   5.509   3.959 -0.2063 -0.0069 -0.0400
 7887TIP3    H123622   5.593   5.490   3.905 -0.1228  0.3632 -0.2843
 7887TIP3    H223623   5.653   5.462   4.041  0.2852 -1.6748 -0.8802
 7888TIP3   OH223624   6.210   5.314   4.236 -0.1421  0.2688  0.7022
 7888TIP3    H123625   6.259   5.235   4.259  1.5652  0.5397 -1.7674
 7888TIP3    H223626   6.136   5.281   4.185  0.6192  0.2065 -0.4063
 7889TIP3   OH223627   4.125   4.935   2.958 -0.0125  0.1445  0.1701
 7889TIP3    H123628   4.091   5.024   2.968  0.6558  0.3055  1.1192
 7889TIP3    H223629   4.201   4.945   2.901 -0.1528  0.1268 -0.0208
 7890TIP3   OH223630   5.216   5.526   2.129  0.3967 -0.2512  0.0399
 7890TIP3    H123631   5.171   5.448   2.160 -1.9192 -0.1866 -2.9461
 7890TIP3    H223632   5.294   5.493   2.084  1.2755 -0.6022  1.7948
 7891TIP3   OH223633   3.039   6.699   4.508 -0.0330 -0.3753 -0.1262
 7891TIP3    H123634   3.110   6.715   4.570  1.0576 -1.8078 -0.9577
 7891TIP3    H223635   2.970   6.658   4.560 -0.3255  1.1435  0.7152
 7892TIP3   OH223636   7.086   5.904   3.642 -0.0813 -0.0766  0.1004
 7892TIP3    H123637   7.076   5.926   3.735 -0.4291 -2.0860  0.5632
 7892TIP3    H223638   7.004   5.933   3.602 -0.6260 -0.7205  0.7372
 7893TIP3   OH223639   7.754   6.327   2.315 -1.0972  0.0199  0.3717
 7893TIP3    H123640   7.658   6.324   2.310 -1.2100  0.8558  1.6308
 7893TIP3    H223641   7.777   6.254   2.372 -1.0903  0.6414  1.1691
 7894TIP3   OH223642   6.937   1.249   5.206 -0.1100  0.1934 -0.2689
 7894TIP3    H123643   7.007   1.224   5.146  1.0927 -0.3932  1.3451
 7894TIP3    H223644   6.857   1.223   5.161  0.6528  1.3153 -2.3470
 7895TIP3   OH223645   7.235   6.182   5.333  0.0695  0.1958 -0.5668
 7895TIP3    H123646   7.141   6.179   5.348  0.3762  0.1598  1.5032
 7895TIP3    H223647   7.265   6.092   5.347  0.8784  0.8664  2.3460
 7896TIP3   OH223648   2.421   0.234   2.520  0.0290  0.6992 -0.3284
 7896TIP3    H123649   2.359   0.232   2.593  1.7671 -0.3183  1.1792
 7896TIP3    H223650   2.496   0.183   2.551  1.2801  1.1910 -2.4166
 7897TIP3   OH223651   1.347   6.844   3.219 -0.1930 -0.1999 -0.2575
 7897TIP3    H123652   1.324   6.926   3.174 -0.1371  0.3443  0.6862
 7897TIP3    H223653   1.263   6.801   3.234 -0.3061  0.1128  0.0332
 7898TIP3   OH223654   7.452   6.107   2.013 -0.0226 -0.2918  0.1694
 7898TIP3    H123655   7.391   6.106   2.087  0.4978  0.2210  0.6087
 7898TIP3    H223656   7.400   6.137   1.939 -1.1657 -3.0872 -0.2290
 7899TIP3   OH223657   5.637   7.050   2.964 -0.0292  0.8481 -0.4398
 7899TIP3    H123658   5.726   7.031   2.994  0.0549  0.8088 -0.7046
 7899TIP3    H223659   5.632   7.009   2.877 -0.2211  1.0637 -0.5318
 7900TIP3   OH223660   1.846   0.207   4.405 -0.1877  0.1097 -0.0743
 7900TIP3    H123661   1.912   0.208   4.474 -0.9349  0.0508  0.6508
 7900TIP3    H223662   1.796   0.128   4.421 -0.6185  0.3074 -0.4440
 7901TIP3   OH223663   6.079   3.894   2.964  0.4443 -0.3286  0.4066
 7901TIP3    H123664   6.090   3.848   2.881 -0.6977 -1.6540  0.9784
 7901TIP3    H223665   6.105   3.984   2.945  0.0717 -0.5894 -1.4254
 7902TIP3   OH223666   7.143   4.224   4.969  0.5048  0.3986  0.1308
 7902TIP3    H123667   7.073   4.160   4.959  0.5802  0.5296 -1.3148
 7902TIP3    H223668   7.119   4.274   5.047 -1.0029  0.4344 -0.3579
 7903TIP3   OH223669   2.898   6.972   5.151  0.2200  0.0935 -0.3433
 7903TIP3    H123670   2.980   6.973   5.100  0.9139  0.2053  0.7716
 7903TIP3    H223671   2.916   6.912   5.223 -0.3833  0.8238  0.4151
 7904TIP3   OH223672   6.960   6.407   4.269  0.0429 -0.0701  0.1693
 7904TIP3    H123673   7.015   6.329   4.263  1.6812  0.9596  1.2354
 7904TIP3    H223674   6.906   6.392   4.347  0.0497 -0.3257  0.1259
 7905TIP3   OH223675   0.244   5.339   5.185  0.6951  0.7419  0.2620
 7905TIP3    H123676   0.280   5.413   5.234  2.8073 -0.7133  0.9748
 7905TIP3    H223677   0.202   5.284   5.252 -0.8465  1.2707 -0.2610
 7906TIP3   OH223678   6.198   4.249   1.877 -0.2723  1.0509  0.6752
 7906TIP3    H123679   6.244   4.169   1.851 -0.3185  1.2560 -0.0667
 7906TIP3    H223680   6.180   4.294   1.794 -0.1622  1.8753  1.0901
 7907TIP3   OH223681   7.420   6.366   5.484  0.2586 -0.0218  0.5491
 7907TIP3    H123682   7.376   6.372   5.569  1.2823  1.3572  0.9907
 7907TIP3    H223683   7.373   6.296   5.438  0.9897 -2.2191  3.0012
 7908TIP3   OH223684   6.985   6.092   1.956 -0.6880  0.4609  0.1141
 7908TIP3    H123685   6.926   6.023   1.986 -0.8544  0.7053  0.3465
 7908TIP3    H223686   6.967   6.167   2.013  0.5979  0.2054  0.8892
 7909TIP3   OH223687   7.659   6.130   3.112  0.0744  0.2973 -0.3803
 7909TIP3    H123688   7.729   6.192   3.134 -1.4320  0.7920  3.4670
 7909TIP3    H223689   7.582   6.185   3.100 -0.7604 -0.6284  0.6815
 7910TIP3   OH223690   5.668   6.139   5.580  0.6559 -0.3612  0.7043
 7910TIP3    H123691   5.690   6.232   5.577 -3.3761  0.7197  1.7005
 7910TIP3    H223692   5.572   6.137   5.579  0.6708 -4.6335 -2.0729
 7911TIP3   OH223693   0.041   3.968   5.233 -0.2384 -0.0373  0.2877
 7911TIP3    H123694   0.038   4.007   5.146 -0.4663  0.3963  0.4911
 7911TIP3    H223695   0.032   3.874   5.217  0.9850 -0.0744 -0.2474
 7912TIP3   OH223696   7.214   7.344   2.935 -0.1653 -0.0403  0.5048
 7912TIP3    H123697   7.205   7.396   3.015 -2.9614 -0.1877  0.3621
 7912TIP3    H223698   7.291   7.291   2.949  0.9846  1.9329  1.9463
 7913TIP3   OH223699   3.911   4.180   4.966 -0.0979  0.0567  0.1210
 7913TIP3    H123700   3.860   4.254   4.933  1.2029  0.2381 -1.5937
 7913TIP3    H223701   3.997   4.190   4.925  0.3711 -1.9162  0.5427
 7914TIP3   OH223702   6.422   6.518   2.999  0.0667  0.4295  0.0515
 7914TIP3    H123703   6.501   6.492   3.047 -0.0076  1.2310  0.6149
 7914TIP3    H223704   6.375   6.436   2.985  0.3822  0.1072  0.8289
 7915TIP3   OH223705   0.167   6.962   3.429  0.5639 -0.0690  0.6369
 7915TIP3    H123706   0.186   7.022   3.501  0.5108  1.0751 -0.2931
 7915TIP3    H223707   0.182   7.013   3.350  1.3564 -1.5419 -0.1944
 7916TIP3   OH223708   0.487   6.292   2.567  0.2229  0.2343 -0.4580
 7916TIP3    H123709   0.474   6.202   2.597 -2.0968  0.1568 -1.5884
 7916TIP3    H223710   0.400   6.332   2.573  1.5808  2.9966  1.8696
 7917TIP3   OH223711   4.132   6.125   3.807  0.1381  0.3834 -0.2345
 7917TIP3    H123712   4.077   6.196   3.839 -2.1923 -0.7402 -1.6542
 7917TIP3    H223713   4.071   6.053   3.788  2.3127 -1.6194  0.0890
 7918TIP3   OH223714   7.173   6.758   2.353  0.5449 -0.4114  0.2302
 7918TIP3    H123715   7.146   6.792   2.268  2.5695  2.5726  0.7162
 7918TIP3    H223716   7.098   6.775   2.410  0.6137  1.0643 -0.1026
 7919TIP3   OH223717   6.718   0.797   4.074  0.0014 -0.1148 -0.3519
 7919TIP3    H123718   6.659   0.797   4.149  0.1272  0.5132 -0.2480
 7919TIP3    H223719   6.752   0.708   4.070 -2.2644 -0.9774 -1.4583
 7920TIP3   OH223720   0.304   1.159   3.637 -0.4971 -0.4342  0.0973
 7920TIP3    H123721   0.379   1.106   3.664  0.3008  1.0141  0.8435
 7920TIP3    H223722   0.247   1.160   3.714  0.8140  2.0183  1.1290
 7921TIP3   OH223723   7.140   6.631   4.107 -0.6598  0.1300  0.0691
 7921TIP3    H123724   7.221   6.675   4.081 -0.4704  1.1135  2.2260
 7921TIP3    H223725   7.166   6.540   4.123 -0.4434 -0.0780 -1.3562
 7922TIP3   OH223726   5.933   6.231   4.706 -0.9437  0.0406 -0.1622
 7922TIP3    H123727   6.016   6.232   4.658 -1.4691  0.4028 -1.0551
 7922TIP3    H223728   5.921   6.322   4.734 -0.3152 -0.2804  1.2375
 7923TIP3   OH223729   1.451   7.064   5.332 -0.3835 -0.2197  0.4538
 7923TIP3    H123730   1.486   7.135   5.386 -1.1407  0.6056 -0.1256
 7923TIP3    H223731   1.392   7.017   5.390 -0.2556 -0.0786  0.7014
 7924TIP3   OH223732   1.540   6.528   4.500  0.1202 -0.3276  0.4677
 7924TIP3    H123733   1.580   6.563   4.580 -1.2031  0.8870  0.6220
 7924TIP3    H223734   1.577   6.581   4.429  0.1944 -0.4430  0.4192
 7925TIP3   OH223735   6.118   5.886   4.689  0.0026 -0.3085 -0.1770
 7925TIP3    H123736   6.141   5.959   4.746  1.8410 -0.0136 -1.2883
 7925TIP3    H223737   6.192   5.826   4.696 -0.1271 -0.6471 -1.6428
 7926TIP3   OH223738   0.324   0.740   4.285 -0.0069  0.4576  0.2217
 7926TIP3    H123739   0.338   0.734   4.191 -1.0142 -0.4139  0.1284
 7926TIP3    H223740   0.235   0.708   4.299  1.0019 -1.7941  1.7346
 7927TIP3   OH223741   1.349   0.323   3.136  0.0196 -0.2849 -0.2436
 7927TIP3    H123742   1.255   0.331   3.152  0.2043  0.5580  0.3968
 7927TIP3    H223743   1.354   0.283   3.049 -0.9340 -0.8010 -0.0708
 7928TIP3   OH223744   1.596   0.597   2.953 -0.0535 -0.0541  0.1075
 7928TIP3    H123745   1.508   0.601   2.914 -0.3000  1.6353  0.7832
 7928TIP3    H223746   1.593   0.661   3.024  0.5138 -2.7393  2.6417
 7929TIP3   OH223747   1.087   0.628   4.963 -0.3223  0.0253  0.2386
 7929TIP3    H123748   1.013   0.579   4.928 -0.0636  0.5110 -1.0087
 7929TIP3    H223749   1.160   0.607   4.905  0.0412  1.0894  0.3017
 7930TIP3   OH223750   4.947   0.100   3.705  0.1059  0.2942  0.2738
 7930TIP3    H123751   4.914   0.170   3.648 -1.2123  1.0082  1.8696
 7930TIP3    H223752   5.037   0.086   3.677  0.1814  2.1990 -0.4900
 7931TIP3   OH223753   0.949   0.218   2.703  0.0057 -0.3611 -0.1996
 7931TIP3    H123754   0.886   0.153   2.671 -0.5717  0.3882 -0.6222
 7931TIP3    H223755   0.976   0.266   2.624 -0.8729  1.0176  0.3224
 7932TIP3   OH223756   6.608   0.454   3.770 -0.2817  0.2024  0.1481
 7932TIP3    H123757   6.684   0.512   3.765  0.1729 -0.3931  0.0571
 7932TIP3    H223758   6.641   0.375   3.813 -0.4750 -0.6555 -1.2419
 7933TIP3   OH223759   7.285   3.540   2.725 -0.5835  0.0258  0.2950
 7933TIP3    H123760   7.345   3.483   2.678 -1.5219 -0.2158 -0.6390
 7933TIP3    H223761   7.232   3.480   2.779 -1.2486  0.0443 -0.3243
 7934TIP3   OH223762   6.585   6.182   5.406  0.5853  0.0335 -0.5041
 7934TIP3    H123763   6.664   6.129   5.418 -0.8510 -2.0378 -0.0424
 7934TIP3    H223764   6.577   6.191   5.311  1.9239  1.1339 -0.5346
 7935TIP3   OH223765   7.165   5.229   2.700 -0.2496  0.0618  0.1014
 7935TIP3    H123766   7.238   5.217   2.640 -0.4776 -0.4137 -0.0814
 7935TIP3    H223767   7.173   5.319   2.730 -1.0442  0.8033 -1.8281
 7936TIP3   OH223768   2.483   6.256   5.344  0.5518  0.1382  0.0563
 7936TIP3    H123769   2.539   6.214   5.279 -1.3107  0.1005 -1.5623
 7936TIP3    H223770   2.482   6.195   5.418  3.5398  0.6738  0.6035
 7937TIP3   OH223771   5.241   7.239   3.811 -0.1128 -0.0020 -0.0728
 7937TIP3    H123772   5.159   7.219   3.856 -1.0303  1.8832 -0.8778
 7937TIP3    H223773   5.269   7.154   3.774 -1.2574 -0.8089  0.8988
 7938TIP3   OH223774   5.525   4.572   2.958 -0.4534  0.0078 -0.2075
 7938TIP3    H123775   5.498   4.624   2.882 -0.4349  0.7114  0.2543
 7938TIP3    H223776   5.612   4.540   2.936 -0.2900  0.5298 -0.3278
 7939TIP3   OH223777   5.506   6.087   5.150  0.5986 -0.4038 -0.4333
 7939TIP3    H123778   5.478   6.157   5.091  0.6563  1.3227  1.5244
 7939TIP3    H223779   5.601   6.095   5.154  0.6966 -1.2730 -1.0226
 7940TIP3   OH223780   6.346   7.358   3.910  0.3436 -0.3624 -0.5792
 7940TIP3    H123781   6.380   7.269   3.920  1.2594  0.0611  0.1795
 7940TIP3    H223782   6.294   7.374   3.988 -0.2653 -0.4228 -0.9698
 7941TIP3   OH223783   6.908   0.217   4.083  0.1569 -0.3985 -0.5188
 7941TIP3    H123784   6.936   0.129   4.058  1.3131 -0.3501  0.5507
 7941TIP3    H223785   6.942   0.229   4.172  0.6617  1.4117 -0.9268
 7942TIP3   OH223786   5.726   6.127   4.428 -0.2289  0.0280  0.7424
 7942TIP3    H123787   5.768   6.207   4.460  0.9629 -0.7411  1.1789
 7942TIP3    H223788   5.798   6.076   4.391 -1.1448 -0.3760 -0.5127
 7943TIP3   OH223789   6.199   0.543   5.446  0.1840 -0.0975 -0.1385
 7943TIP3    H123790   6.142   0.600   5.395  0.3314 -0.0781 -0.2835
 7943TIP3    H223791   6.271   0.523   5.387 -0.0676 -0.7538 -0.2222
 7944TIP3   OH223792   2.934   6.948   2.105  0.1416 -0.5845 -0.7154
 7944TIP3    H123793   3.019   6.945   2.149 -1.0079  2.1379  1.8248
 7944TIP3    H223794   2.907   6.856   2.100  2.9828 -1.4649 -1.1675
 7945TIP3   OH223795   4.403   7.222   2.128  0.2408  0.0960 -0.2018
 7945TIP3    H123796   4.433   7.133   2.145 -1.1479 -0.5067 -0.8274
 7945TIP3    H223797   4.356   7.216   2.044 -0.9028  1.1579  0.3457
 7946TIP3   OH223798   6.516   6.220   5.100  0.2934 -0.2336  0.5398
 7946TIP3    H123799   6.495   6.159   5.029  1.2832 -0.7883  0.7051
 7946TIP3    H223800   6.560   6.293   5.056  1.1028 -0.6774  0.5918
 7947TIP3   OH223801   4.770   6.843   2.484  0.7498  0.2276 -0.2896
 7947TIP3    H123802   4.829   6.903   2.438  1.9917  0.0370  1.0273
 7947TIP3    H223803   4.697   6.899   2.511  2.1930  1.3172  1.4687
 7948TIP3   OH223804   6.930   1.509   2.698  0.0355 -0.5522 -0.1956
 7948TIP3    H123805   6.924   1.470   2.610  1.0601 -1.1976  0.0163
 7948TIP3    H223806   6.865   1.580   2.697 -1.0751 -1.5482 -0.9597
 7949TIP3   OH223807   6.586   3.932   5.987  0.2372 -0.2976 -0.1348
 7949TIP3    H123808   6.589   3.928   5.892 -1.0871 -0.4619 -0.1809
 7949TIP3    H223809   6.516   3.996   6.006 -0.2615 -1.0789  0.7154
 7950TIP3   OH223810   0.609   0.153   1.927  0.1088  0.2896 -0.6762
 7950TIP3    H123811   0.651   0.239   1.925 -0.7540  0.7895  0.9852
 7950TIP3    H223812   0.539   0.163   1.991 -0.7485 -1.3278 -1.3392
 7951TIP3   OH223813   7.643   6.408   4.741  0.0167 -0.7426 -0.4353
 7951TIP3    H123814   7.600   6.464   4.676  1.9738 -1.0444 -2.0440
 7951TIP3    H223815   7.643   6.321   4.702 -0.6362 -1.3585  0.9047
 7952TIP3   OH223816   3.237   0.153   4.473  0.3928 -0.5579  0.3839
 7952TIP3    H123817   3.195   0.077   4.514 -1.5911  0.8885  1.0566
 7952TIP3    H223818   3.330   0.129   4.469  0.0351 -2.3498  2.0833
 7953TIP3   OH223819   7.562   6.143   1.398 -0.2937 -0.2898 -0.8230
 7953TIP3    H123820   7.565   6.108   1.309 -0.2093  2.9898 -2.1556
 7953TIP3    H223821   7.652   6.171   1.416 -0.6494  0.5856 -0.3617
 7954TIP3   OH223822   0.615   7.075   1.791  0.3509  0.3860  0.1042
 7954TIP3    H123823   0.703   7.099   1.760  0.8594 -0.5063  0.8087
 7954TIP3    H223824   0.631   7.005   1.855 -0.8652  0.3534  0.3821
 7955TIP3   OH223825   7.210   6.657   1.140  0.2776 -0.0522  0.4874
 7955TIP3    H123826   7.115   6.664   1.140  0.3020  0.2706  0.5190
 7955TIP3    H223827   7.238   6.709   1.215  0.6676  2.2177 -1.1987
 7956TIP3   OH223828   1.215   0.561   2.192 -0.8292 -0.4244 -0.6549
 7956TIP3    H123829   1.187   0.471   2.211 -1.6869  0.2942  1.6121
 7956TIP3    H223830   1.198   0.609   2.273  0.5670  1.5713 -1.5189
 7957TIP3   OH223831   3.814   0.151   6.331 -0.2763 -0.0381 -0.1802
 7957TIP3    H123832   3.839   0.196   6.250 -0.7598 -0.9120 -0.8300
 7957TIP3    H223833   3.773   0.220   6.384 -2.1639  0.0628 -1.6723
 7958TIP3   OH223834   0.333   6.023   1.268 -0.5888 -0.4652 -1.0526
 7958TIP3    H123835   0.421   5.998   1.241 -1.0248 -1.3727 -1.6709
 7958TIP3    H223836   0.345   6.061   1.355  0.3426 -1.1262 -0.8771
 7959TIP3   OH223837   1.476   0.790   3.147 -0.0264  0.2171 -0.2785
 7959TIP3    H123838   1.384   0.816   3.141 -0.3654 -1.1659 -1.3604
 7959TIP3    H223839   1.525   0.871   3.132 -1.0583  0.6293 -1.5049
 7960TIP3   OH223840   7.435   6.113   1.681  0.1962  0.4071 -0.3060
 7960TIP3    H123841   7.350   6.110   1.637 -0.8554 -1.9150  1.7328
 7960TIP3    H223842   7.481   6.036   1.648  0.3111 -0.0248  0.8288
 7961TIP3   OH223843   3.166   0.968   2.243  0.1886 -0.3617  0.3813
 7961TIP3    H123844   3.092   0.971   2.303  1.4304  1.4774  1.8902
 7961TIP3    H223845   3.189   0.876   2.237 -0.1998 -0.6191  2.4516
 7962TIP3   OH223846   7.723   6.484   1.594 -0.0212  0.4906  0.5034
 7962TIP3    H123847   7.818   6.474   1.599 -0.0618  0.0316  0.3736
 7962TIP3    H223848   7.688   6.414   1.649 -0.3015  0.1065 -0.1466
 7963TIP3   OH223849   7.650   3.960   4.167  0.0618  0.0096 -0.1852
 7963TIP3    H123850   7.615   3.995   4.085 -0.5814  2.9005  1.2660
 7963TIP3    H223851   7.607   4.011   4.235  2.8819 -0.2322  1.8540
 7964TIP3   OH223852   6.422   6.612   2.230  0.1099  0.0303 -0.2328
 7964TIP3    H123853   6.422   6.526   2.187 -1.6410  0.2085 -0.6321
 7964TIP3    H223854   6.417   6.592   2.324  0.2145 -0.3164 -0.3014
 7965TIP3   OH223855   0.055   7.156   3.697 -1.2075  0.3518 -0.0880
 7965TIP3    H123856   0.062   7.206   3.778  0.2041 -0.4376  0.2794
 7965TIP3    H223857   0.145   7.138   3.671 -1.6598 -0.0699 -1.4224
 7966TIP3   OH223858   0.027   0.209   0.929  0.4117 -0.3851 -0.4091
 7966TIP3    H123859  -0.040   0.261   0.885 -0.5934 -0.8872  0.5299
 7966TIP3    H223860   0.104   0.266   0.930  0.5571 -0.4637 -3.0834
 7967TIP3   OH223861   6.195   1.163   4.605 -0.5669  0.0049  0.0402
 7967TIP3    H123862   6.130   1.171   4.535 -0.8221 -0.4331  0.2248
 7967TIP3    H223863   6.205   1.069   4.617 -0.6119  0.0815  0.6784
 7968TIP3   OH223864   7.229   7.083   4.054 -0.5111  0.1257 -0.3967
 7968TIP3    H123865   7.280   7.146   4.104  1.2280 -0.3842 -1.4964
 7968TIP3    H223866   7.195   7.021   4.119  1.9657 -0.7091  0.1406
 7969TIP3   OH223867   3.762   1.310   2.831  0.2026  0.6905 -0.0159
 7969TIP3    H123868   3.729   1.298   2.742 -0.2340 -0.2958  0.2747
 7969TIP3    H223869   3.826   1.240   2.843  1.6656  1.9924 -0.2251
 7970TIP3   OH223870   3.141   0.015   1.170 -0.3291 -0.0791  0.0312
 7970TIP3    H123871   3.158   0.000   1.076  2.8244  1.1740  0.3433
 7970TIP3    H223872   3.111   0.105   1.175 -0.3862 -0.1089  0.2148
 7971TIP3   OH223873   0.676   6.724   3.010 -0.7102 -0.0604  0.3380
 7971TIP3    H123874   0.655   6.761   2.925 -1.4543 -0.3687  0.3893
 7971TIP3    H223875   0.734   6.651   2.991 -2.9629 -1.7820 -0.1127
 7972TIP3   OH223876   2.926   0.004   4.314  0.6989  0.5218  0.2129
 7972TIP3    H123877   2.908  -0.033   4.227 -1.3734  0.8495  0.4888
 7972TIP3    H223878   2.989   0.074   4.297  0.3233  0.5734 -1.0177
 7973TIP3   OH223879   7.588   7.218   3.794 -0.3092  0.6082 -0.0560
 7973TIP3    H123880   7.660   7.197   3.734  0.1582 -0.4411  0.8524
 7973TIP3    H223881   7.509   7.205   3.741  0.1532  2.7474 -1.3645
 7974TIP3   OH223882   5.421   5.297   1.541  0.3895  0.1507  0.4099
 7974TIP3    H123883   5.479   5.372   1.529  2.3390 -1.6029 -1.6524
 7974TIP3    H223884   5.360   5.302   1.467  0.1634  0.0222  0.5882
 7975TIP3   OH223885   2.281   0.086   3.171 -0.2285 -0.5371 -0.4804
 7975TIP3    H123886   2.360   0.033   3.176 -0.4849 -0.8500  0.5152
 7975TIP3    H223887   2.209   0.023   3.177 -0.5429 -0.2202 -0.9096
 7976TIP3   OH223888   7.797   5.444   3.242 -0.0243 -0.4481 -0.0211
 7976TIP3    H123889   7.722   5.502   3.233  1.0011  0.8104 -0.5318
 7976TIP3    H223890   7.870   5.492   3.204  0.5752 -2.6132 -1.7040
 7977TIP3   OH223891   7.121   6.245   2.501  0.0124 -0.0789  0.3238
 7977TIP3    H123892   7.177   6.216   2.429  0.1941 -0.1230  0.4822
 7977TIP3    H223893   7.152   6.333   2.522 -0.3087  0.0927  0.0751
 7978TIP3   OH223894   0.664   0.125   3.797 -0.3547  0.5306  0.1915
 7978TIP3    H123895   0.732   0.190   3.786 -0.6056  0.4368 -2.0492
 7978TIP3    H223896   0.711   0.045   3.820  0.2864  0.5342 -1.0676
 7979TIP3   OH223897   0.956   0.521   1.423  0.1840  0.2366 -0.1706
 7979TIP3    H123898   0.991   0.599   1.381  2.0300  0.3195  1.4547
 7979TIP3    H223899   1.020   0.453   1.404 -0.4751 -0.4332 -0.0195
 7980TIP3   OH223900   0.951   0.376   1.822 -0.0640  0.0481  0.0882
 7980TIP3    H123901   0.886   0.375   1.752 -1.2349 -0.1508  1.1574
 7980TIP3    H223902   0.948   0.465   1.856 -1.2742 -0.5130  1.4941
 7981TIP3   OH223903   7.470   5.946   3.750  0.0963 -0.0756  0.1331
 7981TIP3    H123904   7.533   5.887   3.707  0.2900  0.5679 -0.4875
 7981TIP3    H223905   7.441   6.004   3.680 -1.4647 -0.5783  0.3366
 7982TIP3   OH223906   7.084   5.491   3.050  0.5446 -0.6271  0.4612
 7982TIP3    H123907   7.004   5.441   3.067 -0.0514  0.2769  0.3580
 7982TIP3    H223908   7.099   5.482   2.956  1.3265 -1.9111  0.6997
 7983TIP3   OH223909   7.269   7.153   3.776 -0.0007 -0.3342 -0.0527
 7983TIP3    H123910   7.255   7.245   3.755  1.1620 -0.2171 -0.3361
 7983TIP3    H223911   7.254   7.147   3.870  2.0660  0.5662  0.3569
 7984TIP3   OH223912   7.783   6.346   4.371 -0.2449 -0.4982 -0.3731
 7984TIP3    H123913   7.803   6.391   4.453 -0.7310  1.0754 -1.1103
 7984TIP3    H223914   7.693   6.317   4.381 -0.5059  0.2329 -0.5906
 7985TIP3   OH223915   0.008   5.966   4.110  0.2799  0.0448 -0.4045
 7985TIP3    H123916   0.044   5.890   4.064 -0.7049 -0.3542 -0.5084
 7985TIP3    H223917   0.052   5.965   4.195  1.5301  0.3414 -1.0284
 7986TIP3   OH223918   0.232   5.706   2.579 -0.3840 -0.4822 -0.4189
 7986TIP3    H123919   0.269   5.786   2.541 -0.5246 -0.3115 -0.1976
 7986TIP3    H223920   0.155   5.736   2.627 -0.1987 -0.6936  0.0121
 7987TIP3   OH223921   6.661   3.995   4.539  0.1499 -0.3720 -0.7270
 7987TIP3    H123922   6.678   3.942   4.461  1.1964  1.4929 -1.7922
 7987TIP3    H223923   6.731   4.060   4.540  1.6834 -1.9215  3.2128
 7988TIP3   OH223924   0.097   5.984   2.882 -0.1058 -0.1123 -0.1768
 7988TIP3    H123925   0.027   6.030   2.835  1.3258  1.2807 -0.9922
 7988TIP3    H223926   0.088   6.014   2.973  0.1670  0.9825 -0.5046
 7989TIP3   OH223927   6.228   4.928   1.206  0.3659 -0.2902  0.0574
 7989TIP3    H123928   6.268   4.993   1.148  0.1522  0.3597  0.6290
 7989TIP3    H223929   6.295   4.860   1.215  0.6030 -0.1371 -0.5218
 7990TIP3   OH223930   5.463   2.199   5.539  0.3031 -0.1311  0.3516
 7990TIP3    H123931   5.441   2.290   5.561 -0.8561 -0.4930  0.7436
 7990TIP3    H223932   5.503   2.204   5.452 -1.7774  0.5400 -0.6000
 7991TIP3   OH223933   6.665   6.178   1.923  1.0850 -0.2014 -0.3613
 7991TIP3    H123934   6.625   6.239   1.861  0.5381 -0.1159  0.0715
 7991TIP3    H223935   6.712   6.115   1.867 -0.2595 -0.7282 -0.9235
 7992TIP3   OH223936   7.603   7.043   3.193 -0.2243  1.1377  0.7973
 7992TIP3    H123937   7.692   7.020   3.221  0.7287  2.6949 -0.8190
 7992TIP3    H223938   7.556   7.059   3.274  0.6875 -0.6973  1.7215
 7993TIP3   OH223939   2.318   1.247   1.860  0.0193  0.3100  0.0319
 7993TIP3    H123940   2.269   1.306   1.804  0.9538  0.5851 -0.5126
 7993TIP3    H223941   2.252   1.192   1.901 -0.6744  0.0779 -1.3774
 7994TIP3   OH223942   7.018   7.292   4.166 -0.2992  0.8463  0.2105
 7994TIP3    H123943   6.927   7.262   4.170  0.2128 -1.0572 -1.5080
 7994TIP3    H223944   7.064   7.239   4.230 -0.1176  0.7297 -0.0149
 7995TIP3   OH223945   3.138   0.581   5.542 -1.2069 -1.1106  0.8693
 7995TIP3    H123946   3.125   0.589   5.637 -1.2148 -0.8687  0.8479
 7995TIP3    H223947   3.061   0.623   5.503  0.1210  1.3168  0.7370
 7996TIP3   OH223948   0.242   5.068   3.754  0.3238  0.1386 -0.2419
 7996TIP3    H123949   0.302   5.124   3.705  1.0340 -1.3515 -1.0822
 7996TIP3    H223950   0.156   5.089   3.718  0.4306  1.5247  0.2506
 7997TIP3   OH223951   2.940   0.628   1.723  0.3117 -0.1898 -0.3549
 7997TIP3    H123952   2.980   0.541   1.733  0.2051 -0.4699 -2.1891
 7997TIP3    H223953   2.987   0.683   1.785  0.3595 -1.5682  0.8647
 7998TIP3   OH223954   0.715   6.774   2.547  0.2119 -0.6765 -0.3509
 7998TIP3    H123955   0.715   6.738   2.636 -0.7781  1.5157  0.5772
 7998TIP3    H223956   0.781   6.843   2.550  0.3143 -0.7282 -1.3866
 7999TIP3   OH223957   7.512   5.582   3.828  0.2869  0.2955 -0.0896
 7999TIP3    H123958   7.564   5.624   3.760  0.5278 -0.4863 -0.3939
 7999TIP3    H223959   7.497   5.651   3.893 -0.3962  1.1852 -1.1780
 8000TIP3   OH223960   2.015   5.663   2.604  0.4730 -0.5225  0.3032
 8000TIP3    H123961   2.051   5.745   2.636 -1.1380  0.2229  0.2501
 8000TIP3    H223962   2.000   5.611   2.684  2.3635 -1.1583  0.2709
 8001TIP3   OH223963   0.436   6.490   3.549 -0.3372  0.3655  0.2046
 8001TIP3    H123964   0.457   6.397   3.550 -0.1625  0.3505 -2.1863
 8001TIP3    H223965   0.341   6.493   3.540 -0.5790  0.4410  2.5358
 8002TIP3   OH223966   0.378   6.573   5.517 -0.4563 -0.2311  0.1034
 8002TIP3    H123967   0.292   6.611   5.535  0.0246  1.1331 -0.4339
 8002TIP3    H223968   0.360   6.497   5.462 -1.2378  0.6433 -0.8644
 8003TIP3   OH223969   6.235   4.928   5.720  0.5123  0.2122  0.4453
 8003TIP3    H123970   6.280   4.944   5.803 -0.7417  1.3573  0.9232
 8003TIP3    H223971   6.265   4.841   5.694  1.3970  0.0859  1.7840
 8004TIP3   OH223972   5.884   5.008   4.825  0.3380 -0.4817  0.0598
 8004TIP3    H123973   5.975   5.033   4.839  0.1213  0.7117 -0.6396
 8004TIP3    H223974   5.889   4.936   4.761  0.7322  0.2320 -0.7241
 8005TIP3   OH223975   4.931   4.607   2.765  0.2051  0.0976 -0.4637
 8005TIP3    H123976   4.970   4.687   2.800  0.9025 -0.8011  0.8490
 8005TIP3    H223977   4.989   4.537   2.794 -1.6029 -1.1268  0.3194
 8006TIP3   OH223978   7.191   6.235   4.357  0.0972  0.5803 -0.3080
 8006TIP3    H123979   7.199   6.181   4.278 -0.9890  1.3624 -0.9577
 8006TIP3    H223980   7.225   6.179   4.427 -0.7648 -0.8681 -1.0106
 8007TIP3   OH223981   6.965   6.889   2.465 -0.0358 -0.7384  0.2356
 8007TIP3    H123982   6.970   6.980   2.436  0.9569 -0.9869 -0.4215
 8007TIP3    H223983   6.876   6.878   2.497  0.1628  0.7773  1.3497
 8008TIP3   OH223984   6.383   5.694   3.820  0.2961 -0.1681 -0.4452
 8008TIP3    H123985   6.409   5.742   3.899 -1.3440  1.0626 -0.6122
 8008TIP3    H223986   6.341   5.615   3.853  1.7427 -0.8249 -0.1407
 8009TIP3   OH223987   0.157   5.542   5.769 -0.2225 -0.2090  0.6206
 8009TIP3    H123988   0.135   5.587   5.850 -1.6337  1.9437 -0.9092
 8009TIP3    H223989   0.084   5.481   5.755 -0.9590  0.8026 -0.0118
 8010TIP3   OH223990   2.257   7.091   4.051 -0.1302  0.1741 -0.2813
 8010TIP3    H123991   2.334   7.144   4.072  1.8769 -2.2098 -1.3645
 8010TIP3    H223992   2.271   7.062   3.961 -1.8572 -1.0729 -0.1803
 8011TIP3   OH223993   0.531   5.730   4.754 -0.3580  0.1808  0.1053
 8011TIP3    H123994   0.500   5.641   4.769  0.0894  0.1420  0.7976
 8011TIP3    H223995   0.622   5.720   4.725 -0.0170  0.4529  1.0653
 8012TIP3   OH223996   1.820   0.318   1.675  0.2386 -0.0702 -0.6815
 8012TIP3    H123997   1.847   0.259   1.605 -0.3309  2.8681 -3.5154
 8012TIP3    H223998   1.885   0.388   1.674 -2.1595  2.2498 -1.2692
 8013TIP3   OH223999   0.447   4.320   3.812  0.3178  0.1083 -0.0998
 8013TIP3    H124000   0.541   4.326   3.831  0.0043 -1.3082  1.9976
 8013TIP3    H224001   0.420   4.411   3.799  2.2862  0.4177 -2.4294
 8014TIP3   OH224002   0.551   7.262   4.534 -0.1815 -0.0555  0.2475
 8014TIP3    H124003   0.560   7.182   4.587  0.7547 -1.6547 -2.2583
 8014TIP3    H224004   0.523   7.231   4.448  1.4670  2.2060 -1.1652
 8015TIP3   OH224005   5.566   4.600   3.214  0.0726 -0.0054  0.1876
 8015TIP3    H124006   5.534   4.575   3.127  0.9251 -0.4949  0.0125
 8015TIP3    H224007   5.585   4.693   3.206 -4.2661  1.0528  1.1860
 8016TIP3   OH224008   7.476   6.591   2.411  0.3290 -0.2368  0.1005
 8016TIP3    H124009   7.463   6.684   2.393 -0.3355 -0.2676  0.4140
 8016TIP3    H224010   7.541   6.589   2.482  1.1015 -0.0484 -0.5889
 8017TIP3   OH224011   1.124   4.779   5.244  0.3506 -0.3340  0.4098
 8017TIP3    H124012   1.050   4.813   5.294  1.4411 -0.5181  2.1905
 8017TIP3    H224013   1.199   4.786   5.304  1.1863 -3.0415 -0.2183
 8018TIP3   OH224014   4.265   5.882   0.901  0.2555 -0.0842 -0.0163
 8018TIP3    H124015   4.244   5.923   0.985  0.0607  0.2184 -0.2101
 8018TIP3    H224016   4.340   5.825   0.920 -1.4584 -2.1043  0.9487
 8019TIP3   OH224017   7.227   6.588   2.783  0.1950  0.2151 -0.5397
 8019TIP3    H124018   7.218   6.521   2.715 -0.4368  0.7996 -1.0462
 8019TIP3    H224019   7.282   6.655   2.743 -2.1454  1.7054 -1.4072
 8020TIP3   OH224020   7.147   5.641   3.828 -0.2833  0.0546 -0.2947
 8020TIP3    H124021   7.120   5.653   3.737  1.5920 -0.5847 -0.9599
 8020TIP3    H224022   7.089   5.573   3.861 -0.5058 -0.2329 -1.2497
 8021TIP3   OH224023   7.123   5.060   4.984 -0.0467 -0.8112 -0.1070
 8021TIP3    H124024   7.162   4.994   5.041 -0.8465 -0.1716  1.1765
 8021TIP3    H224025   7.157   5.143   5.016  0.1881 -0.5045 -1.1134
 8022TIP3   OH224026   2.257   6.228   5.037  0.4466  0.1396 -0.0427
 8022TIP3    H124027   2.213   6.285   5.100  1.3062  2.0680 -1.1299
 8022TIP3    H224028   2.284   6.152   5.088 -1.7557  0.1553  1.2003
 8023TIP3   OH224029   5.891   2.205   4.974  0.8927  0.0279 -0.2230
 8023TIP3    H124030   5.899   2.252   5.057  2.5235  0.5687 -0.6643
 8023TIP3    H224031   5.973   2.156   4.966 -0.4296 -2.2423 -0.1845
 8024TIP3   OH224032   7.557   6.858   3.976 -0.6871  0.2350  0.0023
 8024TIP3    H124033   7.476   6.807   3.974 -1.1490  0.9801 -1.4439
 8024TIP3    H224034   7.616   6.809   4.033 -0.6443 -2.6229 -2.3714
 8025TIP3   OH224035   0.545   6.917   5.005  0.0956 -0.0818  0.0630
 8025TIP3    H124036   0.573   6.880   4.921 -0.0603 -0.2056  0.0659
 8025TIP3    H224037   0.591   6.866   5.070  0.3970  0.1656  0.0466
 8026TIP3   OH224038   3.303   6.306   4.711 -0.3664  0.1609 -0.3080
 8026TIP3    H124039   3.255   6.253   4.648  0.7374 -1.4490  0.1934
 8026TIP3    H224040   3.236   6.359   4.753 -1.3575 -0.1449 -1.4669
 8027TIP3   OH224041   3.331   0.467   4.738 -0.3064  0.5630 -0.3830
 8027TIP3    H124042   3.297   0.473   4.648 -0.9200  0.7463 -0.1392
 8027TIP3    H224043   3.424   0.490   4.729 -0.6919  2.0839 -0.7630
 8028TIP3   OH224044   6.308   7.303   5.440  0.0694 -0.1025  1.0715
 8028TIP3    H124045   6.397   7.321   5.408 -0.3370  0.7606  0.3974
 8028TIP3    H224046   6.279   7.228   5.388  0.0809  0.1781  0.6530
 8029TIP3   OH224047   3.161   5.554   3.620  0.1080 -0.4553  0.1870
 8029TIP3    H124048   3.070   5.560   3.591  0.3948  0.1866 -0.6084
 8029TIP3    H224049   3.212   5.543   3.539  0.9175  1.3154  0.4254
 8030TIP3   OH224050   2.254   5.528   3.196  0.0370  0.0227 -0.1560
 8030TIP3    H124051   2.300   5.447   3.221 -0.7600 -1.0162 -1.9424
 8030TIP3    H224052   2.182   5.535   3.259  0.4798 -0.3111  0.3937
 8031TIP3   OH224053   2.272   0.378   5.353  0.5352  0.2155  0.1122
 8031TIP3    H124054   2.258   0.417   5.267  1.6079  0.5730  0.0886
 8031TIP3    H224055   2.217   0.300   5.353 -0.0027  0.5894 -0.6389
 8032TIP3   OH224056   2.872   5.528   3.616  0.8857  0.1217  0.0413
 8032TIP3    H124057   2.801   5.509   3.555 -1.4086  1.7719  2.0732
 8032TIP3    H224058   2.915   5.444   3.630 -1.0121 -1.0325 -0.8235
 8033TIP3   OH224059   4.450   0.762   3.901 -0.8799 -0.1897 -0.0334
 8033TIP3    H124060   4.483   0.703   3.834 -0.0450  1.4877 -1.1480
 8033TIP3    H224061   4.491   0.732   3.982  0.2143 -0.6259 -0.7308
 8034TIP3   OH224062   2.199   4.859   3.977 -0.1484 -0.3459  0.0571
 8034TIP3    H124063   2.242   4.774   3.989 -0.3652 -0.5597 -0.6971
 8034TIP3    H224064   2.270   4.917   3.947 -0.0924 -0.3658  0.1514
 8035TIP3   OH224065   1.183   6.925   2.122  0.0501  0.2452 -0.2525
 8035TIP3    H124066   1.186   6.924   2.026 -0.7033  1.2097 -0.2881
 8035TIP3    H224067   1.090   6.924   2.144  0.2136 -2.9277  0.5308
 8036TIP3   OH224068   4.662   5.014   0.469  0.0116 -0.7812 -0.0892
 8036TIP3    H124069   4.706   5.095   0.492 -0.6979 -0.4934  0.2666
 8036TIP3    H224070   4.604   5.038   0.396 -0.9205 -0.7527  0.6566
 8037TIP3   OH224071   2.931   6.310   3.020  0.4043  0.2518 -0.0244
 8037TIP3    H124072   2.859   6.264   2.976 -0.3572 -0.2850  1.7048
 8037TIP3    H224073   3.009   6.286   2.971 -0.1512 -1.9509  0.1097
 8038TIP3   OH224074   3.030   0.579   3.146 -0.3517 -0.2981  0.0230
 8038TIP3    H124075   3.032   0.550   3.238  1.6744  0.6023  0.3022
 8038TIP3    H224076   3.005   0.672   3.151  0.6154 -0.0162 -0.2505
 8039TIP3   OH224077   3.988   0.752   4.845 -0.0632 -0.2126 -0.2810
 8039TIP3    H124078   4.064   0.809   4.835  0.0343 -0.6295 -2.1476
 8039TIP3    H224079   4.025   0.666   4.865 -0.1104 -0.1668  0.0168
 8040TIP3   OH224080   4.071  -0.020   4.155  0.0598 -0.1473 -0.4952
 8040TIP3    H124081   4.023   0.018   4.082 -0.7163 -1.3304 -0.6138
 8040TIP3    H224082   4.162   0.006   4.141 -0.6656  2.8934  0.2292
 8041TIP3   OH224083   0.685   5.421   3.281 -0.1007 -0.1868 -0.1971
 8041TIP3    H124084   0.757   5.476   3.250 -1.1980  1.7269  0.5705
 8041TIP3    H224085   0.670   5.450   3.371 -0.1640 -2.3379  0.5086
 8042TIP3   OH224086   1.083   6.119   4.737  0.1479  0.6044  0.0469
 8042TIP3    H124087   1.172   6.091   4.760  0.0572  1.2903  1.3021
 8042TIP3    H224088   1.091   6.214   4.728 -0.8940  0.9533  2.3653
 8043TIP3   OH224089   3.198   5.683   4.815 -0.3090 -0.0743 -0.0972
 8043TIP3    H124090   3.234   5.716   4.897 -1.0133 -0.8747  0.5353
 8043TIP3    H224091   3.107   5.714   4.814 -0.4724 -0.5609 -0.3030
 8044TIP3   OH224092   3.279   6.173   4.243  0.0445  0.1300 -0.2580
 8044TIP3    H124093   3.226   6.224   4.182  1.4909  0.7463 -1.0481
 8044TIP3    H224094   3.253   6.082   4.228 -1.6724  0.5168  0.2771
 8045TIP3   OH224095   4.212   1.988   4.665 -0.1363  0.1523  0.0762
 8045TIP3    H124096   4.287   1.957   4.613  0.2720  1.4516 -0.1234
 8045TIP3    H224097   4.146   2.010   4.599 -0.2814  0.0759  0.1975
 8046TIP3   OH224098   0.134   6.384   3.176 -0.0910 -0.1281 -0.3727
 8046TIP3    H124099   0.132   6.335   3.258  1.2673 -1.1352 -0.9032
 8046TIP3    H224100   0.220   6.364   3.139 -1.1565 -0.7076 -2.6421
 8047TIP3   OH224101   1.651   6.945   3.993  0.4190 -0.5327 -0.0396
 8047TIP3    H124102   1.590   6.872   3.974  0.0221 -0.1672 -0.1818
 8047TIP3    H224103   1.658   6.945   4.088  0.7757 -1.0472 -0.0625
 8048TIP3   OH224104   7.025   1.447   4.459  0.0739  0.4985 -0.4726
 8048TIP3    H124105   7.116   1.456   4.431  0.2870  0.9591  0.3432
 8048TIP3    H224106   6.995   1.366   4.418  0.8152  0.4084 -0.8437
 8049TIP3   OH224107   4.648   0.144   4.088 -0.3380  0.2089 -0.4395
 8049TIP3    H124108   4.681   0.221   4.041 -0.2932  0.4956  0.0444
 8049TIP3    H224109   4.590   0.181   4.155 -0.0058 -0.1567  0.0515
 8050TIP3   OH224110   1.444   6.016   4.928 -0.0006  0.3065  0.0927
 8050TIP3    H124111   1.486   6.025   4.842  2.9084  1.2792  1.5326
 8050TIP3    H224112   1.387   6.092   4.935 -0.3069  0.1869 -0.9881
 8051TIP3   OH224113   2.156   6.660   4.667 -0.2708 -0.4164  0.0931
 8051TIP3    H124114   2.126   6.627   4.752 -1.6961 -2.4143 -1.1305
 8051TIP3    H224115   2.192   6.582   4.623  3.5446  1.2288  0.1247
 8052TIP3   OH224116   0.368   6.240   4.168  0.0698  0.0673 -0.7490
 8052TIP3    H124117   0.309   6.305   4.207 -0.3426 -1.0383  0.5054
 8052TIP3    H224118   0.321   6.209   4.090 -0.4210  0.1476 -0.4880
 8053TIP3   OH224119   3.759   4.895   3.847  0.1665 -0.0213 -0.2083
 8053TIP3    H124120   3.696   4.887   3.919 -1.2637  1.6860 -1.2173
 8053TIP3    H224121   3.724   4.840   3.777 -0.2276  0.9386 -0.7751
 8054TIP3   OH224122   1.826   6.969   3.472  0.4863  0.3792  0.1922
 8054TIP3    H124123   1.738   6.976   3.434  0.8343 -0.8141 -0.9043
 8054TIP3    H224124   1.870   7.050   3.447  0.2923  0.1571 -0.9095
 8055TIP3   OH224125   0.109   0.064   5.357  0.0407 -0.0408  0.1633
 8055TIP3    H124126   0.068  -0.000   5.415  0.2984 -1.0238 -0.7321
 8055TIP3    H224127   0.196   0.078   5.394  0.6231 -1.5187 -0.6109
 8056TIP3   OH224128   5.707   5.778   0.034 -0.3047  0.6324  0.1291
 8056TIP3    H124129   5.744   5.842   0.095 -0.6891  1.0437 -0.0648
 8056TIP3    H224130   5.685   5.828  -0.044  1.5291 -0.1652 -0.9185
 8057TIP3   OH224131   2.833   1.546   5.142 -0.4194  0.1782 -0.1343
 8057TIP3    H124132   2.861   1.587   5.061 -1.2742 -0.9655 -1.0249
 8057TIP3    H224133   2.744   1.580   5.157 -0.8015 -0.6934 -0.4235
 8058TIP3   OH224134   3.149   6.880   3.422 -0.2689  0.0061 -0.3474
 8058TIP3    H124135   3.055   6.879   3.444 -0.2603 -1.2075 -0.3429
 8058TIP3    H224136   3.188   6.818   3.483  0.7687  1.5164  0.5745
 8059TIP3   OH224137   4.690   0.689   3.556 -0.5901  0.1378  0.0835
 8059TIP3    H124138   4.700   0.664   3.464 -0.0953  1.4554 -0.2233
 8059TIP3    H224139   4.618   0.635   3.588 -0.4134 -0.7075 -0.9317
 8060TIP3   OH224140   4.201   1.664   2.446 -0.1867 -0.4660  0.4936
 8060TIP3    H124141   4.130   1.638   2.505  0.9459 -1.0734  1.6200
 8060TIP3    H224142   4.280   1.657   2.499  0.6296  1.0893 -0.4832
 8061TIP3   OH224143   4.031   1.092   3.236 -0.2293 -0.2972  0.0255
 8061TIP3    H124144   3.955   1.146   3.214  1.9469  2.5850 -0.7295
 8061TIP3    H224145   4.057   1.051   3.153 -0.6951 -0.9409  0.1962
 8062TIP3   OH224146   4.798   1.057   4.309 -0.4702 -0.4101  0.1257
 8062TIP3    H124147   4.846   1.112   4.371  2.0291 -0.4534 -1.6646
 8062TIP3    H224148   4.706   1.074   4.328  0.2406  1.3531  2.2607
 8063TIP3   OH224149   7.392   5.690   1.370 -0.3218  0.5838  0.0204
 8063TIP3    H124150   7.378   5.630   1.297  1.0690  0.4649 -0.1530
 8063TIP3    H224151   7.328   5.760   1.356 -0.8048  0.0047 -0.6978
 8064TIP3   OH224152   1.104   5.863   3.542 -0.0179 -0.1813  0.0262
 8064TIP3    H124153   1.045   5.901   3.608 -0.0076  0.0078 -0.0729
 8064TIP3    H224154   1.052   5.795   3.499  0.0937 -0.5573  0.4796
 8065TIP3   OH224155   0.342   7.042   1.666  0.0326  0.1542 -0.1567
 8065TIP3    H124156   0.322   7.078   1.752  3.9028 -0.6811  1.2094
 8065TIP3    H224157   0.409   7.101   1.630  0.5746 -1.1223 -1.3164
 8066TIP3   OH224158   2.263   6.392   4.614 -0.5491  0.4026 -0.2655
 8066TIP3    H124159   2.182   6.353   4.580 -0.4862 -0.3613  0.4527
 8066TIP3    H224160   2.329   6.373   4.548 -0.5142 -0.7370  0.0828
 8067TIP3   OH224161   2.406   6.614   5.968  0.3287 -0.0942  0.2064
 8067TIP3    H124162   2.333   6.555   5.988 -0.2110  0.8212  0.9677
 8067TIP3    H224163   2.484   6.557   5.973 -0.3303 -1.0969 -0.7454
 8068TIP3   OH224164   0.286   6.840   4.623  0.2859 -0.1103  0.6334
 8068TIP3    H124165   0.350   6.769   4.614 -0.6882 -0.9566  0.1537
 8068TIP3    H224166   0.230   6.812   4.696  0.9477  1.0138  1.5858
 8069TIP3   OH224167   4.145   0.200   5.459  0.0751  0.3702  0.4339
 8069TIP3    H124168   4.063   0.170   5.421 -0.3173  0.7252  0.9969
 8069TIP3    H224169   4.121   0.232   5.546  0.7261  0.9450  0.4058
 8070TIP3   OH224170   3.049   0.181   4.162 -0.2670  0.2847 -0.2062
 8070TIP3    H124171   2.998   0.139   4.092 -0.3436 -0.0250  0.0307
 8070TIP3    H224172   3.035   0.274   4.150  0.3621  0.2689 -1.0927
 8071TIP3   OH224173   4.967   0.509   4.788  0.0244  0.3539 -0.0655
 8071TIP3    H124174   4.995   0.571   4.721 -0.8603  0.7607 -0.0647
 8071TIP3    H224175   4.911   0.560   4.847 -0.4145 -0.3525  0.1415
 8072TIP3   OH224176   2.212   6.087   4.792  0.3212 -0.0320  0.0560
 8072TIP3    H124177   2.130   6.069   4.838  0.6453  0.6487  0.9016
 8072TIP3    H224178   2.261   6.145   4.850  1.6986 -0.9726 -0.1474
 8073TIP3   OH224179   2.239   5.955   2.162  0.3548 -0.1353  0.2540
 8073TIP3    H124180   2.196   6.041   2.154  2.1666  0.8409  0.6792
 8073TIP3    H224181   2.319   5.973   2.212  0.7556 -2.0795  0.3423
 8074TIP3   OH224182   4.968   0.767   4.980  0.2441 -0.2226  0.2008
 8074TIP3    H124183   5.017   0.784   5.060 -0.1689  1.2208  0.1689
 8074TIP3    H224184   4.887   0.818   4.990  0.6660  0.8538 -1.5797
 8075TIP3   OH224185   3.097   2.417   3.724 -0.2106 -0.0594  0.0577
 8075TIP3    H124186   3.138   2.388   3.806  1.6720  1.5992 -0.2557
 8075TIP3    H224187   3.068   2.336   3.682  1.9622 -1.2516  0.7271
 8076TIP3   OH224188   4.238   1.949   3.714  0.1503  0.0063  1.1203
 8076TIP3    H124189   4.223   2.030   3.664  0.5472 -0.6508 -0.0887
 8076TIP3    H224190   4.224   1.879   3.650  4.6630 -0.7593  0.7937
 8077TIP3   OH224191   5.298   3.157   3.067 -0.0424  0.0381 -0.0034
 8077TIP3    H124192   5.249   3.163   2.985  0.8686 -1.4197 -0.6874
 8077TIP3    H224193   5.389   3.148   3.040  0.3152 -0.0161  1.1837
 8078TIP3   OH224194   1.330   6.025   3.663  0.1435  0.4717 -0.6094
 8078TIP3    H124195   1.246   5.982   3.650  0.5612 -0.9825  1.2757
 8078TIP3    H224196   1.366   6.035   3.574  0.5131 -4.1781 -1.1099
 8079TIP3   OH224197   4.977   0.790   2.861  0.0932 -0.2021  0.2885
 8079TIP3    H124198   4.993   0.766   2.770  1.2679  0.0289  0.4332
 8079TIP3    H224199   4.928   0.715   2.897  1.3775 -1.1808  0.0079
 8080TIP3   OH224200   3.834   1.870   6.197 -0.3127 -0.0547  0.5867
 8080TIP3    H124201   3.866   1.893   6.284  1.7955  0.9090 -0.4090
 8080TIP3    H224202   3.912   1.849   6.147 -1.1368  2.7312 -2.0431
 8081TIP3   OH224203   0.511   6.579   3.181 -0.0694 -0.4674 -0.4052
 8081TIP3    H124204   0.556   6.647   3.130 -0.7530  0.1125 -0.2481
 8081TIP3    H224205   0.423   6.615   3.195 -0.3785 -1.3196 -0.1765
 8082TIP3   OH224206   6.096   4.227   6.218 -0.1008  0.3066 -0.1482
 8082TIP3    H124207   6.148   4.153   6.248  0.8074  1.7023  1.8722
 8082TIP3    H224208   6.026   4.188   6.166  1.5073 -1.7918 -0.8273
 8083TIP3   OH224209   2.498   6.631   4.244  0.1443  0.7083  0.1950
 8083TIP3    H124210   2.559   6.695   4.206 -1.0126  1.0040 -1.1992
 8083TIP3    H224211   2.417   6.681   4.258 -1.2647 -0.7749 -2.3356
 8084TIP3   OH224212   0.497   6.721   0.979 -0.6357 -0.3500  0.5805
 8084TIP3    H124213   0.460   6.798   1.022  3.4657  2.5420 -0.7824
 8084TIP3    H224214   0.553   6.682   1.046  0.7537  0.4478 -0.1067
 8085TIP3   OH224215   5.923   1.278   4.551  0.2950 -0.2269 -0.1188
 8085TIP3    H124216   5.924   1.371   4.529  1.6445 -0.2305 -0.0846
 8085TIP3    H224217   5.903   1.235   4.468 -1.2827  0.1281  0.0534
 8086TIP3   OH224218   1.732   6.173   3.806  0.2478 -0.2274 -0.6318
 8086TIP3    H124219   1.669   6.115   3.765 -0.8273  0.9842 -0.7091
 8086TIP3    H224220   1.772   6.120   3.875 -1.7028 -0.6462  0.2099
 8087TIP3   OH224221   1.593   7.262   5.468  0.8173 -0.1690 -0.0618
 8087TIP3    H124222   1.581   7.357   5.475 -1.1779 -0.2872 -1.6769
 8087TIP3    H224223   1.681   7.247   5.503  0.9373  2.2019  0.7381
 8088TIP3   OH224224   4.152   0.339   5.953  0.5366  0.0543  0.2212
 8088TIP3    H124225   4.063   0.322   5.984  0.0001  2.1499 -0.1440
 8088TIP3    H224226   4.179   0.256   5.913 -1.6488 -0.2632 -0.6483
 8089TIP3   OH224227   3.046   1.226   5.179 -0.2951 -0.0686 -0.5043
 8089TIP3    H124228   2.968   1.267   5.217  1.2798  1.5228  1.1225
 8089TIP3    H224229   3.048   1.260   5.089 -1.7069 -0.4982 -0.7229
 8090TIP3   OH224230   2.404   0.690   5.294 -0.4970  0.1061  0.5600
 8090TIP3    H124231   2.490   0.669   5.257 -0.4683 -1.5305  1.5056
 8090TIP3    H224232   2.346   0.622   5.260 -0.9494 -0.0824  1.6816
 8091TIP3   OH224233   2.674   6.498   5.008  0.0767 -0.3784 -0.0704
 8091TIP3    H124234   2.661   6.587   5.042 -1.0008 -0.5497 -0.0203
 8091TIP3    H224235   2.598   6.449   5.039  0.5607 -1.2725 -0.2745
 8092TIP3   OH224236   2.451   6.780   5.297 -0.9026  0.2455  0.5135
 8092TIP3    H124237   2.419   6.690   5.292 -0.2719  0.0394 -0.0248
 8092TIP3    H224238   2.513   6.787   5.224 -0.3363  0.8679  1.0451
 8093TIP3   OH224239   1.100   6.156   5.341 -0.1123 -0.2408 -0.3692
 8093TIP3    H124240   1.084   6.151   5.435  0.0962  1.5557 -0.2165
 8093TIP3    H224241   1.151   6.077   5.321  2.6947  0.9585  1.6318
 8094TIP3   OH224242   2.356   0.602   4.782 -0.5291 -0.1735  0.6903
 8094TIP3    H124243   2.327   0.529   4.727 -0.8918  0.7893 -0.4214
 8094TIP3    H224244   2.275   0.646   4.808 -0.2521  0.5129  0.3987
 8095TIP3   OH224245   0.131   5.201   5.389 -0.0397  0.1181  0.5420
 8095TIP3    H124246   0.170   5.125   5.432  1.2967 -0.1987 -1.1652
 8095TIP3    H224247   0.038   5.182   5.385  0.2665 -1.3628  0.2614
 8096TIP3   OH224248   3.875   0.449   4.123  0.2555  0.1236  0.2867
 8096TIP3    H124249   3.947   0.394   4.153 -0.2687 -0.8954 -0.2759
 8096TIP3    H224250   3.856   0.508   4.196 -0.9899 -2.2824  1.9658
 8097TIP3   OH224251   3.583   5.955   4.293 -0.3294 -0.0220 -0.0015
 8097TIP3    H124252   3.632   6.033   4.268  1.8739 -1.2310  0.4216
 8097TIP3    H224253   3.533   5.982   4.370  0.3372  1.0142  0.0778
 8098TIP3   OH224254   2.573   0.433   4.213  0.3842  0.2515 -0.6066
 8098TIP3    H124255   2.604   0.343   4.204  1.5287  0.7505 -1.7773
 8098TIP3    H224256   2.604   0.460   4.300 -0.2612 -0.5819 -0.1079
 8099TIP3   OH224257   2.737   6.152   2.932 -0.5870  0.2093 -0.6700
 8099TIP3    H124258   2.697   6.074   2.970  0.0734 -0.6431 -1.7061
 8099TIP3    H224259   2.772   6.123   2.848 -0.2552  1.6013 -1.0274
 8100TIP3   OH224260   2.969   1.090   3.339 -0.0686  0.0355  0.0735
 8100TIP3    H124261   2.976   1.029   3.412  0.5123  1.1836  0.9750
 8100TIP3    H224262   3.010   1.170   3.370 -0.4247  0.7496 -1.2720
 8101TIP3   OH224263   5.222   1.563   4.791 -0.2396 -0.1138  0.0173
 8101TIP3    H124264   5.183   1.583   4.705  2.4218  0.1617 -1.1646
 8101TIP3    H224265   5.203   1.640   4.844  0.5465  0.9274 -1.1994
 8102TIP3   OH224266   7.097   4.302   0.530 -0.8273 -0.2449 -0.3162
 8102TIP3    H124267   7.191   4.319   0.521 -0.4690 -0.4883  2.6435
 8102TIP3    H224268   7.092   4.214   0.569 -2.1968  0.7370  1.8259
 8103TIP3   OH224269   5.869   1.025   5.059 -0.2831  0.3202 -0.3031
 8103TIP3    H124270   5.785   1.072   5.060 -0.2830  0.3018  1.9568
 8103TIP3    H224271   5.926   1.076   5.117  0.1866 -1.6073  0.9638
 8104TIP3   OH224272   4.816   1.416   3.648  0.1926 -0.2246 -0.0362
 8104TIP3    H124273   4.732   1.372   3.635 -0.2207  1.3178 -2.9858
 8104TIP3    H224274   4.796   1.493   3.699 -0.4268  0.7553 -1.7109
 8105TIP3   OH224275   2.477   7.002   5.724 -0.2284 -0.2566  0.0393
 8105TIP3    H124276   2.534   7.063   5.677  0.8962 -1.2233  0.1260
 8105TIP3    H224277   2.405   6.985   5.663  0.0421  0.2587 -0.4318
 8106TIP3   OH224278   4.039   1.056   1.818  0.1537 -0.0895  0.2025
 8106TIP3    H124279   4.012   1.127   1.878 -1.2887 -0.8445  0.4774
 8106TIP3    H224280   4.134   1.053   1.827  0.0470  0.3977  1.8141
 8107TIP3   OH224281   4.832   0.221   2.115  0.0224  0.4703 -0.1966
 8107TIP3    H124282   4.793   0.134   2.108 -0.7371  0.6709  1.3385
 8107TIP3    H224283   4.823   0.258   2.027 -0.7936 -0.5274 -0.5460
 8108TIP3   OH224284   3.807   3.133   2.635 -0.0152  0.4564  0.2462
 8108TIP3    H124285   3.772   3.222   2.631  1.1562  0.8839 -0.9602
 8108TIP3    H224286   3.899   3.142   2.610  0.8477 -0.7271  2.8362
 8109TIP3   OH224287   5.592   1.537   4.260 -0.3322 -0.0630  0.2383
 8109TIP3    H124288   5.686   1.549   4.252 -0.3710  0.9902  1.2217
 8109TIP3    H224289   5.561   1.618   4.300 -1.4806 -0.9190  1.1128
 8110TIP3   OH224290   1.147   6.193   4.346 -0.2921 -0.0656 -0.0516
 8110TIP3    H124291   1.059   6.218   4.375 -0.7587 -1.1954 -0.5031
 8110TIP3    H224292   1.205   6.242   4.404 -1.2183 -0.0305  0.8629
 8111TIP3   OH224293   0.671   6.953   4.407  0.1050 -0.5570  0.4635
 8111TIP3    H124294   0.643   6.972   4.496 -2.0699 -0.2514 -0.2490
 8111TIP3    H224295   0.608   6.888   4.375 -2.2870  2.9991 -2.4972
 8112TIP3   OH224296   2.558   6.130   4.844 -0.2718 -0.6496  0.4957
 8112TIP3    H124297   2.542   6.224   4.840 -0.7753 -0.6997  1.1714
 8112TIP3    H224298   2.614   6.111   4.769 -1.4406 -0.0648 -0.5369
 8113TIP3   OH224299   4.025   0.278   5.710  0.0099  0.2284 -0.6014
 8113TIP3    H124300   4.033   0.371   5.730  0.2380 -0.5450  3.2676
 8113TIP3    H224301   3.936   0.255   5.738 -0.4999 -0.5281 -2.6751
 8114TIP3   OH224302   0.769   5.381   2.816 -0.0046  0.4846 -0.3648
 8114TIP3    H124303   0.758   5.334   2.733 -0.6666  2.2825 -1.3094
 8114TIP3    H224304   0.681   5.385   2.853 -0.2642  2.4320 -1.1129
 8115TIP3   OH224305   3.669   0.252   4.637  0.6445  0.1631  0.0727
 8115TIP3    H124306   3.714   0.268   4.719  0.3756  3.7327 -0.4135
 8115TIP3    H224307   3.609   0.180   4.656  0.9572  0.6100  2.8419
 8116TIP3   OH224308   2.431   6.064   3.108 -0.0362  0.1020  0.1928
 8116TIP3    H124309   2.501   6.006   3.141 -0.4947 -0.8499 -0.4711
 8116TIP3    H224310   2.350   6.019   3.132 -0.4269  1.1735  0.8972
 8117TIP3   OH224311   1.288   5.690   3.985 -0.1427  0.6619 -0.4378
 8117TIP3    H124312   1.206   5.656   4.019  0.5562 -0.8547 -0.2333
 8117TIP3    H224313   1.292   5.658   3.894  0.4205  0.3392 -0.3071
 8118TIP3   OH224314   7.169   6.157   1.630  0.2057  0.2573 -0.1638
 8118TIP3    H124315   7.189   6.239   1.583 -1.3692  0.9380  0.3207
 8118TIP3    H224316   7.195   6.175   1.720  0.5645 -0.0522 -0.2045
 8119TIP3   OH224317   2.136   6.693   4.308 -0.3162  0.1651  0.4103
 8119TIP3    H124318   2.100   6.607   4.286 -0.3420  0.2193  0.2402
 8119TIP3    H224319   2.117   6.747   4.232  1.5038 -0.2207 -0.3477
 8120TIP3   OH224320   3.510   6.540   4.173 -0.2426  0.1853 -0.0793
 8120TIP3    H124321   3.466   6.531   4.088 -0.9573 -0.4429  0.3553
 8120TIP3    H224322   3.469   6.474   4.228 -0.6989  1.4890  1.1487
 8121TIP3   OH224323   7.724   5.252   4.560  0.1443  0.8561 -0.1100
 8121TIP3    H124324   7.811   5.214   4.547  0.0598  0.8712 -0.7606
 8121TIP3    H224325   7.721   5.275   4.653  0.7607  0.6695 -0.0426
 8122TIP3   OH224326   0.721   4.019   0.353 -0.4966  0.5957  0.1275
 8122TIP3    H124327   0.696   4.091   0.295 -0.9444  0.0583 -0.3430
 8122TIP3    H224328   0.662   4.028   0.428 -1.1706  0.1652 -0.3500
 8123TIP3   OH224329   4.750   0.515   3.321 -0.1338  0.1444  0.5767
 8123TIP3    H124330   4.661   0.491   3.293  0.2342 -0.0579 -0.4463
 8123TIP3    H224331   4.776   0.443   3.379  0.5521 -1.4307 -1.6327
 8124TIP3   OH224332   6.554   7.207   2.844  0.0654 -0.0001  0.3438
 8124TIP3    H124333   6.643   7.175   2.828 -0.6255 -0.9452 -1.9988
 8124TIP3    H224334   6.502   7.166   2.774 -2.0365  1.2500  1.1345
 8125TIP3   OH224335   5.065   2.046   2.173 -0.2440  0.2197  0.7857
 8125TIP3    H124336   5.110   1.967   2.203 -0.7022  0.5825  2.4791
 8125TIP3    H224337   5.128   2.116   2.187 -0.3266  0.3445  0.5347
 8126TIP3   OH224338   4.075   7.231   2.125  0.4496  0.7351 -0.2685
 8126TIP3    H124339   4.040   7.262   2.209  1.6822  2.0904 -0.2411
 8126TIP3    H224340   3.999   7.196   2.079 -0.4321  0.9938  0.9711
 8127TIP3   OH224341   1.340   6.640   2.798 -0.2704  0.3508  0.2092
 8127TIP3    H124342   1.270   6.669   2.857 -0.0190  0.8290  0.2780
 8127TIP3    H224343   1.343   6.708   2.730  0.6388  0.7187  0.6226
 8128TIP3   OH224344   5.435   6.361   2.778 -0.5949  0.0149 -0.3626
 8128TIP3    H124345   5.487   6.437   2.804 -0.9218  0.5335 -1.2072
 8128TIP3    H224346   5.344   6.389   2.786 -0.7197 -0.3578 -0.4517
 8129TIP3   OH224347   4.548   5.730   4.786  0.1928 -0.9329 -0.0404
 8129TIP3    H124348   4.521   5.809   4.740  2.8304 -0.4738 -0.8578
 8129TIP3    H224349   4.482   5.665   4.763 -1.0147  0.5452 -0.7903
 8130TIP3   OH224350   7.002   0.297   4.348  0.6434 -1.3796  0.0930
 8130TIP3    H124351   7.013   0.372   4.406 -0.6116 -1.1085 -0.0033
 8130TIP3    H224352   7.072   0.305   4.284  1.0910 -0.8256  0.6552
 8131TIP3   OH224353   4.774   7.284   2.851 -0.1687 -0.0876  0.0237
 8131TIP3    H124354   4.838   7.338   2.897  1.9886 -2.4391 -0.0962
 8131TIP3    H224355   4.772   7.321   2.762  0.5473  0.3984  0.1991
 8132TIP3   OH224356   5.708   5.407   2.760 -0.1372 -0.5602 -0.4084
 8132TIP3    H124357   5.695   5.484   2.815 -1.0490 -2.0362  1.5140
 8132TIP3    H224358   5.752   5.440   2.682  3.2309  1.2932  2.1494
 8133TIP3   OH224359   6.398   0.522   3.323  0.7157 -0.1596  0.5605
 8133TIP3    H124360   6.319   0.470   3.310  0.0097  1.0958 -0.3771
 8133TIP3    H224361   6.372   0.611   3.298  1.5014  0.9231  3.3856
 8134TIP3   OH224362   4.100   6.857   2.764 -0.4356  0.0930  0.3659
 8134TIP3    H124363   4.194   6.842   2.773  0.1622  2.8509 -0.7849
 8134TIP3    H224364   4.071   6.796   2.696  0.9866  0.8500 -0.9353
 8135TIP3   OH224365   6.871   0.890   3.871 -0.3588  0.0414  0.1611
 8135TIP3    H124366   6.811   0.857   3.938 -0.7125  0.1122 -0.1185
 8135TIP3    H224367   6.816   0.905   3.794 -0.2839  1.6006  0.3866
 8136TIP3   OH224368   2.063   5.907   4.495 -0.1607  0.1539 -0.0147
 8136TIP3    H124369   2.144   5.896   4.546  1.3198 -0.5412 -2.4397
 8136TIP3    H224370   2.012   5.828   4.513  0.8182 -0.5822 -0.4141
 8137TIP3   OH224371   3.401   1.200   5.966  0.2677  0.3760  0.7119
 8137TIP3    H124372   3.379   1.266   6.032 -2.6456  0.9635 -0.7680
 8137TIP3    H224373   3.433   1.250   5.891  1.9430 -0.1753  1.0495
 8138TIP3   OH224374   6.441   0.180   4.937  0.9613 -0.4163 -0.4480
 8138TIP3    H124375   6.504   0.153   4.870  0.6586  0.3101 -1.0221
 8138TIP3    H224376   6.465   0.270   4.957  1.5018 -0.8524  0.9518
 8139TIP3   OH224377   0.932   5.741   2.746 -0.1314 -0.7493  0.6003
 8139TIP3    H124378   0.914   5.666   2.802  0.1279 -0.9627  0.4021
 8139TIP3    H224379   0.960   5.703   2.663 -4.5665 -0.4955 -1.1188
 8140TIP3   OH224380   4.413   0.050   3.539  0.2795 -0.2794 -0.2293
 8140TIP3    H124381   4.400   0.040   3.634 -0.7598 -0.3657 -0.3788
 8140TIP3    H224382   4.475  -0.020   3.516  1.4342  0.4507  0.5729
 8141TIP3   OH224383   6.922   1.886   4.055  0.2125 -0.2884  0.9697
 8141TIP3    H124384   6.939   1.846   3.970 -1.0748  1.0368  0.0853
 8141TIP3    H224385   7.001   1.867   4.106  1.0094 -1.0439 -0.5191
 8142TIP3   OH224386   6.107   7.211   5.045  0.1946  0.3673 -0.0911
 8142TIP3    H124387   6.167   7.181   5.113  1.2023  0.0841 -1.0878
 8142TIP3    H224388   6.038   7.257   5.092  0.2996 -0.7796  1.2030
 8143TIP3   OH224389   1.927   5.534   5.078  0.0205 -0.3873  0.2505
 8143TIP3    H124390   1.900   5.514   5.168  0.1798 -1.9898 -0.0340
 8143TIP3    H224391   1.988   5.464   5.056  0.2938  0.2259 -0.9755
 8144TIP3   OH224392   4.592   1.538   4.559 -1.1455  0.4066  0.0882
 8144TIP3    H124393   4.596   1.627   4.523 -0.4572  1.3026  2.3075
 8144TIP3    H224394   4.592   1.551   4.654 -1.7707 -1.9496  0.4335
 8145TIP3   OH224395   1.460   6.827   4.609 -0.1738  0.3735  0.4736
 8145TIP3    H124396   1.409   6.838   4.529 -0.0387  2.3761  0.6375
 8145TIP3    H224397   1.518   6.903   4.611  1.4965 -0.9091  1.2631
 8146TIP3   OH224398   3.314   6.491   2.797 -0.1980 -0.3194 -0.4644
 8146TIP3    H124399   3.325   6.486   2.701 -0.1265  1.8902 -0.5875
 8146TIP3    H224400   3.306   6.584   2.815 -2.4164 -0.8538  1.4748
 8147TIP3   OH224401   2.141   6.890   2.665 -0.2854 -0.6119  0.1387
 8147TIP3    H124402   2.165   6.826   2.598 -1.1671  0.2718 -1.0418
 8147TIP3    H224403   2.071   6.849   2.715 -2.3840  0.2540 -2.0065
 8148TIP3   OH224404   1.931   6.748   6.014  0.7828 -0.3705  0.0665
 8148TIP3    H124405   1.953   6.779   5.926 -1.3722  0.3240 -0.2632
 8148TIP3    H224406   1.990   6.796   6.072  0.6600  0.8787 -0.8268
 8149TIP3   OH224407   4.042   1.183   4.946 -0.8987  0.4330  0.1274
 8149TIP3    H124408   4.060   1.184   4.852 -1.3908 -0.0299  0.0259
 8149TIP3    H224409   3.947   1.191   4.953 -0.8024  1.2865  0.6107
 8150TIP3   OH224410   5.865   6.426   2.111 -0.0726  0.3846 -0.1816
 8150TIP3    H124411   5.942   6.434   2.167 -1.3115  1.3126  1.4184
 8150TIP3    H224412   5.882   6.486   2.039  1.1407 -0.1627 -0.3705
 8151TIP3   OH224413   2.296   4.868   1.649 -0.1021 -0.5210  0.7243
 8151TIP3    H124414   2.222   4.811   1.630 -0.5999  0.1763  0.5566
 8151TIP3    H224415   2.373   4.812   1.641 -0.4836 -0.8300 -0.8123
 8152TIP3   OH224416   3.418   6.606   5.867 -0.1021  0.2857 -0.3634
 8152TIP3    H124417   3.492   6.667   5.863 -1.1879  1.5798 -0.7737
 8152TIP3    H224418   3.459   6.520   5.878  1.3960  1.2407  1.8703
 8153TIP3   OH224419   6.937   0.652   5.024 -0.2272  0.0107 -0.4318
 8153TIP3    H124420   6.866   0.712   5.048  0.1238  1.4062 -2.7174
 8153TIP3    H224421   7.014   0.688   5.068 -0.4658 -0.1043  0.0834
 8154TIP3   OH224422   5.554   1.562   2.715 -0.2740  1.2195  0.3228
 8154TIP3    H124423   5.576   1.501   2.644 -0.9219  1.9103 -0.4894
 8154TIP3    H224424   5.634   1.568   2.768 -0.7974 -1.8113  1.5390
 8155TIP3   OH224425   4.469   7.283   3.470 -0.2492  0.1749 -0.1387
 8155TIP3    H124426   4.433   7.276   3.382 -1.1913  0.1402  0.2470
 8155TIP3    H224427   4.454   7.196   3.509  0.2193  0.1697  0.0386
 8156TIP3   OH224428   5.826   0.346   2.581 -0.0200  0.0306 -0.2323
 8156TIP3    H124429   5.874   0.305   2.509  2.0577 -0.3052  1.2918
 8156TIP3    H224430   5.816   0.437   2.555  0.7690 -0.0741 -0.9292
 8157TIP3   OH224431   3.953   7.129   5.554 -0.0452  0.8971 -0.6228
 8157TIP3    H124432   3.877   7.113   5.497  1.0609 -0.6891 -1.6824
 8157TIP3    H224433   4.005   7.194   5.507 -0.7720  2.0527  0.1472
 8158TIP3   OH224434   7.299   1.068   4.325  0.8598  0.4080  0.5346
 8158TIP3    H124435   7.257   0.993   4.284 -0.1574  0.7902  0.8695
 8158TIP3    H224436   7.375   1.086   4.270 -0.5833  1.0267 -1.3260
 8159TIP3   OH224437   4.781   5.190   3.286 -0.6226 -0.5498  0.1412
 8159TIP3    H124438   4.793   5.142   3.368  0.1084 -2.3075 -0.9684
 8159TIP3    H224439   4.867   5.189   3.245 -0.5856  1.8122  0.1355
 8160TIP3   OH224440   0.090   0.696   3.369  0.3371 -0.6673  0.2074
 8160TIP3    H124441   0.095   0.734   3.457  0.9381  0.8240 -0.4527
 8160TIP3    H224442  -0.003   0.680   3.355  0.0810  0.4548  0.5651
 8161TIP3   OH224443   2.706   6.869   3.483 -0.5079 -0.0632 -0.7488
 8161TIP3    H124444   2.653   6.947   3.467 -2.5622 -1.2044  0.2162
 8161TIP3    H224445   2.691   6.849   3.576 -2.4540 -3.2961 -1.6411
 8162TIP3   OH224446   1.431   5.365   4.350 -0.3946 -0.1385  0.0225
 8162TIP3    H124447   1.437   5.353   4.255  0.2253 -0.2509  0.0744
 8162TIP3    H224448   1.440   5.459   4.362  1.0177 -0.2577  0.0674
 8163TIP3   OH224449   4.202   7.262   4.491  0.2280 -0.0743  0.3066
 8163TIP3    H124450   4.178   7.355   4.493  2.9303  0.6768 -0.2122
 8163TIP3    H224451   4.182   7.231   4.580  1.5080  1.6331  1.2392
 8164TIP3   OH224452   0.362   4.095   2.735 -0.1401  0.2425 -0.0129
 8164TIP3    H124453   0.350   4.116   2.828 -3.1047 -0.5368 -0.1620
 8164TIP3    H224454   0.409   4.012   2.735 -1.5351 -0.5763  0.8614
 8165TIP3   OH224455   1.674   5.142   2.204  0.2488 -0.0039  0.7747
 8165TIP3    H124456   1.719   5.157   2.121 -0.8971  0.9474  0.3147
 8165TIP3    H224457   1.712   5.206   2.264  2.8068 -2.2656  1.6917
 8166TIP3   OH224458   0.580   0.087   5.672  0.4773 -0.1344  0.3910
 8166TIP3    H124459   0.562   0.015   5.733  1.0168 -1.5151 -1.0402
 8166TIP3    H224460   0.668   0.069   5.640  0.0033  0.2671 -1.1729
 8167TIP3   OH224461   3.746   6.821   3.921 -0.5267  0.2018 -0.4164
 8167TIP3    H124462   3.671   6.808   3.979  0.7231 -0.9393  0.9750
 8167TIP3    H224463   3.713   6.797   3.834 -2.5220  2.3119 -0.2935
 8168TIP3   OH224464   5.287   2.041   5.170 -0.1985 -0.4810  0.7356
 8168TIP3    H124465   5.215   1.978   5.164 -0.7098  0.3288 -2.4318
 8168TIP3    H224466   5.250   2.123   5.137  2.4870 -0.3281 -2.0607
 8169TIP3   OH224467   5.456   0.379   5.003  0.1162 -0.3160  0.0553
 8169TIP3    H124468   5.421   0.422   4.925  0.0857  1.7477  1.1847
 8169TIP3    H224469   5.551   0.385   4.993  0.1117  0.1612  0.2817
 8170TIP3   OH224470   3.779   6.968   5.924  0.0608 -0.1995  0.0162
 8170TIP3    H124471   3.718   7.041   5.934 -0.4530 -0.5490 -0.5191
 8170TIP3    H224472   3.862   7.010   5.899  0.2915  0.3410  1.6281
 8171TIP3   OH224473   7.637   0.344   4.474  0.4118 -0.4195  0.5927
 8171TIP3    H124474   7.702   0.345   4.544  0.7194 -0.9210  0.3195
 8171TIP3    H224475   7.669   0.409   4.411  1.4891 -1.7416 -0.2776
 8172TIP3   OH224476   2.899   7.130   3.227  0.8309 -0.2401 -0.2879
 8172TIP3    H124477   2.931   7.213   3.193  0.3414  0.0483 -0.0584
 8172TIP3    H224478   2.819   7.153   3.276 -0.9458 -1.1903 -2.6320
 8173TIP3   OH224479   5.578   2.463   5.174  0.5375 -0.7301 -0.0293
 8173TIP3    H124480   5.527   2.525   5.225  1.9697 -1.0311  1.7947
 8173TIP3    H224481   5.665   2.501   5.168  0.8606 -1.5519 -0.7163
 8174TIP3   OH224482   3.196   6.168   4.498  0.2305  0.3803  0.1331
 8174TIP3    H124483   3.248   6.143   4.420 -0.4528 -0.3948 -0.0843
 8174TIP3    H224484   3.122   6.216   4.462  0.2966  0.6533  0.3679
 8175TIP3   OH224485   6.290   0.589   5.901  0.3135  0.3819 -0.1381
 8175TIP3    H124486   6.328   0.567   5.986 -0.3260 -0.1152  0.0263
 8175TIP3    H224487   6.342   0.537   5.838 -0.3605 -0.6271  0.1260
 8176TIP3   OH224488   7.174   0.968   5.214 -0.6696 -0.2003 -0.5415
 8176TIP3    H124489   7.184   0.976   5.308  0.4084 -0.2401 -0.6474
 8176TIP3    H224490   7.127   1.047   5.188  1.8563  1.4076 -0.3828
 8177TIP3   OH224491   7.566   0.666   1.989 -0.4060  0.2316 -0.0633
 8177TIP3    H124492   7.475   0.696   1.996  0.3859  2.7236 -0.1720
 8177TIP3    H224493   7.616   0.744   1.965  1.6427 -1.3105 -1.0096
 8178TIP3   OH224494   6.231   0.241   3.542  0.3188  0.5870 -0.3338
 8178TIP3    H124495   6.268   0.327   3.565 -1.0064  1.4982 -1.4848
 8178TIP3    H224496   6.246   0.187   3.620  0.8190  1.9781  0.5615
 8179TIP3   OH224497   5.294   7.220   3.476  0.6513  0.1841 -0.2303
 8179TIP3    H124498   5.223   7.156   3.478  1.0648 -0.2511  0.8525
 8179TIP3    H224499   5.253   7.301   3.508  0.7124 -0.1552  0.7417
 8180TIP3   OH224500   0.124   1.701   5.262 -0.3737 -1.1001 -0.0293
 8180TIP3    H124501   0.171   1.730   5.341  2.7388  1.4505 -2.6803
 8180TIP3    H224502   0.035   1.685   5.293  0.0743  2.3300  3.5608
 8181TIP3   OH224503   2.957   5.797   4.776 -0.2456  0.1429  0.2770
 8181TIP3    H124504   2.955   5.892   4.790 -0.7879 -0.2414  3.2792
 8181TIP3    H224505   2.870   5.776   4.742  0.2002  0.8219 -1.3217
 8182TIP3   OH224506   4.047   1.299   5.265  0.4203  0.1042 -0.2092
 8182TIP3    H124507   4.126   1.244   5.266 -0.3400 -1.0107  0.5095
 8182TIP3    H224508   4.016   1.297   5.356 -1.3285 -0.8177 -0.8062
 8183TIP3   OH224509   3.531   7.080   3.560 -0.5899 -0.2543  0.2330
 8183TIP3    H124510   3.509   7.124   3.642  0.0090  1.6942 -0.6395
 8183TIP3    H224511   3.620   7.108   3.540 -1.4372  0.9203 -2.1176
 8184TIP3   OH224512   2.756   5.762   3.785  0.2121  0.2097  0.1730
 8184TIP3    H124513   2.822   5.735   3.720 -0.8519 -1.4482 -0.2549
 8184TIP3    H224514   2.779   5.714   3.864  0.4833  0.9138  0.5317
 8185TIP3   OH224515   0.715   1.391   2.562 -0.0237  0.0964 -0.2834
 8185TIP3    H124516   0.634   1.354   2.527  0.1451  0.4017 -1.0034
 8185TIP3    H224517   0.783   1.328   2.539 -0.3869 -1.4244  2.5009
 8186TIP3   OH224518   7.116   6.356   3.118  0.1004  0.3780  0.4589
 8186TIP3    H124519   7.042   6.383   3.063  0.4220  0.0441 -0.1475
 8186TIP3    H224520   7.173   6.432   3.120 -0.1518  0.5602  0.7403
 8187TIP3   OH224521   2.988   7.100   2.428 -0.0354  0.1662 -1.4887
 8187TIP3    H124522   2.911   7.043   2.420  0.0341  0.0529 -1.3639
 8187TIP3    H224523   3.062   7.040   2.430 -0.0189  0.2028 -0.4850
 8188TIP3   OH224524   4.688   0.261   5.965  0.2229 -0.0918 -0.0258
 8188TIP3    H124525   4.622   0.328   5.946 -0.1169 -0.1039  1.0589
 8188TIP3    H224526   4.672   0.192   5.901 -2.0877 -0.9767  1.4428
 8189TIP3   OH224527   4.786   7.167   4.819  0.1058 -0.3223 -0.1798
 8189TIP3    H124528   4.853   7.208   4.764 -0.6751  0.3581 -0.6181
 8189TIP3    H224529   4.834   7.140   4.898  0.8224  0.5068 -0.3273
 8190TIP3   OH224530   5.458   0.662   2.451 -0.8401  0.2944 -0.0527
 8190TIP3    H124531   5.467   0.754   2.476 -1.6941  0.9800 -2.2489
 8190TIP3    H224532   5.469   0.661   2.356 -0.5136 -1.9283 -0.0192
 8191TIP3   OH224533   5.110   7.241   4.313 -0.2909  0.6045  0.4852
 8191TIP3    H124534   5.205   7.238   4.328  0.1387  1.9629 -1.7461
 8191TIP3    H224535   5.098   7.317   4.257 -2.7686  0.6563  1.0628
 8192TIP3   OH224536   7.788   0.323   2.295 -0.1093  0.3081  0.8110
 8192TIP3    H124537   7.727   0.306   2.368 -1.5883 -0.5475 -0.5897
 8192TIP3    H224538   7.732   0.355   2.224  0.6144 -3.0512 -1.4220
 8193TIP3   OH224539   3.091   6.334   4.143  0.0106 -0.1009  0.0116
 8193TIP3    H124540   3.006   6.327   4.187  0.1788 -2.0812  0.0587
 8193TIP3    H224541   3.080   6.408   4.083 -1.8952 -0.5799 -0.2756
 8194TIP3   OH224542   4.994   0.916   3.137 -0.0298 -0.4962  0.0341
 8194TIP3    H124543   4.980   0.872   3.053 -0.6135  1.1337 -0.7571
 8194TIP3    H224544   4.908   0.920   3.177  0.3404 -1.7373  0.9517
 8195TIP3   OH224545   3.079   4.011   0.862  0.1181  0.1742  0.2218
 8195TIP3    H124546   3.171   4.035   0.871  0.0714  0.9267 -1.0997
 8195TIP3    H224547   3.068   3.994   0.768 -0.9763 -0.3884  0.4470
 8196TIP3   OH224548   2.431   6.723   3.964 -0.1562  0.1348  0.0898
 8196TIP3    H124549   2.502   6.751   4.022  0.7716 -1.3080 -0.3224
 8196TIP3    H224550   2.406   6.802   3.917  0.8964  0.7526  0.5516
 8197TIP3   OH224551   0.733   0.118   4.275 -0.7917 -0.1750 -0.6878
 8197TIP3    H124552   0.691   0.130   4.361  1.9792  0.2212  0.6698
 8197TIP3    H224553   0.691   0.182   4.218 -1.8359  0.4022  0.7065
 8198TIP3   OH224554   4.349   1.242   2.163  0.0686 -0.8424  0.2858
 8198TIP3    H124555   4.319   1.190   2.089 -1.4384 -0.7244  0.7960
 8198TIP3    H224556   4.368   1.328   2.127 -0.1300 -0.9423 -0.0550
 8199TIP3   OH224557   1.780   6.455   3.751  0.5410  0.5763 -0.5322
 8199TIP3    H124558   1.703   6.484   3.703 -0.3134 -1.6679 -0.6161
 8199TIP3    H224559   1.751   6.375   3.796  1.5137  2.1421  3.0910
 8200TIP3   OH224560   5.058   7.033   4.123 -0.6932  0.1853 -0.8679
 8200TIP3    H124561   5.076   6.959   4.181  2.5256  0.4513 -1.4291
 8200TIP3    H224562   5.069   7.110   4.179  0.7844  0.3740 -1.3745
 8201TIP3   OH224563   5.051   6.412   4.279  0.0872 -0.0412  0.4205
 8201TIP3    H124564   5.138   6.399   4.315  0.2821 -0.0247 -0.0406
 8201TIP3    H224565   5.065   6.424   4.185 -0.2065  2.1438  0.6212
 8202TIP3   OH224566   5.687   3.588   4.698 -0.3784  1.0046 -0.3269
 8202TIP3    H124567   5.615   3.626   4.749  0.4313  2.2375 -0.0641
 8202TIP3    H224568   5.694   3.498   4.730 -1.8287  0.8560 -0.3991
 8203TIP3   OH224569   5.814   7.219   1.360 -0.2223 -0.4676 -0.1680
 8203TIP3    H124570   5.722   7.246   1.367 -0.2814 -0.7932  0.3245
 8203TIP3    H224571   5.832   7.221   1.266 -0.4223  0.6301 -0.1900
 8204TIP3   OH224572   5.620   6.515   3.879  0.4365 -0.1344 -0.2327
 8204TIP3    H124573   5.693   6.519   3.941  1.2371  0.6718 -1.2130
 8204TIP3    H224574   5.610   6.604   3.847  0.4520 -0.6687 -1.7565
 8205TIP3   OH224575   1.449   3.270   5.747 -0.4629 -0.6061 -0.4072
 8205TIP3    H124576   1.370   3.323   5.746 -0.2852 -0.3480 -1.3393
 8205TIP3    H224577   1.507   3.315   5.809 -0.7807 -0.3971 -0.2621
 8206TIP3   OH224578   1.026   0.864   3.264  0.7890  0.1023 -0.0995
 8206TIP3    H124579   1.067   0.906   3.340  0.7100  1.7644 -0.9384
 8206TIP3    H224580   0.955   0.812   3.301  0.7386  0.9097  0.9820
 8207TIP3   OH224581   5.210   6.911   3.464  0.3511  0.1035 -0.2853
 8207TIP3    H124582   5.137   6.923   3.403 -0.3368  0.6875  0.6206
 8207TIP3    H224583   5.191   6.828   3.507 -1.1088  1.3882  1.6654
 8208TIP3   OH224584   5.383   5.914   1.739  0.4054 -0.1671  0.2381
 8208TIP3    H124585   5.349   5.855   1.671  0.6017  0.5793 -0.5219
 8208TIP3    H224586   5.317   5.912   1.808 -0.2839 -0.1600 -0.4162
 8209TIP3   OH224587   6.863   2.653   3.643 -0.2311  0.3255 -0.2959
 8209TIP3    H124588   6.883   2.561   3.662  1.9271  0.7758 -0.2196
 8209TIP3    H224589   6.949   2.694   3.634 -1.0339  3.0473  3.1764
 8210TIP3   OH224590   2.534  -0.000   3.379  0.6239  0.2305  0.5048
 8210TIP3    H124591   2.475  -0.067   3.415 -1.4278 -0.0805 -3.1870
 8210TIP3    H224592   2.522   0.076   3.436 -2.3373 -0.3112  0.6732
 8211TIP3   OH224593   5.424   4.938   3.390 -0.8091  0.4511  0.3135
 8211TIP3    H124594   5.340   4.901   3.419  0.6787 -2.2215  1.3796
 8211TIP3    H224595   5.488   4.904   3.452  1.8937 -2.1477 -3.6508
 8212TIP3   OH224596   6.859   6.457   2.283  0.0363 -0.1781  0.4539
 8212TIP3    H124597   6.855   6.545   2.245  1.6974 -0.6864 -0.9805
 8212TIP3    H224598   6.875   6.471   2.376 -0.2182  1.0352  0.3207
 8213TIP3   OH224599   0.063   1.443   3.392 -0.2531 -0.3889  0.2926
 8213TIP3    H124600   0.003   1.451   3.318  0.9439 -1.4276 -0.8202
 8213TIP3    H224601   0.011   1.470   3.468 -2.1159 -1.2741 -0.6360
 8214TIP3   OH224602   7.428   5.923   3.313  0.4404  0.2917 -0.2534
 8214TIP3    H124603   7.406   5.967   3.395 -1.6356  0.0318 -0.6439
 8214TIP3    H224604   7.523   5.922   3.311  0.5111  1.0490  1.7550
 8215TIP3   OH224605   0.419   7.332   3.361  0.1756 -0.1143 -0.3106
 8215TIP3    H124606   0.330   7.323   3.327 -0.2220  1.2416  0.3224
 8215TIP3    H224607   0.474   7.284   3.298 -0.8825 -0.1070 -1.2577
 8216TIP3   OH224608   0.956   2.068   3.079 -0.4295  0.4064  0.0823
 8216TIP3    H124609   0.954   2.137   3.146  0.2947  0.2411  0.2780
 8216TIP3    H224610   0.877   2.016   3.096 -0.8090  0.9997  0.1346
 8217TIP3   OH224611   6.274   1.087   3.602 -0.0637 -0.3368 -0.5335
 8217TIP3    H124612   6.363   1.080   3.568  1.6659  3.7157  2.7347
 8217TIP3    H224613   6.240   1.168   3.564 -1.2451 -0.2749  0.6294
 8218TIP3   OH224614   0.941   1.004   4.679 -0.1135  0.3288  0.7236
 8218TIP3    H124615   0.847   0.991   4.673  0.1711 -1.5004 -0.0291
 8218TIP3    H224616   0.963   1.055   4.601 -0.6181  1.6665  1.4417
 8219TIP3   OH224617   0.075   0.567   1.838 -0.7368 -0.0606  0.1105
 8219TIP3    H124618   0.074   0.600   1.927 -0.2607 -1.9170  0.8197
 8219TIP3    H224619   0.012   0.623   1.791 -0.9778  0.9272  1.5829
 8220TIP3   OH224620   1.618   0.999   3.042  0.2691 -0.1314  0.0328
 8220TIP3    H124621   1.657   1.002   2.954 -0.2633  0.3680 -0.1926
 8220TIP3    H224622   1.689   1.025   3.101  0.6987 -0.7082 -0.2215
 8221TIP3   OH224623   1.212   0.448   3.541  0.1231 -0.2230  0.2671
 8221TIP3    H124624   1.196   0.355   3.530  1.1162 -0.4003  0.3239
 8221TIP3    H224625   1.224   0.481   3.452  0.1560 -0.2211  0.2721
 8222TIP3   OH224626   0.391   0.088   1.623 -0.7224  0.7512 -0.0393
 8222TIP3    H124627   0.475   0.116   1.586 -0.6664 -0.8674 -1.1594
 8222TIP3    H224628   0.414   0.025   1.692 -0.9970  0.8409  0.1372
 8223TIP3   OH224629   1.096   0.251   2.484  0.6044  0.2357  0.1607
 8223TIP3    H124630   1.178   0.211   2.514  1.0636 -0.2883 -1.7023
 8223TIP3    H224631   1.112   0.272   2.392 -1.0734  0.9034  0.0016
 8224TIP3   OH224632   7.255   1.935   3.234 -0.1018  0.1792  0.2315
 8224TIP3    H124633   7.189   1.984   3.185 -1.0932 -1.1365  0.2218
 8224TIP3    H224634   7.294   1.877   3.169  1.1094  0.9915  0.2278
 8225TIP3   OH224635   5.354   7.272   2.126  0.5730  0.1040 -0.3823
 8225TIP3    H124636   5.310   7.315   2.052 -1.4992 -1.9527 -0.3796
 8225TIP3    H224637   5.395   7.194   2.088  0.9655 -0.0419  0.3292
 8226TIP3   OH224638   4.922   6.776   2.692 -0.5749  0.5701  0.1024
 8226TIP3    H124639   4.891   6.842   2.754 -1.1771 -0.0556  0.4793
 8226TIP3    H224640   4.885   6.803   2.608 -2.2637 -0.2299  0.5658
 8227TIP3   OH224641   6.052   1.877   4.458  0.2921  0.2349 -0.3595
 8227TIP3    H124642   6.127   1.922   4.420 -0.5350  0.2741 -1.9608
 8227TIP3    H224643   6.049   1.793   4.413  0.3835 -0.4527  0.9061
 8228TIP3   OH224644   4.339   6.845   5.293  0.1718 -0.3194 -0.3208
 8228TIP3    H124645   4.345   6.773   5.355  0.7755 -0.1276 -0.1515
 8228TIP3    H224646   4.333   6.924   5.347 -1.0870 -0.2800 -0.5023
 8229TIP3   OH224647   7.198   6.973   4.541  0.3176  0.2303  0.2098
 8229TIP3    H124648   7.199   6.953   4.634  0.8250 -0.2913  0.0938
 8229TIP3    H224649   7.277   7.025   4.526  0.0530  0.6127  0.1364
 8230TIP3   OH224650   3.635   6.994   5.300  0.6722 -0.1735  0.2184
 8230TIP3    H124651   3.711   6.953   5.258  0.0286 -0.3267 -0.8397
 8230TIP3    H224652   3.666   7.081   5.327  0.7083  0.5069 -1.9194
 8231TIP3   OH224653   7.142   1.367   0.100  0.2797 -0.5312  0.5379
 8231TIP3    H124654   7.148   1.272   0.089 -2.2102 -0.8363  1.5788
 8231TIP3    H224655   7.160   1.382   0.193 -2.2501 -0.2983  1.0186
 8232TIP3   OH224656   5.998   6.988   4.163  0.3750  0.3009 -0.3010
 8232TIP3    H124657   5.958   6.992   4.249  1.1689 -0.0880  0.0998
 8232TIP3    H224658   5.984   7.074   4.125 -1.2138  0.0220 -0.3485
 8233TIP3   OH224659   1.021   0.099   4.148  0.8797 -0.1070 -0.2038
 8233TIP3    H124660   0.982   0.074   4.232 -3.2737  2.5298 -1.1995
 8233TIP3    H224661   1.037   0.193   4.156  1.3830 -0.0193 -2.0119
 8234TIP3   OH224662   7.515   0.132   3.629 -0.2124  0.4170  0.3667
 8234TIP3    H124663   7.610   0.128   3.621 -0.0542  1.7423  1.4368
 8234TIP3    H224664   7.485   0.044   3.608  1.4725 -0.8156  2.8789
 8235TIP3   OH224665   0.194   0.819   3.824  0.1055 -0.1735  0.5368
 8235TIP3    H124666   0.235   0.765   3.892 -0.8163 -2.2224 -0.4895
 8235TIP3    H224667   0.228   0.907   3.839  3.1097 -1.3961  1.0855
 8236TIP3   OH224668   4.531   6.485   1.127 -0.0285  0.3689  0.5585
 8236TIP3    H124669   4.577   6.463   1.046 -0.6001  2.2532 -0.3103
 8236TIP3    H224670   4.441   6.502   1.099  0.0351  2.1802  1.4024
 8237TIP3   OH224671   5.683   6.930   1.859  0.0475 -0.2704  0.1861
 8237TIP3    H124672   5.691   6.845   1.901  0.9849  0.4522  1.5344
 8237TIP3    H224673   5.688   6.993   1.932 -0.8863  0.9153 -0.7598
 8238TIP3   OH224674   4.821   6.211   1.982  0.4046  0.4777  0.3624
 8238TIP3    H124675   4.775   6.244   2.060 -0.0697 -0.8595  0.6528
 8238TIP3    H224676   4.911   6.198   2.011 -0.2934 -2.3323  1.3878
 8239TIP3   OH224677   7.239   0.393   3.280  0.1079  0.0583 -0.1283
 8239TIP3    H124678   7.239   0.454   3.206  1.2030  0.6037  0.3080
 8239TIP3    H224679   7.253   0.449   3.357 -0.4830 -0.5658  0.4305
 8240TIP3   OH224680   5.491   0.072   3.222  0.2638  0.2881  0.0712
 8240TIP3    H124681   5.447   0.024   3.292  0.2784 -1.8899 -1.3453
 8240TIP3    H224682   5.424   0.081   3.154  1.5388 -1.8573 -1.5544
 8241TIP3   OH224683   0.932   1.199   1.237  0.3776  0.1561  0.5268
 8241TIP3    H124684   0.866   1.250   1.284 -0.1484  0.1556 -0.1977
 8241TIP3    H224685   0.904   1.203   1.145  1.0092 -0.4140  0.3062
 8242TIP3   OH224686   6.459   6.767   3.551  0.3655 -0.1246 -0.4817
 8242TIP3    H124687   6.393   6.815   3.601 -0.8627  0.1242 -2.3035
 8242TIP3    H224688   6.527   6.833   3.533 -0.0311  0.2309 -0.6778
 8243TIP3   OH224689   0.538   3.625   3.787  0.6615 -0.3090  0.3530
 8243TIP3    H124690   0.449   3.625   3.823  0.5853 -1.0728  0.1857
 8243TIP3    H224691   0.535   3.558   3.718  0.6720  1.4343 -1.3895
 8244TIP3   OH224692   7.502   2.410   1.254 -0.6549  0.2042  0.2270
 8244TIP3    H124693   7.454   2.467   1.195 -0.4502  1.8603  1.6147
 8244TIP3    H224694   7.587   2.395   1.211 -1.8612 -1.6267 -1.5891
 8245TIP3   OH224695   6.861   5.780   3.835  0.1126 -0.0361 -0.2235
 8245TIP3    H124696   6.773   5.789   3.871  0.1347 -0.1767 -0.1337
 8245TIP3    H224697   6.847   5.752   3.744  0.0394  1.0934 -0.5667
 8246TIP3   OH224698   6.277   7.070   3.956  0.3408 -0.1627  0.3813
 8246TIP3    H124699   6.223   6.995   3.930  0.4208  0.0940 -0.5559
 8246TIP3    H224700   6.293   7.057   4.050  1.2666 -1.9049  0.0157
 8247TIP3   OH224701   5.664   0.782   4.036  0.6432  0.0287  0.0117
 8247TIP3    H124702   5.695   0.828   4.114 -0.7847  2.9653 -1.0704
 8247TIP3    H224703   5.579   0.747   4.061  0.3717  0.6098 -0.0963
 8248TIP3   OH224704   7.273   5.816   4.779 -0.2523  0.0098 -0.9632
 8248TIP3    H124705   7.284   5.908   4.755 -0.5170  0.5954  1.0756
 8248TIP3    H224706   7.267   5.770   4.696 -0.8316  1.9297 -1.9999
 8249TIP3   OH224707   1.030   0.842   3.845  0.2129 -0.3043  0.0514
 8249TIP3    H124708   1.109   0.894   3.835  0.1494 -0.3069 -0.4422
 8249TIP3    H224709   0.972   0.871   3.775  0.2722 -1.2142 -0.3745
 8250TIP3   OH224710   6.472   0.958   1.809 -0.0721 -0.2035  0.1849
 8250TIP3    H124711   6.440   0.990   1.893 -0.3407 -0.4848  0.1910
 8250TIP3    H224712   6.565   0.941   1.823 -0.2130 -0.6595  0.5440
 8251TIP3   OH224713   6.654   1.849   1.337  1.1896  0.3545  0.4715
 8251TIP3    H124714   6.577   1.808   1.299  1.5165 -2.8111  2.9774
 8251TIP3    H224715   6.721   1.842   1.269 -0.4320  2.2865 -1.3790
 8252TIP3   OH224716   2.476   4.087   5.407  0.3898  0.7794  0.4457
 8252TIP3    H124717   2.417   4.039   5.350  1.5366  1.9500 -1.8166
 8252TIP3    H224718   2.445   4.178   5.403  1.4206  1.1380  0.4614
 8253TIP3   OH224719   7.800   1.242   3.060 -0.0610  0.4062 -0.2769
 8253TIP3    H124720   7.750   1.309   3.107  0.3621  0.2835  0.3537
 8253TIP3    H224721   7.752   1.161   3.074 -0.2567  0.4728 -0.5558
 8254TIP3   OH224722   6.795   1.698   1.814 -0.1787 -0.5826  0.2400
 8254TIP3    H124723   6.878   1.739   1.838 -0.0739  0.7193 -2.1760
 8254TIP3    H224724   6.748   1.766   1.766 -2.4022 -1.4990  1.0658
 8255TIP3   OH224725   4.215   2.016   5.659 -0.9177  0.0523  0.3772
 8255TIP3    H124726   4.172   2.043   5.578 -0.4420 -2.8582 -0.9159
 8255TIP3    H224727   4.296   2.067   5.661 -1.8687  1.6194  0.0777
 8256TIP3   OH224728   2.008   7.220   3.470 -0.2045 -0.1069  0.1629
 8256TIP3    H124729   2.066   7.218   3.547  0.4159  1.5277 -0.2449
 8256TIP3    H224730   2.068   7.222   3.395 -0.8025 -0.5142 -0.3285
 8257TIP3   OH224731   5.247   6.548   3.018  0.1547 -0.2474 -0.0585
 8257TIP3    H124732   5.268   6.593   2.936 -0.3064 -0.0975 -0.0948
 8257TIP3    H224733   5.299   6.594   3.084  0.4288 -0.2847 -0.2464
 8258TIP3   OH224734   0.734   0.031   2.186  0.0694 -0.4670  0.0778
 8258TIP3    H124735   0.789   0.100   2.148 -1.5214 -0.6161 -2.6089
 8258TIP3    H224736   0.667   0.079   2.235 -0.1371 -0.1227 -0.5260
 8259TIP3   OH224737   1.950   1.102   3.732 -0.4613  0.6129  0.5701
 8259TIP3    H124738   1.975   1.073   3.645  0.6330  1.1839  0.6787
 8259TIP3    H224739   2.025   1.079   3.787  0.0166  2.6951  0.8411
 8260TIP3   OH224740   0.572   1.512   3.593  0.4782  0.0502 -0.3402
 8260TIP3    H124741   0.492   1.555   3.563  0.8099  1.2411  0.4486
 8260TIP3    H224742   0.626   1.502   3.515  0.7336  1.8110 -0.4164
 8261TIP3   OH224743   0.487   2.137   3.289 -0.4057 -0.3061 -0.0536
 8261TIP3    H124744   0.534   2.167   3.366 -3.5363  1.0910  1.4394
 8261TIP3    H224745   0.465   2.218   3.242 -0.7725 -0.9536 -1.0165
 8262TIP3   OH224746   4.280   5.028   3.724  0.0627 -0.3461 -0.0134
 8262TIP3    H124747   4.351   5.076   3.768  0.4398 -1.3651  0.5041
 8262TIP3    H224748   4.245   4.969   3.791  0.4584 -1.7145 -0.9789
 8263TIP3   OH224749   0.973   0.400   4.462  0.1963  0.0512 -0.4037
 8263TIP3    H124750   0.879   0.386   4.454  0.0405 -0.3464  1.7874
 8263TIP3    H224751   1.002   0.422   4.373 -1.8462 -0.4329 -1.2130
 8264TIP3   OH224752   3.269   7.001   4.416  0.5174 -0.0352  0.3680
 8264TIP3    H124753   3.299   7.032   4.501 -1.1718  0.5939  0.7654
 8264TIP3    H224754   3.347   7.000   4.361  1.3305  1.1189  1.4753
 8265TIP3   OH224755   6.201   6.805   2.863 -0.0370  0.1841  0.4372
 8265TIP3    H124756   6.175   6.881   2.811 -0.2988  0.3491  0.8092
 8265TIP3    H224757   6.225   6.841   2.948  2.6186  0.1874 -0.2517
 8266TIP3   OH224758   5.480   7.289   4.660 -0.2719 -0.1899  0.2574
 8266TIP3    H124759   5.561   7.295   4.710 -1.1392  2.0806  1.4324
 8266TIP3    H224760   5.413   7.266   4.724 -0.9192 -0.0792 -0.3707
 8267TIP3   OH224761   7.101   2.538   1.291  0.2214 -0.3803 -0.1163
 8267TIP3    H124762   7.139   2.585   1.365  1.7898 -2.1463  0.2328
 8267TIP3    H224763   7.067   2.457   1.328 -0.8905 -0.3468 -1.0020
 8268TIP3   OH224764   2.284   0.881   6.247 -0.1325  0.2328  0.1009
 8268TIP3    H124765   2.244   0.834   6.175  1.3227  0.0377 -0.6018
 8268TIP3    H224766   2.331   0.954   6.206  0.0937  0.5595  0.9124
 8269TIP3   OH224767   6.447   7.342   4.439 -0.0997  0.2133 -0.1466
 8269TIP3    H124768   6.435   7.338   4.344  0.8116 -0.8914 -0.2321
 8269TIP3    H224769   6.358   7.346   4.475 -0.4681 -0.1326 -1.0169
 8270TIP3   OH224770   5.777   4.879   4.282 -0.0990 -0.0491  0.0842
 8270TIP3    H124771   5.709   4.813   4.266 -1.4611  1.5817 -1.1435
 8270TIP3    H224772   5.859   4.836   4.261 -1.1868 -0.5570 -3.3710
 8271TIP3   OH224773   1.637   1.279   4.620  0.0418  0.3783 -0.3360
 8271TIP3    H124774   1.604   1.275   4.710  0.8321 -0.8402 -0.0814
 8271TIP3    H224775   1.617   1.368   4.591  1.7540  1.5277  1.8215
 8272TIP3   OH224776   3.738   4.553   1.870  0.0145 -0.3297 -0.2420
 8272TIP3    H124777   3.780   4.554   1.784  1.1468  2.2577  0.2651
 8272TIP3    H224778   3.775   4.476   1.914  2.3729  0.4641 -0.7324
 8273TIP3   OH224779   4.419   5.752   2.367 -0.1686 -0.2681  0.2888
 8273TIP3    H124780   4.474   5.710   2.300 -0.8215  0.9053 -1.0125
 8273TIP3    H224781   4.334   5.764   2.324 -1.1207 -1.0455  1.9087
 8274TIP3   OH224782   4.140   6.416   1.239  0.2620  0.3336 -0.5961
 8274TIP3    H124783   4.052   6.455   1.241 -0.2930 -0.8576 -1.0682
 8274TIP3    H224784   4.153   6.382   1.327  0.7056  1.4798 -0.2125
 8275TIP3   OH224785   5.942   2.540   1.661  0.2748 -0.3219 -0.4978
 8275TIP3    H124786   5.851   2.559   1.681  0.8177 -0.2722  2.0071
 8275TIP3    H224787   5.971   2.616   1.610 -0.9075 -0.0749 -0.8190
 8276TIP3   OH224788   4.159   5.486   2.115  0.5482 -0.0936  0.2596
 8276TIP3    H124789   4.074   5.497   2.073 -1.4602  1.4485  4.3916
 8276TIP3    H224790   4.171   5.391   2.121 -1.0453 -0.3388 -0.1310
 8277TIP3   OH224791   5.439   3.299   0.579  0.1916  0.0559  0.4171
 8277TIP3    H124792   5.441   3.269   0.488  0.4762  1.2981 -0.0080
 8277TIP3    H224793   5.388   3.380   0.576  0.2964  0.1613  1.3480
 8278TIP3   OH224794   1.382   1.248   4.498 -0.5846  0.0084  0.1707
 8278TIP3    H124795   1.391   1.335   4.537  1.5040 -0.3462  0.5284
 8278TIP3    H224796   1.445   1.194   4.545 -0.7009 -1.3224 -1.1649
 8279TIP3   OH224797   2.510   2.280   4.846 -0.4316  0.0515  0.4556
 8279TIP3    H124798   2.523   2.322   4.931 -0.3452  1.2414 -0.1514
 8279TIP3    H224799   2.472   2.348   4.790  0.2089 -0.5067 -0.6820
 8280TIP3   OH224800   4.578   5.345   0.937 -0.3623  0.0905  0.2518
 8280TIP3    H124801   4.631   5.419   0.967  0.8059 -0.8457  0.5254
 8280TIP3    H224802   4.607   5.271   0.991 -2.5405 -0.2661  1.0143
 8281TIP3   OH224803   1.498   1.849   6.320 -0.3236  0.4724  0.2546
 8281TIP3    H124804   1.479   1.773   6.374 -1.9456  0.4364 -0.3534
 8281TIP3    H224805   1.504   1.815   6.231 -1.4477  1.1040 -0.0740
 8282TIP3   OH224806   6.849   5.503   0.909  0.1577  0.1350  0.5055
 8282TIP3    H124807   6.788   5.439   0.946  0.3358 -0.3318 -0.0029
 8282TIP3    H224808   6.796   5.581   0.893  0.2522  0.6307  2.5124
 8283TIP3   OH224809   2.659   1.121   5.036 -0.6521 -0.1570  0.4514
 8283TIP3    H124810   2.582   1.089   5.083 -1.4614 -0.1185 -0.8252
 8283TIP3    H224811   2.628   1.198   4.989  0.5182  0.6631  1.0289
 8284TIP3   OH224812   3.916   1.414   6.350  0.0572 -0.4613  0.1019
 8284TIP3    H124813   3.993   1.430   6.296  0.0592 -3.3625 -0.8432
 8284TIP3    H224814   3.846   1.397   6.287 -0.8246 -0.1645  0.9883
 8285TIP3   OH224815   1.673   3.224   3.476  0.1033  0.6014 -0.5198
 8285TIP3    H124816   1.752   3.278   3.485  0.7381 -0.3201 -0.4919
 8285TIP3    H224817   1.660   3.217   3.382 -0.2307  1.1673 -0.5152
 8286TIP3   OH224818   4.866   4.724   1.023 -0.3999  0.2264 -0.5351
 8286TIP3    H124819   4.923   4.755   1.093  0.2517  0.3270 -1.1038
 8286TIP3    H224820   4.845   4.634   1.047 -1.6415  0.8402  0.7095
 8287TIP3   OH224821   0.978   1.650   5.411  0.0674  0.0557 -0.3274
 8287TIP3    H124822   0.949   1.718   5.471 -1.2461  0.6553 -1.6108
 8287TIP3    H224823   0.897   1.619   5.369  0.8494 -1.0482 -1.0438
 8288TIP3   OH224824   4.745   5.606   1.514  0.3006 -0.5614 -0.2325
 8288TIP3    H124825   4.656   5.581   1.487  0.1811  0.1592 -0.5215
 8288TIP3    H224826   4.739   5.614   1.609 -0.6316  2.0712 -0.4736
 8289TIP3   OH224827   7.258   6.874   5.380 -0.3307  0.1336  0.1152
 8289TIP3    H124828   7.313   6.803   5.347  0.6909  0.6954  0.5619
 8289TIP3    H224829   7.247   6.933   5.305  0.1606  0.3083  0.1787
 8290TIP3   OH224830   1.116   6.693   5.332 -0.2240  0.6485  0.1202
 8290TIP3    H124831   1.113   6.738   5.417  1.0716  0.9498  0.0163
 8290TIP3    H224832   1.209   6.680   5.315 -0.4610  0.8746 -1.4226
 8291TIP3   OH224833   1.524   0.649   4.165 -0.0810 -0.4374 -0.0221
 8291TIP3    H124834   1.610   0.658   4.124  0.7515 -1.9276  1.3284
 8291TIP3    H224835   1.477   0.587   4.109 -0.2480  0.2892 -0.6968
 8292TIP3   OH224836   4.770   3.255   1.393  0.0762 -0.1263  0.3340
 8292TIP3    H124837   4.790   3.199   1.318 -0.1758 -0.3889  0.4575
 8292TIP3    H224838   4.729   3.333   1.355  2.1154  0.8068  0.0152
 8293TIP3   OH224839   4.904   5.646   2.412 -0.5288  0.3850 -0.0762
 8293TIP3    H124840   4.920   5.560   2.375 -1.7995 -0.4472  1.2484
 8293TIP3    H224841   4.984   5.696   2.394 -0.7190 -0.2791 -3.0125
 8294TIP3   OH224842   3.556   2.582   6.208 -0.0798 -0.1800 -0.0529
 8294TIP3    H124843   3.635   2.577   6.262  0.2883  0.8861 -0.4801
 8294TIP3    H224844   3.587   2.573   6.118 -0.2344  2.0292 -0.3388
 8295TIP3   OH224845   3.809   2.378   4.196  0.0144  0.8118 -0.0780
 8295TIP3    H124846   3.903   2.383   4.211  0.0761  1.8864 -0.7600
 8295TIP3    H224847   3.783   2.467   4.173 -1.2837  0.6566  0.7154
 8296TIP3   OH224848   5.295   3.915   0.517 -0.0898 -0.1153 -0.6530
 8296TIP3    H124849   5.324   3.854   0.584 -0.3901  0.2699 -0.1676
 8296TIP3    H224850   5.325   4.001   0.548 -1.3272  0.2254 -0.3721
 8297TIP3   OH224851   1.289   4.365   0.316 -0.3468  0.2859  0.4003
 8297TIP3    H124852   1.377   4.376   0.353 -0.0218  0.1637 -0.3327
 8297TIP3    H224853   1.230   4.375   0.391  0.4271 -2.8522  1.5164
 8298TIP3   OH224854   4.884   2.059   2.559 -0.1000  0.2704  0.0241
 8298TIP3    H124855   4.885   2.103   2.475 -1.6101 -2.8143 -1.7045
 8298TIP3    H224856   4.964   2.006   2.560  0.2175  0.7452  0.8097
 8299TIP3   OH224857   7.396   5.199   0.318 -0.1064 -0.4490 -0.1831
 8299TIP3    H124858   7.302   5.205   0.304 -0.0008 -3.7615 -2.8763
 8299TIP3    H224859   7.432   5.174   0.233  3.2640  1.0263  0.7077
 8300TIP3   OH224860   4.122   1.037   5.500 -0.4405 -0.1063 -0.0610
 8300TIP3    H124861   4.046   0.981   5.483 -0.1659 -0.2900 -0.7124
 8300TIP3    H224862   4.086   1.124   5.511 -0.7802 -0.2544  0.0003
 8301TIP3   OH224863   3.195   2.566   5.366 -0.3052 -0.2783 -0.7002
 8301TIP3    H124864   3.220   2.604   5.451 -1.0767  0.9281 -1.0095
 8301TIP3    H224865   3.115   2.612   5.341 -1.4555 -2.3217 -0.9458
 8302TIP3   OH224866   2.890   2.989   6.329  0.0834  0.4954 -0.2190
 8302TIP3    H124867   2.823   2.978   6.261  0.2331 -1.7078 -0.0524
 8302TIP3    H224868   2.935   3.070   6.306 -0.2938  0.1089 -2.3859
 8303TIP3   OH224869   2.549   3.370   3.734 -0.2236 -0.1445 -0.0970
 8303TIP3    H124870   2.616   3.419   3.686  0.0324 -0.5973 -0.2045
 8303TIP3    H224871   2.524   3.427   3.807 -0.0557  0.2185 -0.3231
 8304TIP3   OH224872   2.333   1.936   5.549 -0.0991  0.1552  0.1278
 8304TIP3    H124873   2.289   2.020   5.541  0.9231  0.5228 -1.8795
 8304TIP3    H224874   2.409   1.943   5.492 -0.1640 -2.2375 -0.3115
 8305TIP3   OH224875   2.576   1.640   3.378  0.2044  0.1433  0.4347
 8305TIP3    H124876   2.534   1.612   3.296 -1.0728  1.9863  0.4202
 8305TIP3    H224877   2.513   1.700   3.417  2.7787  2.9620  0.4454
 8306TIP3   OH224878   4.453   1.930   5.902 -0.5456 -0.4571  0.2640
 8306TIP3    H124879   4.413   1.995   5.845  0.0523 -0.2036  0.1232
 8306TIP3    H224880   4.545   1.957   5.908 -0.3449 -1.1492  0.3977
 8307TIP3   OH224881   4.822   2.842   5.296  0.0795  0.6434 -0.3757
 8307TIP3    H124882   4.905   2.887   5.281  0.3055  0.3402 -0.0340
 8307TIP3    H224883   4.757   2.898   5.253  0.3420  1.3475  0.1358
 8308TIP3   OH224884   7.713   5.520   0.934  0.4100  0.5785  0.1666
 8308TIP3    H124885   7.804   5.510   0.960  0.7101  1.2488 -0.6162
 8308TIP3    H224886   7.688   5.607   0.965 -0.4235 -0.1781  1.6974
 8309TIP3   OH224887   5.827   5.735   0.284  0.2539  0.1900  0.3194
 8309TIP3    H124888   5.919   5.709   0.287  0.1996  0.0632  1.1376
 8309TIP3    H224889   5.781   5.659   0.248  0.2921 -0.2936  1.2610
 8310TIP3   OH224890   1.078   4.145   0.291 -0.2519  0.0521  0.1886
 8310TIP3    H124891   1.132   4.209   0.338  1.4926  0.6772 -2.5455
 8310TIP3    H224892   1.022   4.198   0.235 -0.3810 -0.7583 -0.4557
 8311TIP3   OH224893   5.252   1.099   4.989 -0.0352 -0.2289 -0.3718
 8311TIP3    H124894   5.283   1.012   4.964 -1.5901 -0.4592 -1.5330
 8311TIP3    H224895   5.246   1.147   4.907  0.3705  0.8428  0.2120
 8312TIP3   OH224896   6.408   5.500   1.774  0.4488  0.0726  0.0975
 8312TIP3    H124897   6.398   5.580   1.722 -0.9501 -0.1133  0.0654
 8312TIP3    H224898   6.498   5.473   1.759  1.2146  2.1047  0.7677
 8313TIP3   OH224899   6.398   3.266   0.212 -0.6184 -0.1778 -0.4322
 8313TIP3    H124900   6.461   3.322   0.167 -1.2927 -0.4716 -1.7999
 8313TIP3    H224901   6.330   3.325   0.244  0.8593  0.2550  1.9602
 8314TIP3   OH224902   4.567   3.443   0.312  0.2459  0.1713  0.0440
 8314TIP3    H124903   4.614   3.361   0.328 -0.6006 -0.0892  1.1638
 8314TIP3    H224904   4.592   3.466   0.222  1.8203 -0.4241  0.2974
 8315TIP3   OH224905   4.614   6.677   0.276  0.6135 -0.8137  0.7596
 8315TIP3    H124906   4.596   6.584   0.272  0.6965 -0.7265 -2.1268
 8315TIP3    H224907   4.667   6.696   0.199 -2.1516  2.1753 -0.5751
 8316TIP3   OH224908   1.578   1.834   5.167 -0.0467 -0.3961  0.0437
 8316TIP3    H124909   1.663   1.802   5.198 -0.3357  0.9147  2.3082
 8316TIP3    H224910   1.561   1.784   5.087  2.7396 -0.8385 -0.3228
 8317TIP3   OH224911   5.317   5.391   1.128 -0.3142  0.0551  0.2795
 8317TIP3    H124912   5.391   5.346   1.088 -1.2707 -1.7164  0.4525
 8317TIP3    H224913   5.258   5.409   1.055 -0.1111  0.6605  0.2674
 8318TIP3   OH224914   5.044   5.613   0.641  0.1375  0.6605  0.2128
 8318TIP3    H124915   4.972   5.588   0.699 -0.0918 -0.4580 -0.5309
 8318TIP3    H224916   5.063   5.704   0.664 -1.0241  0.7369  0.9214
 8319TIP3   OH224917   3.328   3.660   5.067 -0.4102 -0.5762  0.2768
 8319TIP3    H124918   3.418   3.674   5.094 -0.6197  1.3018  0.1364
 8319TIP3    H224919   3.327   3.680   4.973 -1.1684  0.5389  0.5052
 8320TIP3   OH224920   6.995   6.002   3.917  0.4079 -0.5532 -0.2101
 8320TIP3    H124921   6.963   6.039   4.000  1.0655  0.3172 -0.3424
 8320TIP3    H224922   6.954   5.915   3.913 -1.0734  0.1068  0.1482
 8321TIP3   OH224923   7.153   1.103   0.069  0.5271 -0.0097 -0.0740
 8321TIP3    H124924   7.209   1.065   0.137 -0.7995 -2.0903 -0.1238
 8321TIP3    H224925   7.170   1.050  -0.009 -1.6475 -0.8094 -0.0332
 8322TIP3   OH224926   6.254   5.963   5.246  0.2793  0.3654  0.8359
 8322TIP3    H124927   6.317   5.899   5.213 -0.1040  0.4671 -0.1355
 8322TIP3    H224928   6.304   6.020   5.304  0.0822 -2.3827  3.8135
 8323TIP3   OH224929   4.837   4.701   0.734  0.3198  0.1014 -0.4108
 8323TIP3    H124930   4.858   4.792   0.712 -0.3490  0.3025 -0.2240
 8323TIP3    H224931   4.844   4.697   0.829 -0.9096  0.2763 -0.3117
 8324TIP3   OH224932   4.080   0.636   5.483 -0.0438 -0.1885 -0.4125
 8324TIP3    H124933   4.042   0.724   5.475  1.3633  0.4349 -0.4065
 8324TIP3    H224934   4.028   0.582   5.424  0.6243  1.1873 -2.3141
 8325TIP3   OH224935   4.228   0.715   4.157  0.2357  0.1022 -0.3658
 8325TIP3    H124936   4.267   0.800   4.176  0.1480 -0.0443  0.5264
 8325TIP3    H224937   4.135   0.733   4.146 -0.0233 -0.0667  1.3204
 8326TIP3   OH224938   6.212   5.638   0.852 -0.8527 -0.0200 -0.0218
 8326TIP3    H124939   6.157   5.563   0.832 -1.3720  1.0176 -2.7465
 8326TIP3    H224940   6.184   5.706   0.791  0.7109  1.8709  1.2664
 8327TIP3   OH224941   3.749   1.349   6.139  0.1732 -0.0002  0.2606
 8327TIP3    H124942   3.710   1.436   6.151  1.1310  0.3445  0.9467
 8327TIP3    H224943   3.697   1.292   6.196 -0.3154  0.1560 -0.0205
 8328TIP3   OH224944   5.671   3.409   2.312 -0.1935  0.3775 -0.3910
 8328TIP3    H124945   5.713   3.471   2.373  0.2252  1.0659 -1.3655
 8328TIP3    H224946   5.589   3.451   2.287  1.1793  1.6900 -2.9086
 8329TIP3   OH224947   6.220   6.066   2.243 -0.0637  0.1032 -0.0256
 8329TIP3    H124948   6.156   6.005   2.207  0.3993  0.1855 -0.9997
 8329TIP3    H224949   6.289   6.071   2.176 -0.5960  2.5223 -0.4348
 8330TIP3   OH224950   5.919   5.208   0.754 -0.0154 -0.0409  0.7195
 8330TIP3    H124951   5.836   5.256   0.749 -1.0069 -1.8033 -0.5356
 8330TIP3    H224952   5.898   5.129   0.803  0.6275 -1.0505 -0.5986
 8331TIP3   OH224953   3.555   2.599   5.939  0.1413 -0.5245 -0.1151
 8331TIP3    H124954   3.556   2.593   5.844 -0.2677 -1.7804 -0.0421
 8331TIP3    H224955   3.485   2.663   5.958  0.0710 -0.4431 -0.6420
 8332TIP3   OH224956   2.191   1.582   4.337  0.0612 -0.1566  0.3987
 8332TIP3    H124957   2.209   1.632   4.417 -0.4953  0.1033  0.3697
 8332TIP3    H224958   2.102   1.549   4.350 -0.6383  1.2046 -0.7815
 8333TIP3   OH224959   0.441   5.156   1.625 -0.4487 -0.3162 -0.7478
 8333TIP3    H124960   0.500   5.147   1.700 -0.7668 -2.6648 -0.7544
 8333TIP3    H224961   0.474   5.233   1.578  2.3476 -1.3185 -0.5088
 8334TIP3   OH224962   0.805   5.068   1.494  0.4090 -0.3783 -0.5418
 8334TIP3    H124963   0.839   5.156   1.478  0.7959 -0.4674 -0.1994
 8334TIP3    H224964   0.837   5.045   1.581  0.3530 -0.8836 -0.6542
 8335TIP3   OH224965   6.098   1.790   6.224 -0.2500  0.5429  0.2368
 8335TIP3    H124966   6.114   1.709   6.273 -0.5384 -0.2414 -0.9324
 8335TIP3    H224967   6.185   1.828   6.212  0.0328 -0.2285 -0.2508
 8336TIP3   OH224968   7.513   3.981   2.285  0.1687 -0.3430 -0.0495
 8336TIP3    H124969   7.475   4.068   2.273  0.4467 -0.3207 -0.7961
 8336TIP3    H224970   7.601   3.988   2.248  0.0385 -1.0500 -0.5052
 8337TIP3   OH224971   1.971   5.189   6.229  0.8994  0.2209 -0.8613
 8337TIP3    H124972   1.953   5.151   6.315 -2.7897  0.4607 -1.4480
 8337TIP3    H224973   2.063   5.168   6.212  1.6337 -0.0224  3.0138
 8338TIP3   OH224974   3.979   1.709   3.984  0.4548  0.5864  0.4106
 8338TIP3    H124975   3.985   1.804   3.976 -1.3382  0.7282  0.5535
 8338TIP3    H224976   3.889   1.693   4.010 -0.0472 -1.3356 -2.3334
 8339TIP3   OH224977   4.908   5.041   1.723  0.1268  0.3998 -0.5183
 8339TIP3    H124978   4.963   4.976   1.766 -1.0142 -0.9469 -1.0660
 8339TIP3    H224979   4.969   5.110   1.697  1.3116 -0.3201  0.2831
 8340TIP3   OH224980   2.568   1.677   5.171  0.3309 -0.0486 -0.2271
 8340TIP3    H124981   2.529   1.670   5.258  2.1760 -0.5692  0.5712
 8340TIP3    H224982   2.539   1.763   5.140 -1.4550 -0.4211  0.3166
 8341TIP3   OH224983   4.374   1.478   5.791  0.4813  0.3756  0.3123
 8341TIP3    H124984   4.410   1.389   5.782 -0.5294  0.1396 -2.0186
 8341TIP3    H224985   4.410   1.526   5.716 -0.0190  1.5630  0.8234
 8342TIP3   OH224986   4.682   4.998   2.320  0.8092  0.2909  0.1492
 8342TIP3    H124987   4.726   5.017   2.237  2.1507 -1.4226  0.4168
 8342TIP3    H224988   4.637   4.915   2.305 -1.9537  1.7712  0.0520
 8343TIP3   OH224989   3.656   1.208   5.517 -0.2633 -0.1588 -1.0141
 8343TIP3    H124990   3.722   1.270   5.546  1.0542 -1.8350 -0.3240
 8343TIP3    H224991   3.583   1.262   5.487  0.9570  1.6982 -0.6923
 8344TIP3   OH224992   0.481   5.009   1.341  0.1417  0.0812  0.7526
 8344TIP3    H124993   0.461   5.085   1.394 -0.7404 -0.2434  0.8935
 8344TIP3    H224994   0.396   4.972   1.318  0.5478 -0.6615  0.3977
 8345TIP3   OH224995   4.889   3.890   1.243 -0.1222  0.2885 -0.3280
 8345TIP3    H124996   4.917   3.979   1.263  1.4308 -0.0010 -1.1354
 8345TIP3    H224997   4.872   3.850   1.329  0.9261  0.8171  0.1402
 8346TIP3   OH224998   6.053   6.334   0.600 -0.4785 -0.2570 -0.0134
 8346TIP3    H124999   6.007   6.257   0.632  1.3719 -0.3238  2.6617
 8346TIP3    H225000   6.122   6.299   0.544  1.3701 -0.7114  2.4698
 8347TIP3   OH225001   2.917   6.065   2.716 -0.0458 -0.0616  0.3828
 8347TIP3    H125002   2.926   5.976   2.681 -0.0544 -0.4647  1.3879
 8347TIP3    H225003   3.003   6.105   2.704  0.3341 -0.6499  1.1248
 8348TIP3   OH225004   6.523   6.105   2.339  0.0520 -0.3159 -0.0829
 8348TIP3    H125005   6.465   6.060   2.277 -0.1528 -1.7907  1.1314
 8348TIP3    H225006   6.563   6.175   2.288 -1.7743 -0.1167 -1.2997
 8349TIP3   OH225007   2.540   2.513   4.601 -0.6386 -0.2138 -0.1246
 8349TIP3    H125008   2.458   2.508   4.651 -0.1962  0.0866  0.6314
 8349TIP3    H225009   2.598   2.566   4.654 -0.4667  0.9178 -1.4106
 8350TIP3   OH225010   5.784   4.812   2.055 -0.6059  0.5356  0.1318
 8350TIP3    H125011   5.867   4.848   2.024 -1.3535  3.2299  1.1593
 8350TIP3    H225012   5.737   4.788   1.975  0.4600  0.5292 -0.5037
 8351TIP3   OH225013   5.251   4.354   1.708 -0.0156  0.3280 -0.0188
 8351TIP3    H125014   5.233   4.374   1.800 -0.3053  0.0153 -0.0063
 8351TIP3    H225015   5.335   4.308   1.709 -1.1410 -1.7996  0.3456
 8352TIP3   OH225016   5.340   5.980   0.823 -0.2173  0.2617 -0.3548
 8352TIP3    H125017   5.388   6.041   0.767 -0.9075  0.9488 -0.2090
 8352TIP3    H225018   5.321   6.030   0.902  0.2895 -0.5385  0.2792
 8353TIP3   OH225019   4.579   2.164   6.071  0.3316  0.0514  0.8491
 8353TIP3    H125020   4.565   2.248   6.027 -1.9410 -1.1217 -0.7838
 8353TIP3    H225021   4.501   2.151   6.124  1.7162  0.0265  2.9450
 8354TIP3   OH225022   3.892   2.867   6.286 -0.0920  0.1826 -0.0531
 8354TIP3    H125023   3.847   2.792   6.247  0.5026 -1.5737  2.5230
 8354TIP3    H225024   3.985   2.849   6.274  0.0646  0.3380  0.8905
 8355TIP3   OH225025   5.222   4.423   0.638  0.4513 -0.7617  0.5409
 8355TIP3    H125026   5.142   4.385   0.602  0.0543 -1.0154  1.7037
 8355TIP3    H225027   5.206   4.518   0.635  0.0351 -0.8210  0.9644
 8356TIP3   OH225028   7.651   4.720   6.394 -0.3673 -0.0699  0.2242
 8356TIP3    H125029   7.566   4.762   6.383 -0.3820 -0.2235 -0.3159
 8356TIP3    H225030   7.674   4.691   6.305  0.1303 -0.2490  0.4107
 8357TIP3   OH225031   2.510   1.735   4.668  0.1876  0.1442  0.3838
 8357TIP3    H125032   2.564   1.809   4.693 -0.9571  1.0993  0.0826
 8357TIP3    H225033   2.549   1.660   4.713  2.1494  0.6851 -0.3557
 8358TIP3   OH225034   3.183   2.064   4.718  0.1321  0.5827  0.0651
 8358TIP3    H125035   3.146   2.016   4.644 -0.7635 -0.3619  1.0933
 8358TIP3    H225036   3.239   2.131   4.679 -0.2084 -0.0078 -1.4470
 8359TIP3   OH225037   6.252   6.807   0.062  0.0165 -0.5841  0.1532
 8359TIP3    H125038   6.292   6.867   0.126  1.6576 -0.1620 -1.2295
 8359TIP3    H225039   6.308   6.814  -0.015 -1.3395 -1.8853 -0.9720
 8360TIP3   OH225040   3.564   5.128   0.364  0.1795 -0.1729  0.2287
 8360TIP3    H125041   3.516   5.188   0.307 -1.0517  0.2993  1.7497
 8360TIP3    H225042   3.652   5.166   0.368  0.0779  0.1975 -0.7422
 8361TIP3   OH225043   7.686   5.106   1.955 -0.0912  0.3374  0.4145
 8361TIP3    H125044   7.754   5.041   1.973 -0.6976 -0.6419 -0.6992
 8361TIP3    H225045   7.718   5.154   1.878  0.5188  1.6186  1.4474
 8362TIP3   OH225046   0.485   4.527   0.032  0.1468  0.0175 -0.2190
 8362TIP3    H125047   0.424   4.515  -0.041  1.4656  1.2869 -1.5569
 8362TIP3    H225048   0.555   4.465   0.016  0.0709 -0.2259  0.3840
 8363TIP3   OH225049   6.961   2.628   0.635  0.1426  0.0172  0.0971
 8363TIP3    H125050   7.010   2.555   0.673 -0.1922 -0.3145 -0.1026
 8363TIP3    H225051   6.901   2.655   0.705  0.8010  0.6183  0.4480
 8364TIP3   OH225052   3.026   1.748   3.770  0.4429 -0.1531 -0.6165
 8364TIP3    H125053   3.019   1.751   3.866 -1.8980  1.0243 -0.7742
 8364TIP3    H225054   3.108   1.792   3.750  0.9538 -0.4124  0.8558
 8365TIP3   OH225055   5.407   5.398   1.982 -0.7152 -0.6497 -0.2380
 8365TIP3    H125056   5.412   5.303   1.971 -0.6609 -0.7152  0.3232
 8365TIP3    H225057   5.437   5.433   1.898  0.5431 -1.1236 -0.0080
 8366TIP3   OH225058   3.023   1.325   6.265  0.1920  0.2202  0.2037
 8366TIP3    H125059   3.022   1.242   6.217  0.3688  0.5482 -0.3520
 8366TIP3    H225060   3.018   1.298   6.357 -0.9110 -0.3816 -0.0113
 8367TIP3   OH225061   4.820   5.027   5.969  0.2404 -0.6579 -0.0476
 8367TIP3    H125062   4.862   5.088   5.908  0.0216 -0.8267 -0.3681
 8367TIP3    H225063   4.856   4.942   5.946 -2.4521 -1.2730 -2.3129
 8368TIP3   OH225064   7.522   5.177   0.050 -0.5777 -0.0096 -0.1891
 8368TIP3    H125065   7.515   5.193  -0.044 -1.1945  0.3721 -0.0851
 8368TIP3    H225066   7.514   5.082   0.059 -0.9137 -0.0127 -0.4975
 8369TIP3   OH225067   1.615   1.472   3.262  0.2701 -0.6261 -0.6179
 8369TIP3    H125068   1.534   1.450   3.217  0.6519  0.1990 -1.7379
 8369TIP3    H225069   1.679   1.411   3.227  0.2257 -1.0150 -0.0280
 8370TIP3   OH225070   7.360   3.803   0.856 -0.5429 -0.1283 -0.7451
 8370TIP3    H125071   7.422   3.749   0.906 -1.2919  0.0154  0.3527
 8370TIP3    H225072   7.360   3.764   0.769 -0.5749 -1.5075 -0.1441
 8371TIP3   OH225073   2.235   1.383   5.697  0.5585 -0.3663 -0.4188
 8371TIP3    H125074   2.248   1.436   5.775 -0.6109  0.8401 -1.0261
 8371TIP3    H225075   2.153   1.415   5.659  0.8453 -1.2784 -1.8647
 8372TIP3   OH225076   6.011   3.243   0.374 -0.4785  0.0774  0.3849
 8372TIP3    H125077   5.980   3.190   0.301  2.2344 -1.0486  0.0173
 8372TIP3    H225078   6.009   3.333   0.341 -2.0065 -0.1022 -0.0697
 8373TIP3   OH225079   3.858   0.919   5.868 -0.5187  0.0069  0.1998
 8373TIP3    H125080   3.877   0.844   5.811  2.9106  1.8426 -1.2322
 8373TIP3    H225081   3.941   0.935   5.914 -1.4052  2.5020  0.9958
 8374TIP3   OH225082   2.068   6.858   6.218  0.1918  0.5120  0.0815
 8374TIP3    H125083   2.030   6.823   6.298  0.9883 -0.5120  0.0150
 8374TIP3    H225084   2.106   6.942   6.245  1.7350 -0.4750  1.1274
 8375TIP3   OH225085   1.680   2.091   5.233  0.3360  0.1132 -0.2218
 8375TIP3    H125086   1.619   2.144   5.181  0.7674 -0.7774 -1.6445
 8375TIP3    H225087   1.649   2.001   5.223 -0.6000  0.0670  2.4689
 8376TIP3   OH225088   4.765   6.287   2.251  0.5194 -0.2234 -0.1138
 8376TIP3    H125089   4.808   6.225   2.309 -0.7769  0.5853  1.7521
 8376TIP3    H225090   4.773   6.371   2.296 -2.0657  0.1174 -0.2203
 8377TIP3   OH225091   2.038   2.258   4.922 -0.1875 -0.1656  0.0950
 8377TIP3    H125092   2.070   2.188   4.978 -0.4603 -0.4801 -0.1372
 8377TIP3    H225093   1.970   2.301   4.974 -0.9742 -0.9357 -0.2652
 8378TIP3   OH225094   5.523   4.276   1.690 -0.4198 -0.5016 -0.2018
 8378TIP3    H125095   5.605   4.315   1.657 -0.1144  0.0697  1.1861
 8378TIP3    H225096   5.533   4.183   1.673  0.2426 -0.3569 -0.6556
 8379TIP3   OH225097   4.871   4.029   5.373 -0.1384  0.2071  0.3189
 8379TIP3    H125098   4.866   4.093   5.443  0.0060  2.4321 -1.6314
 8379TIP3    H225099   4.796   3.970   5.388 -0.7780  1.3433  1.6553
 8380TIP3   OH225100   6.253   2.443   1.058  0.1478  0.6528  0.5369
 8380TIP3    H125101   6.187   2.512   1.065  1.6458  2.2982 -1.0337
 8380TIP3    H225102   6.329   2.486   1.019  0.9229 -2.0084 -1.0541
 8381TIP3   OH225103   3.546   1.030   6.098 -0.4328 -0.1858  0.4148
 8381TIP3    H125104   3.594   1.084   6.160  1.1407  0.6394 -1.4845
 8381TIP3    H225105   3.480   1.088   6.061  0.8994  0.3195 -1.2191
 8382TIP3   OH225106   3.594   2.186   5.732 -0.4841  0.4040 -0.0178
 8382TIP3    H125107   3.638   2.271   5.740 -0.2151  0.4027 -1.3262
 8382TIP3    H225108   3.531   2.199   5.661  1.2603 -1.1826 -1.9228
 8383TIP3   OH225109   4.551   2.528   4.950 -0.3126  0.1439 -0.5250
 8383TIP3    H125110   4.636   2.493   4.925 -0.9718 -1.7754 -0.1540
 8383TIP3    H225111   4.494   2.451   4.957 -1.6689  1.2404  0.8103
 8384TIP3   OH225112   7.565   4.864   0.384  0.5101  0.0861 -0.1789
 8384TIP3    H125113   7.638   4.803   0.384 -1.4425 -2.3377 -1.0539
 8384TIP3    H225114   7.543   4.875   0.476  0.8193 -0.6459 -0.0131
 8385TIP3   OH225115   1.620   1.475   6.172  0.4816 -0.1903 -0.5840
 8385TIP3    H125116   1.609   1.396   6.121  0.2376  0.3287 -1.3423
 8385TIP3    H225117   1.536   1.521   6.164  0.5141 -0.0028  0.0977
 8386TIP3   OH225118   0.744   4.953   1.242 -0.4013  0.0783 -0.1976
 8386TIP3    H125119   0.793   5.005   1.305  0.6574 -0.7925 -0.3010
 8386TIP3    H225120   0.652   4.968   1.266 -0.0481  0.5560  0.9023
 8387TIP3   OH225121   0.034   5.047   0.676 -0.1135 -0.5826 -0.4613
 8387TIP3    H125122   0.075   5.029   0.761 -1.5333  1.0508  0.6012
 8387TIP3    H225123   0.096   5.013   0.612  2.1235  0.3594  1.1506
 8388TIP3   OH225124   2.276   6.142   6.229  0.0460  0.0635 -0.0251
 8388TIP3    H125125   2.230   6.059   6.241 -0.3111 -0.0049 -1.7006
 8388TIP3    H225126   2.359   6.118   6.188  0.7849  0.3647  1.2741
 8389TIP3   OH225127   2.131   4.458   0.539 -0.1592  0.3535 -0.0428
 8389TIP3    H125128   2.201   4.406   0.579 -0.8180 -0.0932  0.5386
 8389TIP3    H225129   2.051   4.428   0.583 -0.6569  1.1899 -0.3794
 8390TIP3   OH225130   3.915   1.197   3.930  0.1516 -0.3226 -0.7618
 8390TIP3    H125131   3.931   1.289   3.952  1.4819 -0.9131  0.8530
 8390TIP3    H225132   3.848   1.200   3.861 -0.2551  1.8230 -0.3144
 8391TIP3   OH225133   5.591   4.353   0.042 -0.1361 -0.6786 -0.6345
 8391TIP3    H125134   5.655   4.380   0.109 -0.7923 -1.0548  0.1563
 8391TIP3    H225135   5.638   4.360  -0.040  1.2075 -1.7596  0.0203
 8392TIP3   OH225136   4.154   5.688   1.410 -0.0610 -0.3492 -0.1237
 8392TIP3    H125137   4.117   5.766   1.453 -0.7354 -0.9215  0.3489
 8392TIP3    H225138   4.234   5.670   1.458 -0.2412 -0.3321  0.1856
 8393TIP3   OH225139   2.581   1.223   6.283 -0.2268 -0.0857 -0.1037
 8393TIP3    H125140   2.539   1.170   6.215  1.3574 -1.5813  0.0417
 8393TIP3    H225141   2.618   1.297   6.235 -0.5614 -0.2568 -0.6366
 8394TIP3   OH225142   2.820   6.817   1.292  0.4002  0.2461  0.3949
 8394TIP3    H125143   2.887   6.877   1.323  1.6404 -0.9244  0.0327
 8394TIP3    H225144   2.833   6.737   1.344 -1.0805  0.1932  0.7225
 8395TIP3   OH225145   4.792   5.027   0.733  0.2771  0.6800 -0.4052
 8395TIP3    H125146   4.765   5.019   0.825  1.4314 -0.8305 -0.1902
 8395TIP3    H225147   4.716   4.997   0.683  0.6551 -1.2631  0.1467
 8396TIP3   OH225148   5.529   5.948   0.380 -0.5969 -0.4467 -0.7294
 8396TIP3    H125149   5.464   5.990   0.323 -1.5853 -0.4629  0.3731
 8396TIP3    H225150   5.542   5.862   0.341  0.5911  0.4259 -2.3472
 8397TIP3   OH225151   7.702   5.580   2.737  0.0473 -0.5102  0.0669
 8397TIP3    H125152   7.777   5.575   2.796  0.2536  1.4790  0.0199
 8397TIP3    H225153   7.711   5.505   2.679  1.7633 -0.5249  0.3464
 8398TIP3   OH225154   2.521   2.501   5.107 -0.2925  0.6198  0.5735
 8398TIP3    H125155   2.427   2.514   5.091  0.0577  0.2945 -2.0066
 8398TIP3    H225156   2.559   2.588   5.097  0.1696  0.1374 -2.4905
 8399TIP3   OH225157   7.494   3.545   1.199 -0.5264  0.7013  0.3627
 8399TIP3    H125158   7.401   3.542   1.224 -0.5938 -0.7271 -0.0097
 8399TIP3    H225159   7.518   3.637   1.208 -1.3210  0.7051  2.9209
 8400TIP3   OH225160   2.623   2.741   5.017 -0.0296 -0.2541  0.4269
 8400TIP3    H125161   2.719   2.737   5.023  0.0261  1.1468  0.6066
 8400TIP3    H225162   2.605   2.825   4.975 -1.1912 -0.4165  0.5870
 8401TIP3   OH225163   4.263   1.679   3.578  0.8105 -0.0005  0.5148
 8401TIP3    H125164   4.219   1.659   3.660 -0.8670  0.7842 -0.1710
 8401TIP3    H225165   4.201   1.652   3.510  0.9709  1.9734 -0.4535
 8402TIP3   OH225166   2.739   3.877   5.558 -0.1254 -0.1052 -0.0323
 8402TIP3    H125167   2.738   3.859   5.652 -2.2607 -0.1546 -0.0347
 8402TIP3    H225168   2.802   3.815   5.523  0.5906 -0.1914  1.3484
 8403TIP3   OH225169   4.766   1.264   5.482 -0.2101  0.1301  0.4778
 8403TIP3    H125170   4.692   1.217   5.522 -0.7965  0.0038 -0.7291
 8403TIP3    H225171   4.843   1.229   5.526 -0.8870  0.4959  1.9903
 8404TIP3   OH225172   6.578   5.046   1.381  0.5108  0.0936 -0.7318
 8404TIP3    H125173   6.580   5.038   1.286 -0.8904  0.7441 -0.8311
 8404TIP3    H225174   6.496   5.092   1.399  0.8156  0.0584  0.7821
 8405TIP3   OH225175   7.697   2.923   1.162  0.4298  0.0959 -0.8634
 8405TIP3    H125176   7.758   2.901   1.232 -1.5830  1.4042  1.3814
 8405TIP3    H225177   7.723   3.011   1.135 -0.9073  0.9883  0.6603
 8406TIP3   OH225178   1.206   4.807   0.621 -0.0460  0.3049 -0.0887
 8406TIP3    H125179   1.291   4.795   0.663 -0.1902 -0.0360  0.1085
 8406TIP3    H225180   1.143   4.779   0.687 -0.2320 -1.3875 -0.9617
 8407TIP3   OH225181   6.290   2.505   5.374 -0.3285 -0.1908 -0.3828
 8407TIP3    H125182   6.215   2.477   5.322 -0.4856 -1.0666  0.2996
 8407TIP3    H225183   6.334   2.424   5.399 -0.6963  0.1571  1.5028
 8408TIP3   OH225184   0.347   5.717   1.096  0.0735 -0.4147  0.0999
 8408TIP3    H125185   0.306   5.642   1.054 -0.2056  0.2501 -0.8273
 8408TIP3    H225186   0.282   5.749   1.158 -1.4196  1.5184 -2.3929
 8409TIP3   OH225187   6.344   1.237   4.374 -0.4322  0.4643 -0.6608
 8409TIP3    H125188   6.297   1.206   4.452 -0.1403 -1.5028 -1.2588
 8409TIP3    H225189   6.434   1.209   4.388 -0.4184 -0.0563 -1.7928
 8410TIP3   OH225190   7.312   3.529   2.001 -0.4856 -0.2162 -0.0731
 8410TIP3    H125191   7.344   3.619   1.996 -2.4252  0.6189  1.7941
 8410TIP3    H225192   7.380   3.482   2.050 -0.3668  0.6559  0.6008
 8411TIP3   OH225193   5.356   2.020   5.731 -0.0076 -0.3227 -0.2493
 8411TIP3    H125194   5.402   2.066   5.661  1.0131 -0.0346  0.5855
 8411TIP3    H225195   5.328   1.937   5.692 -0.6076  0.4027 -1.3543
 8412TIP3   OH225196   5.782   0.184   6.026  0.2967 -0.1570  0.0965
 8412TIP3    H125197   5.739   0.124   5.965  1.9264 -1.1114 -0.1462
 8412TIP3    H225198   5.825   0.249   5.970 -0.3348  0.4718  0.3239
 8413TIP3   OH225199   0.934   5.264   0.648 -0.8168  0.4163  0.1968
 8413TIP3    H125200   0.960   5.172   0.643 -0.4953  0.4812  0.5884
 8413TIP3    H225201   0.961   5.291   0.736 -1.0702  0.8352  0.1446
 8414TIP3   OH225202   1.687   5.709   1.809 -0.2443  0.1493 -0.1678
 8414TIP3    H125203   1.596   5.701   1.780 -0.9495  2.4714  1.2945
 8414TIP3    H225204   1.690   5.663   1.893 -0.0317 -0.0736 -0.2984
 8415TIP3   OH225205   4.585   0.902   4.811  0.1504 -0.0542 -0.4178
 8415TIP3    H125206   4.650   0.917   4.742  1.2271 -0.4615  0.4727
 8415TIP3    H225207   4.505   0.942   4.779  0.5925 -0.3885 -1.9758
 8416TIP3   OH225208   2.410   7.022   6.196  0.0631 -0.7761 -0.3474
 8416TIP3    H125209   2.324   7.051   6.228  0.2696 -1.1342  0.5556
 8416TIP3    H225210   2.440   6.960   6.263  0.4808 -1.5898 -1.2841
 8417TIP3   OH225211   2.059   6.444   4.826 -0.1139  0.3405  0.6103
 8417TIP3    H125212   2.012   6.395   4.893  0.3872 -1.4522 -0.3229
 8417TIP3    H225213   2.061   6.386   4.750  1.5098  1.3368 -0.1392
 8418TIP3   OH225214   4.680   2.477   5.786  0.1867  0.1284  0.0150
 8418TIP3    H125215   4.764   2.432   5.795  0.1136 -0.2067 -1.0077
 8418TIP3    H225216   4.617   2.420   5.831  0.4257  0.1718  0.4100
 8419TIP3   OH225217   7.397   5.576   0.740 -0.2467  0.2362 -0.0631
 8419TIP3    H125218   7.338   5.647   0.766 -2.3234 -1.2175 -0.6405
 8419TIP3    H225219   7.426   5.537   0.823 -0.4304  0.7043  0.2214
 8420TIP3   OH225220   6.043   5.884   0.039 -0.4034 -0.3436  0.0329
 8420TIP3    H125221   6.001   5.949   0.095  0.5031  1.8849 -1.7906
 8420TIP3    H225222   5.988   5.881  -0.039  0.4431 -0.6086 -0.5578
 8421TIP3   OH225223   6.111   5.361   2.523  0.1361  0.1469 -0.7757
 8421TIP3    H125224   6.088   5.285   2.577 -0.2954  1.5105  1.0190
 8421TIP3    H225225   6.134   5.324   2.438 -0.3292 -1.9682 -0.0160
 8422TIP3   OH225226   7.123   5.211   0.293  0.5631  0.1554 -0.1902
 8422TIP3    H125227   7.147   5.239   0.205  0.1613  1.2914  0.0621
 8422TIP3    H225228   7.087   5.123   0.281  2.5841 -0.6130 -0.8739
 8423TIP3   OH225229   4.392   1.819   6.258 -0.6248  0.0407  0.6283
 8423TIP3    H125230   4.408   1.913   6.250  0.0301 -0.1408 -0.3405
 8423TIP3    H225231   4.427   1.782   6.176 -0.4536 -1.0884  1.2051
 8424TIP3   OH225232   7.099   6.186   0.796  0.4313 -0.3934 -0.4596
 8424TIP3    H125233   7.137   6.106   0.760  2.5381  0.5879 -0.5222
 8424TIP3    H225234   7.086   6.165   0.889 -0.5180 -1.3252 -0.7920
 8425TIP3   OH225235   7.144   6.994   0.158 -0.0103 -0.2386 -0.1941
 8425TIP3    H125236   7.206   7.064   0.179 -0.5236  0.0062  0.5230
 8425TIP3    H225237   7.198   6.914   0.158  0.2448 -0.0741  0.8010
 8426TIP3   OH225238   7.355   2.063   5.968 -0.0137 -0.0283  0.1415
 8426TIP3    H125239   7.370   2.098   5.880  1.7901  0.5949  0.6665
 8426TIP3    H225240   7.415   1.988   5.974 -0.8985 -0.7081  0.4656
 8427TIP3   OH225241   5.849   2.838   5.592 -0.2688  0.1005  0.1992
 8427TIP3    H125242   5.840   2.791   5.674 -0.1135  0.2875  0.3256
 8427TIP3    H225243   5.840   2.931   5.616 -1.1225  0.1017 -0.1297
 8428TIP3   OH225244   4.047   1.859   5.806 -0.1399 -0.4687 -0.6806
 8428TIP3    H125245   4.125   1.879   5.753  0.2198  1.7545  0.5999
 8428TIP3    H225246   3.986   1.930   5.785 -0.1155  0.2758  1.5693
 8429TIP3   OH225247   3.370   0.644   5.377  0.1603  0.8238 -0.3408
 8429TIP3    H125248   3.314   0.615   5.449 -0.5372 -0.1737 -1.2752
 8429TIP3    H225249   3.317   0.710   5.331  0.1416  0.6223 -0.6128
 8430TIP3   OH225250   1.153   4.283   0.562 -0.5647 -0.0504 -0.0186
 8430TIP3    H125251   1.095   4.294   0.638  0.2217 -1.7392  0.8588
 8430TIP3    H225252   1.217   4.217   0.590  0.9722  0.7812 -1.4404
 8431TIP3   OH225253   6.706   5.288   0.306  0.2975 -0.2605  0.0220
 8431TIP3    H125254   6.749   5.339   0.373 -1.7246  2.1411 -0.4335
 8431TIP3    H225255   6.760   5.300   0.228  0.7709 -0.2326  0.3551
 8432TIP3   OH225256   1.720   3.615   0.077 -0.5368 -0.2281 -0.4868
 8432TIP3    H125257   1.726   3.681   0.145  2.0140  0.2445 -1.1009
 8432TIP3    H225258   1.681   3.539   0.120 -0.7626  0.7041  0.9791
 8433TIP3   OH225259   6.878   5.587   0.232 -0.3258 -0.4446  0.3039
 8433TIP3    H125260   6.838   5.575   0.146  0.3511  2.7119 -0.4827
 8433TIP3    H225261   6.971   5.594   0.216 -0.1847  0.1404  1.2855
 8434TIP3   OH225262   4.357   1.761   5.292 -0.2282 -0.1018 -0.5722
 8434TIP3    H125263   4.451   1.746   5.278 -0.6525 -1.9983 -1.4699
 8434TIP3    H225264   4.328   1.804   5.211 -0.6057 -1.7328 -1.3238
 8435TIP3   OH225265   5.859   1.994   6.254 -0.2741  0.1829 -0.4945
 8435TIP3    H125266   5.923   2.056   6.221 -0.7475  0.6519 -0.5351
 8435TIP3    H225267   5.907   1.911   6.259  0.7549  0.8441  0.9049
 8436TIP3   OH225268   3.881   2.062   5.695  0.4211  0.0977 -0.0073
 8436TIP3    H125269   3.786   2.070   5.686  0.6246  2.4006 -0.4039
 8436TIP3    H225270   3.914   2.068   5.605  1.0441  1.0431  0.2796
 8437TIP3   OH225271   4.145   0.762   1.966  0.2753 -0.1622 -0.2216
 8437TIP3    H125272   4.163   0.787   1.876 -1.2718  1.3928 -0.1270
 8437TIP3    H225273   4.122   0.669   1.961  0.9482 -0.2759 -1.3024
 8438TIP3   OH225274   6.573   2.190   4.800  0.5425 -0.0811  0.4115
 8438TIP3    H125275   6.647   2.205   4.859 -0.2978  1.3608  1.1192
 8438TIP3    H225276   6.516   2.130   4.849  2.1371 -2.7548 -0.9195
 8439TIP3   OH225277   7.070   5.411   2.432 -0.1936 -0.1105 -0.0238
 8439TIP3    H125278   7.040   5.442   2.518 -0.2707 -1.1748  0.3408
 8439TIP3    H225279   7.121   5.332   2.452 -0.6365 -0.6503 -1.0065
 8440TIP3   OH225280   0.534   5.561   0.786 -0.0072 -0.3647 -0.6462
 8440TIP3    H125281   0.464   5.495   0.782  0.6965 -1.1048 -1.0106
 8440TIP3    H225282   0.544   5.579   0.880 -2.5099  1.7641 -0.7298
 8441TIP3   OH225283   0.114   3.218   2.955 -0.0239  0.2369 -0.1913
 8441TIP3    H125284   0.111   3.313   2.950 -0.3026  0.3783  2.4200
 8441TIP3    H225285   0.031   3.189   2.915 -1.4169  1.2364  1.8904
 8442TIP3   OH225286   4.464   0.410   5.883  0.0226  0.0938 -0.2417
 8442TIP3    H125287   4.439   0.390   5.793  2.3711 -1.2987 -0.6179
 8442TIP3    H225288   4.382   0.401   5.932 -1.2401  0.6277 -2.1632
 8443TIP3   OH225289   0.962   0.607   2.004 -0.0167 -0.3611  0.1732
 8443TIP3    H125290   1.058   0.611   2.002 -0.0294 -0.3813 -1.2856
 8443TIP3    H225291   0.936   0.679   2.062  0.8207  0.8626 -0.9406
 8444TIP3   OH225292   7.737   5.269   1.203 -0.1091 -0.2141 -0.2570
 8444TIP3    H125293   7.758   5.200   1.266  0.0722 -0.4209 -0.5456
 8444TIP3    H225294   7.795   5.342   1.226  1.2782 -0.9630 -1.3719
 8445TIP3   OH225295   0.112   4.886   0.189 -0.0705  0.1831  0.1410
 8445TIP3    H125296   0.126   4.796   0.220  2.4049 -0.2512 -2.0408
 8445TIP3    H225297   0.064   4.876   0.107 -1.1671  0.9456  0.6943
 8446TIP3   OH225298   1.760   5.928   3.970  0.0060 -0.1257  0.4782
 8446TIP3    H125299   1.822   5.875   4.020 -1.1302 -0.9850  1.0025
 8446TIP3    H225300   1.678   5.921   4.018 -1.0356 -0.7166 -1.3445
 8447TIP3   OH225301   4.761   0.991   6.106  0.3396  0.2166 -0.2828
 8447TIP3    H125302   4.745   1.019   6.196 -0.7661  1.0585 -0.7414
 8447TIP3    H225303   4.716   0.906   6.098 -0.0141  0.3976 -0.2040
 8448TIP3   OH225304   4.396   3.628   6.077  0.0110  0.3184  0.1744
 8448TIP3    H125305   4.394   3.709   6.026 -0.0459 -0.4487 -1.0717
 8448TIP3    H225306   4.308   3.593   6.070  0.4880 -0.7423 -0.7912
 8449TIP3   OH225307   6.985   4.077   1.774 -0.4948  0.5843  0.1668
 8449TIP3    H125308   7.078   4.060   1.787 -0.7618 -2.7180 -1.7438
 8449TIP3    H225309   6.979   4.116   1.687 -0.9155  0.3638  0.0931
 8450TIP3   OH225310   2.057   5.003   0.617 -0.1320  0.5500 -0.8923
 8450TIP3    H125311   1.985   5.055   0.581 -0.1390  0.4819 -0.9785
 8450TIP3    H225312   2.077   4.939   0.548  0.2376  0.7846 -1.0049
 8451TIP3   OH225313   5.304   1.524   6.180 -0.3776  0.3374  0.5084
 8451TIP3    H125314   5.372   1.462   6.154 -0.2517 -0.5614  2.8555
 8451TIP3    H225315   5.237   1.517   6.112  0.4141 -1.1183 -0.1401
 8452TIP3   OH225316   2.901   1.621   4.891  0.3054 -0.4221  0.3053
 8452TIP3    H125317   2.819   1.621   4.843 -0.0551  0.4781  0.9137
 8452TIP3    H225318   2.964   1.581   4.831 -0.2033  0.4229 -0.8058
 8453TIP3   OH225319   1.512   5.648   1.223 -0.1363 -0.0746  0.1517
 8453TIP3    H125320   1.520   5.714   1.292 -0.6349  2.3887 -2.0749
 8453TIP3    H225321   1.435   5.597   1.248 -2.3376  2.9463 -0.3209
 8454TIP3   OH225322   1.304   5.643   2.624 -0.1958  0.0969 -0.8679
 8454TIP3    H125323   1.286   5.725   2.670  1.7462 -0.9675  1.9354
 8454TIP3    H225324   1.372   5.665   2.561 -1.0001  0.9994 -1.4500
 8455TIP3   OH225325   5.479   4.174   1.095  0.0780  0.4910  0.2884
 8455TIP3    H125326   5.515   4.093   1.059 -0.4308  0.2899  0.2209
 8455TIP3    H225327   5.482   4.236   1.022 -1.0297  0.0582 -0.1418
 8456TIP3   OH225328   1.127   6.344   6.263 -0.4232 -0.1056 -0.4147
 8456TIP3    H125329   1.120   6.386   6.349  1.0330  1.2122 -0.9279
 8456TIP3    H225330   1.103   6.253   6.279 -2.2237  0.5819  0.9948
 8457TIP3   OH225331   7.264   4.220   2.281 -0.3112  0.0091  0.1132
 8457TIP3    H125332   7.285   4.202   2.372  0.7467  0.6408 -0.0019
 8457TIP3    H225333   7.246   4.313   2.278  0.1733  0.0903 -0.4166
 8458TIP3   OH225334   4.935   1.668   6.180  0.3625 -0.4836 -0.1024
 8458TIP3    H125335   4.862   1.715   6.141  0.3200  0.9328  1.6345
 8458TIP3    H225336   4.990   1.641   6.106 -0.9601  0.0389 -1.2737
 8459TIP3   OH225337   5.489   1.332   5.684  0.1747  0.5744 -0.0320
 8459TIP3    H125338   5.555   1.320   5.751 -0.3879 -0.3961  0.3634
 8459TIP3    H225339   5.451   1.418   5.702 -1.5314 -0.6319  2.2853
 8460TIP3   OH225340   7.749   3.425   0.612  0.1017  0.5580 -0.1536
 8460TIP3    H125341   7.749   3.364   0.539  0.2375  0.3703  0.0039
 8460TIP3    H225342   7.831   3.474   0.604  0.6179 -0.1935  0.4851
 8461TIP3   OH225343   0.327   4.332   0.215  0.7943 -1.0724 -0.1631
 8461TIP3    H125344   0.301   4.417   0.252  2.0799 -0.8582  0.2735
 8461TIP3    H225345   0.276   4.325   0.135 -0.3765 -0.5244  0.5119
 8462TIP3   OH225346   4.191   2.542   6.152  0.3798  0.2275 -0.6680
 8462TIP3    H125347   4.183   2.585   6.067 -1.4639  0.5530 -0.3443
 8462TIP3    H225348   4.118   2.480   6.155 -0.3339  1.1092  1.1818
 8463TIP3   OH225349   6.146   5.475   1.217 -0.2744 -0.1951 -0.0097
 8463TIP3    H125350   6.191   5.554   1.187 -2.4171  1.3187  0.6549
 8463TIP3    H225351   6.215   5.409   1.223  2.0718  2.3415  2.0976
 8464TIP3   OH225352   7.528   3.160   0.857  0.7488 -0.3074 -0.3848
 8464TIP3    H125353   7.488   3.216   0.790  0.9234 -1.3031 -1.3342
 8464TIP3    H225354   7.481   3.077   0.849  0.2806 -0.2290  1.2203
 8465TIP3   OH225355   2.846   3.837   0.129  0.1643  0.2099 -0.4862
 8465TIP3    H125356   2.860   3.744   0.146  1.8761  0.9175  2.2887
 8465TIP3    H225357   2.767   3.859   0.179  0.0037  0.3542 -0.7988
 8466TIP3   OH225358   3.545   7.144   5.939  0.6571 -0.4602 -0.0293
 8466TIP3    H125359   3.570   7.200   6.013 -1.3440  1.3947 -0.6948
 8466TIP3    H225360   3.522   7.205   5.869 -0.5628 -2.1384 -1.1425
 8467TIP3   OH225361   1.401   0.394   5.028  0.0088 -0.3832 -0.3426
 8467TIP3    H125362   1.341   0.355   5.092  1.0083 -0.6426  0.4636
 8467TIP3    H225363   1.455   0.321   4.998  1.4635  0.2193  0.6889
 8468TIP3   OH225364   2.682   7.054   4.604  0.3036 -0.4486 -0.1366
 8468TIP3    H125365   2.727   7.094   4.530  3.4636  0.8802  2.3668
 8468TIP3    H225366   2.654   6.968   4.573  3.2053 -0.6662 -2.2985
 8469TIP3   OH225367   1.914   3.286   0.257  0.2606  0.0150  0.0224
 8469TIP3    H125368   1.948   3.219   0.316  0.6123  1.0840  1.0512
 8469TIP3    H225369   1.969   3.278   0.179  0.9274 -0.2644  0.5082
 8470TIP3   OH225370   5.067   5.053   0.335  0.1663  0.0615 -0.5156
 8470TIP3    H125371   5.055   5.077   0.243  0.0663 -0.2074 -0.5721
 8470TIP3    H225372   5.006   4.980   0.349  0.4388 -0.1297 -0.3292
 8471TIP3   OH225373   5.805   1.482   5.692  0.7100 -0.0484  0.0085
 8471TIP3    H125374   5.750   1.540   5.639  3.6821  1.1280 -1.9276
 8471TIP3    H225375   5.777   1.499   5.782 -0.3027  2.4575 -0.7264
 8472TIP3   OH225376   2.078   1.225   6.185 -0.6031 -0.6217  0.1947
 8472TIP3    H125377   2.101   1.177   6.106 -0.0538 -0.0081 -0.0229
 8472TIP3    H225378   2.120   1.176   6.256 -0.3102 -0.6376  0.0091
 8473TIP3   OH225379   6.781   5.965   1.343 -0.4863 -1.4234 -0.3231
 8473TIP3    H125380   6.768   5.871   1.355 -1.7418 -0.8178  3.9243
 8473TIP3    H225381   6.851   5.987   1.405  0.6462  0.2925 -2.1600
 8474TIP3   OH225382   6.970   1.539   5.757  0.3410  0.3289 -0.2522
 8474TIP3    H125383   6.905   1.469   5.748  0.9382 -0.3565  0.6170
 8474TIP3    H225384   6.981   1.574   5.669  0.7766 -1.3442 -0.8702
 8475TIP3   OH225385   1.125   6.413   0.738 -0.5060 -0.3698 -0.4554
 8475TIP3    H125386   1.192   6.352   0.707 -0.4345 -0.1963 -0.6424
 8475TIP3    H225387   1.127   6.485   0.675  0.0213  0.2556  0.2539
 8476TIP3   OH225388   2.968   5.213   0.622  0.5630  0.0374 -0.0583
 8476TIP3    H125389   3.063   5.209   0.631  0.7319  1.0865 -1.3620
 8476TIP3    H225390   2.941   5.121   0.622  1.9946 -0.4727 -3.9188
 8477TIP3   OH225391   7.047   4.512   1.041 -0.4743 -0.2976  0.7574
 8477TIP3    H125392   7.105   4.455   0.990 -1.8015 -2.4941  1.6224
 8477TIP3    H225393   6.968   4.520   0.986 -0.2823  0.7544  0.6273
 8478TIP3   OH225394   5.774   5.467   5.042  0.1878 -0.6228  0.8496
 8478TIP3    H125395   5.722   5.398   5.002 -0.9881  0.5858  0.2670
 8478TIP3    H225396   5.804   5.521   4.969  0.1470  0.1311  1.3821
 8479TIP3   OH225397   4.382   1.441   6.162 -0.0630  0.2926 -0.4552
 8479TIP3    H125398   4.453   1.503   6.146 -0.7917  1.6443  1.4779
 8479TIP3    H225399   4.427   1.357   6.177  1.1564  1.2596  1.3832
 8480TIP3   OH225400   3.646   2.428   5.155  0.4043  0.0973  0.7189
 8480TIP3    H125401   3.570   2.486   5.153 -0.1415 -0.6184  0.7161
 8480TIP3    H225402   3.679   2.427   5.066  0.8377  0.9594  0.8648
 8481TIP3   OH225403   7.469   5.894   0.811  0.3419  0.0952 -0.2526
 8481TIP3    H125404   7.515   5.863   0.733  1.6552  0.5014  0.3473
 8481TIP3    H225405   7.513   5.976   0.834 -1.8492  1.4258 -0.7026
 8482TIP3   OH225406   4.108   1.489   6.159  0.5389 -0.1542 -0.0650
 8482TIP3    H125407   4.099   1.575   6.119  0.2881 -0.1657 -0.0307
 8482TIP3    H225408   4.202   1.470   6.153  0.4655 -0.2941 -0.9422
 8483TIP3   OH225409   6.679   5.102   0.800 -0.0422  0.1660 -0.3708
 8483TIP3    H125410   6.656   5.116   0.892  0.9409  0.7421 -0.2006
 8483TIP3    H225411   6.628   5.167   0.752 -0.4715 -0.0594 -0.2134
 8484TIP3   OH225412   6.758   0.265   6.193 -0.2239 -0.3754 -0.3888
 8484TIP3    H125413   6.747   0.274   6.099  2.7613  1.7507 -0.6474
 8484TIP3    H225414   6.728   0.349   6.229  1.7991  0.1560  0.1572
 8485TIP3   OH225415   6.643   2.785   5.298 -0.1314  0.0121 -0.4249
 8485TIP3    H125416   6.672   2.876   5.295 -0.5536  0.1716  0.2979
 8485TIP3    H225417   6.722   2.734   5.281  0.7514  0.4105  2.2420
 8486TIP3   OH225418   1.180   5.318   0.943 -0.4013 -0.1537  0.0720
 8486TIP3    H125419   1.221   5.290   1.025  1.5808  0.3984 -0.6794
 8486TIP3    H225420   1.224   5.265   0.876 -1.2794  0.1240 -0.7229
 8487TIP3   OH225421   2.033   5.187   0.073  0.7829  0.0124  1.6837
 8487TIP3    H125422   2.039   5.099   0.037  1.3423 -0.3691  2.7035
 8487TIP3    H225423   2.058   5.178   0.165  0.7203  1.2102  1.8344
 8488TIP3   OH225424   7.424   4.141   1.004 -1.2850  0.8620  0.5371
 8488TIP3    H125425   7.384   4.060   1.035 -3.2799  2.5309  2.5461
 8488TIP3    H225426   7.415   4.138   0.909 -1.9604 -0.9550  0.6478
 8489TIP3   OH225427   5.994   6.190   0.954 -0.0038 -0.5805  0.2257
 8489TIP3    H125428   5.936   6.236   1.015  0.5668  0.1959  0.1928
 8489TIP3    H225429   5.978   6.097   0.970 -0.7910 -0.3705  0.6586
 8490TIP3   OH225430   3.701   0.954   4.755 -0.1401  0.1709  0.6665
 8490TIP3    H125431   3.668   0.874   4.795 -0.3827 -0.1059 -0.0841
 8490TIP3    H225432   3.629   0.985   4.700  0.6928 -0.2051 -0.6468
 8491TIP3   OH225433   5.945   5.145   0.044  0.1860  0.3281  0.4748
 8491TIP3    H125434   6.023   5.200   0.037  0.0865  0.5663  1.1283
 8491TIP3    H225435   5.975   5.068   0.092 -0.1278  0.7274  1.3264
 8492TIP3   OH225436   3.976   2.584   3.972  0.0056  0.2196 -0.0351
 8492TIP3    H125437   4.055   2.620   4.013  0.5055  2.8155 -3.0015
 8492TIP3    H225438   3.903   2.627   4.018  0.4195 -0.0007  0.8265
 8493TIP3   OH225439   7.117   4.010   0.621 -0.5680 -0.6256 -1.1357
 8493TIP3    H125440   7.024   4.022   0.638 -0.5441 -1.3009 -0.5006
 8493TIP3    H225441   7.130   3.915   0.621  0.9425 -0.5337  3.4045
 8494TIP3   OH225442   2.148   2.040   5.091  0.3488 -0.2734 -0.0067
 8494TIP3    H125443   2.238   2.050   5.060  0.0258 -1.0692 -1.2371
 8494TIP3    H225444   2.154   2.051   5.186  1.2078  3.2612 -0.3789
 8495TIP3   OH225445   4.169   2.501   4.872 -0.2422 -0.6500  0.1523
 8495TIP3    H125446   4.143   2.467   4.958  0.6731 -2.5983 -0.3097
 8495TIP3    H225447   4.111   2.456   4.811  0.3084 -0.6206 -0.3923
 8496TIP3   OH225448   6.919   4.986   0.344  0.2250  0.1424  0.0680
 8496TIP3    H125449   6.869   5.012   0.266  0.2669 -0.2130 -0.0821
 8496TIP3    H225450   6.871   5.025   0.417 -0.2826 -0.2045 -0.0738
 8497TIP3   OH225451   4.038   1.293   5.555 -0.0208  0.4686 -0.0372
 8497TIP3    H125452   4.024   1.311   5.648 -0.3215 -1.1217  0.2491
 8497TIP3    H225453   4.097   1.362   5.525 -0.5518  1.4473  1.1465
 8498TIP3   OH225454   4.893   1.029   5.346  0.7713  0.0365 -0.4890
 8498TIP3    H125455   4.830   0.959   5.358 -0.0176  0.7676 -0.3058
 8498TIP3    H225456   4.900   1.071   5.432  0.9651  0.4058 -0.6804
 8499TIP3   OH225457   1.030   6.266   1.745  0.2276 -0.0145 -1.0779
 8499TIP3    H125458   0.985   6.210   1.682  0.4092  0.4338 -1.6150
 8499TIP3    H225459   1.115   6.283   1.705  1.4204 -1.9245  0.5183
 8500TIP3   OH225460   3.438   1.524   4.115  0.0038  0.4188  0.0300
 8500TIP3    H125461   3.468   1.468   4.043 -0.3361  0.3093 -0.0255
 8500TIP3    H225462   3.396   1.598   4.071 -0.5135  0.1808  0.1203
 8501TIP3   OH225463   5.922   4.562   1.072 -0.0462 -0.5545 -0.1009
 8501TIP3    H125464   5.923   4.534   0.981 -1.1728 -0.3500 -0.1855
 8501TIP3    H225465   5.866   4.497   1.116 -0.0597 -0.2682  0.3087
 8502TIP3   OH225466   6.924   6.009   1.573 -0.1066 -0.4385  0.4576
 8502TIP3    H125467   6.866   5.980   1.643  0.4292 -1.2200  0.5843
 8502TIP3    H225468   7.010   6.020   1.616  1.1211 -4.5138 -0.7796
 8503TIP3   OH225469   0.792   1.235   4.920  0.0909  0.2642 -0.1747
 8503TIP3    H125470   0.810   1.149   4.957  0.8562  0.4321 -0.1551
 8503TIP3    H225471   0.875   1.263   4.882 -0.6623  0.1117 -2.0086
 8504TIP3   OH225472   5.900   0.870   5.905  0.0285 -0.6076 -0.0698
 8504TIP3    H125473   5.810   0.889   5.880 -0.1465  1.5360  2.0311
 8504TIP3    H225474   5.953   0.916   5.838 -0.4244 -0.6283 -0.4441
 8505TIP3   OH225475   7.144   5.313   0.669 -0.1343 -0.1956  0.7478
 8505TIP3    H125476   7.080   5.276   0.730 -0.2319 -0.2795  0.5938
 8505TIP3    H225477   7.192   5.378   0.721 -1.4014  1.0122  0.4325
 8506TIP3   OH225478   4.060   1.815   4.447  0.2429 -0.1064 -0.0983
 8506TIP3    H125479   4.095   1.808   4.358  1.4588  0.1490  0.3577
 8506TIP3    H225480   4.128   1.778   4.503 -0.9529 -1.2457  0.6463
 8507TIP3   OH225481   0.599   4.712   2.046  0.7651 -0.2785 -0.4204
 8507TIP3    H125482   0.570   4.630   2.087  0.2390 -0.0985 -0.4212
 8507TIP3    H225483   0.608   4.690   1.954  0.8496 -0.3976 -0.3838
 8508TIP3   OH225484   6.761   4.514   0.121 -0.0128  0.2706 -0.0905
 8508TIP3    H125485   6.738   4.508   0.028 -0.1286 -0.0906 -0.0406
 8508TIP3    H225486   6.764   4.423   0.150  3.1718  0.1602 -0.5094
 8509TIP3   OH225487   0.386   4.881   1.796 -0.4512 -0.3245  0.2034
 8509TIP3    H125488   0.435   4.913   1.720  0.4562  1.3597  1.4641
 8509TIP3    H225489   0.415   4.791   1.807  0.5756 -0.0973 -0.5292
 8510TIP3   OH225490   2.472   1.962   6.214  0.7042  0.1587 -0.3109
 8510TIP3    H125491   2.495   1.996   6.301  1.0620 -2.1656  0.5304
 8510TIP3    H225492   2.545   1.905   6.191  0.1399  0.0062 -1.7221
 8511TIP3   OH225493   3.849   3.151   6.256 -0.8077 -0.2566  0.1935
 8511TIP3    H125494   3.878   3.061   6.242 -0.6010  0.0833 -1.6489
 8511TIP3    H225495   3.929   3.202   6.268 -0.9021 -0.2496  0.7943
 8512TIP3   OH225496   4.300   1.715   5.968 -0.6542 -1.0832 -0.6324
 8512TIP3    H125497   4.338   1.645   5.916 -0.6525 -0.5505 -1.3530
 8512TIP3    H225498   4.350   1.793   5.944 -1.9982 -0.4338 -1.3734
 8513TIP3   OH225499   5.515   1.693   3.559 -0.5161  0.0679 -0.0872
 8513TIP3    H125500   5.462   1.756   3.511 -2.1022 -0.9832  0.2303
 8513TIP3    H225501   5.454   1.622   3.579  0.8863 -0.8968  0.8003
 8514TIP3   OH225502   5.508   2.932   5.671 -0.0332  0.2416  0.2914
 8514TIP3    H125503   5.443   2.861   5.663  2.4112 -2.0378 -0.1571
 8514TIP3    H225504   5.536   2.948   5.581  0.9811  0.2393  0.5993
 8515TIP3   OH225505   0.570   5.518   1.080  0.5053  0.1276 -0.0936
 8515TIP3    H125506   0.644   5.466   1.112 -0.6660 -0.6302  1.4734
 8515TIP3    H225507   0.550   5.578   1.151 -0.3513  0.3561 -0.5179
 8516TIP3   OH225508   2.588   4.248   0.228 -0.0681 -0.2173 -0.0836
 8516TIP3    H125509   2.637   4.327   0.205 -0.5646 -0.3194 -1.5582
 8516TIP3    H225510   2.513   4.280   0.278  0.8340  0.0478  1.1283
 8517TIP3   OH225511   6.315   5.174   1.509  0.2322  0.4271  0.2772
 8517TIP3    H125512   6.303   5.174   1.604 -1.0858 -1.7640  0.1465
 8517TIP3    H225513   6.226   5.170   1.474  0.7637 -0.5769 -1.0199
 8518TIP3   OH225514   7.632   3.631   1.583  0.2109  0.6555  0.0216
 8518TIP3    H125515   7.578   3.556   1.557  1.1534 -0.2411  0.6112
 8518TIP3    H225516   7.575   3.707   1.571  0.2313  0.1918 -3.5542
 8519TIP3   OH225517   5.868   0.912   3.888 -0.1836 -0.1080  0.4281
 8519TIP3    H125518   5.873   0.858   3.809 -0.9464 -0.9225  0.9237
 8519TIP3    H225519   5.785   0.887   3.928 -2.8333  4.6592 -1.6848
 8520TIP3   OH225520   3.623   3.019   4.631  0.0235  0.1905  0.0169
 8520TIP3    H125521   3.692   3.079   4.603 -0.5681  0.0670 -1.7968
 8520TIP3    H225522   3.650   2.934   4.595 -1.3371  0.2571 -1.2059
 8521TIP3   OH225523   4.598   6.369   0.818  0.1060  0.1612 -0.1229
 8521TIP3    H125524   4.557   6.283   0.827  0.1217  0.2762  1.0728
 8521TIP3    H225525   4.692   6.350   0.815  0.1924  0.2472  1.6834
 8522TIP3   OH225526   6.757   5.770   0.038  0.1817 -0.2879 -0.0740
 8522TIP3    H125527   6.700   5.694   0.026 -1.3638  1.3401 -4.0821
 8522TIP3    H225528   6.698   5.841   0.063  0.9593  0.5661 -0.6183
 8523TIP3   OH225529   7.509   2.404   5.376  0.0045 -0.1796 -0.1763
 8523TIP3    H125530   7.574   2.468   5.347 -0.5362  0.4056 -0.1082
 8523TIP3    H225531   7.461   2.449   5.446 -0.2041 -0.7541  0.0487
 8524TIP3   OH225532   6.139   3.002   6.225 -0.4177  0.0504 -0.4784
 8524TIP3    H125533   6.232   3.009   6.204 -0.2489  0.4033  0.3593
 8524TIP3    H225534   6.125   2.910   6.246  0.3990  0.5273  2.3304
 8525TIP3   OH225535   1.773   5.526   2.252 -0.0281  0.4614  0.3532
 8525TIP3    H125536   1.838   5.464   2.286 -0.0904 -0.0248 -0.4078
 8525TIP3    H225537   1.692   5.475   2.249 -0.1785  0.7140  0.1530
 8526TIP3   OH225538   1.119   7.118   0.941  0.0969  0.3841 -0.4827
 8526TIP3    H125539   1.053   7.174   0.901  1.0759  2.6916  1.0682
 8526TIP3    H225540   1.071   7.068   1.007 -0.5067  0.4112 -0.8930
 8527TIP3   OH225541   6.830   1.399   3.409 -0.5589  0.4685  0.1419
 8527TIP3    H125542   6.896   1.447   3.459 -0.9444  2.1065 -0.9028
 8527TIP3    H225543   6.871   1.314   3.392 -1.0707 -0.8559  4.6829
 8528TIP3   OH225544   3.366   1.649   5.672 -0.4011 -0.2594 -0.2658
 8528TIP3    H125545   3.350   1.632   5.765  1.7070 -0.4155  0.0798
 8528TIP3    H225546   3.355   1.744   5.663 -0.1606 -0.1819  0.2384
 8529TIP3   OH225547   0.551   2.228   5.240  0.7501  0.2114  0.0312
 8529TIP3    H125548   0.630   2.231   5.294  0.8427  1.1138 -0.1372
 8529TIP3    H225549   0.517   2.317   5.243 -0.6040 -0.3157  0.5908
 8530TIP3   OH225550   4.413   3.219   5.178 -0.2556 -0.6554 -0.1387
 8530TIP3    H125551   4.394   3.165   5.255  2.1245  1.0729  1.7544
 8530TIP3    H225552   4.334   3.271   5.166 -1.4928 -2.4908 -0.2618
 8531TIP3   OH225553   0.566   2.938   0.047 -0.8450 -0.0734 -0.3458
 8531TIP3    H125554   0.616   2.959  -0.032 -0.0162  0.9678  0.4512
 8531TIP3    H225555   0.474   2.943   0.018 -0.5241 -1.5402 -1.6865
 8532TIP3   OH225556   5.118   0.228   5.388  0.2919  0.1363  0.1796
 8532TIP3    H125557   5.188   0.226   5.454 -0.5766  0.7680  1.1496
 8532TIP3    H225558   5.062   0.154   5.410  0.4444 -0.1486 -0.3730
 8533TIP3   OH225559   5.191   2.839   6.328 -0.2711  0.5549 -0.0940
 8533TIP3    H125560   5.262   2.843   6.264  1.1029 -1.5321  1.2328
 8533TIP3    H225561   5.230   2.795   6.404 -2.3888  1.3058  1.4700
 8534TIP3   OH225562   5.799   5.168   0.273  0.3507  0.1354 -0.6178
 8534TIP3    H125563   5.846   5.234   0.324  0.1650  1.0134 -1.5682
 8534TIP3    H225564   5.846   5.164   0.189  0.1726 -0.7213 -0.6843
 8535TIP3   OH225565   4.489   7.348   6.244 -0.2087 -0.0488  0.0794
 8535TIP3    H125566   4.435   7.305   6.310 -0.9270 -0.0125 -0.4811
 8535TIP3    H225567   4.574   7.304   6.251  0.9524  2.4905  3.6377
 8536TIP3   OH225568   3.262   2.780   0.374  0.3778  0.3934 -0.6028
 8536TIP3    H125569   3.250   2.687   0.396  0.7250  0.3308 -0.6746
 8536TIP3    H225570   3.302   2.779   0.288  0.9657  0.6004 -0.3294
 8537TIP3   OH225571   5.027   0.640   5.469  0.1422 -0.8981  0.5320
 8537TIP3    H125572   5.072   0.711   5.424 -0.7722 -0.3057  0.5255
 8537TIP3    H225573   4.998   0.582   5.398  0.2438 -0.8931  0.4855
 8538TIP3   OH225574   5.795   4.812   1.039 -0.0782 -0.4467 -0.1079
 8538TIP3    H125575   5.844   4.735   1.070 -0.8427 -0.8077  0.2114
 8538TIP3    H225576   5.774   4.860   1.119 -1.0696 -0.7903 -0.1630
 8539TIP3   OH225577   4.812   2.035   4.117  0.2035  0.1882  0.5926
 8539TIP3    H125578   4.899   2.053   4.081  0.1557  0.7130  0.7279
 8539TIP3    H225579   4.803   1.940   4.113 -0.4808  0.3265 -2.3722
 8540TIP3   OH225580   3.898   3.620   6.080  0.0072  0.4755 -0.2019
 8540TIP3    H125581   3.935   3.550   6.133 -0.0509  0.4653 -0.1744
 8540TIP3    H225582   3.846   3.576   6.013  0.9917  0.4468 -0.9614
 8541TIP3   OH225583   7.249   5.951   2.596 -0.5888  0.6990  0.8217
 8541TIP3    H125584   7.188   5.970   2.667  0.2255  0.7603  1.5119
 8541TIP3    H225585   7.336   5.959   2.635  0.0243  4.6154 -1.1192
 8542TIP3   OH225586   0.285   6.466   0.619 -0.3930  0.2754 -0.7006
 8542TIP3    H125587   0.340   6.469   0.540 -1.3857  0.3666 -1.3975
 8542TIP3    H225588   0.196   6.476   0.586 -0.8788 -0.4734  0.3708
 8543TIP3   OH225589   7.033   5.828   0.961  0.4988  0.0075  0.1269
 8543TIP3    H125590   6.972   5.859   1.028 -2.4210 -1.5041 -1.7139
 8543TIP3    H225591   7.051   5.905   0.907 -2.5964 -0.2325 -1.3611
 8544TIP3   OH225592   5.105   4.296   6.293  0.5316 -0.3334 -0.4279
 8544TIP3    H125593   5.059   4.267   6.214 -0.3888  1.5303 -0.6067
 8544TIP3    H225594   5.040   4.291   6.363  1.2979 -1.8178  0.2116
 8545TIP3   OH225595   5.036   2.044   5.625  0.1219  0.1761 -0.4377
 8545TIP3    H125596   5.059   2.118   5.569 -0.0393  0.6258  0.0848
 8545TIP3    H225597   5.111   1.985   5.619  0.4827  0.6279 -0.4401
 8546TIP3   OH225598   1.080   6.980   4.350 -0.1268 -0.4117  0.0799
 8546TIP3    H125599   1.030   6.975   4.268  1.5907  0.1438 -1.0163
 8546TIP3    H225600   1.095   7.073   4.363  0.5104 -0.5698  0.4835
 8547TIP3   OH225601   3.529   1.925   5.167 -0.5246  0.1799  0.0631
 8547TIP3    H125602   3.577   2.006   5.183 -1.5069  0.6631  0.6294
 8547TIP3    H225603   3.438   1.947   5.185 -0.6885 -1.2968  1.1289
 8548TIP3   OH225604   6.142   6.358   1.161  0.1881  0.2166 -0.0158
 8548TIP3    H125605   6.192   6.438   1.174 -0.7305  1.1196 -1.8353
 8548TIP3    H225606   6.098   6.343   1.245  0.1922  1.7308  0.2696
 8549TIP3   OH225607   4.727   2.626   5.151 -0.5957  0.6569  0.2060
 8549TIP3    H125608   4.653   2.638   5.093  0.4619  3.2118 -0.6984
 8549TIP3    H225609   4.740   2.712   5.192  1.2859  0.0217  1.0358
 8550TIP3   OH225610   6.404   3.288   5.799  0.0895 -0.0993 -0.1629
 8550TIP3    H125611   6.356   3.252   5.874  1.3777  0.8089  1.1281
 8550TIP3    H225612   6.440   3.211   5.755  2.4445 -0.5214  2.3148
 8551TIP3   OH225613   4.056   2.137   5.024 -0.2132  1.0488 -0.2281
 8551TIP3    H125614   4.052   2.056   5.074 -1.2544  0.2370 -1.6138
 8551TIP3    H225615   4.145   2.139   4.988 -0.0303  0.7809  0.2066
 8552TIP3   OH225616   4.935   1.214   4.495 -0.1535 -0.0334  0.6068
 8552TIP3    H125617   4.950   1.241   4.586  0.9212 -0.8901  0.6814
 8552TIP3    H225618   5.022   1.215   4.455 -0.4498 -0.9623 -0.0586
 8553TIP3   OH225619   5.975   1.565   4.450 -0.1214  0.3542 -0.4180
 8553TIP3    H125620   6.067   1.590   4.441 -0.5407  2.0936 -0.0289
 8553TIP3    H225621   5.941   1.570   4.361  0.0689  0.0741 -0.5074
 8554TIP3   OH225622   6.788   1.361   5.583  0.2568  0.0975  0.5077
 8554TIP3    H125623   6.757   1.395   5.499  0.3878  0.9068  0.7798
 8554TIP3    H225624   6.865   1.308   5.560 -0.2659 -0.4560  0.0234
 8555TIP3   OH225625   4.020   2.416   4.502 -0.2734 -0.0511  0.2285
 8555TIP3    H125626   3.950   2.434   4.565 -0.0195 -1.7495  1.0235
 8555TIP3    H225627   4.063   2.337   4.536  1.8692  0.8366 -0.4053
 8556TIP3   OH225628   7.636   6.061   2.463  0.9868 -0.2245  0.0188
 8556TIP3    H125629   7.653   5.988   2.522  2.6837 -0.2962 -0.5294
 8556TIP3    H225630   7.594   6.022   2.387 -0.4163 -0.2563  0.7973
 8557TIP3   OH225631   0.095   1.160   4.506  0.8228 -0.1718 -0.0670
 8557TIP3    H125632   0.174   1.121   4.468  1.3523 -0.6196  1.4730
 8557TIP3    H225633   0.023   1.117   4.459  1.4643 -0.3828 -0.8765
 8558TIP3   OH225634   6.811   2.051   4.570 -0.1530 -0.0808  0.6458
 8558TIP3    H125635   6.739   2.076   4.511  0.3654  0.0238  0.0561
 8558TIP3    H225636   6.839   1.965   4.537  1.2184  0.7082 -0.2680
 8559TIP3   OH225637   7.644   3.550   0.048  0.4844  0.1972  0.4423
 8559TIP3    H125638   7.619   3.592   0.130  1.7652 -0.3367  1.1090
 8559TIP3    H225639   7.561   3.531   0.004 -0.2171 -0.0020  1.8569
 8560TIP3   OH225640   6.032   2.099   5.847 -0.5455  0.3728  0.4035
 8560TIP3    H125641   6.020   2.113   5.753 -1.4275  0.3926  0.5169
 8560TIP3    H225642   5.968   2.031   5.869  0.6133 -0.6339  0.7192
 8561TIP3   OH225643   1.478   2.985   4.761 -0.1015  0.3594 -0.0018
 8561TIP3    H125644   1.504   3.077   4.756 -0.7536  0.4691 -1.6203
 8561TIP3    H225645   1.388   2.983   4.729 -0.5291 -0.6674  1.2303
 8562TIP3   OH225646   2.067   4.845   0.854  0.4015  0.0369 -0.0154
 8562TIP3    H125647   2.090   4.892   0.773 -2.0423  1.1171 -0.1223
 8562TIP3    H225648   2.075   4.753   0.831  0.8415  0.3493 -1.1715
 8563TIP3   OH225649   1.999   4.969   2.180 -0.0979  0.7646  0.7078
 8563TIP3    H125650   1.937   5.032   2.143 -1.5044 -1.0049  0.0109
 8563TIP3    H225651   2.049   4.937   2.105  0.5343  0.9446  1.0472
 8564TIP3   OH225652   6.465   2.312   5.844  0.0282  0.0323 -0.4227
 8564TIP3    H125653   6.558   2.299   5.824  0.6427  0.6236  1.9549
 8564TIP3    H225654   6.420   2.287   5.763  2.3347  1.4483 -2.2190
 8565TIP3   OH225655   3.621   4.066   1.092 -0.1733  0.4037 -0.2000
 8565TIP3    H125656   3.673   4.076   1.172 -1.2059  0.6367  0.4530
 8565TIP3    H225657   3.680   4.022   1.031  0.5153 -0.0860  0.7992
 8566TIP3   OH225658   7.391   5.515   0.451  0.4354  0.6481 -0.1139
 8566TIP3    H125659   7.444   5.437   0.435 -1.0359 -0.2559 -0.7360
 8566TIP3    H225660   7.398   5.530   0.545  0.2138 -0.6449  0.1197
 8567TIP3   OH225661   7.038   0.855   5.977 -0.1907 -0.3295 -0.5494
 8567TIP3    H125662   7.131   0.876   5.980 -0.2705 -0.1076  0.5323
 8567TIP3    H225663   7.027   0.805   5.895  0.6727  0.5640 -1.2168
 8568TIP3   OH225664   7.639   6.632   0.763 -0.2327 -0.4533 -0.2701
 8568TIP3    H125665   7.572   6.637   0.832  0.1417 -2.6052  0.2742
 8568TIP3    H225666   7.626   6.712   0.712 -3.0526 -0.6846 -0.0175
 8569TIP3   OH225667   6.835   7.037   4.537 -0.0858  0.0209  0.0459
 8569TIP3    H125668   6.755   7.063   4.492 -0.5382  0.2154  0.9417
 8569TIP3    H225669   6.825   6.943   4.552 -0.6504  0.2433  1.1283
 8570TIP3   OH225670   7.105   0.355   4.841  0.2437  0.2329  0.6059
 8570TIP3    H125671   7.009   0.355   4.843  0.2086  1.7096 -0.5827
 8570TIP3    H225672   7.129   0.269   4.876 -1.5225 -0.4554  0.2014
 8571TIP3   OH225673   0.874   3.769   2.993  0.2928  0.7629 -0.1274
 8571TIP3    H125674   0.793   3.763   3.043  1.2718  1.8863  1.6376
 8571TIP3    H225675   0.918   3.686   3.010 -0.7732 -0.1424 -1.6505
 8572TIP3   OH225676   1.966   3.381   1.059  0.0749  0.1670 -0.0333
 8572TIP3    H125677   1.896   3.445   1.061  0.4131  0.5099  1.5115
 8572TIP3    H225678   1.921   3.296   1.065 -0.3179  0.2763 -1.2586
 8573TIP3   OH225679   0.502   0.730   4.679  0.6081 -0.2023 -0.3174
 8573TIP3    H125680   0.521   0.763   4.767 -0.6126 -2.4507  0.8035
 8573TIP3    H225681   0.578   0.677   4.656  0.4300 -0.5256 -0.1612
 8574TIP3   OH225682   0.871   2.287   5.218  0.1654 -0.1681 -0.2456
 8574TIP3    H125683   0.820   2.283   5.137  0.6023  2.8352 -0.7380
 8574TIP3    H225684   0.960   2.265   5.192  0.1032 -0.2325 -0.3998
 8575TIP3   OH225685   4.851   1.672   4.787 -0.2811 -0.2653  0.4111
 8575TIP3    H125686   4.888   1.589   4.815 -1.9365 -1.2595 -0.2878
 8575TIP3    H225687   4.882   1.682   4.697 -0.1590 -0.1618  0.4639
 8576TIP3   OH225688   2.534   4.355   0.701  0.3315  0.3691  0.5784
 8576TIP3    H125689   2.617   4.378   0.660  0.7885  1.8712  2.2793
 8576TIP3    H225690   2.557   4.294   0.771  0.0418  1.0841  1.2988
 8577TIP3   OH225691   6.699   0.521   6.249 -0.3816 -0.1977  0.0369
 8577TIP3    H125692   6.774   0.573   6.219 -0.1048 -0.8576 -0.4198
 8577TIP3    H225693   6.667   0.568   6.326  0.4655  0.1126  0.2025
 8578TIP3   OH225694   1.181   6.016   1.264 -0.0701 -0.1267 -0.5787
 8578TIP3    H125695   1.245   5.983   1.200  1.1383  1.7285 -0.3751
 8578TIP3    H225696   1.124   6.073   1.213 -2.4424 -2.7648 -1.0231
 8579TIP3   OH225697   7.029   1.264   5.465  0.0114  0.1639  0.3513
 8579TIP3    H125698   7.050   1.289   5.375  0.2840 -0.0177  0.3638
 8579TIP3    H225699   6.990   1.177   5.457  1.0233 -0.3073  0.5108
 8580TIP3   OH225700   0.168   2.762   6.044  0.2143  0.1242  0.1843
 8580TIP3    H125701   0.248   2.731   6.085  0.2524  0.4141  0.3334
 8580TIP3    H225702   0.115   2.683   6.031  0.7266 -0.1353 -0.3689
 8581TIP3   OH225703   7.546   1.349   5.688 -0.8805 -0.9354 -0.0013
 8581TIP3    H125704   7.619   1.378   5.743 -0.9235  0.8158 -0.8459
 8581TIP3    H225705   7.586   1.293   5.622 -0.2889 -0.0324 -0.4223
 8582TIP3   OH225706   2.691   0.978   3.524 -0.0361  0.1857 -0.2873
 8582TIP3    H125707   2.762   1.043   3.522 -1.0951  1.2945 -2.2691
 8582TIP3    H225708   2.725   0.903   3.475 -0.8694  1.3902 -2.7288
 8583TIP3   OH225709   0.412   2.719   4.799  0.3499 -0.3286  0.3764
 8583TIP3    H125710   0.406   2.624   4.806 -0.8533 -0.2231  0.9962
 8583TIP3    H225711   0.400   2.737   4.706 -2.8864 -0.5993  0.6720
 8584TIP3   OH225712   7.442   0.653   4.728 -0.1406 -0.5561  0.0841
 8584TIP3    H125713   7.513   0.659   4.793 -0.3338 -0.6469  0.3069
 8584TIP3    H225714   7.408   0.564   4.739 -2.3668  0.4770  2.1882
 8585TIP3   OH225715   4.515   6.963   2.255 -0.1754 -0.6443 -0.5128
 8585TIP3    H125716   4.562   6.881   2.239 -1.9975 -1.9257  0.3968
 8585TIP3    H225717   4.521   6.976   2.350  1.2123  1.0015 -0.8015
 8586TIP3   OH225718   2.267   6.678   1.027  0.5698 -0.7331  0.0279
 8586TIP3    H125719   2.297   6.598   1.069 -0.2573 -1.4807 -0.7689
 8586TIP3    H225720   2.347   6.724   1.003  1.0484 -1.0493  0.9997
 8587TIP3   OH225721   1.178   2.133   5.842 -0.6385 -0.1785  0.3779
 8587TIP3    H125722   1.128   2.188   5.902  0.0463 -0.8511  1.5583
 8587TIP3    H225723   1.243   2.192   5.804  0.0331 -0.1472  1.5696
 8588TIP3   OH225724   1.150   6.863   0.359 -0.8143 -0.5167 -0.1453
 8588TIP3    H125725   1.223   6.924   0.343 -0.6422 -0.3139  1.3763
 8588TIP3    H225726   1.151   6.804   0.284 -0.6449  1.0273 -1.3792
 8589TIP3   OH225727   3.061   5.010   0.902  0.5573  0.3543 -0.3016
 8589TIP3    H125728   3.069   4.916   0.884  2.9784  1.0969 -3.3084
 8589TIP3    H225729   3.122   5.025   0.974 -1.3385 -0.6675  1.6105
 8590TIP3   OH225730   4.896   3.580   0.485  0.3914  0.0378  0.3555
 8590TIP3    H125731   4.853   3.520   0.545  0.0828  0.6475  0.7413
 8590TIP3    H225732   4.829   3.645   0.463  0.6949  0.1921 -0.1326
 8591TIP3   OH225733   7.406   7.165   4.407  0.6025 -0.2406  0.5209
 8591TIP3    H125734   7.333   7.204   4.358 -0.3783 -0.0167  2.1181
 8591TIP3    H225735   7.480   7.224   4.391 -0.0930  0.6346  0.4987
 8592TIP3   OH225736   7.128   1.314   4.209  0.0969  0.3647  0.2022
 8592TIP3    H125737   7.175   1.234   4.230  0.1275  0.2175 -0.4087
 8592TIP3    H225738   7.188   1.364   4.155 -0.2630  0.3923 -0.1771
 8593TIP3   OH225739   7.646   0.857   5.050 -0.3353  0.2875  0.0121
 8593TIP3    H125740   7.635   0.772   5.005 -3.2499 -0.0117  1.2083
 8593TIP3    H225741   7.560   0.898   5.044  0.9331  2.9876 -0.1157
 8594TIP3   OH225742   0.377   0.494   2.400  0.0647  0.2769 -0.0319
 8594TIP3    H125743   0.404   0.410   2.364  0.5252 -1.1795  3.4836
 8594TIP3    H225744   0.302   0.473   2.455 -1.2129  2.5583 -0.8285
 8595TIP3   OH225745   7.669   0.912   5.947 -0.5347  0.0746  0.0591
 8595TIP3    H125746   7.649   0.928   5.855 -1.1689 -3.3222 -0.4430
 8595TIP3    H225747   7.761   0.888   5.948 -1.2697 -2.8792 -0.1259
 8596TIP3   OH225748   6.844   1.215   4.663  0.3068  0.3344  0.2472
 8596TIP3    H125749   6.930   1.197   4.699  0.1695  1.2453  1.0434
 8596TIP3    H225750   6.795   1.134   4.677  0.9659 -0.1185 -0.0363
 8597TIP3   OH225751   1.691   4.230   5.953 -0.5468 -0.2342 -0.1924
 8597TIP3    H125752   1.634   4.175   6.007 -1.1455 -0.6879 -1.2785
 8597TIP3    H225753   1.722   4.172   5.884  0.3537  0.3022 -0.2482
 8598TIP3   OH225754   0.868   2.721   5.729  0.4798 -0.0209  0.0435
 8598TIP3    H125755   0.854   2.759   5.642 -2.9467  0.1737  0.6015
 8598TIP3    H225756   0.924   2.784   5.774 -1.0912  1.9463 -0.6857
 8599TIP3   OH225757   0.318   1.894   6.384  0.6969  0.1091  0.0924
 8599TIP3    H125758   0.354   1.911   6.297 -0.4791 -0.2190 -0.4633
 8599TIP3    H225759   0.303   1.982   6.420  1.7289  0.2460  0.1966
 8600TIP3   OH225760   1.365   1.576   3.904 -0.3987 -0.4745 -0.1030
 8600TIP3    H125761   1.422   1.652   3.915 -0.6922 -0.3697  0.8035
 8600TIP3    H225762   1.383   1.523   3.982  0.7482 -1.9643 -1.3576
 8601TIP3   OH225763   7.701   1.358   5.059  0.2207 -0.0764  0.5062
 8601TIP3    H125764   7.670   1.404   5.137  0.1714  0.0803  0.3956
 8601TIP3    H225765   7.765   1.417   5.020 -0.5575  0.3340 -0.1681
 8602TIP3   OH225766   7.354   1.409   4.022 -0.0372  0.1178  0.7913
 8602TIP3    H125767   7.352   1.439   3.931  0.5886 -1.8486  0.0997
 8602TIP3    H225768   7.404   1.475   4.069  1.3052  0.1608 -0.6920
 8603TIP3   OH225769   0.205   2.270   6.285 -0.3870 -0.2395 -0.2922
 8603TIP3    H125770   0.180   2.361   6.297  0.6330 -0.0452  0.3803
 8603TIP3    H225771   0.256   2.269   6.204  1.9239  0.2628  1.1137
 8604TIP3   OH225772   7.135   0.687   5.211 -0.1206 -0.1014 -0.6918
 8604TIP3    H125773   7.179   0.770   5.196  0.8999 -0.1875  1.7363
 8604TIP3    H225774   7.118   0.685   5.305 -3.5348 -0.9618 -1.2388
 8605TIP3   OH225775   2.486   6.115   1.183 -0.2518  0.5767  0.2253
 8605TIP3    H125776   2.451   6.032   1.151  0.2122 -0.1040  1.4541
 8605TIP3    H225777   2.574   6.094   1.214 -0.9401  1.0267  2.6041
 8606TIP3   OH225778   4.499   2.811   5.653  0.0382  0.0622 -0.5204
 8606TIP3    H125779   4.557   2.787   5.726 -0.1144  2.3447  0.4104
 8606TIP3    H225780   4.411   2.788   5.683  0.2114 -1.1797 -0.9528
 8607TIP3   OH225781   0.756   2.047   5.833  0.5628 -0.3963  0.1449
 8607TIP3    H125782   0.719   2.109   5.770  0.0912 -0.6548  0.1660
 8607TIP3    H225783   0.836   2.016   5.791  0.1811 -0.6636 -0.3887
 8608TIP3   OH225784   0.441   1.856   6.124 -0.0797 -0.0096  0.1579
 8608TIP3    H125785   0.365   1.843   6.066 -0.3594  0.1698  0.4797
 8608TIP3    H225786   0.469   1.946   6.108 -0.3395  0.1388  0.5062
 8609TIP3   OH225787   5.807   0.714   4.476 -0.1636 -0.0458 -0.0879
 8609TIP3    H125788   5.734   0.776   4.468 -0.3776 -0.4456 -1.2277
 8609TIP3    H225789   5.769   0.638   4.520 -0.2922 -0.0341 -0.1807
 8610TIP3   OH225790   1.700   0.013   5.131  0.2783 -0.0997 -0.4324
 8610TIP3    H125791   1.724   0.105   5.121 -0.8562  0.3403  0.7308
 8610TIP3    H225792   1.649  -0.008   5.054 -2.0820  1.1347  0.7664
 8611TIP3   OH225793   6.404   1.101   4.870  0.0071 -0.0617  0.2908
 8611TIP3    H125794   6.475   1.134   4.926 -0.3994 -1.4448  1.6471
 8611TIP3    H225795   6.328   1.154   4.893  0.2275  0.4438 -0.1227
 8612TIP3   OH225796   0.546   1.460   4.515  0.1337 -0.0750  0.2175
 8612TIP3    H125797   0.454   1.487   4.513 -0.4989 -2.1927 -1.3942
 8612TIP3    H225798   0.559   1.430   4.605 -0.9352 -0.3089  0.3120
 8613TIP3   OH225799   0.859   0.051   4.846  0.2758  0.5613 -0.1380
 8613TIP3    H125800   0.882  -0.025   4.900  1.5040  1.8200  1.1270
 8613TIP3    H225801   0.937   0.065   4.791 -0.0646  0.7439 -0.5762
 8614TIP3   OH225802   2.394   5.846   0.645 -0.1852  0.1490 -0.0771
 8614TIP3    H125803   2.340   5.788   0.591  0.0650  0.4597 -0.6681
 8614TIP3    H225804   2.469   5.868   0.589 -0.0843  0.7230  0.2806
 8615TIP3   OH225805   3.746   1.545   4.371  0.6292 -0.1174 -0.1915
 8615TIP3    H125806   3.835   1.535   4.406  0.6270 -0.6195 -0.3301
 8615TIP3    H225807   3.710   1.457   4.372  0.1068  0.1005 -0.0735
 8616TIP3   OH225808   6.431   4.122   0.623  0.2033  0.3040 -0.1376
 8616TIP3    H125809   6.347   4.168   0.628  0.0066 -0.0043 -0.5832
 8616TIP3    H225810   6.493   4.181   0.666  0.0776  1.2496 -1.2558
 8617TIP3   OH225811   0.421   6.544   0.369 -0.9492  0.3524 -0.0477
 8617TIP3    H125812   0.370   6.556   0.289  0.0698  1.6878 -0.5174
 8617TIP3    H225813   0.511   6.565   0.343 -0.3415 -0.8734  1.0394
 8618TIP3   OH225814   1.607   1.697   4.936  0.3912  0.5067  0.0758
 8618TIP3    H125815   1.676   1.669   4.875  0.2054  0.8717 -0.3026
 8618TIP3    H225816   1.529   1.703   4.882 -0.3382 -1.5916  0.8377
 8619TIP3   OH225817   6.002   7.365   3.443  0.3136  0.5414  0.5635
 8619TIP3    H125818   6.011   7.278   3.403 -0.6076  0.6209  0.1478
 8619TIP3    H225819   5.911   7.389   3.424  0.5969  1.6365  0.5914
 8620TIP3   OH225820   1.943   3.430   5.449 -0.3779  0.2198 -0.2981
 8620TIP3    H125821   1.921   3.370   5.378 -0.8960 -0.5923  0.5358
 8620TIP3    H225822   1.858   3.463   5.479 -0.0959  1.4531 -0.8090
 8621TIP3   OH225823   7.253   1.554   4.772 -0.0636  0.0144  0.6968
 8621TIP3    H125824   7.196   1.479   4.750  1.2515 -1.1134  1.0680
 8621TIP3    H225825   7.195   1.616   4.816 -1.4376 -0.2760 -0.6576
 8622TIP3   OH225826   7.215   0.840   4.199  0.4327  0.6274 -0.0419
 8622TIP3    H125827   7.214   0.754   4.242 -4.0295  0.2493 -0.6815
 8622TIP3    H225828   7.180   0.823   4.111  3.0646  2.5224 -1.5245
 8623TIP3   OH225829   7.433   1.010   5.804 -0.2892  0.0233 -0.0121
 8623TIP3    H125830   7.522   1.027   5.773  0.3480 -1.6562  0.8351
 8623TIP3    H225831   7.407   0.930   5.758 -1.0660  0.0688  0.3458
 8624TIP3   OH225832   6.170   1.390   4.250  0.4077  0.2137 -0.3144
 8624TIP3    H125833   6.109   1.316   4.252  0.7908 -0.1511 -1.4642
 8624TIP3    H225834   6.235   1.369   4.318 -1.5656  1.3711  2.0144
 8625TIP3   OH225835   3.482   1.836   6.114 -0.1195 -0.0688 -0.2546
 8625TIP3    H125836   3.535   1.916   6.121  0.0913 -0.4644  3.6955
 8625TIP3    H225837   3.394   1.867   6.097 -0.3621  1.2080  2.9389
 8626TIP3   OH225838   6.527   1.428   6.124  0.0963  0.6994 -0.4835
 8626TIP3    H125839   6.592   1.488   6.088 -0.6662  1.5535 -0.4829
 8626TIP3    H225840   6.514   1.458   6.214 -1.2570  1.3929 -0.8878
 8627TIP3   OH225841   3.659   7.017   4.868  0.3263 -0.3025 -0.4907
 8627TIP3    H125842   3.651   7.111   4.881  1.3077 -0.1164 -1.1369
 8627TIP3    H225843   3.744   6.995   4.906  0.4222 -0.7992 -0.9843
 8628TIP3   OH225844   6.083   2.102   6.155  0.1617  0.2592  0.1556
 8628TIP3    H125845   6.106   2.137   6.069  0.6695 -2.6407 -0.9262
 8628TIP3    H225846   6.163   2.111   6.206  0.7045 -0.6336 -0.5420
 8629TIP3   OH225847   0.062   4.603   3.912 -0.0810 -0.3916 -0.3419
 8629TIP3    H125848   0.088   4.637   3.827  0.8222  0.1127  0.1379
 8629TIP3    H225849   0.143   4.593   3.961 -0.6006 -0.5944  0.4982
 8630TIP3   OH225850   6.828   2.657   6.159  0.0205  0.2528 -0.5942
 8630TIP3    H125851   6.774   2.588   6.199 -0.2960  0.4871 -0.6185
 8630TIP3    H225852   6.894   2.677   6.226  0.7085 -0.7484 -0.9544
 8631TIP3   OH225853   1.085   5.483   2.036  0.2324 -0.4389  0.3790
 8631TIP3    H125854   1.024   5.433   2.091  0.3704  0.1780  1.1014
 8631TIP3    H225855   1.064   5.456   1.947 -3.5636  2.4348  0.2917
 8632TIP3   OH225856   0.058   1.788   4.671  0.0327 -0.0661 -0.0628
 8632TIP3    H125857   0.031   1.866   4.720  0.1496 -0.1082  0.0698
 8632TIP3    H225858   0.076   1.821   4.583  3.4398  0.7423  0.8328
 8633TIP3   OH225859   2.592   6.594   5.517  0.3847  0.0395  0.3100
 8633TIP3    H125860   2.582   6.634   5.603 -0.4347  0.4623  0.0228
 8633TIP3    H225861   2.502   6.573   5.489  0.6369 -0.0607 -0.4537
 8634TIP3   OH225862   3.049   4.046   1.271 -0.1991 -0.5323  0.1169
 8634TIP3    H125863   3.064   4.120   1.331  1.2037 -0.3994 -0.3914
 8634TIP3    H225864   3.118   4.054   1.205 -1.8674 -0.5440 -1.6815
 8635TIP3   OH225865   3.012   5.810   2.010  0.4179  0.3303  0.2877
 8635TIP3    H125866   3.032   5.806   1.917  0.3318  1.1715  0.2254
 8635TIP3    H225867   2.917   5.825   2.014  0.4239  0.3108  0.5031
 8636TIP3   OH225868   1.751   0.671   3.965  0.2536  0.3075  0.1316
 8636TIP3    H125869   1.670   0.633   3.931 -0.0355  0.7888  0.2699
 8636TIP3    H225870   1.763   0.751   3.913 -0.5013  1.3614  1.5263
 8637TIP3   OH225871   0.548   1.346   6.235  0.1541  0.4591 -0.0892
 8637TIP3    H125872   0.583   1.259   6.250  0.7778  0.7515  0.1837
 8637TIP3    H225873   0.529   1.380   6.323 -0.3422  0.4993 -0.2075
 8638TIP3   OH225874   7.435   1.730   5.579  0.3929 -0.4753 -0.2719
 8638TIP3    H125875   7.401   1.756   5.493 -0.7625 -2.1038 -0.3120
 8638TIP3    H225876   7.526   1.706   5.561  0.3174 -0.2862 -0.9408
 8639TIP3   OH225877   1.153   6.548   1.609  0.2165  0.1488 -0.3889
 8639TIP3    H125878   1.152   6.642   1.627 -0.4450  0.0198  0.2689
 8639TIP3    H225879   1.204   6.510   1.680 -0.8986 -0.1667  0.2508
 8640TIP3   OH225880   0.999   5.357   0.323 -0.5147  0.2199  0.2472
 8640TIP3    H125881   0.937   5.284   0.322 -1.4223  1.0000 -0.9241
 8640TIP3    H225882   1.077   5.321   0.366 -1.4780 -1.0015  0.9952
 8641TIP3   OH225883   4.545   6.243   1.619 -0.1945  0.3671 -0.2575
 8641TIP3    H125884   4.577   6.303   1.687  0.9454  0.4078 -0.8193
 8641TIP3    H225885   4.555   6.292   1.537 -0.1660 -0.2299 -0.6140
 8642TIP3   OH225886   6.943   2.272   5.337 -0.1059  0.2465 -0.1428
 8642TIP3    H125887   6.892   2.353   5.328 -2.1693 -1.2011 -1.8657
 8642TIP3    H225888   7.034   2.300   5.328 -0.7482  2.4787  0.0087
 8643TIP3   OH225889   1.259   5.254   0.007 -0.0223  0.4601  0.3055
 8643TIP3    H125890   1.304   5.218   0.083  0.9759 -0.1929 -0.5716
 8643TIP3    H225891   1.168   5.228   0.018  0.1123  0.3661  1.2663
 8644TIP3   OH225892   1.748   4.130   5.310 -0.1104  0.3357 -0.5647
 8644TIP3    H125893   1.803   4.196   5.266 -1.3889  1.1164 -1.0113
 8644TIP3    H225894   1.672   4.121   5.253 -1.4393  0.8149  1.0987
 8645TIP3   OH225895   3.116   7.143   0.706 -0.2577  0.3880 -0.3010
 8645TIP3    H125896   3.127   7.054   0.674  0.4077  0.9893 -1.7798
 8645TIP3    H225897   3.193   7.191   0.675  0.4520  1.0064  2.2571
 8646TIP3   OH225898   4.447   4.127   2.130 -0.2235  0.0939  0.2082
 8646TIP3    H125899   4.398   4.047   2.148 -1.8581  0.9061 -0.5496
 8646TIP3    H225900   4.381   4.196   2.128  0.9338  1.1997 -0.9097
 8647TIP3   OH225901   2.972   6.161   1.122  0.3193  0.7921  0.2832
 8647TIP3    H125902   3.021   6.187   1.044 -2.4316 -1.0921 -2.2095
 8647TIP3    H225903   2.923   6.239   1.147  0.9164  1.3001 -0.1381
 8648TIP3   OH225904   4.291   5.885   2.777 -0.0704 -0.2292 -0.2117
 8648TIP3    H125905   4.209   5.922   2.744 -0.1624 -0.4551 -0.2369
 8648TIP3    H225906   4.271   5.793   2.794  0.4644 -0.5360 -1.1962
 8649TIP3   OH225907   4.225   6.451   1.538  0.1112 -0.1334 -0.2544
 8649TIP3    H125908   4.320   6.457   1.550 -0.1693  0.4193  1.9048
 8649TIP3    H225909   4.199   6.539   1.514  0.1991 -0.4038 -1.3640
 8650TIP3   OH225910   7.556   0.841   0.358 -0.1547 -0.0274 -0.0149
 8650TIP3    H125911   7.543   0.882   0.273 -1.1662  0.3174  0.3016
 8650TIP3    H225912   7.550   0.747   0.341  3.4412 -0.1571 -0.9619
 8651TIP3   OH225913   2.654   6.229   2.650 -0.5901  0.3661  0.0032
 8651TIP3    H125914   2.591   6.298   2.631 -1.6882 -0.6742 -0.1665
 8651TIP3    H225915   2.740   6.272   2.644 -1.3285  2.1812  1.9165
 8652TIP3   OH225916   3.811   6.614   0.704 -0.0913  0.0543 -0.4331
 8652TIP3    H125917   3.850   6.699   0.683 -0.5834  0.4449  0.1999
 8652TIP3    H225918   3.750   6.633   0.775  1.7478 -1.2554  1.5664
 8653TIP3   OH225919   2.680   5.826   0.934 -0.2275  0.2090 -0.1904
 8653TIP3    H125920   2.685   5.836   0.839  1.0806  0.7511 -0.0725
 8653TIP3    H225921   2.704   5.734   0.949 -0.8829  0.0022 -0.4231
 8654TIP3   OH225922   0.847   3.653   5.563  0.3053 -0.5707  0.0932
 8654TIP3    H125923   0.941   3.634   5.570  0.2146 -0.7996  0.7562
 8654TIP3    H225924   0.837   3.694   5.477  0.8700 -1.4311 -0.3955
 8655TIP3   OH225925   7.290   0.427   1.845  0.1259  0.1529 -0.3715
 8655TIP3    H125926   7.276   0.428   1.940  0.5684  1.5431 -0.3214
 8655TIP3    H225927   7.365   0.368   1.833 -0.9828 -1.3601 -0.0111
 8656TIP3   OH225928   3.473   4.854   1.731 -0.5703 -0.1755  0.3609
 8656TIP3    H125929   3.541   4.850   1.798 -1.4755 -0.7950  1.2611
 8656TIP3    H225930   3.477   4.944   1.697 -1.0931  0.6060  2.3002
 8657TIP3   OH225931   7.045   1.219   3.342 -0.5406  0.2123  0.2990
 8657TIP3    H125932   7.106   1.292   3.349  0.0202 -0.2436  0.2174
 8657TIP3    H225933   7.006   1.229   3.255 -1.5412  1.2415  0.8574
 8658TIP3   OH225934   4.201   6.340   2.741  0.1834 -0.3732 -0.0003
 8658TIP3    H125935   4.270   6.319   2.677 -0.8270 -0.6274 -1.0284
 8658TIP3    H225936   4.243   6.399   2.803  1.1113  0.1061 -1.0699
 8659TIP3   OH225937   1.646   6.029   1.398  0.5497 -0.5576 -0.0222
 8659TIP3    H125938   1.656   6.047   1.304 -2.1019  1.3608  0.0112
 8659TIP3    H225939   1.610   6.110   1.435 -0.0478 -1.8447  2.3476
 8660TIP3   OH225940   7.691   0.241   1.219 -0.2286  0.2723 -0.1309
 8660TIP3    H125941   7.770   0.294   1.228 -0.4602  1.1077 -2.4849
 8660TIP3    H225942   7.684   0.193   1.301  1.7118  1.5631  0.8221
 8661TIP3   OH225943   1.064   6.837   1.580 -0.1326 -0.0600  0.2043
 8661TIP3    H125944   1.005   6.859   1.509 -0.0289 -2.9560 -0.8411
 8661TIP3    H225945   1.007   6.814   1.653 -0.2544  0.3981  0.2553
 8662TIP3   OH225946   5.843   5.351   5.760  0.6195 -0.3954 -0.1030
 8662TIP3    H125947   5.878   5.378   5.674 -1.0823  1.0259 -0.3771
 8662TIP3    H225948   5.875   5.418   5.820  1.3940 -1.1187  0.2980
 8663TIP3   OH225949   2.667   4.717   0.331  0.4090  0.2471  0.0249
 8663TIP3    H125950   2.657   4.773   0.407  0.2004 -0.3636  0.4554
 8663TIP3    H225951   2.580   4.678   0.318  0.0126  1.5678 -1.5029
 8664TIP3   OH225952   4.756   1.385   2.015 -0.8288  0.2576 -0.4820
 8664TIP3    H125953   4.707   1.344   1.944 -0.1528 -0.9284 -0.2645
 8664TIP3    H225954   4.771   1.315   2.078 -0.1224  0.9571  0.1352
 8665TIP3   OH225955   4.280   6.353   0.697 -0.0207 -0.1452  0.2254
 8665TIP3    H125956   4.292   6.443   0.667 -0.3446 -0.9372 -2.4172
 8665TIP3    H225957   4.236   6.362   0.781  1.5911  2.2029  0.8708
 8666TIP3   OH225958   5.129   6.459   3.780  0.0899 -0.4417  0.2116
 8666TIP3    H125959   5.037   6.485   3.790  0.0112 -0.9633  0.8580
 8666TIP3    H225960   5.161   6.512   3.707 -0.7315 -0.2690 -0.0280
 8667TIP3   OH225961   1.975   2.283   6.186  0.4950  0.0251  0.1112
 8667TIP3    H125962   1.988   2.198   6.229  1.0692 -0.0848 -0.2597
 8667TIP3    H225963   1.974   2.262   6.092 -0.7277  0.2593  0.0614
 8668TIP3   OH225964   2.220   3.565   0.465 -0.2716  0.0117  0.2336
 8668TIP3    H125965   2.125   3.556   0.470 -0.1689 -1.0857  0.1298
 8668TIP3    H225966   2.249   3.497   0.404  0.7440 -0.7385  1.5149
 8669TIP3   OH225967   4.756   5.531   1.058 -0.1956 -0.0878 -0.0334
 8669TIP3    H125968   4.796   5.469   1.118 -1.2958 -1.5940 -0.8373
 8669TIP3    H225969   4.830   5.573   1.014  0.5508 -4.1510 -2.8468
 8670TIP3   OH225970   4.430   4.897   1.892  0.5973 -0.0356 -0.4209
 8670TIP3    H125971   4.430   4.822   1.832 -1.4812  1.1268 -1.9302
 8670TIP3    H225972   4.505   4.950   1.864  1.1050 -0.7326 -0.3918
 8671TIP3   OH225973   5.330   6.903   2.696  0.0566 -0.1249 -0.4421
 8671TIP3    H125974   5.376   6.963   2.754 -0.2207 -1.5798  1.3277
 8671TIP3    H225975   5.288   6.959   2.631  0.3230  1.5254  0.7938
 8672TIP3   OH225976   2.975   6.767   4.013 -0.1233 -0.0997  0.0001
 8672TIP3    H125977   2.934   6.684   4.039 -0.7523 -0.0801 -0.9090
 8672TIP3    H225978   3.037   6.786   4.084 -1.5579 -0.2132  1.3288
 8673TIP3   OH225979   0.434   6.906   3.025 -0.2632  0.0281  0.0840
 8673TIP3    H125980   0.399   6.821   2.998  0.6360  0.2468 -1.8997
 8673TIP3    H225981   0.365   6.946   3.077 -1.1563 -1.4180  0.0238
 8674TIP3   OH225982   2.217   6.850   1.699 -0.0369 -0.0073 -0.1534
 8674TIP3    H125983   2.305   6.884   1.715  0.3428 -0.9423 -0.2371
 8674TIP3    H225984   2.180   6.912   1.636  0.0483  1.1707  0.9204
 8675TIP3   OH225985   2.837   3.929   1.111  0.8465 -0.1631 -0.4528
 8675TIP3    H125986   2.817   3.864   1.179 -0.4533  0.9158  0.2164
 8675TIP3    H225987   2.917   3.971   1.141  0.1046  0.5288  0.5894
 8676TIP3   OH225988   4.780   6.005   2.528 -0.3602 -0.0534 -0.1959
 8676TIP3    H125989   4.696   5.960   2.537 -0.1446 -0.3666  0.2981
 8676TIP3    H225990   4.759   6.098   2.542 -0.8876  0.0642 -1.7328
 8677TIP3   OH225991   1.000   0.657   0.416  0.3793 -0.3924  0.0392
 8677TIP3    H125992   1.089   0.691   0.425  0.9125 -1.2609 -1.8191
 8677TIP3    H225993   0.973   0.637   0.506  2.0305 -0.0582  0.6203
 8678TIP3   OH225994   4.830   6.530   3.424  0.0559  0.0617 -0.0374
 8678TIP3    H125995   4.816   6.472   3.499 -0.9313 -0.2446 -0.4453
 8678TIP3    H225996   4.902   6.489   3.376 -0.5791 -0.8064 -0.2811
 8679TIP3   OH225997   3.072   2.611   4.481  0.2892 -0.2899  0.0908
 8679TIP3    H125998   2.983   2.645   4.483  0.3354 -0.2457  1.6514
 8679TIP3    H225999   3.071   2.538   4.544  0.7236 -1.8672 -1.6822
 8680TIP3   OH226000   2.122   4.025   3.677  0.0107 -0.1323 -0.4682
 8680TIP3    H126001   2.100   4.118   3.672 -0.8485 -0.3895 -1.7711
 8680TIP3    H226002   2.198   4.016   3.620  0.5966 -0.0886  0.3010
 8681TIP3   OH226003   4.621   6.738   1.532 -0.3634  0.2105  0.3930
 8681TIP3    H126004   4.591   6.796   1.462 -0.9447 -1.7192 -1.0040
 8681TIP3    H226005   4.595   6.782   1.613 -0.9991  1.7588 -0.6344
 8682TIP3   OH226006   6.590   0.611   0.846  0.0854 -0.3210 -0.7434
 8682TIP3    H126007   6.685   0.617   0.862  0.1274 -2.6841  0.1400
 8682TIP3    H226008   6.550   0.644   0.926  0.1434  0.9153 -1.2135
 8683TIP3   OH226009   2.870   6.631   1.736 -0.1506 -0.4528  0.1872
 8683TIP3    H126010   2.808   6.598   1.801  0.1737 -1.6317 -0.0999
 8683TIP3    H226011   2.815   6.665   1.666 -0.5954  3.6469  2.3809
 8684TIP3   OH226012   3.071   6.595   1.024  0.0415 -0.1541  0.8552
 8684TIP3    H126013   2.989   6.615   1.068  0.1061  1.5098  0.2487
 8684TIP3    H226014   3.103   6.516   1.067 -0.6664  0.5566  2.7022
 8685TIP3   OH226015   2.803   6.071   0.556 -0.4469  0.0489  0.0775
 8685TIP3    H126016   2.747   6.122   0.614  0.0489 -0.6456  1.1934
 8685TIP3    H226017   2.818   5.989   0.603 -0.7485 -0.8981 -1.4178
 8686TIP3   OH226018   2.594   6.996   1.162  0.4436  0.0622 -0.3218
 8686TIP3    H126019   2.652   6.924   1.187  1.0176  0.2399 -1.1379
 8686TIP3    H226020   2.647   7.051   1.105  0.3095  1.6441  1.0514
 8687TIP3   OH226021   2.545   6.379   1.008  1.1382  0.4530 -0.1713
 8687TIP3    H126022   2.543   6.331   0.926 -2.4695 -0.4209  0.3415
 8687TIP3    H226023   2.529   6.313   1.076 -3.9587  2.2152  0.5415
 8688TIP3   OH226024   2.194   4.075   5.841  0.1366 -0.2934 -0.5815
 8688TIP3    H126025   2.272   4.128   5.831 -0.8852  1.2800 -0.4090
 8688TIP3    H226026   2.189   4.056   5.935  0.3113 -0.3999 -0.5944
 8689TIP3   OH226027   3.616   6.811   0.548  0.5355  1.0159 -0.2288
 8689TIP3    H126028   3.591   6.832   0.638  0.9643 -0.2635  0.2008
 8689TIP3    H226029   3.552   6.745   0.520  0.4353  1.3687 -0.8537
 8690TIP3   OH226030   2.769   2.125   5.945  0.4635 -0.0191 -0.2786
 8690TIP3    H126031   2.724   2.146   6.027 -0.3703 -2.4955 -0.0389
 8690TIP3    H226032   2.712   2.161   5.877 -0.8301 -1.2725  0.1121
 8691TIP3   OH226033   3.565   5.856   0.820  0.9172 -0.3018 -0.2627
 8691TIP3    H126034   3.480   5.871   0.778 -0.2374 -0.5803  1.8772
 8691TIP3    H226035   3.623   5.829   0.749 -0.5103  0.9270 -1.9335
 8692TIP3   OH226036   2.744   5.832   2.068 -0.2916 -0.1579 -0.3269
 8692TIP3    H126037   2.687   5.755   2.068 -0.5352  0.0212 -0.6450
 8692TIP3    H226038   2.723   5.879   2.149  0.2998 -0.7527  0.1765
 8693TIP3   OH226039   4.346   6.736   2.743  0.1546  0.6438 -0.4101
 8693TIP3    H126040   4.308   6.706   2.825  0.0572  2.3960  0.2139
 8693TIP3    H226041   4.440   6.744   2.762  0.5213 -1.3814 -1.2399
 8694TIP3   OH226042   6.699   5.686   1.290 -0.2752 -0.1122 -0.0866
 8694TIP3    H126043   6.626   5.634   1.255 -0.0155 -0.2428 -0.4344
 8694TIP3    H226044   6.756   5.622   1.333 -0.1075 -0.0745 -0.2538
 8695TIP3   OH226045   1.664   3.064   5.809  0.1340 -0.2553 -0.2424
 8695TIP3    H126046   1.612   3.129   5.856 -0.5852 -0.9333 -0.0734
 8695TIP3    H226047   1.611   3.041   5.733  0.4350 -0.5570 -0.3638
 8696TIP3   OH226048   6.817   6.061   2.350 -0.4817 -0.3442 -0.1552
 8696TIP3    H126049   6.759   6.137   2.344  0.1860  0.3065  1.5270
 8696TIP3    H226050   6.771   5.999   2.406 -1.5519 -1.7217 -2.4420
 8697TIP3   OH226051   5.930   5.663   1.238  0.2676  0.1289 -0.4610
 8697TIP3    H126052   6.006   5.613   1.208 -0.6333 -2.5115  1.5470
 8697TIP3    H226053   5.911   5.629   1.325 -0.9375  3.3873  0.6403
 8698TIP3   OH226054   1.372   5.704   0.269 -0.1004 -0.1257  0.3556
 8698TIP3    H126055   1.389   5.686   0.176  0.0446  1.5017  0.0376
 8698TIP3    H226056   1.293   5.655   0.289 -1.8150  1.8025 -1.4469
 8699TIP3   OH226057   5.445   5.374   2.428  0.5065  0.7378 -0.2525
 8699TIP3    H126058   5.479   5.319   2.499 -0.5750 -1.8188 -1.6610
 8699TIP3    H226059   5.351   5.360   2.430  0.1209  3.0987 -0.2293
 8700TIP3   OH226060   4.548   7.009   2.531  0.1821  0.7646  0.1954
 8700TIP3    H126061   4.523   7.101   2.529 -0.1721  0.6606 -0.3616
 8700TIP3    H226062   4.468   6.963   2.555 -0.1574  0.4433 -1.4825
 8701TIP3   OH226063   2.859   4.728   1.505 -0.1757  0.1512  0.1986
 8701TIP3    H126064   2.847   4.636   1.483  2.4472 -0.4541  1.1983
 8701TIP3    H226065   2.844   4.774   1.422  0.2536 -1.3061 -0.7047
 8702TIP3   OH226066   5.427   5.030   1.634 -0.1329 -0.4794 -0.0584
 8702TIP3    H126067   5.430   5.120   1.601 -0.0665 -0.7520 -0.8055
 8702TIP3    H226068   5.386   4.980   1.564 -0.7804 -0.9165  0.6348
 8703TIP3   OH226069   1.868   2.912   5.118  0.4926  0.1089  0.0535
 8703TIP3    H126070   1.814   2.834   5.133 -0.1609  0.1521 -1.8760
 8703TIP3    H226071   1.918   2.923   5.199  1.4768 -3.0122 -0.0719
 8704TIP3   OH226072   2.509   7.282   0.427 -0.2478 -0.0735  0.4921
 8704TIP3    H126073   2.580   7.291   0.491  0.3550 -0.1731 -0.1539
 8704TIP3    H226074   2.429   7.292   0.478  0.2658  1.8833  0.9352
 8705TIP3   OH226075   2.293   3.759   5.984  0.4920  0.0139  0.8502
 8705TIP3    H126076   2.348   3.834   6.009  0.2757  0.7083 -0.6696
 8705TIP3    H226077   2.318   3.741   5.893 -1.0523 -0.3340  0.4784
 8706TIP3   OH226078   2.814   5.489   1.371 -0.6505 -0.2348  0.0380
 8706TIP3    H126079   2.758   5.451   1.304 -1.3413 -0.2483  0.6211
 8706TIP3    H226080   2.820   5.582   1.348 -0.2048 -0.3989 -0.5137
 8707TIP3   OH226081   6.146   0.460   0.504  0.2475  0.4760 -0.4338
 8707TIP3    H126082   6.169   0.534   0.448  0.6907  0.2476 -0.5517
 8707TIP3    H226083   6.202   0.470   0.581  0.3000  0.2638 -0.4462
 8708TIP3   OH226084   3.115   7.203   0.993 -0.1850  0.0708  0.1188
 8708TIP3    H126085   3.079   7.206   0.904  0.6019  0.6320 -0.1859
 8708TIP3    H226086   3.105   7.112   1.019 -1.6467  0.1769 -0.0315
 8709TIP3   OH226087   3.327   6.849   0.001  0.2953  0.0409 -0.0843
 8709TIP3    H126088   3.247   6.880   0.043  1.6013  1.6405  1.2972
 8709TIP3    H226089   3.316   6.754  -0.003 -0.7728  0.0309  2.0746
 8710TIP3   OH226090   1.616   2.181   6.210 -0.3167 -0.5115 -0.2834
 8710TIP3    H126091   1.651   2.267   6.232 -0.3277 -0.2119 -1.4250
 8710TIP3    H226092   1.649   2.124   6.280  1.3644  0.0224 -0.5999
 8711TIP3   OH226093   4.077   6.177   3.136  0.3214 -0.2577  0.3781
 8711TIP3    H126094   4.075   6.154   3.044  0.5184 -3.2024  1.0704
 8711TIP3    H226095   4.142   6.247   3.141  1.3394 -1.0306 -1.5227
 8712TIP3   OH226096   2.944   6.600   0.315  0.1513  0.1152 -0.0997
 8712TIP3    H126097   2.985   6.542   0.380 -1.3435 -0.8576 -0.0138
 8712TIP3    H226098   2.860   6.625   0.354  0.2664  1.4127 -0.6488
 8713TIP3   OH226099   2.722   5.576   0.570 -0.0056 -0.1308 -0.3374
 8713TIP3    H126100   2.735   5.589   0.664  1.9825  1.5098 -0.7957
 8713TIP3    H226101   2.790   5.513   0.545  1.0648  1.2817 -1.0763
 8714TIP3   OH226102   2.356   5.794   3.170  0.4347 -0.1874 -0.4206
 8714TIP3    H126103   2.283   5.835   3.124  0.6767 -0.6457 -1.2279
 8714TIP3    H226104   2.326   5.705   3.188  0.2666  0.0488  0.4924
 8715TIP3   OH226105   4.487   6.340   2.236  0.0341 -0.3860  0.1405
 8715TIP3    H126106   4.487   6.426   2.279 -0.0114 -0.2322 -0.1657
 8715TIP3    H226107   4.580   6.318   2.227  0.1514  0.9275 -2.3424
 8716TIP3   OH226108   2.320   4.441   4.992  0.2216 -0.3548  0.1596
 8716TIP3    H126109   2.241   4.435   4.939 -0.1837 -1.6392  0.8817
 8716TIP3    H226110   2.324   4.533   5.019 -1.5297 -0.4666  0.8726
 8717TIP3   OH226111   1.594   1.631   5.792 -0.0323 -0.0302  0.0556
 8717TIP3    H126112   1.648   1.571   5.843  0.4624  0.6190  0.3070
 8717TIP3    H226113   1.508   1.628   5.834  0.3898  0.5502  0.9738
 8718TIP3   OH226114   6.012   6.542   1.925  0.0396 -0.0629  0.0125
 8718TIP3    H126115   6.055   6.535   1.839  0.0383  0.2012 -0.0074
 8718TIP3    H226116   6.031   6.631   1.954  0.1954 -0.2101  0.3689
 8719TIP3   OH226117   3.858   6.575   0.423  0.4647  0.1018  0.3406
 8719TIP3    H126118   3.811   6.598   0.343  1.4161  1.3729  0.1223
 8719TIP3    H226119   3.808   6.615   0.493 -0.0123 -0.4605  0.3220
 8720TIP3   OH226120   6.453   1.906   0.499 -0.8382 -0.4585 -0.4103
 8720TIP3    H126121   6.419   1.858   0.575  0.0184  1.5003  1.2706
 8720TIP3    H226122   6.398   1.877   0.426 -2.8765 -1.0492  1.2954
 8721TIP3   OH226123   5.315   6.481   1.287  0.2567  0.1804 -0.1193
 8721TIP3    H126124   5.386   6.546   1.282  1.3714 -0.7863  2.3699
 8721TIP3    H226125   5.358   6.402   1.321 -2.0711 -0.3343  1.6830
 8722TIP3   OH226126   6.031   6.476   0.834  0.0981 -0.4019  0.3472
 8722TIP3    H126127   6.035   6.425   0.753 -0.9716 -0.7481  0.5008
 8722TIP3    H226128   5.981   6.421   0.894  0.8421 -0.1220  1.2275
 8723TIP3   OH226129   5.243   3.495   0.187  0.1310  0.0161  0.1815
 8723TIP3    H126130   5.162   3.467   0.232 -0.1784  0.2736 -0.2101
 8723TIP3    H226131   5.266   3.578   0.230  0.9446 -0.7249  1.2158
 8724TIP3   OH226132   2.695   5.146   0.097 -0.4653 -0.4044  0.5760
 8724TIP3    H126133   2.640   5.068   0.088 -0.0130 -0.6852  0.2214
 8724TIP3    H226134   2.660   5.191   0.174 -2.0217  0.0955 -0.3835
 8725TIP3   OH226135   2.692   5.351   2.276  0.1634  0.0134  0.2556
 8725TIP3    H126136   2.646   5.396   2.205 -0.2262  0.5083  0.8139
 8725TIP3    H226137   2.777   5.329   2.239 -0.2934 -0.3701 -0.5939
 8726TIP3   OH226138   5.930   6.218   3.443 -0.0243  0.0361  0.2611
 8726TIP3    H126139   5.929   6.242   3.535  1.1255  0.4217  0.1800
 8726TIP3    H226140   5.841   6.185   3.425 -0.3854  0.4058  1.3736
 8727TIP3   OH226141   5.558   5.548   1.513 -0.2753  0.4774  0.4478
 8727TIP3    H126142   5.651   5.566   1.498 -0.7668  2.6965 -0.1501
 8727TIP3    H226143   5.515   5.578   1.433 -1.4132 -1.6329  0.2403
 8728TIP3   OH226144   3.748   0.628   5.543  0.5765  0.1457 -0.2477
 8728TIP3    H126145   3.669   0.682   5.528  0.2961  0.0157  0.7190
 8728TIP3    H226146   3.782   0.611   5.455 -0.0067  0.9036 -0.6344
 8729TIP3   OH226147   0.264   2.164   3.008  0.5407  0.1758  0.1247
 8729TIP3    H126148   0.341   2.166   2.952  0.4865 -0.5319  0.0220
 8729TIP3    H226149   0.298   2.142   3.095  0.6914  1.7906  0.4920
 8730TIP3   OH226150   4.915   6.631   1.497  0.1214  0.1142 -0.2592
 8730TIP3    H126151   4.821   6.619   1.511  0.4602 -0.9004  1.2799
 8730TIP3    H226152   4.936   6.712   1.544  0.0302  0.2962 -0.5327
 8731TIP3   OH226153   3.918   6.989   0.852  0.1439 -0.1890 -0.5839
 8731TIP3    H126154   3.952   6.941   0.777  1.6502  0.4042 -0.2986
 8731TIP3    H226155   3.865   7.059   0.814 -0.6995 -1.0515 -1.0325
 8732TIP3   OH226156   4.284   2.063   3.154 -0.4573  0.0359 -0.3511
 8732TIP3    H126157   4.274   2.023   3.067 -0.5064 -0.7379  0.0077
 8732TIP3    H226158   4.316   1.991   3.209 -0.0470  0.6287  0.1806
 8733TIP3   OH226159   5.422   6.157   1.143 -0.1362  0.0530 -0.5133
 8733TIP3    H126160   5.439   6.122   1.230  0.2532 -1.0515 -1.0285
 8733TIP3    H226161   5.353   6.101   1.108  1.5798 -1.2208 -1.9473
 8734TIP3   OH226162   4.377   6.170   3.010 -0.1097  0.0837  0.1698
 8734TIP3    H126163   4.297   6.166   2.957 -0.4541  0.7382  0.6405
 8734TIP3    H226164   4.429   6.096   2.979  0.3744  1.3634 -2.1939
 8735TIP3   OH226165   1.320   6.716   1.819 -0.7360  0.2625  0.0638
 8735TIP3    H126166   1.226   6.731   1.831 -0.5586  1.3119  0.2649
 8735TIP3    H226167   1.340   6.641   1.875 -1.2586  0.7092  0.8619
 8736TIP3   OH226168   1.360   1.643   5.947 -0.1416  0.1861 -0.1621
 8736TIP3    H126169   1.313   1.590   6.012 -1.7180 -0.2912 -1.6488
 8736TIP3    H226170   1.295   1.706   5.916  1.0656  1.4573 -0.1088
 8737TIP3   OH226171   3.449   3.858   1.072  0.2126  0.2570  0.1601
 8737TIP3    H126172   3.505   3.935   1.077 -0.7927  0.9738  0.3793
 8737TIP3    H226173   3.441   3.840   0.978  0.8484  0.1261  0.1311
 8738TIP3   OH226174   6.247   0.162   2.697 -0.6972  0.1448  1.1304
 8738TIP3    H126175   6.239   0.246   2.651  0.3459 -0.1829  0.3267
 8738TIP3    H226176   6.227   0.183   2.788 -0.6568  1.2315  0.8978
 8739TIP3   OH226177   5.036   5.748   1.067 -0.2448  0.1112 -0.3996
 8739TIP3    H126178   4.942   5.769   1.070 -0.2405 -0.0221  0.6351
 8739TIP3    H226179   5.039   5.659   1.032 -0.6370 -0.7393  1.6724
 8740TIP3   OH226180   2.686   7.303   0.105 -0.2329 -0.0560 -0.7596
 8740TIP3    H126181   2.653   7.366   0.041  0.1732  0.3688 -0.5591
 8740TIP3    H226182   2.648   7.331   0.188  1.0959  0.8213 -0.4145
 8741TIP3   OH226183   4.163   6.360   6.177 -0.3245 -0.3684 -0.5995
 8741TIP3    H126184   4.254   6.335   6.190 -1.1486 -2.8213  0.7077
 8741TIP3    H226185   4.142   6.329   6.088 -0.8327 -2.9065  0.3637
 8742TIP3   OH226186   1.597   2.141   5.928 -0.1319 -0.2991  0.3205
 8742TIP3    H126187   1.678   2.091   5.922  0.7708  0.7889  2.6481
 8742TIP3    H226188   1.581   2.151   6.022 -3.3021 -0.9924 -0.0780
 8743TIP3   OH226189   7.124   0.236   0.925  0.3066 -0.1073 -0.0092
 8743TIP3    H126190   7.174   0.168   0.880 -0.4064 -0.2034 -0.6692
 8743TIP3    H226191   7.062   0.268   0.859  0.9689  1.5324  0.1256
 8744TIP3   OH226192   6.642   6.817   0.286  0.2744  0.1477  0.6882
 8744TIP3    H126193   6.546   6.815   0.292  0.1715 -0.7725 -0.9113
 8744TIP3    H226194   6.667   6.725   0.281  1.0472  0.4409 -1.3071
 8745TIP3   OH226195   5.022   6.399   1.374  0.0680  0.3881  0.5951
 8745TIP3    H126196   4.998   6.476   1.425  0.0115  0.3054  0.6930
 8745TIP3    H226197   5.112   6.415   1.346  0.1394  0.3763  0.8217
 8746TIP3   OH226198   4.229   7.345   1.081  0.1262  0.0099  0.3549
 8746TIP3    H126199   4.289   7.293   1.027 -3.0437 -1.4085 -1.9073
 8746TIP3    H226200   4.189   7.281   1.140 -1.2609  0.4529 -0.1009
 8747TIP3   OH226201   4.826   6.978   3.494  0.0809  0.3859 -0.9737
 8747TIP3    H126202   4.752   6.936   3.449  1.0766 -0.2588 -2.0273
 8747TIP3    H226203   4.893   6.987   3.426  1.4768 -0.2752  0.2921
 8748TIP3   OH226204   0.667   1.258   0.303  0.4714 -0.3341 -0.1959
 8748TIP3    H126205   0.756   1.242   0.334  0.4292  0.6465  0.4407
 8748TIP3    H226206   0.613   1.193   0.348  0.7695 -0.4795 -0.0531
 8749TIP3   OH226207   4.936   4.347   5.371 -0.2392 -0.0426 -0.9799
 8749TIP3    H126208   4.993   4.349   5.294 -0.1637 -1.0560 -0.9588
 8749TIP3    H226209   4.847   4.354   5.336 -0.1180  1.4715 -1.0185
 8750TIP3   OH226210   5.479   1.298   6.160 -0.5375  0.2881 -0.8045
 8750TIP3    H126211   5.428   1.225   6.196 -0.1948  0.1054 -0.6848
 8750TIP3    H226212   5.561   1.296   6.209 -0.4792  0.6788 -0.8892
 8751TIP3   OH226213   5.859   3.113   5.228 -0.0345  0.3167 -0.2310
 8751TIP3    H126214   5.918   3.038   5.235 -2.6222 -1.7793 -0.1595
 8751TIP3    H226215   5.813   3.100   5.145  0.9696  2.9915 -1.2714
 8752TIP3   OH226216   3.595   3.148   5.755  0.2814 -0.8276 -0.1484
 8752TIP3    H126217   3.680   3.166   5.715  0.2391 -0.9832 -0.3092
 8752TIP3    H226218   3.612   3.150   5.849  0.2026  0.4059 -0.1609
 8753TIP3   OH226219   4.370   1.787   5.557 -0.5336 -0.7078  0.1335
 8753TIP3    H126220   4.349   1.805   5.466  0.9372  0.8881  0.0859
 8753TIP3    H226221   4.310   1.843   5.607 -0.6271 -0.8032  0.1274
 8754TIP3   OH226222   6.617   7.071   1.526 -0.1644  0.1403 -1.0131
 8754TIP3    H126223   6.584   6.993   1.482 -3.3509  1.1538 -0.5634
 8754TIP3    H226224   6.561   7.142   1.495  3.0444  2.4306 -1.8999
 8755TIP3   OH226225   1.878   0.575   0.187 -0.3088  0.2455  0.1008
 8755TIP3    H126226   1.925   0.528   0.256 -1.3394 -1.2390 -0.1839
 8755TIP3    H226227   1.837   0.649   0.233 -0.1464 -0.1497  0.9016
 8756TIP3   OH226228   4.457   7.100   1.509  0.6789 -0.8928  0.2982
 8756TIP3    H126229   4.510   7.034   1.465  0.6220 -0.6022 -0.2040
 8756TIP3    H226230   4.392   7.050   1.559  0.6243 -1.2121 -0.0951
 8757TIP3   OH226231   5.547   5.216   0.398 -0.0565  0.3353  0.4422
 8757TIP3    H126232   5.617   5.177   0.345  0.3891 -0.4663  1.6043
 8757TIP3    H226233   5.536   5.304   0.361  0.6782  0.0158 -0.5715
 8758TIP3   OH226234   3.072   2.399   4.687  0.3664 -0.0205 -0.3516
 8758TIP3    H126235   2.987   2.362   4.711 -0.3880  0.4263 -2.2299
 8758TIP3    H226236   3.131   2.324   4.685 -0.4720 -0.6662 -1.1705
 8759TIP3   OH226237   0.044   0.033   0.062 -0.0720 -0.5376  0.1657
 8759TIP3    H126238   0.073   0.091  -0.008  0.2506 -1.4598 -0.4746
 8759TIP3    H226239  -0.050   0.025   0.049  0.1959 -1.8723 -1.0657
 8760TIP3   OH226240   3.542   2.109   5.999 -0.3263  0.4159  0.5351
 8760TIP3    H126241   3.458   2.138   6.035 -0.7468  0.0399 -0.1297
 8760TIP3    H226242   3.544   2.146   5.911  0.1234  0.2665  0.4822
 8761TIP3   OH226243   5.567   5.822   1.536  0.4611  0.2446 -0.9454
 8761TIP3    H126244   5.521   5.861   1.610  0.3974  1.3124 -1.5295
 8761TIP3    H226245   5.558   5.728   1.548  1.1359  0.3942  0.8234
 8762TIP3   OH226246   4.716   3.066   3.442  0.1197 -0.0688 -0.6137
 8762TIP3    H126247   4.707   3.002   3.512  1.1875  0.9183  0.4443
 8762TIP3    H226248   4.735   3.148   3.486 -1.4439  1.0411 -1.9518
 8763TIP3   OH226249   3.713   2.946   6.016 -0.0011 -0.1417 -0.7601
 8763TIP3    H126250   3.695   3.027   6.064  1.4047  1.2256 -2.4834
 8763TIP3    H226251   3.628   2.919   5.981  0.0615  2.6542 -3.2917
 8764TIP3   OH226252   7.560   1.899   0.837  0.2943 -0.0058 -0.5339
 8764TIP3    H126253   7.554   1.994   0.849 -0.1822 -0.2356  1.1823
 8764TIP3    H226254   7.472   1.867   0.859  1.1402 -1.0758  1.4585
 8765TIP3   OH226255   6.210   1.209   5.607  0.0112  0.2957 -0.3489
 8765TIP3    H126256   6.223   1.301   5.584  1.7816  0.5484  1.4437
 8765TIP3    H226257   6.116   1.199   5.616 -0.2216  1.8506 -0.9089
 8766TIP3   OH226258   5.653   0.493   5.525 -0.2031  0.6269 -0.0626
 8766TIP3    H126259   5.666   0.459   5.614 -0.7865  0.5793  0.0094
 8766TIP3    H226260   5.576   0.550   5.533 -0.2576  0.6200 -0.5399
 8767TIP3   OH226261   6.670   7.236   0.459 -0.1737 -0.4267 -0.0888
 8767TIP3    H126262   6.605   7.194   0.516 -0.7362 -0.2603 -0.6111
 8767TIP3    H226263   6.619   7.283   0.394  0.4729 -0.6736 -0.7839
 8768TIP3   OH226264   3.838   2.869   4.268 -0.3517  0.0549  0.1518
 8768TIP3    H126265   3.833   2.851   4.362 -0.3580  0.7017  0.2818
 8768TIP3    H226266   3.796   2.955   4.258  1.1802  0.7810 -0.1999
 8769TIP3   OH226267   6.762   6.568   0.237 -0.0321  0.3274 -0.3913
 8769TIP3    H126268   6.794   6.492   0.286 -1.0176  0.9916  1.3415
 8769TIP3    H226269   6.841   6.617   0.215  0.5454 -0.7858 -0.8234
 8770TIP3   OH226270   3.924   4.027   4.367  0.5709 -0.1436  0.4617
 8770TIP3    H126271   3.928   3.947   4.314  0.3154 -0.4032  0.8308
 8770TIP3    H226272   3.872   4.088   4.315  0.5034 -0.3230  0.3198
 8771TIP3   OH226273   4.377   3.220   4.872  0.5026  0.7199 -0.3112
 8771TIP3    H126274   4.365   3.184   4.961  1.1276 -0.0961 -0.5540
 8771TIP3    H226275   4.471   3.218   4.858  0.3157 -0.2645 -1.4518
 8772TIP3   OH226276   4.356   2.781   4.616 -0.3600  0.0842  0.4331
 8772TIP3    H126277   4.343   2.812   4.705  0.1010  0.1432  0.4764
 8772TIP3    H226278   4.299   2.837   4.563 -1.2293 -0.4507  0.7722
 8773TIP3   OH226279   5.717   6.426   1.755  0.3226 -0.1626 -0.8391
 8773TIP3    H126280   5.649   6.368   1.790 -1.3258  1.7594 -0.7673
 8773TIP3    H226281   5.791   6.413   1.814 -1.5416  1.1036  1.9388
 8774TIP3   OH226282   4.618   4.527   5.068  0.2576  0.2457 -0.5514
 8774TIP3    H126283   4.578   4.614   5.076  1.1738  0.6193  0.1235
 8774TIP3    H226284   4.592   4.496   4.982 -0.2336  1.1156 -0.7200
 8775TIP3   OH226285   4.460   4.727   0.323  0.2577  0.1919 -0.8030
 8775TIP3    H126286   4.389   4.787   0.344 -0.6145 -1.5788  1.4696
 8775TIP3    H226287   4.451   4.655   0.386  2.3075 -1.4864 -2.3412
 8776TIP3   OH226288   0.598   0.085   0.313  0.1997  0.0230  0.9025
 8776TIP3    H126289   0.678   0.109   0.361  1.3546 -2.4054  0.2752
 8776TIP3    H226290   0.601  -0.010   0.309 -0.4945  0.0845 -2.8950
 8777TIP3   OH226291   3.070   2.905   6.092  0.4656 -0.6357  0.2109
 8777TIP3    H126292   2.996   2.844   6.094 -1.2403  1.3800 -0.1117
 8777TIP3    H226293   3.103   2.905   6.181 -0.1735 -1.2402  0.4593
 8778TIP3   OH226294   3.583   3.989   6.315  0.5840  0.1524 -0.5486
 8778TIP3    H126295   3.650   4.018   6.253  3.3401 -1.6201  1.4690
 8778TIP3    H226296   3.627   3.992   6.400 -2.6856  1.2996  1.2034
 8779TIP3   OH226297   2.161   0.279   2.078  0.3786  0.4993 -0.7264
 8779TIP3    H126298   2.155   0.199   2.026  0.9651  0.4741 -0.7659
 8779TIP3    H226299   2.250   0.277   2.114 -0.0807  0.4156  0.4340
 8780TIP3   OH226300   4.014   2.643   4.360  0.1316 -0.0141  0.0173
 8780TIP3    H126301   4.023   2.564   4.413 -1.0869  0.0183  0.3018
 8780TIP3    H226302   3.981   2.709   4.422 -0.0399  0.3774 -0.4887
 8781TIP3   OH226303   5.908   6.534   0.450  0.4655  0.1509 -0.0414
 8781TIP3    H126304   5.944   6.461   0.501  0.0492 -0.1696 -0.2062
 8781TIP3    H226305   5.985   6.574   0.409  0.8424  0.6380  1.1314
 8782TIP3   OH226306   7.526   0.983   0.124  0.2283  0.0705 -0.6845
 8782TIP3    H126307   7.441   0.947   0.100 -1.0794  1.8120  1.1853
 8782TIP3    H226308   7.531   1.065   0.075  0.7710  0.0497 -0.6641
 8783TIP3   OH226309   7.587   0.296   0.327 -0.4692 -0.0572 -0.5396
 8783TIP3    H126310   7.515   0.299   0.264 -0.0951 -2.1449 -1.0985
 8783TIP3    H226311   7.666   0.292   0.274 -0.0642 -0.1213  0.0573
 8784TIP3   OH226312   7.001   2.605   4.761  0.4740 -0.8719 -0.5229
 8784TIP3    H126313   7.086   2.610   4.717 -0.3702 -1.0843 -2.2279
 8784TIP3    H226314   7.022   2.593   4.853  2.3174  1.3177 -0.6217
 8785TIP3   OH226315   3.455   2.685   4.123  0.2869 -0.9375 -0.2703
 8785TIP3    H126316   3.442   2.604   4.173 -0.3486 -0.3002  0.6224
 8785TIP3    H226317   3.416   2.668   4.038 -1.3513 -1.0132  0.4713
 8786TIP3   OH226318   4.913   3.127   5.114 -0.4019  0.3147  0.3844
 8786TIP3    H126319   4.925   3.121   5.019  0.0942  2.2964  0.2947
 8786TIP3    H226320   4.828   3.169   5.125 -0.2942  0.4280  0.8053
 8787TIP3   OH226321   0.620   5.711   5.961 -0.1021 -0.1566  0.1517
 8787TIP3    H126322   0.617   5.629   5.911 -0.1537 -0.2416  0.2918
 8787TIP3    H226323   0.618   5.682   6.053 -0.3249  0.0072  0.1997
 8788TIP3   OH226324   2.502   4.221   6.206 -0.2985 -0.2401 -0.4958
 8788TIP3    H126325   2.437   4.278   6.166 -0.4325  0.3258  0.5083
 8788TIP3    H226326   2.579   4.229   6.149 -0.7034  0.0488 -1.0037
 8789TIP3   OH226327   4.964   3.294   5.693 -0.0553 -0.3187  0.1089
 8789TIP3    H126328   4.972   3.199   5.687  2.8047 -0.0503 -0.6528
 8789TIP3    H226329   4.955   3.323   5.602 -0.6475  0.1852  0.3239
 8790TIP3   OH226330   3.658   3.994   6.006 -0.5096  0.2549 -0.3515
 8790TIP3    H126331   3.659   3.924   5.941 -2.4055 -2.5843  2.5848
 8790TIP3    H226332   3.583   4.048   5.982 -1.1954 -0.7664 -0.5019
 8791TIP3   OH226333   0.074   1.474   0.472 -0.3141 -0.1515  0.3974
 8791TIP3    H126334  -0.008   1.439   0.438 -0.5531  0.6141  0.1707
 8791TIP3    H226335   0.132   1.477   0.397 -0.4069  0.2655  0.3415
 8792TIP3   OH226336   5.541   7.309   1.386  0.3642  0.3215 -0.1910
 8792TIP3    H126337   5.539   7.366   1.462 -0.4444  0.7248 -0.5073
 8792TIP3    H226338   5.523   7.367   1.312  0.4986 -0.1745 -0.6171
 8793TIP3   OH226339   2.905   2.640   3.808  0.3513  0.1404 -0.5503
 8793TIP3    H126340   2.901   2.685   3.723 -0.3061 -0.3462 -0.7854
 8793TIP3    H226341   2.998   2.628   3.825  0.5387  1.8649 -0.3376
 8794TIP3   OH226342   3.753   3.492   5.085 -0.3534 -0.9048 -0.5717
 8794TIP3    H126343   3.744   3.398   5.093  2.5638 -1.0790  1.4024
 8794TIP3    H226344   3.766   3.523   5.175  2.6702  0.8512 -1.5256
 8795TIP3   OH226345   5.084   7.251   1.234 -0.2205  0.0780  0.0441
 8795TIP3    H126346   5.117   7.162   1.232  1.9327  0.8038  1.4567
 8795TIP3    H226347   5.051   7.263   1.323  1.1207  1.2146  0.4160
 8796TIP3   OH226348   5.963   5.310   0.482  0.4750  0.0535  0.0984
 8796TIP3    H126349   5.987   5.254   0.556 -1.3537 -1.9029 -0.7314
 8796TIP3    H226350   5.905   5.375   0.520  2.5350  1.3702  1.0585
 8797TIP3   OH226351   5.908   5.538   1.760  0.3859  0.1675 -0.3168
 8797TIP3    H126352   5.907   5.478   1.834  0.0783  0.8777  0.2620
 8797TIP3    H226353   5.993   5.581   1.764  0.0777  0.7534  0.0781
 8798TIP3   OH226354   5.142   6.973   1.161  0.1767 -0.1453  0.6993
 8798TIP3    H126355   5.156   6.943   1.071 -0.2512  0.0993  0.5501
 8798TIP3    H226356   5.198   6.916   1.214  0.9651  0.1767  0.2122
 8799TIP3   OH226357   4.910   5.849   1.461 -0.1096  0.0995  0.0937
 8799TIP3    H126358   4.849   5.777   1.449  0.3404 -0.0789 -1.2619
 8799TIP3    H226359   4.997   5.808   1.457  0.1133  0.4184  1.4940
 8800TIP3   OH226360   6.009   6.688   0.041  0.0636  0.8538  0.9596
 8800TIP3    H126361   6.034   6.638  -0.037 -0.8443  1.2980  0.3640
 8800TIP3    H226362   6.086   6.741   0.062  1.2198 -1.1817  1.9288
 8801TIP3   OH226363   6.156   6.252   0.193 -0.1958  0.3742  0.0578
 8801TIP3    H126364   6.085   6.307   0.162 -0.6633 -0.6133 -0.6419
 8801TIP3    H226365   6.232   6.311   0.197 -0.5808  0.9668 -1.1162
 8802TIP3   OH226366   7.607   0.437   2.128 -0.4476 -0.0287  0.1910
 8802TIP3    H126367   7.521   0.403   2.105 -0.1999 -0.3517 -0.2756
 8802TIP3    H226368   7.622   0.508   2.065  0.5858 -1.4539 -1.2057
 8803TIP3   OH226369   3.550   2.434   4.675  0.2291  0.0117  0.3834
 8803TIP3    H126370   3.613   2.399   4.612  0.0014  0.2277  0.0273
 8803TIP3    H226371   3.546   2.528   4.654 -2.5054 -0.4723 -1.6824
 8804TIP3   OH226372   6.145   3.775   5.346 -0.5329 -0.0945  0.4288
 8804TIP3    H126373   6.119   3.745   5.434  0.2307  1.2174  1.1159
 8804TIP3    H226374   6.064   3.778   5.296 -0.7825 -2.3236  0.6250
 8805TIP3   OH226375   4.714   6.561   2.392 -0.3392  0.3935 -0.1739
 8805TIP3    H126376   4.620   6.564   2.378 -0.6871  1.3356  2.2411
 8805TIP3    H226377   4.747   6.639   2.347 -0.9835  1.3272  0.9668
 8806TIP3   OH226378   5.617   6.941   1.608 -0.3608  0.3230  0.2282
 8806TIP3    H126379   5.634   6.931   1.702  0.0495 -0.9475  0.0236
 8806TIP3    H226380   5.695   6.906   1.566 -0.7681  0.4089 -0.5975
 8807TIP3   OH226381   4.290   2.949   5.117 -0.2048 -0.0292 -0.4380
 8807TIP3    H126382   4.361   2.891   5.146  0.0470  1.4895  2.1424
 8807TIP3    H226383   4.251   2.981   5.199 -3.1554  0.0536 -1.8127
 8808TIP3   OH226384   4.490   4.442   5.734 -0.1459 -0.5858  0.3515
 8808TIP3    H126385   4.439   4.517   5.703 -0.3552 -0.4380  1.0567
 8808TIP3    H226386   4.464   4.431   5.825  0.9790 -0.5962  0.6789
 8809TIP3   OH226387   5.089   6.344   1.995  0.0209 -0.1925  0.4081
 8809TIP3    H126388   5.151   6.272   1.988  2.4904  2.1214 -2.8335
 8809TIP3    H226389   5.110   6.386   2.079  0.5234 -1.4519  0.9253
 8810TIP3   OH226390   6.970   6.457   1.413 -0.2004 -0.0772 -0.4670
 8810TIP3    H126391   6.962   6.550   1.393 -0.1162 -0.1985 -1.0642
 8810TIP3    H226392   6.904   6.441   1.480 -1.4755  0.0239 -1.6842
 8811TIP3   OH226393   4.807   2.974   4.167  0.1615  0.0925 -0.5885
 8811TIP3    H126394   4.845   2.979   4.254 -1.4044  0.6463  0.0800
 8811TIP3    H226395   4.724   2.927   4.179 -0.2843  0.5735 -1.6800
 8812TIP3   OH226396   4.925   7.034   0.234  0.3676 -0.1603 -0.3242
 8812TIP3    H126397   4.963   6.965   0.180 -0.8281 -0.1122 -1.2578
 8812TIP3    H226398   4.869   7.083   0.173  0.3252  0.9343  0.5824
 8813TIP3   OH226399   3.062   3.186   6.245  0.0805 -0.4841  0.2689
 8813TIP3    H126400   3.140   3.184   6.191  1.3451  0.2113  2.0226
 8813TIP3    H226401   3.066   3.269   6.291 -1.3776 -0.7061  0.8501
 8814TIP3   OH226402   6.406   5.250   0.855  0.1659 -0.4081 -0.1890
 8814TIP3    H126403   6.406   5.183   0.787 -0.3840 -0.1497 -0.4459
 8814TIP3    H226404   6.418   5.202   0.936 -0.4742 -0.8425 -0.3509
 8815TIP3   OH226405   5.522   5.241   1.048  0.6115 -0.4194 -0.0480
 8815TIP3    H126406   5.592   5.271   0.990  0.9989  0.7636  1.0082
 8815TIP3    H226407   5.496   5.156   1.013  2.4441 -0.7713 -0.5659
 8816TIP3   OH226408   4.084   6.104   5.731 -0.0572 -0.0886  0.6048
 8816TIP3    H126409   4.172   6.139   5.716 -0.5752  0.5578 -1.0879
 8816TIP3    H226410   4.097   6.009   5.740  0.7035 -0.1362 -0.7886
 8817TIP3   OH226411   2.240   1.539   5.095 -0.2866 -0.8246  0.0972
 8817TIP3    H126412   2.277   1.527   5.182  1.5155 -3.0582 -0.9190
 8817TIP3    H226413   2.239   1.451   5.057 -2.4675 -0.1199 -1.5871
 8818TIP3   OH226414   2.945   3.402   5.930  0.1286 -0.2668  0.4438
 8818TIP3    H126415   2.982   3.360   5.852 -2.4312 -1.8032  0.0214
 8818TIP3    H226416   2.918   3.329   5.986 -2.7118  0.7973  0.5105
 8819TIP3   OH226417   2.085   3.082   5.958 -0.2090 -0.2640 -0.3067
 8819TIP3    H126418   2.035   3.128   5.890 -0.1403 -1.6344 -1.3105
 8819TIP3    H226419   2.162   3.049   5.913  1.0865  0.9173  1.0089
 8820TIP3   OH226420   6.497   4.325   0.116 -0.0663 -0.0683  0.1700
 8820TIP3    H126421   6.571   4.279   0.077 -1.3229 -1.2793 -0.8236
 8820TIP3    H226422   6.483   4.282   0.200 -0.9813 -1.2673 -0.5803
 8821TIP3   OH226423   5.008   2.108   4.909 -0.2896 -0.2408  0.3720
 8821TIP3    H126424   5.013   2.035   4.971  0.6453 -0.4431  0.0630
 8821TIP3    H226425   5.063   2.176   4.948  1.3289 -0.8310 -0.8519
 8822TIP3   OH226426   2.224   1.954   6.084  0.0310  0.4379  0.0754
 8822TIP3    H126427   2.192   1.945   6.173  0.7485 -0.0990  0.2861
 8822TIP3    H226428   2.318   1.940   6.091  0.2395  1.4199 -0.6125
 8823TIP3   OH226429   5.105   3.551   5.580 -0.5455  0.4273  0.0995
 8823TIP3    H126430   5.176   3.587   5.527 -0.5452 -0.3404 -0.4497
 8823TIP3    H226431   5.055   3.497   5.518 -3.0121  2.8376 -0.0973
 8824TIP3   OH226432   3.753   3.962   5.376 -0.3280 -0.2442 -0.3189
 8824TIP3    H126433   3.728   3.905   5.448 -1.0366 -1.6681 -1.6625
 8824TIP3    H226434   3.687   4.030   5.375 -0.2750 -0.1723  0.4075
 8825TIP3   OH226435   3.773   5.903   1.726 -0.0346  0.2976 -0.4991
 8825TIP3    H126436   3.681   5.923   1.746 -0.1286  2.1885 -2.5983
 8825TIP3    H226437   3.769   5.836   1.658  0.1174  1.0145 -1.2186
 8826TIP3   OH226438   7.324   1.242   1.688 -0.1034  0.1666 -0.1386
 8826TIP3    H126439   7.393   1.264   1.750 -0.6336  0.7631  0.2434
 8826TIP3    H226440   7.363   1.175   1.632  0.6817  0.2813  0.2621
 8827TIP3   OH226441   7.278   5.530   1.178 -0.4971 -0.0654  0.7079
 8827TIP3    H126442   7.208   5.515   1.114  0.3228 -2.3737  0.3038
 8827TIP3    H226443   7.267   5.460   1.242  1.9180 -0.9975  0.1749
 8828TIP3   OH226444   5.245   6.853   0.569  0.3203  0.0400  0.6381
 8828TIP3    H126445   5.330   6.811   0.576  0.2837 -0.2256 -0.3896
 8828TIP3    H226446   5.249   6.926   0.631  0.8881 -0.6271  1.3984
 8829TIP3   OH226447   7.448   7.209   1.232  0.9471  0.4042 -0.1246
 8829TIP3    H126448   7.441   7.120   1.199  0.9691 -0.3011  1.7128
 8829TIP3    H226449   7.518   7.249   1.180  1.1601 -0.7529 -0.7308
 8830TIP3   OH226450   7.738   5.363   1.477  0.0692 -0.0223  0.4621
 8830TIP3    H126451   7.833   5.363   1.489  0.5053  0.9427 -2.4746
 8830TIP3    H226452   7.719   5.448   1.435 -1.9789 -0.4921  0.3845
 8831TIP3   OH226453   7.578   3.943   5.285 -0.2737 -0.4561 -0.6261
 8831TIP3    H126454   7.672   3.962   5.282 -0.0023 -1.6839  0.2135
 8831TIP3    H226455   7.564   3.877   5.217 -0.4623 -0.5872 -0.4606
 8832TIP3   OH226456   1.961   3.203   6.354 -0.2285 -0.0031  0.1731
 8832TIP3    H126457   2.021   3.131   6.373 -0.7765 -0.0418  1.8728
 8832TIP3    H226458   2.019   3.277   6.335  0.3859 -0.0420  1.7985
 8833TIP3   OH226459   6.744   4.863   1.070 -0.9689  0.2079  0.6263
 8833TIP3    H126460   6.702   4.799   1.013 -1.1365  1.8192 -1.1227
 8833TIP3    H226461   6.684   4.938   1.070 -0.5342  0.5783  2.2267
 8834TIP3   OH226462   3.434   6.590   0.690 -0.3289  0.1951 -0.0700
 8834TIP3    H126463   3.490   6.564   0.763 -0.2007 -0.6253 -0.4516
 8834TIP3    H226464   3.345   6.568   0.720 -0.1209 -1.9537 -0.8824
 8835TIP3   OH226465   6.667   5.731   3.008 -0.2354 -0.1564 -0.6534
 8835TIP3    H126466   6.680   5.669   3.080 -0.4337 -0.0104 -0.4902
 8835TIP3    H226467   6.751   5.776   2.999 -0.3665  0.1884 -0.1674
 8836TIP3   OH226468   4.205   7.304   1.601  0.2138 -0.3447  0.3609
 8836TIP3    H126469   4.268   7.348   1.544 -0.0251  0.0778  0.4194
 8836TIP3    H226470   4.123   7.304   1.551 -0.4849  1.7255  1.4510
 8837TIP3   OH226471   4.288   6.628   0.732 -0.1143  0.6045 -0.5633
 8837TIP3    H126472   4.264   6.620   0.824  0.9796  0.6062 -0.2794
 8837TIP3    H226473   4.282   6.722   0.714 -1.2580  0.5092 -0.7589
 8838TIP3   OH226474   5.106   4.183   4.826 -0.5248  0.2064  0.4993
 8838TIP3    H126475   5.171   4.250   4.807 -1.4303  0.8545 -0.4154
 8838TIP3    H226476   5.127   4.111   4.766  0.1424 -0.1168  1.1260
 8839TIP3   OH226477   4.039   2.983   5.464 -0.0164  0.8336  0.3705
 8839TIP3    H126478   3.988   2.914   5.423  0.0226  1.7860 -1.3284
 8839TIP3    H226479   3.975   3.037   5.510 -0.0818 -0.1439  1.4404
 8840TIP3   OH226480   2.030   5.476   6.276 -0.5934 -0.0612 -0.1656
 8840TIP3    H126481   1.969   5.519   6.336 -1.1837  0.0598 -0.8375
 8840TIP3    H226482   2.002   5.385   6.274  0.8680 -0.5595  1.5172
 8841TIP3   OH226483   1.129   1.733   1.168 -0.6082 -0.7498  0.0634
 8841TIP3    H126484   1.076   1.656   1.191 -3.5936  1.9892  2.8457
 8841TIP3    H226485   1.068   1.792   1.123  1.2217  0.7003 -0.5744
 8842TIP3   OH226486   5.093   5.248   1.669  0.4982 -0.1980  0.5068
 8842TIP3    H126487   5.025   5.303   1.631 -0.7945 -2.1393 -0.0201
 8842TIP3    H226488   5.175   5.282   1.631 -0.2851  1.2345  0.0658
 8843TIP3   OH226489   6.022   7.314   1.867 -0.4694  0.3732 -0.1803
 8843TIP3    H126490   5.959   7.374   1.906  0.6282  1.3250  0.1765
 8843TIP3    H226491   5.970   7.256   1.811 -1.9729 -0.6124  2.1891
 8844TIP3   OH226492   4.189   4.718   4.689 -0.5129 -0.1969  0.4593
 8844TIP3    H126493   4.157   4.792   4.740 -0.7651 -0.1632  0.2550
 8844TIP3    H226494   4.269   4.750   4.647 -0.1979 -0.2887  0.9861
 8845TIP3   OH226495   3.986   6.065   0.588  0.1408  0.2080  0.6000
 8845TIP3    H126496   3.971   6.159   0.575  1.1255  0.0387 -2.1796
 8845TIP3    H226497   3.944   6.025   0.512  2.9967 -1.2923 -0.2388
 8846TIP3   OH226498   4.776   6.328   2.918  0.3001 -0.1039 -0.4792
 8846TIP3    H126499   4.814   6.258   2.970 -1.7967 -0.1515  1.0703
 8846TIP3    H226500   4.844   6.395   2.914  1.6788 -1.4823 -0.4994
 8847TIP3   OH226501   5.270   7.098   0.717 -0.1326 -0.2865  0.4315
 8847TIP3    H126502   5.362   7.125   0.707 -0.4881  1.4487  1.6914
 8847TIP3    H226503   5.266   7.057   0.803 -0.7061  0.3379  0.7038
 8848TIP3   OH226504   2.377   1.421   5.316 -0.9264 -0.1935  0.0938
 8848TIP3    H126505   2.436   1.383   5.380 -0.3490  1.0599  0.3176
 8848TIP3    H226506   2.368   1.353   5.249  1.0581 -0.2785 -0.1275
 8849TIP3   OH226507   4.206   6.372   0.952 -0.0003  0.3795 -0.1429
 8849TIP3    H126508   4.210   6.442   1.017  0.4838  3.2726 -3.1326
 8849TIP3    H226509   4.115   6.375   0.920  0.7226  1.4853 -2.1653
 8850TIP3   OH226510   3.494   2.899   5.391 -0.0945 -0.1197  0.3478
 8850TIP3    H126511   3.485   2.888   5.296 -1.2839 -0.2096  0.4693
 8850TIP3    H226512   3.429   2.840   5.429  1.1175 -0.8835  1.2565
 8851TIP3   OH226513   7.802   4.708   2.805  0.3468  0.0364  0.3452
 8851TIP3    H126514   7.765   4.657   2.877 -2.8109 -0.2968 -1.4354
 8851TIP3    H226515   7.727   4.732   2.751  2.4341  1.7783 -1.9187
 8852TIP3   OH226516   0.357   2.076   4.620  0.5376  0.3012 -0.0722
 8852TIP3    H126517   0.302   2.052   4.546  3.4745  0.1500 -2.3136
 8852TIP3    H226518   0.375   1.994   4.665  1.1636 -0.0660 -0.9723
 8853TIP3   OH226519   4.335   4.640   1.275  0.3927 -0.1773  0.3122
 8853TIP3    H126520   4.366   4.610   1.190 -1.9813 -2.6193  0.2157
 8853TIP3    H226521   4.369   4.576   1.337  1.3065  1.0432  1.0824
 8854TIP3   OH226522   2.677   2.093   4.007  0.3282  0.0567  0.3153
 8854TIP3    H126523   2.668   2.170   3.950  2.8241 -0.2007 -0.4802
 8854TIP3    H226524   2.604   2.037   3.981  0.4121  0.7061 -1.4454
 8855TIP3   OH226525   2.787   4.815   4.948 -0.8693 -0.5252  0.4730
 8855TIP3    H126526   2.702   4.781   4.922 -0.8330 -0.7911  0.6918
 8855TIP3    H226527   2.824   4.854   4.869 -2.6055  2.5903  1.1343
 8856TIP3   OH226528   3.982   2.408   5.089 -0.0176  0.0146  0.2057
 8856TIP3    H126529   3.924   2.404   5.012 -0.9561  0.7058  0.8591
 8856TIP3    H226530   4.006   2.317   5.105 -0.1723 -0.1849 -0.6437
 8857TIP3   OH226531   0.144   0.642   0.768  0.3044  0.2204 -0.5862
 8857TIP3    H126532   0.173   0.699   0.697  1.3809  0.3645 -0.0379
 8857TIP3    H226533   0.089   0.697   0.822  1.1925  0.7030 -0.1600
 8858TIP3   OH226534   4.441   3.837   5.902 -0.3571  0.4371 -0.3884
 8858TIP3    H126535   4.509   3.904   5.912  0.0787  0.0082 -0.4862
 8858TIP3    H226536   4.427   3.831   5.807 -1.5972  1.5942 -0.2838
 8859TIP3   OH226537   0.853   1.275   1.830  0.3222  0.3203  0.3195
 8859TIP3    H126538   0.760   1.269   1.810 -0.2461 -0.2291  2.9582
 8859TIP3    H226539   0.889   1.190   1.803 -0.1916  0.0219  0.5752
 8860TIP3   OH226540   7.470   4.256   1.251  0.2000 -0.1137  0.0835
 8860TIP3    H126541   7.490   4.218   1.165 -0.1786  0.8346 -0.4416
 8860TIP3    H226542   7.463   4.350   1.234  0.4420  0.1139  1.2228
 8861TIP3   OH226543   6.258   0.809   1.066  0.4640 -0.4404  0.2563
 8861TIP3    H126544   6.348   0.834   1.087  0.8371 -1.4645 -0.1399
 8861TIP3    H226545   6.265   0.722   1.029 -0.7042 -0.5511  0.2882
 8862TIP3   OH226546   7.162   1.336   2.079 -0.1456 -0.1062  0.4984
 8862TIP3    H126547   7.159   1.365   1.988 -0.0168 -1.9412 -0.1240
 8862TIP3    H226548   7.070   1.334   2.107 -0.1895  0.4041  0.3919
 8863TIP3   OH226549   1.951   1.604   2.297 -0.2313  0.3764 -0.2928
 8863TIP3    H126550   1.935   1.535   2.361  0.7780 -0.2411 -0.6870
 8863TIP3    H226551   2.047   1.611   2.292 -0.3314  2.8117  0.7882
 8864TIP3   OH226552   2.464   3.443   3.994  0.1378 -0.1277 -0.5798
 8864TIP3    H126553   2.455   3.404   4.081 -1.2467  0.1779 -0.5731
 8864TIP3    H226554   2.487   3.534   4.012  0.6807 -0.2710 -0.5481
 8865TIP3   OH226555   7.149   7.020   0.512 -0.5739 -0.1071 -0.6132
 8865TIP3    H126556   7.101   6.971   0.579  0.0026  2.3204  1.6982
 8865TIP3    H226557   7.084   7.078   0.474 -0.1037  1.2704  0.6282
 8866TIP3   OH226558   5.592   2.873   5.390 -0.7423 -0.3017  0.4323
 8866TIP3    H126559   5.552   2.928   5.323 -1.3998  0.0756  1.1236
 8866TIP3    H226560   5.657   2.930   5.432 -0.5478 -0.4387  0.3130
 8867TIP3   OH226561   2.981   2.799   5.295 -0.1293  0.4796 -0.1723
 8867TIP3    H126562   3.027   2.843   5.367 -1.3992  1.5941 -0.0189
 8867TIP3    H226563   2.919   2.740   5.338  1.3155 -1.2260 -0.3791
 8868TIP3   OH226564   6.580   6.616   0.754 -0.1401  0.3367 -0.3728
 8868TIP3    H126565   6.545   6.528   0.768  0.5778 -0.0542 -1.0155
 8868TIP3    H226566   6.550   6.667   0.830  0.6728 -0.8240  0.7448
 8869TIP3   OH226567   7.254   6.857   1.317  0.0428  0.0458  0.1342
 8869TIP3    H126568   7.221   6.894   1.399 -0.1218 -1.2584  0.6634
 8869TIP3    H226569   7.346   6.838   1.335  0.1694  0.3534 -0.1900
 8870TIP3   OH226570   0.955   0.319   0.236 -0.1980  0.2982  0.1029
 8870TIP3    H126571   0.985   0.394   0.287  0.7815  0.3496 -0.5284
 8870TIP3    H226572   0.934   0.252   0.300 -1.3229  1.1912  0.6901
 8871TIP3   OH226573   1.547   1.529   4.498 -0.4585 -0.1981  0.3162
 8871TIP3    H126574   1.563   1.615   4.536 -2.1000 -0.1376  0.8927
 8871TIP3    H226575   1.501   1.547   4.416 -2.4868 -0.5921  1.3521
 8872TIP3   OH226576   6.611   6.213   2.731 -0.6634 -0.0776  0.4668
 8872TIP3    H126577   6.698   6.193   2.697 -0.2825  2.3892 -0.0980
 8872TIP3    H226578   6.573   6.127   2.753  2.0478 -1.1494  1.1459
 8873TIP3   OH226579   2.532   1.718   4.009 -0.1481 -0.3006  0.0903
 8873TIP3    H126580   2.489   1.720   4.094 -0.3196 -0.6207  0.0130
 8873TIP3    H226581   2.491   1.645   3.963 -0.9930  0.6907 -0.7627
 8874TIP3   OH226582   4.472   4.112   6.313 -0.6258  0.4866  0.2865
 8874TIP3    H126583   4.498   4.162   6.391 -1.5187  1.4690 -0.0312
 8874TIP3    H226584   4.554   4.096   6.267  0.1170 -1.4270  2.1826
 8875TIP3   OH226585   3.452   1.533   3.820  0.0507 -0.0652  0.0777
 8875TIP3    H126586   3.475   1.598   3.753 -1.9364  0.7201  0.1375
 8875TIP3    H226587   3.382   1.574   3.870  0.8671 -1.0434  2.0618
 8876TIP3   OH226588   5.096   4.715   0.135 -0.7965  0.6159 -0.8698
 8876TIP3    H126589   5.124   4.788   0.080 -1.0042  1.5626  0.2596
 8876TIP3    H226590   5.107   4.747   0.225  2.3125 -1.9598 -0.2795
 8877TIP3   OH226591   6.153   7.273   0.988  0.3920  0.3130 -0.1680
 8877TIP3    H126592   6.219   7.222   1.034 -1.8161 -1.1123  1.5700
 8877TIP3    H226593   6.132   7.220   0.911  1.0221  0.5871 -0.5259
 8878TIP3   OH226594   3.529   6.848   1.333  0.0779  0.1735 -0.0114
 8878TIP3    H126595   3.585   6.921   1.305  1.1414 -0.9177 -0.7974
 8878TIP3    H226596   3.549   6.838   1.426  0.7483  0.1850 -0.1449
 8879TIP3   OH226597   7.675   5.978   1.933 -0.0352 -0.3199  1.0447
 8879TIP3    H126598   7.586   6.013   1.943 -0.2699 -0.1307 -1.4124
 8879TIP3    H226599   7.664   5.884   1.928 -0.1898 -0.2596  0.0863
 8880TIP3   OH226600   5.329   7.030   0.371  0.3341 -0.1368 -0.0492
 8880TIP3    H126601   5.370   6.991   0.294 -1.1935 -0.3362 -0.7856
 8880TIP3    H226602   5.286   6.956   0.414  0.9241  0.0277  0.8333
 8881TIP3   OH226603   6.919   6.658   1.059 -0.0764  0.5320 -0.2187
 8881TIP3    H126604   6.878   6.632   0.977  0.4966 -1.3969  0.0873
 8881TIP3    H226605   6.986   6.722   1.033 -1.2861  1.5077 -1.0086
 8882TIP3   OH226606   0.522   1.883   0.308 -0.0597  0.0786 -0.4667
 8882TIP3    H126607   0.524   1.873   0.404  0.9258 -2.2490 -0.6984
 8882TIP3    H226608   0.445   1.834   0.280  1.0186 -1.2967 -1.0627
 8883TIP3   OH226609   3.400   4.295   4.852 -0.5560 -0.0453  0.3148
 8883TIP3    H126610   3.339   4.251   4.792 -1.5905 -0.7950  1.8874
 8883TIP3    H226611   3.373   4.387   4.851 -1.2327 -0.2403  0.4257
 8884TIP3   OH226612   4.440   6.852   0.377 -0.3859  0.0280 -0.4122
 8884TIP3    H126613   4.435   6.916   0.306  1.4413  1.5210  0.7676
 8884TIP3    H226614   4.512   6.795   0.352 -1.2815 -0.9104 -0.9005
 8885TIP3   OH226615   4.037   3.862   6.082 -0.5043  0.2894  0.6122
 8885TIP3    H126616   3.976   3.789   6.073  2.2769 -2.0138 -0.5478
 8885TIP3    H226617   4.105   3.829   6.142  1.0273  1.7353 -0.2794
 8886TIP3   OH226618   2.548   3.292   4.943  0.2346 -0.4256 -0.2194
 8886TIP3    H126619   2.471   3.306   4.888  1.0554 -0.7075 -1.4558
 8886TIP3    H226620   2.532   3.208   4.985  0.1085 -0.7367 -0.8852
 8887TIP3   OH226621   5.142   6.548   5.488 -0.1936  0.1237  0.1099
 8887TIP3    H126622   5.127   6.459   5.520 -0.5691 -0.3582 -1.3799
 8887TIP3    H226623   5.237   6.556   5.485 -0.1433  0.3790  1.8698
 8888TIP3   OH226624   7.673   7.059   0.262 -0.2952 -0.0781 -0.1545
 8888TIP3    H126625   7.665   7.141   0.214 -0.0410  0.4359  0.6564
 8888TIP3    H226626   7.669   7.085   0.354 -0.6204 -1.0234  0.1039
 8889TIP3   OH226627   5.684   5.233   1.452  0.1851  0.0769  0.3688
 8889TIP3    H126628   5.594   5.230   1.485  0.0210  0.2304 -0.0561
 8889TIP3    H226629   5.681   5.298   1.382  1.4664  2.8439  2.7927
 8890TIP3   OH226630   7.467   0.586   0.114 -0.0508  0.5523  0.2227
 8890TIP3    H126631   7.426   0.506   0.147 -0.8729  1.0009  0.3080
 8890TIP3    H226632   7.530   0.555   0.049 -3.0644  0.0001 -2.5883
 8891TIP3   OH226633   6.704   7.291   0.110 -0.4272  0.3736  0.1326
 8891TIP3    H126634   6.645   7.331   0.175 -1.7173 -1.8478  0.3846
 8891TIP3    H226635   6.719   7.203   0.143  1.1560  0.1235 -1.1880
 8892TIP3   OH226636   5.183   3.666   4.906 -0.1567  0.3829  0.0376
 8892TIP3    H126637   5.154   3.649   4.816  3.4765  3.0348 -1.7842
 8892TIP3    H226638   5.110   3.712   4.947 -2.2598 -1.7486 -1.1848
 8893TIP3   OH226639   1.317   2.573   1.541 -0.5838 -0.6780  0.1322
 8893TIP3    H126640   1.378   2.500   1.533  0.7272  0.3477  0.5186
 8893TIP3    H226641   1.232   2.532   1.553  0.2079 -2.1363  0.9280
 8894TIP3   OH226642   3.511   1.637   5.235 -0.5103 -0.0988  0.3005
 8894TIP3    H126643   3.601   1.604   5.224 -0.1702  0.7281  0.5859
 8894TIP3    H226644   3.515   1.728   5.208 -1.2994 -0.0921  0.1982
 8895TIP3   OH226645   3.863   3.133   4.698  0.2510  0.0371 -0.2730
 8895TIP3    H126646   3.956   3.153   4.697  0.1115  0.6749 -0.8043
 8895TIP3    H226647   3.823   3.211   4.738 -0.0737 -0.1501 -0.2331
 8896TIP3   OH226648   3.297   3.146   5.297  0.0364 -0.0081 -0.4643
 8896TIP3    H126649   3.340   3.117   5.377  0.0781 -0.5685 -0.6898
 8896TIP3    H226650   3.204   3.155   5.321 -0.0725 -0.9096 -0.5574
 8897TIP3   OH226651   2.468   5.010   5.933  0.0018 -0.1775  0.5600
 8897TIP3    H126652   2.539   5.074   5.922 -1.3096  1.1181 -0.6831
 8897TIP3    H226653   2.442   4.988   5.844 -0.7616 -1.0807  1.0053
 8898TIP3   OH226654   3.845   4.050   6.192  0.6793 -0.3238  0.3030
 8898TIP3    H126655   3.783   4.047   6.119  1.6512  1.0197 -0.5899
 8898TIP3    H226656   3.927   4.017   6.155  0.7496 -1.2225  1.2417
 8899TIP3   OH226657   5.269   6.377   0.310  0.3768 -0.4554  0.2261
 8899TIP3    H126658   5.187   6.351   0.352  0.8210 -1.4014  0.5260
 8899TIP3    H226659   5.337   6.340   0.366  1.0259  1.2586  0.5858
 8900TIP3   OH226660   4.615   5.797   0.056  0.1035  0.0046 -0.2350
 8900TIP3    H126661   4.573   5.811   0.141 -1.9071 -0.6095 -1.1094
 8900TIP3    H226662   4.690   5.741   0.076 -0.6025 -0.5020  1.0744
 8901TIP3   OH226663   3.879   2.563   4.716 -0.0044 -0.1682  0.1404
 8901TIP3    H126664   3.889   2.639   4.774 -0.2620  0.1136 -0.1841
 8901TIP3    H226665   3.802   2.583   4.663  0.3173 -0.3622 -0.4042
 8902TIP3   OH226666   2.838   3.646   6.027 -0.3751  0.4832 -0.0856
 8902TIP3    H126667   2.893   3.679   6.098 -1.6052 -2.1204  2.1535
 8902TIP3    H226668   2.883   3.568   5.995 -0.8095  0.5567 -0.8927
 8903TIP3   OH226669   4.435   3.681   4.607  0.6035  0.0104  0.3087
 8903TIP3    H126670   4.509   3.683   4.667  2.5047  0.1072 -1.9811
 8903TIP3    H226671   4.464   3.730   4.531 -2.3152  1.2007 -0.1245
 8904TIP3   OH226672   2.977   0.799   5.576 -0.0806  0.0037  0.4173
 8904TIP3    H126673   3.055   0.843   5.611 -1.4340  2.1307  0.8607
 8904TIP3    H226674   2.952   0.852   5.499 -0.0706 -1.6862 -0.7686
 8905TIP3   OH226675   4.914   2.066   3.771  0.3772  0.5180 -0.1642
 8905TIP3    H126676   4.848   2.081   3.839  0.8869  0.3598  0.3807
 8905TIP3    H226677   4.956   2.151   3.760 -0.9861  1.0078 -1.6717
 8906TIP3   OH226678   6.538   5.731   3.319 -0.7096 -0.6445 -0.2032
 8906TIP3    H126679   6.456   5.688   3.298 -0.5789 -0.3480 -1.3446
 8906TIP3    H226680   6.605   5.680   3.273 -0.1950 -1.1741  1.1099
 8907TIP3   OH226681   5.455   5.876   2.308  0.2847 -0.0792 -0.2011
 8907TIP3    H126682   5.475   5.840   2.222 -0.3202  0.1287 -0.4269
 8907TIP3    H226683   5.457   5.800   2.366 -1.1335 -0.5274 -0.7026
 8908TIP3   OH226684   5.413   1.591   5.774 -0.1330  0.1497 -0.0468
 8908TIP3    H126685   5.438   1.677   5.809 -0.1845 -0.3999  1.4012
 8908TIP3    H226686   5.318   1.596   5.764 -0.2607 -0.0609  0.9833
 8909TIP3   OH226687   6.394   6.617   0.178 -0.2822  0.4039 -0.4500
 8909TIP3    H126688   6.373   6.688   0.118  1.2838  1.7105  0.5218
 8909TIP3    H226689   6.457   6.562   0.130 -0.9378  0.0721 -0.9289
 8910TIP3   OH226690   1.817   2.851   5.798 -0.2179 -0.4983  0.0238
 8910TIP3    H126691   1.895   2.881   5.750 -0.4553 -1.2076 -0.8135
 8910TIP3    H226692   1.760   2.927   5.802  0.2335 -0.1594  0.0523
 8911TIP3   OH226693   0.564   1.029   0.426 -0.9499 -0.3291  0.2800
 8911TIP3    H126694   0.615   0.948   0.427  1.4607  1.1419  0.9360
 8911TIP3    H226695   0.498   1.016   0.494  0.7245 -0.9802  1.8498
 8912TIP3   OH226696   2.231   2.220   5.521  0.1546 -0.4148  0.1712
 8912TIP3    H126697   2.254   2.304   5.481 -1.1874 -0.7683 -1.3866
 8912TIP3    H226698   2.145   2.235   5.560  0.5975 -0.6447  1.2800
 8913TIP3   OH226699   0.049   0.689   2.090 -0.4217  0.2241  0.2037
 8913TIP3    H126700   0.014   0.778   2.078  0.2111  0.4235 -0.1851
 8913TIP3    H226701   0.031   0.668   2.182  0.2610  1.1212  0.5483
 8914TIP3   OH226702   1.248   2.242   2.695 -0.0251  0.2915  0.4585
 8914TIP3    H126703   1.243   2.211   2.785 -0.5112 -1.1132 -0.0382
 8914TIP3    H226704   1.200   2.324   2.695 -1.0773 -0.3159  1.2285
 8915TIP3   OH226705   3.440   4.080   5.038 -0.4575  0.1135  0.2397
 8915TIP3    H126706   3.523   4.041   5.011  0.7375  1.3758  1.9497
 8915TIP3    H226707   3.434   4.161   4.986  0.2217  0.8722  1.3296
 8916TIP3   OH226708   1.345   3.901   6.231 -0.6786  0.1106 -0.1974
 8916TIP3    H126709   1.350   3.908   6.327 -2.7049  2.3412 -0.1882
 8916TIP3    H226710   1.355   3.808   6.213 -1.2514 -0.4754  2.2908
 8917TIP3   OH226711   4.815   7.243   1.754 -0.4778 -0.2902 -0.4398
 8917TIP3    H126712   4.785   7.155   1.774 -2.4442  0.7749  1.6172
 8917TIP3    H226713   4.763   7.270   1.678  0.5987 -1.1326 -1.4770
 8918TIP3   OH226714   7.081   0.991   1.307  0.1041 -0.3289 -0.1123
 8918TIP3    H126715   6.995   0.956   1.284  0.2635  0.6844 -2.3193
 8918TIP3    H226716   7.064   1.041   1.387 -1.6894  1.0761 -1.3162
 8919TIP3   OH226717   4.287   3.063   5.376 -0.2916 -0.3963 -0.5948
 8919TIP3    H126718   4.359   3.065   5.439  0.6195 -0.2586 -1.6197
 8919TIP3    H226719   4.214   3.024   5.424  0.0835  0.6525  0.8399
 8920TIP3   OH226720   0.357   0.577   0.946 -0.2258 -0.2618  0.7159
 8920TIP3    H126721   0.431   0.628   0.913 -0.2598  0.2674  1.4450
 8920TIP3    H226722   0.287   0.592   0.882  0.2849 -0.7178  0.0581
 8921TIP3   OH226723   6.967   0.623   1.150 -0.0947 -0.3622  0.2788
 8921TIP3    H126724   7.031   0.569   1.102  0.0935 -1.9553  2.2781
 8921TIP3    H226725   6.989   0.610   1.242 -0.4644  2.6600  0.8466
 8922TIP3   OH226726   1.992   3.601   6.241  0.1810 -0.2688 -0.3946
 8922TIP3    H126727   1.938   3.677   6.216  1.2357  0.3155 -0.9518
 8922TIP3    H226728   1.970   3.585   6.332 -2.2169 -1.1177 -1.0871
 8923TIP3   OH226729   4.481   6.315   0.487 -0.2350 -0.2974  0.4206
 8923TIP3    H126730   4.437   6.397   0.465 -0.1442 -0.7478 -1.4837
 8923TIP3    H226731   4.419   6.268   0.542 -0.8350  0.4460  0.3782
 8924TIP3   OH226732   5.882   5.204   1.171  0.7113  1.0861 -0.6926
 8924TIP3    H126733   5.946   5.243   1.112 -0.0567  3.3647 -0.0919
 8924TIP3    H226734   5.814   5.270   1.179  0.3185  0.4161  1.9474
 8925TIP3   OH226735   4.897   6.424   0.370 -0.1408  0.5025 -0.7404
 8925TIP3    H126736   4.833   6.448   0.303 -0.2111 -0.3540 -0.9835
 8925TIP3    H226737   4.849   6.368   0.430  0.0393  0.9204 -0.2069
 8926TIP3   OH226738   7.232   6.554   0.747 -0.0190  0.2406  0.6115
 8926TIP3    H126739   7.290   6.610   0.799  0.1475  1.1574 -0.5500
 8926TIP3    H226740   7.167   6.614   0.710  1.7010  0.1439 -2.7996
 8927TIP3   OH226741   3.446   4.031   4.584 -0.3589 -0.0520 -0.3217
 8927TIP3    H126742   3.542   4.033   4.582 -0.3242 -0.9138  0.0794
 8927TIP3    H226743   3.425   3.987   4.666 -1.1133  0.7766 -0.0682
 8928TIP3   OH226744   3.024   3.814   6.161  0.2092  0.1589 -0.0915
 8928TIP3    H126745   3.104   3.866   6.165  1.8743 -2.0997 -2.2999
 8928TIP3    H226746   3.046   3.733   6.207 -0.9815 -0.2449 -0.2307
 8929TIP3   OH226747   3.182   1.915   4.205 -0.5173  0.2777 -0.0614
 8929TIP3    H126748   3.254   1.935   4.145 -0.7224  0.4174 -0.2586
 8929TIP3    H226749   3.123   1.990   4.198 -2.0214 -1.0407 -1.8914
 8930TIP3   OH226750   3.586   4.210   2.481 -0.3577  0.1026 -0.3620
 8930TIP3    H126751   3.582   4.297   2.442 -2.6935  0.4680  0.6130
 8930TIP3    H226752   3.548   4.152   2.416  1.2677 -0.2263 -1.0424
 8931TIP3   OH226753   2.722   0.867   6.266 -0.1003  0.4918 -0.3595
 8931TIP3    H126754   2.702   0.892   6.175  0.3312  1.2286 -0.2545
 8931TIP3    H226755   2.638   0.876   6.312  0.0415  1.7484 -0.3311
 8932TIP3   OH226756   1.966   6.851   1.837  0.2665  0.1400  0.0169
 8932TIP3    H126757   2.004   6.794   1.904 -0.4710 -0.1704  0.1763
 8932TIP3    H226758   2.042   6.888   1.791  0.7429 -1.2142 -0.2960
 8933TIP3   OH226759   2.203   2.550   4.991  0.2561 -0.1946 -0.2575
 8933TIP3    H126760   2.224   2.644   4.988  3.2153 -0.7818  0.2329
 8933TIP3    H226761   2.107   2.547   4.996  0.1045  2.7908 -0.3117
 8934TIP3   OH226762   2.643   1.455   6.091  0.0299  0.4124  0.1956
 8934TIP3    H126763   2.651   1.435   5.998 -1.9280  2.2080 -0.3908
 8934TIP3    H226764   2.713   1.519   6.108  0.4503  0.0102 -0.0003
 8935TIP3   OH226765   3.834   6.911   0.423 -0.3085 -0.4155 -0.9395
 8935TIP3    H126766   3.786   6.921   0.341 -1.0048  0.3320 -0.4470
 8935TIP3    H226767   3.778   6.854   0.476  0.4500 -1.4341 -1.2223
 8936TIP3   OH226768   2.671   1.182   3.182  0.3305  0.0121  0.0244
 8936TIP3    H126769   2.727   1.133   3.242 -0.1727 -0.4600  0.1088
 8936TIP3    H226770   2.585   1.140   3.189  0.0005  0.6456 -0.2110
 8937TIP3   OH226771   0.926   0.641   0.138  0.1123 -0.1268  0.2458
 8937TIP3    H126772   0.962   0.553   0.128 -3.0056 -1.3273 -1.1076
 8937TIP3    H226773   0.972   0.678   0.213  0.8355 -3.2457  1.3829
 8938TIP3   OH226774   3.282   4.063   4.370  0.2161 -0.4570 -0.4113
 8938TIP3    H126775   3.355   4.041   4.428 -0.2460 -2.5280 -0.6058
 8938TIP3    H226776   3.293   4.157   4.354  1.4149 -0.2201  1.5419
 8939TIP3   OH226777   4.679   3.461   5.008  0.4491  0.1281 -0.0593
 8939TIP3    H126778   4.652   3.369   5.002 -0.5267  0.3046  1.3204
 8939TIP3    H226779   4.713   3.470   5.097 -0.5650  1.3765  0.2208
 8940TIP3   OH226780   3.864   4.453   5.802  0.2546  0.1056  0.0953
 8940TIP3    H126781   3.792   4.423   5.747 -0.6671 -0.1090  1.3913
 8940TIP3    H226782   3.928   4.489   5.741 -0.9245  0.2316 -1.0756
 8941TIP3   OH226783   4.615   1.672   6.114  0.3896  0.1119 -0.0932
 8941TIP3    H126784   4.631   1.753   6.065 -2.1347 -0.2068 -1.5008
 8941TIP3    H226785   4.637   1.602   6.053  1.3609 -0.2955  0.7098
 8942TIP3   OH226786   6.882   2.935   6.272  0.3268 -0.3002 -0.2899
 8942TIP3    H126787   6.836   2.961   6.192  0.4028  1.1625  0.1308
 8942TIP3    H226788   6.964   2.982   6.269 -0.0665  0.5088  1.1172
 8943TIP3   OH226789   5.158   3.360   5.247  0.1231  0.1248 -0.3039
 8943TIP3    H126790   5.065   3.365   5.269 -0.2847 -1.0360 -1.6868
 8943TIP3    H226791   5.201   3.333   5.329 -0.9723 -0.9800 -0.0837
 8944TIP3   OH226792   6.071   7.030   0.055  0.0449 -0.0976  0.3999
 8944TIP3    H126793   6.115   6.946   0.046  1.6889  0.9644 -1.9219
 8944TIP3    H226794   6.139   7.090   0.087 -0.6523  0.7606  0.3031
 8945TIP3   OH226795   6.836   6.251   0.073 -0.2432  0.1611  0.4959
 8945TIP3    H126796   6.885   6.172   0.092  1.2809  0.6351 -1.2711
 8945TIP3    H226797   6.847   6.264  -0.021  1.0516  3.4314  1.0291
 8946TIP3   OH226798   0.702   0.790   0.496  0.3291 -0.1412  0.3961
 8946TIP3    H126799   0.646   0.718   0.467 -0.5377  0.2333  1.0954
 8946TIP3    H226800   0.748   0.755   0.573 -0.6816  0.2895  1.2142
 8947TIP3   OH226801   4.111   3.232   5.172  0.3308  0.3078 -0.2362
 8947TIP3    H126802   4.162   3.154   5.194  1.1697  1.2586  1.2387
 8947TIP3    H226803   4.096   3.275   5.256 -1.3723  0.9885 -0.8764
 8948TIP3   OH226804   5.290   0.163   5.191 -0.3554 -0.4101 -0.7083
 8948TIP3    H126805   5.341   0.236   5.157  0.0956 -0.6130 -0.4757
 8948TIP3    H226806   5.224   0.204   5.246  1.0468 -0.2669  0.9150
 8949TIP3   OH226807   2.939   3.253   4.973 -0.6101 -0.8008 -0.3570
 8949TIP3    H126808   2.927   3.252   4.879 -0.9516 -0.2491 -0.3180
 8949TIP3    H226809   3.027   3.289   4.987 -0.9844  0.1321 -0.4169
 8950TIP3   OH226810   5.402   3.525   5.185 -0.1159  0.2549 -0.4229
 8950TIP3    H126811   5.328   3.473   5.217 -0.3840  1.0639  0.2722
 8950TIP3    H226812   5.455   3.542   5.263  0.5572  0.0912 -0.8355
 8951TIP3   OH226813   6.311   3.588   4.420 -0.6503 -0.2901 -0.1624
 8951TIP3    H126814   6.277   3.604   4.509 -1.4012 -0.7906 -0.3526
 8951TIP3    H226815   6.358   3.668   4.398 -0.4738 -0.1494  0.6809
 8952TIP3   OH226816   4.527   2.392   3.730 -0.4908  0.8512 -0.4540
 8952TIP3    H126817   4.489   2.320   3.781  1.2064  0.4837  0.3216
 8952TIP3    H226818   4.535   2.356   3.641  3.0031 -1.0273  0.4963
 8953TIP3   OH226819   4.624   2.858   3.617  0.3509 -0.0098  0.4632
 8953TIP3    H126820   4.591   2.768   3.619 -0.6215  0.3448  0.8860
 8953TIP3    H226821   4.620   2.886   3.709 -0.8570  0.9913  0.1194
 8954TIP3   OH226822   7.600   4.540   1.658  0.2769  0.7437 -0.3757
 8954TIP3    H126823   7.585   4.478   1.729  1.3806  1.1798  0.2531
 8954TIP3    H226824   7.653   4.491   1.594  0.5810  0.8262 -0.1883
 8955TIP3   OH226825   4.549   2.132   3.380  0.0345  0.1619  0.0301
 8955TIP3    H126826   4.526   2.090   3.463 -0.2223 -0.5601 -0.4009
 8955TIP3    H226827   4.632   2.092   3.355 -0.7302 -0.8850 -0.9065
 8956TIP3   OH226828   1.681   6.249   0.708 -0.8356  0.0772 -0.0604
 8956TIP3    H126829   1.626   6.211   0.640  0.3766  1.1006 -1.6527
 8956TIP3    H226830   1.695   6.340   0.681  1.3229 -0.0583  0.4719
 8957TIP3   OH226831   3.237   1.673   6.060 -0.2976 -0.3126 -0.1385
 8957TIP3    H126832   3.328   1.667   6.033 -0.4637 -0.3790 -0.6881
 8957TIP3    H226833   3.189   1.692   5.979 -0.8631 -1.0610  0.0201
 8958TIP3   OH226834   5.447   4.049   4.951  0.0168 -0.6964 -0.0900
 8958TIP3    H126835   5.512   4.013   5.011  0.6523  0.6114  0.0321
 8958TIP3    H226836   5.477   4.024   4.864 -0.9461 -2.6622  0.1132
 8959TIP3   OH226837   4.333   0.161   0.889  0.6317  0.0067 -0.0577
 8959TIP3    H126838   4.358   0.100   0.819 -1.4711 -1.1142  0.1466
 8959TIP3    H226839   4.262   0.117   0.936  1.1039  1.3317  1.9665
 8960TIP3   OH226840   7.704   7.289   1.041  0.0864  0.3526  0.7393
 8960TIP3    H126841   7.777   7.248   0.996 -1.4690 -1.5346 -0.1480
 8960TIP3    H226842   7.649   7.323   0.970 -1.5459 -1.1641  1.2456
 8961TIP3   OH226843   3.470   1.559   5.943  0.3288 -0.3421 -0.5173
 8961TIP3    H126844   3.444   1.524   6.028 -0.8730  0.4575 -0.5345
 8961TIP3    H226845   3.553   1.604   5.960 -0.0521  0.0624  0.2999
 8962TIP3   OH226846   5.050   4.013   5.906  0.3734  0.1897 -0.0232
 8962TIP3    H126847   5.140   4.033   5.880  0.7943  0.9890  1.9810
 8962TIP3    H226848   5.053   3.922   5.934  0.5154  0.1741 -0.0879
 8963TIP3   OH226849   5.768   7.279   1.095  0.0659  0.0020  0.5876
 8963TIP3    H126850   5.691   7.334   1.112 -0.9783 -0.5509 -2.0942
 8963TIP3    H226851   5.841   7.341   1.087 -0.8523  0.9133 -0.9673
 8964TIP3   OH226852   6.800   5.391   0.042  0.2533 -0.2558 -0.0052
 8964TIP3    H126853   6.860   5.429  -0.022 -0.3271 -0.5010 -0.7036
 8964TIP3    H226854   6.797   5.298   0.020 -0.0641 -0.3160  0.2839
 8965TIP3   OH226855   5.143   4.171   4.523 -0.2848  0.1803  0.2411
 8965TIP3    H126856   5.052   4.147   4.539 -0.0567  0.2657  1.8096
 8965TIP3    H226857   5.139   4.238   4.455 -1.3572 -0.1529 -0.0258
 8966TIP3   OH226858   4.231   0.858   0.079  0.0824  0.6295 -0.1960
 8966TIP3    H126859   4.146   0.886   0.048  0.3863  2.0429  0.2424
 8966TIP3    H226860   4.215   0.822   0.166 -0.2059 -0.0043 -0.5060
 8967TIP3   OH226861   3.798   2.395   5.711 -0.1284 -0.0008  0.0767
 8967TIP3    H126862   3.848   2.476   5.721 -0.9563  0.4094  0.8945
 8967TIP3    H226863   3.851   2.342   5.650 -1.1959  2.4783 -3.1577
 8968TIP3   OH226864   3.965   3.904   5.194  0.1640 -0.5937  0.1365
 8968TIP3    H126865   3.919   3.913   5.111 -0.0190 -0.5617  0.2404
 8968TIP3    H226866   3.902   3.934   5.260  1.5623  2.8013 -0.0034
 8969TIP3   OH226867   3.578   2.931   4.881  0.4432  0.2046  0.1369
 8969TIP3    H126868   3.518   3.002   4.907  0.8074  0.8240 -0.6832
 8969TIP3    H226869   3.598   2.949   4.789 -0.8356 -1.9531 -0.6029
 8970TIP3   OH226870   2.580   5.944   0.143 -0.9840 -0.0466  0.3355
 8970TIP3    H126871   2.591   6.000   0.066 -1.5820  0.5105  0.6554
 8970TIP3    H226872   2.661   5.893   0.146 -0.3844  0.8721  0.0986
 8971TIP3   OH226873   5.622   1.641   5.576 -0.1471 -0.6586 -0.3168
 8971TIP3    H126874   5.575   1.610   5.499 -2.2646  4.3359 -1.2291
 8971TIP3    H226875   5.554   1.658   5.641  1.1524 -0.2594  0.9739
 8972TIP3   OH226876   0.385   6.786   1.518 -0.6162 -0.3243  0.4639
 8972TIP3    H126877   0.388   6.865   1.464 -1.6255 -0.1227  0.6884
 8972TIP3    H226878   0.476   6.761   1.529 -0.1371  1.8984  1.9432
 8973TIP3   OH226879   5.550   5.503   0.357  0.1219 -0.1320 -0.0656
 8973TIP3    H126880   5.469   5.551   0.343 -0.0483 -0.1825  0.7080
 8973TIP3    H226881   5.591   5.499   0.271 -1.0809 -0.7883 -0.6251
 8974TIP3   OH226882   4.151   3.450   5.963 -0.5968  0.2899  0.1035
 8974TIP3    H126883   4.116   3.466   6.051  1.3917  0.8502  0.8155
 8974TIP3    H226884   4.226   3.392   5.977 -0.2397  0.4184 -1.2199
 8975TIP3   OH226885   2.927   0.697   0.025  0.0391  0.5136  0.2665
 8975TIP3    H126886   3.019   0.717   0.040  0.4052 -0.2352 -0.9270
 8975TIP3    H226887   2.921   0.602   0.026 -0.5942  0.5394 -0.3900
 8976TIP3   OH226888   4.405   4.984   0.737  0.1086  0.2228 -0.2350
 8976TIP3    H126889   4.328   5.009   0.788 -0.0564 -0.0859 -0.3356
 8976TIP3    H226890   4.441   5.068   0.707 -0.5077  0.3337 -0.6629
 8977TIP3   OH226891   4.290   3.539   5.271  0.2452  0.8652 -1.2368
 8977TIP3    H126892   4.353   3.595   5.318 -1.5522  1.1159  0.9501
 8977TIP3    H226893   4.253   3.597   5.204  0.2309  1.5649 -0.6335
 8978TIP3   OH226894   4.756   4.046   5.695 -0.0277 -0.4706 -0.4646
 8978TIP3    H126895   4.716   4.121   5.651 -0.7658 -0.7066 -0.2094
 8978TIP3    H226896   4.843   4.076   5.720 -0.2160  0.2041 -0.6140
 8979TIP3   OH226897   5.819   4.321   4.897  0.3481 -0.4979  0.7306
 8979TIP3    H126898   5.828   4.278   4.981 -2.0497 -0.6045  0.9509
 8979TIP3    H226899   5.871   4.401   4.906  0.3076 -0.6274  2.2154
 8980TIP3   OH226900   4.613   0.545   0.047  0.0845 -0.3102  0.1972
 8980TIP3    H126901   4.580   0.522   0.134 -0.7351  1.9266  0.5151
 8980TIP3    H226902   4.549   0.509  -0.014 -0.5590  0.0975  0.6260
 8981TIP3   OH226903   2.896   2.191  -0.016  0.8351 -0.6237 -0.1694
 8981TIP3    H126904   2.991   2.205  -0.018  0.7200  0.9150  2.5105
 8981TIP3    H226905   2.878   2.166   0.075 -1.5470  0.8584 -0.1930
 8982TIP3   OH226906   7.543   0.985   4.761  0.3386  0.5034  0.0218
 8982TIP3    H126907   7.607   1.036   4.811  0.2136 -0.0980  0.7980
 8982TIP3    H226908   7.460   1.000   4.806  0.0685  0.6421 -0.5146
 8983TIP3   OH226909   2.934   2.472   5.157  0.3777  0.1069  0.1564
 8983TIP3    H126910   2.870   2.466   5.087 -1.0953 -0.2880  1.4907
 8983TIP3    H226911   3.015   2.437   5.120 -0.3672 -0.0778 -1.3182
 8984TIP3   OH226912   4.822   4.460   4.218 -0.4597  0.4417 -0.0938
 8984TIP3    H126913   4.791   4.432   4.304  2.3600 -0.2776  0.7252
 8984TIP3    H226914   4.767   4.411   4.156 -0.4547 -1.3859  1.3046
 8985TIP3   OH226915   5.908   6.471   0.161 -0.2648  0.4032  0.6816
 8985TIP3    H126916   5.977   6.534   0.141  0.1964 -0.0635  0.7732
 8985TIP3    H226917   5.886   6.489   0.253  0.5502 -0.1969  1.0100
 8986TIP3   OH226918   1.148   6.900   0.746  0.6913  0.0020  0.0542
 8986TIP3    H126919   1.179   6.970   0.689 -0.2251 -0.1101 -0.5785
 8986TIP3    H226920   1.061   6.928   0.775  2.1066  1.2266  3.3708
 8987TIP3   OH226921   2.650   0.799   0.086 -0.0837 -0.2528 -0.0716
 8987TIP3    H126922   2.735   0.757   0.103 -0.5807 -0.7337  1.2419
 8987TIP3    H226923   2.603   0.736   0.032 -0.1681 -0.6348  0.4468
 8988TIP3   OH226924   6.294   3.663   5.930  0.0214  0.3193  0.8606
 8988TIP3    H126925   6.261   3.744   5.893  0.7404  0.1698 -0.1275
 8988TIP3    H226926   6.277   3.597   5.863  0.2553 -0.1809  1.2844
 8989TIP3   OH226927   7.495   2.011   4.571  0.4923  0.2590 -0.5484
 8989TIP3    H126928   7.521   2.040   4.659  0.3419  0.3440 -0.5314
 8989TIP3    H226929   7.538   1.927   4.559 -0.8269 -0.5490  0.2553
 8990TIP3   OH226930   6.204   6.683   0.762  0.3223 -0.6716  0.2547
 8990TIP3    H126931   6.239   6.637   0.686  1.1445  0.9280 -0.3560
 8990TIP3    H226932   6.156   6.616   0.811  2.0336 -2.3314 -0.2835
 8991TIP3   OH226933   4.961   4.332   3.516 -0.1831 -0.5732  0.4924
 8991TIP3    H126934   5.029   4.278   3.475 -0.6453 -1.0068  0.2923
 8991TIP3    H226935   4.908   4.363   3.443  1.1301  1.6462  0.4220
 8992TIP3   OH226936   6.634   4.090   5.021  0.3675  0.5157 -0.2664
 8992TIP3    H126937   6.624   4.020   4.957 -1.1101  0.3825  0.0957
 8992TIP3    H226938   6.569   4.155   4.997  0.1380  0.6950  0.7894
 8993TIP3   OH226939   4.829   1.962   5.184 -0.2710 -0.0642  0.1264
 8993TIP3    H126940   4.794   1.964   5.273  0.7997  0.6596  0.5363
 8993TIP3    H226941   4.848   2.054   5.163 -2.8056  0.0923 -1.7745
 8994TIP3   OH226942   3.741   4.709   5.019  0.3297  0.1943  0.4123
 8994TIP3    H126943   3.808   4.666   5.073 -0.0565  0.5096  1.1556
 8994TIP3    H226944   3.718   4.788   5.068 -0.7546 -0.0304  0.2812
 8995TIP3   OH226945   2.831   2.347   1.858  0.0781 -0.5222 -0.3831
 8995TIP3    H126946   2.857   2.344   1.950 -0.6330  0.9411 -0.1305
 8995TIP3    H226947   2.762   2.413   1.854  0.6482  0.0008 -2.1012
 8996TIP3   OH226948   1.773   0.000   0.197  0.4242 -0.0664  0.1229
 8996TIP3    H126949   1.694   0.007   0.144 -2.1426  0.7543  3.9011
 8996TIP3    H226950   1.822   0.080   0.176 -1.9713  1.7297  1.1089
 8997TIP3   OH226951   6.467   5.133   0.371  0.2136 -0.6007  0.2397
 8997TIP3    H126952   6.545   5.183   0.350 -0.3333 -0.1251 -0.6526
 8997TIP3    H226953   6.398   5.198   0.383 -0.3827 -1.1047 -0.4206
 8998TIP3   OH226954   4.297   4.114   5.278  0.2057  0.3992 -0.5225
 8998TIP3    H126955   4.298   4.209   5.288  0.9464  0.5004 -1.5419
 8998TIP3    H226956   4.217   4.096   5.229  0.4063  0.5478 -0.9021
 8999TIP3   OH226957   5.095   2.026   4.139 -0.2806 -0.4023 -0.4303
 8999TIP3    H126958   5.171   2.085   4.141 -0.6822  0.3432 -3.7678
 8999TIP3    H226959   5.104   1.979   4.056 -3.7450  0.1109 -1.1720
 9000TIP3   OH226960   7.163   5.730   2.175 -0.4884 -0.9220  0.0226
 9000TIP3    H126961   7.104   5.805   2.185 -0.4357 -0.6829 -1.2644
 9000TIP3    H226962   7.201   5.718   2.261 -2.0880 -0.8042  0.7580
 9001TIP3   OH226963   3.340   0.448   0.686  0.5845  0.4430  0.0213
 9001TIP3    H126964   3.382   0.421   0.605  0.9516  0.4738  0.2005
 9001TIP3    H226965   3.260   0.395   0.691 -0.0774  1.3344 -0.9844
 9002TIP3   OH226966   5.579   3.017   5.924 -0.2601 -0.2836 -0.0164
 9002TIP3    H126967   5.618   3.068   5.853 -0.5655  0.0681  0.0651
 9002TIP3    H226968   5.513   2.963   5.881 -0.3297 -0.1922 -0.0247
 9003TIP3   OH226969   7.557   4.292   2.254 -0.1149 -0.0806  0.1885
 9003TIP3    H126970   7.518   4.373   2.221 -0.4295 -0.5817 -0.6781
 9003TIP3    H226971   7.512   4.276   2.337  1.1522  1.5421  1.2402
 9004TIP3   OH226972   3.908   2.858   4.559  0.2275 -0.2329  0.1876
 9004TIP3    H126973   3.965   2.932   4.581  0.3828 -0.1952 -0.3361
 9004TIP3    H226974   3.908   2.804   4.638 -0.6699  0.8228  0.9141
 9005TIP3   OH226975   6.876   6.327   0.711  0.7550  0.4244  0.5209
 9005TIP3    H126976   6.959   6.288   0.736  1.0887 -0.0235 -1.2116
 9005TIP3    H226977   6.810   6.272   0.752  1.3074  0.9525  2.1414
 9006TIP3   OH226978   3.313   1.321   5.211 -0.1527 -0.2912  0.3599
 9006TIP3    H126979   3.324   1.364   5.296 -0.5782  2.7936 -1.0867
 9006TIP3    H226980   3.220   1.300   5.207 -0.2924  0.2997  0.3563
 9007TIP3   OH226981   0.553   0.759   0.864 -0.3437  0.6464  0.6898
 9007TIP3    H126982   0.615   0.701   0.819 -1.7912  0.6617 -1.3913
 9007TIP3    H226983   0.578   0.847   0.837 -0.0533  0.7934  1.4235
 9008TIP3   OH226984   0.839   0.289   0.849 -0.3546  0.3344 -0.8764
 9008TIP3    H126985   0.856   0.381   0.831  1.0126  0.4122  0.7362
 9008TIP3    H226986   0.923   0.254   0.880 -1.8621 -0.4422  2.6121
 9009TIP3   OH226987   6.625   6.172   1.432  0.3371 -0.0719  0.2452
 9009TIP3    H126988   6.683   6.214   1.496 -1.0638  0.9078  0.8875
 9009TIP3    H226989   6.674   6.095   1.403  1.1415 -0.3360  2.2337
 9010TIP3   OH226990   3.897   1.282   3.437  0.3201  0.3577  0.4618
 9010TIP3    H126991   3.819   1.248   3.481  2.1898 -2.5137  1.7180
 9010TIP3    H226992   3.871   1.289   3.345 -1.5292 -0.1681  0.9194
 9011TIP3   OH226993   6.155   6.665   0.363 -0.0847 -0.5188 -0.2701
 9011TIP3    H126994   6.213   6.670   0.439 -0.0146  1.8891 -0.4446
 9011TIP3    H226995   6.214   6.653   0.289 -0.0867 -1.9246 -0.0447
 9012TIP3   OH226996   5.295   2.717   5.933 -0.4787 -0.1366  0.0656
 9012TIP3    H126997   5.356   2.726   6.006  1.2008 -0.1709 -1.3143
 9012TIP3    H226998   5.287   2.623   5.918  0.1799 -0.0927 -0.6072
 9013TIP3   OH226999   0.852   2.800   1.445  0.1995 -0.1935  0.3225
 9013TIP3    H127000   0.881   2.891   1.437  2.5801 -0.6456  2.6438
 9013TIP3    H227001   0.902   2.753   1.378 -1.5691  0.2950 -1.3591
 9014TIP3   OH227002   5.058   4.450   5.798  0.7136 -0.2338  0.2899
 9014TIP3    H127003   5.065   4.503   5.719 -1.6234 -0.8750 -0.3854
 9014TIP3    H227004   5.038   4.362   5.766 -2.0682 -0.1503  1.6007
 9015TIP3   OH227005   5.224   5.547   5.601 -0.2396  0.1218  0.4770
 9015TIP3    H127006   5.192   5.458   5.590  0.3950  0.2607 -3.0677
 9015TIP3    H227007   5.162   5.601   5.551  1.5928  1.1791 -0.7056
 9016TIP3   OH227008   6.835   5.832   0.726  0.5566  0.5532 -0.2689
 9016TIP3    H127009   6.769   5.840   0.657  0.3534 -1.3242 -0.3060
 9016TIP3    H227010   6.787   5.797   0.801  1.1350  0.9816  0.3052
 9017TIP3   OH227011   5.892   5.943   0.827  0.5415  0.3159  0.4088
 9017TIP3    H127012   5.924   5.884   0.896  1.0314  0.0222 -0.0703
 9017TIP3    H227013   5.802   5.915   0.811  0.0109  1.1766  1.7999
 9018TIP3   OH227014   7.444   2.160   5.288 -0.6195 -0.3593 -0.6769
 9018TIP3    H127015   7.478   2.241   5.327 -0.0040 -1.3814  0.9712
 9018TIP3    H227016   7.350   2.175   5.280 -0.2550  1.2982 -2.3402
 9019TIP3   OH227017   5.246   3.545   6.080  0.2422 -0.5898  0.2778
 9019TIP3    H127018   5.164   3.522   6.123 -0.3154 -0.4313 -0.7006
 9019TIP3    H227019   5.247   3.493   6.000  1.1873 -0.7390  0.3745
 9020TIP3   OH227020   5.910   0.842   6.179 -0.3238  0.0287 -0.1989
 9020TIP3    H127021   5.882   0.863   6.090 -0.9067  2.4260  0.5219
 9020TIP3    H227022   5.956   0.920   6.209 -2.4496  0.3250  2.5366
 9021TIP3   OH227023   6.992   6.373   0.440 -0.2004  0.1859 -0.1591
 9021TIP3    H127024   6.982   6.324   0.521 -1.7484 -0.8097 -0.9070
 9021TIP3    H227025   7.018   6.307   0.375 -0.8252  0.6045 -0.8516
 9022TIP3   OH227026   5.498   1.346   4.593 -0.4248  0.2841 -0.0979
 9022TIP3    H127027   5.475   1.438   4.607  0.1512  0.3150  0.7214
 9022TIP3    H227028   5.522   1.341   4.500 -0.3681  0.9845 -0.1268
 9023TIP3   OH227029   6.600   5.444   1.265  0.9762  0.4877 -0.2508
 9023TIP3    H127030   6.511   5.430   1.233  0.3428  2.1762  0.7453
 9023TIP3    H227031   6.609   5.383   1.338  0.3240  0.9685  0.2306
 9024TIP3   OH227032   3.149   1.663   6.304 -0.8489  0.1099  0.0162
 9024TIP3    H127033   3.174   1.663   6.212 -1.9252 -1.0303 -0.2882
 9024TIP3    H227034   3.203   1.594   6.343  0.1616  1.1064  0.4110
 9025TIP3   OH227035   3.434   4.974   5.337 -0.4786 -0.3323 -0.3567
 9025TIP3    H127036   3.497   5.039   5.368 -0.1130  0.1378 -2.0407
 9025TIP3    H227037   3.353   5.023   5.326 -0.5479 -0.4423 -0.3368
 9026TIP3   OH227038   5.017   5.606   5.420  0.4502  0.2650 -0.5980
 9026TIP3    H127039   4.981   5.536   5.366 -1.2832  1.0772 -0.5471
 9026TIP3    H227040   5.002   5.686   5.369  2.0794  0.6448 -0.5005
 9027TIP3   OH227041   5.236   6.293   0.784  0.2316  0.2968  0.0867
 9027TIP3    H127042   5.264   6.376   0.746  1.2168 -0.5781 -1.1476
 9027TIP3    H227043   5.263   6.227   0.720 -0.3346 -0.9910  1.1510
 9028TIP3   OH227044   2.655   2.312   5.791  0.2710  0.2516 -0.7856
 9028TIP3    H127045   2.685   2.358   5.869 -0.6895 -1.5401  0.6700
 9028TIP3    H227046   2.573   2.354   5.767  0.1710  0.2861 -0.3750
 9029TIP3   OH227047   4.622   2.963   5.990  0.5155  0.0645  0.4238
 9029TIP3    H127048   4.623   2.877   5.949  0.2640 -0.9359  2.4578
 9029TIP3    H227049   4.689   3.013   5.944  1.1697 -1.4426 -0.2707
 9030TIP3   OH227050   7.201   2.194   6.176  0.7672  0.5973  0.3043
 9030TIP3    H127051   7.255   2.138   6.120  0.3411 -0.1899  0.6720
 9030TIP3    H227052   7.188   2.274   6.125  3.9521  1.6295  1.0024
 9031TIP3   OH227053   4.625   3.495   6.189  0.2554  0.3240 -0.4726
 9031TIP3    H127054   4.552   3.532   6.140  0.4009  0.8890 -0.2647
 9031TIP3    H227055   4.703   3.533   6.149  0.4756 -0.8519 -1.1811
 9032TIP3   OH227056   5.487   4.266   6.051 -0.5332 -0.2582 -0.4354
 9032TIP3    H127057   5.544   4.293   5.979  0.3063 -1.4562 -0.2315
 9032TIP3    H227058   5.422   4.335   6.057  0.8751  1.1287 -0.7112
 9033TIP3   OH227059   5.464   1.623   4.648  0.3588 -0.4023 -0.4591
 9033TIP3    H127060   5.556   1.633   4.675  0.5270  0.4615 -1.3291
 9033TIP3    H227061   5.415   1.626   4.730  1.1124 -0.9587  0.0233
 9034TIP3   OH227062   5.276   3.726   5.447 -0.4002 -0.6387 -0.0409
 9034TIP3    H127063   5.351   3.786   5.442  1.7867 -3.2516 -0.3525
 9034TIP3    H227064   5.218   3.754   5.377  1.9779 -0.6538 -2.0959
 9035TIP3   OH227065   4.923   1.356   5.813 -0.3313 -0.0336 -0.2280
 9035TIP3    H127066   4.952   1.437   5.772 -1.6455 -0.1479 -1.4386
 9035TIP3    H227067   4.961   1.287   5.760  0.6709 -0.2317  0.7213
 9036TIP3   OH227068   2.274   6.529   0.251 -0.1262  0.3089 -0.8059
 9036TIP3    H127069   2.337   6.468   0.214  0.1060 -0.1539  0.3347
 9036TIP3    H227070   2.321   6.612   0.255  0.5863 -0.1563  0.5266
 9037TIP3   OH227071   7.209   5.955   0.739 -0.1827  0.2529 -0.3160
 9037TIP3    H127072   7.194   5.890   0.671 -1.2679 -0.3673  0.5060
 9037TIP3    H227073   7.292   5.929   0.779  0.8952  1.1186 -1.9471
 9038TIP3   OH227074   4.419   2.655   4.285  0.8377  0.5707 -0.7969
 9038TIP3    H127075   4.389   2.564   4.279  0.8866  0.5249 -0.3826
 9038TIP3    H227076   4.481   2.655   4.359  0.3539  1.0678 -0.3846
 9039TIP3   OH227077   5.088   2.885   5.905  0.1218  0.4965 -0.3948
 9039TIP3    H127078   5.166   2.832   5.918 -0.6394  0.0256  2.7213
 9039TIP3    H227079   5.021   2.823   5.875 -0.3070 -0.0374  1.5905
 9040TIP3   OH227080   1.237   0.924   1.431 -0.2448 -0.7131  0.0372
 9040TIP3    H127081   1.327   0.909   1.402  0.0167  0.4024  0.2579
 9040TIP3    H227082   1.219   1.015   1.407 -1.1616 -0.8015  0.3933
 9041TIP3   OH227083   0.459   6.057   2.064  0.5508 -0.2225 -0.3098
 9041TIP3    H127084   0.509   6.089   2.140  0.0791  2.1240 -0.9591
 9041TIP3    H227085   0.470   5.962   2.067  1.4916 -0.0753  2.0427
 9042TIP3   OH227086   5.167   2.512   6.329  0.1723 -0.3158  0.1978
 9042TIP3    H127087   5.201   2.592   6.369 -1.5582 -0.7713  2.6934
 9042TIP3    H227088   5.228   2.443   6.356 -0.0691 -0.3458  0.6718
 9043TIP3   OH227089   7.289   7.138   0.979 -0.2117 -0.7070 -0.0246
 9043TIP3    H127090   7.282   7.111   0.887  0.4070  0.3381 -0.3869
 9043TIP3    H227091   7.229   7.080   1.025 -0.8278 -0.9911 -1.1507
 9044TIP3   OH227092   1.235   2.314   0.220 -0.1688  0.3912  0.2221
 9044TIP3    H127093   1.222   2.275   0.134 -0.3836  0.4570  0.2239
 9044TIP3    H227094   1.164   2.278   0.274  0.8918 -0.8924  0.8013
 9045TIP3   OH227095   5.198   2.801   4.441  0.2522  0.3043 -0.1766
 9045TIP3    H127096   5.151   2.730   4.397 -0.6170  1.3163 -0.9103
 9045TIP3    H227097   5.278   2.760   4.474  0.1120 -0.8567 -1.2349
 9046TIP3   OH227098   3.144   1.188   0.828  0.7986 -0.2009  0.5142
 9046TIP3    H127099   3.110   1.158   0.743  1.0727  1.3280 -0.1575
 9046TIP3    H227100   3.238   1.196   0.815  0.9371 -0.6646  1.1954
 9047TIP3   OH227101   5.615   3.442   5.394  0.3273 -0.0863  0.3796
 9047TIP3    H127102   5.690   3.423   5.338  0.3723 -0.5373  0.5914
 9047TIP3    H227103   5.631   3.531   5.427  0.8208 -0.2228  0.5073
 9048TIP3   OH227104   4.154   2.536   5.878  0.0336  0.3902  0.6441
 9048TIP3    H127105   4.156   2.441   5.871 -0.4281  0.2354  2.5207
 9048TIP3    H227106   4.064   2.557   5.902  0.3071  1.2416  0.9471
 9049TIP3   OH227107   6.258   2.654   6.055  0.1869 -0.3428  0.2409
 9049TIP3    H127108   6.191   2.722   6.051  1.0179  0.5627  1.4341
 9049TIP3    H227109   6.214   2.579   6.096 -0.1307  0.2029  0.9066
 9050TIP3   OH227110   6.203   6.988   0.629  0.1248  0.4060 -0.5847
 9050TIP3    H127111   6.198   6.893   0.621  0.4207  0.3727 -0.3885
 9050TIP3    H227112   6.161   7.008   0.712  1.1348  0.3371 -0.0507
 9051TIP3   OH227113   5.467   5.199   4.427 -0.1584 -0.2060  0.7211
 9051TIP3    H127114   5.371   5.204   4.434 -0.6250 -1.3742 -3.4561
 9051TIP3    H227115   5.497   5.289   4.438 -1.7864  0.2812  1.3200
 9052TIP3   OH227116   4.709   3.315   6.000 -0.3622  0.0390 -0.4562
 9052TIP3    H127117   4.682   3.384   5.939  0.7580  0.1228 -0.8633
 9052TIP3    H227118   4.797   3.340   6.027  1.3399 -2.8364 -3.0311
 9053TIP3   OH227119   3.799   1.897   5.047 -0.0058  0.0034 -0.1053
 9053TIP3    H127120   3.874   1.839   5.058  0.3820  0.6346  0.6256
 9053TIP3    H227121   3.730   1.857   5.101  0.3199  0.3099  0.5499
 9054TIP3   OH227122   5.831   3.405   5.165 -0.0929 -0.2221  0.2665
 9054TIP3    H127123   5.836   3.310   5.153  0.7883 -0.4347  2.2433
 9054TIP3    H227124   5.914   3.429   5.207 -1.0251  1.1918  1.3349
 9055TIP3   OH227125   3.716   1.034   0.235  0.4715  0.7719 -0.6334
 9055TIP3    H127126   3.688   1.032   0.143  1.2996 -1.4075 -0.8651
 9055TIP3    H227127   3.784   1.101   0.238  0.0920  1.2052 -1.4922
 9056TIP3   OH227128   5.997   4.295   4.537 -0.0408  0.0710  0.2134
 9056TIP3    H127129   5.930   4.360   4.558  0.9923  1.3483 -0.3648
 9056TIP3    H227130   6.079   4.337   4.562  0.5911 -1.2082  0.2811
 9057TIP3   OH227131   1.692   6.326   1.858 -0.0655  0.1051  0.3687
 9057TIP3    H127132   1.668   6.256   1.918 -0.4083 -0.6238 -0.5889
 9057TIP3    H227133   1.718   6.280   1.778  0.0926  1.0623 -0.1377
 9058TIP3   OH227134   3.539   1.672   3.609  0.0753 -0.1748  0.2777
 9058TIP3    H127135   3.529   1.671   3.513 -0.3109  0.2010  0.3086
 9058TIP3    H227136   3.547   1.765   3.630 -2.7522 -0.0392  0.8966
 9059TIP3   OH227137   1.152   5.967   0.124 -0.5000  0.2154  0.4001
 9059TIP3    H127138   1.103   5.939   0.201  0.9825  0.7045  1.5425
 9059TIP3    H227139   1.144   5.895   0.062 -2.4259  0.1729  0.6605
 9060TIP3   OH227140   4.650   2.246   5.289 -0.0023  0.2263  0.1122
 9060TIP3    H127141   4.642   2.324   5.343  0.2144  0.2390  0.1251
 9060TIP3    H227142   4.732   2.257   5.242 -0.2049  0.2330 -0.2469
 9061TIP3   OH227143   6.303   5.483   0.181 -0.1054 -0.0056 -0.4746
 9061TIP3    H127144   6.326   5.518   0.095 -1.2705  1.4548 -0.2182
 9061TIP3    H227145   6.365   5.525   0.241 -0.9521  1.0013 -0.2809
 9062TIP3   OH227146   6.186   5.025   4.826  0.3278 -0.3163 -0.2142
 9062TIP3    H127147   6.205   5.110   4.864  1.8212 -0.4736 -0.5872
 9062TIP3    H227148   6.208   4.962   4.894  2.1100 -0.5464 -0.9626
 9063TIP3   OH227149   3.073   2.252   6.178 -0.0127  0.1588  0.6447
 9063TIP3    H127150   3.123   2.332   6.187 -0.1454  0.1608  1.4178
 9063TIP3    H227151   2.990   2.280   6.140  0.4973  0.1781 -0.4692
 9064TIP3   OH227152   4.235   4.404   5.862  0.3336 -0.8960 -0.1302
 9064TIP3    H127153   4.216   4.460   5.786 -2.2502 -1.5149 -0.0012
 9064TIP3    H227154   4.244   4.316   5.825 -2.4968 -1.4573  0.3948
 9065TIP3   OH227155   5.695   3.979   6.357 -0.0234  0.5324  0.4855
 9065TIP3    H127156   5.768   3.958   6.415  0.0968 -1.4011 -0.3217
 9065TIP3    H227157   5.720   4.061   6.316  2.1451 -0.5670 -0.4648
 9066TIP3   OH227158   4.324   2.398   4.386 -0.1725  0.0593 -0.0053
 9066TIP3    H127159   4.339   2.305   4.366 -1.4141 -0.1348 -0.0629
 9066TIP3    H227160   4.285   2.397   4.473 -2.3841  0.3570 -0.9674
 9067TIP3   OH227161   7.769   3.094   5.967  0.4802  0.1577 -0.0804
 9067TIP3    H127162   7.743   3.122   6.055  1.0657  1.8159 -0.4249
 9067TIP3    H227163   7.857   3.058   5.979  0.0523 -0.8118  0.2205
 9068TIP3   OH227164   5.412   4.832   5.785 -0.1679 -0.0556 -0.1751
 9068TIP3    H127165   5.349   4.830   5.857 -0.0385 -0.3198 -0.0711
 9068TIP3    H227166   5.358   4.826   5.706 -0.2212 -0.9844 -0.0667
 9069TIP3   OH227167   5.074   0.322   2.266 -0.2243  0.2455  0.5443
 9069TIP3    H127168   5.018   0.279   2.202  0.3247  0.3822 -0.0450
 9069TIP3    H227169   5.124   0.251   2.307  0.3546  0.2677 -0.1066
 9070TIP3   OH227170   4.927   6.620   2.036  0.2735 -0.4977  0.1217
 9070TIP3    H127171   4.995   6.563   2.000  0.8919  0.2311  0.1213
 9070TIP3    H227172   4.852   6.606   1.979  1.0398  0.1541 -1.0540
 9071TIP3   OH227173   6.467   3.020   4.680  0.5500  0.2429 -0.1779
 9071TIP3    H127174   6.548   3.044   4.726 -0.0030  1.6784  0.0582
 9071TIP3    H227175   6.466   2.924   4.683 -0.1569  0.2920  3.9678
 9072TIP3   OH227176   6.198   2.469   4.914  0.5795 -0.5416  0.0278
 9072TIP3    H127177   6.198   2.447   4.821 -0.2160 -0.9275  0.1120
 9072TIP3    H227178   6.284   2.508   4.929 -0.2707  2.0483 -1.4649
 9073TIP3   OH227179   5.184   0.369   6.338  0.1489 -0.1617 -0.3613
 9073TIP3    H127180   5.121   0.346   6.406 -0.2174 -0.7087 -0.8880
 9073TIP3    H227181   5.139   0.352   6.256  0.7577  0.0435 -0.7425
 9074TIP3   OH227182   2.100   1.027   1.574  0.0571  0.2354 -0.4882
 9074TIP3    H127183   2.184   0.985   1.558 -0.2544  0.2055 -2.1073
 9074TIP3    H227184   2.067   0.986   1.654  0.8525 -0.8840 -0.7352
 9075TIP3   OH227185   5.639   1.802   5.895 -0.1122 -0.0503  0.0609
 9075TIP3    H127186   5.667   1.800   5.804  0.6186 -1.3671  0.3029
 9075TIP3    H227187   5.695   1.738   5.939 -2.0618 -1.1796  0.9809
 9076TIP3   OH227188   7.298   6.079   2.254  0.0274  0.3605  0.2351
 9076TIP3    H127189   7.222   6.026   2.278  0.4301  0.9306  2.9386
 9076TIP3    H227190   7.373   6.027   2.283  0.5114  1.4808  1.0175
 9077TIP3   OH227191   5.624   2.424   4.659 -0.8834  0.2268  0.2530
 9077TIP3    H127192   5.714   2.401   4.682 -0.6094  1.3186  0.3087
 9077TIP3    H227193   5.581   2.439   4.743 -0.9589  0.2494  0.2105
 9078TIP3   OH227194   0.244   6.926   0.410 -0.2474  0.7107  0.1452
 9078TIP3    H127195   0.201   6.876   0.341 -0.7412  1.6940 -0.2586
 9078TIP3    H227196   0.213   7.016   0.398  0.2205  1.0198  1.1967
 9079TIP3   OH227197   5.025   1.870   5.860  0.0055  0.3973 -0.1300
 9079TIP3    H127198   5.023   1.928   5.784  0.0137  1.3671  0.6031
 9079TIP3    H227199   5.050   1.785   5.825 -0.5852  0.7016 -1.3052
 9080TIP3   OH227200   0.918   6.352   2.262 -0.2638  0.3383 -0.1091
 9080TIP3    H127201   0.964   6.385   2.185 -2.4374  3.2967 -0.2257
 9080TIP3    H227202   0.830   6.388   2.255 -1.8870 -3.0614  1.4489
 9081TIP3   OH227203   1.303   5.346   3.413  0.3095  0.3426  0.3766
 9081TIP3    H127204   1.228   5.362   3.470  0.4396  0.1554  0.6033
 9081TIP3    H227205   1.272   5.282   3.349  0.0810  0.7644  0.0703
 9082TIP3   OH227206   6.771   4.847   0.690 -0.1021 -0.3871 -0.2326
 9082TIP3    H127207   6.745   4.915   0.752 -1.4826  0.0138 -1.2283
 9082TIP3    H227208   6.802   4.895   0.613  0.5449 -0.8887 -0.2949
 9083TIP3   OH227209   0.540   5.891   1.140 -0.0885 -0.0688  0.4487
 9083TIP3    H127210   0.598   5.836   1.191 -2.3121 -0.4943  2.6292
 9083TIP3    H227211   0.467   5.834   1.116 -0.5257  0.9210 -0.6703
 9084TIP3   OH227212   6.044   5.092   1.360 -0.7138 -0.5139 -0.2143
 9084TIP3    H127213   5.992   5.130   1.289 -0.8131  0.1152  0.1907
 9084TIP3    H227214   6.100   5.027   1.317 -1.3531 -0.7203 -0.7488
 9085TIP3   OH227215   3.464   4.187   5.923 -0.5940  0.1392 -1.0189
 9085TIP3    H127216   3.499   4.264   5.967 -1.1602  0.1427 -0.5715
 9085TIP3    H227217   3.370   4.203   5.918 -0.8041 -0.8364 -0.2934
 9086TIP3   OH227218   5.253   1.857   4.867 -0.2569 -0.2600 -0.6075
 9086TIP3    H127219   5.195   1.876   4.941  1.5395 -0.5442  0.9100
 9086TIP3    H227220   5.262   1.940   4.821 -0.2949  0.2422  0.2868
 9087TIP3   OH227221   1.493   0.165   1.708  0.2460 -0.0229 -0.0117
 9087TIP3    H127222   1.560   0.102   1.735  0.2712 -0.6877 -1.5788
 9087TIP3    H227223   1.502   0.238   1.769  0.5734 -1.3072  1.5058
 9088TIP3   OH227224   0.665   5.318   0.664 -0.3519 -0.8056 -0.0317
 9088TIP3    H127225   0.663   5.330   0.759  0.9962 -1.4251  0.0891
 9088TIP3    H227226   0.756   5.296   0.644 -0.8230 -1.6635 -1.3537
 9089TIP3   OH227227   7.107   5.240   0.999 -0.1733 -0.0704 -0.2107
 9089TIP3    H127228   7.179   5.183   1.026 -1.1394 -1.4587 -0.4997
 9089TIP3    H227229   7.146   5.327   0.993  1.4944 -0.8175 -0.4418
 9090TIP3   OH227230   6.659   4.693   0.879  0.0979 -0.2378  0.0958
 9090TIP3    H127231   6.699   4.710   0.794  0.5404 -2.6099 -0.1942
 9090TIP3    H227232   6.578   4.744   0.878 -1.5029 -2.6650 -3.0360
 9091TIP3   OH227233   7.092   6.631   0.397 -0.3010  0.2400  0.1234
 9091TIP3    H127234   7.185   6.652   0.386 -0.3370 -0.0564 -0.7518
 9091TIP3    H227235   7.089   6.536   0.407 -0.6608  0.0698 -1.5286
 9092TIP3   OH227236   7.511   4.605   2.302 -0.1517  0.4564 -0.4514
 9092TIP3    H127237   7.499   4.662   2.226 -1.6506 -0.9521 -1.3217
 9092TIP3    H227238   7.422   4.590   2.333  0.2829 -0.8314  0.1825
 9093TIP3   OH227239   5.468   2.817   4.842 -0.2364 -0.6227  0.2124
 9093TIP3    H127240   5.537   2.864   4.795 -0.5353 -2.6525 -2.3157
 9093TIP3    H227241   5.407   2.885   4.869  2.0950  1.0715  1.4745
 9094TIP3   OH227242   3.457   3.295   4.092  0.0248 -0.2598  0.2078
 9094TIP3    H127243   3.398   3.223   4.114 -0.7904  0.3090 -0.0843
 9094TIP3    H227244   3.488   3.327   4.177 -1.1092  0.2786  0.4254
 9095TIP3   OH227245   6.692   0.575   1.126  0.1163 -0.3662 -0.0056
 9095TIP3    H127246   6.707   0.483   1.147  1.7603 -0.5040 -1.6445
 9095TIP3    H227247   6.780   0.612   1.118 -0.5357  1.4347  0.9627
 9096TIP3   OH227248   3.276   2.383   5.662 -0.4604 -0.5008 -0.0839
 9096TIP3    H127249   3.329   2.455   5.627  0.2493 -1.1999 -0.4576
 9096TIP3    H227250   3.226   2.351   5.587 -0.6760 -0.4790  0.0517
 9097TIP3   OH227251   6.016   3.441   6.196 -0.9312 -0.8776  0.1517
 9097TIP3    H127252   6.091   3.393   6.162 -0.3936 -0.6525  1.0065
 9097TIP3    H227253   6.036   3.533   6.177 -0.4433 -0.7187  1.4413
 9098TIP3   OH227254   6.365   6.981   0.234 -0.0811  0.1093 -0.3614
 9098TIP3    H127255   6.407   7.040   0.172  0.7371 -0.3574 -0.2548
 9098TIP3    H227256   6.327   7.039   0.300  1.4800  0.4968  0.2215
 9099TIP3   OH227257   5.987   3.070   4.016  0.0371 -0.1022 -0.4486
 9099TIP3    H127258   6.043   3.021   4.076  1.1164  0.3363 -1.0858
 9099TIP3    H227259   5.985   3.159   4.052 -1.1279 -0.3662  0.1654
 9100TIP3   OH227260   4.351   0.562  -0.003  0.1865 -0.4877  0.2588
 9100TIP3    H127261   4.358   0.595   0.086  0.6067 -1.5065  0.6170
 9100TIP3    H227262   4.278   0.501  -0.001 -0.2038 -0.0444 -0.2489
 9101TIP3   OH227263   5.747   4.196   6.184 -0.1750 -0.7759  0.4641
 9101TIP3    H127264   5.660   4.225   6.156 -0.2582 -0.1920  1.2966
 9101TIP3    H227265   5.790   4.277   6.212 -0.2283 -1.3921  2.3483
 9102TIP3   OH227266   6.505   6.097   0.692  0.1166  0.1692 -0.0284
 9102TIP3    H127267   6.521   6.065   0.603 -4.1544 -0.8462 -0.5239
 9102TIP3    H227268   6.426   6.052   0.720 -0.2477  2.6404  3.2372
 9103TIP3   OH227269   6.901   2.345   6.310 -0.0140  0.2368 -0.1532
 9103TIP3    H127270   6.942   2.420   6.353  0.1353 -0.4076  0.8454
 9103TIP3    H227271   6.813   2.341   6.348 -0.1531  0.1353 -0.4849
 9104TIP3   OH227272   6.695   1.212   3.646  0.6137 -0.0810 -0.0402
 9104TIP3    H127273   6.740   1.288   3.682 -1.7799  1.4749 -0.1552
 9104TIP3    H227274   6.669   1.161   3.722 -0.9478  1.1396  0.2764
 9105TIP3   OH227275   7.333   2.563   5.496  0.2399  0.1399 -0.3783
 9105TIP3    H127276   7.383   2.640   5.524  0.6546 -0.2336 -0.0941
 9105TIP3    H227277   7.274   2.545   5.569 -0.0405  0.3408 -0.5520
 9106TIP3   OH227278   5.269   3.807   6.385 -0.1634 -0.0466  0.1315
 9106TIP3    H127279   5.321   3.763   6.318  0.1307  0.1069  0.2558
 9106TIP3    H227280   5.261   3.897   6.353 -1.0779 -0.2800 -0.3041
 9107TIP3   OH227281   6.487   2.477   6.065  0.7704 -0.0528  0.2261
 9107TIP3    H127282   6.499   2.416   5.992  1.3254  1.8663 -1.3178
 9107TIP3    H227283   6.407   2.523   6.045  0.6816  0.1784  1.0846
 9108TIP3   OH227284   7.640   6.668   0.202 -0.7436 -0.1908  0.4109
 9108TIP3    H127285   7.625   6.604   0.132  0.0942  0.2125 -0.1342
 9108TIP3    H227286   7.561   6.661   0.256 -2.4205  1.0524 -1.7799
 9109TIP3   OH227287   5.947   1.248   5.640 -0.2732  0.2253  0.8533
 9109TIP3    H127288   5.939   1.211   5.728  0.9995  0.7748  1.2127
 9109TIP3    H227289   5.886   1.322   5.640  1.4154  1.6527  2.0607
 9110TIP3   OH227290   0.318   5.881   1.561  0.3769 -0.2311  0.6043
 9110TIP3    H127291   0.239   5.885   1.616 -1.0391  2.2100 -1.4525
 9110TIP3    H227292   0.340   5.973   1.545  1.9436 -0.9077 -1.2394
 9111TIP3   OH227293   5.836   1.955   5.186  0.7187  0.7359  0.0783
 9111TIP3    H127294   5.829   1.893   5.114  2.9406 -1.2205  1.4882
 9111TIP3    H227295   5.798   1.909   5.261 -0.1049  2.1303  0.5294
 9112TIP3   OH227296   3.902   2.670   5.976 -0.4341 -0.3117  0.0468
 9112TIP3    H127297   3.868   2.686   5.888 -1.8492  1.4571  0.8883
 9112TIP3    H227298   3.825   2.660   6.031  0.4144  0.3978  1.4010
 9113TIP3   OH227299   3.863   3.107   5.651 -0.5965  0.8519 -0.1600
 9113TIP3    H127300   3.902   3.194   5.658  0.2234  0.4036  1.0279
 9113TIP3    H227301   3.875   3.068   5.738 -0.7528 -0.5250 -0.7403
 9114TIP3   OH227302   5.891   3.088   6.178 -0.2199  0.7131 -0.3171
 9114TIP3    H127303   5.982   3.065   6.199 -1.1400 -3.0623 -0.2253
 9114TIP3    H227304   5.852   3.109   6.263 -0.4393 -1.5058  0.1480
 9115TIP3   OH227305   3.277   2.854   5.936  0.0643 -0.7071 -0.0943
 9115TIP3    H127306   3.265   2.760   5.926 -1.3351 -0.3533 -1.8968
 9115TIP3    H227307   3.199   2.884   5.983 -1.3641  0.1029 -2.9249
 9116TIP3   OH227308   4.478   2.790   5.360  0.1988  0.2076  0.0440
 9116TIP3    H127309   4.482   2.829   5.447  0.2816  0.0467  0.1101
 9116TIP3    H227310   4.517   2.856   5.303 -0.6887  0.7068 -0.0039
 9117TIP3   OH227311   6.289   5.243   4.949  0.3058 -0.3695 -0.1515
 9117TIP3    H127312   6.370   5.294   4.955 -0.0848  0.3384 -0.8147
 9117TIP3    H227313   6.219   5.309   4.952 -0.2429 -0.9752  0.3930
 9118TIP3   OH227314   6.353   3.549   5.028 -0.1441  0.6209 -0.2500
 9118TIP3    H127315   6.423   3.512   4.974  0.6624  0.7511  0.6869
 9118TIP3    H227316   6.335   3.635   4.990  0.6971  0.8794 -0.0666
 9119TIP3   OH227317   5.387   3.276   5.420  0.9643  0.2163 -0.1637
 9119TIP3    H127318   5.445   3.351   5.404  1.3252 -0.1326 -0.4973
 9119TIP3    H227319   5.406   3.250   5.510 -0.1227  1.3569  0.4153
 9120TIP3   OH227320   3.218   3.939   5.492  0.2245  0.3735  0.2036
 9120TIP3    H127321   3.295   3.885   5.473  0.6843  0.7915  0.8707
 9120TIP3    H227322   3.175   3.894   5.564 -1.2051 -0.8944 -1.3988
 9121TIP3   OH227323   7.050   4.051   6.168 -0.1964 -0.3989 -0.0251
 9121TIP3    H127324   7.014   4.128   6.213  0.4360 -0.4656  0.5914
 9121TIP3    H227325   7.134   4.080   6.134 -0.2653 -0.6210 -0.3867
 9122TIP3   OH227326   3.685   1.632   6.156  0.2169  0.0072 -0.3448
 9122TIP3    H127327   3.754   1.697   6.161  0.7396 -0.5381 -0.3733
 9122TIP3    H227328   3.606   1.681   6.133  0.5519  0.6571 -0.1019
 9123TIP3   OH227329   4.207   1.105   1.003 -0.5155  0.4159 -0.6193
 9123TIP3    H127330   4.216   1.198   1.022  2.2351  0.2231 -0.8636
 9123TIP3    H227331   4.229   1.097   0.910  2.0504 -0.8163  0.0518
 9124TIP3   OH227332   7.544   6.432   0.081 -0.0292  0.9706 -0.6332
 9124TIP3    H127333   7.591   6.456   0.001  0.0813  1.1015 -0.5300
 9124TIP3    H227334   7.588   6.353   0.111  0.5602  1.4737 -0.1700
 9125TIP3   OH227335   2.244   0.861   0.201  0.2602  0.4186 -0.5759
 9125TIP3    H127336   2.323   0.913   0.189  1.1019 -0.2019  1.8977
 9125TIP3    H227337   2.212   0.844   0.112  2.2768  1.6283 -1.5622
 9126TIP3   OH227338   6.640   5.051   5.203  0.4199 -0.0989 -0.7180
 9126TIP3    H127339   6.677   4.994   5.135 -1.4194  0.0931 -1.9153
 9126TIP3    H227340   6.555   5.078   5.167 -1.1788 -1.0609  2.2263
 9127TIP3   OH227341   3.754   1.412   3.943 -0.1821 -0.2981 -0.1564
 9127TIP3    H127342   3.749   1.479   4.011 -0.2520 -0.4872  0.0232
 9127TIP3    H227343   3.782   1.460   3.865 -2.6824  0.4337 -0.6666
 9128TIP3   OH227344   0.303   1.230   0.356 -0.1596  0.0205  0.0396
 9128TIP3    H127345   0.329   1.144   0.324 -0.2258 -0.1203  0.3670
 9128TIP3    H227346   0.241   1.212   0.426 -1.0932  0.3618 -0.7007
 9129TIP3   OH227347   0.320   0.093   1.156  0.3940 -0.7562  0.8138
 9129TIP3    H127348   0.331   0.175   1.109  0.5564 -0.8305  0.7199
 9129TIP3    H227349   0.233   0.061   1.130 -0.4637  0.3112  2.3046
 9130TIP3   OH227350   6.367   6.607   0.520  0.0808 -0.5439  0.1578
 9130TIP3    H127351   6.436   6.650   0.572 -0.5470  0.0187  0.5315
 9130TIP3    H227352   6.387   6.514   0.526 -0.4098 -0.5346  2.0252
 9131TIP3   OH227353   4.763   3.719   5.756  0.3321 -0.5651 -0.0260
 9131TIP3    H127354   4.836   3.702   5.697 -0.2500  2.5286 -1.7510
 9131TIP3    H227355   4.761   3.814   5.765 -1.1270 -0.8333  3.0647
 9132TIP3   OH227356   4.262   6.495   4.252  0.0663 -0.3199  0.1977
 9132TIP3    H127357   4.246   6.565   4.189 -1.0473  0.5132  1.3773
 9132TIP3    H227358   4.231   6.416   4.208 -1.5401  0.3758  0.0292
 9133TIP3   OH227359   0.937   0.017   0.088  0.0289 -0.2612 -0.0469
 9133TIP3    H127360   0.962   0.079   0.020  1.1697  1.1250  1.6269
 9133TIP3    H227361   0.842   0.009   0.078  0.1364  0.1682 -1.5840
 9134TIP3   OH227362   1.307   1.215   0.320  0.5200  0.1399 -0.3479
 9134TIP3    H127363   1.378   1.164   0.281 -0.9739 -1.7708 -0.6275
 9134TIP3    H227364   1.328   1.219   0.413  0.0448 -2.0523 -0.1186
 9135TIP3   OH227365   5.736   4.856   5.598 -0.0158  0.2281 -0.0340
 9135TIP3    H127366   5.791   4.923   5.557  1.4041 -0.7814  0.1755
 9135TIP3    H227367   5.664   4.844   5.536 -0.5661  2.2867  0.1569
 9136TIP3   OH227368   3.130   1.672   4.616  0.3206  0.4110 -0.6320
 9136TIP3    H127369   3.120   1.753   4.567  0.5968  0.4505 -0.6268
 9136TIP3    H227370   3.122   1.603   4.551 -0.6940  0.4135 -0.5158
 9137TIP3   OH227371   6.020   2.702   4.912  0.4609 -0.2490  0.6533
 9137TIP3    H127372   6.087   2.641   4.941  0.0726  0.1876  2.5337
 9137TIP3    H227373   6.014   2.767   4.982 -2.6710 -0.8638  1.0618
 9138TIP3   OH227374   7.147   3.013   5.930  0.2943  0.6658 -0.0360
 9138TIP3    H127375   7.104   3.098   5.917  1.6287  1.1079 -1.6336
 9138TIP3    H227376   7.235   3.025   5.894 -0.0549 -1.9141 -1.8555
 9139TIP3   OH227377   4.674   3.631   4.744 -0.2979 -0.1727  0.1835
 9139TIP3    H127378   4.662   3.609   4.836 -2.0830 -0.9714 -0.2192
 9139TIP3    H227379   4.718   3.554   4.707 -0.4806 -0.2658  0.1600
 9140TIP3   OH227380   4.661   3.259   2.815 -0.2136 -0.1574 -0.2225
 9140TIP3    H127381   4.731   3.273   2.751 -0.6127 -0.0255 -0.6287
 9140TIP3    H227382   4.688   3.181   2.863  1.2194  1.0468  0.9728
 9141TIP3   OH227383   3.935   1.856   3.657  0.0034 -0.1710 -0.3643
 9141TIP3    H127384   3.916   1.944   3.690  2.2809 -0.5935  2.1918
 9141TIP3    H227385   3.974   1.871   3.571 -2.2164  1.1544 -1.1762
 9142TIP3   OH227386   4.328   2.504   4.643 -0.1883 -0.0055 -0.4847
 9142TIP3    H127387   4.363   2.593   4.631  1.1661  0.2088  4.0419
 9142TIP3    H227388   4.261   2.514   4.711 -0.7089 -2.2970 -0.6361
 9143TIP3   OH227389   1.226   6.348   4.600 -0.1492 -0.1887  0.2832
 9143TIP3    H127390   1.195   6.431   4.637 -1.0339 -2.0836  3.9593
 9143TIP3    H227391   1.319   6.345   4.622 -0.2418 -0.4402  0.6324
 9144TIP3   OH227392   4.341   2.599   3.911  0.6192 -0.1857  0.3944
 9144TIP3    H127393   4.414   2.549   3.947 -1.4404 -1.9500  2.3121
 9144TIP3    H227394   4.297   2.636   3.988 -0.6886  0.5839 -0.6980
 9145TIP3   OH227395   1.085   0.041   0.643 -0.3744 -0.1745  0.0224
 9145TIP3    H127396   1.075   0.038   0.547  0.2897  0.7076 -0.0870
 9145TIP3    H227397   1.129   0.125   0.659 -1.4332  0.1715  1.1921
 9146TIP3   OH227398   5.443   1.960   6.013 -0.2698 -0.3733 -0.3276
 9146TIP3    H127399   5.403   1.989   5.931 -0.2952  1.0385  0.1701
 9146TIP3    H227400   5.509   1.896   5.986 -1.3847 -1.1145 -1.3144
 9147TIP3   OH227401   5.523   5.199   4.775 -0.2242  0.0225 -0.0087
 9147TIP3    H127402   5.546   5.263   4.708  0.6848 -0.2408  0.0493
 9147TIP3    H227403   5.588   5.130   4.765 -0.7906 -0.5653  0.3800
 9148TIP3   OH227404   6.209   4.102   5.890 -0.7927 -0.8137  0.1157
 9148TIP3    H127405   6.123   4.106   5.932 -0.1330  1.2761  1.3382
 9148TIP3    H227406   6.270   4.098   5.963  0.2356 -0.4235 -0.7221
 9149TIP3   OH227407   6.584   5.553   0.069 -0.4170 -0.0835  0.3533
 9149TIP3    H127408   6.576   5.565   0.164  0.2559 -1.0857  0.5483
 9149TIP3    H227409   6.645   5.479   0.059  1.4018  1.5468 -0.9152
 9150TIP3   OH227410   5.666   6.002   1.796 -0.3168  0.2258 -0.0684
 9150TIP3    H127411   5.612   5.936   1.839  1.6171 -0.8880  0.7145
 9150TIP3    H227412   5.619   6.084   1.809 -2.5046 -0.9047 -0.6095
 9151TIP3   OH227413   5.042   3.673   4.662 -0.4133  0.1245  0.4760
 9151TIP3    H127414   4.985   3.596   4.663  0.1681 -0.3241 -0.4013
 9151TIP3    H227415   4.983   3.747   4.679 -1.0515 -0.4581  0.8183
 9152TIP3   OH227416   3.285   1.501   0.518 -0.2138  0.3402  0.6929
 9152TIP3    H127417   3.302   1.591   0.545 -2.5736  0.9277  0.3249
 9152TIP3    H227418   3.220   1.509   0.447 -0.6739 -1.6554  0.8628
 9153TIP3   OH227419   7.657   2.621   6.344 -0.1828  0.4531  0.5769
 9153TIP3    H127420   7.687   2.629   6.435  2.5567 -2.0584 -0.0497
 9153TIP3    H227421   7.717   2.560   6.303  0.1854  3.3591 -3.6480
 9154TIP3   OH227422   5.285   2.346   1.021  0.8680  0.8829  0.0667
 9154TIP3    H127423   5.205   2.367   1.069  0.6058 -0.4204  0.2317
 9154TIP3    H227424   5.262   2.361   0.929  0.6281  1.0913  0.1589
 9155TIP3   OH227425   6.404   0.842   0.649 -0.0918 -0.2571 -0.4263
 9155TIP3    H127426   6.416   0.887   0.732 -1.1799  1.3570 -1.1062
 9155TIP3    H227427   6.396   0.750   0.672 -1.3357  0.2725  1.3549
 9156TIP3   OH227428   6.210   1.436   5.448  0.0875 -0.1752  0.1029
 9156TIP3    H127429   6.244   1.375   5.383  0.3536  0.1580 -0.0707
 9156TIP3    H227430   6.262   1.515   5.437  0.1551 -0.1275  0.7458
 9157TIP3   OH227431   3.215   6.789   0.348  0.0081 -0.6420  0.0679
 9157TIP3    H127432   3.190   6.881   0.356  0.2133 -0.7109  1.5137
 9157TIP3    H227433   3.132   6.742   0.345 -0.0835 -0.5381  0.9169
 9158TIP3   OH227434   6.733   2.982   4.931  0.1138  0.2459  0.2824
 9158TIP3    H127435   6.640   2.959   4.935  0.3719 -0.9456 -0.2162
 9158TIP3    H227436   6.771   2.939   5.008  0.2236  0.8614  0.5719
 9159TIP3   OH227437   3.862   1.705   5.478 -0.0278  0.5179 -0.3892
 9159TIP3    H127438   3.785   1.742   5.522 -0.9836 -2.3399  0.4560
 9159TIP3    H227439   3.901   1.648   5.544  1.4156  0.0350 -1.6533
 9160TIP3   OH227440   1.396   7.164   0.817 -0.3811  0.2525 -0.1251
 9160TIP3    H127441   1.302   7.155   0.832 -0.3682 -0.7597 -0.5469
 9160TIP3    H227442   1.418   7.087   0.764  0.9302 -0.2370  1.1165
 9161TIP3   OH227443   7.090   5.037   5.686  0.5843 -0.0030 -0.0451
 9161TIP3    H127444   7.098   5.120   5.639  1.3825  0.1871  0.4200
 9161TIP3    H227445   6.997   5.015   5.679  0.5849  0.3146 -1.2092
 9162TIP3   OH227446   2.716   4.427   0.517  0.6772 -0.2255  0.2550
 9162TIP3    H127447   2.762   4.377   0.450  0.7718 -1.7840  1.4491
 9162TIP3    H227448   2.689   4.508   0.473  1.9448 -0.6096 -1.2593
 9163TIP3   OH227449   6.118   1.527   6.320 -0.3654  0.5639 -0.0537
 9163TIP3    H127450   6.053   1.561   6.382  0.3096  0.0397  0.9428
 9163TIP3    H227451   6.092   1.436   6.306  0.8228  0.0273  1.2252
 9164TIP3   OH227452   3.382   5.375   0.457  0.4874 -0.1822 -0.2035
 9164TIP3    H127453   3.328   5.421   0.393 -1.0934 -2.2433 -0.3820
 9164TIP3    H227454   3.409   5.443   0.519 -1.9978  0.9525 -0.3292
 9165TIP3   OH227455   6.760   2.185   6.116  0.2792 -0.1081 -0.1659
 9165TIP3    H127456   6.837   2.207   6.170 -0.6656  0.5586  0.9283
 9165TIP3    H227457   6.749   2.261   6.059  0.9135 -0.5543 -0.8932
 9166TIP3   OH227458   1.755   6.517   0.863  0.3712  0.7007 -0.4754
 9166TIP3    H127459   1.791   6.498   0.949 -1.0834 -1.6054 -0.3333
 9166TIP3    H227460   1.692   6.587   0.878 -0.5075 -0.2873  0.4805
 9167TIP3   OH227461   6.036   2.911   5.093 -0.3766  0.8495  0.2979
 9167TIP3    H127462   6.074   2.991   5.058  0.2337  1.1977  1.7457
 9167TIP3    H227463   6.060   2.910   5.185 -0.5192 -0.9154  0.3483
 9168TIP3   OH227464   5.596   2.608   6.315 -0.2615 -0.3192  0.4740
 9168TIP3    H127465   5.664   2.649   6.369  0.3345 -1.2999  0.4806
 9168TIP3    H227466   5.608   2.514   6.329  0.4639 -0.6257 -2.0501
 9169TIP3   OH227467   1.413   5.688   1.840  0.3240 -0.0734  0.3961
 9169TIP3    H127468   1.353   5.761   1.858 -0.3094 -0.4514 -0.1016
 9169TIP3    H227469   1.364   5.634   1.777  0.1882 -1.6931  1.8713
 9170TIP3   OH227470   1.006   6.060   0.958  0.1973  0.2151 -0.3990
 9170TIP3    H127471   0.975   6.137   1.006  1.5953  0.1741  0.6166
 9170TIP3    H227472   0.989   5.987   1.018  1.3744  0.0840 -0.2217
 9171TIP3   OH227473   1.579   6.151   1.148 -0.2679  0.2579 -0.2816
 9171TIP3    H127474   1.492   6.161   1.110 -0.6500  0.1139  0.5583
 9171TIP3    H227475   1.584   6.217   1.216  0.3749  0.4316 -0.4914
 9172TIP3   OH227476   7.213   5.737   0.559  0.2391 -0.8517  0.0983
 9172TIP3    H127477   7.143   5.682   0.594 -1.6797  0.8721 -0.9364
 9172TIP3    H227478   7.237   5.695   0.476  1.0389 -1.8970  0.8351
 9173TIP3   OH227479   6.572   6.207   0.123 -0.4999 -0.8344  0.4701
 9173TIP3    H127480   6.546   6.250   0.204  0.6945 -0.0508  0.4517
 9173TIP3    H227481   6.663   6.234   0.110 -1.0390 -0.0604 -1.7281
 9174TIP3   OH227482   0.322   2.261   6.010  0.1171  0.1576 -0.0309
 9174TIP3    H127483   0.353   2.344   5.975 -1.0177  1.6272  2.3225
 9174TIP3    H227484   0.253   2.234   5.949  0.9044  0.6015 -1.1479
 9175TIP3   OH227485   6.178   4.352   5.661 -0.0764  0.1464 -0.3549
 9175TIP3    H127486   6.156   4.282   5.600  0.7498  0.1238 -0.6221
 9175TIP3    H227487   6.144   4.322   5.746 -0.6044 -0.1258 -0.6578
 9176TIP3   OH227488   6.789   5.193   5.457 -0.0783  0.5265  0.4413
 9176TIP3    H127489   6.797   5.163   5.367 -0.7188  0.7277  0.3107
 9176TIP3    H227490   6.814   5.118   5.510  2.0715  0.9647  0.0916
 9177TIP3   OH227491   0.661   3.935   4.534  0.7335 -0.1943 -0.0042
 9177TIP3    H127492   0.714   3.858   4.554  1.1296 -0.0567 -0.5075
 9177TIP3    H227493   0.701   3.973   4.456 -0.7746 -0.7295 -1.0697
 9178TIP3   OH227494   1.802   0.321   5.382  0.2956 -0.1063  0.1963
 9178TIP3    H127495   1.731   0.381   5.402 -1.7319 -2.6152  0.8318
 9178TIP3    H227496   1.780   0.285   5.296  0.8807 -0.7561  0.3078
 9179TIP3   OH227497   0.433   2.524   5.995  0.0480 -0.2698  0.1540
 9179TIP3    H127498   0.519   2.530   5.953 -0.8801 -0.3911 -1.8243
 9179TIP3    H227499   0.428   2.603   6.049  0.1992  1.3593 -2.1196
 9180TIP3   OH227500   4.573   2.095   4.174 -0.4423  0.1306  0.0100
 9180TIP3    H127501   4.659   2.065   4.143 -0.5527 -0.8094  0.5776
 9180TIP3    H227502   4.514   2.023   4.153 -0.6013 -0.3182  1.9243
 9181TIP3   OH227503   3.330   5.895   0.677  0.1727  0.2825 -0.2324
 9181TIP3    H127504   3.341   5.909   0.583 -0.8646 -2.8023 -0.8727
 9181TIP3    H227505   3.236   5.902   0.692  0.1642 -0.8310  0.2734
 9182TIP3   OH227506   0.101   4.144   6.202  0.1317  0.0646 -0.3515
 9182TIP3    H127507   0.195   4.127   6.202  0.1996  0.4020  1.1929
 9182TIP3    H227508   0.086   4.197   6.280 -1.2200  0.7267 -1.0400
 9183TIP3   OH227509   1.597   2.060   5.523 -0.0264  0.5988 -0.3065
 9183TIP3    H127510   1.671   2.065   5.462 -1.5800  1.4641 -2.1680
 9183TIP3    H227511   1.558   1.974   5.505 -0.4879  0.8586 -0.5567
 9184TIP3   OH227512   7.213   2.340   5.354  0.0844 -1.0101 -1.0517
 9184TIP3    H127513   7.281   2.407   5.357 -1.1285  0.2944 -1.8354
 9184TIP3    H227514   7.219   2.296   5.438  0.5606  0.4528 -0.2978
 9185TIP3   OH227515   6.984   0.096   0.080 -0.2963  0.0767  0.6724
 9185TIP3    H127516   7.039   0.150   0.137  0.5184  0.0106 -0.0419
 9185TIP3    H227517   7.020   0.008   0.090 -0.8436 -0.1218  0.8921
 9186TIP3   OH227518   7.313   3.308   6.124  0.8640  0.1137  0.3394
 9186TIP3    H127519   7.353   3.331   6.208 -0.3544  0.1119  0.9244
 9186TIP3    H227520   7.323   3.386   6.070  0.2049  0.6760  1.0303
 9187TIP3   OH227521   3.392   6.430   1.334 -0.6824 -0.1083  0.3418
 9187TIP3    H127522   3.430   6.436   1.422 -2.1441  0.9242  0.9197
 9187TIP3    H227523   3.430   6.350   1.297  3.5125  1.8616  0.1701
 9188TIP3   OH227524   6.301   2.296   5.606  0.1019 -0.2658 -0.0501
 9188TIP3    H127525   6.329   2.226   5.547 -1.5852 -0.3690 -0.7541
 9188TIP3    H227526   6.213   2.271   5.633  0.0099  0.9076  0.7509
 9189TIP3   OH227527   0.463   2.158   6.365  0.4413 -0.1548 -0.1561
 9189TIP3    H127528   0.518   2.154   6.287 -1.0804 -0.2897 -1.2531
 9189TIP3    H227529   0.431   2.248   6.367 -0.0138 -0.3169 -0.0430
 9190TIP3   OH227530   7.123   3.041   5.126 -0.3225  0.2012 -0.6464
 9190TIP3    H127531   7.187   3.038   5.197 -1.5516  0.9746  0.5110
 9190TIP3    H227532   7.169   3.002   5.051  1.0458 -0.4569  0.5077
 9191TIP3   OH227533   5.933   4.049   4.759 -0.2672  0.5555 -0.6974
 9191TIP3    H127534   5.945   4.133   4.716 -1.2499  0.2351 -1.6108
 9191TIP3    H227535   5.974   4.060   4.844  2.1971  1.0240 -1.9121
 9192TIP3   OH227536   6.192   3.979   6.333 -0.4100 -0.4397  0.8351
 9192TIP3    H127537   6.106   3.938   6.339  0.1204 -1.7546 -0.3751
 9192TIP3    H227538   6.204   4.022   6.418 -1.5792 -1.6009  1.5955
 9193TIP3   OH227539   1.062   2.982   3.313 -0.2839  0.3844 -0.2349
 9193TIP3    H127540   1.116   2.941   3.380  0.0605  1.9093  0.4599
 9193TIP3    H227541   0.973   2.956   3.334 -0.1748  0.8210  0.8200
 9194TIP3   OH227542   6.027   2.516   4.497 -0.0890 -0.5948  0.2952
 9194TIP3    H127543   6.098   2.463   4.534 -0.5883 -1.3389  0.1844
 9194TIP3    H227544   5.955   2.507   4.559 -0.9204 -1.8236 -0.8220
 9195TIP3   OH227545   1.411   7.055   0.370 -0.4845  0.3908 -0.4633
 9195TIP3    H127546   1.356   7.093   0.301 -1.1517  0.5423  0.1458
 9195TIP3    H227547   1.500   7.067   0.338 -0.7065  2.0251 -0.5223
 9196TIP3   OH227548   6.248   3.189   5.386 -0.0534  0.0955  0.1054
 9196TIP3    H127549   6.236   3.282   5.363 -5.2157 -0.6875 -1.0570
 9196TIP3    H227550   6.305   3.155   5.318 -0.8451  1.7327 -1.4297
 9197TIP3   OH227551   0.547   2.970   6.005 -0.3527 -0.6308 -0.2531
 9197TIP3    H127552   0.544   2.915   6.083 -1.1161  0.3233  0.4159
 9197TIP3    H227553   0.455   2.989   5.986 -0.2584 -2.0484 -2.2654
 9198TIP3   OH227554   4.767   2.523   3.768 -0.2172 -0.5578  0.5912
 9198TIP3    H127555   4.682   2.479   3.767 -0.7048  0.3744 -0.4786
 9198TIP3    H227556   4.792   2.529   3.675  1.7156 -2.1416  0.9634
 9199TIP3   OH227557   7.397   3.947   4.665  0.2659 -0.5315  0.1093
 9199TIP3    H127558   7.410   4.039   4.645  0.8725 -0.9955 -1.7433
 9199TIP3    H227559   7.309   3.943   4.702 -0.1086  0.6842 -0.5993
 9200TIP3   OH227560   5.116   1.010   1.988  0.4215  0.3318 -0.5793
 9200TIP3    H127561   5.118   0.939   2.052  0.3361  0.6781 -0.1916
 9200TIP3    H227562   5.193   0.995   1.932  0.2266 -0.2399 -0.6908
 9201TIP3   OH227563   7.500   1.650   3.765 -0.0805  0.5798 -0.4704
 9201TIP3    H127564   7.547   1.575   3.729 -0.2995  0.0437  0.3363
 9201TIP3    H227565   7.408   1.628   3.755 -0.1652  1.3474 -1.4645
 9202TIP3   OH227566   7.341   2.769   5.783 -0.0551 -0.1132  0.4750
 9202TIP3    H127567   7.252   2.733   5.783 -0.0848 -0.0992  2.3745
 9202TIP3    H227568   7.364   2.776   5.876  1.2748  1.4929  0.0527
 9203TIP3   OH227569   5.757   2.312   6.321  0.3830  0.0370 -0.0789
 9203TIP3    H127570   5.819   2.371   6.278  1.8372 -1.5231 -0.1624
 9203TIP3    H227571   5.746   2.239   6.260 -0.2620 -0.4925  0.6575
 9204TIP3   OH227572   7.414   4.165   5.152  0.4176  0.2033 -0.1360
 9204TIP3    H127573   7.388   4.173   5.060  0.4440 -0.0625 -0.1664
 9204TIP3    H227574   7.496   4.116   5.149 -1.2450 -2.7197  0.2442
 9205TIP3   OH227575   6.059   2.135   5.565 -0.2222 -0.5700 -0.0326
 9205TIP3    H127576   5.990   2.169   5.507 -0.3949 -2.7308 -1.1535
 9205TIP3    H227577   6.075   2.046   5.533  2.2438 -0.5295  0.9804
 9206TIP3   OH227578   0.201   1.698   5.564  0.6676  0.0376  0.1439
 9206TIP3    H127579   0.229   1.782   5.527  0.1898  0.6622  1.1805
 9206TIP3    H227580   0.271   1.674   5.624  1.3780 -0.9104 -1.0397
 9207TIP3   OH227581   6.825   4.960   5.610  0.1356 -0.3612 -0.2228
 9207TIP3    H127582   6.746   4.946   5.557 -0.9363  0.6479  1.0524
 9207TIP3    H227583   6.792   4.965   5.700  1.4292  1.9318  0.1508
 9208TIP3   OH227584   3.844   6.091   2.612 -0.0016  0.0601  0.3546
 9208TIP3    H127585   3.769   6.074   2.670 -0.5080  3.2023  0.7360
 9208TIP3    H227586   3.805   6.101   2.525  0.2870 -0.8369  0.1235
 9209TIP3   OH227587   6.200   1.149   5.959  0.0978  0.2009  0.3066
 9209TIP3    H127588   6.224   1.119   5.872 -1.5660  2.3241 -0.9524
 9209TIP3    H227589   6.182   1.069   6.009  1.8124 -1.0557 -1.0654
 9210TIP3   OH227590   2.618   5.562   0.192  0.4268  0.4449 -0.0849
 9210TIP3    H127591   2.567   5.562   0.111  0.9029 -0.5998 -0.3957
 9210TIP3    H227592   2.690   5.622   0.175 -0.5861  1.7766  0.2878
 9211TIP3   OH227593   7.628   1.985   6.121  0.1021  0.4727 -0.4521
 9211TIP3    H127594   7.672   1.919   6.174 -1.3546 -0.3391 -0.2341
 9211TIP3    H227595   7.601   2.053   6.183 -0.6381  0.0443 -0.2963
 9212TIP3   OH227596   7.686   2.319   6.052  0.3765 -0.6636  0.3589
 9212TIP3    H127597   7.676   2.315   6.147 -0.2615  1.1393  0.3843
 9212TIP3    H227598   7.629   2.249   6.019  0.3769 -1.1057  1.2856
 9213TIP3   OH227599   0.073   1.525   4.934 -0.5441 -0.0621 -0.2142
 9213TIP3    H127600   0.160   1.511   4.972 -1.3529 -0.6124  1.4803
 9213TIP3    H227601   0.088   1.524   4.839  0.8847 -3.0376 -0.0197
 9214TIP3   OH227602   6.972   0.871   4.421 -0.2392  0.1670 -0.6575
 9214TIP3    H127603   7.032   0.836   4.355  0.8534 -0.2655  0.5363
 9214TIP3    H227604   7.005   0.837   4.504 -2.8344 -1.0581 -0.0594
 9215TIP3   OH227605   6.614   0.910   6.287 -0.3449  0.7374  0.1402
 9215TIP3    H127606   6.703   0.891   6.257 -1.0412 -1.0148 -0.8498
 9215TIP3    H227607   6.590   0.991   6.241  0.4265  0.7604 -0.2224
 9216TIP3   OH227608   6.645   2.700   3.483 -0.2650 -0.1534 -0.3059
 9216TIP3    H127609   6.713   2.685   3.549  0.4598 -2.6401 -1.5366
 9216TIP3    H227610   6.662   2.788   3.450 -0.1085  0.7916  2.1663
 9217TIP3   OH227611   0.928   1.790   4.947 -0.2063 -0.0169  0.7670
 9217TIP3    H127612   0.931   1.696   4.964 -0.1099 -0.2716 -0.6370
 9217TIP3    H227613   0.952   1.830   5.031  2.4370 -1.2883  0.6832
 9218TIP3   OH227614   0.373   5.605   1.541 -0.1439 -0.2970 -0.1582
 9218TIP3    H127615   0.284   5.585   1.569 -0.0818 -1.0571 -0.4900
 9218TIP3    H227616   0.373   5.700   1.525 -0.9864 -0.3551 -0.5076
 9219TIP3   OH227617   1.417   6.733   1.572  0.7806  0.4367  0.4422
 9219TIP3    H127618   1.426   6.824   1.544 -1.6940  0.7604  0.6469
 9219TIP3    H227619   1.390   6.738   1.663 -0.5608 -0.4633  0.1077
 9220TIP3   OH227620   3.686   7.057   1.055  0.2109 -0.3782  0.2893
 9220TIP3    H127621   3.757   7.039   0.994 -0.1003 -1.6548  0.2795
 9220TIP3    H227622   3.639   7.131   1.017  1.5398  0.4757  0.3094
 9221TIP3   OH227623   7.741   2.129   4.485 -0.1763  0.0687  0.0447
 9221TIP3    H127624   7.648   2.121   4.505  0.4690 -1.4432  2.6721
 9221TIP3    H227625   7.759   2.223   4.490 -0.5636  0.0251  4.6716
 9222TIP3   OH227626   5.263   2.482   5.278 -0.1958  0.3494 -0.0883
 9222TIP3    H127627   5.319   2.535   5.335  1.4358  0.5333 -1.8149
 9222TIP3    H227628   5.202   2.545   5.238  0.6222  0.6839 -0.8245
 9223TIP3   OH227629   5.176   3.127   4.559  0.0632  0.3984  0.2796
 9223TIP3    H127630   5.201   3.040   4.592 -3.5397  0.1606  2.6615
 9223TIP3    H227631   5.105   3.109   4.497 -0.1975  1.6015  0.2268
 9224TIP3   OH227632   7.343   3.172   3.984  0.4246 -0.0133  0.1754
 9224TIP3    H127633   7.298   3.236   3.929  0.6225 -0.7266 -0.8295
 9224TIP3    H227634   7.290   3.093   3.977  1.0608 -0.4436  0.0924
 9225TIP3   OH227635   2.796   5.779   1.379 -0.0612  0.0354 -0.1315
 9225TIP3    H127636   2.721   5.824   1.419  0.1034  0.5838 -0.4228
 9225TIP3    H227637   2.826   5.840   1.311  1.4236  0.3845  0.8107
 9226TIP3   OH227638   0.156   1.739   3.993  0.4001 -0.1188 -0.0609
 9226TIP3    H127639   0.251   1.747   3.986  0.4478 -0.8666 -0.3659
 9226TIP3    H227640   0.127   1.722   3.903 -0.1208  1.1151 -0.1282
 9227TIP3   OH227641   1.808   6.611   0.314  0.1065  0.0562  0.2340
 9227TIP3    H127642   1.767   6.531   0.282 -0.8482  0.7098 -0.2144
 9227TIP3    H227643   1.845   6.587   0.399 -2.3483 -0.2479  1.2615
 9228TIP3   OH227644   7.100   1.673   5.303 -0.7612 -0.4286 -0.2002
 9228TIP3    H127645   7.045   1.731   5.355 -0.0491  0.2770 -0.2244
 9228TIP3    H227646   7.166   1.731   5.265  1.1761 -1.5193  1.3936
 9229TIP3   OH227647   0.201   1.206   6.144  0.0221  0.0638  0.2729
 9229TIP3    H127648   0.222   1.174   6.232 -0.7684 -0.2018  0.3618
 9229TIP3    H227649   0.108   1.189   6.133  0.0667  0.3112 -0.5325
 9230TIP3   OH227650   6.543   5.261   5.582  0.3086 -0.3376  0.7516
 9230TIP3    H127651   6.626   5.241   5.538  0.1227  0.8322 -0.1867
 9230TIP3    H227652   6.479   5.206   5.538  0.6102 -1.3905  1.6123
 9231TIP3   OH227653   0.230   3.632   6.187  0.1629 -0.4382 -1.1078
 9231TIP3    H127654   0.166   3.564   6.204  0.5671 -0.6007 -0.1690
 9231TIP3    H227655   0.193   3.711   6.227  1.3718 -0.9446  1.0594
 9232TIP3   OH227656   3.308   2.411   6.199  0.0459 -0.5736  0.0349
 9232TIP3    H127657   3.358   2.492   6.208 -0.5094 -0.3827  1.4106
 9232TIP3    H227658   3.330   2.379   6.111  1.9623 -0.0802  0.3231
 9233TIP3   OH227659   2.758   6.937   0.960  0.4299 -0.5492 -0.6077
 9233TIP3    H127660   2.746   6.972   0.872  0.0571  1.2327  0.1059
 9233TIP3    H227661   2.814   7.002   1.004  1.9302 -2.2198 -0.0108
 9234TIP3   OH227662   0.650   6.330   1.176 -0.4941 -0.2582 -0.4261
 9234TIP3    H127663   0.620   6.363   1.261  0.5260 -2.0558  0.6647
 9234TIP3    H227664   0.707   6.256   1.198  2.8445  1.5541 -2.4994
 9235TIP3   OH227665   0.072   2.697   4.252 -0.4474 -0.2350  0.5019
 9235TIP3    H127666   0.145   2.641   4.279  0.3115  0.3218 -0.3731
 9235TIP3    H227667   0.065   2.683   4.158 -1.3501 -0.1267  0.5494
 9236TIP3   OH227668   1.119   3.489   6.138  0.7069 -0.2403 -0.5905
 9236TIP3    H127669   1.114   3.399   6.170  3.3393  0.1129  1.0107
 9236TIP3    H227670   1.047   3.534   6.181 -1.1526 -1.7567 -2.0681
 9237TIP3   OH227671   2.171   6.563   1.608 -0.1483  0.3167  0.3518
 9237TIP3    H127672   2.081   6.534   1.619  0.0161  0.3337  1.8753
 9237TIP3    H227673   2.168   6.658   1.619  0.2810  0.1469  2.0073
 9238TIP3   OH227674   2.605   6.795   0.669 -0.0647 -0.2438  0.2289
 9238TIP3    H127675   2.549   6.809   0.592 -0.2967  0.4844  0.5282
 9238TIP3    H227676   2.695   6.803   0.635 -0.1821  2.6026  0.4773
 9239TIP3   OH227677   2.007   7.062   0.029  0.6055 -0.0759 -0.5978
 9239TIP3    H127678   2.090   7.100   0.057 -0.3120  1.3289  0.2883
 9239TIP3    H227679   1.962   7.133  -0.017 -1.8957  0.5541  2.6306
 9240TIP3   OH227680   4.599   2.982   3.903 -0.3314  0.0181  0.0171
 9240TIP3    H127681   4.566   3.072   3.898 -0.0203  0.1292 -0.0847
 9240TIP3    H227682   4.576   2.953   3.991 -0.3241  0.2408  0.0934
 9241TIP3   OH227683   7.099   3.659   5.507 -0.2341  0.0349 -0.3452
 9241TIP3    H127684   7.092   3.625   5.418 -0.1912 -1.1011  0.0820
 9241TIP3    H227685   7.023   3.625   5.553  0.5549 -0.6551  0.4719
 9242TIP3   OH227686   6.982   2.104   5.680 -0.0873  0.3432 -0.1449
 9242TIP3    H127687   6.967   2.021   5.724 -0.5334  0.7322  0.4537
 9242TIP3    H227688   7.074   2.125   5.697  0.6205 -1.0570 -2.1018
 9243TIP3   OH227689   0.415   3.152   5.643 -0.7180 -0.2797  0.3778
 9243TIP3    H127690   0.392   3.196   5.725 -0.1497  1.8587 -0.5833
 9243TIP3    H227691   0.355   3.188   5.579  0.1205 -0.4901 -0.5391
 9244TIP3   OH227692   7.688   4.289   4.326  0.3145 -0.2547  0.2022
 9244TIP3    H127693   7.644   4.317   4.406  0.4226  0.0777  0.1469
 9244TIP3    H227694   7.640   4.333   4.255 -0.3629 -1.2821  0.0145
 9245TIP3   OH227695   0.199   4.282   5.576  0.2823  0.0598  0.0203
 9245TIP3    H127696   0.148   4.270   5.655  2.2417 -0.1607  1.2707
 9245TIP3    H227697   0.171   4.211   5.518  0.2238 -0.9267  1.2394
 9246TIP3   OH227698   2.491   6.907   1.740  0.5001  0.5370  0.3184
 9246TIP3    H127699   2.522   6.832   1.793  0.4535 -0.1596 -0.6332
 9246TIP3    H227700   2.572   6.950   1.711  0.5689 -0.2976 -0.7620
 9247TIP3   OH227701   1.306   4.603   5.690 -0.2092 -0.5592  0.3095
 9247TIP3    H127702   1.321   4.568   5.602  0.5548 -1.5628  0.8320
 9247TIP3    H227703   1.388   4.646   5.714 -0.4621 -0.1692  0.4776
 9248TIP3   OH227704   0.582   3.858   6.300 -0.3093  0.3700  0.5362
 9248TIP3    H127705   0.668   3.844   6.338  0.8359  3.2169 -0.8441
 9248TIP3    H227706   0.591   3.833   6.208 -0.4997  2.0348  0.0349
 9249TIP3   OH227707   5.391   6.577   4.889 -0.1665 -0.0395  0.1913
 9249TIP3    H127708   5.435   6.536   4.963 -0.1139  0.9399  0.7126
 9249TIP3    H227709   5.299   6.583   4.916  0.0820  1.5556  0.7577
 9250TIP3   OH227710   2.339   0.142   0.283 -0.0213  0.3063 -0.1359
 9250TIP3    H127711   2.338   0.087   0.362  0.1988 -0.2401 -0.5076
 9250TIP3    H227712   2.274   0.210   0.300 -1.0939 -0.7083 -0.1163
 9251TIP3   OH227713   0.373   3.267   6.222  0.6636  0.3982 -0.4472
 9251TIP3    H127714   0.289   3.231   6.252  0.6583 -0.0705 -1.0119
 9251TIP3    H227715   0.428   3.268   6.300  1.4176 -3.0011 -0.8457
 9252TIP3   OH227716   6.347   5.058   5.479 -0.1710  0.0560 -0.4345
 9252TIP3    H127717   6.274   5.084   5.424 -0.7979 -1.1692 -0.1945
 9252TIP3    H227718   6.307   5.021   5.558  0.6873 -1.1837 -0.5594
 9253TIP3   OH227719   5.173   0.952   1.129  0.3299 -0.1456 -0.4530
 9253TIP3    H127720   5.113   0.987   1.063 -0.4420  0.2727  0.4530
 9253TIP3    H227721   5.199   0.867   1.094 -0.5859 -0.2172 -0.9888
 9254TIP3   OH227722   0.363   3.999   6.323  0.1630 -0.1091 -0.1502
 9254TIP3    H127723   0.384   4.069   6.261 -0.3965 -1.1364 -1.5441
 9254TIP3    H227724   0.445   3.951   6.333  0.7000  1.0649  1.2602
 9255TIP3   OH227725   0.169   4.292   5.234  0.2141 -0.1076 -0.1532
 9255TIP3    H127726   0.140   4.205   5.208 -0.4031 -0.8943  2.9530
 9255TIP3    H227727   0.140   4.349   5.163 -0.9232 -2.1724 -1.4084
 9256TIP3   OH227728   7.027   4.614   5.681 -0.1704  0.7081 -0.1451
 9256TIP3    H127729   7.020   4.661   5.764  0.9609  1.2417 -0.3461
 9256TIP3    H227730   7.054   4.525   5.706  1.1945  1.1542 -0.0052
 9257TIP3   OH227731   7.759   2.812   5.842  0.0401 -0.1745 -0.1638
 9257TIP3    H127732   7.764   2.891   5.895  1.1289 -0.7275  0.5943
 9257TIP3    H227733   7.777   2.741   5.904 -0.4399 -0.9791 -0.9290
 9258TIP3   OH227734   4.590   2.963   5.130  0.3092  0.9287 -0.3640
 9258TIP3    H127735   4.550   3.049   5.115  0.1293  0.9871  0.3891
 9258TIP3    H227736   4.580   2.917   5.047  0.5512  1.6955 -0.8231
 9259TIP3   OH227737   6.186   3.474   5.759 -0.0541 -0.0768 -0.4042
 9259TIP3    H127738   6.106   3.425   5.780  0.8497 -1.4394 -0.0597
 9259TIP3    H227739   6.256   3.408   5.760  1.1818  1.2037 -0.0067
 9260TIP3   OH227740   1.426   0.322   0.415  0.5834 -0.1754  0.2963
 9260TIP3    H127741   1.392   0.234   0.398  1.1115 -0.5476  1.0981
 9260TIP3    H227742   1.472   0.346   0.335  0.8815 -0.8535  0.2543
 9261TIP3   OH227743   1.083   6.671   0.609  0.4946 -0.0032  0.2580
 9261TIP3    H127744   1.106   6.752   0.656  0.8105 -0.0160  0.1315
 9261TIP3    H227745   1.055   6.701   0.522  4.3036 -0.2206 -1.1766
 9262TIP3   OH227746   5.951   2.754   6.075  0.2957 -0.0061 -0.0500
 9262TIP3    H127747   5.978   2.798   5.994 -0.4652 -0.1777 -0.3987
 9262TIP3    H227748   5.856   2.767   6.079  0.3861  0.3651  1.0365
 9263TIP3   OH227749   6.845   1.223   4.147 -0.6387 -0.1662  0.6734
 9263TIP3    H127750   6.890   1.190   4.225 -0.4215 -0.2460  0.5125
 9263TIP3    H227751   6.900   1.294   4.114 -0.8796  0.0622  0.7591
 9264TIP3   OH227752   6.697   3.050   5.280  0.2480 -0.1569 -0.4661
 9264TIP3    H127753   6.723   3.087   5.196 -2.6043  1.6475 -0.5869
 9264TIP3    H227754   6.764   3.080   5.341  0.6030  1.1596 -1.4845
 9265TIP3   OH227755   7.666   2.381   4.889  0.0069  0.0093  0.3539
 9265TIP3    H127756   7.680   2.471   4.920  1.7619  0.3423 -1.3534
 9265TIP3    H227757   7.727   2.328   4.942  0.3604  0.0860  0.0251
 9266TIP3   OH227758   6.007   3.496   5.365 -0.3571  0.0021  0.2963
 9266TIP3    H127759   5.970   3.582   5.347  0.8931  0.5138  0.1059
 9266TIP3    H227760   6.101   3.507   5.350 -0.3722 -1.7891 -1.2025
 9267TIP3   OH227761   3.069   5.917   0.785  0.0503  0.0770  0.1162
 9267TIP3    H127762   3.027   5.866   0.855  2.0673  0.1722  1.4527
 9267TIP3    H227763   3.045   5.872   0.704  0.4902 -2.0622  1.1479
 9268TIP3   OH227764   3.435   6.106   2.115 -0.1623 -0.1863  0.1323
 9268TIP3    H127765   3.379   6.030   2.102  1.2638 -1.1930 -0.2397
 9268TIP3    H227766   3.443   6.144   2.028 -0.9059  0.4316  0.3245
 9269TIP3   OH227767   7.770   1.403   4.420 -0.2215  0.1375 -0.5471
 9269TIP3    H127768   7.684   1.407   4.461  0.4104  2.2709  0.6447
 9269TIP3    H227769   7.804   1.317   4.444 -0.0113  1.1727  3.2017
 9270TIP3   OH227770   1.175   3.743   5.363 -0.2514 -0.4068  0.6136
 9270TIP3    H127771   1.255   3.795   5.369 -0.7433  0.5463 -0.6067
 9270TIP3    H227772   1.136   3.749   5.450 -0.1674  1.1144  0.5736
 9271TIP3   OH227773   2.449   6.472   1.525  0.0484 -0.1484  0.0455
 9271TIP3    H127774   2.359   6.481   1.556  0.6890  0.9507  1.7006
 9271TIP3    H227775   2.485   6.560   1.532  1.0301 -0.4192 -1.3752
 9272TIP3   OH227776   0.253   3.425   5.636  0.1592  0.0759  0.6118
 9272TIP3    H127777   0.226   3.348   5.686 -1.0563 -0.2290 -0.4751
 9272TIP3    H227778   0.342   3.444   5.666 -0.0915 -0.8485  1.9663
 9273TIP3   OH227779   7.460   5.046   4.477  0.1515 -0.5526 -0.2877
 9273TIP3    H127780   7.508   5.061   4.396 -2.1864 -0.2160 -1.6681
 9273TIP3    H227781   7.377   5.007   4.448 -0.5251 -0.8414  1.9825
 9274TIP3   OH227782   6.825   3.330   6.218  0.2669 -0.3132  0.1220
 9274TIP3    H127783   6.804   3.420   6.244  2.4115  0.1800  0.2393
 9274TIP3    H227784   6.761   3.309   6.151  0.8053  1.9373 -1.1356
 9275TIP3   OH227785   6.694   4.987   0.172 -0.1031  0.2262 -0.2293
 9275TIP3    H127786   6.639   5.033   0.109 -0.5285 -0.5835 -0.4601
 9275TIP3    H227787   6.665   4.896   0.166  1.4629 -0.2652 -0.5817
 9276TIP3   OH227788   7.510   4.954   5.962  0.1634  0.0828  0.6255
 9276TIP3    H127789   7.483   5.042   5.987  1.9360  0.2360  2.1245
 9276TIP3    H227790   7.481   4.899   6.035 -1.2460 -0.6514 -0.4608
 9277TIP3   OH227791   2.776   5.832   0.674 -0.3308 -0.0363  0.1779
 9277TIP3    H127792   2.858   5.794   0.641 -1.2548 -1.8433 -0.1108
 9277TIP3    H227793   2.716   5.826   0.600 -0.1828  3.1299 -0.2501
 9278TIP3   OH227794   6.186   5.230   6.044  0.2614  0.2468  0.0228
 9278TIP3    H127795   6.189   5.306   6.103 -1.1977 -0.3669  0.9196
 9278TIP3    H227796   6.100   5.192   6.058  0.5952 -0.9964 -1.1719
 9279TIP3   OH227797   6.816   3.592   6.341  0.1768  0.3507 -0.3284
 9279TIP3    H127798   6.741   3.640   6.305  0.0325 -0.7353 -1.4940
 9279TIP3    H227799   6.811   3.609   6.435 -0.3147  1.9843 -0.6202
 9280TIP3   OH227800   1.202   7.311   1.142  0.6074 -0.1477  0.0749
 9280TIP3    H127801   1.131   7.371   1.119  2.1189  1.7272  0.1346
 9280TIP3    H227802   1.193   7.238   1.081  0.9186  1.8902 -2.5040
 9281TIP3   OH227803   7.191   3.485   3.326 -0.1603 -0.4524  0.3672
 9281TIP3    H127804   7.172   3.546   3.397 -2.8663  0.3277 -0.9807
 9281TIP3    H227805   7.286   3.492   3.313 -0.0510  1.4671  2.0216
 9282TIP3   OH227806   6.986   1.445   6.017 -0.9435  0.2734 -0.5893
 9282TIP3    H127807   6.907   1.393   6.030 -2.3125  2.5937  0.6561
 9282TIP3    H227808   6.978   1.480   5.928 -0.3924 -1.0155 -1.1468
 9283TIP3   OH227809   1.251   4.384   5.860  0.8382 -0.0397  0.1472
 9283TIP3    H127810   1.326   4.345   5.903  1.4693  0.9286 -0.0584
 9283TIP3    H227811   1.283   4.467   5.825 -0.3724  0.4916  0.2424
 9284TIP3   OH227812   0.939   7.186   1.955  0.5262  0.1267  0.7932
 9284TIP3    H127813   0.881   7.262   1.946  0.8638  0.4224  1.0961
 9284TIP3    H227814   0.884   7.118   1.995  0.5939  0.6484  1.7876
 9285TIP3   OH227815   6.820   2.712   4.004  0.0862  0.5111 -0.3321
 9285TIP3    H127816   6.816   2.638   4.064  0.0927  0.2698 -0.6265
 9285TIP3    H227817   6.904   2.702   3.959  0.8989  1.6895  0.8858
 9286TIP3   OH227818   3.979   1.141   1.206 -0.3651  0.1643  0.0361
 9286TIP3    H127819   3.940   1.149   1.119 -1.1996  2.2042  0.5571
 9286TIP3    H227820   3.905   1.122   1.264 -0.3477  2.1554  0.7538
 9287TIP3   OH227821   5.890   2.384   4.726 -0.2990 -0.2063 -0.0408
 9287TIP3    H127822   5.878   2.362   4.819  1.5563 -1.6621 -0.1226
 9287TIP3    H227823   5.934   2.308   4.689 -1.3953  0.1999 -2.2262
 9288TIP3   OH227824   3.126   6.971   0.109 -0.5793 -0.3062  0.5909
 9288TIP3    H127825   3.140   7.060   0.140 -0.9432 -0.2599  0.6216
 9288TIP3    H227826   3.042   6.944   0.148 -1.0914 -0.2132 -0.4342
 9289TIP3   OH227827   7.029   2.420   6.076  0.2162 -0.2208  0.1601
 9289TIP3    H127828   6.977   2.499   6.062 -3.5075 -2.6520 -0.5117
 9289TIP3    H227829   7.018   2.401   6.169 -0.7633 -1.1322 -0.1287
 9290TIP3   OH227830   5.864   1.035   0.956 -0.2216  0.1094 -0.6186
 9290TIP3    H127831   5.849   0.942   0.974  1.1097  0.0639  0.3286
 9290TIP3    H227832   5.956   1.049   0.978 -0.2021  1.4717 -1.5394
 9291TIP3   OH227833   7.334   2.653   6.053  0.0535 -0.6883  0.1206
 9291TIP3    H127834   7.300   2.730   6.098 -0.7690 -0.0743 -1.4741
 9291TIP3    H227835   7.345   2.587   6.121 -0.3563  0.4659  1.3198
 9292TIP3   OH227836   2.122   5.059   0.287 -0.1396 -0.0093 -0.2588
 9292TIP3    H127837   2.198   5.113   0.309  0.0179 -0.8404  1.3556
 9292TIP3    H227838   2.159   4.979   0.251 -0.2211 -0.5199  0.7663
 9293TIP3   OH227839   4.405   1.871   0.820  0.0263 -0.2635  0.2414
 9293TIP3    H127840   4.400   1.966   0.830 -1.8707 -0.3273  0.2264
 9293TIP3    H227841   4.323   1.839   0.858 -0.4538 -1.7015 -1.9183
 9294TIP3   OH227842   1.098   2.775   3.871 -0.2006 -0.1019 -0.7884
 9294TIP3    H127843   1.088   2.870   3.868  1.0812  0.0217 -2.1337
 9294TIP3    H227844   1.136   2.758   3.957  1.3198  0.8133 -1.2532
 9295TIP3   OH227845   6.857   4.721   5.454  0.5846 -0.3823  0.4906
 9295TIP3    H127846   6.861   4.817   5.455  0.4458 -0.3621 -0.2834
 9295TIP3    H227847   6.920   4.693   5.520  1.4840  0.2264 -0.1006
 9296TIP3   OH227848   0.597   5.051   0.640  0.1117 -0.3473 -0.2673
 9296TIP3    H127849   0.532   5.051   0.569  0.2286 -0.8334 -0.3741
 9296TIP3    H227850   0.618   5.144   0.653  0.4159 -0.2856 -1.1667
 9297TIP3   OH227851   7.811   5.818   0.527  0.3259  0.4394  0.1181
 9297TIP3    H127852   7.717   5.808   0.542  0.3790  0.8112  0.7074
 9297TIP3    H227853   7.819   5.830   0.432 -0.3044  1.3286  0.1720
 9298TIP3   OH227854   3.777   5.610   0.851  0.0784 -0.0417  0.0919
 9298TIP3    H127855   3.796   5.701   0.875  0.5250  0.1036 -0.7713
 9298TIP3    H227856   3.796   5.607   0.757 -0.0365 -1.0005  0.1039
 9299TIP3   OH227857   1.692   5.752   1.035  0.1883  0.1886 -0.3332
 9299TIP3    H127858   1.631   5.697   1.085  0.7086 -3.8031 -3.7953
 9299TIP3    H227859   1.635   5.806   0.981 -0.3281 -0.3489 -0.3387
 9300TIP3   OH227860   7.048   6.081   0.058  0.1454 -0.3879 -0.8741
 9300TIP3    H127861   7.134   6.120   0.072  0.5818 -1.6042 -0.0599
 9300TIP3    H227862   7.067   5.990   0.032 -0.9099 -1.4574  1.9051
 9301TIP3   OH227863   1.949   5.309   0.349  0.1186  0.3835 -0.8375
 9301TIP3    H127864   1.939   5.287   0.257 -2.1271 -0.2934 -0.4659
 9301TIP3    H227865   1.905   5.393   0.359  0.2125  0.3804 -0.3629
 9302TIP3   OH227866   1.453   5.293   2.419  0.0307  0.5853  0.5043
 9302TIP3    H127867   1.442   5.317   2.327 -1.0319 -0.2039  0.4229
 9302TIP3    H227868   1.413   5.365   2.468  0.7042  1.0645  0.3567
 9303TIP3   OH227869   5.929   2.430   5.530  0.8164  0.7764 -0.7974
 9303TIP3    H127870   5.911   2.514   5.486 -0.4602  1.3739  0.8017
 9303TIP3    H227871   5.919   2.365   5.461 -0.5926  1.7482 -1.5589
 9304TIP3   OH227872   6.956   6.832   1.750 -0.0790 -0.2452 -0.6349
 9304TIP3    H127873   6.867   6.863   1.737 -0.2640  0.4738  2.1016
 9304TIP3    H227874   6.955   6.790   1.836  2.0574 -0.8886 -0.8809
 9305TIP3   OH227875   0.686   5.259   0.101  0.3019 -0.3173 -0.2150
 9305TIP3    H127876   0.641   5.338   0.129 -0.8306 -1.2997  0.8063
 9305TIP3    H227877   0.717   5.219   0.182  4.6419  1.2456 -0.9915
 9306TIP3   OH227878   0.662   5.698   1.312 -0.7373  0.2459  0.1982
 9306TIP3    H127879   0.755   5.680   1.327 -0.6918 -0.3628 -0.8201
 9306TIP3    H227880   0.624   5.698   1.400 -0.2756 -2.2960  0.4204
 9307TIP3   OH227881   6.800   4.604   4.343 -0.2444 -0.8692  0.2123
 9307TIP3    H127882   6.738   4.538   4.373  0.5507 -1.7155  0.0335
 9307TIP3    H227883   6.775   4.621   4.252 -1.2199 -0.0091  0.6414
 9308TIP3   OH227884   3.249   0.956   1.075  0.0144  0.1180  0.3427
 9308TIP3    H127885   3.184   0.898   1.036 -1.2208  2.0511 -0.5379
 9308TIP3    H227886   3.208   0.989   1.155  0.5998 -0.0016  0.6960
 9309TIP3   OH227887   2.774   6.307   0.234  0.0212 -0.0571 -0.2579
 9309TIP3    H127888   2.680   6.300   0.251 -0.0735  0.7734 -0.4094
 9309TIP3    H227889   2.811   6.339   0.317  0.1562 -0.2971 -0.2262
 9310TIP3   OH227890   3.731   6.875   0.142 -0.9057  0.5913  0.1774
 9310TIP3    H127891   3.701   6.789   0.173 -1.0469  0.8662  0.8064
 9310TIP3    H227892   3.682   6.890   0.062 -2.1966  0.8797  1.0124
 9311TIP3   OH227893   3.833   0.070   0.566  0.4529 -0.0967  0.1439
 9311TIP3    H127894   3.928   0.086   0.558  0.5401  0.3846  1.7823
 9311TIP3    H227895   3.802   0.143   0.621 -0.7725 -0.5614  0.0759
 9312TIP3   OH227896   0.168   3.942   3.654 -0.3017  0.0412 -0.6030
 9312TIP3    H127897   0.250   3.989   3.640 -0.5590  0.5465 -0.4428
 9312TIP3    H227898   0.115   4.002   3.707 -0.7249 -0.3338 -0.5983
 9313TIP3   OH227899   2.452   7.248   1.125 -0.3404 -0.1076  0.2590
 9313TIP3    H127900   2.496   7.283   1.047  2.1357  0.6364  1.9389
 9313TIP3    H227901   2.479   7.157   1.129 -0.7206 -0.2313  0.1138
 9314TIP3   OH227902   6.855   3.282   4.394 -0.0772 -0.4387 -0.3921
 9314TIP3    H127903   6.924   3.225   4.360 -1.9822 -3.2580  0.2590
 9314TIP3    H227904   6.784   3.274   4.330 -0.9285  0.0467  0.4751
 9315TIP3   OH227905   4.755   0.322   0.323  0.2321  0.6527 -0.1771
 9315TIP3    H127906   4.761   0.239   0.276  1.3596  0.2983  0.5765
 9315TIP3    H227907   4.666   0.353   0.307 -0.7435 -1.5104  0.9184
 9316TIP3   OH227908   1.415   5.336   4.792  0.3666 -0.1756  0.3485
 9316TIP3    H127909   1.326   5.346   4.826  0.5569  1.1419  0.4587
 9316TIP3    H227910   1.435   5.243   4.805 -0.1254 -0.0043  2.4269
 9317TIP3   OH227911   1.019   1.739   4.692  0.8517 -0.7129 -0.3324
 9317TIP3    H127912   1.096   1.792   4.714 -0.4094  0.4439  1.3990
 9317TIP3    H227913   0.964   1.743   4.770 -0.6680 -2.0799 -1.3056
 9318TIP3   OH227914   1.840   7.144   2.391 -0.3823  0.1205 -0.2680
 9318TIP3    H127915   1.903   7.074   2.412 -0.1843 -0.3273 -2.2792
 9318TIP3    H227916   1.760   7.097   2.369 -0.7379  0.6026  0.0127
 9319TIP3   OH227917   2.692   6.686   0.368 -0.4955 -0.5476 -0.1138
 9319TIP3    H127918   2.636   6.762   0.357  0.2692  0.2799  1.5958
 9319TIP3    H227919   2.632   6.615   0.390 -0.9715  0.1273  0.7993
 9320TIP3   OH227920   0.772   5.622   1.760  0.2736 -0.0915 -0.5966
 9320TIP3    H127921   0.690   5.671   1.754 -0.0581 -0.3075  1.8386
 9320TIP3    H227922   0.752   5.536   1.724 -0.8626 -0.4926  0.9685
 9321TIP3   OH227923   2.340   6.946   2.342  0.1193 -0.2245  0.1092
 9321TIP3    H127924   2.402   7.002   2.387 -1.3500  0.8943  0.7802
 9321TIP3    H227925   2.340   6.864   2.393  0.5109  0.0311  0.5189
 9322TIP3   OH227926   3.137   6.467   1.247 -0.0049  0.2128 -0.4284
 9322TIP3    H127927   3.231   6.449   1.246  0.4061  1.9444  2.2487
 9322TIP3    H227928   3.104   6.417   1.322 -0.7285  1.7422  0.2984
 9323TIP3   OH227929   1.323   1.149   5.360 -0.4397 -0.0256 -0.0153
 9323TIP3    H127930   1.233   1.118   5.373 -0.3803 -0.5477 -0.8149
 9323TIP3    H227931   1.363   1.143   5.447 -1.6283  1.7265  0.7061
 9324TIP3   OH227932   0.065   5.376   2.101 -0.5220  0.2716 -0.0811
 9324TIP3    H127933   0.091   5.466   2.121  0.6809  0.1951 -1.2686
 9324TIP3    H227934   0.145   5.334   2.071 -1.3610 -0.8333 -0.8055
 9325TIP3   OH227935   4.842   0.714   0.667  0.1364 -0.0741  0.3252
 9325TIP3    H127936   4.910   0.655   0.634  0.1162  0.9213 -1.5949
 9325TIP3    H227937   4.881   0.802   0.660 -1.2393  0.4829 -0.5827
 9326TIP3   OH227938   2.610   5.426   1.187  0.0275 -0.3860  0.2207
 9326TIP3    H127939   2.560   5.344   1.186  0.5990 -0.7332 -0.9762
 9326TIP3    H227940   2.556   5.487   1.237 -0.7332 -1.2903  0.5073
 9327TIP3   OH227941   2.615   2.942   5.744 -0.1449  0.6954  0.8328
 9327TIP3    H127942   2.654   2.967   5.827  1.5377  1.0340 -0.0376
 9327TIP3    H227943   2.648   3.006   5.681  0.2500 -0.7342 -0.4720
 9328TIP3   OH227944   0.250   6.927   0.803 -0.2011 -0.2263 -1.1284
 9328TIP3    H127945   0.230   6.844   0.846 -3.9574  2.0593  1.8874
 9328TIP3    H227946   0.328   6.959   0.848 -1.0795 -0.3054  0.4847
 9329TIP3   OH227947   1.800   5.104   0.545 -0.0826  0.2248 -0.1988
 9329TIP3    H127948   1.708   5.094   0.567  0.0179  1.0793  0.6578
 9329TIP3    H227949   1.806   5.192   0.506  0.6150  0.8174  1.1863
 9330TIP3   OH227950   2.125   3.072   4.805 -0.4630  0.3433  0.4056
 9330TIP3    H127951   2.118   3.163   4.777  3.2284  0.9787  1.2841
 9330TIP3    H227952   2.149   3.024   4.725  1.1139  0.7401  0.6192
 9331TIP3   OH227953   1.248   6.465   0.089 -0.2188 -0.0377  0.5179
 9331TIP3    H127954   1.287   6.454   0.002  0.0358 -0.4256  0.6774
 9331TIP3    H227955   1.219   6.378   0.113 -0.6824  0.1506  0.6415
 9332TIP3   OH227956   6.190   0.682   1.321 -0.8230 -0.6034 -0.5709
 9332TIP3    H127957   6.204   0.714   1.231 -2.6648  0.2472 -0.5784
 9332TIP3    H227958   6.225   0.593   1.321  0.2125 -0.2189 -1.8156
 9333TIP3   OH227959   6.658   1.959   6.332  0.2329 -0.3500 -0.6872
 9333TIP3    H127960   6.731   1.897   6.326  0.1552 -0.4955 -0.1468
 9333TIP3    H227961   6.686   2.034   6.280  1.8645  0.6522  1.5188
 9334TIP3   OH227962   7.076   3.785   6.050  0.2790 -0.2189  0.3494
 9334TIP3    H127963   7.165   3.791   6.017  0.1800 -0.1353  0.1040
 9334TIP3    H227964   7.051   3.875   6.071  0.2731 -0.2491  0.4763
 9335TIP3   OH227965   5.416   3.200   5.734 -0.2642 -0.2395 -0.0130
 9335TIP3    H127966   5.455   3.113   5.729  2.3453  0.7513  1.8335
 9335TIP3    H227967   5.342   3.190   5.793  1.0763 -0.9224  1.6051
 9336TIP3   OH227968   7.093   2.640   5.760 -0.6667 -0.1993  0.4137
 9336TIP3    H127969   7.017   2.696   5.778  0.3614  1.2866  0.2415
 9336TIP3    H227970   7.059   2.551   5.768 -2.0455  0.4297  1.9784
 9337TIP3   OH227971   6.680   4.874   4.573 -0.0890 -0.3251  0.1884
 9337TIP3    H127972   6.755   4.927   4.545 -0.3777 -0.3529 -0.6351
 9337TIP3    H227973   6.699   4.853   4.665  1.0373 -0.5593 -0.0962
 9338TIP3   OH227974   6.538   2.501   4.364  0.4078 -0.1500  0.0383
 9338TIP3    H127975   6.500   2.424   4.407 -0.6670  0.3308 -0.0308
 9338TIP3    H227976   6.474   2.571   4.380  0.6660  0.3657 -1.1590
 9339TIP3   OH227977   4.049   0.675   0.662 -0.2769 -0.2300 -0.2568
 9339TIP3    H127978   4.002   0.747   0.704 -0.9162 -0.8006  0.0049
 9339TIP3    H227979   4.035   0.600   0.719  0.3600 -0.5796 -0.5482
 9340TIP3   OH227980   6.186   4.191   4.335  0.2580  0.1809  0.1198
 9340TIP3    H127981   6.260   4.153   4.381 -0.3323 -1.3227 -0.1338
 9340TIP3    H227982   6.110   4.172   4.391 -0.1399  0.3309 -0.3632
 9341TIP3   OH227983   6.489   3.322   5.441 -0.6271  0.1712  0.2693
 9341TIP3    H127984   6.513   3.372   5.518  2.0305 -0.9921  0.2643
 9341TIP3    H227985   6.438   3.382   5.387  1.8377  2.6306  0.5972
 9342TIP3   OH227986   4.822   1.589   1.438 -0.5361  0.3068 -0.0887
 9342TIP3    H127987   4.865   1.633   1.512 -1.0865  0.4088  0.1725
 9342TIP3    H227988   4.895   1.555   1.385 -0.1315 -0.4043  0.8856
 9343TIP3   OH227989   4.280   1.053   0.556 -0.4305 -0.4396 -0.3032
 9343TIP3    H127990   4.249   0.995   0.626 -1.9091  1.1468  0.4176
 9343TIP3    H227991   4.309   1.132   0.602  0.2277 -0.0658 -1.3571
 9344TIP3   OH227992   3.383   7.187   0.131 -0.0307  0.0621 -0.0784
 9344TIP3    H127993   3.310   7.225   0.178 -0.0599  1.0460 -0.8896
 9344TIP3    H227994   3.404   7.107   0.179  0.3781  1.3620  1.9796
 9345TIP3   OH227995   0.692   4.731   4.871 -0.1205 -0.7012  0.0014
 9345TIP3    H127996   0.688   4.795   4.800  0.9716  0.0037  0.5520
 9345TIP3    H227997   0.615   4.750   4.925 -0.6312 -0.8560 -0.6705
 9346TIP3   OH227998   5.922   2.205   5.350  0.3072  0.1245  0.4378
 9346TIP3    H127999   5.980   2.254   5.291  0.4194 -0.7357 -0.1778
 9346TIP3    H228000   5.906   2.123   5.304  0.1514 -0.4337  1.4811
 9347TIP3   OH228001   2.391   5.669   0.297  0.1060  0.2512 -0.3485
 9347TIP3    H128002   2.390   5.645   0.390 -0.8532 -0.1386 -0.4579
 9347TIP3    H228003   2.463   5.619   0.260  0.0905 -0.0773  0.0603
 9348TIP3   OH228004   0.081   3.862   6.291  0.4446  0.1377 -0.3991
 9348TIP3    H128005   0.094   3.939   6.346 -1.8565 -1.1653  2.0992
 9348TIP3    H228006   0.026   3.893   6.219  0.6446  1.1340 -0.1265
 9349TIP3   OH228007   6.180   1.371   5.067 -0.7645  0.0220 -0.4995
 9349TIP3    H128008   6.186   1.371   4.972  0.7889  2.5756 -0.4367
 9349TIP3    H228009   6.168   1.463   5.091  0.1059 -0.4260  1.8289
 9350TIP3   OH228010   5.413   2.785   6.180  0.0616  0.4401  0.6279
 9350TIP3    H128011   5.451   2.870   6.201  0.7786  0.5502 -1.0895
 9350TIP3    H228012   5.474   2.722   6.217  0.5733  0.6453  0.1249
 9351TIP3   OH228013   7.025   3.197   6.384 -0.5550 -0.3754 -0.2230
 9351TIP3    H128014   6.971   3.236   6.315  0.5938 -1.8455 -2.0065
 9351TIP3    H228015   7.092   3.263   6.402 -0.8522  0.0107 -0.5127
 9352TIP3   OH228016   0.067   3.463   5.461 -0.4441  0.0910  0.3511
 9352TIP3    H128017   0.143   3.460   5.518 -0.3156 -0.0627  0.1731
 9352TIP3    H228018   0.010   3.529   5.500  0.0137  0.5780  0.2023
 9353TIP3   OH228019   1.694   1.786   1.932 -0.2775  0.4210  0.2457
 9353TIP3    H128020   1.706   1.817   2.022 -1.6361 -1.4744  1.1199
 9353TIP3    H228021   1.752   1.710   1.925  0.8066  1.3185 -0.9375
 9354TIP3   OH228022   7.534   4.432   5.626  0.3287  0.3623 -0.4410
 9354TIP3    H128023   7.492   4.400   5.705  0.9390 -1.1564 -0.7185
 9354TIP3    H228024   7.539   4.355   5.568  1.1020  1.1345 -1.4227
 9355TIP3   OH228025   5.474   1.750   4.388  0.1579  0.2602 -0.0915
 9355TIP3    H128026   5.477   1.842   4.414 -1.2352  0.8656 -2.0114
 9355TIP3    H228027   5.423   1.707   4.457 -0.3459  1.1647  0.1006
 9356TIP3   OH228028   3.509   2.617   5.637  0.4963 -0.0732  0.3246
 9356TIP3    H128029   3.576   2.618   5.569  0.2195  1.8032  0.0549
 9356TIP3    H228030   3.497   2.709   5.660 -1.8618 -0.4015  0.4949
 9357TIP3   OH228031   0.162   6.540   3.536 -0.3410  0.0607 -0.6858
 9357TIP3    H128032   0.157   6.612   3.473 -0.1464  0.0536 -0.7098
 9357TIP3    H228033   0.075   6.501   3.535 -0.9823  1.4425  0.6919
 9358TIP3   OH228034   6.542   3.440   3.876 -0.7929 -0.3028  0.2194
 9358TIP3    H128035   6.482   3.374   3.842  0.3003 -0.6446 -1.0551
 9358TIP3    H228036   6.485   3.503   3.920 -2.0148 -1.0070 -0.3265
 9359TIP3   OH228037   6.824   6.691   1.323 -0.2774 -0.6263 -0.1127
 9359TIP3    H128038   6.825   6.662   1.232 -3.6720  0.8102 -0.6836
 9359TIP3    H228039   6.775   6.624   1.369 -2.0805  0.6457 -0.1332
 9360TIP3   OH228040   0.420   5.308   2.193 -0.0491  0.1760 -0.1909
 9360TIP3    H128041   0.412   5.374   2.262 -1.2716  0.0229 -0.1740
 9360TIP3    H228042   0.374   5.231   2.228 -0.6034  0.0664 -1.1408
 9361TIP3   OH228043   1.015   5.551   0.142  0.1594 -0.5470 -0.5008
 9361TIP3    H128044   1.038   5.511   0.058  1.3341 -0.8268 -0.0693
 9361TIP3    H228045   1.016   5.478   0.204  1.8939  0.0540  0.2183
 9362TIP3   OH228046   0.397   3.220   5.043  0.3360  0.0648  1.2253
 9362TIP3    H128047   0.358   3.227   4.956  2.3859  2.0552  0.3964
 9362TIP3    H228048   0.328   3.249   5.103 -0.0912  1.7143 -0.0336
 9363TIP3   OH228049   1.980   3.674   5.651  0.5284 -0.4458  0.0569
 9363TIP3    H128050   1.928   3.628   5.717  0.2563 -0.6006 -0.2665
 9363TIP3    H228051   1.946   3.642   5.567  0.9269 -0.3072 -0.1566
 9364TIP3   OH228052   7.807   4.342   6.021  0.3251 -0.0102 -0.1503
 9364TIP3    H128053   7.857   4.272   6.061 -0.6154 -0.7256 -0.2008
 9364TIP3    H228054   7.728   4.349   6.074 -0.0997  0.2530 -0.8058
 9365TIP3   OH228055   1.204   3.993   5.656  0.6198  0.1941  0.6060
 9365TIP3    H128056   1.263   3.949   5.717  0.7334  0.3469  0.6078
 9365TIP3    H228057   1.228   4.086   5.664 -1.2122  0.5583  2.3810
 9366TIP3   OH228058   3.139   6.447   0.488 -0.5651 -0.2451  0.8643
 9366TIP3    H128059   3.183   6.426   0.570  0.7141 -2.4044 -0.3165
 9366TIP3    H228060   3.051   6.411   0.498  0.1382 -2.0581  0.6574
 9367TIP3   OH228061   1.378   2.744   4.400 -0.8422 -0.3972  0.4829
 9367TIP3    H128062   1.291   2.776   4.377 -0.7458  0.8217  1.7444
 9367TIP3    H228063   1.362   2.658   4.439 -1.6629  0.5478  2.2940
 9368TIP3   OH228064   5.162   1.407   0.104  0.2339 -0.8519 -0.4687
 9368TIP3    H128065   5.084   1.399   0.159 -0.5253 -1.0247 -1.5607
 9368TIP3    H228066   5.235   1.411   0.166 -0.7821  1.2383  0.6234
 9369TIP3   OH228067   0.740   5.139   4.746  0.0626  0.0551 -0.1194
 9369TIP3    H128068   0.665   5.165   4.800  1.3376  1.4215  1.0260
 9369TIP3    H228069   0.798   5.215   4.748  1.4430 -0.9610 -1.0796
 9370TIP3   OH228070   7.521   5.679   5.822  0.4676 -0.4891  0.2570
 9370TIP3    H128071   7.595   5.646   5.772 -0.1241  0.5623 -1.3471
 9370TIP3    H228072   7.450   5.618   5.802 -0.2027  0.8411 -1.4731
 9371TIP3   OH228073   0.907   5.411   4.341 -0.5065 -0.2778 -0.1055
 9371TIP3    H128074   0.901   5.469   4.416 -1.9439 -1.2762  0.5739
 9371TIP3    H228075   0.818   5.406   4.306 -0.1134 -0.8671 -1.0748
 9372TIP3   OH228076   5.782   2.659   5.396 -0.6646 -0.7827 -0.2057
 9372TIP3    H128077   5.808   2.690   5.483  1.7948 -1.2697 -0.7164
 9372TIP3    H228078   5.692   2.690   5.385 -0.8055 -0.2094  2.2619
 9373TIP3   OH228079   1.319   6.294   0.577 -0.3105 -0.4619  0.5076
 9373TIP3    H128080   1.376   6.217   0.586 -0.0418 -0.1209  1.7847
 9373TIP3    H228081   1.380   6.368   0.578 -0.7455 -0.1109  1.5631
 9374TIP3   OH228082   4.994   5.646   0.381 -0.0621  0.3145  0.2328
 9374TIP3    H128083   4.998   5.600   0.466  0.5997 -0.8139 -0.3974
 9374TIP3    H228084   4.928   5.714   0.394  0.6576  0.7225  1.9341
 9375TIP3   OH228085   2.772   5.947   1.151  0.1857 -0.1306  0.2177
 9375TIP3    H128086   2.848   6.000   1.125  0.0236  0.3167  0.6606
 9375TIP3    H228087   2.729   5.927   1.068  0.9064 -0.5694 -0.0572
 9376TIP3   OH228088   5.189   5.559   3.304  0.7623  0.3019  0.5809
 9376TIP3    H128089   5.248   5.592   3.236  0.4201  1.6378  0.9135
 9376TIP3    H228090   5.139   5.636   3.331 -0.7384 -0.7023  0.7031
 9377TIP3   OH228091   1.321   2.803   2.190  0.7828  0.3125  0.0912
 9377TIP3    H128092   1.263   2.842   2.125  2.1948  3.2004  0.4777
 9377TIP3    H228093   1.393   2.765   2.138  0.5896  0.3123 -0.1757
 9378TIP3   OH228094   6.525   3.254   5.065 -0.9437  0.0631  0.1001
 9378TIP3    H128095   6.463   3.206   5.009 -0.1506  0.3168 -1.0185
 9378TIP3    H228096   6.493   3.239   5.154 -2.4963  0.0158 -0.4382
 9379TIP3   OH228097   5.710   1.504   0.414 -0.3565  0.2866  0.4090
 9379TIP3    H128098   5.722   1.507   0.319  2.1491  1.9068  0.7554
 9379TIP3    H228099   5.729   1.413   0.437  2.8562  0.7462 -0.2046
 9380TIP3   OH228100   6.268   3.888   5.719  0.0853  0.7791 -0.0643
 9380TIP3    H128101   6.316   3.927   5.646  0.5884 -0.0685 -0.1811
 9380TIP3    H228102   6.257   3.960   5.781  2.8388  0.6211  0.6581
 9381TIP3   OH228103   3.296   6.171   0.376  0.0747 -0.0762  0.0049
 9381TIP3    H128104   3.268   6.155   0.286  0.0958  0.5807 -0.1206
 9381TIP3    H228105   3.316   6.264   0.379 -1.4063  0.2293  1.1129
 9382TIP3   OH228106   1.128   4.481   5.365  0.0282 -0.5530  0.1151
 9382TIP3    H128107   1.066   4.511   5.298  0.7036 -0.1368 -0.3301
 9382TIP3    H228108   1.085   4.405   5.405 -0.6683 -0.4089 -0.3465
 9383TIP3   OH228109   1.832   7.183   2.677  0.2439 -0.0570 -0.0373
 9383TIP3    H128110   1.798   7.095   2.688  1.4218 -0.5207 -0.1273
 9383TIP3    H228111   1.798   7.211   2.591  2.7326 -1.7481 -1.6268
 9384TIP3   OH228112   6.563   2.488   2.465  0.5923 -0.1435  0.0596
 9384TIP3    H128113   6.502   2.439   2.521  0.2477 -1.4117 -1.4209
 9384TIP3    H228114   6.638   2.430   2.453  0.6125  0.0730 -0.8995
 9385TIP3   OH228115   0.841   3.051   5.680  0.3174 -0.7200  0.4032
 9385TIP3    H128116   0.896   3.127   5.661 -0.1370  0.0815  2.1263
 9385TIP3    H228117   0.803   3.027   5.596  0.5029  0.9401 -0.1728
 9386TIP3   OH228118   0.229   4.155   3.876 -0.3151  0.1934  0.2299
 9386TIP3    H128119   0.296   4.121   3.817 -0.1509  1.8374 -0.5547
 9386TIP3    H228120   0.272   4.225   3.924 -0.8467 -0.2244  1.3478
 9387TIP3   OH228121   2.598   5.305   0.281 -0.0123  0.0330  0.0499
 9387TIP3    H128122   2.600   5.401   0.282  0.2083  0.0353  1.6737
 9387TIP3    H228123   2.510   5.283   0.313 -0.4099 -0.3137 -1.2542
 9388TIP3   OH228124   1.847   5.591   0.335 -0.4052  0.3453  0.4726
 9388TIP3    H128125   1.840   5.687   0.340 -1.2154  0.4672 -2.2363
 9388TIP3    H228126   1.932   5.576   0.293 -0.8162 -0.0798 -0.2138
 9389TIP3   OH228127   0.498   0.574   3.193  0.1359 -0.5002 -0.8191
 9389TIP3    H128128   0.555   0.593   3.119 -0.8527  0.3300 -1.3611
 9389TIP3    H228129   0.538   0.622   3.266  2.0628 -2.6462 -0.3878
 9390TIP3   OH228130   7.015   0.808   1.945  0.6431 -0.1870  0.2213
 9390TIP3    H128131   6.997   0.888   1.995  0.8702 -0.7816  1.2669
 9390TIP3    H228132   6.999   0.737   2.007  0.6025 -0.9495 -0.6573
 9391TIP3   OH228133   1.198   2.913   5.449  0.0830  0.2490  0.1646
 9391TIP3    H128134   1.106   2.934   5.429  0.2402  0.8398  0.0709
 9391TIP3    H228135   1.199   2.896   5.543 -0.9385 -3.9023 -0.4420
 9392TIP3   OH228136   4.828   0.524   1.724  0.4708  0.0881 -0.3626
 9392TIP3    H128137   4.901   0.554   1.778 -1.4832 -0.2843  2.6092
 9392TIP3    H228138   4.822   0.590   1.655  1.6283  1.8964  1.1774
 9393TIP3   OH228139   1.660   4.668   4.000  0.1419 -0.5080  0.5042
 9393TIP3    H128140   1.703   4.750   3.977 -0.2094 -0.8885 -1.5721
 9393TIP3    H228141   1.695   4.604   3.939  0.6518 -2.0037  2.3158
 9394TIP3   OH228142   3.451   6.943   0.294  0.4534  0.2389  0.1583
 9394TIP3    H128143   3.473   6.898   0.212 -0.9839 -0.1100 -0.0506
 9394TIP3    H228144   3.403   6.877   0.344  1.0357  0.5623  1.1515
 9395TIP3   OH228145   7.579   4.562   4.232 -0.3055  0.7390 -0.1121
 9395TIP3    H128146   7.635   4.628   4.191 -0.5878  0.3825 -1.1059
 9395TIP3    H228147   7.563   4.595   4.320  0.4979  1.4235 -0.2141
 9396TIP3   OH228148   1.991   4.810   5.125 -0.0185 -0.4222  0.5441
 9396TIP3    H128149   2.005   4.820   5.219 -0.4076 -1.9711  0.7796
 9396TIP3    H228150   1.900   4.783   5.116 -0.8645  2.4904 -0.5034
 9397TIP3   OH228151   0.373   3.211   4.753  0.8716  0.1920 -0.2349
 9397TIP3    H128152   0.417   3.279   4.701 -1.7362  0.6444 -1.9145
 9397TIP3    H228153   0.379   3.132   4.699  0.0993  0.1247 -0.2205
 9398TIP3   OH228154   6.404   0.852   1.422  0.1340 -0.5630 -0.5678
 9398TIP3    H128155   6.331   0.790   1.415 -0.1413 -0.0714 -2.2889
 9398TIP3    H228156   6.370   0.933   1.383  0.0279  1.1308  2.8586
 9399TIP3   OH228157   3.223   0.347   1.413 -0.4374 -0.0604 -0.2030
 9399TIP3    H128158   3.269   0.298   1.481 -1.3165  0.0621  0.4759
 9399TIP3    H228159   3.217   0.436   1.447  0.4266  0.3515 -1.0832
 9400TIP3   OH228160   6.708   5.395   6.098 -0.0898 -0.0395 -0.0265
 9400TIP3    H128161   6.632   5.351   6.061 -1.3355  1.1323  1.0688
 9400TIP3    H228162   6.696   5.488   6.076  1.3284  0.0778 -0.3643
 9401TIP3   OH228163   7.080   2.900   1.572  0.4380  0.0034  0.7236
 9401TIP3    H128164   6.994   2.866   1.546  0.0230  1.7993 -0.2959
 9401TIP3    H228165   7.063   2.948   1.653  0.0860  2.1186 -0.5807
 9402TIP3   OH228166   5.708   1.762   1.317 -0.5503  0.5165 -0.0823
 9402TIP3    H128167   5.720   1.692   1.381 -0.5670 -0.7898 -1.4763
 9402TIP3    H228168   5.797   1.794   1.299 -0.5599  0.9784  0.6980
 9403TIP3   OH228169   4.576   0.681   0.646  0.4858  0.1622 -0.0318
 9403TIP3    H128170   4.672   0.685   0.652  0.6062 -1.0541 -0.8706
 9403TIP3    H228171   4.545   0.715   0.730  1.6709  0.0210  0.4693
 9404TIP3   OH228172   0.893   7.057   0.506  0.1898  0.5169  0.8932
 9404TIP3    H128173   0.891   6.962   0.499 -0.7978  0.5798  0.2582
 9404TIP3    H228174   0.971   7.076   0.559 -0.4007 -0.7124  2.2472
 9405TIP3   OH228175   2.902   7.252   1.371 -0.0619 -0.1884 -0.2300
 9405TIP3    H128176   2.942   7.296   1.446 -1.4032  1.7274 -0.6027
 9405TIP3    H228177   2.843   7.318   1.334 -1.4922 -2.0611 -1.3113
 9406TIP3   OH228178   7.312   0.784   1.934  0.0682 -0.0127  0.1212
 9406TIP3    H128179   7.234   0.835   1.955  0.1885  0.3486 -0.2850
 9406TIP3    H228180   7.278   0.706   1.889 -0.1124 -0.2761  0.7068
 9407TIP3   OH228181   6.561   0.022   0.333 -0.2807  0.2411  0.7021
 9407TIP3    H128182   6.626   0.055   0.395  0.0278  0.1260  0.4437
 9407TIP3    H228183   6.557  -0.072   0.350 -1.8554  0.5414  2.0832
 9408TIP3   OH228184   4.133   6.746   1.879 -0.4527  0.2890 -0.2560
 9408TIP3    H128185   4.052   6.787   1.908 -1.4538 -1.8492  0.0324
 9408TIP3    H228186   4.192   6.753   1.955 -1.0856 -0.0647  0.2701
 9409TIP3   OH228187   6.852   0.559   0.448  0.0713  0.0729 -0.1162
 9409TIP3    H128188   6.810   0.509   0.377  0.6741  1.4028 -1.4333
 9409TIP3    H228189   6.822   0.649   0.434  0.7020  0.4509  0.9509
 9410TIP3   OH228190   1.869   6.058   2.169 -0.4621  0.2203 -0.1358
 9410TIP3    H128191   1.915   5.975   2.185  0.4124  0.2731 -2.1986
 9410TIP3    H228192   1.794   6.035   2.114 -0.3711  0.7505 -0.4926
 9411TIP3   OH228193   1.724   0.597   2.096 -0.2827 -0.3358 -0.3315
 9411TIP3    H128194   1.796   0.633   2.044  0.5077 -0.4682  0.6657
 9411TIP3    H228195   1.753   0.510   2.120 -0.3907 -0.0470  0.8514
 9412TIP3   OH228196   2.042   4.870   5.395  0.1498 -0.5930 -0.0907
 9412TIP3    H128197   2.099   4.802   5.432 -2.4873 -2.4583  0.6695
 9412TIP3    H228198   1.987   4.897   5.469  0.2590  1.4153 -0.7321
 9413TIP3   OH228199   3.780   0.687   3.815  0.0460 -0.3329 -0.4053
 9413TIP3    H128200   3.816   0.730   3.737 -0.6652  0.6576 -0.1974
 9413TIP3    H228201   3.854   0.639   3.852  0.7866  0.4763 -0.8184
 9414TIP3   OH228202   2.787   4.474   5.958 -0.9365  0.0638  0.1407
 9414TIP3    H128203   2.789   4.439   6.046  0.9946  0.2931  0.2004
 9414TIP3    H228204   2.819   4.564   5.966  0.5786 -0.3480 -0.9665
 9415TIP3   OH228205   4.676   1.491   1.099 -0.0526  0.6677 -0.2133
 9415TIP3    H128206   4.608   1.540   1.053 -1.4346 -0.2224  0.8622
 9415TIP3    H228207   4.725   1.558   1.147 -0.1693  1.3017 -0.9567
 9416TIP3   OH228208   6.108   1.330   2.444  0.3613  0.8541 -0.3064
 9416TIP3    H128209   6.065   1.316   2.529 -1.4181 -1.6587 -1.5594
 9416TIP3    H228210   6.196   1.296   2.457 -0.2240 -0.5122  0.2578
 9417TIP3   OH228211   4.771   1.290   1.478 -0.3702 -0.4778 -0.3429
 9417TIP3    H128212   4.708   1.362   1.491 -0.5215 -0.9489  1.6661
 9417TIP3    H228213   4.850   1.319   1.523 -0.8470 -2.1039  1.6069
 9418TIP3   OH228214   6.438   0.459   1.511 -0.6608  0.0901  0.5586
 9418TIP3    H128215   6.369   0.470   1.575 -1.4701  1.3392 -0.5062
 9418TIP3    H228216   6.392   0.445   1.428  0.3436  1.1469 -0.2002
 9419TIP3   OH228217   2.152   6.890   1.303  0.4334 -0.4518 -0.8571
 9419TIP3    H128218   2.237   6.909   1.342 -0.2329 -1.8372  1.3909
 9419TIP3    H228219   2.105   6.973   1.305  0.6463 -0.3571  0.7444
 9420TIP3   OH228220   5.234   2.774   1.752  0.1614  0.5529  0.1806
 9420TIP3    H128221   5.207   2.824   1.674 -0.6490 -0.9819 -0.5389
 9420TIP3    H228222   5.316   2.815   1.779 -0.2542  1.9772 -0.6741
 9421TIP3   OH228223   4.617   6.773   0.931 -0.1472  0.5607 -0.2675
 9421TIP3    H128224   4.598   6.729   0.849 -0.1394 -0.1901  0.1321
 9421TIP3    H228225   4.592   6.865   0.915  1.3611  0.7495 -1.6065
 9422TIP3   OH228226   4.480   3.881   0.320 -0.0541 -0.0096  0.0483
 9422TIP3    H128227   4.386   3.882   0.340 -0.5460 -0.0889 -2.1880
 9422TIP3    H228228   4.513   3.962   0.358 -1.6559  1.6560 -1.9977
 9423TIP3   OH228229   4.819   0.285   1.838  0.1803 -0.1698  0.1238
 9423TIP3    H128230   4.815   0.374   1.803 -0.0202 -0.7067 -1.2385
 9423TIP3    H228231   4.845   0.231   1.764  1.0116 -1.1636  1.1123
 9424TIP3   OH228232   7.221   0.693   0.982 -0.2103  0.0656  0.2929
 9424TIP3    H128233   7.218   0.605   1.018  1.4670  0.1369  0.6228
 9424TIP3    H228234   7.299   0.695   0.927 -1.0139  0.9207 -0.8609
 9425TIP3   OH228235   7.215   3.040   1.361 -0.3414 -0.0413 -0.5164
 9425TIP3    H128236   7.271   3.005   1.291 -1.7892 -0.8163 -1.3108
 9425TIP3    H228237   7.201   2.966   1.420 -1.3194 -0.1171 -0.8379
 9426TIP3   OH228238   5.365   2.225   3.526  0.3319 -0.1884  0.0759
 9426TIP3    H128239   5.442   2.173   3.548  0.2949 -0.4462 -0.4041
 9426TIP3    H228240   5.400   2.313   3.509  0.4893 -0.2431  0.1127
 9427TIP3   OH228241   2.747   7.129   2.686 -0.4606  0.1594  0.3757
 9427TIP3    H128242   2.834   7.168   2.687 -0.8498  1.0452  0.3954
 9427TIP3    H228243   2.761   7.036   2.704  0.5486  0.1569 -0.4297
 9428TIP3   OH228244   6.765   3.054   5.711 -0.1963 -0.4489 -0.2499
 9428TIP3    H128245   6.743   3.060   5.618 -0.7569  0.1383 -0.0842
 9428TIP3    H228246   6.790   3.143   5.735 -1.7806 -0.2253  0.5858
 9429TIP3   OH228247   0.722   6.653   5.852 -0.6440 -0.0450  0.2552
 9429TIP3    H128248   0.732   6.728   5.794  1.7291 -1.5794 -1.4420
 9429TIP3    H228249   0.763   6.680   5.934  0.4129  0.4694 -0.4256
 9430TIP3   OH228250   4.622   1.423   3.007 -0.0688 -0.0231  0.6537
 9430TIP3    H128251   4.566   1.353   3.038  0.5894  0.2120  2.4151
 9430TIP3    H228252   4.691   1.379   2.957 -1.1758 -0.3941 -0.5779
 9431TIP3   OH228253   0.394   4.243   6.195  0.8150 -0.6694 -0.4884
 9431TIP3    H128254   0.380   4.329   6.156  0.7058 -0.6146 -0.3278
 9431TIP3    H228255   0.460   4.258   6.263  0.6275 -0.6693 -0.3059
 9432TIP3   OH228256   0.441   4.989   5.936  0.1941 -0.2828 -0.3728
 9432TIP3    H128257   0.423   4.954   5.849 -0.0198 -0.8603 -0.0928
 9432TIP3    H228258   0.358   4.980   5.983 -0.2294  1.7298 -0.6856
 9433TIP3   OH228259   1.846   4.359   5.157 -0.2196 -0.0500 -0.1614
 9433TIP3    H128260   1.793   4.401   5.089 -1.5694 -1.6616 -0.1271
 9433TIP3    H228261   1.868   4.431   5.217 -3.5796  0.4165  0.5966
 9434TIP3   OH228262   0.940   4.082   6.094  0.4894 -0.6511  0.3607
 9434TIP3    H128263   0.951   4.170   6.059  0.0879 -0.8586 -0.2928
 9434TIP3    H228264   0.874   4.091   6.163 -0.5783 -0.6803 -0.6497
 9435TIP3   OH228265   2.479   4.694   1.149 -0.3431  0.1886  0.1874
 9435TIP3    H128266   2.489   4.639   1.226 -0.4243 -1.0999 -0.7086
 9435TIP3    H228267   2.524   4.647   1.079 -0.9971  0.9296 -0.7536
 9436TIP3   OH228268   5.530   0.191   0.626 -0.1017  0.3071  0.0008
 9436TIP3    H128269   5.544   0.164   0.535 -0.2496 -0.5330  0.2205
 9436TIP3    H228270   5.451   0.144   0.652 -1.0609  1.8956  0.0206
 9437TIP3   OH228271   0.507   3.282   5.980 -0.0443  0.5504 -0.2213
 9437TIP3    H128272   0.459   3.317   6.055 -2.1816 -0.2477 -1.1927
 9437TIP3    H228273   0.526   3.192   6.004 -0.3199  0.4318 -0.4493
 9438TIP3   OH228274   5.827   1.645   2.751 -0.4554  0.7264 -0.9549
 9438TIP3    H128275   5.912   1.631   2.709 -0.4899  2.0535 -1.4751
 9438TIP3    H228276   5.847   1.660   2.843 -0.2762 -0.7770 -0.7324
 9439TIP3   OH228277   6.154   1.727   0.437  0.6202 -0.2465 -0.3517
 9439TIP3    H128278   6.166   1.638   0.405 -0.1546 -0.5181  0.1264
 9439TIP3    H228279   6.217   1.735   0.509  0.7015 -0.4007 -0.4056
 9440TIP3   OH228280   2.699   4.782   5.480  0.1511  0.1624  0.5370
 9440TIP3    H128281   2.743   4.867   5.486 -0.2548  0.3611  0.7792
 9440TIP3    H228282   2.678   4.772   5.387 -1.5379  1.2397  0.7654
 9441TIP3   OH228283   1.395   3.915   5.842 -0.4956 -0.4972 -0.2418
 9441TIP3    H128284   1.404   3.979   5.913  0.4004  0.2165 -0.9959
 9441TIP3    H228285   1.483   3.882   5.828 -0.1721  1.2745 -2.7843
 9442TIP3   OH228286   3.234   4.223   4.616 -0.6864 -0.7727 -0.0538
 9442TIP3    H128287   3.271   4.136   4.601  0.0650 -0.3463 -0.6962
 9442TIP3    H228288   3.145   4.206   4.646 -0.3803 -1.7776  0.3130
 9443TIP3   OH228289   7.595   2.369   0.830  0.2354  0.2800  0.3706
 9443TIP3    H128290   7.582   2.446   0.885  0.2826  1.6312 -1.4717
 9443TIP3    H228291   7.596   2.403   0.741  0.1096 -1.8793 -0.4830
 9444TIP3   OH228292   2.318   3.088   5.266 -0.4407 -0.3422  0.0181
 9444TIP3    H128293   2.357   3.170   5.295  0.1992 -0.8584  0.6211
 9444TIP3    H228294   2.314   3.096   5.171 -0.1816  0.3003  0.0598
 9445TIP3   OH228295   4.316   1.490   2.023 -0.6529 -0.2140 -0.1634
 9445TIP3    H128296   4.225   1.517   2.013 -0.7230 -0.2562  0.3087
 9445TIP3    H228297   4.341   1.455   1.938 -0.1848  2.4108 -1.1690
 9446TIP3   OH228298   2.573   4.326   4.891  0.1299 -0.2176  0.2226
 9446TIP3    H128299   2.580   4.333   4.986 -2.0836 -1.3707  0.4898
 9446TIP3    H228300   2.481   4.344   4.871  1.0324  2.2415 -1.9326
 9447TIP3   OH228301   0.705   4.113   6.240  0.2519 -0.1797  0.1648
 9447TIP3    H128302   0.641   4.155   6.298  0.4735  0.4678 -0.0532
 9447TIP3    H228303   0.695   4.020   6.257 -1.0118 -0.1133 -0.1324
 9448TIP3   OH228304   4.760   1.903   0.979 -0.2550  0.6817  0.1617
 9448TIP3    H128305   4.708   1.968   1.026 -0.8553  1.0808 -1.0314
 9448TIP3    H228306   4.722   1.819   1.004  0.6874  0.7545  1.9126
 9449TIP3   OH228307   5.234   0.287   1.154  0.2794 -0.9312  0.2041
 9449TIP3    H128308   5.158   0.340   1.176  1.3648  1.2783 -1.1584
 9449TIP3    H228309   5.226   0.271   1.060 -0.0503 -3.2601  0.5994
 9450TIP3   OH228310   3.528   6.300   2.677  0.1496 -0.4141  0.3139
 9450TIP3    H128311   3.468   6.255   2.618 -1.1438 -0.6741  1.8121
 9450TIP3    H228312   3.492   6.286   2.764  2.4349 -0.6587  1.2570
 9451TIP3   OH228313   1.187   3.755   5.926  0.2823  0.3388  0.0875
 9451TIP3    H128314   1.221   3.699   5.995  0.5132  0.5835  0.1730
 9451TIP3    H228315   1.264   3.799   5.890 -0.0009  1.3427  0.6808
 9452TIP3   OH228316   7.542   0.331   1.823  0.3884  0.1132  0.5527
 9452TIP3    H128317   7.629   0.362   1.847 -0.0371  1.1045  0.8371
 9452TIP3    H228318   7.536   0.243   1.862  0.4680  0.8889  2.3501
 9453TIP3   OH228319   5.949   1.163   0.425 -0.0682  0.0820 -0.4696
 9453TIP3    H128320   5.980   1.073   0.411 -0.1432  0.1424 -1.0520
 9453TIP3    H228321   5.865   1.153   0.469  1.0451 -0.0713  1.6995
 9454TIP3   OH228322   6.800   1.310   0.304 -0.2159  0.4110 -0.2905
 9454TIP3    H128323   6.841   1.248   0.363  0.5126  0.0079 -1.2006
 9454TIP3    H228324   6.798   1.265   0.219  0.2115  1.5707 -0.9279
 9455TIP3   OH228325   6.343   1.406   2.174 -0.2908 -0.1897 -0.2846
 9455TIP3    H128326   6.419   1.445   2.217  0.5328 -0.3655 -1.5554
 9455TIP3    H228327   6.373   1.386   2.086 -1.0565 -2.6252 -0.0238
 9456TIP3   OH228328   6.677   0.197   0.929  0.2183  0.5017 -0.3481
 9456TIP3    H128329   6.703   0.182   1.020  0.9722  1.1672 -0.4499
 9456TIP3    H228330   6.693   0.113   0.885  0.7808  0.4687 -0.0818
 9457TIP3   OH228331   3.586   7.219   1.458 -0.6407  0.1122  0.0474
 9457TIP3    H128332   3.573   7.151   1.524 -0.3458 -0.6662 -0.6793
 9457TIP3    H228333   3.499   7.234   1.422 -0.6272 -0.2602 -0.1490
 9458TIP3   OH228334   2.252   4.228   4.287 -0.3073  0.9537  0.1252
 9458TIP3    H128335   2.168   4.242   4.243  0.1460  1.2350 -0.6628
 9458TIP3    H228336   2.283   4.315   4.309  0.3728  0.9304 -0.7203
 9459TIP3   OH228337   6.970   1.527   0.269 -0.0143  0.5907  0.0691
 9459TIP3    H128338   6.980   1.549   0.176  1.3960 -0.2797 -0.0147
 9459TIP3    H228339   6.933   1.439   0.269  0.1329  0.5284  0.3335
 9460TIP3   OH228340   3.817   6.458   2.993  0.5912  0.1356 -0.2246
 9460TIP3    H128341   3.732   6.499   3.007  0.5730 -0.0073  0.0753
 9460TIP3    H228342   3.836   6.474   2.900  1.2322  2.0797  0.2068
 9461TIP3   OH228343   4.877   0.942   1.735 -0.6009 -0.2010 -0.7638
 9461TIP3    H128344   4.820   0.984   1.670 -2.2449 -0.0411  0.7583
 9461TIP3    H228345   4.819   0.923   1.809  1.6929  1.7107  1.6070
 9462TIP3   OH228346   3.184   6.617   2.070 -0.4187  0.6729 -0.0320
 9462TIP3    H128347   3.255   6.680   2.059 -0.8248  0.9760 -0.8887
 9462TIP3    H228348   3.228   6.538   2.103  0.2820  0.9337 -0.3334
 9463TIP3   OH228349   6.503   3.142   0.424 -0.2650  0.3981  0.3329
 9463TIP3    H128350   6.493   3.195   0.503  0.0024 -0.9972  1.3420
 9463TIP3    H228351   6.459   3.192   0.355 -0.5321  1.6288  1.3707
 9464TIP3   OH228352   6.535   1.489   2.377  0.1467  0.3288 -0.4007
 9464TIP3    H128353   6.484   1.563   2.408  0.6952  0.7810 -0.5617
 9464TIP3    H228354   6.504   1.414   2.428 -1.4439  0.3800 -1.2810
 9465TIP3   OH228355   6.747   2.379   5.884 -0.0484 -0.3321 -0.2686
 9465TIP3    H128356   6.733   2.468   5.850  0.7598  0.0848  0.4943
 9465TIP3    H228357   6.821   2.346   5.834  0.1912 -0.2684  0.0475
 9466TIP3   OH228358   6.191   0.431   2.535  0.1938  0.0019  0.1393
 9466TIP3    H128359   6.140   0.509   2.557  1.0509  0.6037  0.0092
 9466TIP3    H228360   6.282   0.459   2.540  0.5278 -1.1254  0.5970
 9467TIP3   OH228361   4.671   1.987   1.403  0.1873 -0.6582  0.0250
 9467TIP3    H128362   4.760   1.964   1.376 -0.3414 -3.0130  0.0948
 9467TIP3    H228363   4.650   2.067   1.354  2.7249  0.5541  0.8765
 9468TIP3   OH228364   0.530   5.833   5.561  0.1764  0.0638  0.3172
 9468TIP3    H128365   0.563   5.776   5.492  0.8200 -2.0280  2.2992
 9468TIP3    H228366   0.445   5.795   5.585 -0.0114  0.7451  0.7525
 9469TIP3   OH228367   5.823   0.885   0.432  0.1511 -0.2239 -0.3306
 9469TIP3    H128368   5.806   0.799   0.470 -0.9446  0.6406  1.1671
 9469TIP3    H228369   5.816   0.946   0.505  0.5720  1.1900 -1.4375
 9470TIP3   OH228370   0.795   4.608   6.040 -0.2936 -0.0623 -0.2306
 9470TIP3    H128371   0.863   4.540   6.043  1.3627  1.6229  3.0536
 9470TIP3    H228372   0.729   4.578   6.102  0.2767  1.1230  0.9652
 9471TIP3   OH228373   2.345   4.336   3.519 -0.4966 -0.3633  0.2753
 9471TIP3    H128374   2.405   4.381   3.578 -0.7720  0.3692 -0.0030
 9471TIP3    H228375   2.259   4.349   3.559 -0.7504  0.5847 -0.5579
 9472TIP3   OH228376   7.205   2.641   1.547 -0.0641 -0.5792 -0.3230
 9472TIP3    H128377   7.227   2.726   1.585 -2.3913 -0.7720  1.6528
 9472TIP3    H228378   7.289   2.597   1.536  0.8804  0.2162  2.9904
 9473TIP3   OH228379   1.186   4.168   3.911  0.2199 -0.3984  0.3977
 9473TIP3    H128380   1.232   4.250   3.931  0.0985  0.1766 -1.5380
 9473TIP3    H228381   1.171   4.128   3.996  0.8963  1.2647  1.3370
 9474TIP3   OH228382   4.569   0.444   1.690  0.4760  0.0175 -0.0713
 9474TIP3    H128383   4.644   0.502   1.699  0.2010 -0.1932  4.8641
 9474TIP3    H228384   4.499   0.500   1.657  1.6529  1.1791 -0.6481
 9475TIP3   OH228385   1.334   4.496   4.839 -0.4685 -0.0488 -0.9360
 9475TIP3    H128386   1.250   4.455   4.818 -0.8410 -0.9862  2.0696
 9475TIP3    H228387   1.358   4.458   4.924  2.6613  0.7266 -1.4088
 9476TIP3   OH228388   0.691   2.910   6.306 -0.1107  0.5388  0.0887
 9476TIP3    H128389   0.760   2.871   6.253  0.6543 -0.0231  1.4699
 9476TIP3    H228390   0.617   2.849   6.299  1.0479 -1.1422  2.1619
 9477TIP3   OH228391   3.395   0.751   5.765 -0.0480  0.0856  0.1317
 9477TIP3    H128392   3.443   0.821   5.810 -1.2505  0.5445  0.7086
 9477TIP3    H228393   3.464   0.694   5.732  0.9158  0.7631  0.9037
 9478TIP3   OH228394   4.696   1.187   2.224 -0.5727  0.0255 -0.1108
 9478TIP3    H128395   4.608   1.206   2.257 -0.2891 -0.4501  0.9434
 9478TIP3    H228396   4.703   1.092   2.227  1.0933  0.1588  2.8469
 9479TIP3   OH228397   6.083   1.890   0.199 -0.6095 -0.1771  0.4989
 9479TIP3    H128398   5.997   1.932   0.198 -0.8630 -0.6237  1.8775
 9479TIP3    H228399   6.074   1.820   0.264 -0.0909 -2.1446 -1.5223
 9480TIP3   OH228400   0.895   4.704   6.342  0.4883  0.3155  0.0589
 9480TIP3    H128401   0.903   4.752   6.424 -0.1339 -0.6447  0.6985
 9480TIP3    H228402   0.965   4.738   6.287  0.5023  1.4308  0.7544
 9481TIP3   OH228403   5.248   3.308   1.165  0.1309  0.1513  0.3754
 9481TIP3    H128404   5.335   3.267   1.161  0.8852  1.8307 -1.1899
 9481TIP3    H228405   5.194   3.256   1.106  1.4879  2.2423 -2.8432
 9482TIP3   OH228406   4.988   1.716   0.838  0.2062 -0.1446 -0.1343
 9482TIP3    H128407   5.075   1.749   0.863  0.3864 -1.1735  0.6228
 9482TIP3    H228408   4.939   1.795   0.814  0.5294  0.7170  1.9165
 9483TIP3   OH228409   5.390   3.602   0.420 -0.6995  0.3805 -0.8531
 9483TIP3    H128410   5.433   3.670   0.472 -0.2862 -0.6144  0.1103
 9483TIP3    H228411   5.308   3.585   0.467 -0.3703 -0.4457 -0.5731
 9484TIP3   OH228412   5.917   0.338   0.502 -0.3661  0.2042  0.0730
 9484TIP3    H128413   5.882   0.336   0.592 -1.6477  0.2996 -0.4123
 9484TIP3    H228414   5.992   0.397   0.507 -0.5144  0.3204  1.0580
 9485TIP3   OH228415   5.162   0.288   0.545 -0.4615 -0.3027 -0.2868
 9485TIP3    H128416   5.206   0.346   0.606 -1.2638 -0.4065  0.3928
 9485TIP3    H228417   5.160   0.203   0.589 -0.4164 -0.5471 -0.7487
 9486TIP3   OH228418   4.768   6.697   0.044 -0.0031  0.5575 -0.4051
 9486TIP3    H128419   4.849   6.715   0.091 -0.4017 -1.3634  1.0988
 9486TIP3    H228420   4.794   6.640  -0.029  0.0131 -0.0755  0.0896
 9487TIP3   OH228421   6.110   0.148   2.161 -0.5720 -0.2296 -0.5609
 9487TIP3    H128422   6.060   0.124   2.082  0.2518  1.0096 -1.4762
 9487TIP3    H228423   6.195   0.175   2.128 -0.2987  0.5310  0.7456
 9488TIP3   OH228424   7.396   5.251   5.966  0.3395 -0.5064 -0.5226
 9488TIP3    H128425   7.382   5.279   6.057 -0.5589 -1.6656 -0.2974
 9488TIP3    H228426   7.381   5.330   5.914 -1.1963 -0.3109  0.1822
 9489TIP3   OH228427   4.988   0.401   1.115 -0.1054  0.5211  0.1785
 9489TIP3    H128428   4.952   0.312   1.117 -0.0229  0.4876  0.2187
 9489TIP3    H228429   4.962   0.435   1.030 -0.8490  0.7595  0.4969
 9490TIP3   OH228430   7.442   1.868   0.479  0.3153 -0.2143  0.5575
 9490TIP3    H128431   7.445   1.963   0.482  2.2072 -0.2446  0.1354
 9490TIP3    H228432   7.379   1.844   0.547  0.8936  1.2915  1.6585
 9491TIP3   OH228433   5.227   1.173   2.799 -0.0933  0.4705 -0.1956
 9491TIP3    H128434   5.164   1.160   2.728 -0.8833  1.0334  0.3900
 9491TIP3    H228435   5.191   1.246   2.849 -0.4374 -1.0034  1.7569
 9492TIP3   OH228436   6.937   3.247   0.118 -0.2258 -0.1911  0.1184
 9492TIP3    H128437   6.982   3.169   0.087  0.7283 -0.3842  1.8943
 9492TIP3    H228438   7.006   3.312   0.129 -1.1154  1.1837 -2.0890
 9493TIP3   OH228439   1.056   6.770   1.111 -0.3210 -0.4363 -0.3610
 9493TIP3    H128440   1.135   6.770   1.166 -1.2700  1.6539  1.0731
 9493TIP3    H228441   1.053   6.858   1.074 -2.4024 -0.2297  0.2574
 9494TIP3   OH228442   0.620   0.858   2.210 -0.0206  0.7180  0.1255
 9494TIP3    H128443   0.561   0.868   2.135  1.1413  1.0965 -0.7460
 9494TIP3    H228444   0.708   0.866   2.173  0.5493  1.5587  1.6283
 9495TIP3   OH228445   5.600   2.266   0.357  0.0093 -0.0588  0.2501
 9495TIP3    H128446   5.582   2.232   0.269 -0.7683 -2.3364  1.2319
 9495TIP3    H228447   5.695   2.271   0.361  0.0641 -0.3011 -0.6072
 9496TIP3   OH228448   6.401   1.034   0.322  0.0522  0.1609  0.2339
 9496TIP3    H128449   6.331   0.987   0.367  0.4388  0.0987  0.7754
 9496TIP3    H228450   6.401   1.121   0.363  0.7918 -0.0864  0.7656
 9497TIP3   OH228451   6.383   1.176   1.087  0.3811  0.0766 -0.5138
 9497TIP3    H128452   6.385   1.110   1.156 -0.1341 -0.5253 -1.0696
 9497TIP3    H228453   6.470   1.171   1.047  0.9608  0.9816  0.5960
 9498TIP3   OH228454   5.502   1.096   0.299  0.1823 -0.2078 -0.4537
 9498TIP3    H128455   5.425   1.115   0.245 -0.5109  0.0929  0.6178
 9498TIP3    H228456   5.478   1.018   0.348  0.8104 -0.4808 -0.5749
 9499TIP3   OH228457   6.947   1.867   0.710  0.9836 -0.2660  0.3456
 9499TIP3    H128458   6.968   1.869   0.617 -2.6443  0.5238 -0.5302
 9499TIP3    H228459   6.940   1.774   0.732 -0.0016 -0.4363 -0.6489
 9500TIP3   OH228460   2.084   2.540   5.297 -0.3110  0.0301 -0.1640
 9500TIP3    H128461   2.134   2.621   5.304 -0.7495  0.2236  0.7818
 9500TIP3    H228462   2.146   2.471   5.320 -0.9022  0.4032  2.7020
 9501TIP3   OH228463   2.538   5.477   5.391 -0.0776 -0.3410 -0.4259
 9501TIP3    H128464   2.595   5.491   5.315  1.5152  0.3980  0.8945
 9501TIP3    H228465   2.595   5.488   5.467 -1.6775 -0.9882  0.8997
 9502TIP3   OH228466   2.043   6.615   1.345  0.0726 -0.2683 -0.5257
 9502TIP3    H128467   2.062   6.699   1.302 -0.0445 -0.4102 -0.8562
 9502TIP3    H228468   2.112   6.605   1.411  1.2437 -0.8783 -1.8317
 9503TIP3   OH228469   1.199   4.830   6.321 -0.2599 -0.1446 -0.3647
 9503TIP3    H128470   1.259   4.766   6.359  2.2425  0.7333 -2.6497
 9503TIP3    H228471   1.160   4.784   6.246 -2.1373 -0.5569  0.8399
 9504TIP3   OH228472   5.815   0.469   0.899  0.2319  0.4587  0.2829
 9504TIP3    H128473   5.837   0.385   0.859 -2.2032 -0.8356  1.5739
 9504TIP3    H228474   5.734   0.496   0.856  0.3317  1.5495  0.7532
 9505TIP3   OH228475   5.622   6.113   2.590 -0.0437  0.0027  0.1052
 9505TIP3    H128476   5.651   6.108   2.500 -1.8686  1.3004 -0.5829
 9505TIP3    H228477   5.549   6.176   2.589 -0.1764 -0.0548  2.4383
 9506TIP3   OH228478   1.830   3.334   4.177 -0.2629  0.0488  0.4430
 9506TIP3    H128479   1.889   3.326   4.103 -0.7976 -0.9018  0.1210
 9506TIP3    H228480   1.887   3.351   4.252  0.2386  1.5404 -0.2659
 9507TIP3   OH228481   5.530   5.278   0.133 -0.2579 -0.0631  0.0229
 9507TIP3    H128482   5.583   5.307   0.058  1.5722 -0.2350  1.2378
 9507TIP3    H228483   5.567   5.193   0.157 -2.2440 -1.0271 -0.2230
 9508TIP3   OH228484   5.900   0.488   2.877  0.0579 -1.2613  0.9550
 9508TIP3    H128485   5.842   0.560   2.855  0.3054 -0.8156  1.7278
 9508TIP3    H228486   5.905   0.435   2.797  1.4251  0.6282 -0.2354
 9509TIP3   OH228487   1.397   5.104   5.936  0.1965 -0.0809  0.0827
 9509TIP3    H128488   1.398   5.073   5.845  1.3233 -1.0930  0.4227
 9509TIP3    H228489   1.344   5.184   5.934  0.0565 -0.1987 -1.4298
 9510TIP3   OH228490   2.023   5.075   5.690  0.4170 -0.2484 -0.2239
 9510TIP3    H128491   2.000   5.150   5.635  0.6135  0.8198  1.1247
 9510TIP3    H228492   2.115   5.058   5.671  0.1998 -0.5850 -1.0187
 9511TIP3   OH228493   4.766   1.346   0.606  0.4306 -0.2310 -0.3344
 9511TIP3    H128494   4.747   1.438   0.591 -2.5905 -0.7755 -0.0989
 9511TIP3    H228495   4.784   1.310   0.519 -1.9150 -0.1572 -0.8637
 9512TIP3   OH228496   5.176   2.068   3.376 -0.2378 -0.0492  0.1563
 9512TIP3    H128497   5.237   2.111   3.436  1.0404  1.2826 -2.0156
 9512TIP3    H228498   5.105   2.036   3.432  2.2799 -1.3198  2.6819
 9513TIP3   OH228499   6.594   0.017   1.459  0.2342 -0.1330  0.3427
 9513TIP3    H128500   6.609   0.110   1.476 -2.1084  0.4259 -0.4217
 9513TIP3    H228501   6.499   0.010   1.446  0.5537 -2.3995 -1.0489
 9514TIP3   OH228502   5.678   0.511   0.352 -0.2853  0.6970  0.4712
 9514TIP3    H128503   5.742   0.443   0.372 -0.4562  1.3305  3.3438
 9514TIP3    H228504   5.708   0.588   0.401 -2.1630  1.5809  0.2913
 9515TIP3   OH228505   1.000   0.324   1.137 -0.1347 -0.2762  0.4352
 9515TIP3    H128506   1.037   0.259   1.077 -2.5778 -0.4646 -0.9549
 9515TIP3    H228507   1.037   0.302   1.222  0.1089 -2.6830 -0.2576
 9516TIP3   OH228508   0.116   0.900   2.631 -0.4326  0.3889 -0.2010
 9516TIP3    H128509   0.159   0.849   2.699 -1.0094 -1.4046 -1.1628
 9516TIP3    H228510   0.049   0.951   2.677 -0.9655 -0.9769  0.5653
 9517TIP3   OH228511   3.628   5.386   0.951  0.3013 -0.0283  0.9090
 9517TIP3    H128512   3.605   5.419   1.038 -0.0645  0.8724  0.4797
 9517TIP3    H228513   3.672   5.459   0.908  0.0800 -0.3160  0.1790
 9518TIP3   OH228514   2.221   3.271   4.643  0.3164 -0.1501  0.3008
 9518TIP3    H128515   2.314   3.294   4.641 -0.1059  1.4703 -3.0598
 9518TIP3    H228516   2.176   3.355   4.655 -0.7653 -0.7766  0.6532
 9519TIP3   OH228517   6.738   0.421   0.233 -0.0642 -0.1310 -0.0497
 9519TIP3    H128518   6.779   0.399   0.149  0.7198  0.0071  0.2974
 9519TIP3    H228519   6.655   0.372   0.232 -0.2952  0.2664 -1.1195
 9520TIP3   OH228520   6.972   0.765   3.076 -0.0873 -0.1780 -0.3912
 9520TIP3    H128521   6.987   0.671   3.073 -0.7268 -0.2301 -2.3919
 9520TIP3    H228522   6.992   0.796   2.988 -0.7836  1.4257 -0.0084
 9521TIP3   OH228523   5.548   6.243   1.854  0.7491  0.1585  0.0080
 9521TIP3    H128524   5.534   6.214   1.944  1.3012  2.0528  0.7415
 9521TIP3    H228525   5.476   6.305   1.837  0.3718 -0.5391 -1.0302
 9522TIP3   OH228526   3.359   7.154   1.286  0.0668 -0.3057 -0.4462
 9522TIP3    H128527   3.298   7.128   1.355  2.0011  1.4819  2.0425
 9522TIP3    H228528   3.374   7.073   1.236 -1.5426 -1.6070  1.1130
 9523TIP3   OH228529   1.660   4.964   4.362 -0.1552  0.3395  0.5738
 9523TIP3    H128530   1.601   4.931   4.430 -2.2797  2.8066  0.0146
 9523TIP3    H228531   1.730   5.008   4.409  0.2076 -0.9081  1.2123
 9524TIP3   OH228532   6.791   0.935   0.849 -0.0841  0.0338 -0.2528
 9524TIP3    H128533   6.748   0.993   0.912 -0.2566 -0.3132 -0.0460
 9524TIP3    H228534   6.743   0.948   0.768  1.9633  2.6379 -1.0919
 9525TIP3   OH228535   0.871   1.186   2.453  0.3351  0.0651  0.9621
 9525TIP3    H128536   0.891   1.221   2.367 -1.5967 -1.0306  0.0472
 9525TIP3    H228537   0.930   1.111   2.463 -0.7196 -0.9233 -0.1835
 9526TIP3   OH228538   2.533   3.319   6.117  0.0340  0.0722  0.4032
 9526TIP3    H128539   2.506   3.400   6.075  1.8420 -1.2581 -3.5564
 9526TIP3    H228540   2.451   3.276   6.142 -1.0584  1.3883 -0.8648
 9527TIP3   OH228541   7.514   0.406   3.120 -0.6277 -0.6687 -0.0177
 9527TIP3    H128542   7.470   0.347   3.182  0.1056 -0.5736  0.5989
 9527TIP3    H228543   7.607   0.397   3.140 -0.5138  0.8448  0.2262
 9528TIP3   OH228544   3.452   6.605   0.407 -0.0918  0.3442 -0.3441
 9528TIP3    H128545   3.420   6.598   0.497  0.9302 -1.0896 -0.0738
 9528TIP3    H228546   3.376   6.587   0.353 -0.6479  0.9169  0.2456
 9529TIP3   OH228547   3.370   4.918   4.871 -0.2312  0.2954 -0.4004
 9529TIP3    H128548   3.428   4.993   4.852 -0.0659  0.4504  0.6572
 9529TIP3    H228549   3.313   4.912   4.795 -0.1485  1.4167 -0.5628
 9530TIP3   OH228550   6.337   1.548   1.430 -0.6133 -0.2169  0.0026
 9530TIP3    H128551   6.257   1.593   1.457 -2.9257 -2.6896 -2.3600
 9530TIP3    H228552   6.362   1.495   1.505  0.0600  2.2147  1.5178
 9531TIP3   OH228553   6.004   1.498   1.855  0.1668  1.1623 -0.1840
 9531TIP3    H128554   6.010   1.467   1.945  1.5490  0.4255 -0.5269
 9531TIP3    H228555   5.970   1.587   1.862 -2.2944  0.1829  0.9065
 9532TIP3   OH228556   5.851   2.549   0.513 -0.4989  0.1998  0.4220
 9532TIP3    H128557   5.925   2.591   0.557  0.4710  0.3308 -1.3086
 9532TIP3    H228558   5.777   2.607   0.532  0.1652  0.9538  0.7696
 9533TIP3   OH228559   5.334   1.286   0.983 -0.2999  0.3827  0.1070
 9533TIP3    H128560   5.368   1.375   0.975  0.1477  0.1367 -0.7940
 9533TIP3    H228561   5.290   1.270   0.900  0.0894 -0.4381  0.0563
 9534TIP3   OH228562   0.980   1.595   0.382 -0.5411 -0.1555 -0.2143
 9534TIP3    H128563   0.922   1.519   0.375 -0.8217  0.1807 -1.5878
 9534TIP3    H228564   0.923   1.665   0.413 -0.6333 -0.1008 -0.5061
 9535TIP3   OH228565   6.092   1.549   1.112 -0.2607  0.8188 -0.1759
 9535TIP3    H128566   6.031   1.597   1.056  0.6239  2.1041 -0.0376
 9535TIP3    H228567   6.178   1.562   1.071  0.0063 -0.6342 -0.1301
 9536TIP3   OH228568   6.807   2.191   0.181  0.1346  0.1423  0.0272
 9536TIP3    H128569   6.728   2.240   0.158  0.2959 -0.3817 -1.7503
 9536TIP3    H228570   6.776   2.100   0.189  0.1775  0.2453  1.4407
 9537TIP3   OH228571   0.214   6.178   5.975  0.2549  0.2004 -1.0087
 9537TIP3    H128572   0.227   6.126   5.896  2.7008 -0.3309 -0.2742
 9537TIP3    H228573   0.279   6.247   5.969  0.1481  0.4207  0.3382
 9538TIP3   OH228574   4.646   0.336   3.733  0.2148 -0.1093  0.0492
 9538TIP3    H128575   4.739   0.345   3.753 -0.1115  0.9615  1.1332
 9538TIP3    H228576   4.637   0.245   3.703  1.3549 -0.6759  1.3610
 9539TIP3   OH228577   2.514   6.087   0.427  0.0758  0.1561 -0.8722
 9539TIP3    H128578   2.528   6.114   0.518 -3.1424 -0.0651 -0.2764
 9539TIP3    H228579   2.576   6.015   0.414  0.8431  0.4529  1.0069
 9540TIP3   OH228580   6.022   0.169   0.081  0.6932 -0.4369 -0.3493
 9540TIP3    H128581   6.016   0.261   0.108  1.7899 -0.6511  0.6480
 9540TIP3    H228582   6.007   0.120   0.162  1.5520 -1.1136 -0.6038
 9541TIP3   OH228583   5.396   1.549   0.914 -0.3140 -0.0672 -0.5770
 9541TIP3    H128584   5.472   1.553   0.971 -0.9846  0.2897  0.2924
 9541TIP3    H228585   5.432   1.526   0.828  0.7676  0.0918 -0.1721
 9542TIP3   OH228586   5.527  -0.007   2.769  0.0801 -0.2674  0.3924
 9542TIP3    H128587   5.602   0.052   2.769 -0.9220  1.0599  0.7625
 9542TIP3    H228588   5.475   0.021   2.845  0.3381 -2.6463  1.4656
 9543TIP3   OH228589   5.326   0.472   2.173  0.4077  0.4127  0.4831
 9543TIP3    H128590   5.335   0.384   2.210 -1.8672  0.4544  1.1581
 9543TIP3    H228591   5.259   0.515   2.227  0.5131  2.1084 -0.6896
 9544TIP3   OH228592   3.745   6.436   1.843 -0.6666  0.3870  0.1462
 9544TIP3    H128593   3.825   6.460   1.890 -0.8569  1.9640 -0.3051
 9544TIP3    H228594   3.676   6.444   1.909 -0.3708 -1.7568  0.7486
 9545TIP3   OH228595   4.954   7.284   0.399 -0.1108  0.1573 -0.0817
 9545TIP3    H128596   5.043   7.250   0.394 -0.3813 -1.4072  3.6953
 9545TIP3    H228597   4.906   7.238   0.331  2.1434  1.8728 -2.9589
 9546TIP3   OH228598   6.638   0.438   1.957  0.0924  0.4522  0.6151
 9546TIP3    H128599   6.706   0.479   1.904  0.4556  0.1277  0.8361
 9546TIP3    H228600   6.649   0.475   2.045 -1.7073  2.4570  0.0653
 9547TIP3   OH228601   1.587   3.272   5.475 -0.1014  0.0375  0.2088
 9547TIP3    H128602   1.536   3.287   5.554  0.8169 -0.3716  0.8802
 9547TIP3    H228603   1.535   3.211   5.423  0.2525 -1.3048  1.4187
 9548TIP3   OH228604   0.502   3.659   6.095  0.2670 -0.2204  0.1189
 9548TIP3    H128605   0.421   3.635   6.140  0.8711  2.6310  2.9133
 9548TIP3    H228606   0.569   3.603   6.134  0.6671  1.7685  2.4394
 9549TIP3   OH228607   6.172   3.226   3.211  0.2272  0.1391 -0.0304
 9549TIP3    H128608   6.250   3.210   3.157 -0.3443  0.9462 -1.1116
 9549TIP3    H228609   6.205   3.272   3.288  0.6855  1.4340 -0.9917
 9550TIP3   OH228610   7.127   2.519   1.967  0.1323 -0.1772  0.1705
 9550TIP3    H128611   7.160   2.476   1.888  2.2125  0.7337  0.5083
 9550TIP3    H228612   7.170   2.474   2.039  1.5552  1.7648  0.5775
 9551TIP3   OH228613   2.778   5.052   6.253 -0.3465 -0.5775 -0.2548
 9551TIP3    H128614   2.814   5.133   6.217  1.6988 -0.8960  0.9828
 9551TIP3    H228615   2.775   5.067   6.347  1.0419 -2.3105  0.0899
 9552TIP3   OH228616   1.628   5.806   5.958  0.1008 -0.3415 -0.1876
 9552TIP3    H128617   1.660   5.893   5.984  1.3970 -0.8149 -0.2026
 9552TIP3    H228618   1.703   5.763   5.919 -0.1538 -2.0128  1.0951
 9553TIP3   OH228619   4.269   0.327   5.248 -0.1737  0.3830  0.3043
 9553TIP3    H128620   4.259   0.281   5.164  0.3134  0.6128  0.1133
 9553TIP3    H228621   4.225   0.272   5.312 -1.0263  0.4738 -0.1946
 9554TIP3   OH228622   0.964   2.119   0.186  0.3471 -0.6046 -0.0947
 9554TIP3    H128623   1.053   2.120   0.151  1.3358  0.2074  2.3294
 9554TIP3    H228624   0.924   2.041   0.149  2.4096 -1.5349 -0.4021
 9555TIP3   OH228625   1.917   2.974   0.125 -0.1015  0.2064  0.1393
 9555TIP3    H128626   1.931   2.962   0.031  0.8583  0.2076  0.2715
 9555TIP3    H228627   1.835   3.023   0.132 -0.8720 -0.9531 -0.6454
 9556TIP3   OH228628   5.994   0.763   0.720  0.2660  0.3913 -0.2660
 9556TIP3    H128629   6.071   0.713   0.748 -0.1686 -0.8796 -1.2317
 9556TIP3    H228630   5.945   0.779   0.800  0.3001 -0.9724  0.0507
 9557TIP3   OH228631   2.716   4.144   5.894  0.5100 -0.5995 -0.2818
 9557TIP3    H128632   2.734   4.189   5.977 -0.0717  1.1862 -1.0930
 9557TIP3    H228633   2.771   4.190   5.830 -0.4736 -0.7196 -1.2255
 9558TIP3   OH228634   4.161   6.144   4.490  0.2990  0.2451  0.2364
 9558TIP3    H128635   4.174   6.195   4.570  2.1382  1.0160 -0.5187
 9558TIP3    H228636   4.197   6.199   4.421 -0.4126 -0.8197 -1.0012
 9559TIP3   OH228637   5.063   5.861   4.480  0.5189 -0.0288  0.2682
 9559TIP3    H128638   4.996   5.872   4.412 -1.6580 -1.0040  2.2061
 9559TIP3    H228639   5.114   5.942   4.476 -0.8327  0.7832 -1.1544
 9560TIP3   OH228640   0.148   0.293   1.480  0.0148 -0.5623  0.5729
 9560TIP3    H128641   0.241   0.311   1.467 -0.3990  1.8156  0.6235
 9560TIP3    H228642   0.105   0.378   1.467 -2.2290 -1.7692 -0.1552
 9561TIP3   OH228643   7.263   6.477   2.535  0.5895 -0.0566  0.9098
 9561TIP3    H128644   7.265   6.525   2.453  0.2212 -1.7219 -0.0899
 9561TIP3    H228645   7.353   6.446   2.547  0.2509 -1.3536  0.1913
 9562TIP3   OH228646   5.011   6.793   0.142  0.4365 -0.0317 -0.5412
 9562TIP3    H128647   5.044   6.755   0.223  0.1566  0.1636 -0.3354
 9562TIP3    H228648   5.070   6.760   0.074  0.6232 -0.2573 -0.2688
 9563TIP3   OH228649   4.202   4.077   6.311  0.5742 -0.2259 -0.7792
 9563TIP3    H128650   4.177   3.989   6.283  0.3015  0.2239 -1.9814
 9563TIP3    H228651   4.297   4.077   6.307  0.5671 -0.3989 -0.9713
 9564TIP3   OH228652   7.165   1.040   3.014 -0.5414  0.5525 -0.3924
 9564TIP3    H128653   7.103   1.093   3.064 -0.6523 -1.3561  1.5483
 9564TIP3    H228654   7.111   0.972   2.973 -0.1348  0.7284 -1.2299
 9565TIP3   OH228655   7.291   0.125   0.705  0.1531  0.2858  0.3805
 9565TIP3    H128656   7.296   0.123   0.610  0.8566 -0.1959  0.4263
 9565TIP3    H228657   7.268   0.216   0.726 -0.0469  0.3824 -0.2431
 9566TIP3   OH228658   2.303   0.064   0.888 -0.6413 -0.3730  0.3797
 9566TIP3    H128659   2.236   0.077   0.821  0.2623  1.9697 -0.1202
 9566TIP3    H228660   2.279   0.125   0.958  0.4001 -0.2591  0.6423
 9567TIP3   OH228661   0.178   1.302   0.924 -0.1480  0.0217  0.3426
 9567TIP3    H128662   0.214   1.256   1.000  1.1934 -0.2062 -0.4105
 9567TIP3    H228663   0.232   1.380   0.915  0.4869 -0.5682 -1.0949
 9568TIP3   OH228664   3.192   3.337   5.059 -0.7996  0.0474 -0.0707
 9568TIP3    H128665   3.286   3.353   5.074 -1.3187  2.0332  1.1711
 9568TIP3    H228666   3.169   3.269   5.121 -0.7869  1.5445  1.6124
 9569TIP3   OH228667   2.307   4.484   5.562  0.3009  0.6065 -0.1063
 9569TIP3    H128668   2.318   4.572   5.597  3.2952  0.4589 -0.5442
 9569TIP3    H228669   2.351   4.427   5.625 -0.7844 -0.4636 -0.3117
 9570TIP3   OH228670   3.980   5.382   4.390 -0.2567  0.5232  0.2696
 9570TIP3    H128671   3.893   5.381   4.431 -1.1286  0.4988 -1.5460
 9570TIP3    H228672   3.985   5.468   4.348  0.7074  0.6249  0.6007
 9571TIP3   OH228673   5.670   0.191   2.048 -0.4359 -0.2130 -0.3760
 9571TIP3    H128674   5.700   0.161   2.133  0.0751  0.9153 -0.1509
 9571TIP3    H228675   5.676   0.286   2.052 -1.4960 -0.0922 -1.2759
 9572TIP3   OH228676   0.097   1.885   1.590  0.0685 -0.2977  0.7698
 9572TIP3    H128677   0.097   1.931   1.506 -2.2246  0.7517  1.3182
 9572TIP3    H228678   0.005   1.870   1.610  0.6768 -2.6345  1.9783
 9573TIP3   OH228679   0.798   0.020   0.737 -0.5161  0.2569  0.4541
 9573TIP3    H128680   0.875   0.014   0.680 -1.9462  0.1299 -1.5539
 9573TIP3    H228681   0.784   0.115   0.748 -0.3152  0.2837  0.4807
 9574TIP3   OH228682   6.589   1.463   0.426 -0.0048 -1.0480  0.0312
 9574TIP3    H128683   6.619   1.554   0.414 -0.1024 -0.9185  0.7819
 9574TIP3    H228684   6.647   1.412   0.370 -0.5586 -0.4215 -1.1309
 9575TIP3   OH228685   0.981   0.027   0.348  0.2475  0.3397  0.1046
 9575TIP3    H128686   0.909  -0.024   0.384  2.1751 -3.7385 -1.5122
 9575TIP3    H228687   0.970   0.022   0.253  1.2084  1.8214 -0.0998
 9576TIP3   OH228688   5.882   6.122   0.628 -0.2480 -0.4263  0.2003
 9576TIP3    H128689   5.892   6.079   0.713  0.3697  0.0784  0.3806
 9576TIP3    H228690   5.903   6.054   0.564 -0.6856 -0.7986  0.4443
 9577TIP3   OH228691   2.812   4.971   5.206 -0.0172 -0.1368 -0.0722
 9577TIP3    H128692   2.785   4.916   5.132  2.3493 -0.2256 -0.9049
 9577TIP3    H228693   2.791   5.061   5.178 -0.4920 -0.2964 -0.2323
 9578TIP3   OH228694   1.435   4.226   5.433 -0.3926  0.4693  0.2059
 9578TIP3    H128695   1.382   4.233   5.512  0.5435 -1.6070  1.0670
 9578TIP3    H228696   1.390   4.160   5.379 -0.8445  1.6275 -0.8548
 9579TIP3   OH228697   0.700   1.463   3.355 -0.5991  0.2245 -0.0636
 9579TIP3    H128698   0.784   1.507   3.340 -0.3644  0.1638  1.0888
 9579TIP3    H228699   0.655   1.471   3.271  1.0579 -0.8583 -1.1050
 9580TIP3   OH228700   5.796   7.067   0.008 -0.5093  0.0474 -0.1877
 9580TIP3    H128701   5.769   7.019   0.086 -0.7939  0.4411 -0.0372
 9580TIP3    H228702   5.891   7.068   0.011 -0.4977 -0.7103 -0.3198
 9581TIP3   OH228703   6.381   1.681   5.484 -0.3161 -0.5098  0.2041
 9581TIP3    H128704   6.470   1.712   5.470 -0.4950 -0.4739 -0.8485
 9581TIP3    H228705   6.378   1.658   5.577  1.4180 -2.4998 -0.2106
 9582TIP3   OH228706   1.232   1.173   1.302  0.0398 -0.2075 -0.4414
 9582TIP3    H128707   1.154   1.190   1.249  0.0095  0.4899 -0.1917
 9582TIP3    H228708   1.228   1.240   1.371  0.6411 -0.4293 -0.1881
 9583TIP3   OH228709   0.309   6.451   2.370 -0.0392  0.2905 -0.6501
 9583TIP3    H128710   0.270   6.394   2.303 -0.0854  1.4619 -1.6299
 9583TIP3    H228711   0.398   6.419   2.380 -0.0200  0.1283 -1.3039
 9584TIP3   OH228712   4.019   5.816   5.783 -0.3722 -0.3313  0.3946
 9584TIP3    H128713   3.958   5.748   5.811 -0.1024 -0.3220  1.0265
 9584TIP3    H228714   4.084   5.770   5.731 -0.5668 -0.4458  0.2513
 9585TIP3   OH228715   0.252   3.019   0.875  0.5941 -0.2160 -0.4297
 9585TIP3    H128716   0.270   3.035   0.967  0.5980  2.3091 -0.8443
 9585TIP3    H228717   0.326   3.059   0.828 -0.2549 -0.0110 -1.6123
 9586TIP3   OH228718   2.105   5.758   6.290  0.2640 -0.4756  0.2779
 9586TIP3    H128719   2.156   5.689   6.332  1.7639  0.4004 -0.0514
 9586TIP3    H228720   2.015   5.727   6.292  0.8982 -2.3614  0.2841
 9587TIP3   OH228721   7.127   0.406   2.076  0.0755 -0.3040 -0.1013
 9587TIP3    H128722   7.075   0.327   2.066  0.6768 -0.7040 -0.0597
 9587TIP3    H228723   7.069   0.467   2.121 -0.0224 -1.0869  0.8450
 9588TIP3   OH228724   0.233   0.717   0.521 -0.5072  0.3585 -0.2997
 9588TIP3    H128725   0.256   0.751   0.435  2.5067 -1.3001 -0.2167
 9588TIP3    H228726   0.261   0.625   0.518 -0.8341  0.1476  2.2688
 9589TIP3   OH228727   7.811   1.824   2.054 -0.0527 -0.3040 -0.3223
 9589TIP3    H128728   7.754   1.748   2.044 -0.2086 -0.0210 -1.6668
 9589TIP3    H228729   7.751   1.898   2.066  0.1127 -0.5014  1.8625
 9590TIP3   OH228730   4.807   5.559   5.628  0.0319 -0.7479  0.4106
 9590TIP3    H128731   4.860   5.583   5.705 -1.7030  1.3742  1.0009
 9590TIP3    H228732   4.868   5.566   5.554  1.1681 -0.6764  1.3245
 9591TIP3   OH228733   6.283   0.762   1.775  0.3771  0.3393 -0.6021
 9591TIP3    H128734   6.225   0.788   1.703 -0.5970  1.4238  0.5500
 9591TIP3    H228735   6.348   0.832   1.779  1.7399 -0.8211 -1.8232
 9592TIP3   OH228736   7.471   1.642   0.300 -0.5013 -0.3804  0.2052
 9592TIP3    H128737   7.492   1.582   0.371  0.5372 -0.7096 -0.3622
 9592TIP3    H228738   7.464   1.728   0.342  0.5436 -0.5017  0.6376
 9593TIP3   OH228739   6.577   1.083   1.288 -0.1190  0.2480 -0.2357
 9593TIP3    H128740   6.646   1.132   1.335  0.9491 -1.6424  0.2277
 9593TIP3    H228741   6.503   1.084   1.348  0.5891 -0.4581  0.6802
 9594TIP3   OH228742   0.512   0.730   1.193 -0.0666 -0.5544  0.0519
 9594TIP3    H128743   0.584   0.669   1.201  0.4866  0.1143  0.2522
 9594TIP3    H228744   0.498   0.739   1.098  1.9100  1.3588 -0.1147
 9595TIP3   OH228745   0.243   1.012   0.761  0.0272 -0.5248  0.0259
 9595TIP3    H128746   0.214   1.090   0.713 -1.2897  0.0343  1.6670
 9595TIP3    H228747   0.334   1.000   0.735 -0.3297  0.4123 -1.7475
 9596TIP3   OH228748   7.542   5.805   0.573  0.3657 -0.4225  0.4093
 9596TIP3    H128749   7.499   5.721   0.561 -0.7325 -0.1591  2.3095
 9596TIP3    H228750   7.483   5.868   0.531 -0.3020 -0.2602  1.5729
 9597TIP3   OH228751   6.381   3.041   0.052 -0.1072 -0.1033  0.2737
 9597TIP3    H128752   6.304   3.054  -0.003  0.6314 -0.5494 -0.8760
 9597TIP3    H228753   6.388   3.122   0.103 -1.0012  0.1660 -0.0298
 9598TIP3   OH228754   3.399   7.077   2.124 -0.0424  0.5728  0.5819
 9598TIP3    H128755   3.390   7.138   2.052  1.5492 -1.2458 -1.2178
 9598TIP3    H228756   3.462   7.118   2.184  0.7244  0.8715 -0.4203
 9599TIP3   OH228757   2.472   2.224   0.965  0.1008 -0.1642  0.0500
 9599TIP3    H128758   2.475   2.318   0.949  0.8081  0.1193  1.7445
 9599TIP3    H228759   2.379   2.205   0.981 -0.1412  0.1076 -0.9792
 9600TIP3   OH228760   0.380   4.058   0.646  0.1031 -0.4012 -0.1546
 9600TIP3    H128761   0.464   4.013   0.643 -0.3472 -1.2532 -0.3127
 9600TIP3    H228762   0.348   4.057   0.556  0.5630  1.1755 -0.3447
 9601TIP3   OH228763   6.868   0.881   1.172 -0.3585 -0.5565 -0.1313
 9601TIP3    H128764   6.892   0.796   1.136  0.9225 -1.1513  2.0738
 9601TIP3    H228765   6.866   0.939   1.096  2.8302 -1.6564 -1.1201
 9602TIP3   OH228766   0.771   6.112   5.191 -0.1278  0.7215 -0.0806
 9602TIP3    H128767   0.728   6.046   5.246 -0.5090 -0.0621 -1.3054
 9602TIP3    H228768   0.861   6.115   5.222 -0.6589  1.2392  1.4658
 9603TIP3   OH228769   3.526   6.847   6.302  0.4410  0.1807  0.2046
 9603TIP3    H128770   3.603   6.808   6.261  1.5557  1.8929  0.6273
 9603TIP3    H228771   3.452   6.806   6.257  1.6075  0.1625 -1.7790
 9604TIP3   OH228772   1.404   6.646   5.279 -0.6024 -0.2644  0.1033
 9604TIP3    H128773   1.421   6.659   5.372  0.8467 -1.0095 -0.0389
 9604TIP3    H228774   1.454   6.714   5.235 -1.7222  0.4259 -0.1112
 9605TIP3   OH228775   2.474   0.999   0.069  0.1669  0.1680  0.2775
 9605TIP3    H128776   2.520   0.919   0.097 -0.8433 -0.7671 -0.6835
 9605TIP3    H228777   2.535   1.070   0.090  0.4326 -0.7070  2.5800
 9606TIP3   OH228778   4.938   1.465   0.972  0.0394  0.2937 -0.4102
 9606TIP3    H128779   4.938   1.548   0.924 -1.9757  0.2005 -0.6083
 9606TIP3    H228780   4.939   1.492   1.064  0.0500  0.5145 -0.4736
 9607TIP3   OH228781   0.995   0.857   1.545 -0.2783 -0.5276  0.2065
 9607TIP3    H128782   0.971   0.814   1.462 -0.1587  0.6523 -0.4473
 9607TIP3    H228783   1.082   0.893   1.529 -0.8456  0.9274  0.3722
 9608TIP3   OH228784   5.934   6.035   1.783  0.4511  0.0143  0.0259
 9608TIP3    H128785   5.944   6.123   1.818  0.3255 -0.3603  1.0178
 9608TIP3    H228786   5.841   6.016   1.788  0.1528  0.7005 -2.3692
 9609TIP3   OH228787   3.909   5.744   1.948 -0.5644  0.3469  0.2095
 9609TIP3    H128788   3.848   5.769   1.879  1.5383  0.9106 -1.5161
 9609TIP3    H228789   3.954   5.826   1.972 -0.5525 -0.0296  1.5161
 9610TIP3   OH228790   3.235   4.341   5.812  0.3337 -0.0203 -0.5212
 9610TIP3    H128791   3.259   4.393   5.735  1.3804  0.8354  0.3688
 9610TIP3    H228792   3.152   4.379   5.842  0.1726 -0.0373 -0.9471
 9611TIP3   OH228793   5.550   7.157   0.542  0.0697  0.0745 -0.3624
 9611TIP3    H128794   5.483   7.121   0.484 -0.2675 -0.8783  0.5904
 9611TIP3    H228795   5.630   7.110   0.518 -0.2179 -0.8109  0.4020
 9612TIP3   OH228796   6.884   0.658   0.873 -0.1776  0.0262 -0.4478
 9612TIP3    H128797   6.877   0.749   0.844 -0.5803 -0.3261 -1.5107
 9612TIP3    H228798   6.977   0.646   0.893 -0.3899  1.1289  1.3108
 9613TIP3   OH228799   3.448   4.416   4.535 -0.1294  0.0396 -0.0057
 9613TIP3    H128800   3.530   4.370   4.522 -0.4191 -1.1014  2.0964
 9613TIP3    H228801   3.383   4.347   4.547 -0.8267  0.9641  1.6385
 9614TIP3   OH228802   0.489   1.059   1.037 -0.6202  0.5204 -0.5819
 9614TIP3    H128803   0.585   1.061   1.037 -0.5866 -0.7030  0.3297
 9614TIP3    H228804   0.464   1.081   0.947  0.5443 -0.1249 -1.0713
 9615TIP3   OH228805   2.493   5.291   3.376 -0.4637 -0.1640 -0.1513
 9615TIP3    H128806   2.438   5.286   3.298  0.2402 -0.4700 -0.6373
 9615TIP3    H228807   2.537   5.206   3.380 -0.7419 -0.2702  0.7681
 9616TIP3   OH228808   0.465   1.438   0.280 -0.4930  0.6434  0.2756
 9616TIP3    H128809   0.548   1.391   0.279 -0.5609  0.4816  1.5971
 9616TIP3    H228810   0.402   1.376   0.316 -1.1171  0.8831 -0.3978
 9617TIP3   OH228811   7.231   1.717   2.474 -0.3666  0.3761 -0.3395
 9617TIP3    H128812   7.168   1.647   2.485  1.0864 -0.7749  0.9327
 9617TIP3    H228813   7.269   1.729   2.561  0.8683  1.2994 -0.9865
 9618TIP3   OH228814   4.311   5.484   1.037 -0.4520 -0.5879  0.3281
 9618TIP3    H128815   4.236   5.520   0.990 -0.2744  0.5098  0.8827
 9618TIP3    H228816   4.367   5.447   0.969 -0.4246  0.5646 -0.2824
 9619TIP3   OH228817   4.327   6.447   0.189 -0.4476 -0.3800 -0.2301
 9619TIP3    H128818   4.337   6.354   0.205 -0.1416 -0.7157 -2.2136
 9619TIP3    H228819   4.410   6.485   0.218 -1.3399 -0.4164  2.4993
 9620TIP3   OH228820   4.529   7.045   0.964  0.1041 -0.1383  0.4987
 9620TIP3    H128821   4.609   7.095   0.983 -0.2621  0.0228  1.6093
 9620TIP3    H228822   4.474   7.106   0.915  0.0779  0.2249  0.9722
 9621TIP3   OH228823   0.650   2.627   0.829  0.2315  0.7359  0.3063
 9621TIP3    H128824   0.695   2.662   0.753  0.1652  2.1733  0.9096
 9621TIP3    H228825   0.563   2.602   0.796  0.8346 -0.4035 -0.4697
 9622TIP3   OH228826   6.293   1.791   0.998  0.0479 -0.2846 -0.0394
 9622TIP3    H128827   6.213   1.845   0.999 -0.1563 -0.5900  0.5829
 9622TIP3    H228828   6.311   1.777   0.905 -0.5803 -0.1456 -0.1855
 9623TIP3   OH228829   3.993   2.095   6.066 -0.2755  0.0123  0.2503
 9623TIP3    H128830   3.959   2.031   6.128 -0.6826  1.0511  1.1356
 9623TIP3    H228831   4.067   2.052   6.024 -0.6439 -1.0827  0.7179
 9624TIP3   OH228832   5.009   6.892   1.614 -0.2592 -0.3090  0.3958
 9624TIP3    H128833   5.048   6.977   1.595  0.8539 -0.8439  0.2521
 9624TIP3    H228834   5.017   6.883   1.709  1.3633 -1.0637  0.2137
 9625TIP3   OH228835   2.223   3.281   6.153 -0.7478  0.0865  0.4488
 9625TIP3    H128836   2.190   3.212   6.095 -1.5864  0.5594  0.3505
 9625TIP3    H228837   2.201   3.362   6.108 -0.0269  0.4277  0.7050
 9626TIP3   OH228838   1.578   3.565   5.795  0.7005  0.1521  0.3947
 9626TIP3    H128839   1.579   3.661   5.803  1.4930  0.1287  0.6228
 9626TIP3    H228840   1.618   3.535   5.876 -1.4528 -0.4431  1.2870
 9627TIP3   OH228841   3.313   5.308   5.810  0.2713 -0.1290 -0.6048
 9627TIP3    H128842   3.318   5.246   5.737 -2.5119 -0.3810 -0.6568
 9627TIP3    H228843   3.331   5.393   5.770  0.1878 -0.4410 -1.3271
 9628TIP3   OH228844   2.150   2.455   1.245  0.0401 -0.0225 -0.4509
 9628TIP3    H128845   2.194   2.535   1.272 -0.6042  0.4273 -0.7165
 9628TIP3    H228846   2.078   2.485   1.189 -0.5953 -0.7472 -0.0266
 9629TIP3   OH228847   4.775   6.665   0.522 -0.0377  0.3878  0.1295
 9629TIP3    H128848   4.744   6.685   0.434 -0.4570  0.6389  0.3375
 9629TIP3    H228849   4.700   6.628   0.567  0.4160 -0.5660  0.1103
 9630TIP3   OH228850   5.281   6.765   1.266 -0.7901  0.0702 -0.1248
 9630TIP3    H128851   5.233   6.683   1.254 -3.1575  1.3911 -0.0423
 9630TIP3    H228852   5.340   6.748   1.339  0.1544 -2.1469 -1.3568
 9631TIP3   OH228853   5.640   1.239   1.167  0.2331  0.2007  0.4463
 9631TIP3    H128854   5.727   1.259   1.202  0.2964  0.7903 -0.0466
 9631TIP3    H228855   5.602   1.324   1.148  0.9041 -0.1523 -2.6680
 9632TIP3   OH228856   3.626   3.752   5.823  0.0373 -0.0719  0.0605
 9632TIP3    H128857   3.620   3.772   5.730  1.4016  1.1375  0.2095
 9632TIP3    H228858   3.688   3.680   5.829  2.2981  1.8320  0.2418
 9633TIP3   OH228859   4.652   7.106   0.318  0.2000 -0.1173  0.1369
 9633TIP3    H128860   4.683   7.139   0.403  0.2740  0.8649 -0.2705
 9633TIP3    H228861   4.730   7.069   0.277  0.1227 -0.7895  0.5797
 9634TIP3   OH228862   1.752   2.335   5.777  0.3230 -0.2658  0.3508
 9634TIP3    H128863   1.736   2.392   5.702 -0.9552 -0.3250  0.5614
 9634TIP3    H228864   1.675   2.346   5.833  0.1265 -2.0404  0.4832
 9635TIP3   OH228865   2.299   5.452   6.205  0.4286  0.0873  0.0753
 9635TIP3    H128866   2.206   5.428   6.209  0.9410 -1.8136  1.2321
 9635TIP3    H228867   2.322   5.477   6.295  1.1735  0.0238 -0.0907
 9636TIP3   OH228868   3.602   6.786   5.808 -0.4739 -0.0660 -0.2410
 9636TIP3    H128869   3.662   6.787   5.733  0.2979 -0.1476  0.3662
 9636TIP3    H228870   3.620   6.868   5.854 -1.2471  0.1813 -0.3735
 9637TIP3   OH228871   6.155   1.609   2.579  0.1575  0.2153 -0.1729
 9637TIP3    H128872   6.105   1.683   2.546 -1.4778 -1.1892 -0.9466
 9637TIP3    H228873   6.131   1.536   2.522  2.7127 -0.6473 -0.2357
 9638TIP3   OH228874   3.186   5.412   3.013  0.4273 -0.5167  0.0640
 9638TIP3    H128875   3.276   5.418   3.044  0.4145  1.8760 -0.2330
 9638TIP3    H228876   3.172   5.319   2.995  2.7423 -0.9454  0.3908
 9639TIP3   OH228877   4.639   5.164   1.126 -0.0782  0.0482  0.5640
 9639TIP3    H128878   4.704   5.155   1.195 -1.5009 -1.2855  1.7803
 9639TIP3    H228879   4.645   5.082   1.076 -0.2788  0.2580  0.1897
 9640TIP3   OH228880   2.971   4.618   5.539 -0.6662  0.5801 -0.4298
 9640TIP3    H128881   2.881   4.640   5.516 -0.9036 -0.5359 -0.5934
 9640TIP3    H228882   2.977   4.523   5.527  0.4992  0.6270 -0.3113
 9641TIP3   OH228883   7.810   0.595   0.282  0.4274 -0.3130 -0.3223
 9641TIP3    H128884   7.795   0.530   0.214  0.2443 -1.3940  0.7458
 9641TIP3    H228885   7.742   0.579   0.347  0.1767  1.1617 -0.2005
 9642TIP3   OH228886   5.021   2.688   4.229  0.5774  0.0194 -0.2973
 9642TIP3    H128887   5.025   2.603   4.272 -1.3240 -0.1338 -0.3689
 9642TIP3    H228888   4.978   2.670   4.145 -0.8648  1.2235  0.1634
 9643TIP3   OH228889   0.359   0.065   5.460 -0.0842  0.0872 -0.0182
 9643TIP3    H128890   0.408   0.053   5.540  0.8918 -1.0973 -0.7766
 9643TIP3    H228891   0.420   0.041   5.390 -1.3534 -0.2558 -1.0320
 9644TIP3   OH228892   5.712   2.890   6.099  0.1409 -0.0557 -0.3437
 9644TIP3    H128893   5.652   2.935   6.041 -1.0612  0.2354  1.0992
 9644TIP3    H228894   5.780   2.955   6.118 -1.3463  1.0533  1.3656
 9645TIP3   OH228895   2.032   5.085   4.783 -0.3971 -0.6502  0.6430
 9645TIP3    H128896   2.051   5.072   4.690  2.4964  1.3185  0.8936
 9645TIP3    H228897   1.989   5.171   4.787  0.4702 -0.2368  1.2167
 9646TIP3   OH228898   7.403   0.656   0.610 -0.2778 -0.1046  0.0736
 9646TIP3    H128899   7.399   0.570   0.651 -0.5328  0.1710  0.6294
 9646TIP3    H228900   7.459   0.643   0.533 -0.5523 -0.8291 -0.0100
 9647TIP3   OH228901   7.355   1.352   0.374 -0.5346 -0.2582 -0.1389
 9647TIP3    H128902   7.440   1.341   0.330  0.0310  0.6785  0.6984
 9647TIP3    H228903   7.373   1.411   0.447 -1.3724 -2.1929  1.6767
 9648TIP3   OH228904   7.740   1.628   1.222  0.2355  0.1947 -0.1625
 9648TIP3    H128905   7.652   1.601   1.248  0.5108 -2.0869 -1.4600
 9648TIP3    H228906   7.730   1.657   1.132  0.9277 -0.8294 -0.5804
 9649TIP3   OH228907   5.288   7.309   0.337  0.6900 -0.5119  0.0529
 9649TIP3    H128908   5.265   7.340   0.250 -1.9184 -1.4246  0.3640
 9649TIP3    H228909   5.290   7.214   0.329 -0.6449 -0.6552  1.2148
 9650TIP3   OH228910   2.961   3.743   5.417  0.4088 -0.2431 -0.7433
 9650TIP3    H128911   2.990   3.655   5.441  0.2220 -0.0673  0.1229
 9650TIP3    H228912   3.040   3.784   5.380  0.7005 -0.5046 -0.4167
 9651TIP3   OH228913   3.260   4.687   6.154 -0.1136 -0.2386 -0.3879
 9651TIP3    H128914   3.341   4.646   6.184 -0.2083 -0.4192 -0.3801
 9651TIP3    H228915   3.210   4.701   6.235  0.7457  1.6815 -0.1744
 9652TIP3   OH228916   0.170   1.110   1.141  0.1116 -0.1287 -0.0166
 9652TIP3    H128917   0.076   1.122   1.122  0.7761  0.7773 -3.0831
 9652TIP3    H228918   0.194   1.031   1.093  1.4786  1.1574 -1.5066
 9653TIP3   OH228919   3.601   5.231   5.648  0.5587 -0.5210 -0.0202
 9653TIP3    H128920   3.669   5.167   5.672 -1.7228 -3.0950 -0.1724
 9653TIP3    H228921   3.520   5.179   5.644 -1.0496  2.0574 -1.9972
 9654TIP3   OH228922   4.268   0.700   4.853 -0.5178  0.1434  0.0418
 9654TIP3    H128923   4.271   0.772   4.789 -1.5196  0.8857  0.8055
 9654TIP3    H228924   4.284   0.743   4.937  0.0741 -0.7234  0.3775
 9655TIP3   OH228925   5.891   6.717   1.185  0.2024 -0.3743 -0.1103
 9655TIP3    H128926   5.878   6.632   1.144 -1.7824  0.7746 -1.9809
 9655TIP3    H228927   5.898   6.779   1.112 -0.1365  1.2988  1.2327
 9656TIP3   OH228928   2.817   6.063   5.907 -0.2291 -0.2580 -0.3336
 9656TIP3    H128929   2.740   6.030   5.860 -0.6984 -2.6044  1.9540
 9656TIP3    H228930   2.783   6.129   5.967 -0.0899  0.4487 -1.0258
 9657TIP3   OH228931   7.755   1.870   0.119  0.0612  0.0589  0.1460
 9657TIP3    H128932   7.839   1.878   0.074  0.7572 -0.9987  1.2284
 9657TIP3    H228933   7.776   1.884   0.211 -0.4872 -2.8859  0.7555
 9658TIP3   OH228934   2.413   3.536   3.279  0.7971  0.2377  0.7330
 9658TIP3    H128935   2.449   3.448   3.270 -0.5993 -0.1991 -0.8313
 9658TIP3    H228936   2.451   3.584   3.205 -1.8174 -0.2432 -0.9665
 9659TIP3   OH228937   2.935   3.422   5.199 -0.4463 -0.3479 -0.0042
 9659TIP3    H128938   2.862   3.482   5.211 -0.9101 -1.0568  0.7243
 9659TIP3    H228939   2.910   3.370   5.123  0.0180  0.4521 -0.7241
 9660TIP3   OH228940   2.404   5.182   5.080 -0.2238 -0.3040  0.2699
 9660TIP3    H128941   2.482   5.130   5.100  0.9181  1.4491  0.4525
 9660TIP3    H228942   2.381   5.159   4.990  2.3764  1.4698 -0.9004
 9661TIP3   OH228943   4.674   7.006   1.365  0.5288 -0.6657  0.3819
 9661TIP3    H128944   4.685   7.087   1.415  1.1851 -0.1728 -0.5386
 9661TIP3    H228945   4.763   6.973   1.354  0.4195 -0.6140 -0.7071
 9662TIP3   OH228946   6.701   0.834   1.469 -0.1083  0.1928 -0.0346
 9662TIP3    H128947   6.708   0.923   1.501 -0.5900 -0.6181  2.4340
 9662TIP3    H228948   6.607   0.821   1.454 -0.2924 -0.5301  1.6040
 9663TIP3   OH228949   2.137   4.588   5.388  0.1321 -0.1868 -0.0831
 9663TIP3    H128950   2.203   4.542   5.440 -0.3260 -1.0344 -0.2449
 9663TIP3    H228951   2.056   4.540   5.404 -0.0683 -0.2863 -1.3554
 9664TIP3   OH228952   1.509   2.730   5.466 -0.0149  0.0273  0.1630
 9664TIP3    H128953   1.482   2.675   5.539  1.2665 -1.8165 -0.7258
 9664TIP3    H228954   1.518   2.818   5.504 -1.1555 -0.5344  1.7914
 9665TIP3   OH228955   0.843   1.053   0.458 -0.2634  0.3114 -0.2194
 9665TIP3    H128956   0.827   0.977   0.402 -3.6783  1.2691 -0.6033
 9665TIP3    H228957   0.817   1.024   0.546  0.2044  0.4570 -0.0316
 9666TIP3   OH228958   5.754   6.706   0.131  0.2096  0.9192 -0.1360
 9666TIP3    H128959   5.836   6.697   0.082 -0.2842 -0.0586 -0.8119
 9666TIP3    H228960   5.689   6.661   0.076 -0.6348  1.0756  0.7339
 9667TIP3   OH228961   2.256   2.775   3.868 -0.7258  0.7196 -0.6427
 9667TIP3    H128962   2.215   2.722   3.799 -0.6488 -1.0044  0.6190
 9667TIP3    H228963   2.299   2.846   3.820  0.3727 -1.1318 -2.4793
 9668TIP3   OH228964   2.312   2.807   5.091 -0.3132  0.0711 -0.2364
 9668TIP3    H128965   2.275   2.894   5.103  1.6196  0.7606  0.9213
 9668TIP3    H228966   2.406   2.822   5.077  0.2152 -1.8526  0.9945
 9669TIP3   OH228967   4.647   4.555   5.452  0.0307 -0.0599  0.4700
 9669TIP3    H128968   4.647   4.488   5.384  0.5050 -0.8830  1.2809
 9669TIP3    H228969   4.726   4.607   5.435  0.5440 -0.7197  0.8438
 9670TIP3   OH228970   3.784   4.963   5.465  0.0941 -0.2879  0.1501
 9670TIP3    H128971   3.871   4.997   5.444  0.0282 -0.7929 -1.0054
 9670TIP3    H228972   3.724   5.033   5.440  0.1756  0.1384  1.1345
 9671TIP3   OH228973   0.320   0.156   0.310 -0.0371 -0.5034  0.4096
 9671TIP3    H128974   0.250   0.098   0.340  0.5043 -0.9314  0.8384
 9671TIP3    H228975   0.401   0.112   0.334  0.3872  0.0916  0.1005
 9672TIP3   OH228976   3.186   5.322   0.946 -0.5881 -0.5268  0.2282
 9672TIP3    H128977   3.122   5.267   0.899  0.7541  0.2581 -2.6276
 9672TIP3    H228978   3.166   5.411   0.919 -1.3719  0.2447  3.1733
 9673TIP3   OH228979   4.922   7.291   1.457 -0.2004 -0.6093  0.1072
 9673TIP3    H128980   4.957   7.374   1.489  0.7753 -0.6931 -0.7120
 9673TIP3    H228981   4.850   7.271   1.516  0.3613  0.1917  1.0801
 9674TIP3   OH228982   3.034   0.046   1.956  0.0255 -0.1865 -0.4457
 9674TIP3    H128983   3.095   0.110   1.993 -0.4296 -0.4402  0.7635
 9674TIP3    H228984   2.959   0.048   2.015 -1.1390  0.0953 -1.8931
 9675TIP3   OH228985   0.164   1.214   0.589 -0.3802  0.1535 -0.0935
 9675TIP3    H128986   0.083   1.212   0.538 -0.7254  1.3924  0.3975
 9675TIP3    H228987   0.170   1.303   0.622  1.1292  0.0478 -0.0178
 9676TIP3   OH228988   5.499   1.933   1.399 -0.3174  0.7838  0.6266
 9676TIP3    H128989   5.542   1.917   1.315 -1.7515  1.4185 -0.2513
 9676TIP3    H228990   5.570   1.955   1.459  0.9624 -1.8604  0.1475
 9677TIP3   OH228991   3.422   5.047   6.178  0.1764  0.2351  0.3654
 9677TIP3    H128992   3.513   5.064   6.201  0.0725  1.1442  0.1144
 9677TIP3    H228993   3.380   5.026   6.262  0.0658  2.3434  0.8481
 9678TIP3   OH228994   2.981   5.544   5.287  0.1355  0.2757 -0.3214
 9678TIP3    H128995   3.075   5.538   5.301  0.0669  1.4956  0.7946
 9678TIP3    H228996   2.943   5.480   5.347  0.2686 -0.5664 -1.1263
 9679TIP3   OH228997   7.739   2.173   2.317  0.5110  0.0786  0.4489
 9679TIP3    H128998   7.687   2.190   2.396  0.1053 -2.2769  0.7247
 9679TIP3    H228999   7.807   2.240   2.318 -0.3504  0.9655  2.0366
 9680TIP3   OH229000   3.710   5.183   5.070  0.4953 -0.4038 -0.1614
 9680TIP3    H129001   3.727   5.267   5.114  0.5887 -0.3853 -0.2332
 9680TIP3    H229002   3.769   5.184   4.995  0.9464 -0.8112  0.1888
 9681TIP3   OH229003   6.374   1.088   2.050  0.6319 -0.4003 -0.1126
 9681TIP3    H129004   6.305   1.060   1.989 -0.5778  0.6625  0.7334
 9681TIP3    H229005   6.391   1.179   2.026  0.5068 -0.1330  0.7974
 9682TIP3   OH229006   4.107   6.615   0.352 -0.9346 -0.0441 -0.0600
 9682TIP3    H129007   4.157   6.534   0.351 -1.6643 -0.6429  3.2845
 9682TIP3    H229008   4.023   6.590   0.391 -2.3426  1.7284 -1.8572
 9683TIP3   OH229009   0.189   1.616   1.303 -0.1853  0.6152 -0.2202
 9683TIP3    H129010   0.237   1.684   1.256 -1.3860  0.8575 -1.1229
 9683TIP3    H229011   0.101   1.618   1.265 -0.4511 -0.9147  0.2694
 9684TIP3   OH229012   2.375   5.233   5.355  0.2136 -0.7310 -0.3835
 9684TIP3    H129013   2.387   5.227   5.260  1.2645 -1.8228 -0.1897
 9684TIP3    H229014   2.405   5.321   5.377 -0.6403 -0.2406 -1.1445
 9685TIP3   OH229015   7.732   1.722   0.958 -0.2109 -0.2117  0.3208
 9685TIP3    H129016   7.761   1.670   0.882 -0.3354 -0.9285  0.7545
 9685TIP3    H229017   7.674   1.788   0.921 -2.9809 -2.6387  0.1398
 9686TIP3   OH229018   0.532   1.309   0.783  0.2172 -0.0794  0.0552
 9686TIP3    H129019   0.486   1.366   0.844 -0.1366  0.9571 -1.1600
 9686TIP3    H229020   0.546   1.363   0.705 -0.2470 -1.6801 -1.1712
 9687TIP3   OH229021   5.439   6.420   0.074 -0.3718  0.3656 -0.3614
 9687TIP3    H129022   5.388   6.432   0.154  0.2277  1.1999 -0.0842
 9687TIP3    H229023   5.469   6.509   0.052  0.9741 -0.1081 -0.4906
 9688TIP3   OH229024   2.746   6.281   6.103  0.3325  0.3527 -0.6163
 9688TIP3    H129025   2.838   6.306   6.102  0.1713  0.9043 -1.8944
 9688TIP3    H229026   2.731   6.250   6.193  1.6688  0.5744 -0.3056
 9689TIP3   OH229027   4.198   4.657   0.439  0.3290 -0.5932 -0.1158
 9689TIP3    H129028   4.177   4.749   0.457  1.4941 -0.4884  0.8152
 9689TIP3    H229029   4.151   4.608   0.506  0.2695 -0.6193 -0.1765
 9690TIP3   OH229030   7.474   4.928   1.864 -0.2523  0.2819  0.4395
 9690TIP3    H129031   7.524   4.991   1.915 -1.4247 -0.2745  2.3368
 9690TIP3    H229032   7.399   4.978   1.832 -1.0277 -0.0341  1.7007
 9691TIP3   OH229033   4.747   5.233   6.143  0.1983 -0.3703 -0.2897
 9691TIP3    H129034   4.744   5.167   6.074 -0.0687  0.3176 -0.9350
 9691TIP3    H229035   4.661   5.227   6.185  0.0628 -0.2164 -0.5463
 9692TIP3   OH229036   7.284   0.582   1.502 -0.3813  0.1946  0.6397
 9692TIP3    H129037   7.265   0.657   1.446 -1.4955  0.7234  1.6996
 9692TIP3    H229038   7.222   0.590   1.575  0.0970 -1.2524  1.2273
 9693TIP3   OH229039   4.687   4.944   0.982  0.5115 -0.0011  0.4359
 9693TIP3    H129040   4.760   4.883   0.990  0.6113 -0.0137 -0.5223
 9693TIP3    H229041   4.609   4.889   0.988  0.5249  0.1963  3.0969
 9694TIP3   OH229042   5.168   5.686   1.459  0.0391  0.4765  0.1089
 9694TIP3    H129043   5.201   5.774   1.442  1.1609  0.2944  1.2585
 9694TIP3    H229044   5.213   5.658   1.539  1.5169 -2.0380 -1.5182
 9695TIP3   OH229045   0.321   7.182   3.587 -0.7520 -0.0342 -0.2943
 9695TIP3    H129046   0.384   7.179   3.659 -0.5693 -0.5921 -0.4770
 9695TIP3    H229047   0.361   7.239   3.522 -0.7414  0.1525 -0.1273
 9696TIP3   OH229048   5.114   5.932   1.866  0.4433 -0.1964  0.3492
 9696TIP3    H129049   5.127   5.978   1.949  1.3555 -0.3815  0.3194
 9696TIP3    H229050   5.066   5.853   1.889  0.2730 -0.0115  0.6317
 9697TIP3   OH229051   0.740   3.598   5.808 -0.1290  0.2554  0.1507
 9697TIP3    H129052   0.789   3.634   5.734 -0.4439  0.2908 -0.0390
 9697TIP3    H229053   0.758   3.659   5.880  0.1147  0.2635  0.0850
 9698TIP3   OH229054   6.985   6.339   2.072  0.0201  0.4038  0.6180
 9698TIP3    H129055   6.933   6.375   2.144 -0.5445 -1.5053  1.1997
 9698TIP3    H229056   7.076   6.358   2.096 -0.3208  2.4710  0.3097
 9699TIP3   OH229057   6.173   1.558   0.710  0.5116  0.1757  0.2310
 9699TIP3    H129058   6.257   1.516   0.693  0.7277  1.1880 -1.3709
 9699TIP3    H229059   6.111   1.513   0.653  0.6083  1.5111 -0.9705
 9700TIP3   OH229060   3.684   3.738   6.205  0.0174 -0.2208  0.4771
 9700TIP3    H129061   3.752   3.711   6.144 -0.8076  0.9676 -0.9999
 9700TIP3    H229062   3.693   3.833   6.211 -1.2562 -0.0938  0.5720
 9701TIP3   OH229063   4.289   0.698   5.200 -0.4884 -0.4892  0.3013
 9701TIP3    H129064   4.234   0.775   5.189  0.7398  0.6177  1.6567
 9701TIP3    H229065   4.228   0.625   5.214 -1.6153  0.7943  2.2724
 9702TIP3   OH229066   4.345   7.212   0.851 -0.0872 -0.6561  0.2291
 9702TIP3    H129067   4.352   7.201   0.757 -0.3239 -0.5497  0.1995
 9702TIP3    H229068   4.263   7.169   0.875  0.8927 -2.3543  0.6476
 9703TIP3   OH229069   5.892   1.217   2.306  0.5443 -0.1908  0.5339
 9703TIP3    H129070   5.919   1.183   2.221  0.1028  0.9174 -0.0671
 9703TIP3    H229071   5.969   1.263   2.340  0.5911 -0.2685  0.5307
 9704TIP3   OH229072   4.845   6.930   0.581  0.0493 -0.0040 -0.2409
 9704TIP3    H129073   4.931   6.919   0.621 -0.5677  0.8086  1.3519
 9704TIP3    H229074   4.816   6.840   0.562  1.0749 -0.3012 -0.4629
 9705TIP3   OH229075   3.053   4.425   6.232  0.0820 -0.3532  0.0301
 9705TIP3    H129076   3.108   4.457   6.160 -0.7822 -0.1864 -0.5620
 9705TIP3    H229077   3.116   4.400   6.300  0.9777 -1.8542 -1.3180
 9706TIP3   OH229078   7.606   5.604   3.443 -0.0613  0.4709  0.4773
 9706TIP3    H129079   7.546   5.532   3.425  0.2367  0.2961  0.1862
 9706TIP3    H229080   7.615   5.649   3.359 -0.3189  0.9038  0.6779
 9707TIP3   OH229081   4.104   2.825   2.013  0.3417 -0.5394 -0.5182
 9707TIP3    H129082   4.100   2.902   2.070 -1.0204 -1.7343  1.0446
 9707TIP3    H229083   4.181   2.840   1.958  0.4603  1.6377  0.1905
 9708TIP3   OH229084   7.581   0.541   0.431 -0.0877 -0.6205 -0.0554
 9708TIP3    H129085   7.583   0.458   0.383  2.8680 -0.2336 -0.6723
 9708TIP3    H229086   7.648   0.531   0.498 -2.8759 -0.4228  2.8498
 9709TIP3   OH229087   3.024   5.220   6.170 -0.2783  0.0631 -0.2411
 9709TIP3    H129088   3.029   5.124   6.176  2.2856  0.2812  2.4914
 9709TIP3    H229089   3.108   5.246   6.133 -0.8482  1.2718 -0.7010
 9710TIP3   OH229090   0.676   1.942   0.840 -0.7352  0.1824 -0.1264
 9710TIP3    H129091   0.750   1.998   0.816 -1.8063  0.8562 -1.9482
 9710TIP3    H229092   0.610   2.003   0.875  0.2111 -0.6126  3.2386
 9711TIP3   OH229093   0.453   2.115   0.929  0.1193  0.6856 -0.4488
 9711TIP3    H129094   0.386   2.076   0.872  0.4791 -1.8584  0.7865
 9711TIP3    H229095   0.403   2.168   0.991 -0.7269 -0.8189  0.1695
 9712TIP3   OH229096   3.518   3.598   4.649 -0.2198 -0.5764 -0.2733
 9712TIP3    H129097   3.498   3.573   4.739 -0.3505  0.4881  0.0028
 9712TIP3    H229098   3.458   3.546   4.595  0.8476 -2.2914  0.1517
 9713TIP3   OH229099   6.951   7.215   0.442  0.2132  0.0140  0.5549
 9713TIP3    H129100   6.859   7.222   0.468  0.4274 -0.6597  1.5407
 9713TIP3    H229101   6.951   7.228   0.347 -0.5881  2.6344  0.8837
 9714TIP3   OH229102   5.221   4.545   2.803  0.4552  0.3595  0.3615
 9714TIP3    H129103   5.171   4.626   2.805 -0.0359  0.0422  1.3744
 9714TIP3    H229104   5.307   4.570   2.769  0.0490  1.1517 -0.0923
 9715TIP3   OH229105   3.968   5.429   5.509  0.0946  0.4740 -0.5192
 9715TIP3    H129106   3.913   5.368   5.559  1.0107  1.0727  1.2847
 9715TIP3    H229107   4.049   5.380   5.493 -0.3563  0.1393 -1.8001
 9716TIP3   OH229108   4.659   5.133   5.142  0.1417  0.0197  0.2923
 9716TIP3    H129109   4.629   5.216   5.179  0.0780  0.4824 -0.7787
 9716TIP3    H229110   4.671   5.076   5.218  0.4437  1.0838  1.0599
 9717TIP3   OH229111   3.787   5.498   4.754 -0.4037  0.4040  0.4034
 9717TIP3    H129112   3.840   5.533   4.682 -1.9922  0.4753 -0.7496
 9717TIP3    H229113   3.747   5.576   4.794 -0.2790  0.2776  0.7815
 9718TIP3   OH229114   5.581   0.572   0.753  0.1639 -0.4345  0.3713
 9718TIP3    H129115   5.547   0.657   0.778  0.0774 -0.2323 -0.4357
 9718TIP3    H229116   5.508   0.512   0.765 -0.2275 -0.1402 -0.5451
 9719TIP3   OH229117   2.219   4.720   5.694  0.0002  0.3404 -0.2268
 9719TIP3    H129118   2.201   4.802   5.741  0.4250 -0.0665  0.6664
 9719TIP3    H229119   2.135   4.673   5.696  0.1994  0.0246  0.7321
 9720TIP3   OH229120   1.491   0.718   0.301 -0.9156 -0.2233 -0.1723
 9720TIP3    H129121   1.498   0.679   0.389  1.2412  0.8943  0.1891
 9720TIP3    H229122   1.416   0.778   0.308 -0.9174 -0.3281  0.8329
 9721TIP3   OH229123   3.081   4.755   5.740  0.3616  0.0708  0.4403
 9721TIP3    H129124   3.035   4.708   5.670  0.0610  0.7245  0.1999
 9721TIP3    H229125   3.156   4.796   5.697 -0.1469  0.9547  0.3860
 9722TIP3   OH229126   3.913   6.345   6.071  0.4281 -0.0938  0.1764
 9722TIP3    H129127   3.827   6.372   6.102  0.2020  2.5735 -2.4898
 9722TIP3    H229128   3.971   6.357   6.146 -1.0291  0.9158  1.1713
 9723TIP3   OH229129   0.715   0.411   0.533  0.5278  0.3255 -0.3098
 9723TIP3    H129130   0.711   0.370   0.619 -0.0409 -0.2677 -0.6157
 9723TIP3    H229131   0.781   0.480   0.542  1.6369 -0.7757  0.1590
 9724TIP3   OH229132   1.207   4.284   5.612  0.0170 -0.2094 -0.0090
 9724TIP3    H129133   1.221   4.330   5.695  0.8677  3.7122 -2.1730
 9724TIP3    H229134   1.114   4.294   5.594 -0.1694 -1.0685  0.4483
 9725TIP3   OH229135   7.782   0.160   3.122 -0.5496 -0.0444 -0.0703
 9725TIP3    H129136   7.777   0.254   3.137  0.5965  0.1501 -0.8705
 9725TIP3    H229137   7.770   0.121   3.209  0.6121  0.8876  0.5204
 9726TIP3   OH229138   1.303   2.082   0.782  0.1010  0.4693  0.1077
 9726TIP3    H129139   1.306   2.159   0.840  1.5480 -0.2138  0.9749
 9726TIP3    H229140   1.302   2.007   0.842 -2.2082 -0.1950 -0.7203
 9727TIP3   OH229141   2.647   4.337   5.163 -0.0088  0.0575 -0.2560
 9727TIP3    H129142   2.598   4.390   5.226  1.9166  0.6836  0.7708
 9727TIP3    H229143   2.630   4.247   5.188 -2.2208  0.2130 -1.1599
 9728TIP3   OH229144   5.205   7.345   0.614 -0.0913 -0.3773  0.0427
 9728TIP3    H129145   5.182   7.260   0.651  1.8485 -0.0219  2.1203
 9728TIP3    H229146   5.207   7.329   0.519  0.1217 -2.5979  0.3923
 9729TIP3   OH229147   2.875   6.825   0.590 -0.0673  0.1814  0.0975
 9729TIP3    H129148   2.876   6.750   0.531 -0.6742 -0.0266  0.3486
 9729TIP3    H229149   2.946   6.881   0.559  1.5386 -1.3261  0.9883
 9730TIP3   OH229150   1.804   2.732   0.745 -0.3126  0.2261 -0.0902
 9730TIP3    H129151   1.895   2.716   0.719 -0.7576 -1.5423 -0.6118
 9730TIP3    H229152   1.752   2.675   0.688 -1.5552 -0.9467  2.1500
 9731TIP3   OH229153   3.957   5.255   5.728  0.4269 -0.4572  0.0423
 9731TIP3    H129154   3.898   5.180   5.738  1.4999 -1.3039  0.0742
 9731TIP3    H229155   3.938   5.311   5.804  1.3467 -1.8912  1.3404
 9732TIP3   OH229156   2.781   5.242   1.005 -0.2075  0.2122 -0.2063
 9732TIP3    H129157   2.861   5.237   1.057  0.7009 -0.3251 -1.6250
 9732TIP3    H229158   2.729   5.311   1.047  0.3821 -0.4045  1.5500
 9733TIP3   OH229159   7.055   4.241   1.200  0.2837  0.3333 -0.2276
 9733TIP3    H129160   7.047   4.335   1.181 -0.7687  0.0970 -0.9871
 9733TIP3    H229161   7.141   4.233   1.242  0.2123  1.6927  0.2144
 9734TIP3   OH229162   6.178   1.436   0.424  0.1471  0.0811 -0.0615
 9734TIP3    H129163   6.224   1.404   0.346 -0.2023  0.0118 -0.2383
 9734TIP3    H229164   6.122   1.362   0.451 -0.0471  0.2548  0.0102
 9735TIP3   OH229165   0.193   1.029   2.397 -0.3677  0.3159  0.6812
 9735TIP3    H129166   0.112   1.060   2.357  0.0994  2.7723  1.5443
 9735TIP3    H229167   0.165   0.961   2.459 -1.7005  0.6952  0.5038
 9736TIP3   OH229168   2.798   5.327   6.099 -0.0310  0.3949 -0.5712
 9736TIP3    H129169   2.822   5.371   6.017 -2.4254 -0.6986 -1.9120
 9736TIP3    H229170   2.882   5.302   6.138  1.1827  1.7710 -2.2212
 9737TIP3   OH229171   1.692   1.903   2.192 -0.3416 -0.6062 -0.6411
 9737TIP3    H129172   1.786   1.888   2.204 -0.2245  0.4593 -0.1537
 9737TIP3    H229173   1.652   1.870   2.273 -0.1245  1.2778  0.2558
 9738TIP3   OH229174   2.294   5.266   4.822 -0.4614  0.0233  0.0311
 9738TIP3    H129175   2.224   5.214   4.781 -0.6027  0.8383 -0.7657
 9738TIP3    H229176   2.288   5.352   4.781  0.5422  0.3236  0.4917
 9739TIP3   OH229177   3.600   3.745   5.126 -0.3725 -0.0226 -0.0487
 9739TIP3    H129178   3.680   3.797   5.132  0.0365 -0.0242 -3.8719
 9739TIP3    H229179   3.630   3.654   5.119 -0.6414  0.0140 -1.9635
 9740TIP3   OH229180   2.188   4.910   5.886 -0.5145 -0.0984  0.0120
 9740TIP3    H129181   2.248   4.938   5.954  2.0716  0.7384 -2.5311
 9740TIP3    H229182   2.119   4.977   5.885 -0.0587  0.3930  1.1089
 9741TIP3   OH229183   1.245   2.569   1.854 -0.0982 -0.4369  0.2420
 9741TIP3    H129184   1.278   2.480   1.867  0.2864 -0.3675 -0.2818
 9741TIP3    H229185   1.323   2.625   1.857 -0.5136  0.0832  2.3894
 9742TIP3   OH229186   1.441   2.755   0.579  0.0069 -0.2706 -0.0244
 9742TIP3    H129187   1.536   2.763   0.569  0.1766 -0.3298  1.3718
 9742TIP3    H229188   1.429   2.731   0.671 -1.4550  1.3903  0.2388
 9743TIP3   OH229189   0.652   0.059   0.043  0.2930 -0.0614  0.6093
 9743TIP3    H129190   0.661   0.146   0.004  0.1478  0.5220  1.8412
 9743TIP3    H229191   0.648   0.076   0.137 -0.6003 -1.3327  0.8122
 9744TIP3   OH229192   1.167   0.616   0.725 -0.1578 -0.4021  0.3367
 9744TIP3    H129193   1.076   0.608   0.752 -0.5602 -0.8248 -1.0713
 9744TIP3    H229194   1.193   0.704   0.752 -1.8801  0.8014 -1.7870
 9745TIP3   OH229195   4.113   4.429   4.450  0.3128  0.0510  0.3639
 9745TIP3    H129196   4.029   4.455   4.412  1.1344  0.8794 -0.9276
 9745TIP3    H229197   4.135   4.348   4.405  1.2772  1.0226 -0.9545
 9746TIP3   OH229198   6.001   2.275   0.615 -0.0123  0.1410 -0.2519
 9746TIP3    H129199   5.969   2.193   0.577  0.7635 -0.2951  0.0111
 9746TIP3    H229200   5.945   2.343   0.578 -0.4318 -0.4719 -0.7509
 9747TIP3   OH229201   0.303   0.440   0.524  0.0084 -0.7817 -0.4546
 9747TIP3    H129202   0.275   0.352   0.498 -0.5992 -1.3408  1.9705
 9747TIP3    H229203   0.326   0.432   0.616 -0.0557  1.6129 -0.1975
 9748TIP3   OH229204   0.847   0.957   2.058  0.0717  0.3467 -0.5259
 9748TIP3    H129205   0.878   0.910   1.981 -0.1528  1.0440 -1.0515
 9748TIP3    H229206   0.789   1.024   2.023  0.4591  1.0739  0.2055
 9749TIP3   OH229207   4.800   4.769   5.353 -0.0316  0.2619 -0.2297
 9749TIP3    H129208   4.809   4.777   5.258  0.2054 -0.6263 -0.2923
 9749TIP3    H229209   4.765   4.853   5.381 -0.0741  0.5441 -1.1006
 9750TIP3   OH229210   1.039   1.321   0.188 -0.1737  0.2638  0.1679
 9750TIP3    H129211   1.132   1.301   0.193 -0.2114 -0.3309 -1.3018
 9750TIP3    H229212   1.031   1.383   0.116 -0.8452  0.8022  0.6890
 9751TIP3   OH229213   7.453   0.765   0.852  0.5870  0.1142  0.3513
 9751TIP3    H129214   7.504   0.845   0.860 -3.0375  2.6066 -0.5155
 9751TIP3    H229215   7.448   0.749   0.758 -2.7063  1.6241  0.2231
 9752TIP3   OH229216   0.796   1.916   5.436 -0.5313 -0.0524  0.3773
 9752TIP3    H129217   0.805   1.863   5.516 -1.4358  0.3723  0.7671
 9752TIP3    H229218   0.730   1.869   5.385  2.1791 -1.9703 -1.4936
 9753TIP3   OH229219   3.028   2.160   5.068  0.1709 -0.7206  0.5440
 9753TIP3    H129220   3.072   2.088   5.023  0.6192 -0.6551  0.8775
 9753TIP3    H229221   3.083   2.237   5.052 -0.2079 -0.4851  0.3432
 9754TIP3   OH229222   6.024   5.868   1.088  0.3700 -0.1798 -0.4792
 9754TIP3    H129223   6.116   5.842   1.095 -0.2266 -1.9486  1.4639
 9754TIP3    H229224   5.978   5.808   1.147 -1.9363  1.1668 -0.8464
 9755TIP3   OH229225   3.004   3.605   4.581 -0.3522  0.3444 -0.2091
 9755TIP3    H129226   3.080   3.658   4.605 -0.9856  1.4077 -0.5408
 9755TIP3    H229227   2.972   3.570   4.665  2.0459 -2.2820 -0.3082
 9756TIP3   OH229228   5.780   1.469   2.287 -0.0271 -0.1299  0.4241
 9756TIP3    H129229   5.809   1.522   2.214 -1.0228 -2.4139 -1.7162
 9756TIP3    H229230   5.840   1.394   2.288 -0.7347 -0.7069  1.1661
 9757TIP3   OH229231   1.583   1.399   5.338 -0.1257 -0.1368 -0.0353
 9757TIP3    H129232   1.633   1.319   5.357 -0.5120 -0.3005  0.2905
 9757TIP3    H229233   1.547   1.425   5.423  0.1946  0.5170 -0.0997
 9758TIP3   OH229234   0.936   4.534   5.788 -0.3835 -0.2106  0.1437
 9758TIP3    H129235   0.938   4.461   5.726 -0.7036 -0.4626  0.4279
 9758TIP3    H229236   0.843   4.557   5.795 -0.3038  0.0916  0.2086
 9759TIP3   OH229237   2.902   6.214   3.760  0.0258 -0.0153  0.3081
 9759TIP3    H129238   2.886   6.239   3.669  1.8069  0.1471  0.0176
 9759TIP3    H229239   2.845   6.139   3.776 -2.2643  1.5857 -0.1183
 9760TIP3   OH229240   3.521   6.577   5.198 -0.2014  0.4681  0.4477
 9760TIP3    H129241   3.589   6.626   5.152 -1.7359  1.7428 -0.5129
 9760TIP3    H229242   3.547   6.579   5.290  0.0992  2.5652  0.3336
 9761TIP3   OH229243   1.228   6.132   3.010 -0.4123 -0.0032 -0.0057
 9761TIP3    H129244   1.309   6.163   2.970 -0.6047  0.5720  0.0509
 9761TIP3    H229245   1.178   6.211   3.029 -1.2655 -0.3753 -0.6217
 9762TIP3   OH229246   3.108   3.800   5.705  0.5611  0.0401  0.5781
 9762TIP3    H129247   3.078   3.884   5.740  0.7697  0.3168  0.0997
 9762TIP3    H229248   3.190   3.783   5.751 -0.7073 -1.0995  2.4543
 9763TIP3   OH229249   5.794   1.885   0.724  0.2626 -0.3262  0.0191
 9763TIP3    H129250   5.777   1.979   0.731 -0.7389 -0.2611 -2.7839
 9763TIP3    H229251   5.717   1.844   0.764  0.5004  0.0173  0.8502
 9764TIP3   OH229252   1.417   4.009   4.875 -0.2349  0.1220 -0.0542
 9764TIP3    H129253   1.493   4.067   4.870  0.9201 -1.4587 -1.1681
 9764TIP3    H229254   1.437   3.948   4.945 -0.0829 -0.8476 -0.9343
 9765TIP3   OH229255   3.152   5.058   4.286 -0.1290 -0.4421  0.3287
 9765TIP3    H129256   3.138   4.964   4.300 -1.3844 -0.0912  1.5484
 9765TIP3    H229257   3.128   5.098   4.369  2.0229  0.8386  0.3746
 9766TIP3   OH229258   6.107   4.754   5.259 -0.5896  0.1865 -0.0723
 9766TIP3    H129259   6.165   4.712   5.323  0.6699 -0.6309 -1.7362
 9766TIP3    H229260   6.035   4.691   5.248 -0.4846  0.0415  0.0699
 9767TIP3   OH229261   7.045   4.320   5.705 -0.0354 -0.0093  0.1517
 9767TIP3    H129262   7.030   4.226   5.710  1.3157 -0.2948 -0.8661
 9767TIP3    H229263   6.971   4.353   5.654  0.8481 -0.9111 -1.7854
 9768TIP3   OH229264   5.000   6.308   4.791  0.0803 -0.1754 -0.3685
 9768TIP3    H129265   4.904   6.303   4.788 -0.1395  1.2345  2.4355
 9768TIP3    H229266   5.027   6.220   4.818 -0.5807  0.0214  0.9944
 9769TIP3   OH229267   1.263   0.760   5.148 -0.6419 -0.2149  0.4267
 9769TIP3    H129268   1.209   0.729   5.075 -0.8995 -0.3301  0.6633
 9769TIP3    H229269   1.218   0.838   5.180 -0.3916 -0.0177  0.3031
 9770TIP3   OH229270   4.065   6.886   5.525 -0.2605 -0.2668  0.1947
 9770TIP3    H129271   4.037   6.970   5.562  0.9100  0.5477 -0.7551
 9770TIP3    H229272   4.148   6.868   5.568  0.4398  0.0149 -1.0314
 9771TIP3   OH229273   4.973   3.034   5.687 -0.3476  0.0100 -0.3417
 9771TIP3    H129274   4.958   2.962   5.626  1.7835 -1.2087  0.5165
 9771TIP3    H229275   4.964   2.995   5.774  0.7819  0.7746  0.1366
 9772TIP3   OH229276   3.233   5.452   5.375 -0.0526  0.2945  0.0360
 9772TIP3    H129277   3.219   5.480   5.466 -1.1482  0.1782 -0.0877
 9772TIP3    H229278   3.326   5.467   5.360  0.0778  0.6192  1.0797
 9773TIP3   OH229279   3.553   6.849   4.133 -0.6920 -0.0773 -0.8373
 9773TIP3    H129280   3.532   6.755   4.136  0.2650 -0.3050 -1.1080
 9773TIP3    H229281   3.530   6.881   4.220 -1.7606 -0.4064 -0.9952
 9774TIP3   OH229282   4.983   4.989   4.453  0.1378 -0.0740  0.6470
 9774TIP3    H129283   4.903   5.009   4.502 -0.8054 -0.9174 -0.5214
 9774TIP3    H229284   4.952   4.941   4.376  1.6057  1.1302 -0.7108
 9775TIP3   OH229285   7.616   4.681   3.297  0.1687 -0.0729 -0.0412
 9775TIP3    H129286   7.696   4.730   3.315  0.8881 -1.0778 -0.4608
 9775TIP3    H229287   7.551   4.747   3.273  1.0387  0.6931 -0.2754
 9776TIP3   OH229288   5.069   3.812   5.246  0.4209 -0.1405 -0.0246
 9776TIP3    H129289   4.997   3.867   5.276  0.2998 -0.1395 -0.3079
 9776TIP3    H229290   5.120   3.869   5.188  0.3845 -0.2781 -0.1942
 9777TIP3   OH229291   5.888   3.745   5.246  0.0656 -0.3055 -0.0945
 9777TIP3    H129292   5.828   3.756   5.319  0.8290 -1.4652  0.7218
 9777TIP3    H229293   5.835   3.761   5.168 -1.0701 -0.4068  0.6529
 9778TIP3   OH229294   2.823   2.939   0.879  0.5834  0.5176 -0.3721
 9778TIP3    H129295   2.785   3.014   0.834  0.8958  1.1782  0.4651
 9778TIP3    H229296   2.908   2.926   0.837  0.2922  0.2661 -0.8996
 9779TIP3   OH229297   7.238   2.273   5.624  0.2186  0.1303  0.1035
 9779TIP3    H129298   7.261   2.332   5.696  0.8313 -1.8230  1.5333
 9779TIP3    H229299   7.314   2.215   5.616 -1.1359 -1.6633 -0.0349
 9780TIP3   OH229300   4.190   6.631   4.546  0.4603 -0.2316  0.1309
 9780TIP3    H129301   4.231   6.668   4.468 -3.3288  2.2441 -0.8172
 9780TIP3    H229302   4.227   6.681   4.619  0.7068  0.4755 -0.4786
 9781TIP3   OH229303   7.726   5.799   1.126 -0.2411 -0.6761  0.1179
 9781TIP3    H129304   7.734   5.894   1.127 -0.8997 -0.5976  2.9158
 9781TIP3    H229305   7.634   5.782   1.104 -0.5187 -0.5971  1.1827
 9782TIP3   OH229306   6.708   3.726   1.071  0.1111  0.0656 -0.2527
 9782TIP3    H129307   6.681   3.639   1.101  2.2651 -1.2957 -2.1434
 9782TIP3    H229308   6.629   3.764   1.033 -0.3136 -1.9856 -1.4883
 9783TIP3   OH229309   5.504   6.218   4.035  0.3201 -0.6850  0.3904
 9783TIP3    H129310   5.471   6.294   3.987  0.1058 -0.6836  0.5362
 9783TIP3    H229311   5.430   6.157   4.038  0.5271 -0.9467  0.1789
 9784TIP3   OH229312   5.094   4.660   4.959 -0.7382 -0.4481 -0.2327
 9784TIP3    H129313   5.133   4.581   4.920 -0.7322 -0.7146  0.3057
 9784TIP3    H229314   5.001   4.654   4.937 -0.9388 -1.2004  0.7918
 9785TIP3   OH229315   2.219   1.256   0.087  0.0440  0.9242  0.0590
 9785TIP3    H129316   2.287   1.236   0.151  0.8879  1.0160 -0.7959
 9785TIP3    H229317   2.265   1.260   0.003 -1.2627 -0.4943 -0.7412
 9786TIP3   OH229318   5.115   4.055   5.082  0.1824  0.1855 -0.3574
 9786TIP3    H129319   5.034   4.103   5.071 -0.1192 -0.4324 -0.8617
 9786TIP3    H229320   5.154   4.052   4.995  1.2926  1.4193  0.0697
 9787TIP3   OH229321   4.501   5.713   5.546  0.3957  0.3877  0.2475
 9787TIP3    H129322   4.570   5.688   5.607 -0.0264 -4.1236 -0.9453
 9787TIP3    H229323   4.538   5.696   5.459 -1.2678  0.4060 -0.4863
 9788TIP3   OH229324   6.022   5.443   5.526 -0.3036  0.2156  0.4209
 9788TIP3    H129325   6.075   5.366   5.544  0.1259  0.5665  0.6481
 9788TIP3    H229326   6.085   5.512   5.508 -0.5745  1.4037  3.7442
 9789TIP3   OH229327   7.411   1.724   6.140 -0.0084  0.0464 -1.1709
 9789TIP3    H129328   7.451   1.809   6.156  0.8186 -0.4891 -0.3513
 9789TIP3    H229329   7.473   1.678   6.083  0.1195 -0.4615 -0.6215
 9790TIP3   OH229330   0.534   6.431   0.135  0.3342  0.0781 -0.0643
 9790TIP3    H129331   0.478   6.507   0.118  0.9822  0.0634 -2.4754
 9790TIP3    H229332   0.612   6.467   0.177  0.3031  0.6585 -0.4967
 9791TIP3   OH229333   4.601   4.985   5.794 -0.0101 -0.4629 -0.6734
 9791TIP3    H129334   4.688   5.021   5.782  0.3254 -0.9556  0.2766
 9791TIP3    H229335   4.598   4.956   5.885 -1.1521 -0.4749 -0.7028
 9792TIP3   OH229336   4.818   4.472   3.338  0.0763 -0.2852 -0.2572
 9792TIP3    H129337   4.753   4.528   3.380  1.0759  0.3340  0.4772
 9792TIP3    H229338   4.782   4.456   3.250 -0.5553  0.9083 -0.2263
 9793TIP3   OH229339   5.916   6.955   4.442 -0.3185 -0.4530  0.0631
 9793TIP3    H129340   5.943   6.970   4.533 -1.9334  0.3843  0.4194
 9793TIP3    H229341   5.893   6.862   4.439  1.1085 -0.8227  0.1337
 9794TIP3   OH229342   4.717   4.638   4.037 -0.4204  0.2217 -0.0637
 9794TIP3    H129343   4.630   4.598   4.037  0.7815 -2.4906 -0.2147
 9794TIP3    H229344   4.759   4.605   4.116  1.0001  0.2300 -0.7957
 9795TIP3   OH229345   3.313   5.847   3.907 -0.0911  0.3291 -0.2400
 9795TIP3    H129346   3.394   5.835   3.956 -0.1893  0.4046 -0.0592
 9795TIP3    H229347   3.332   5.812   3.820  0.0943  0.2270 -0.1584
 9796TIP3   OH229348   0.148   0.675   0.023 -0.2374  0.0546  0.2072
 9796TIP3    H129349   0.224   0.710   0.069  0.1269  0.1793 -0.4822
 9796TIP3    H229350   0.078   0.673   0.089 -0.5260  2.9361  0.0557
 9797TIP3   OH229351   1.876   1.141   1.477  0.1459 -0.9447  0.7708
 9797TIP3    H129352   1.873   1.160   1.571 -0.5029 -0.1220  0.5910
 9797TIP3    H229353   1.953   1.086   1.467  2.9618  2.6645  1.1645
 9798TIP3   OH229354   5.408   0.306   0.184 -0.3660 -0.6121  0.3427
 9798TIP3    H129355   5.484   0.283   0.238 -0.3115 -0.3008  0.4008
 9798TIP3    H229356   5.442   0.309   0.094 -0.7441 -2.4435  0.1271
 9799TIP3   OH229357   5.073   5.313   5.567  0.0204 -0.4912 -0.3715
 9799TIP3    H129358   5.043   5.251   5.633 -0.7852 -1.2304 -1.4095
 9799TIP3    H229359   5.003   5.315   5.502 -0.2938  2.0796 -0.0016
 9800TIP3   OH229360   4.927   5.348   3.558  0.4997  0.4768 -0.3291
 9800TIP3    H129361   4.888   5.337   3.471 -0.8765  0.7257  0.2546
 9800TIP3    H229362   5.008   5.398   3.541  0.2281  0.5568 -1.4575
 9801TIP3   OH229363   4.401   5.801   4.025  0.3136 -0.1456  0.3352
 9801TIP3    H129364   4.443   5.753   4.096  0.7354  1.0182  0.8799
 9801TIP3    H229365   4.331   5.851   4.068 -0.8464 -1.1088 -0.3833
 9802TIP3   OH229366   5.184   2.256   6.397 -0.1139 -0.5617  0.1604
 9802TIP3    H129367   5.124   2.294   6.331 -0.2429  0.5975  0.9326
 9802TIP3    H229368   5.240   2.197   6.347 -0.2944  0.2141 -0.9859
 9803TIP3   OH229369   2.975   4.959   5.917  0.2455 -0.1906 -0.0959
 9803TIP3    H129370   3.042   4.951   5.986  1.5773  0.2501 -1.3054
 9803TIP3    H229371   3.007   4.903   5.846 -0.7189 -0.0416 -0.6579
 9804TIP3   OH229372   6.650   3.601   4.420 -0.0115  0.0594  0.6348
 9804TIP3    H129373   6.656   3.628   4.329 -2.0976  1.5824  0.9208
 9804TIP3    H229374   6.596   3.521   4.418  0.9223 -0.5732  0.4316
 9805TIP3   OH229375   3.794   6.184   4.524  0.6900  0.1058  0.1829
 9805TIP3    H129376   3.848   6.106   4.511  0.6498  0.2305 -0.7262
 9805TIP3    H229377   3.781   6.219   4.436 -0.4260  0.3772  0.4524
 9806TIP3   OH229378   1.128   1.732   0.014 -0.1408  0.4088 -0.0504
 9806TIP3    H129379   1.129   1.825  -0.010 -1.4410  0.5088  0.2359
 9806TIP3    H229380   1.153   1.730   0.106 -0.7199  0.5330  0.1103
 9807TIP3   OH229381   2.514   1.711   1.757 -0.2949  0.3438  0.6447
 9807TIP3    H129382   2.573   1.707   1.832  2.3277 -0.7703 -1.4190
 9807TIP3    H229383   2.564   1.756   1.689 -2.7721  1.7046 -0.3427
 9808TIP3   OH229384   4.145   3.730   5.114 -0.1953 -0.0197  0.7967
 9808TIP3    H129385   4.078   3.784   5.157 -0.1872 -0.4898  1.4039
 9808TIP3    H229386   4.102   3.697   5.035 -0.2716  0.6955  0.5272
 9809TIP3   OH229387   0.078   7.023   1.081 -0.1418  0.7122 -0.1990
 9809TIP3    H129388   0.078   6.928   1.069  1.5819  0.5414  0.9940
 9809TIP3    H229389   0.100   7.058   0.995  2.0195 -0.0953 -0.0053
 9810TIP3   OH229390   3.270   6.044   5.754  0.1552  0.4739  0.0151
 9810TIP3    H129391   3.352   6.034   5.706 -0.3102  1.3811 -0.9742
 9810TIP3    H229392   3.267   5.967   5.812  0.1228 -1.2916 -2.2822
 9811TIP3   OH229393   3.827   5.622   5.836  0.1748  0.2276 -0.0574
 9811TIP3    H129394   3.786   5.584   5.758 -0.5336 -0.6894  0.7473
 9811TIP3    H229395   3.755   5.663   5.883  0.5614  0.5743  0.2286
 9812TIP3   OH229396   6.324   5.058   4.251  0.1235  0.1921 -0.3467
 9812TIP3    H129397   6.401   5.084   4.300 -0.0425 -0.4020  0.2385
 9812TIP3    H229398   6.357   5.005   4.179  0.3540  0.9359 -0.7903
 9813TIP3   OH229399   4.300   5.990   4.829  0.0928 -0.1123  0.0728
 9813TIP3    H129400   4.307   5.906   4.875  1.3115 -0.4633 -0.7010
 9813TIP3    H229401   4.208   6.014   4.837 -0.1009 -1.0937  1.0581
 9814TIP3   OH229402   3.754   3.454   6.341  0.1532  0.1868 -0.0399
 9814TIP3    H129403   3.820   3.439   6.273  0.2784 -1.7347  0.4757
 9814TIP3    H229404   3.723   3.544   6.325  1.3256  0.3351 -1.6213
 9815TIP3   OH229405   3.529   5.206   4.437  0.1170 -0.1185  0.2246
 9815TIP3    H129406   3.513   5.115   4.464 -0.8918  0.4065  1.4733
 9815TIP3    H229407   3.463   5.257   4.485 -0.2812  1.1179 -1.5932
 9816TIP3   OH229408   5.692   6.432   4.549  0.4998 -0.3572  0.2346
 9816TIP3    H129409   5.728   6.477   4.626 -0.1842 -1.1951  1.0632
 9816TIP3    H229410   5.613   6.480   4.528  1.5683  0.8887 -0.9810
 9817TIP3   OH229411   3.748   5.839   5.603  0.3336 -0.0669  0.8184
 9817TIP3    H129412   3.765   5.799   5.688 -0.0023 -0.9552  0.4692
 9817TIP3    H229413   3.717   5.928   5.624  2.3098  0.4830  1.5544
 9818TIP3   OH229414   5.270   4.946   6.305  0.7884  0.3753  0.5173
 9818TIP3    H129415   5.180   4.936   6.337  0.7986  0.3709  0.5447
 9818TIP3    H229416   5.261   4.997   6.225  0.8014  0.7127  0.7307
 9819TIP3   OH229417   0.771   0.604   1.177 -0.1717 -0.0692  0.2443
 9819TIP3    H129418   0.814   0.656   1.245 -1.3592  1.2236  0.0409
 9819TIP3    H229419   0.829   0.610   1.102  0.2766 -0.0111  0.5935
 9820TIP3   OH229420   5.704   5.451   4.626  0.2203 -0.0304 -0.1060
 9820TIP3    H129421   5.784   5.399   4.628  0.2598 -0.1736 -3.2930
 9820TIP3    H229422   5.733   5.540   4.648  1.0594 -0.3061 -0.0722
 9821TIP3   OH229423   6.866   4.985   5.007 -0.0234 -0.1803  0.1129
 9821TIP3    H129424   6.905   4.935   5.078 -2.9083  0.4961  2.2439
 9821TIP3    H229425   6.939   5.037   4.972  1.7363 -1.5490  1.6133
 9822TIP3   OH229426   5.713   5.151   3.317  0.2252 -0.0731 -0.2490
 9822TIP3    H129427   5.802   5.184   3.332 -0.6422  1.4721  1.6614
 9822TIP3    H229428   5.716   5.060   3.348  0.6150  0.6112  1.7703
 9823TIP3   OH229429   5.088   4.330   3.751  0.0461  0.0672 -0.0503
 9823TIP3    H129430   5.171   4.357   3.712  0.0579 -0.8776 -0.6683
 9823TIP3    H229431   5.024   4.338   3.681 -0.1027 -0.7184 -0.0052
 9824TIP3   OH229432   5.030   3.482   6.230  0.3029  0.1311 -0.1260
 9824TIP3    H129433   5.031   3.395   6.270  1.1274 -0.5397 -1.5273
 9824TIP3    H229434   5.014   3.542   6.302 -1.6331 -1.2886  0.6726
 9825TIP3   OH229435   4.880   3.440   4.638  0.0862  0.5100 -0.2933
 9825TIP3    H129436   4.820   3.378   4.679  0.2744  0.7886  0.4256
 9825TIP3    H229437   4.844   3.457   4.551 -1.9724  2.2303  0.8626
 9826TIP3   OH229438   5.242   2.959   4.983  0.2093 -0.1687  0.9175
 9826TIP3    H129439   5.201   2.952   5.069 -0.1596  2.9246  1.0283
 9826TIP3    H229440   5.172   2.937   4.922  0.0590 -0.8696  1.3378
 9827TIP3   OH229441   6.175   5.618   5.373  0.1204  0.5458  0.1370
 9827TIP3    H129442   6.145   5.657   5.291 -0.1822 -0.2924 -0.1556
 9827TIP3    H229443   6.250   5.671   5.399 -1.5179  2.5837  0.7961
 9828TIP3   OH229444   5.666   3.634   5.083  0.4299  0.3223 -0.2453
 9828TIP3    H129445   5.593   3.581   5.048  0.2464  0.5981 -0.2793
 9828TIP3    H229446   5.734   3.570   5.102  0.6460  0.1949 -1.4033
 9829TIP3   OH229447   1.959   1.242   0.217  0.4649 -0.0019  0.0520
 9829TIP3    H129448   1.998   1.246   0.304  0.6035  2.7291 -0.0881
 9829TIP3    H229449   2.032   1.221   0.159  0.6787 -0.2859  0.4241
 9830TIP3   OH229450   3.937   1.656   5.219 -0.4824 -0.2807  0.0521
 9830TIP3    H129451   3.904   1.674   5.307 -2.5564 -0.0735 -0.7386
 9830TIP3    H229452   3.927   1.561   5.210  0.7132 -0.4513  0.4040
 9831TIP3   OH229453   1.115   1.767   0.737  0.6184  0.3354 -0.0827
 9831TIP3    H129454   1.119   1.820   0.658  1.8523 -0.2378 -0.4262
 9831TIP3    H229455   1.133   1.678   0.706  0.7775  0.0599  0.7985
 9832TIP3   OH229456   2.298   3.936   4.472  0.2594  0.0795 -0.0026
 9832TIP3    H129457   2.282   3.885   4.393  1.7009  0.3611 -0.4908
 9832TIP3    H229458   2.361   3.884   4.522  1.1971  1.0136 -0.1813
 9833TIP3   OH229459   3.321  -0.012   1.381  0.4684  0.0596  0.1956
 9833TIP3    H129460   3.260   0.003   1.310  2.0995  1.7011 -0.9116
 9833TIP3    H229461   3.276   0.018   1.460  0.2227  2.2094 -0.7456
 9834TIP3   OH229462   5.152   4.287   4.205 -0.6209  0.3593 -0.0297
 9834TIP3    H129463   5.111   4.365   4.241 -0.8571 -1.0388  2.8142
 9834TIP3    H229464   5.239   4.316   4.177 -0.6210  1.6011  1.2297
 9835TIP3   OH229465   2.180   0.996   0.878 -0.1357 -0.1794 -0.2374
 9835TIP3    H129466   2.164   1.055   0.951 -1.0261 -2.5675  1.5525
 9835TIP3    H229467   2.134   0.916   0.901  1.3437 -1.7173 -2.4211
 9836TIP3   OH229468   2.984   5.828   5.690  0.7671  0.4279 -0.2488
 9836TIP3    H129469   2.943   5.911   5.712 -1.0637 -0.3887 -0.4873
 9836TIP3    H229470   3.028   5.844   5.606 -0.0470  1.0072 -0.5678
 9837TIP3   OH229471   4.121   1.842   0.613 -0.1363  0.3486 -0.3262
 9837TIP3    H129472   4.157   1.894   0.684 -0.3568  0.4409 -0.2831
 9837TIP3    H229473   4.198   1.815   0.562  0.1049 -0.4530  0.4417
 9838TIP3   OH229474   4.237   4.448   4.680 -0.5246  0.5375  0.0975
 9838TIP3    H129475   4.184   4.413   4.608  1.3475  0.7429 -1.4025
 9838TIP3    H229476   4.217   4.542   4.681 -1.5017  0.3317  0.6766
 9839TIP3   OH229477   4.436   4.557   1.035  0.4144 -0.1815 -0.1320
 9839TIP3    H129478   4.524   4.521   1.023  0.7594  0.2735  0.9627
 9839TIP3    H229479   4.379   4.498   0.985  1.0829 -1.6961  0.8379
 9840TIP3   OH229480   4.161   6.408   5.882  0.0692  0.0505 -0.0047
 9840TIP3    H129481   4.134   6.488   5.837 -0.0545 -0.0387 -0.0863
 9840TIP3    H229482   4.235   6.376   5.830 -0.8385 -0.7147 -0.8467
 9841TIP3   OH229483   5.246   5.520   5.063  0.1011 -0.1126 -0.4626
 9841TIP3    H129484   5.303   5.578   5.011  1.0350  1.2908  2.0326
 9841TIP3    H229485   5.158   5.557   5.052  0.3583  0.4387 -0.6934
 9842TIP3   OH229486   7.374   0.996   1.071  0.2226 -0.0057 -0.4179
 9842TIP3    H129487   7.467   1.018   1.067 -0.2247  2.3498  0.9739
 9842TIP3    H229488   7.364   0.923   1.011  3.0639 -0.6115 -0.2214
 9843TIP3   OH229489   3.031   5.566   6.139 -0.7715  0.0651  0.3488
 9843TIP3    H129490   3.093   5.638   6.126 -0.5374  0.1414  1.8248
 9843TIP3    H229491   3.050   5.505   6.068  0.0526  0.7558 -0.0316
 9844TIP3   OH229492   3.323   1.247   1.659  0.5740 -0.0831 -0.6928
 9844TIP3    H129493   3.245   1.256   1.605  0.2299 -3.4048 -0.8513
 9844TIP3    H229494   3.330   1.330   1.706 -2.0138  0.9213 -2.0262
 9845TIP3   OH229495   3.583   5.712   5.956  0.3368 -0.2474 -0.0152
 9845TIP3    H129496   3.562   5.627   5.993 -0.2468  0.1073  0.4803
 9845TIP3    H229497   3.595   5.769   6.032  0.7954  0.0960 -0.3421
 9846TIP3   OH229498   4.927   6.754   5.713  0.1860  0.0544  0.5890
 9846TIP3    H129499   4.977   6.737   5.633  1.4971  0.3572  1.3266
 9846TIP3    H229500   4.848   6.701   5.704  0.7686 -0.6394 -0.4873
 9847TIP3   OH229501   4.288   5.166   4.747  0.1440 -0.0345 -0.2586
 9847TIP3    H129502   4.197   5.144   4.724 -0.2981  0.9822  0.4307
 9847TIP3    H229503   4.279   5.239   4.808  1.4472  0.2220 -0.3664
 9848TIP3   OH229504   6.973   0.607   0.140  0.6922  0.2665  0.3079
 9848TIP3    H129505   6.958   0.543   0.210 -0.0515  2.6630  2.4122
 9848TIP3    H229506   6.977   0.691   0.185  0.7864  1.8148 -2.4885
 9849TIP3   OH229507   2.800   5.516   6.351 -0.0975  0.3607  0.2933
 9849TIP3    H129508   2.885   5.504   6.394  1.0817  2.6243 -1.2735
 9849TIP3    H229509   2.822   5.542   6.262 -2.4843 -1.5116 -0.9076
 9850TIP3   OH229510   1.124   0.953   0.542  0.1291 -0.1532  0.3511
 9850TIP3    H129511   1.190   0.981   0.606 -1.0914 -1.2041  2.1105
 9850TIP3    H229512   1.042   0.989   0.575 -0.5676 -0.9711 -0.4675
 9851TIP3   OH229513   4.096   0.429   0.060  0.5079 -0.1076 -0.1106
 9851TIP3    H129514   4.021   0.369   0.053  0.6212 -0.2552 -0.0818
 9851TIP3    H229515   4.105   0.444   0.154  1.1072 -0.8545 -0.0376
 9852TIP3   OH229516   5.480   7.233   0.929  0.1411  1.0225  0.0185
 9852TIP3    H129517   5.479   7.271   0.842  0.0302  1.2712  0.1277
 9852TIP3    H229518   5.427   7.293   0.982 -0.3401  0.5217  0.1069
 9853TIP3   OH229519   5.689   5.020   4.065 -0.0417 -0.3279 -0.1849
 9853TIP3    H129520   5.664   5.107   4.094 -2.5347 -1.3068  0.7178
 9853TIP3    H229521   5.705   4.972   4.146 -0.1306 -1.1150 -0.6296
 9854TIP3   OH229522   5.945   3.885   6.271 -0.1370  0.1196 -0.0112
 9854TIP3    H129523   5.985   3.798   6.264 -1.5724 -0.4141 -1.9621
 9854TIP3    H229524   5.856   3.873   6.238  0.1223  2.6480 -1.7314
 9855TIP3   OH229525   2.524   2.936   0.188  0.5065 -0.2386 -0.0366
 9855TIP3    H129526   2.574   3.017   0.199  1.8983 -1.1902  0.8377
 9855TIP3    H229527   2.457   2.940   0.256  0.8281  0.0150  0.2707
 9856TIP3   OH229528   4.201   6.624   3.999 -0.3039 -0.3184  0.4292
 9856TIP3    H129529   4.129   6.652   3.942 -0.4101  1.9808  1.6496
 9856TIP3    H229530   4.280   6.638   3.946 -0.5670 -0.5885 -0.0433
 9857TIP3   OH229531   0.173   1.910   0.412 -0.2020 -0.0133  0.3395
 9857TIP3    H129532   0.168   1.990   0.361 -0.4201  0.6030  1.3250
 9857TIP3    H229533   0.083   1.877   0.415 -0.0235 -0.5758 -0.5160
 9858TIP3   OH229534   5.782   6.332   5.836 -0.2906  0.4753 -0.5542
 9858TIP3    H129535   5.713   6.394   5.861  0.2133  0.8514 -0.0740
 9858TIP3    H229536   5.859   6.362   5.884 -0.0774 -0.6225 -0.1989
 9859TIP3   OH229537   4.421   4.706   5.071  0.0719  0.3303 -0.0776
 9859TIP3    H129538   4.389   4.677   5.156  0.8655  1.1306  0.4967
 9859TIP3    H229539   4.348   4.755   5.034 -0.5968 -0.7673 -0.2525
 9860TIP3   OH229540   5.744   6.243   5.239  0.2494  0.0379 -0.1633
 9860TIP3    H129541   5.773   6.158   5.274 -1.2469 -0.9065 -1.1819
 9860TIP3    H229542   5.811   6.265   5.173  0.7792 -0.2158  0.2815
 9861TIP3   OH229543   4.858   6.047   4.906 -0.0160 -0.0645 -0.3042
 9861TIP3    H129544   4.781   6.050   4.962  0.3655 -1.3919  0.3120
 9861TIP3    H229545   4.824   6.022   4.820 -0.2291 -1.0675  0.0660
 9862TIP3   OH229546   6.135   5.392   4.621 -0.6682  0.2981 -0.0939
 9862TIP3    H129547   6.101   5.460   4.562 -2.8291 -1.1651 -0.5955
 9862TIP3    H229548   6.070   5.322   4.616  0.2709 -0.7873  2.3180
 9863TIP3   OH229549   4.734   5.974   5.536 -0.7975 -0.0553 -0.2450
 9863TIP3    H129550   4.719   5.912   5.607 -0.2131 -1.0870 -1.0072
 9863TIP3    H229551   4.794   5.928   5.476  1.2825  1.9810  0.1801
 9864TIP3   OH229552   5.841   4.945   5.924 -0.6580 -0.1309 -0.7463
 9864TIP3    H129553   5.785   5.023   5.919 -0.3234  0.1026 -0.9220
 9864TIP3    H229554   5.846   4.914   5.834 -1.5990 -0.9361 -0.5198
 9865TIP3   OH229555   6.417   4.757   4.391 -0.4313 -0.3436  0.2515
 9865TIP3    H129556   6.456   4.759   4.478 -0.2975  0.0092  0.1809
 9865TIP3    H229557   6.341   4.699   4.401 -1.1522  0.6848  0.9054
 9866TIP3   OH229558   3.733   5.927   6.155 -0.1423  0.6383  0.4150
 9866TIP3    H129559   3.697   5.998   6.208 -1.1883  0.4248  0.0176
 9866TIP3    H229560   3.758   5.859   6.218 -0.6538  0.7036  0.6865
 9867TIP3   OH229561   3.564   6.133   4.639  0.2222 -0.0482  0.1417
 9867TIP3    H129562   3.575   6.155   4.731  0.8496  0.3850 -0.0356
 9867TIP3    H229563   3.653   6.134   4.603 -0.0490  0.0908 -0.5345
 9868TIP3   OH229564   4.063   3.759   5.727  0.4336  0.0122 -0.1595
 9868TIP3    H129565   4.070   3.839   5.779  0.0955  0.0209 -0.1295
 9868TIP3    H229566   4.098   3.783   5.641 -0.8773  0.5491 -0.5473
 9869TIP3   OH229567   4.697   6.251   5.476  0.0452 -0.4256 -0.3776
 9869TIP3    H129568   4.718   6.295   5.559  0.5494 -0.4578 -0.4817
 9869TIP3    H229569   4.707   6.158   5.495  1.1418 -0.3934 -0.7247
 9870TIP3   OH229570   4.488   6.293   5.180 -0.1176  0.1889  0.2174
 9870TIP3    H129571   4.559   6.342   5.138 -0.0332  0.5134  0.7305
 9870TIP3    H229572   4.533   6.232   5.240 -0.2106 -0.6878 -0.5962
 9871TIP3   OH229573   7.623   1.263   0.394 -0.2953  0.7042 -0.4786
 9871TIP3    H129574   7.653   1.246   0.305 -1.0416  1.3742 -0.8589
 9871TIP3    H229575   7.599   1.177   0.429  0.6349  0.3569 -0.6870
 9872TIP3   OH229576   6.150   5.837   4.359  0.0854  0.3791 -0.4193
 9872TIP3    H129577   6.192   5.773   4.301  1.8736  1.5157 -0.4107
 9872TIP3    H229578   6.103   5.783   4.423  1.0837 -0.9296 -0.7605
 9873TIP3   OH229579   5.652   3.910   6.064  0.2162 -0.0765 -0.3024
 9873TIP3    H129580   5.579   3.854   6.090  1.0800 -1.2356 -0.3303
 9873TIP3    H229581   5.687   3.944   6.147 -0.1251  0.1800 -0.2654
 9874TIP3   OH229582   2.387   7.061   4.441 -0.5444 -0.7224 -0.2392
 9874TIP3    H129583   2.456   7.121   4.469 -1.5534  0.5558 -0.4719
 9874TIP3    H229584   2.402   6.982   4.492  0.7164 -0.2335  0.1632
 9875TIP3   OH229585   4.882   6.897   3.752 -0.7320 -0.0110  0.1025
 9875TIP3    H129586   4.873   6.918   3.659  2.7241  2.4509  0.2309
 9875TIP3    H229587   4.865   6.803   3.757 -2.0174 -0.0163 -2.8173
 9876TIP3   OH229588   6.483   6.739   1.516  0.0845 -0.0060  0.5787
 9876TIP3    H129589   6.458   6.660   1.468  0.0748  0.4154 -0.1236
 9876TIP3    H229590   6.519   6.797   1.449  1.9703 -0.1990  1.4108
 9877TIP3   OH229591   4.732   6.113   4.254 -0.6203  0.2929  0.3400
 9877TIP3    H129592   4.761   6.203   4.263 -1.1852  0.5218 -0.0560
 9877TIP3    H229593   4.656   6.107   4.312 -0.8849  0.2194 -0.0068
 9878TIP3   OH229594   3.017   5.888   3.680  1.2535  0.2584 -0.6038
 9878TIP3    H129595   2.966   5.927   3.609  2.0841  2.6981  0.0681
 9878TIP3    H229596   3.103   5.871   3.642  0.5397 -2.0907 -1.2211
 9879TIP3   OH229597   5.626   4.638   5.128 -0.8214 -0.2753 -0.8973
 9879TIP3    H129598   5.594   4.725   5.151 -2.5327 -1.0223 -0.3581
 9879TIP3    H229599   5.631   4.638   5.032 -1.3235  0.2472 -0.9224
 9880TIP3   OH229600   4.589   5.381   5.255  0.4606 -0.0259  0.1179
 9880TIP3    H129601   4.595   5.477   5.257 -1.4806  0.1634 -1.4675
 9880TIP3    H229602   4.625   5.353   5.339 -0.0339  2.1580  1.0877
 9881TIP3   OH229603   4.504   4.986   4.967  0.2849  0.4770 -0.6038
 9881TIP3    H129604   4.580   5.017   5.016  0.3282  0.5301 -0.7047
 9881TIP3    H229605   4.440   4.961   5.034  0.6514 -0.2201 -0.5049
 9882TIP3   OH229606   1.746   2.426   0.130 -0.1084 -0.5505  0.5721
 9882TIP3    H129607   1.655   2.456   0.125  0.4502  1.2834  1.1045
 9882TIP3    H229608   1.739   2.330   0.136 -1.9156 -0.6012 -1.6341
 9883TIP3   OH229609   4.654   3.324   5.296 -0.1674  1.1505 -0.6709
 9883TIP3    H129610   4.610   3.370   5.368 -0.4207 -1.1945  0.7186
 9883TIP3    H229611   4.582   3.293   5.241 -0.2896 -1.6072  0.9366
 9884TIP3   OH229612   7.403   0.311   5.527 -0.4085  0.7039  0.2128
 9884TIP3    H129613   7.357   0.332   5.446 -2.3687 -1.6918  0.6562
 9884TIP3    H229614   7.479   0.259   5.499 -0.4884  0.7915 -0.1616
 9885TIP3   OH229615   1.202   0.310   0.623  0.3138  0.3945 -0.0741
 9885TIP3    H129616   1.237   0.373   0.561 -0.3682  0.8972  0.0439
 9885TIP3    H229617   1.200   0.357   0.707 -1.7252  0.7833 -0.3101
 9886TIP3   OH229618   5.194   1.247   5.733 -0.5221  0.0171 -0.1058
 9886TIP3    H129619   5.186   1.338   5.703 -0.2837  0.1801  0.3239
 9886TIP3    H229620   5.287   1.226   5.722  0.0300  0.8515  2.7309
 9887TIP3   OH229621   2.644   0.067   0.518  0.1820  0.4313 -0.1776
 9887TIP3    H129622   2.658   0.100   0.607  0.6660 -2.1594  0.7511
 9887TIP3    H229623   2.677   0.137   0.461 -2.5311  3.2599  1.5713
 9888TIP3   OH229624   1.806   4.211   0.426 -0.4671 -0.5079  0.0498
 9888TIP3    H129625   1.796   4.244   0.337  1.9663 -0.7674 -0.3484
 9888TIP3    H229626   1.840   4.122   0.415  0.8786 -0.1617  1.2434
 9889TIP3   OH229627   4.825   5.647   3.364 -0.2551  0.3626 -0.3540
 9889TIP3    H129628   4.778   5.730   3.375  2.5142  2.0748 -0.8684
 9889TIP3    H229629   4.806   5.620   3.275 -0.0553  1.1854 -0.6513
 9890TIP3   OH229630   1.676   2.557   0.577  0.1770  0.3740 -0.8093
 9890TIP3    H129631   1.620   2.538   0.652  0.4968  2.2411 -0.0708
 9890TIP3    H229632   1.692   2.472   0.536 -1.6991 -0.3908  0.0319
 9891TIP3   OH229633   5.100   6.524   4.957 -0.0519 -0.4878 -0.6103
 9891TIP3    H129634   5.007   6.546   4.950 -0.4184 -1.6714  0.3731
 9891TIP3    H229635   5.108   6.438   4.914  0.2629 -1.1933  0.8279
 9892TIP3   OH229636   6.699   4.263   1.512 -0.0648  0.9010 -0.3104
 9892TIP3    H129637   6.715   4.207   1.436  1.5311 -0.1826  0.8032
 9892TIP3    H229638   6.786   4.285   1.544 -0.6982  3.0713 -0.0194
 9893TIP3   OH229639   4.261   5.814   5.958 -0.2360 -0.1468  0.5645
 9893TIP3    H129640   4.179   5.856   5.983 -0.5089  0.0735 -0.6771
 9893TIP3    H229641   4.236   5.746   5.896  0.5883  0.4472 -0.4384
 9894TIP3   OH229642   3.109   1.224   1.117  0.0979 -0.6328 -0.3061
 9894TIP3    H129643   3.125   1.182   1.032 -0.3234  1.0975 -1.2586
 9894TIP3    H229644   3.072   1.309   1.095  0.6897  0.1355  1.6180
 9895TIP3   OH229645   3.554   0.727   0.752  0.0309  0.2059  0.0596
 9895TIP3    H129646   3.464   0.739   0.721  0.6487 -0.9384 -2.2825
 9895TIP3    H229647   3.598   0.809   0.729 -0.5341  1.0239  1.7880
 9896TIP3   OH229648   6.714   5.290   5.109  0.4285 -0.1653  0.0102
 9896TIP3    H129649   6.709   5.201   5.145  0.7091  0.2042  0.9626
 9896TIP3    H229650   6.736   5.276   5.017  1.1095 -1.0712  0.2928
 9897TIP3   OH229651   4.439   6.028   6.042 -0.4130 -0.1358  0.1561
 9897TIP3    H129652   4.381   5.951   6.041 -0.1849 -0.3006 -1.4628
 9897TIP3    H229653   4.466   6.038   5.951 -1.3724  2.5854  0.1484
 9898TIP3   OH229654   0.263   0.248   4.769  0.2147 -0.0905  0.0397
 9898TIP3    H129655   0.294   0.242   4.859 -0.9689 -0.3311  0.4504
 9898TIP3    H229656   0.287   0.164   4.730  1.5028  0.3576 -0.1206
 9899TIP3   OH229657   0.743   2.350   0.763  0.3629  0.2505 -0.5803
 9899TIP3    H129658   0.763   2.397   0.844  1.0872 -1.4537  0.2500
 9899TIP3    H229659   0.760   2.414   0.694  0.2922  1.5471  0.5786
 9900TIP3   OH229660   7.403   6.210   0.647 -0.1669  0.2337  0.2607
 9900TIP3    H129661   7.333   6.204   0.712  0.5713 -1.7993  0.8850
 9900TIP3    H229662   7.379   6.148   0.579  0.2014  0.7395 -0.3404
 9901TIP3   OH229663   3.121   7.083   5.031 -0.3471 -0.1971 -0.0451
 9901TIP3    H129664   3.211   7.099   5.003  0.4911 -0.9431  2.1249
 9901TIP3    H229665   3.091   7.167   5.066 -1.0737  0.4822 -2.2095
 9902TIP3   OH229666   5.421   3.201   4.446 -0.5315 -0.5284  0.7188
 9902TIP3    H129667   5.342   3.158   4.478 -1.4023  0.8502  0.4732
 9902TIP3    H229668   5.391   3.257   4.375  0.7025 -0.1472  0.4834
 9903TIP3   OH229669   7.224   1.126   0.359  0.2500  0.0264  0.1184
 9903TIP3    H129670   7.281   1.072   0.414  0.2504  0.0255  0.1169
 9903TIP3    H229671   7.264   1.213   0.362  1.2787 -0.3725 -1.3137
 9904TIP3   OH229672   5.209   4.929   4.932  0.3760  0.8989 -0.1637
 9904TIP3    H129673   5.205   4.833   4.936 -1.0842  0.9720  0.3954
 9904TIP3    H229674   5.139   4.953   4.871  1.5846  1.5531 -1.3177
 9905TIP3   OH229675   1.520   1.936   0.395 -0.4026 -0.1870 -0.6938
 9905TIP3    H129676   1.457   2.007   0.386  0.1098  0.3859  0.1699
 9905TIP3    H229677   1.473   1.869   0.446 -0.5209 -0.0051 -0.5619
 9906TIP3   OH229678   1.189   1.568   0.575  0.2643 -0.6842 -0.4175
 9906TIP3    H129679   1.205   1.489   0.627  1.0720  0.4732  1.1419
 9906TIP3    H229680   1.118   1.544   0.515  1.6792 -3.1360 -1.1999
 9907TIP3   OH229681   4.604   5.375   5.620 -0.3700  0.1070  0.1891
 9907TIP3    H129682   4.682   5.321   5.634  0.7089  0.7971 -2.9125
 9907TIP3    H229683   4.635   5.465   5.631 -1.0257  0.3311  0.2044
 9908TIP3   OH229684   2.258   2.716   1.315  0.3688  0.0953 -0.0249
 9908TIP3    H129685   2.320   2.701   1.386  0.2736 -0.2972 -0.0185
 9908TIP3    H229686   2.284   2.799   1.277  1.7279 -0.6975 -0.8701
 9909TIP3   OH229687   2.150   1.768   0.646  0.0557 -0.3758 -0.1498
 9909TIP3    H129688   2.194   1.853   0.646 -1.6080  0.5662 -1.9858
 9909TIP3    H229689   2.139   1.746   0.738  2.2278  0.4645  0.3404
 9910TIP3   OH229690   0.339   6.640   0.151  0.0468  0.3839  0.6005
 9910TIP3    H129691   0.415   6.689   0.121  0.2964  0.9810  2.1838
 9910TIP3    H229692   0.264   6.694   0.126  0.2135  0.5574  0.4770
 9911TIP3   OH229693   1.772   0.711   0.922 -0.1473 -0.0946  0.0915
 9911TIP3    H129694   1.714   0.755   0.860  1.6949  1.7733 -0.3475
 9911TIP3    H229695   1.741   0.739   1.008  1.4173  2.6761 -0.2007
 9912TIP3   OH229696   3.443   3.443   0.938  0.3852  0.7311  0.4724
 9912TIP3    H129697   3.363   3.493   0.924 -1.6379 -2.8457 -1.4563
 9912TIP3    H229698   3.442   3.420   1.031 -0.0519  1.9264  0.7675
 9913TIP3   OH229699   1.739   2.819   1.012  0.4632 -0.0349 -0.5861
 9913TIP3    H129700   1.785   2.796   0.931  1.3241  0.4618 -0.2520
 9913TIP3    H229701   1.760   2.748   1.072  1.4756  0.5782 -0.1851
 9914TIP3   OH229702   3.168   5.688   5.838  0.6631 -0.0761 -0.7851
 9914TIP3    H129703   3.177   5.755   5.907  2.3314  2.1771 -3.0652
 9914TIP3    H229704   3.112   5.730   5.772  0.0298 -1.7622 -1.3289
 9915TIP3   OH229705   1.646   0.928   1.062  0.4882 -0.0226 -0.5601
 9915TIP3    H129706   1.578   0.985   1.025  0.0659  0.5387  1.0364
 9915TIP3    H229707   1.601   0.877   1.129  1.3802 -0.5378 -0.3473
 9916TIP3   OH229708   6.289   4.945   3.692  0.1761 -0.5000 -0.1027
 9916TIP3    H129709   6.331   5.022   3.654 -0.9856 -0.0426 -0.4772
 9916TIP3    H229710   6.360   4.897   3.733  1.0861  0.2035 -0.8385
 9917TIP3   OH229711   1.221   1.722   0.301  0.6334 -0.3535  0.4347
 9917TIP3    H129712   1.169   1.652   0.341  1.0362 -0.6596  0.4288
 9917TIP3    H229713   1.311   1.691   0.309  0.6561 -0.8079 -1.4805
 9918TIP3   OH229714   4.781   5.625   4.817  0.1732  0.5651  0.0626
 9918TIP3    H129715   4.786   5.621   4.913  0.3338 -0.6723  0.0197
 9918TIP3    H229716   4.689   5.642   4.799 -0.2263 -1.1234  0.4143
 9919TIP3   OH229717   2.983   7.127   5.555 -0.5144  0.6479  0.0913
 9919TIP3    H129718   3.011   7.079   5.477  0.3562  1.2286  0.0394
 9919TIP3    H229719   2.928   7.197   5.521 -1.1575  0.1494  0.1033
 9920TIP3   OH229720   6.851   6.952   6.078  0.2327 -0.3949 -0.2527
 9920TIP3    H129721   6.826   7.040   6.107 -1.2215 -0.2325 -1.8655
 9920TIP3    H229722   6.913   6.966   6.007 -0.6112 -0.6197 -1.0561
 9921TIP3   OH229723   4.319   4.813  -0.015  0.2567  0.5039  0.2381
 9921TIP3    H129724   4.415   4.816  -0.020  0.3061 -0.9519 -0.1650
 9921TIP3    H229725   4.301   4.750   0.055 -0.3990  0.9442  0.4618
 9922TIP3   OH229726   5.910   5.901   6.011 -0.7963 -0.0019 -0.9147
 9922TIP3    H129727   5.872   5.943   5.935 -1.5093  0.0945 -0.5129
 9922TIP3    H229728   5.940   5.973   6.066 -1.4026 -0.0276 -0.5408
 9923TIP3   OH229729   3.495   5.156   4.896 -0.8197 -0.4933  0.5907
 9923TIP3    H129730   3.498   5.237   4.846  1.5145 -0.1237  1.2773
 9923TIP3    H229731   3.528   5.179   4.982  3.1973 -2.8089 -0.2072
 9924TIP3   OH229732   5.109   4.426   5.154 -0.2737 -0.0970 -0.1232
 9924TIP3    H129733   5.100   4.509   5.107 -0.3256 -0.1687 -0.2399
 9924TIP3    H229734   5.152   4.367   5.092 -1.8231 -0.6791 -0.6558
 9925TIP3   OH229735   4.697   4.367   4.453  0.0803  0.1801  0.2592
 9925TIP3    H129736   4.659   4.381   4.540  0.5932 -1.3594  0.7567
 9925TIP3    H229737   4.622   4.357   4.395 -0.2725  2.3449  0.3129
 9926TIP3   OH229738   4.163   3.286   0.861 -0.0388  0.1358  0.0016
 9926TIP3    H129739   4.188   3.212   0.916 -0.7030 -2.2599 -2.8237
 9926TIP3    H229740   4.068   3.292   0.870 -0.1932 -0.4962 -1.1472
 9927TIP3   OH229741   5.268   4.105   5.533 -0.0459  0.1529  0.2734
 9927TIP3    H129742   5.280   4.072   5.444  1.1917 -0.1455  0.5377
 9927TIP3    H229743   5.321   4.184   5.538 -0.2918  0.2969  0.6725
 9928TIP3   OH229744   5.368   4.670   4.636 -0.1897 -0.3242 -0.3555
 9928TIP3    H129745   5.404   4.622   4.562 -1.3103 -0.6331 -0.7029
 9928TIP3    H229746   5.276   4.685   4.613  0.2588  2.5004 -0.5483
 9929TIP3   OH229747   6.653   3.859   5.239  0.1998 -0.2598 -0.2015
 9929TIP3    H129748   6.744   3.886   5.229  0.0647  0.3572  0.1575
 9929TIP3    H229749   6.603   3.921   5.186 -0.1192  0.2424  0.6645
 9930TIP3   OH229750   5.443   5.440   5.435 -0.5404  0.7690  0.2569
 9930TIP3    H129751   5.372   5.477   5.488 -0.9152 -0.0713  0.3600
 9930TIP3    H229752   5.487   5.515   5.397 -0.1262  1.4147  1.9543
 9931TIP3   OH229753   3.501   0.896   1.211 -0.3185  0.1938 -0.4877
 9931TIP3    H129754   3.536   0.984   1.209  0.0969  0.0775  0.9544
 9931TIP3    H229755   3.413   0.904   1.173 -0.9087  1.5332  1.0851
 9932TIP3   OH229756   7.470   6.564   6.119 -0.0747  0.2936  0.0535
 9932TIP3    H129757   7.470   6.490   6.058 -0.4121  0.9095 -0.6898
 9932TIP3    H229758   7.562   6.580   6.138 -0.0821 -2.2541  2.5639
 9933TIP3   OH229759   5.243   4.579   5.351 -0.0192  0.5101 -1.1667
 9933TIP3    H129760   5.165   4.527   5.331  0.1366 -0.6321  1.0456
 9933TIP3    H229761   5.312   4.542   5.296 -0.4430 -0.1637 -1.2429
 9934TIP3   OH229762   6.412   4.577   5.931 -0.0335  0.1227  0.0741
 9934TIP3    H129763   6.497   4.583   5.973  0.4256 -0.8591 -0.6740
 9934TIP3    H229764   6.353   4.546   5.999  0.3614  0.1083  0.4085
 9935TIP3   OH229765   1.170   0.857   0.873  0.3439  0.2744 -0.0690
 9935TIP3    H129766   1.098   0.859   0.936 -0.4499 -0.3149 -0.9390
 9935TIP3    H229767   1.240   0.811   0.918 -1.0656 -2.3646 -0.4812
 9936TIP3   OH229768   7.753   1.220   0.156 -0.5031 -0.5358  0.2357
 9936TIP3    H129769   7.674   1.213   0.102 -1.7986  0.1274  1.9915
 9936TIP3    H229770   7.820   1.173   0.107 -1.3114  1.1040 -2.5511
 9937TIP3   OH229771   5.179   1.905   0.573 -0.3148  0.8880  0.2759
 9937TIP3    H129772   5.253   1.862   0.531 -0.8285 -0.0958  0.3626
 9937TIP3    H229773   5.219   1.962   0.639  0.3791  0.6229  0.0912
 9938TIP3   OH229774   4.567   6.743   4.655 -0.5065  0.3388 -0.0158
 9938TIP3    H129775   4.617   6.823   4.640  0.8733 -0.8242 -1.9914
 9938TIP3    H229776   4.562   6.702   4.568 -2.3486 -1.0390  0.7101
 9939TIP3   OH229777   4.012   3.429   6.226 -0.2230  0.1465 -0.0396
 9939TIP3    H129778   4.037   3.453   6.315  0.3353 -0.8618  0.0842
 9939TIP3    H229779   4.053   3.343   6.212 -3.9382 -1.8102  0.3289
 9940TIP3   OH229780   3.636   5.175   5.393 -0.1275  1.0242 -0.1330
 9940TIP3    H129781   3.637   5.218   5.478 -0.1303 -2.4929  1.7737
 9940TIP3    H229782   3.692   5.229   5.337  0.5136  2.9779  2.3109
 9941TIP3   OH229783   4.874   0.338   0.565 -0.2372 -0.3660  0.2405
 9941TIP3    H129784   4.838   0.328   0.477 -0.0118  3.2829 -0.3235
 9941TIP3    H229785   4.966   0.311   0.556  0.1014  1.1106 -0.9573
 9942TIP3   OH229786   7.641   3.261   5.394  0.6519 -0.0722 -0.1621
 9942TIP3    H129787   7.551   3.292   5.400  0.8504  0.9709 -2.0840
 9942TIP3    H229788   7.694   3.334   5.426  0.8983  0.0619 -0.8511
 9943TIP3   OH229789   3.501   3.408   6.130  0.0128  0.1461 -0.2525
 9943TIP3    H129790   3.451   3.487   6.109  2.3969  1.7553 -0.1411
 9943TIP3    H229791   3.503   3.407   6.226  0.8137  0.5181 -0.2610
 9944TIP3   OH229792   3.569   5.662   4.984  0.0216  0.2752 -0.0738
 9944TIP3    H129793   3.481   5.668   5.022 -0.1562  1.8605 -0.6941
 9944TIP3    H229794   3.593   5.570   4.994 -1.1566  0.0960  1.3254
 9945TIP3   OH229795   1.096   0.177   0.907  0.0570 -0.5938  0.4250
 9945TIP3    H129796   1.096   0.095   0.858 -0.0774 -0.8674  0.8824
 9945TIP3    H229797   1.177   0.221   0.880 -0.8975  0.0979 -1.4321
 9946TIP3   OH229798   0.447   1.487   0.570  0.1075  0.7035 -0.8210
 9946TIP3    H129799   0.493   1.459   0.491 -0.4963  1.4841 -1.4604
 9946TIP3    H229800   0.410   1.572   0.547 -1.7623  0.0285 -0.3623
 9947TIP3   OH229801   4.487   5.712   3.760  0.1534 -0.2093 -0.6240
 9947TIP3    H129802   4.488   5.617   3.755  0.1587 -0.2774  0.4765
 9947TIP3    H229803   4.447   5.731   3.845 -0.2054  0.7755 -1.0074
 9948TIP3   OH229804   5.797   5.868   6.367  0.2201 -0.1678 -0.3368
 9948TIP3    H129805   5.819   5.954   6.331 -0.5845  0.7635  1.3440
 9948TIP3    H229806   5.824   5.806   6.299 -1.4755  1.5343 -2.6145
 9949TIP3   OH229807   6.494   4.661   4.746 -0.9079 -0.6884 -0.7475
 9949TIP3    H129808   6.443   4.726   4.698 -2.1306 -0.5181  0.7557
 9949TIP3    H229809   6.552   4.713   4.801 -1.0959 -0.8733 -0.3751
 9950TIP3   OH229810   5.176   0.201   0.885  0.5363  0.6468  0.4567
 9950TIP3    H129811   5.085   0.180   0.863 -0.0578  2.0197  1.5252
 9950TIP3    H229812   5.228   0.137   0.837 -0.9693  0.2443 -0.6727
 9951TIP3   OH229813   2.292   5.572   5.973 -0.3323 -0.4543  0.0306
 9951TIP3    H129814   2.242   5.652   5.991 -1.7221 -1.4624  0.7589
 9951TIP3    H229815   2.315   5.537   6.059 -0.2519 -1.1594 -0.2725
 9952TIP3   OH229816   0.607   2.952   0.629  0.2110 -0.7179  0.1581
 9952TIP3    H129817   0.551   2.881   0.599 -0.0815 -0.2994 -0.2843
 9952TIP3    H229818   0.653   2.981   0.550 -0.0002 -0.1195  0.2582
 9953TIP3   OH229819   4.216   4.162   5.681 -0.0475 -0.3844  0.0384
 9953TIP3    H129820   4.144   4.148   5.619 -0.2982 -0.3795  0.3265
 9953TIP3    H229821   4.192   4.109   5.757  1.9298 -3.1231 -1.1754
 9954TIP3   OH229822   4.140   2.913   0.344  0.1639  0.1539  0.2944
 9954TIP3    H129823   4.133   3.000   0.306 -0.3045 -0.0712 -0.1396
 9954TIP3    H229824   4.089   2.918   0.425  0.6103  0.4454  0.5533
 9955TIP3   OH229825   4.321   2.390   0.005 -0.0706 -0.4550 -0.1496
 9955TIP3    H129826   4.227   2.409   0.012  0.0348 -0.2405  0.6891
 9955TIP3    H229827   4.356   2.408   0.092  1.1695  1.6764 -1.0589
 9956TIP3   OH229828   3.992   6.917   3.702 -0.5453 -0.1808 -0.0761
 9956TIP3    H129829   4.080   6.937   3.670 -0.4984 -1.1503 -0.5788
 9956TIP3    H229830   3.977   6.981   3.771  0.8464 -0.4778  0.5216
 9957TIP3   OH229831   5.436   5.334   5.141 -0.1740 -0.5903  0.4555
 9957TIP3    H129832   5.401   5.259   5.093  0.0705 -1.7322  2.0540
 9957TIP3    H229833   5.386   5.409   5.107 -1.0340 -1.5827 -0.5113
 9958TIP3   OH229834   2.709   6.949   6.084  0.3961 -0.1951  0.3869
 9958TIP3    H129835   2.792   6.907   6.109  0.4103 -0.8127 -0.6737
 9958TIP3    H229836   2.711   6.953   5.989 -1.0745 -0.7970  0.3106
 9959TIP3   OH229837   2.581   0.272   0.324 -0.0163 -0.4051  0.2069
 9959TIP3    H129838   2.602   0.288   0.232 -0.1454 -1.5304 -0.0142
 9959TIP3    H229839   2.494   0.232   0.322 -0.3243  0.2214  0.8640
 9960TIP3   OH229840   4.611   3.453   5.543  0.0116 -0.2922 -0.3019
 9960TIP3    H129841   4.643   3.455   5.633  0.7134  0.0998 -0.5667
 9960TIP3    H229842   4.555   3.531   5.536 -0.2739 -0.4766 -0.1262
 9961TIP3   OH229843   3.452   4.430   6.015  0.4185  0.0788  0.1129
 9961TIP3    H129844   3.456   4.488   6.091  0.7984  0.0999  0.0750
 9961TIP3    H229845   3.363   4.441   5.981  0.7268  1.2261 -0.3476
 9962TIP3   OH229846   3.966   4.669   5.186  0.5451  0.3111 -0.6413
 9962TIP3    H129847   3.988   4.581   5.154 -0.3331  0.5218 -1.8587
 9962TIP3    H229848   4.034   4.688   5.251 -0.3009 -2.0335  1.0381
 9963TIP3   OH229849   4.553   2.262   4.677  0.2540  0.3771 -0.1469
 9963TIP3    H129850   4.622   2.253   4.612 -0.2878  0.1240 -0.6965
 9963TIP3    H229851   4.508   2.343   4.654 -2.1613 -1.4659 -2.2754
 9964TIP3   OH229852   6.667   3.215   6.017  0.2623 -0.0269 -0.0622
 9964TIP3    H129853   6.594   3.169   5.977  0.5978 -0.7300  0.1383
 9964TIP3    H229854   6.740   3.153   6.014  0.5745  0.2965  0.6984
 9965TIP3   OH229855   5.305   4.771   6.084 -0.4637  0.3491 -0.4742
 9965TIP3    H129856   5.279   4.836   6.150  0.4521  0.6393 -0.3923
 9965TIP3    H229857   5.400   4.782   6.076 -0.6717  0.8378 -2.3981
 9966TIP3   OH229858   2.139   4.696   4.885 -0.5911  0.1894 -0.2027
 9966TIP3    H129859   2.231   4.722   4.880 -0.6772  0.5482  0.0718
 9966TIP3    H229860   2.104   4.744   4.961 -0.8449 -0.4348  0.0773
 9967TIP3   OH229861   2.886   2.476   0.679  0.4460  0.8184  0.1449
 9967TIP3    H129862   2.916   2.440   0.596  2.7483  0.4303  1.1040
 9967TIP3    H229863   2.910   2.569   0.674  1.3251  0.6295  0.6714
 9968TIP3   OH229864   3.992   4.654   5.650  0.6815  0.2180 -0.1768
 9968TIP3    H129865   3.931   4.713   5.696  0.3076 -0.2743 -0.0364
 9968TIP3    H229866   3.963   4.658   5.558  1.4858  1.2694 -0.3945
 9969TIP3   OH229867   5.269   5.419   4.751  0.2571 -0.2925  0.2113
 9969TIP3    H129868   5.180   5.453   4.740 -0.4486 -1.5396  1.9667
 9969TIP3    H229869   5.260   5.345   4.811  2.8499  1.3755  2.7982
 9970TIP3   OH229870   0.067   0.323   1.741 -0.5566  0.3820 -0.0485
 9970TIP3    H129871   0.105   0.405   1.772 -1.6768  1.7242 -2.0632
 9970TIP3    H229872   0.111   0.308   1.657 -0.8335 -0.7470  0.0084
 9971TIP3   OH229873   0.375   2.195   0.611  0.3145 -0.2017 -0.3573
 9971TIP3    H129874   0.331   2.245   0.680 -2.1883 -1.3367 -1.0954
 9971TIP3    H229875   0.456   2.244   0.595 -1.0212  2.3861  0.4785
 9972TIP3   OH229876   4.916   4.186   6.085  0.2132  0.2462 -0.7373
 9972TIP3    H129877   4.966   4.134   6.022  1.1413  0.6803 -0.3696
 9972TIP3    H229878   4.868   4.250   6.032  2.0360  1.4857 -0.9209
 9973TIP3   OH229879   4.238   5.273   4.428 -0.4931 -0.2188 -0.3605
 9973TIP3    H129880   4.155   5.320   4.425 -0.1285  0.4721 -0.0375
 9973TIP3    H229881   4.301   5.340   4.457  0.2614 -0.5920 -1.1226
 9974TIP3   OH229882   5.951   6.810   3.499 -0.4695 -0.3319 -0.3088
 9974TIP3    H129883   5.888   6.737   3.503 -0.6710 -0.1116  0.7346
 9974TIP3    H229884   5.942   6.854   3.583  1.5167 -0.6503  0.0931
 9975TIP3   OH229885   1.862   1.456   0.562 -0.1390 -0.3306 -0.5100
 9975TIP3    H129886   1.882   1.422   0.650 -1.9365 -0.0136  0.0464
 9975TIP3    H229887   1.945   1.492   0.531  0.1050  1.2594  1.8280
 9976TIP3   OH229888   0.176   4.908   5.973  0.2132  0.7645  0.7094
 9976TIP3    H129889   0.134   4.945   6.051  1.0745  1.2171  0.9782
 9976TIP3    H229890   0.110   4.915   5.904 -0.4981  0.5169  1.3612
 9977TIP3   OH229891   5.450   6.822   5.296 -0.4598 -0.8148 -0.2134
 9977TIP3    H129892   5.486   6.823   5.208 -0.0443 -1.9267 -0.0664
 9977TIP3    H229893   5.414   6.734   5.306 -1.4729 -0.3409  0.3382
 9978TIP3   OH229894   5.773   5.657   4.843 -0.5068 -0.3050 -0.3232
 9978TIP3    H129895   5.681   5.668   4.865 -0.7328 -3.0591  0.2841
 9978TIP3    H229896   5.818   5.728   4.889 -2.1009 -0.1637  1.0382
 9979TIP3   OH229897   0.766   0.134   5.086 -0.6354 -0.3526  0.3685
 9979TIP3    H129898   0.804   0.111   5.001 -1.9346 -0.2064 -0.2679
 9979TIP3    H229899   0.840   0.135   5.146  0.6332  1.5933 -1.1617
 9980TIP3   OH229900   2.918   7.170   0.106 -0.1038  0.0335  0.1786
 9980TIP3    H129901   2.843   7.228   0.123 -1.6536 -1.2798 -1.8582
 9980TIP3    H229902   2.940   7.187   0.014  1.3364 -0.4769  0.4220
 9981TIP3   OH229903   5.497   4.054   4.318 -0.3098 -0.3889 -0.4364
 9981TIP3    H129904   5.590   4.043   4.339 -0.1778  1.5610  0.1410
 9981TIP3    H229905   5.461   4.099   4.395 -0.8119  2.7661 -2.4672
 9982TIP3   OH229906   6.038   3.684   6.089  0.0213  0.0517  0.3061
 9982TIP3    H129907   6.002   3.742   6.021 -1.2874 -0.8831  0.1751
 9982TIP3    H229908   6.128   3.669   6.062 -0.0482  0.8775 -0.4262
 9983TIP3   OH229909   3.415   2.185   0.214  0.1011 -0.1493  0.2751
 9983TIP3    H129910   3.341   2.181   0.153  0.0454 -2.1369  0.4479
 9983TIP3    H229911   3.493   2.181   0.157  0.0533 -0.6974  0.2427
 9984TIP3   OH229912   5.860   3.700   5.646  0.2769 -0.6819 -0.3449
 9984TIP3    H129913   5.950   3.684   5.617  0.6068  2.1262 -1.0371
 9984TIP3    H229914   5.855   3.659   5.732  2.2973 -0.6818 -0.1898
 9985TIP3   OH229915   4.528   1.531   0.472  0.2305  0.1798 -0.1832
 9985TIP3    H129916   4.506   1.457   0.417 -0.7950  0.3837 -0.0555
 9985TIP3    H229917   4.473   1.603   0.440 -0.6729  0.1998  1.3351
 9986TIP3   OH229918   5.784   5.051   3.822  0.0698  0.1169 -0.2366
 9986TIP3    H129919   5.759   5.035   3.913  0.2814  0.4081 -0.1290
 9986TIP3    H229920   5.723   5.118   3.791 -0.8789 -0.9490 -0.7174
 9987TIP3   OH229921   0.392   3.852   4.444 -0.0964  0.9434 -0.3224
 9987TIP3    H129922   0.429   3.765   4.458 -1.1415  0.6854  1.0513
 9987TIP3    H229923   0.465   3.912   4.454  0.7890  0.1883 -2.0606
 9988TIP3   OH229924   5.656   5.312   4.151  0.0575  0.3254 -0.2077
 9988TIP3    H129925   5.632   5.340   4.239 -1.0990  0.6609 -0.6234
 9988TIP3    H229926   5.746   5.279   4.160 -0.3817 -0.5118  1.2748
 9989TIP3   OH229927   5.297   3.862   4.587 -0.3523  0.0986 -0.1798
 9989TIP3    H129928   5.217   3.858   4.535 -0.1997  1.1686 -0.5181
 9989TIP3    H229929   5.293   3.786   4.644 -0.5836 -1.0177 -1.6683
 9990TIP3   OH229930   4.212   2.657   0.338 -0.1259 -0.2125 -0.5628
 9990TIP3    H129931   4.290   2.653   0.282  0.2058  0.0970 -0.1202
 9990TIP3    H229932   4.188   2.749   0.338  0.1008 -0.1543  0.1188
 9991TIP3   OH229933   1.643   5.709   4.372  0.5121 -0.0344  1.0450
 9991TIP3    H129934   1.640   5.739   4.463 -2.6600 -0.0048  0.9703
 9991TIP3    H229935   1.564   5.744   4.332  1.4276 -0.7863 -1.5217
 9992TIP3   OH229936   1.594   7.310   0.243 -0.5741  0.0655 -0.1464
 9992TIP3    H129937   1.507   7.349   0.251 -0.8147 -0.8844  2.0372
 9992TIP3    H229938   1.653   7.379   0.273 -0.5402  0.7876 -1.8338
 9993TIP3   OH229939   7.668   5.954   5.276 -0.1062 -0.1904 -0.2658
 9993TIP3    H129940   7.758   5.935   5.248 -0.1500  1.6413 -1.7833
 9993TIP3    H229941   7.617   5.880   5.242  0.6402 -0.5911 -0.5366
 9994TIP3   OH229942   2.921   0.083   0.364  0.0727 -0.8890 -0.7444
 9994TIP3    H129943   2.870   0.159   0.337 -1.6811 -1.9572 -0.5614
 9994TIP3    H229944   2.937   0.035   0.282  1.3271 -0.2393 -0.8833
 9995TIP3   OH229945   1.634   6.333   0.360  0.3780 -0.1279 -0.0931
 9995TIP3    H129946   1.595   6.346   0.447 -0.6947  0.0181 -0.5958
 9995TIP3    H229947   1.596   6.401   0.305 -1.0578 -1.9028 -1.3523
 9996TIP3   OH229948   4.495   0.461   0.298 -0.2493 -0.1927  0.0135
 9996TIP3    H129949   4.472   0.544   0.338  0.3260  0.8346 -1.7542
 9996TIP3    H229950   4.436   0.397   0.339 -1.7807  1.3306  0.2196
 9997TIP3   OH229951   5.337   2.490   0.140  0.0892 -0.1418  0.2571
 9997TIP3    H129952   5.403   2.517   0.076  1.3592 -2.4862  0.5279
 9997TIP3    H229953   5.310   2.403   0.111 -1.2262 -0.1445  1.4603
 9998TIP3   OH229954   7.342   6.464   3.513  0.1341  0.5967  0.0985
 9998TIP3    H129955   7.421   6.477   3.460  0.2890  0.1560  0.2268
 9998TIP3    H229956   7.374   6.440   3.600 -0.1738 -1.6554 -0.3891
 9999TIP3   OH229957   5.992   5.467   6.307  0.4259 -0.2432 -0.0154
 9999TIP3    H129958   6.080   5.465   6.269  0.0897 -2.4529 -0.7771
 9999TIP3    H229959   5.960   5.377   6.296 -1.1853  0.0596  1.9758
10000TIP3   OH229960   7.020   4.824   4.714 -1.3824 -0.4108 -0.6360
10000TIP3    H129961   7.038   4.740   4.672  0.8261 -0.2754 -0.0447
10000TIP3    H229962   6.998   4.801   4.804  0.5272 -0.3134 -0.1170
10001TIP3   OH229963   6.454   4.689   5.106  0.5405  0.6367 -0.0602
10001TIP3    H129964   6.528   4.728   5.059  0.8068  0.2959  0.0765
10001TIP3    H229965   6.493   4.647   5.182  0.4587 -1.4453 -1.1565
10002TIP3   OH229966   6.808   4.392   5.264 -0.6531  0.2826  0.3224
10002TIP3    H129967   6.877   4.326   5.253 -0.5754  0.1704  1.4302
10002TIP3    H229968   6.759   4.363   5.340 -0.5065  1.6074  0.9386
10003TIP3   OH229969   5.375   6.949   4.310 -0.4001  0.2765 -0.0574
10003TIP3    H129970   5.370   7.036   4.349 -1.0883  0.2882 -0.1565
10003TIP3    H229971   5.468   6.926   4.314 -0.2447  0.9210  0.1683
10004TIP3   OH229972   7.464   5.470   5.487  0.1648 -0.7202  0.0888
10004TIP3    H129973   7.552   5.443   5.462 -0.4979 -3.2875  0.4180
10004TIP3    H229974   7.423   5.498   5.404  1.0494 -0.1188 -0.1547
10005TIP3   OH229975   6.541   3.488   4.786  0.2677  0.6764  0.0807
10005TIP3    H129976   6.574   3.420   4.844  0.4381  1.9883  1.5697
10005TIP3    H229977   6.616   3.512   4.731 -0.4092 -1.9186 -2.0570
10006TIP3   OH229978   7.683   5.396   5.751 -0.3591 -0.2009  0.5542
10006TIP3    H129979   7.684   5.344   5.832  0.2964 -0.4571  0.3777
10006TIP3    H229980   7.592   5.390   5.721 -0.5386 -0.3516  1.1108
10007TIP3   OH229981   6.595   3.896   3.999  0.1427 -0.3048  0.1453
10007TIP3    H129982   6.655   3.958   3.958  0.7323  0.2820  1.8490
10007TIP3    H229983   6.512   3.909   3.953  0.1354  2.0682  0.7341
10008TIP3   OH229984   5.180   5.934   5.205  0.0211  0.4269  0.3391
10008TIP3    H129985   5.202   5.869   5.138 -0.2309  0.0485  0.6238
10008TIP3    H229986   5.115   5.891   5.260 -2.5675  2.0674 -1.3542
10009TIP3   OH229987   5.357   5.796   3.779  0.3259 -0.0870 -0.6815
10009TIP3    H129988   5.286   5.848   3.817  3.8330  3.1050  1.8330
10009TIP3    H229989   5.372   5.835   3.693 -0.8217 -0.6604 -1.1472
10010TIP3   OH229990   7.550   3.971   2.789 -0.4628  0.1495  0.0837
10010TIP3    H129991   7.563   3.903   2.855 -0.3933 -2.6649 -2.7173
10010TIP3    H229992   7.457   3.964   2.766 -0.6652  1.6390  0.4083
10011TIP3   OH229993   6.945   4.163   5.432 -0.2682  0.1751 -0.2967
10011TIP3    H129994   6.984   4.109   5.500  0.1983  0.2308 -0.5231
10011TIP3    H229995   6.851   4.165   5.454 -0.7780 -3.0122 -1.8479
10012TIP3   OH229996   5.797   6.977   5.132  0.1341 -0.4208 -0.2617
10012TIP3    H129997   5.814   6.988   5.038  1.9037 -0.0449  0.0910
10012TIP3    H229998   5.730   6.909   5.136 -1.3677  0.9229 -1.8829
10013TIP3   OH229999   0.384   4.965   5.234 -0.3140  0.5306  0.5125
10013TIP3    H130000   0.388   4.896   5.301  0.7519  0.1710  0.0903
10013TIP3    H230001   0.325   5.031   5.271  2.9590  2.0202  3.4119
10014TIP3   OH230002   3.766   2.448   0.148 -0.1949 -0.2615  0.3758
10014TIP3    H130003   3.756   2.520   0.085 -0.0431  0.6135  1.3417
10014TIP3    H230004   3.844   2.401   0.118  0.0745  0.3502  0.1104
10015TIP3   OH230005   3.667   0.948   0.617 -0.2380  0.2671  0.0409
10015TIP3    H130006   3.632   0.908   0.537  0.4839 -0.1966 -0.0477
10015TIP3    H230007   3.680   1.040   0.594 -0.1386  0.1571 -0.3432
10016TIP3   OH230008   1.980   1.120   0.507 -0.0214  0.0273  0.0829
10016TIP3    H130009   2.030   1.186   0.555 -0.4130 -0.5182  1.2556
10016TIP3    H230010   2.047   1.064   0.468  0.3692  2.2196 -2.5833
10017TIP3   OH230011   1.915   5.315   4.791  0.6080  0.3675  0.1678
10017TIP3    H130012   1.948   5.403   4.811 -1.0272  0.5347  2.2857
10017TIP3    H230013   1.823   5.330   4.768  0.4478 -0.7407  0.0947
10018TIP3   OH230014   6.018   4.787   4.761  0.1152 -0.5901 -0.0192
10018TIP3    H130015   6.045   4.813   4.849  0.1299 -2.0037  0.4122
10018TIP3    H230016   6.100   4.768   4.715  0.0921 -0.1547 -0.2406
10019TIP3   OH230017   0.695   4.754   5.309 -0.3610  0.1916  0.1973
10019TIP3    H130018   0.677   4.787   5.221  2.1242  1.2170  0.0271
10019TIP3    H230019   0.722   4.663   5.296 -1.7752 -0.2205  0.0982
10020TIP3   OH230020   6.495   5.947   4.550 -0.2827  0.2734  0.5016
10020TIP3    H130021   6.495   5.876   4.614 -0.2564  0.0801  0.2881
10020TIP3    H230022   6.402   5.962   4.530 -0.1937 -1.4037 -1.3282
10021TIP3   OH230023   4.479   6.557   6.172  0.0630  0.2739 -0.3421
10021TIP3    H130024   4.432   6.584   6.093 -3.0071  0.7189  1.5571
10021TIP3    H230025   4.494   6.463   6.161  0.6214  0.5287 -1.8905
10022TIP3   OH230026   6.187   6.053   4.887  0.0356 -0.0811 -0.1013
10022TIP3    H130027   6.253   6.122   4.876  2.3297 -2.3398 -0.8087
10022TIP3    H230028   6.150   6.070   4.974  0.3293  2.1921 -0.3665
10023TIP3   OH230029   1.095   4.752   5.829 -0.0590 -0.4114 -0.0362
10023TIP3    H130030   1.167   4.721   5.774  0.1318 -0.0786  0.0213
10023TIP3    H230031   1.032   4.680   5.830 -0.5726 -0.0243 -1.5987
10024TIP3   OH230032   3.997   4.486   6.241  0.9295 -0.3924 -0.7055
10024TIP3    H130033   3.942   4.408   6.232 -0.3881  0.4771 -0.3982
10024TIP3    H230034   4.061   4.462   6.308 -0.5907 -0.6084  0.7259
10025TIP3   OH230035   6.855   6.462   2.553 -0.2958 -0.8709  0.3134
10025TIP3    H130036   6.895   6.509   2.626 -0.5329 -0.6744  0.3202
10025TIP3    H230037   6.761   6.473   2.567 -0.3342 -0.4107 -0.2972
10026TIP3   OH230038   4.862   4.295   4.901 -0.2095 -0.4787  0.7875
10026TIP3    H130039   4.862   4.242   4.981 -0.2571 -1.6806  0.0036
10026TIP3    H230040   4.953   4.293   4.871  0.2130  1.5226  1.7889
10027TIP3   OH230041   7.536   4.025   5.919  0.1595 -0.0057  0.2864
10027TIP3    H130042   7.470   4.042   5.852  0.5642  0.3801 -0.0126
10027TIP3    H230043   7.565   3.935   5.902  1.8909  0.8514 -1.4758
10028TIP3   OH230044   7.353   5.317   4.559  0.2681 -0.0665 -0.2391
10028TIP3    H130045   7.405   5.247   4.597 -0.1657  0.1759  0.8114
10028TIP3    H230046   7.416   5.387   4.541  0.4531 -0.1406  0.1295
10029TIP3   OH230047   1.146   5.557   0.466 -0.5560 -0.0613 -0.1642
10029TIP3    H130048   1.081   5.515   0.410 -1.4280 -0.1932  0.9156
10029TIP3    H230049   1.101   5.568   0.550  0.4886  0.7720  0.2990
10030TIP3   OH230050   5.323   5.273   6.277  0.4789  0.2843 -0.6405
10030TIP3    H130051   5.253   5.254   6.214  1.1684 -0.6389 -1.1348
10030TIP3    H230052   5.402   5.237   6.237  0.9430 -0.2206  0.7000
10031TIP3   OH230053   2.176   5.007   4.994  0.0128  0.0358  0.3583
10031TIP3    H130054   2.122   4.932   5.018  0.2630  0.0949  1.1020
10031TIP3    H230055   2.123   5.055   4.930 -1.1046  0.4579  1.5766
10032TIP3   OH230056   6.261   5.433   6.229 -0.6882 -0.0497  0.4254
10032TIP3    H130057   6.298   5.521   6.238 -2.2026  0.5738  0.8372
10032TIP3    H230058   6.285   5.388   6.310  0.2990 -0.0919  0.1066
10033TIP3   OH230059   5.826   4.847   3.370 -0.4131  0.0067  0.4539
10033TIP3    H130060   5.834   4.859   3.464  0.7145 -0.3500  0.4011
10033TIP3    H230061   5.888   4.909   3.332 -1.4067  0.6932 -0.0849
10034TIP3   OH230062   7.281   4.528   2.954  0.9892  0.5069 -0.1251
10034TIP3    H130063   7.254   4.530   3.046  2.2778 -1.9681  0.3416
10034TIP3    H230064   7.216   4.474   2.910  1.7853 -0.4269 -0.1679
10035TIP3   OH230065   5.080   4.730   4.073 -0.0772  0.0657  0.2029
10035TIP3    H130066   5.040   4.684   3.999  1.7521 -1.3114  0.0379
10035TIP3    H230067   5.173   4.734   4.050  0.5779 -0.7947  2.6370
10036TIP3   OH230068   7.116   3.422   5.205  0.7625 -0.2777 -0.3182
10036TIP3    H130069   7.064   3.501   5.219 -0.4506 -1.1338  0.1299
10036TIP3    H230070   7.059   3.365   5.152  1.3665 -1.1127 -0.0799
10037TIP3   OH230071   2.353   2.401   0.017  0.5860  0.5523  0.4406
10037TIP3    H130072   2.360   2.411   0.112  2.7037 -0.7296  0.4569
10037TIP3    H230073   2.432   2.444  -0.017 -0.7808  2.0986 -0.8368
10038TIP3   OH230074   1.899   4.319   4.850  0.3062 -0.1064  0.1106
10038TIP3    H130075   1.825   4.369   4.886  1.8706  2.8910 -0.6354
10038TIP3    H230076   1.861   4.236   4.824 -3.2231  2.0179 -1.9533
10039TIP3   OH230077   3.164   0.793   0.158 -0.3502  0.2200  0.0903
10039TIP3    H130078   3.202   0.756   0.237 -1.2031 -0.9113 -0.0160
10039TIP3    H230079   3.129   0.878   0.185  1.5310  0.9383  0.3613
10040TIP3   OH230080   5.846   2.846   4.202  0.3526  0.4675  0.4099
10040TIP3    H130081   5.909   2.914   4.180  1.3025 -0.8984 -1.3045
10040TIP3    H230082   5.895   2.784   4.256  0.2519 -0.1589 -0.2078
10041TIP3   OH230083   7.072   1.336   3.784  0.3544 -0.2320 -0.1305
10041TIP3    H130084   6.983   1.372   3.784  0.2794 -0.4198 -0.0744
10041TIP3    H230085   7.061   1.243   3.765  0.5078 -0.3380  0.3026
10042TIP3   OH230086   3.822   4.743   4.359  0.3550 -0.0679  0.2955
10042TIP3    H130087   3.784   4.657   4.341  0.1436 -0.3510  1.9819
10042TIP3    H230088   3.915   4.734   4.337 -0.0059 -0.2070 -1.1846
10043TIP3   OH230089   7.436   4.924   5.703  0.3704 -0.6368 -0.4029
10043TIP3    H130090   7.463   4.911   5.794  2.1220  0.4453 -0.7350
10043TIP3    H230091   7.491   4.865   5.653 -0.0389 -0.6608 -0.8236
10044TIP3   OH230092   5.685   3.717   5.435  0.7529  0.3560 -0.5255
10044TIP3    H130093   5.750   3.699   5.503  0.7769 -1.0621 -0.9093
10044TIP3    H230094   5.620   3.773   5.478  1.2374  0.2128  0.3960
10045TIP3   OH230095   5.168   3.879   5.670  0.2164  0.1535 -0.5039
10045TIP3    H130096   5.181   3.806   5.609  0.1936 -1.1652  1.0434
10045TIP3    H230097   5.176   3.957   5.616  1.7520 -0.9607 -1.9224
10046TIP3   OH230098   3.280   4.062   3.692  0.0655  0.2999  0.0787
10046TIP3    H130099   3.245   4.108   3.768 -0.8548  0.0731 -0.1926
10046TIP3    H230100   3.358   4.017   3.724  0.0594  0.7517  0.7262
10047TIP3   OH230101   5.226   5.090   6.044  0.3143  0.3952 -0.8699
10047TIP3    H130102   5.311   5.116   6.009  0.2993 -0.8036 -1.8274
10047TIP3    H230103   5.169   5.165   6.027  0.8761  0.7227 -1.3203
10048TIP3   OH230104   2.965   1.842   0.323  0.3443  0.3226  0.5515
10048TIP3    H130105   2.989   1.912   0.383  0.8905  1.5791 -1.1129
10048TIP3    H230106   2.880   1.868   0.288  0.7406  0.3521 -0.3809
10049TIP3   OH230107   5.791   1.184   1.494  0.2934  0.2405  0.7378
10049TIP3    H130108   5.818   1.273   1.515 -0.4883  0.6867 -0.1480
10049TIP3    H230109   5.828   1.168   1.407 -0.7965  0.2199  0.2797
10050TIP3   OH230110   2.812   2.939   1.191 -0.4410 -0.2701 -0.0685
10050TIP3    H130111   2.796   2.969   1.101  0.6234 -1.1861 -0.5746
10050TIP3    H230112   2.907   2.934   1.198 -0.5445 -1.0323  0.8431
10051TIP3   OH230113   0.666   3.888   6.022 -0.1106  0.0258 -0.7334
10051TIP3    H130114   0.603   3.822   5.994 -0.8581  1.0990 -1.6472
10051TIP3    H230115   0.741   3.876   5.964  0.8359 -1.7110  0.8147
10052TIP3   OH230116   7.254   2.997   3.720 -0.0574 -0.3551  0.5342
10052TIP3    H130117   7.261   3.092   3.717  1.4828 -0.3553  2.6967
10052TIP3    H230118   7.326   2.965   3.667  0.8948 -0.2952  1.7655
10053TIP3   OH230119   5.569   6.486   5.826 -0.1915  0.3218  0.2317
10053TIP3    H130120   5.515   6.542   5.770  0.3251  1.2558  0.6600
10053TIP3    H230121   5.515   6.408   5.841 -0.3505  0.0666 -1.5292
10054TIP3   OH230122   5.593   5.666   5.399  0.0068 -0.1776 -0.0413
10054TIP3    H130123   5.536   5.722   5.347  0.1824  0.5836  0.5809
10054TIP3    H230124   5.678   5.670   5.355  0.0477  0.1324  0.0688
10055TIP3   OH230125   5.026   5.286   4.116  0.2686  0.6786 -0.1024
10055TIP3    H130126   5.110   5.244   4.098  0.0466  1.1120 -2.2971
10055TIP3    H230127   4.962   5.216   4.108  0.4229  0.2639  1.9612
10056TIP3   OH230128   5.965   2.619   0.908 -0.0144 -0.4889 -0.4337
10056TIP3    H130129   6.057   2.640   0.892 -0.3030  0.8729 -0.4091
10056TIP3    H230130   5.918   2.667   0.840 -0.9041  1.1552  1.3061
10057TIP3   OH230131   0.065   5.169   4.943  0.1988 -0.0212  0.2357
10057TIP3    H130132   0.050   5.184   5.037  0.2669 -0.7210  0.3662
10057TIP3    H230133  -0.018   5.134   4.911  0.4925 -0.7567  0.2578
10058TIP3   OH230134   7.129   4.649   4.044 -0.5795  0.3582  0.3703
10058TIP3    H130135   7.153   4.562   4.075  0.1183 -0.6534 -2.7643
10058TIP3    H230136   7.212   4.695   4.035 -0.6310  0.1700 -1.2020
10059TIP3   OH230137   7.087   5.023   3.421 -0.0585  0.2650 -0.2859
10059TIP3    H130138   7.005   4.983   3.450  0.0552 -1.1707 -1.8922
10059TIP3    H230139   7.107   4.980   3.338  2.5289  0.3365  0.2683
10060TIP3   OH230140   4.630   3.447   4.481 -0.5447 -0.4442  0.8838
10060TIP3    H130141   4.673   3.478   4.402  1.0724 -3.9761  0.3000
10060TIP3    H230142   4.549   3.498   4.485 -0.7124 -0.2428 -3.0823
10061TIP3   OH230143   6.333   5.837   6.187 -0.1774 -0.5423 -0.0684
10061TIP3    H130144   6.429   5.837   6.189 -0.1646  0.7608 -0.3388
10061TIP3    H230145   6.310   5.907   6.126 -1.3003 -1.4015 -0.6502
10062TIP3   OH230146   4.690   5.512   5.970  0.3588  0.2238 -0.7454
10062TIP3    H130147   4.674   5.437   6.027  0.7993 -0.1275 -1.0808
10062TIP3    H230148   4.608   5.562   5.972 -0.3097 -0.8407 -1.3847
10063TIP3   OH230149   0.214   5.561   0.914  0.3046  1.0625 -0.2065
10063TIP3    H130150   0.200   5.621   0.840 -0.2058  1.3972  0.1528
10063TIP3    H230151   0.259   5.486   0.876 -0.8528  0.7793 -1.0733
10064TIP3   OH230152   0.444   1.096   4.618  0.3609  0.1449  0.3020
10064TIP3    H130153   0.483   1.181   4.639  1.3526  0.3709 -2.2477
10064TIP3    H230154   0.383   1.079   4.690  2.9068  1.2331  2.8038
10065TIP3   OH230155   7.378   3.337   5.374 -0.8869  0.1799 -0.1353
10065TIP3    H130156   7.306   3.368   5.319  1.0605  4.3607 -0.5022
10065TIP3    H230157   7.354   3.363   5.463 -0.3632  0.5466 -0.1010
10066TIP3   OH230158   6.684   6.860   4.147 -0.7346 -0.5676  0.3507
10066TIP3    H130159   6.655   6.940   4.103 -2.9473 -0.7082  1.4542
10066TIP3    H230160   6.681   6.792   4.080 -0.1497  0.0023 -0.2553
10067TIP3   OH230161   5.518   5.319   5.698 -0.1772  0.5082  0.5437
10067TIP3    H130162   5.560   5.388   5.749  1.4900  0.1849 -0.3296
10067TIP3    H230163   5.484   5.364   5.620  0.2762  0.4775  0.3229
10068TIP3   OH230164   2.741   2.342   0.346 -0.2148  0.2326 -0.5361
10068TIP3    H130165   2.649   2.326   0.364 -0.2819 -0.2761 -1.2777
10068TIP3    H230166   2.741   2.388   0.262  0.2192  0.0055 -0.6597
10069TIP3   OH230167   5.075   6.304   5.881  0.6328 -0.3595  0.4876
10069TIP3    H130168   5.089   6.212   5.903  0.2052 -1.1183 -2.2123
10069TIP3    H230169   4.985   6.322   5.910  0.0370 -1.3572 -0.6789
10070TIP3   OH230170   5.337   2.102   0.385 -0.1986  0.0707  0.1124
10070TIP3    H130171   5.249   2.086   0.420 -0.1932 -0.3743 -0.0685
10070TIP3    H230172   5.321   2.125   0.293 -0.1184 -0.1496  0.0426
10071TIP3   OH230173   6.788   4.808   6.162  0.3793  0.1309  0.5310
10071TIP3    H130174   6.844   4.813   6.240  0.9065 -0.6009  0.2073
10071TIP3    H230175   6.811   4.886   6.110  2.5232 -1.1709 -0.5300
10072TIP3   OH230176   6.488   5.766   5.888  0.4562 -0.8747 -0.6772
10072TIP3    H130177   6.515   5.718   5.966 -0.8707  1.7706  1.5140
10072TIP3    H230178   6.570   5.792   5.846  1.2224 -1.4637  0.4298
10073TIP3   OH230179   6.550   3.757   4.644 -0.2028  0.7932  0.4088
10073TIP3    H130180   6.596   3.710   4.575 -1.5996  0.6996 -0.4633
10073TIP3    H230181   6.585   3.846   4.640 -1.2158  1.1415 -1.3102
10074TIP3   OH230182   7.563   4.405   4.811  0.1937 -0.3877 -0.6745
10074TIP3    H130183   7.583   4.314   4.833 -0.8875 -0.2269  1.0498
10074TIP3    H230184   7.530   4.443   4.892 -0.7499  1.1583 -1.7488
10075TIP3   OH230185   5.082   5.852   6.223  0.0281  0.1375  0.0309
10075TIP3    H130186   5.171   5.880   6.201 -0.0974  0.1923 -0.4240
10075TIP3    H230187   5.044   5.926   6.271 -0.4076  0.9036 -1.4422
10076TIP3   OH230188   6.747   5.813   5.276 -0.2586 -0.0017  0.1230
10076TIP3    H130189   6.757   5.718   5.271 -2.6330 -0.3593  1.5437
10076TIP3    H230190   6.837   5.847   5.272  0.6665 -2.3284  0.4558
10077TIP3   OH230191   2.860   0.324   0.225  0.2168 -0.2492  0.2121
10077TIP3    H130192   2.904   0.309   0.141 -0.6485 -0.5943 -0.1811
10077TIP3    H230193   2.790   0.387   0.205 -0.5875 -1.0430  0.4863
10078TIP3   OH230194   7.054   4.640   6.348  0.4581 -0.8294 -0.2714
10078TIP3    H130195   6.981   4.602   6.395 -0.6199  0.2829 -1.0020
10078TIP3    H230196   7.036   4.734   6.347  1.9290 -0.5297 -0.3941
10079TIP3   OH230197   5.628   3.906   5.137 -0.4249 -0.3996 -0.1732
10079TIP3    H130198   5.655   3.823   5.098 -1.0754 -0.1080 -1.2255
10079TIP3    H230199   5.569   3.881   5.208  1.6487 -0.9867  1.3940
10080TIP3   OH230200   2.604   5.807   0.460 -0.0969  0.6133 -0.1790
10080TIP3    H130201   2.629   5.716   0.477  0.3590  0.6043 -0.8641
10080TIP3    H230202   2.577   5.808   0.368  0.0511  1.1976 -0.2206
10081TIP3   OH230203   7.139   5.154   4.399 -0.1871 -0.0719 -0.2310
10081TIP3    H130204   7.145   5.246   4.375  0.8444 -0.2363 -0.6585
10081TIP3    H230205   7.140   5.153   4.495 -1.0260  0.4077 -0.2222
10082TIP3   OH230206   2.908   0.820   1.228 -0.1421  0.3394 -0.4393
10082TIP3    H130207   2.861   0.736   1.235  0.7715 -0.0843  0.8618
10082TIP3    H230208   2.933   0.826   1.136  1.2043 -1.6232 -0.2428
10083TIP3   OH230209   0.048   6.084   5.719 -0.4602 -0.3883  0.6623
10083TIP3    H130210   0.091   5.999   5.728  2.2894  0.9265  0.2446
10083TIP3    H230211  -0.002   6.076   5.637  2.6484 -0.4580 -1.3242
10084TIP3   OH230212   6.514   6.347   5.907  0.0081  0.0689  0.3084
10084TIP3    H130213   6.447   6.407   5.939 -0.3133 -0.1572  0.0579
10084TIP3    H230214   6.538   6.382   5.821 -2.1805 -1.7355 -1.0733
10085TIP3   OH230215   5.666   1.247   0.470  0.0316 -0.4529  0.1020
10085TIP3    H130216   5.617   1.220   0.547 -1.1634  1.7182  0.1390
10085TIP3    H230217   5.614   1.215   0.396 -0.8820  0.8746  0.1573
10086TIP3   OH230218   6.503   3.009   5.886  0.3409  0.0282  0.0926
10086TIP3    H130219   6.486   2.915   5.882  0.4206 -0.0474  1.3323
10086TIP3    H230220   6.511   3.036   5.794  0.6208 -1.2259 -0.2632
10087TIP3   OH230221   4.668   6.410   4.067 -0.6383  0.8311 -0.3932
10087TIP3    H130222   4.714   6.382   4.147  2.8172  1.3092 -2.0900
10087TIP3    H230223   4.659   6.505   4.076 -1.1212  0.7543 -0.1122
10088TIP3   OH230224   5.353   6.732   4.122  0.0806 -0.0043 -0.2659
10088TIP3    H130225   5.329   6.808   4.174 -1.3128 -0.1694 -0.6449
10088TIP3    H230226   5.445   6.716   4.143 -0.1455  0.6345  1.2385
10089TIP3   OH230227   5.825   6.940   4.837 -0.1539  0.1562  0.0842
10089TIP3    H130228   5.824   6.844   4.843  2.5774  0.0953  0.3098
10089TIP3    H230229   5.757   6.960   4.773 -1.5638 -1.8517  0.8890
10090TIP3   OH230230   0.489   1.003   1.296  0.0168  0.0701  0.2379
10090TIP3    H130231   0.493   0.909   1.279 -2.9640 -0.3383  1.5491
10090TIP3    H230232   0.482   1.042   1.209 -2.2198 -1.1649 -0.1818
10091TIP3   OH230233   3.795   5.372   5.295 -0.3004  0.2515 -0.2186
10091TIP3    H130234   3.853   5.404   5.364 -0.0371  0.3703 -0.4942
10091TIP3    H230235   3.728   5.441   5.287 -0.1002  0.4279 -0.3652
10092TIP3   OH230236   7.633   6.097   5.904 -0.0934  0.2755 -0.4284
10092TIP3    H130237   7.715   6.092   5.856 -0.0387  0.6794 -0.3799
10092TIP3    H230238   7.650   6.161   5.974 -0.7216  1.0454 -0.9597
10093TIP3   OH230239   6.240   4.269   3.445  0.0486  0.2670  0.4658
10093TIP3    H130240   6.258   4.191   3.392 -2.3654 -0.3873  0.5199
10093TIP3    H230241   6.218   4.336   3.380  1.1226  0.6176  0.4639
10094TIP3   OH230242   6.617   2.426   5.479  0.1841 -0.2060  0.2122
10094TIP3    H130243   6.563   2.466   5.547 -3.5928 -0.9107 -2.2062
10094TIP3    H230244   6.619   2.333   5.500  1.2067 -0.0798  0.7327
10095TIP3   OH230245   3.700   2.771   0.973  0.4681  0.4195 -0.6373
10095TIP3    H130246   3.622   2.717   0.961  0.7341  0.1082 -0.9711
10095TIP3    H230247   3.755   2.721   1.033 -0.1333  1.2152  0.6027
10096TIP3   OH230248   7.745   6.502   5.432 -0.2092  0.4824 -0.1967
10096TIP3    H130249   7.759   6.439   5.362 -0.9169 -0.3564  0.4105
10096TIP3    H230250   7.782   6.461   5.510  3.2599  2.6402 -0.6034
10097TIP3   OH230251   6.843   5.251   4.544 -0.2361  0.2871  0.1339
10097TIP3    H130252   6.851   5.156   4.550 -0.2818  0.3201  0.7749
10097TIP3    H230253   6.807   5.267   4.457  1.1785 -0.1952 -0.5485
10098TIP3   OH230254   0.023   3.449   6.227 -0.2775 -0.0774  0.2578
10098TIP3    H130255   0.012   3.353   6.227  0.3612 -0.1545  0.4657
10098TIP3    H230256  -0.012   3.477   6.312 -1.6077  0.0145 -0.3141
10099TIP3   OH230257   5.970   5.946   3.731  0.2476 -0.1289  0.1098
10099TIP3    H130258   5.961   5.919   3.639 -0.3203 -1.4396  0.5354
10099TIP3    H230259   5.926   5.877   3.780 -0.1732  0.9882  1.3290
10100TIP3   OH230260   4.528   6.560   4.869  0.0650 -0.3460  0.2067
10100TIP3    H130261   4.543   6.627   4.803  0.5219 -0.0633  0.6015
10100TIP3    H230262   4.484   6.489   4.821  0.6962 -0.2786 -0.4714
10101TIP3   OH230263   4.739   6.533   5.675 -0.0265  0.3300  0.0180
10101TIP3    H130264   4.731   6.528   5.580 -1.7373  1.4250  0.0773
10101TIP3    H230265   4.649   6.522   5.707  0.7194 -1.4413  1.5831
10102TIP3   OH230266   4.751   6.367   1.750  0.5467 -0.1392  0.0146
10102TIP3    H130267   4.794   6.339   1.831  0.2396 -0.1084  0.1894
10102TIP3    H230268   4.821   6.367   1.684  0.3407 -2.3228 -0.2365
10103TIP3   OH230269   0.526   3.448   4.997 -0.3023  0.1065  0.0390
10103TIP3    H130270   0.571   3.461   5.081  1.3262  1.4994 -1.0287
10103TIP3    H230271   0.483   3.363   5.007  1.6902 -0.7897  1.4887
10104TIP3   OH230272   4.577   3.088   0.115 -0.2286  0.2541 -0.4580
10104TIP3    H130273   4.657   3.047   0.082  0.1521 -0.0469  0.7855
10104TIP3    H230274   4.576   3.175   0.076  0.2059 -0.0964 -1.2430
10105TIP3   OH230275   4.443   6.273   6.166  0.0702  0.3660 -0.0575
10105TIP3    H130276   4.500   6.244   6.237 -0.4980 -0.7473 -0.0581
10105TIP3    H230277   4.423   6.194   6.116 -0.7120  0.9031 -0.6105
10106TIP3   OH230278   5.476   6.674   6.146  0.3578 -0.3804  0.0137
10106TIP3    H130279   5.383   6.696   6.151  0.1999 -0.9238 -0.5424
10106TIP3    H230280   5.508   6.720   6.069  0.7465  0.4965  0.6850
10107TIP3   OH230281   7.347   2.255   5.028 -0.2291  0.2812  0.0574
10107TIP3    H130282   7.366   2.348   5.043  1.0056  0.4160 -2.1414
10107TIP3    H230283   7.389   2.209   5.100  1.0005  1.2688 -0.0306
10108TIP3   OH230284   3.044   0.440   0.408 -0.1343  0.0564  0.7129
10108TIP3    H130285   3.000   0.391   0.339  0.3830 -0.7899  0.9752
10108TIP3    H230286   2.987   0.514   0.425 -0.1639  0.3959 -0.7764
10109TIP3   OH230287   6.889   4.322   4.718 -0.0646  0.1661  0.7191
10109TIP3    H130288   6.847   4.407   4.701 -1.8569 -0.6070  1.1786
10109TIP3    H230289   6.895   4.317   4.814 -1.8960 -1.1202  0.7877
10110TIP3   OH230290   6.197   4.489   4.663 -0.3388 -0.4794  0.0782
10110TIP3    H130291   6.285   4.453   4.673 -0.1014  0.5358  1.9010
10110TIP3    H230292   6.168   4.505   4.752 -1.4720  1.3439 -0.5897
10111TIP3   OH230293   7.153   4.879   6.123 -0.0566 -0.0453  0.0486
10111TIP3    H130294   7.184   4.936   6.053 -1.0274 -0.0449 -0.3902
10111TIP3    H230295   7.058   4.876   6.110 -0.0103 -1.7502  0.0694
10112TIP3   OH230296   5.223   3.187   6.184  0.6455 -0.0443  0.4969
10112TIP3    H130297   5.315   3.163   6.191  0.2341 -1.7458  0.3869
10112TIP3    H230298   5.196   3.202   6.275  0.5835 -1.3685  0.7112
10113TIP3   OH230299   0.633   4.582   6.284  0.1408 -0.5802  0.1474
10113TIP3    H130300   0.725   4.604   6.298 -0.0759  0.2165  0.3485
10113TIP3    H230301   0.588   4.618   6.360 -0.3344 -1.0156  0.0735
10114TIP3   OH230302   4.537   1.726   1.016  0.3924  0.3510 -0.0926
10114TIP3    H130303   4.501   1.767   0.938  0.0780 -1.4195 -0.9056
10114TIP3    H230304   4.471   1.741   1.083 -0.8696 -0.9790 -1.0202
10115TIP3   OH230305   6.423   5.358   5.952 -0.5807 -0.0745  0.3743
10115TIP3    H130306   6.345   5.308   5.976 -0.8645 -1.2379 -2.7691
10115TIP3    H230307   6.389   5.435   5.906  0.0853  0.3704  0.6097
10116TIP3   OH230308   3.824   3.914   4.969 -0.5102 -0.3709  0.0251
10116TIP3    H130309   3.867   3.999   4.979 -1.0124 -0.3678  2.4352
10116TIP3    H230310   3.789   3.916   4.880 -1.7140  2.5172  0.4966
10117TIP3   OH230311   5.015   5.008   4.763  0.2167 -0.0754  0.0122
10117TIP3    H130312   4.932   5.024   4.808  0.6762 -0.2703  0.9503
10117TIP3    H230313   5.004   5.046   4.676 -1.4381 -1.5109 -0.4400
10118TIP3   OH230314   5.708   5.750   4.487 -0.9458  0.4511 -0.4111
10118TIP3    H130315   5.761   5.819   4.525  1.3471 -0.8382 -1.1727
10118TIP3    H230316   5.687   5.781   4.399 -0.2319  0.3377 -0.6212
10119TIP3   OH230317   7.131   4.278   5.235 -0.2887  0.5828  0.4729
10119TIP3    H130318   7.078   4.245   5.307 -0.5597 -2.4001 -0.9795
10119TIP3    H230319   7.214   4.231   5.242  0.3582  1.6185 -0.0829
10120TIP3   OH230320   1.671   4.276   5.575  0.1139 -0.1901  0.1801
10120TIP3    H130321   1.588   4.280   5.527  0.0620  2.1530  0.4076
10120TIP3    H230322   1.735   4.246   5.509 -0.5501 -0.0728 -0.5277
10121TIP3   OH230323   1.113   5.593   6.184  0.4159  0.2736 -0.2208
10121TIP3    H130324   1.157   5.512   6.210 -0.5852 -0.3487 -0.4742
10121TIP3    H230325   1.185   5.657   6.176  0.9496  0.0812  2.4583
10122TIP3   OH230326   4.763   3.029   0.604 -0.5227 -0.3899  0.4929
10122TIP3    H130327   4.823   3.028   0.529 -0.7486  1.6220  0.2548
10122TIP3    H230328   4.702   2.957   0.587 -0.3695 -0.1673 -1.0971
10123TIP3   OH230329   0.002   4.149   3.064 -0.6625 -0.5013  0.0353
10123TIP3    H130330   0.069   4.216   3.054  0.8920 -2.1589 -1.0711
10123TIP3    H230331  -0.039   4.143   2.978  1.2007 -2.9648 -0.7410
10124TIP3   OH230332   5.904   4.565   5.195 -0.2559  0.1986  0.9349
10124TIP3    H130333   5.919   4.502   5.266 -0.0125 -0.2906  0.4441
10124TIP3    H230334   5.811   4.586   5.201 -0.4252 -0.5233  0.8303
10125TIP3   OH230335   3.668   5.150   6.307 -0.3418 -0.1385  0.1232
10125TIP3    H130336   3.696   5.240   6.324  1.8452 -0.2341 -2.6141
10125TIP3    H230337   3.730   5.117   6.241 -1.6291 -3.3587  0.3998
10126TIP3   OH230338   6.528   3.127   3.531  0.0704  0.2743  0.0006
10126TIP3    H130339   6.439   3.126   3.495  0.4663  2.8895 -1.1670
10126TIP3    H230340   6.516   3.146   3.624 -0.5981  0.4248 -0.1154
10127TIP3   OH230341   7.323   4.381   5.837 -0.1495  0.5315 -0.3632
10127TIP3    H130342   7.239   4.357   5.798  0.2938  1.2938 -1.8070
10127TIP3    H230343   7.305   4.461   5.886 -1.0159 -1.1567  2.2142
10128TIP3   OH230344   7.261   2.424   5.925  0.6133 -0.2272 -0.5845
10128TIP3    H130345   7.177   2.430   5.971  0.4173 -2.2552 -0.6636
10128TIP3    H230346   7.306   2.506   5.947 -0.5397 -0.0283  1.0943
10129TIP3   OH230347   1.219   5.790   5.863  0.0633  0.4967  0.0506
10129TIP3    H130348   1.178   5.872   5.838  0.0973  0.1943 -1.0257
10129TIP3    H230349   1.146   5.732   5.886 -0.0429  0.3859 -0.5568
10130TIP3   OH230350   6.330   6.006   5.945 -0.5379  0.4428  0.5362
10130TIP3    H130351   6.391   5.952   5.895  0.5895  1.6584  0.5705
10130TIP3    H230352   6.246   5.998   5.899 -0.6116 -2.0268  1.0605
10131TIP3   OH230353   7.690   3.613   5.619 -0.0266 -0.6322  0.7911
10131TIP3    H130354   7.649   3.573   5.696 -1.7608 -0.4913 -0.0400
10131TIP3    H230355   7.625   3.675   5.587  2.2003  2.0875  1.4084
10132TIP3   OH230356   4.357   6.724   5.026 -0.3112  0.7699 -0.6053
10132TIP3    H130357   4.435   6.669   5.034  0.4417  1.3397 -3.5581
10132TIP3    H230358   4.385   6.810   5.060 -0.5208  0.2348  0.9636
10133TIP3   OH230359   7.463   4.503   5.056 -0.0112  0.4948  0.8833
10133TIP3    H130360   7.505   4.534   5.136  0.5692 -1.0855  1.2298
10133TIP3    H230361   7.370   4.503   5.076  0.1453 -0.0895  1.6558
10134TIP3   OH230362   0.336   6.107   4.849 -0.2686 -0.4235 -0.1203
10134TIP3    H130363   0.417   6.060   4.828 -0.5940 -1.3681  0.7420
10134TIP3    H230364   0.362   6.199   4.851  1.0870 -0.8186  1.4564
10135TIP3   OH230365   6.968   5.433   3.961 -0.4027 -0.2032 -0.1690
10135TIP3    H130366   6.899   5.366   3.964 -0.0554 -0.5653 -0.1738
10135TIP3    H230367   7.047   5.386   3.987 -0.2940  0.3898  0.5820
10136TIP3   OH230368   7.581   5.208   4.921  0.1716  0.0017 -0.4468
10136TIP3    H130369   7.524   5.169   4.855  0.8169  0.8157 -1.4927
10136TIP3    H230370   7.622   5.282   4.877  1.9252 -0.4854  0.3439
10137TIP3   OH230371   6.394   4.989   3.269 -0.1266  0.4691 -0.1099
10137TIP3    H130372   6.326   4.934   3.230  1.2860 -1.6880  0.3691
10137TIP3    H230373   6.362   5.009   3.357 -0.4775  0.0909 -0.1519
10138TIP3   OH230374   1.687   7.107   0.695  0.3552  0.4924  0.0904
10138TIP3    H130375   1.640   7.025   0.710 -0.0444  1.3206  3.9652
10138TIP3    H230376   1.779   7.083   0.698  0.2375 -0.2832 -1.9836
10139TIP3   OH230377   6.141   6.694   4.488 -0.3990 -0.0163 -0.5170
10139TIP3    H130378   6.191   6.769   4.519 -1.4281  1.0557 -1.3682
10139TIP3    H230379   6.053   6.708   4.524 -0.4394 -1.1411 -0.1750
10140TIP3   OH230380   0.226   6.764   4.140 -0.1075  0.1881 -0.0056
10140TIP3    H130381   0.152   6.738   4.195 -0.5864 -0.1253 -0.7827
10140TIP3    H230382   0.185   6.796   4.059  0.5347  2.0379  0.3795
10141TIP3   OH230383   5.743   5.181   5.941  0.5812 -0.4091  0.0031
10141TIP3    H130384   5.659   5.222   5.963 -0.3181 -1.0255 -2.1144
10141TIP3    H230385   5.772   5.227   5.863  2.2266 -0.2302  0.6992
10142TIP3   OH230386   2.875   6.574   4.682  0.5004 -0.2414  0.6499
10142TIP3    H130387   2.848   6.659   4.718 -0.8320 -0.0402 -0.7941
10142TIP3    H230388   2.793   6.530   4.660  1.2756 -0.2354 -2.4188
10143TIP3   OH230389   4.438   2.280   0.962 -0.4343  0.2649 -0.1197
10143TIP3    H130390   4.390   2.353   1.002  0.2264  0.7643 -0.2354
10143TIP3    H230391   4.486   2.320   0.890 -0.3016 -0.3427 -0.3681
10144TIP3   OH230392   5.829   6.049   5.803 -0.3475 -0.3461 -0.5695
10144TIP3    H130393   5.782   6.044   5.720 -0.7673  0.8064 -0.4149
10144TIP3    H230394   5.796   6.129   5.844  1.7148  0.4697 -0.4493
10145TIP3   OH230395   7.430   5.907   5.901  0.0817  0.3607 -0.3516
10145TIP3    H130396   7.462   5.834   5.848  1.6581 -0.1245  1.2383
10145TIP3    H230397   7.499   5.974   5.893  0.9701 -0.2282  2.1329
10146TIP3   OH230398   5.864   6.482   5.101 -0.1639  0.1469 -0.8372
10146TIP3    H130399   5.856   6.545   5.029 -0.2436  1.8013  0.5563
10146TIP3    H230400   5.864   6.537   5.180  0.3020 -1.5899  0.4010
10147TIP3   OH230401   6.655   4.586   6.064 -0.3364  0.1268 -0.4546
10147TIP3    H130402   6.702   4.669   6.075  1.0711 -0.3203 -2.8933
10147TIP3    H230403   6.708   4.522   6.112 -2.1578  0.8293  2.6148
10148TIP3   OH230404   1.268   6.944   5.513  0.1240 -0.2739 -0.4066
10148TIP3    H130405   1.330   6.878   5.545  0.5185  0.2739 -0.0399
10148TIP3    H230406   1.182   6.907   5.531  0.3436 -0.1309  0.9244
10149TIP3   OH230407   6.527   4.580   3.743  0.6348 -0.6300  0.4193
10149TIP3    H130408   6.496   4.501   3.699 -0.3239 -0.4215  0.7060
10149TIP3    H230409   6.460   4.597   3.810 -0.4790  1.8394 -1.2629
10150TIP3   OH230410   4.588   1.764   0.629 -0.0004 -1.2162  0.1401
10150TIP3    H130411   4.502   1.778   0.669  0.0445 -0.8781  0.1152
10150TIP3    H230412   4.573   1.696   0.563 -0.4320 -0.4748 -0.5184
10151TIP3   OH230413   2.929   7.214   1.694  0.6248 -0.0255  0.1434
10151TIP3    H130414   2.851   7.198   1.747  1.2111 -0.3330  0.9128
10151TIP3    H230415   2.913   7.299   1.653  0.2019  0.2448  0.8638
10152TIP3   OH230416   6.759   4.277   3.920 -0.6601  0.0175 -0.2333
10152TIP3    H130417   6.694   4.332   3.963 -0.7870  0.6875 -1.2547
10152TIP3    H230418   6.793   4.332   3.850  1.6956  0.0198  0.8791
10153TIP3   OH230419   7.637   7.220   0.490  0.1575 -0.1584 -0.0817
10153TIP3    H130420   7.626   7.206   0.584 -2.2214  1.0314 -0.1229
10153TIP3    H230421   7.679   7.306   0.483  1.1949 -0.6651 -0.0908
10154TIP3   OH230422   6.584   4.041   4.253  0.2173 -0.2247  0.3084
10154TIP3    H130423   6.657   4.083   4.207 -0.6278 -0.1441 -0.9738
10154TIP3    H230424   6.570   3.960   4.206 -0.3964 -0.3394  0.6893
10155TIP3   OH230425   3.557   1.896   0.539 -0.4530  0.0347 -0.7808
10155TIP3    H130426   3.579   1.908   0.632 -0.6988 -1.7996 -0.4792
10155TIP3    H230427   3.574   1.982   0.500  1.8198  0.1961  0.5106
10156TIP3   OH230428   6.348   3.298   4.103  0.0628 -0.0235  0.1504
10156TIP3    H130429   6.437   3.315   4.136 -0.1351  0.7509  0.2934
10156TIP3    H230430   6.291   3.339   4.167 -0.3463  0.9485 -0.8386
10157TIP3   OH230431   6.108   5.721   6.073 -0.4728  0.6442 -0.0896
10157TIP3    H130432   6.050   5.793   6.048 -0.5201  1.2802  1.7466
10157TIP3    H230433   6.189   5.764   6.100  0.5688 -0.1911 -1.8349
10158TIP3   OH230434   5.836   4.328   4.207  0.1016  1.0455 -0.2264
10158TIP3    H130435   5.783   4.316   4.286  0.6212  0.9833  0.1131
10158TIP3    H230436   5.926   4.321   4.237  0.3075 -3.3659 -1.5153
10159TIP3   OH230437   2.240   7.009   0.431  0.4045 -0.2392 -0.4365
10159TIP3    H130438   2.156   6.964   0.438  0.4754 -0.0027  2.3124
10159TIP3    H230439   2.217   7.101   0.417  0.2470 -0.5702 -2.4872
10160TIP3   OH230440   6.077   5.144   5.644 -0.2968 -0.3916 -0.0718
10160TIP3    H130441   6.134   5.196   5.700 -0.1706 -0.2099 -0.3663
10160TIP3    H230442   6.113   5.055   5.648  1.1098  0.0819 -1.6910
10161TIP3   OH230443   4.588   0.011   0.528  0.0391 -0.4096 -0.0406
10161TIP3    H130444   4.606   0.089   0.581  0.8019 -0.6197  0.0115
10161TIP3    H230445   4.612  -0.062   0.586  0.6079 -0.6476 -0.5708
10162TIP3   OH230446   2.111   7.083   1.557  0.0321 -0.0400 -0.4508
10162TIP3    H130447   2.133   7.163   1.605  2.6044  0.0258 -1.6188
10162TIP3    H230448   2.066   7.113   1.478  1.7450  0.3683 -1.3050
10163TIP3   OH230449   4.897   4.823   4.230  0.0123 -0.5277 -0.0345
10163TIP3    H130450   4.954   4.787   4.162  1.4755 -0.5263  1.1602
10163TIP3    H230451   4.810   4.794   4.205  1.0014 -4.0535  0.2851
10164TIP3   OH230452   3.055   0.601   0.810  0.0135 -0.0086  0.1922
10164TIP3    H130453   3.107   0.532   0.769  0.1350  0.3525 -0.2621
10164TIP3    H230454   2.967   0.590   0.774  0.4045  1.1087 -1.1711
10165TIP3   OH230455   7.278   4.522   6.207  0.1126  0.1733  0.0038
10165TIP3    H130456   7.281   4.583   6.133  1.2375 -0.4626 -0.4857
10165TIP3    H230457   7.189   4.531   6.242 -0.2939  0.7801 -1.1654
10166TIP3   OH230458   5.065   4.644   6.136 -0.0752  0.3216 -0.2792
10166TIP3    H130459   5.149   4.660   6.095  0.3420  0.7354  0.7259
10166TIP3    H230460   5.082   4.574   6.199 -0.0192  1.7739  1.3582
10167TIP3   OH230461   1.506   4.551   6.183 -0.1114  0.2930  0.3367
10167TIP3    H130462   1.496   4.594   6.098  0.0062  0.8564  0.6052
10167TIP3    H230463   1.424   4.567   6.229  0.8856  2.5232  1.4569
10168TIP3   OH230464   7.787   0.345   3.810  0.4403  0.1694  0.6540
10168TIP3    H130465   7.757   0.373   3.897 -0.7270 -0.9584  0.6325
10168TIP3    H230466   7.740   0.403   3.749 -0.0231 -0.1424  0.7116
10169TIP3   OH230467   0.178   5.018   1.996  0.4068  0.3611  0.1982
10169TIP3    H130468   0.218   4.955   1.936 -0.8057 -0.0176 -0.2102
10169TIP3    H230469   0.227   5.099   1.981  0.0761  0.2808 -1.3252
10170TIP3   OH230470   4.829   1.723   0.014  0.1115 -0.1421 -0.4144
10170TIP3    H130471   4.816   1.814   0.042 -0.1974 -0.5241  0.7262
10170TIP3    H230472   4.743   1.696  -0.019 -0.2785 -0.5818  0.9367
10171TIP3   OH230473   1.478   5.025   5.639 -0.3069 -0.0477  0.0763
10171TIP3    H130474   1.562   5.047   5.600  0.5498 -0.4618  1.6692
10171TIP3    H230475   1.472   4.930   5.633 -0.7845 -0.0021 -0.2520
10172TIP3   OH230476   7.356   6.868   6.129  0.2666  0.3120  0.6650
10172TIP3    H130477   7.399   6.787   6.102  0.0803  0.2606  0.5203
10172TIP3    H230478   7.263   6.848   6.124  0.2247  0.4288  0.9607
10173TIP3   OH230479   3.541   0.055   0.492  0.4277  0.2278  0.1931
10173TIP3    H130480   3.627   0.014   0.481 -0.3109 -1.2779 -0.1679
10173TIP3    H230481   3.541   0.130   0.433  1.3307 -0.0321 -0.1346
10174TIP3   OH230482   0.355   4.902   4.687  0.3078 -0.1953  0.4972
10174TIP3    H130483   0.451   4.903   4.684  0.3072  2.0891 -0.1925
10174TIP3    H230484   0.334   4.880   4.778  1.5253  0.7452  1.0244
10175TIP3   OH230485   0.368   4.054   4.245 -0.2725 -0.1475  0.5295
10175TIP3    H130486   0.381   3.979   4.302 -0.7477 -2.6386 -2.4648
10175TIP3    H230487   0.273   4.068   4.246 -0.6486 -2.1038 -1.8151
10176TIP3   OH230488   7.589   4.114   5.520 -0.3909 -0.1372 -0.2018
10176TIP3    H130489   7.677   4.085   5.544 -0.6293 -1.3268 -0.7091
10176TIP3    H230490   7.573   4.074   5.435 -0.8602  1.2853 -0.7889
10177TIP3   OH230491   6.653   3.661   5.942  0.3139  0.3469 -0.3847
10177TIP3    H130492   6.561   3.651   5.968  0.4384  0.9037  0.3199
10177TIP3    H230493   6.673   3.752   5.963  0.6514  0.6018 -1.7744
10178TIP3   OH230494   7.194   3.974   5.230 -0.3791  0.0741  0.1391
10178TIP3    H130495   7.193   3.915   5.155 -0.9371 -1.4754  1.3274
10178TIP3    H230496   7.263   4.037   5.210 -0.6685 -0.1721 -1.7625
10179TIP3   OH230497   5.736   2.752   5.056  0.0356 -0.5130 -0.4996
10179TIP3    H130498   5.788   2.830   5.076  1.1935 -1.1614 -0.9934
10179TIP3    H230499   5.706   2.765   4.966 -0.9212 -0.0033 -0.1187
10180TIP3   OH230500   7.807   2.721   3.973  0.2639 -0.1486  0.0067
10180TIP3    H130501   7.741   2.779   3.934 -0.4793  0.4097  2.0619
10180TIP3    H230502   7.757   2.647   4.007  0.3692  1.2712  3.4790
10181TIP3   OH230503   0.009   5.510   3.587  0.5750 -0.0971  0.6239
10181TIP3    H130504  -0.048   5.546   3.519  0.1815 -0.6206  0.6734
10181TIP3    H230505   0.060   5.585   3.617 -0.6547  0.5508  1.1459
10182TIP3   OH230506   5.299   1.112   0.102  0.2730  0.7893  0.2325
10182TIP3    H130507   5.337   1.159   0.027 -2.1349  1.8721 -0.3361
10182TIP3    H230508   5.205   1.121   0.090 -0.1519 -0.8821  2.2548
10183TIP3   OH230509   0.713   6.610   4.947 -0.2485 -0.3261  0.1033
10183TIP3    H130510   0.735   6.526   4.987 -0.8925  0.0941  1.3546
10183TIP3    H230511   0.750   6.605   4.859 -2.5896 -3.0258 -0.8150
10184TIP3   OH230512   0.090   6.734   4.424 -0.4581  0.3122  0.4616
10184TIP3    H130513   0.021   6.740   4.491  0.6662  2.4330  1.4606
10184TIP3    H230514   0.144   6.811   4.439  2.3677 -1.5197 -0.0916
10185TIP3   OH230515   5.875   4.175   5.756 -0.2941 -0.7731  0.0092
10185TIP3    H130516   5.800   4.229   5.731  0.2634 -0.3591 -0.7892
10185TIP3    H230517   5.855   4.088   5.720  0.1564 -0.3645 -1.2650
10186TIP3   OH230518   1.483   5.517   3.494  0.3323 -0.0410 -0.0080
10186TIP3    H130519   1.428   5.448   3.457 -1.2679  0.2177  1.7759
10186TIP3    H230520   1.520   5.479   3.573 -0.1138  0.9515  0.6875
10187TIP3   OH230521   0.224   6.979   5.325 -0.2585 -0.0690 -0.2966
10187TIP3    H130522   0.273   6.996   5.244 -3.1130 -0.5563 -2.2144
10187TIP3    H230523   0.137   6.951   5.295 -1.3044 -0.5394  2.9554
10188TIP3   OH230524   0.114   5.074   4.690  0.1176  0.0974  0.0703
10188TIP3    H130525   0.187   5.012   4.685 -0.7848 -0.9213 -0.6813
10188TIP3    H230526   0.107   5.096   4.782  0.5925 -0.7527  0.3147
10189TIP3   OH230527   7.125   4.870   5.228  0.1854  0.4434  0.1395
10189TIP3    H130528   7.137   4.830   5.314 -1.1598 -1.1789 -0.3819
10189TIP3    H230529   7.207   4.854   5.182 -0.5754 -2.4942 -0.3147
10190TIP3   OH230530   5.967   6.156   6.156  0.1450 -0.4323 -0.0721
10190TIP3    H130531   5.987   6.243   6.121 -0.5118 -1.4548 -3.1948
10190TIP3    H230532   5.884   6.168   6.202 -0.3014  0.4534 -1.0781
10191TIP3   OH230533   1.327   4.904   5.388 -0.0152 -0.1775 -0.0856
10191TIP3    H130534   1.300   4.948   5.308 -0.2767  1.4575  0.8652
10191TIP3    H230535   1.276   4.948   5.457 -0.8389 -2.4901  0.8179
10192TIP3   OH230536   4.784   1.324   0.307 -0.4960  0.3518  0.0300
10192TIP3    H130537   4.870   1.366   0.309 -0.8278  0.9851  1.8057
10192TIP3    H230538   4.722   1.395   0.323 -1.4588  0.0911 -2.3352
10193TIP3   OH230539   0.285   4.630   4.092 -0.3771 -0.4573 -0.2879
10193TIP3    H130540   0.271   4.719   4.125 -1.0207 -0.5805 -0.2123
10193TIP3    H230541   0.335   4.587   4.161 -2.5591 -0.9988  0.9992
10194TIP3   OH230542   5.703   4.545   4.128 -0.0599  0.1023  0.3900
10194TIP3    H130543   5.762   4.470   4.135  0.6942  0.2406 -3.2886
10194TIP3    H230544   5.734   4.593   4.051 -1.7665  3.0942  1.4706
10195TIP3   OH230545   6.972   2.848   5.444 -0.3138  0.3588 -0.4871
10195TIP3    H130546   6.945   2.816   5.531 -2.7856  0.4017 -1.2000
10195TIP3    H230547   6.996   2.768   5.396  0.0665  0.2392 -0.1082
10196TIP3   OH230548   0.610   6.324   3.196  0.2628  0.4512 -0.1037
10196TIP3    H130549   0.579   6.415   3.190  1.1363  0.5528 -3.5097
10196TIP3    H230550   0.692   6.331   3.245 -0.9169  1.1483  1.8643
10197TIP3   OH230551   2.721   1.042   4.593 -0.6446  0.4913 -0.0984
10197TIP3    H130552   2.733   0.985   4.517  0.5100 -1.3805  1.4655
10197TIP3    H230553   2.798   1.099   4.592  0.7293 -1.2980  1.1517
10198TIP3   OH230554   7.178   4.829   1.314  0.1488 -0.0578  0.2881
10198TIP3    H130555   7.267   4.858   1.294  0.6276 -0.3515  1.9111
10198TIP3    H230556   7.129   4.848   1.234  1.5742  0.4622 -0.5008
10199TIP3   OH230557   0.317   4.698   4.498  0.1528  0.6430  0.0108
10199TIP3    H130558   0.317   4.735   4.586  1.2322 -0.8758  0.6782
10199TIP3    H230559   0.225   4.695   4.473 -0.0608  2.3110  0.5500
10200TIP3   OH230560   0.270   4.696   5.696 -0.4548 -0.2193  0.3177
10200TIP3    H130561   0.309   4.770   5.744  1.2566 -1.2258  0.5262
10200TIP3    H230562   0.262   4.627   5.762  1.6056 -1.5075 -0.7034
10201TIP3   OH230563   5.249   5.231   5.391 -0.1471  0.5330  0.3476
10201TIP3    H130564   5.215   5.255   5.477 -2.3844 -0.6491 -0.1586
10201TIP3    H230565   5.181   5.175   5.354  1.3075  0.1012 -1.7319
10202TIP3   OH230566   2.816   0.698   3.990 -0.1995  0.5449  0.3053
10202TIP3    H130567   2.797   0.623   3.934 -0.1128  0.9167 -0.2183
10202TIP3    H230568   2.743   0.701   4.052  0.0604 -0.2881  0.6695
10203TIP3   OH230569   0.145   6.223   3.418 -0.2635 -0.0042  0.3503
10203TIP3    H130570   0.210   6.221   3.488  2.0169 -0.0010 -1.6868
10203TIP3    H230571   0.064   6.250   3.461  1.6451  2.4896  2.5759
10204TIP3   OH230572   2.654   5.060   3.451 -0.3729 -0.5706 -0.1963
10204TIP3    H130573   2.746   5.072   3.473  0.0464 -0.5323 -1.8969
10204TIP3    H230574   2.653   4.985   3.392 -1.1701  0.7308 -1.8894
10205TIP3   OH230575   7.211   4.429   4.722 -0.0968  0.2672 -0.2166
10205TIP3    H130576   7.293   4.422   4.770 -0.6151  1.8304  0.9416
10205TIP3    H230577   7.150   4.372   4.769  0.4059 -1.2487 -1.3395
10206TIP3   OH230578   2.740   0.470   3.875  0.2749 -0.4700  0.2834
10206TIP3    H130579   2.805   0.410   3.838 -0.2293 -1.1421  0.4616
10206TIP3    H230580   2.657   0.424   3.864 -0.2069  0.5228 -0.2298
10207TIP3   OH230581   1.009   5.364   1.812 -0.0984  0.1254 -0.4595
10207TIP3    H130582   1.013   5.274   1.781 -1.4644 -0.6222  1.4352
10207TIP3    H230583   0.934   5.402   1.766 -0.3328 -0.1035 -0.2672
10208TIP3   OH230584   0.359   4.803   6.307 -0.0448  0.3037 -0.0553
10208TIP3    H130585   0.386   4.767   6.222  0.7220 -0.7760  0.6188
10208TIP3    H230586   0.365   4.728   6.367  0.9045  1.4087  1.2592
10209TIP3   OH230587   5.977   4.043   3.741 -0.3245 -0.3340  0.3589
10209TIP3    H130588   6.038   3.983   3.698  0.9336 -0.0902  1.7697
10209TIP3    H230589   5.895   3.993   3.749  0.7339 -1.9063  1.5887
10210TIP3   OH230590   6.692   4.775   3.103 -0.3398  0.0297  0.3046
10210TIP3    H130591   6.634   4.704   3.074  0.3288 -1.4188  2.4365
10210TIP3    H230592   6.777   4.734   3.114  0.3435  1.4354  0.4459
10211TIP3   OH230593   0.514   4.747   5.105  0.2441 -0.1259  0.3101
10211TIP3    H130594   0.431   4.781   5.140 -0.4390 -1.4891  0.0269
10211TIP3    H230595   0.523   4.661   5.144  2.1844  0.5138  1.3224
10212TIP3   OH230596   7.433   5.572   4.330 -0.4236  0.3782 -0.2735
10212TIP3    H130597   7.390   5.585   4.246  0.6329  1.2703 -0.6776
10212TIP3    H230598   7.478   5.488   4.321 -2.4877 -0.8445  0.3430
10213TIP3   OH230599   4.128   0.607   6.012  0.0019  0.3494 -0.2084
10213TIP3    H130600   4.172   0.526   5.985 -0.9449  0.2550 -1.5057
10213TIP3    H230601   4.160   0.672   5.950 -1.5763  0.3112 -1.0679
10214TIP3   OH230602   7.350   4.714   5.320  0.0036 -0.1539 -0.4210
10214TIP3    H130603   7.306   4.728   5.404 -0.4936  0.4940 -0.7979
10214TIP3    H230604   7.443   4.707   5.344 -0.2699 -1.4226  0.3537
10215TIP3   OH230605   0.971   6.704   6.001 -0.3386 -0.1225  0.0341
10215TIP3    H130606   1.018   6.667   5.926  2.7685  0.9842  1.3226
10215TIP3    H230607   0.991   6.798   5.997 -0.7347  0.0501  1.8061
10216TIP3   OH230608   6.916   5.011   5.958 -0.4740  0.1930  0.0180
10216TIP3    H130609   6.985   5.078   5.959 -0.8104  0.5353  2.7642
10216TIP3    H230610   6.837   5.059   5.934 -0.0782  0.0949 -1.5397
10217TIP3   OH230611   7.798   4.283   5.744  0.0934 -0.1997  0.0543
10217TIP3    H130612   7.707   4.260   5.724  0.6562 -0.1170 -2.8107
10217TIP3    H230613   7.799   4.296   5.839 -1.8891 -4.4193  0.7374
10218TIP3   OH230614   7.055   6.613   4.430  0.1625  0.2214 -0.3462
10218TIP3    H130615   7.040   6.535   4.377  1.0176  0.0574 -0.3448
10218TIP3    H230616   7.010   6.683   4.382 -1.9992 -0.5461  0.4799
10219TIP3   OH230617   1.196   0.463   5.828 -0.1833  0.0446 -0.0664
10219TIP3    H130618   1.290   0.445   5.816 -0.0280 -0.7460  2.1514
10219TIP3    H230619   1.153   0.407   5.763  0.8808  0.7567 -1.4220
10220TIP3   OH230620   4.457   0.337   4.225  0.0885  0.4063  0.4390
10220TIP3    H130621   4.515   0.394   4.275 -2.7929  3.1489  0.8216
10220TIP3    H230622   4.390   0.309   4.288  0.1254 -1.4945 -0.3351
10221TIP3   OH230623   1.269   3.395   5.448 -0.8018 -0.4676  0.5694
10221TIP3    H130624   1.273   3.474   5.500 -0.9039 -1.7622  2.5806
10221TIP3    H230625   1.182   3.396   5.408 -0.2735  1.1276 -0.5876
10222TIP3   OH230626   3.902   1.625   5.729  0.6339 -0.3234 -0.0796
10222TIP3    H130627   3.946   1.688   5.785 -0.4320 -0.8374  1.3769
10222TIP3    H230628   3.908   1.542   5.777  0.9657 -1.0758 -1.4002
10223TIP3   OH230629   0.259   2.650   3.599  0.5869  0.1582  0.1896
10223TIP3    H130630   0.244   2.556   3.605  1.2458 -0.0952 -1.8570
10223TIP3    H230631   0.216   2.677   3.518  1.2753  1.4213  0.2258
10224TIP3   OH230632   1.987   4.540   6.224 -0.3938  0.0966  0.3071
10224TIP3    H130633   2.030   4.573   6.144  0.3544 -0.2064  0.5752
10224TIP3    H230634   1.902   4.509   6.194  0.5760 -1.6722 -0.7076
10225TIP3   OH230635   5.754   3.540   1.796  0.4825  0.2473 -0.2284
10225TIP3    H130636   5.770   3.507   1.884 -0.6376 -1.6017 -0.6813
10225TIP3    H230637   5.830   3.595   1.776  2.3246 -1.9110  0.6579
10226TIP3   OH230638   6.424   2.513   0.244  0.4875 -0.7199 -0.1526
10226TIP3    H130639   6.457   2.603   0.253 -0.1111 -0.4407 -0.7081
10226TIP3    H230640   6.329   2.523   0.243  0.4047 -1.4226  0.3681
10227TIP3   OH230641   0.772   3.342   5.944 -0.2744 -0.0969  0.1402
10227TIP3    H130642   0.771   3.425   5.897  1.5734 -0.0396  0.1648
10227TIP3    H230643   0.680   3.321   5.958 -0.7685  2.4163  0.9638
10228TIP3   OH230644   6.791   2.619   0.871  0.4046  0.0071 -0.1723
10228TIP3    H130645   6.862   2.606   0.934  2.0607 -0.3685 -2.0517
10228TIP3    H230646   6.730   2.547   0.887  0.7734 -0.0429  1.0294
10229TIP3   OH230647   6.114   2.289   0.311 -0.1136  0.0164  0.4352
10229TIP3    H130648   6.139   2.252   0.226 -0.0531 -1.4219  1.0505
10229TIP3    H230649   6.163   2.236   0.375 -0.9759  0.3715  1.4069
10230TIP3   OH230650   4.532   1.635   0.144  0.1818  0.4354  0.1651
10230TIP3    H130651   4.478   1.564   0.176 -0.2361  1.0743  0.8911
10230TIP3    H230652   4.598   1.648   0.213  0.7227  0.2480 -0.3112
10231TIP3   OH230653   4.361   5.520   4.764  0.3665 -0.0848 -0.1654
10231TIP3    H130654   4.432   5.484   4.817  1.5509 -0.6366 -2.0905
10231TIP3    H230655   4.282   5.507   4.818  1.5274 -0.6691  1.4273
10232TIP3   OH230656   5.203   1.077   4.641  0.1008 -0.3374 -0.1645
10232TIP3    H130657   5.169   1.136   4.708 -0.8141 -0.4013 -0.5664
10232TIP3    H230658   5.166   0.992   4.664 -0.3013 -0.3377 -0.8049
10233TIP3   OH230659   2.936   0.751   4.920  0.4018 -0.1600 -0.7009
10233TIP3    H130660   2.941   0.834   4.967 -1.1267 -1.5755  2.0910
10233TIP3    H230661   3.026   0.718   4.921  0.3229 -0.3613  1.6526
10234TIP3   OH230662   3.027   1.289   4.918  0.1829  0.7800 -0.0407
10234TIP3    H130663   3.086   1.363   4.902 -0.3013  0.9157 -1.1720
10234TIP3    H230664   3.029   1.238   4.837 -0.9129  0.5406  0.0772
10235TIP3   OH230665   1.017   5.004   5.710  0.0954 -0.2714  0.8721
10235TIP3    H130666   0.995   4.918   5.745 -0.1721 -0.7525 -0.4823
10235TIP3    H230667   0.962   5.065   5.759 -1.6225 -1.1228  0.0109
10236TIP3   OH230668   5.304   2.055   1.546  0.0423 -0.2029 -0.1012
10236TIP3    H130669   5.364   2.006   1.489  1.1338 -0.0269  0.8739
10236TIP3    H230670   5.289   2.137   1.500  0.5439 -0.2590 -0.3731
10237TIP3   OH230671   4.706   0.856   5.044 -0.2383 -0.4249  0.1877
10237TIP3    H130672   4.654   0.810   5.110 -0.5558 -3.3577 -2.0039
10237TIP3    H230673   4.657   0.845   4.962  2.5058 -1.1023 -1.4506
10238TIP3   OH230674   3.590   0.520   5.737 -0.5728 -0.0138 -0.1677
10238TIP3    H130675   3.565   0.436   5.699 -1.4410 -0.6136  1.6645
10238TIP3    H230676   3.672   0.543   5.693 -0.1848 -1.9584 -0.5211
10239TIP3   OH230677   2.526   5.780   5.217  0.4614 -0.4592  0.2935
10239TIP3    H130678   2.565   5.746   5.136 -2.1474  1.0273 -1.6593
10239TIP3    H230679   2.445   5.730   5.228  0.9723 -0.8890  2.2015
10240TIP3   OH230680   2.861   3.208   5.505 -0.3446  0.1480 -0.0591
10240TIP3    H130681   2.780   3.158   5.495 -0.5997  0.6391 -0.4368
10240TIP3    H230682   2.837   3.283   5.559  0.1858 -0.4746  1.0824
10241TIP3   OH230683   4.656   0.595   5.809  0.0770  0.3018  0.5859
10241TIP3    H130684   4.568   0.570   5.837  0.8798 -2.5763  0.7399
10241TIP3    H230685   4.642   0.665   5.745 -2.3375 -0.3607  0.3343
10242TIP3   OH230686   4.381   0.441   4.671  0.1956 -0.8058  0.0888
10242TIP3    H130687   4.446   0.497   4.712  0.2770 -0.2343 -0.8167
10242TIP3    H230688   4.297   0.483   4.692  0.3227  0.3435 -1.6029
10243TIP3   OH230689   0.772   7.206   3.458 -0.1611  0.5108  0.5011
10243TIP3    H130690   0.855   7.226   3.414  0.0230 -2.0258 -0.3654
10243TIP3    H230691   0.738   7.130   3.412 -1.8055  0.0495  2.4102
10244TIP3   OH230692   3.172   0.410   6.000 -0.1233 -0.0700 -0.3594
10244TIP3    H130693   3.115   0.350   6.049  1.5351 -0.6077  0.9772
10244TIP3    H230694   3.243   0.354   5.967  0.1697  0.7542 -1.1446
10245TIP3   OH230695   5.777   4.214   0.795 -0.1308 -0.0072  0.3347
10245TIP3    H130696   5.858   4.233   0.748 -0.2299 -0.6769 -0.1080
10245TIP3    H230697   5.778   4.119   0.808 -1.2373 -0.1187 -0.4041
10246TIP3   OH230698   0.986   5.006   6.263 -0.5680  0.5146 -0.0802
10246TIP3    H130699   0.963   4.947   6.191  0.2794 -0.3558  0.3636
10246TIP3    H230700   1.059   4.963   6.308  0.5398  2.2211 -0.1775
10247TIP3   OH230701   1.693   5.094   6.365  0.1112  0.0803 -0.1030
10247TIP3    H130702   1.638   5.016   6.369  0.0907  0.1680  1.7857
10247TIP3    H230703   1.780   5.061   6.343 -0.3325 -0.2372 -1.4052
10248TIP3   OH230704   2.197   4.950   4.546 -0.4937  0.3713  0.2605
10248TIP3    H130705   2.256   4.901   4.489  2.4717  0.9055  2.6970
10248TIP3    H230706   2.120   4.895   4.555  0.9438 -1.8221 -0.5209
10249TIP3   OH230707   3.016   5.963   6.059 -0.0700  0.1543 -0.1002
10249TIP3    H130708   2.945   5.921   6.108 -0.8098 -1.3852 -2.3984
10249TIP3    H230709   2.975   5.990   5.976  1.0865  2.8689  0.1471
10250TIP3   OH230710   4.997   2.414   0.177  0.3046 -0.0131 -0.1222
10250TIP3    H130711   4.991   2.408   0.081  1.6037  2.0502 -0.3406
10250TIP3    H230712   4.955   2.497   0.198  3.1001  1.2022  0.7877
10251TIP3   OH230713   7.464   2.766   0.443 -0.3435  0.4215  0.0019
10251TIP3    H130714   7.418   2.784   0.361 -0.9340 -0.6119  0.1039
10251TIP3    H230715   7.557   2.775   0.420 -0.4676 -0.6848 -1.0015
10252TIP3   OH230716   2.881   0.525   5.872 -0.4436 -0.3224  0.7470
10252TIP3    H130717   2.859   0.478   5.792 -2.0098  1.1483  0.2826
10252TIP3    H230718   2.975   0.541   5.866 -0.5833 -0.1138 -0.8718
10253TIP3   OH230719   1.744   6.075   5.718  0.1130  0.5997  0.0346
10253TIP3    H130720   1.775   6.122   5.796 -1.5029  0.4100  0.7986
10253TIP3    H230721   1.652   6.056   5.736  0.6068 -2.5205 -0.4361
10254TIP3   OH230722   6.718   2.053   0.536 -0.0321  0.6151 -0.2283
10254TIP3    H130723   6.640   2.001   0.516 -0.2042  0.9066 -0.3064
10254TIP3    H230724   6.684   2.133   0.575  0.4054 -1.1765  4.0629
10255TIP3   OH230725   5.847   4.761   0.086  0.3846  0.2613  0.5956
10255TIP3    H130726   5.760   4.753   0.046  0.2102  0.6274  0.8922
10255TIP3    H230727   5.905   4.712   0.028  0.0312  0.2777  0.2261
10256TIP3   OH230728   6.539   0.215   0.156 -0.2306 -0.4378 -0.5813
10256TIP3    H130729   6.533   0.135   0.209 -0.5256 -0.5799 -0.8295
10256TIP3    H230730   6.458   0.262   0.175  0.4801  0.3909  0.5027
10257TIP3   OH230731   5.208   2.276   1.711 -0.0287 -0.2621  0.9008
10257TIP3    H130732   5.166   2.190   1.717  1.1524 -0.8750  0.6391
10257TIP3    H230733   5.214   2.307   1.801  0.8611 -1.1228  1.1506
10258TIP3   OH230734   1.606   3.809   5.716 -0.0740  0.0968  0.2200
10258TIP3    H130735   1.601   3.843   5.627 -0.4958  0.6694  0.4609
10258TIP3    H230736   1.675   3.860   5.758  1.3800 -1.3891 -0.2962
10259TIP3   OH230737   5.609   3.025   0.857  0.3304 -0.0607  0.3319
10259TIP3    H130738   5.567   2.950   0.814 -1.0345  1.3780 -0.9070
10259TIP3    H230739   5.700   2.998   0.868  0.2059 -1.3468 -1.4697
10260TIP3   OH230740   6.771   1.835   0.148 -0.3878  0.0575  0.1837
10260TIP3    H130741   6.741   1.881   0.070  0.9026 -0.7637 -0.8141
10260TIP3    H230742   6.743   1.744   0.135 -1.0453  0.1192  1.1397
10261TIP3   OH230743   2.411   5.034   3.918 -0.5377 -0.0477  0.1616
10261TIP3    H130744   2.453   5.008   3.836 -0.1287 -0.4147  0.4837
10261TIP3    H230745   2.408   5.130   3.913 -3.4168 -0.1688 -1.6896
10262TIP3   OH230746   7.237   6.869   4.814 -0.2755  0.0456 -0.2179
10262TIP3    H130747   7.326   6.900   4.826  0.1067 -1.4566  1.0061
10262TIP3    H230748   7.198   6.873   4.902 -1.0192 -0.4649 -0.5146
10263TIP3   OH230749   2.614   5.711   4.948  0.0274 -0.0509 -0.2898
10263TIP3    H130750   2.645   5.721   4.858 -1.9486 -1.8424 -1.2057
10263TIP3    H230751   2.558   5.787   4.963 -0.1848 -0.1080 -0.8055
10264TIP3   OH230752   5.925   0.621   1.235 -0.3554  0.5420 -0.1062
10264TIP3    H130753   5.871   0.553   1.276 -1.1712  1.4941  0.4255
10264TIP3    H230754   6.001   0.628   1.292 -0.6062  0.5667  0.2264
10265TIP3   OH230755   1.710   3.583   4.633 -0.6462  0.3276  0.3996
10265TIP3    H130756   1.737   3.494   4.610  3.6428  1.1350  1.8863
10265TIP3    H230757   1.633   3.571   4.688 -0.0304 -2.4839  0.7354
10266TIP3   OH230758   1.996   1.540   5.622  0.2165 -0.0195 -0.5967
10266TIP3    H130759   2.059   1.612   5.617  0.8436 -0.6030 -1.3346
10266TIP3    H230760   1.910   1.582   5.619  0.5778  0.7787  0.3258
10267TIP3   OH230761   7.045   2.301   1.394  0.0169 -0.0841  0.4901
10267TIP3    H130762   6.971   2.287   1.453  0.1974  2.0426  1.2744
10267TIP3    H230763   7.053   2.219   1.346  0.3909 -2.2089  4.0052
10268TIP3   OH230764   0.383   6.480   6.220 -0.1552  0.3508  0.5060
10268TIP3    H130765   0.428   6.534   6.284 -1.1677  1.2126  0.5060
10268TIP3    H230766   0.371   6.395   6.264 -0.2642  0.7376  1.2197
10269TIP3   OH230767   0.754   1.407   0.072 -0.0458 -0.2070 -0.1335
10269TIP3    H130768   0.685   1.469   0.049 -0.4643 -0.0024  1.6360
10269TIP3    H230769   0.717   1.354   0.142  0.5393 -2.0628 -1.1898
10270TIP3   OH230770   2.621   0.312   4.524  0.0288  0.6365 -0.5294
10270TIP3    H130771   2.689   0.316   4.591  1.7402  1.0613 -2.2368
10270TIP3    H230772   2.616   0.401   4.489 -2.2499  0.8845  0.3616
10271TIP3   OH230773   2.632   3.091   4.280 -0.5582  0.0166  0.0810
10271TIP3    H130774   2.595   3.004   4.296  0.3628 -0.4906 -0.5329
10271TIP3    H230775   2.701   3.077   4.216  0.2725  1.0534  0.7321
10272TIP3   OH230776   7.306   2.776   1.974  0.2436 -0.7461 -0.6222
10272TIP3    H130777   7.275   2.700   2.023 -0.0321 -1.2221 -1.5336
10272TIP3    H230778   7.375   2.743   1.918  1.1893 -0.0213  0.0951
10273TIP3   OH230779   4.513   1.547   5.563  0.3586  0.0361 -0.6197
10273TIP3    H130780   4.604   1.535   5.536  0.7014 -0.7777  0.8778
10273TIP3    H230781   4.498   1.641   5.553  1.8703  0.4321  0.6840
10274TIP3   OH230782   5.416   2.452   0.528  0.1819  0.0334 -0.3324
10274TIP3    H130783   5.456   2.391   0.466  2.1811 -1.6725  2.5020
10274TIP3    H230784   5.468   2.532   0.520  1.4218 -0.6935  0.1487
10275TIP3   OH230785   7.658   3.622   0.308  0.4794  0.2914 -0.0947
10275TIP3    H130786   7.713   3.701   0.313  1.6230 -0.5052 -0.0204
10275TIP3    H230787   7.720   3.551   0.293 -0.4880 -0.6880  0.5483
10276TIP3   OH230788   5.573   2.085   3.061 -0.3559 -0.0348  0.1235
10276TIP3    H130789   5.597   2.143   3.133 -0.6748 -0.4135  0.5439
10276TIP3    H230790   5.643   2.094   2.998  1.7743 -2.3743  2.0357
10277TIP3   OH230791   7.275   2.605   0.558  0.5735 -0.0446  0.3842
10277TIP3    H130792   7.350   2.661   0.536  0.5069  0.1839  0.7349
10277TIP3    H230793   7.279   2.597   0.653 -0.7008  1.1753  0.5596
10278TIP3   OH230794   3.158   0.618   5.812 -0.0448  0.1345  0.1114
10278TIP3    H130795   3.250   0.644   5.801 -0.4860  1.4935 -0.4847
10278TIP3    H230796   3.162   0.534   5.858  1.4611  0.7774  1.1959
10279TIP3   OH230797   3.266   0.030   5.541 -0.5418  0.4590 -0.2690
10279TIP3    H130798   3.213  -0.024   5.483  0.7522  2.1218 -3.1102
10279TIP3    H230799   3.226   0.117   5.537  0.5270  0.9747  0.0340
10280TIP3   OH230800   0.681   6.319   5.034 -0.0941  0.2787 -0.1712
10280TIP3    H130801   0.741   6.265   5.086 -1.0272  0.3668  1.0032
10280TIP3    H230802   0.620   6.257   4.995  0.3633  0.2528 -0.8642
10281TIP3   OH230803   3.844   7.241   0.743 -0.4258  0.2341 -0.0928
10281TIP3    H130804   3.760   7.221   0.703 -1.0096  1.1195  0.6467
10281TIP3    H230805   3.837   7.334   0.768  0.7930  0.3368 -0.0951
10282TIP3   OH230806   1.503   2.602   4.711 -0.6808 -0.0110 -0.6785
10282TIP3    H130807   1.545   2.529   4.665  0.9392  0.4601  0.0140
10282TIP3    H230808   1.572   2.668   4.719 -1.3400  0.4861  1.1542
10283TIP3   OH230809   7.454   3.257   1.127 -0.4818 -0.0499 -0.1621
10283TIP3    H130810   7.513   3.323   1.165 -0.0303 -1.0603  0.9285
10283TIP3    H230811   7.498   3.230   1.046  1.3123 -1.8265  1.3511
10284TIP3   OH230812   2.964   4.310   5.516  0.7345 -0.2685  0.0414
10284TIP3    H130813   3.037   4.263   5.478 -0.0469  1.2174 -3.4625
10284TIP3    H230814   2.886   4.274   5.472 -0.1594  1.7573 -0.1120
10285TIP3   OH230815   0.705   4.079   5.799  0.0979 -0.5065 -0.1903
10285TIP3    H130816   0.615   4.088   5.831  0.2767  0.0939  0.1536
10285TIP3    H230817   0.754   4.045   5.874  0.2325 -0.4841 -0.2680
10286TIP3   OH230818   6.752   3.188   0.527  0.1710 -0.0778  0.1934
10286TIP3    H130819   6.689   3.205   0.456  0.0205 -0.1508  0.3111
10286TIP3    H230820   6.734   3.255   0.592 -0.1614 -0.4458  0.4816
10287TIP3   OH230821   5.320   2.126   0.075 -0.0636  0.4576 -0.0356
10287TIP3    H130822   5.287   2.153  -0.011 -0.3552 -1.1373 -0.4482
10287TIP3    H230823   5.264   2.052   0.099  0.9989 -0.0649  0.8404
10288TIP3   OH230824   1.068   4.638   4.479  0.2923 -0.2194 -0.4597
10288TIP3    H130825   1.134   4.687   4.528 -0.2108 -0.6150  0.6205
10288TIP3    H230826   1.013   4.705   4.440 -0.7076  0.0826  1.4501
10289TIP3   OH230827   5.904   1.437   0.617 -0.1269  0.2042  0.1986
10289TIP3    H130828   5.915   1.366   0.554  0.1053  0.3740  0.0459
10289TIP3    H230829   5.852   1.502   0.570 -1.8043 -0.5983  0.9178
10290TIP3   OH230830   2.572   2.957   6.335 -0.3133  0.3722 -0.1898
10290TIP3    H130831   2.632   2.968   6.408  1.0393 -0.2100 -1.1814
10290TIP3    H230832   2.522   2.877   6.356  1.0648 -0.6031 -0.5625
10291TIP3   OH230833   2.114   6.265   5.514  0.0502  0.5105  0.1532
10291TIP3    H130834   2.108   6.233   5.604 -0.4053  1.0256  0.3125
10291TIP3    H230835   2.028   6.244   5.476  0.7795 -1.1165 -0.6449
10292TIP3   OH230836   2.500   7.098   0.194  0.3496 -0.3239  0.0147
10292TIP3    H130837   2.584   7.095   0.147  1.0093  0.1178  1.1444
10292TIP3    H230838   2.512   7.168   0.259 -0.6638 -0.7016  0.6094
10293TIP3   OH230839   2.561   3.815   5.079  0.0406  0.5096  0.4131
10293TIP3    H130840   2.529   3.730   5.111  0.1383  1.4193  3.0232
10293TIP3    H230841   2.646   3.826   5.121  1.9576  0.0550 -3.1587
10294TIP3   OH230842   7.143   3.059   0.069 -0.2347  0.2538 -0.5653
10294TIP3    H130843   7.192   2.981   0.046 -0.5502  0.1381 -0.8560
10294TIP3    H230844   7.179   3.087   0.153 -0.1046 -0.1907 -0.4733
10295TIP3   OH230845   6.171   1.330   1.292  0.2241 -0.0523 -0.2176
10295TIP3    H130846   6.216   1.391   1.351  0.8584 -1.3707  0.6853
10295TIP3    H230847   6.182   1.369   1.205 -1.1752  2.1954  0.5571
10296TIP3   OH230848   2.133   3.891   5.007 -0.2844 -0.0228 -0.2227
10296TIP3    H130849   2.153   3.871   4.915  2.8885  1.1176  0.1673
10296TIP3    H230850   2.113   3.806   5.045  1.6519 -0.9987 -1.2608
10297TIP3   OH230851   1.708   3.048   6.159  0.3491 -0.0880  0.3478
10297TIP3    H130852   1.799   3.040   6.187  0.7105 -1.8844 -1.2449
10297TIP3    H230853   1.657   3.016   6.234  0.9403  2.1283  1.7324
10298TIP3   OH230854   6.409   5.009   5.930 -0.4515 -0.4243  0.2917
10298TIP3    H130855   6.421   4.946   6.001  0.6269 -0.2626  0.2703
10298TIP3    H230856   6.347   5.073   5.964 -2.5444 -2.1688 -0.1485
10299TIP3   OH230857   1.371   4.694   6.008  0.0390  0.1434 -0.2851
10299TIP3    H130858   1.297   4.734   6.052 -0.9694 -2.7400  0.7520
10299TIP3    H230859   1.384   4.747   5.929 -1.7447  1.9513  0.6071
10300TIP3   OH230860   6.329   4.011   5.113  0.0924 -0.1218 -0.3698
10300TIP3    H130861   6.403   4.071   5.100  0.1512 -0.1712 -0.2589
10300TIP3    H230862   6.257   4.068   5.138  0.0903 -0.0720 -0.4881
10301TIP3   OH230863   7.236   5.023   5.918 -0.2863 -0.0662 -0.7351
10301TIP3    H130864   7.174   5.031   5.845 -2.7200  0.0985  1.2842
10301TIP3    H230865   7.304   5.086   5.898 -0.6808 -0.3244 -3.0908
10302TIP3   OH230866   7.527   7.018   5.164 -0.2241 -0.1065 -0.2741
10302TIP3    H130867   7.514   6.933   5.122 -1.7288 -0.1621  0.3012
10302TIP3    H230868   7.492   7.081   5.101 -0.7121 -0.0480  0.0527
10303TIP3   OH230869   7.354   2.391   0.225  0.0411 -0.0102  0.1533
10303TIP3    H130870   7.288   2.418   0.161  0.0938 -0.7283 -0.2086
10303TIP3    H230871   7.305   2.376   0.306 -0.4624 -2.0088 -0.5123
10304TIP3   OH230872   7.203   3.403   0.153  0.2769 -0.4350 -0.7174
10304TIP3    H130873   7.272   3.344   0.184  0.2033  0.0431  0.3742
10304TIP3    H230874   7.181   3.456   0.230 -0.6121  0.0834 -1.3294
10305TIP3   OH230875   5.221   6.406   6.095  0.0001  0.0343  0.4225
10305TIP3    H130876   5.278   6.479   6.072  0.1023 -0.7660 -1.9260
10305TIP3    H230877   5.157   6.402   6.024  0.4281 -2.5888  0.1372
10306TIP3   OH230878   5.977   3.508   0.330  0.2245  0.1092  0.8544
10306TIP3    H130879   5.894   3.553   0.345  0.2054  0.8270 -1.2046
10306TIP3    H230880   6.005   3.538   0.243  0.0977 -3.9868 -0.7377
10307TIP3   OH230881   3.951   5.679   4.635 -0.4808 -0.5134 -0.1477
10307TIP3    H130882   3.952   5.709   4.726  0.6266 -2.0627  0.3722
10307TIP3    H230883   3.997   5.747   4.586 -0.8284  0.1810  0.4877
10308TIP3   OH230884   5.399   1.082   4.433 -0.0707  0.1930  0.4237
10308TIP3    H130885   5.452   1.162   4.444 -0.9617  1.0684 -1.4702
10308TIP3    H230886   5.325   1.095   4.492 -1.2921  1.7383 -1.4007
10309TIP3   OH230887   5.074   1.889   1.498  0.3711 -0.4584  0.1167
10309TIP3    H130888   5.091   1.819   1.561  0.4375  0.0598  0.6837
10309TIP3    H230889   5.145   1.951   1.513 -1.0550  0.9122  1.3169
10310TIP3   OH230890   3.132   5.131   4.544 -0.1782  0.4708  0.4984
10310TIP3    H130891   3.050   5.162   4.583 -0.1208 -1.0620  1.9212
10310TIP3    H230892   3.191   5.206   4.548 -0.6225  0.7555  2.1131
10311TIP3   OH230893   2.871   5.862   4.184  0.2524 -0.3210  0.0604
10311TIP3    H130894   2.939   5.892   4.123  0.5560 -0.7720  0.1757
10311TIP3    H230895   2.819   5.800   4.133 -0.2957  0.3032 -0.1381
10312TIP3   OH230896   3.289   6.962   5.594 -0.1094 -0.0542  0.0287
10312TIP3    H130897   3.307   7.022   5.666 -1.3170  0.9271 -0.4580
10312TIP3    H230898   3.272   7.019   5.519 -0.6490 -1.0219 -0.5998
10313TIP3   OH230899   3.192   5.185   5.007 -0.1023  0.2866  0.2665
10313TIP3    H130900   3.257   5.131   4.962 -1.0611 -0.5767 -0.1102
10313TIP3    H230901   3.153   5.127   5.073  0.8516  1.3632  1.8052
10314TIP3   OH230902   3.687   3.374   5.505 -0.1151 -0.0859  0.0939
10314TIP3    H130903   3.721   3.444   5.450  0.1166  1.1871  1.8055
10314TIP3    H230904   3.703   3.294   5.455  1.1097  0.9241 -1.1673
10315TIP3   OH230905   0.404   2.480   1.120 -0.3727  0.1366 -0.6604
10315TIP3    H130906   0.489   2.524   1.128  0.7831 -1.8111 -1.7746
10315TIP3    H230907   0.408   2.408   1.184 -0.5192 -0.9520 -1.8592
10316TIP3   OH230908   2.835   4.444   4.477  0.2683 -0.2516  0.6044
10316TIP3    H130909   2.828   4.487   4.562 -0.6409  1.0158 -0.0836
10316TIP3    H230910   2.785   4.501   4.418  0.1121 -1.5998 -0.5842
10317TIP3   OH230911   7.048   0.457   1.363 -0.2712  0.4192  0.1131
10317TIP3    H130912   7.054   0.407   1.282 -1.2197  1.7525 -0.8056
10317TIP3    H230913   7.139   0.472   1.389  0.0115 -1.5501  0.2707
10318TIP3   OH230914   3.241   4.537   5.148  0.3613 -0.4054  0.4716
10318TIP3    H130915   3.247   4.517   5.055  0.5115  0.3979  0.3031
10318TIP3    H230916   3.147   4.551   5.163  0.3317 -0.5811  0.4527
10319TIP3   OH230917   0.035   2.274   1.368  0.3883 -0.5907  0.3570
10319TIP3    H130918   0.054   2.181   1.369  0.2825 -0.6464 -1.4838
10319TIP3    H230919   0.042   2.301   1.460  2.0093 -2.0705  0.6915
10320TIP3   OH230920   4.360   4.789   4.486  0.2143 -0.0144  0.1920
10320TIP3    H130921   4.335   4.857   4.423 -2.6526  1.8690  3.1773
10320TIP3    H230922   4.436   4.824   4.531 -1.4527  1.5028  1.9507
10321TIP3   OH230923   2.519   7.289   3.930 -0.4038  0.2730 -0.1867
10321TIP3    H130924   2.535   7.299   4.024 -0.1489 -1.2660 -0.0442
10321TIP3    H230925   2.438   7.336   3.914 -0.6165  0.2766  0.8672
10322TIP3   OH230926   4.504   0.191   3.296 -0.5054  0.6828  0.2561
10322TIP3    H130927   4.493   0.136   3.374  0.7458  0.1542  0.0648
10322TIP3    H230928   4.482   0.133   3.223  3.5965 -0.4806 -0.1610
10323TIP3   OH230929   3.730   4.821   6.151 -0.0135  0.3201 -0.0591
10323TIP3    H130930   3.782   4.883   6.100 -0.2015  0.4325 -0.1171
10323TIP3    H230931   3.744   4.737   6.107  1.0094  0.1398  0.5975
10324TIP3   OH230932   3.990   6.506   4.387  0.3190  0.2778 -0.4788
10324TIP3    H130933   4.033   6.460   4.315 -0.2509 -0.5306 -0.3112
10324TIP3    H230934   4.061   6.524   4.449  0.9051  1.4222 -1.4449
10325TIP3   OH230935   6.458   5.400   3.726 -0.3579 -0.5116  0.3785
10325TIP3    H130936   6.510   5.355   3.792  0.7335  0.4095  0.1592
10325TIP3    H230937   6.467   5.493   3.747 -1.0848 -0.2853 -0.2752
10326TIP3   OH230938   6.942   2.796   0.261  0.0295  0.2952 -0.3845
10326TIP3    H130939   6.946   2.884   0.299  1.8205  0.9619 -2.0433
10326TIP3    H230940   6.981   2.740   0.328  0.4084  1.0077  0.0017
10327TIP3   OH230941   0.928   2.451   2.115  0.3088 -0.2586 -0.3624
10327TIP3    H130942   0.909   2.392   2.188  0.7460 -2.0898 -1.7077
10327TIP3    H230943   0.972   2.396   2.050 -0.8856  1.1292 -2.3973
10328TIP3   OH230944   3.652   5.625   5.434  0.1826  0.0011 -0.1425
10328TIP3    H130945   3.694   5.704   5.469 -1.3874  1.1735 -0.8443
10328TIP3    H230946   3.658   5.562   5.506  5.3438 -0.7563 -1.0753
10329TIP3   OH230947   4.029   6.056   4.853  0.2899 -0.1252 -0.5100
10329TIP3    H130948   4.030   6.038   4.947  2.0665  1.5680 -0.1718
10329TIP3    H230949   3.982   6.139   4.845  2.4819  1.1307 -0.8056
10330TIP3   OH230950   6.221   4.331   0.575 -0.8571  0.0087 -0.1453
10330TIP3    H130951   6.248   4.379   0.497  1.3462 -0.8808  0.0209
10330TIP3    H230952   6.150   4.383   0.612 -1.9698  0.4120 -2.7402
10331TIP3   OH230953   1.616   1.894   0.128 -0.1871  0.0066 -0.2507
10331TIP3    H130954   1.537   1.907   0.181  0.5985  0.4582  0.8278
10331TIP3    H230955   1.660   1.820   0.169  1.0507  1.1408  0.5021
10332TIP3   OH230956   4.209   5.362   6.112  0.7250 -0.3674 -0.3792
10332TIP3    H130957   4.182   5.444   6.155  0.0638 -0.6156 -0.3073
10332TIP3    H230958   4.166   5.364   6.027 -0.4341 -1.2755  0.1614
10333TIP3   OH230959   4.418   7.284   5.706  0.0180 -0.3874  0.8776
10333TIP3    H130960   4.428   7.269   5.800 -1.9054 -0.0374  1.1488
10333TIP3    H230961   4.488   7.345   5.684 -0.9156  1.3183  2.5384
10334TIP3   OH230962   1.871   5.983   6.026  0.5404 -0.1662 -0.2959
10334TIP3    H130963   1.808   5.988   6.098 -3.8974 -1.6889 -3.7745
10334TIP3    H230964   1.878   6.073   5.994  2.2790  0.4552  1.8116
10335TIP3   OH230965   0.330   2.516   0.170  0.3529  0.3459  0.0507
10335TIP3    H130966   0.376   2.467   0.102  1.4067 -0.8457  1.5944
10335TIP3    H230967   0.382   2.595   0.183 -0.2712  0.9456 -1.0556
10336TIP3   OH230968   2.285   5.994   5.208  0.6251  0.5127 -0.1991
10336TIP3    H130969   2.332   6.014   5.289  0.3115  0.5098 -0.0168
10336TIP3    H230970   2.200   5.960   5.237  0.3023  1.0262 -0.5359
10337TIP3   OH230971   0.238   4.006   0.876  0.0020  0.0464  0.1905
10337TIP3    H130972   0.156   3.979   0.834  0.5700 -0.6969 -0.4321
10337TIP3    H230973   0.289   4.046   0.806  0.8217 -0.9152  0.2322
10338TIP3   OH230974   3.449   4.080   5.651 -0.0261  0.1851 -0.2669
10338TIP3    H130975   3.452   4.138   5.727 -1.5576 -1.6324  1.2289
10338TIP3    H230976   3.358   4.080   5.624  0.2944 -0.1270 -1.3684
10339TIP3   OH230977   4.550   1.611   4.802  0.0144 -0.0681  0.1977
10339TIP3    H130978   4.559   1.683   4.864 -1.5017 -0.2289  0.6128
10339TIP3    H230979   4.552   1.532   4.856  1.5173 -0.3621 -0.2420
10340TIP3   OH230980   7.085   2.172   0.130  0.1356 -0.2653  0.1027
10340TIP3    H130981   7.019   2.161   0.061 -0.3149 -0.0215  0.4918
10340TIP3    H230982   7.106   2.265   0.129 -0.4067 -0.1247  0.7704
10341TIP3   OH230983   1.077   6.792   5.073  0.2877  0.6670  0.7570
10341TIP3    H130984   1.170   6.795   5.050  0.4474  4.3104  1.5969
10341TIP3    H230985   1.074   6.739   5.153  1.0966 -2.6846 -1.3350
10342TIP3   OH230986   2.752   2.683   4.701 -0.1967  0.0250  0.5904
10342TIP3    H130987   2.724   2.773   4.685  1.0145  0.2536 -0.2911
10342TIP3    H230988   2.813   2.664   4.629 -1.0672 -1.7661  0.3053
10343TIP3   OH230989   6.024   0.389   4.485 -0.0056 -0.8085  0.0898
10343TIP3    H130990   6.092   0.404   4.550 -0.7252  0.8882  0.4832
10343TIP3    H230991   5.942   0.401   4.532 -0.5517 -1.1429 -0.7597
10344TIP3   OH230992   4.842   0.131   5.341  0.3934  0.4763 -0.1238
10344TIP3    H130993   4.876   0.044   5.363  1.8592  0.6723 -1.4489
10344TIP3    H230994   4.864   0.142   5.248 -1.7188  1.3856 -0.5407
10345TIP3   OH230995   0.096   6.490   6.356  0.1058 -0.0202 -0.6027
10345TIP3    H130996   0.046   6.564   6.321  3.2276  3.0801  1.2971
10345TIP3    H230997   0.158   6.468   6.286 -0.6842 -0.7606 -1.0856
10346TIP3   OH230998   6.287   0.093   3.775  0.2438  0.6102  0.3504
10346TIP3    H130999   6.353   0.035   3.814  0.2594  2.2524  2.8992
10346TIP3    H231000   6.206   0.041   3.775  0.6897 -0.0929  0.7587
10347TIP3   OH231001   1.228   3.877   4.714  0.4003 -0.3552 -0.1278
10347TIP3    H131002   1.284   3.927   4.774  0.7758  0.5978 -1.2509
10347TIP3    H231003   1.140   3.888   4.750  0.4431  1.3623 -0.4885
10348TIP3   OH231004   4.672   1.140   3.717  0.0325 -0.5207 -0.2149
10348TIP3    H131005   4.646   1.166   3.805 -0.0765 -0.6957 -0.1950
10348TIP3    H231006   4.695   1.047   3.725  2.3320  0.0326  0.1411
10349TIP3   OH231007   2.535   6.733   5.757 -0.7566  0.5277 -0.4919
10349TIP3    H131008   2.507   6.699   5.842 -1.6019  0.0894 -0.9362
10349TIP3    H231009   2.496   6.821   5.752 -0.0911  0.8425 -0.1116
10350TIP3   OH231010   2.836   1.318   4.715 -0.3455  0.3890 -0.0559
10350TIP3    H131011   2.860   1.316   4.808  0.9022  0.6322 -0.3581
10350TIP3    H231012   2.920   1.313   4.669 -0.8801  1.4311 -1.1610
10351TIP3   OH231013   7.413   5.740   0.296 -0.0688  0.2514  0.0651
10351TIP3    H131014   7.492   5.712   0.250 -0.8643 -0.8221 -0.7037
10351TIP3    H231015   7.388   5.663   0.348 -0.7011  0.5239  0.1655
10352TIP3   OH231016   0.002   0.341   4.931 -0.0435  0.6641  0.1527
10352TIP3    H131017   0.018   0.260   4.979  0.5649  2.0170  2.3257
10352TIP3    H231018   0.003   0.315   4.839  0.6814 -1.6901  0.7839
10353TIP3   OH231019   0.445   4.308   0.742 -0.0974  0.0747  0.4823
10353TIP3    H131020   0.359   4.352   0.744  0.2817  1.0730 -2.3576
10353TIP3    H231021   0.425   4.217   0.720 -0.4912  0.1114  0.6795
10354TIP3   OH231022   4.744   1.762   4.115 -0.2273 -0.1337 -0.6678
10354TIP3    H131023   4.772   1.707   4.042  0.8619 -0.9466  0.3313
10354TIP3    H231024   4.651   1.742   4.126 -1.1635  2.1688 -3.6644
10355TIP3   OH231025   2.406   7.323   5.471  0.4212 -0.1355 -0.1795
10355TIP3    H131026   2.454   7.241   5.458  2.3472  0.8289  0.6398
10355TIP3    H231027   2.375   7.319   5.561  0.1246 -0.1615 -0.2829
10356TIP3   OH231028   2.702   5.489   5.168  0.3303 -0.3307 -0.1756
10356TIP3    H131029   2.784   5.522   5.207  1.4461 -3.4995  0.3168
10356TIP3    H231030   2.695   5.535   5.085  2.1044  0.7326  0.2246
10357TIP3   OH231031   1.105   2.039   0.579  0.5202  0.1012  0.0774
10357TIP3    H131032   1.169   2.046   0.649 -0.1311 -0.9566  0.7831
10357TIP3    H231033   1.157   2.019   0.501  1.0404 -0.9404  0.6804
10358TIP3   OH231034   3.977   2.373   6.128  0.0582 -0.7659  0.1668
10358TIP3    H131035   3.883   2.375   6.146  0.3499 -0.3963  1.7478
10358TIP3    H231036   3.999   2.280   6.120 -0.6154 -0.8062 -1.1427
10359TIP3   OH231037   0.082   3.448   0.302  1.0584  0.2757 -0.3832
10359TIP3    H131038   0.128   3.498   0.369  1.1314 -0.0468 -0.1932
10359TIP3    H231039   0.134   3.461   0.223  1.5177 -0.1501 -0.1533
10360TIP3   OH231040   7.161   0.208   0.306  0.3953 -0.3894 -0.7583
10360TIP3    H131041   7.134   0.288   0.350  2.4191  1.0682 -2.0736
10360TIP3    H231042   7.216   0.163   0.370  2.2239  1.0694 -1.2519
10361TIP3   OH231043   1.671   5.048   6.005  0.4708 -0.2798 -0.4328
10361TIP3    H131044   1.584   5.055   5.968  0.4684 -0.6479 -0.5054
10361TIP3    H231045   1.724   5.010   5.935  0.8119  0.4637 -0.5738
10362TIP3   OH231046   2.936   4.329   4.068 -0.2334  0.1740  0.0075
10362TIP3    H131047   2.886   4.410   4.080  0.3632  0.3162  1.6551
10362TIP3    H231048   2.869   4.261   4.058 -0.7638  0.5427  0.9428
10363TIP3   OH231049   1.372   5.251   5.408 -0.1288  0.1742  1.0863
10363TIP3    H131050   1.302   5.311   5.434 -0.0264  1.2508 -1.0061
10363TIP3    H231051   1.430   5.247   5.484 -0.3457  2.4391  1.4061
10364TIP3   OH231052   0.052   2.505   2.645  0.1237 -0.4620  0.2201
10364TIP3    H131053   0.135   2.553   2.636  0.1946 -0.7627 -0.8243
10364TIP3    H231054  -0.014   2.567   2.613 -0.1114 -0.0705  1.4406
10365TIP3   OH231055   0.421   4.525   4.746  0.0584 -0.2960  0.4045
10365TIP3    H131056   0.436   4.527   4.651  0.3333 -3.1099  0.3515
10365TIP3    H231057   0.329   4.549   4.756  0.0392  0.0703 -0.5660
10366TIP3   OH231058   5.481   4.834   5.424  0.1753 -0.4173  0.2706
10366TIP3    H131059   5.409   4.808   5.481 -1.0245  1.8774 -0.1451
10366TIP3    H231060   5.460   4.794   5.339 -0.1664 -0.4372  0.3656
10367TIP3   OH231061   1.693   5.743   5.335  0.1761  0.2112 -1.0049
10367TIP3    H131062   1.670   5.794   5.257  1.0423  0.9597 -0.7742
10367TIP3    H231063   1.650   5.789   5.407  1.8588  1.2847 -0.6483
10368TIP3   OH231064   1.466   6.115   6.088  0.3988 -0.2337 -0.3481
10368TIP3    H131065   1.487   6.208   6.082  0.3122 -0.2612 -1.0617
10368TIP3    H231066   1.543   6.076   6.130  0.3855  0.1742  0.0591
10369TIP3   OH231067   1.687   5.754   4.664 -0.7178 -0.7313  0.4227
10369TIP3    H131068   1.725   5.745   4.752  1.9399  0.0250 -0.5990
10369TIP3    H231069   1.638   5.836   4.668 -1.9535 -1.4998  1.6409
10370TIP3   OH231070   0.604   6.971   5.372  0.4692 -0.4738 -0.0350
10370TIP3    H131071   0.614   6.903   5.305  0.9866  0.1559 -0.6123
10370TIP3    H231072   0.563   6.926   5.446 -1.7269 -0.8086 -1.3852
10371TIP3   OH231073   6.276   0.235   0.556 -0.5891  0.1923 -0.3067
10371TIP3    H131074   6.269   0.160   0.498 -3.7482 -0.2983  0.5861
10371TIP3    H231075   6.217   0.301   0.517 -0.8976  0.7234  1.0249
10372TIP3   OH231076   0.572   4.678   0.826 -0.5633 -0.6329 -0.1719
10372TIP3    H131077   0.574   4.641   0.738 -0.2145 -0.6486 -0.1558
10372TIP3    H231078   0.640   4.631   0.874 -1.6857 -1.5915  0.4956
10373TIP3   OH231079   0.226   3.530   0.524  0.2892 -0.1111  0.6333
10373TIP3    H131080   0.200   3.621   0.536  0.6177  0.1834 -0.8000
10373TIP3    H231081   0.315   3.535   0.487  0.2850 -1.0024  0.4894
10374TIP3   OH231082   2.550   5.510   5.897 -0.3104 -0.2328 -0.0136
10374TIP3    H131083   2.460   5.527   5.925 -0.1085  0.6272  0.1189
10374TIP3    H231084   2.605   5.560   5.958  0.2181 -0.0605 -0.6215
10375TIP3   OH231085   7.203   3.193   0.801 -0.9539 -0.2531  0.2987
10375TIP3    H131086   7.122   3.143   0.809 -0.3550 -1.2649  0.1244
10375TIP3    H231087   7.225   3.189   0.708 -0.2781 -0.6621  0.4743
10376TIP3   OH231088   3.218   5.386   4.804  0.0361  0.1640  0.5867
10376TIP3    H131089   3.184   5.464   4.849 -0.2513  0.2182  0.2810
10376TIP3    H231090   3.201   5.314   4.865 -1.8268 -0.0008 -0.1045
10377TIP3   OH231091   3.341   5.829   6.002  0.3119  0.4364 -0.4930
10377TIP3    H131092   3.410   5.789   5.949 -0.1667 -1.9113  0.5916
10377TIP3    H231093   3.364   5.807   6.092 -1.7242 -0.2353 -0.1017
10378TIP3   OH231094   3.311   5.672   5.183  0.1319  0.1380  0.4466
10378TIP3    H131095   3.233   5.707   5.140  1.3887  2.4599 -0.0533
10378TIP3    H231096   3.331   5.736   5.251  2.0736  0.0469 -0.0062
10379TIP3   OH231097   7.564   5.127   0.730  0.8522 -0.2740 -0.1281
10379TIP3    H131098   7.477   5.122   0.690 -0.4828  0.2357  2.5841
10379TIP3    H231099   7.560   5.067   0.805  2.1295  1.3118  1.2701
10380TIP3   OH231100   6.330   4.018   1.791 -0.1730 -0.0461  0.2778
10380TIP3    H131101   6.400   4.002   1.727 -0.0391 -0.9441  0.6483
10380TIP3    H231102   6.284   3.935   1.798 -1.9556  0.8274 -0.7582
10381TIP3   OH231103   5.064   0.854   4.734 -0.0130  0.2902  0.0174
10381TIP3    H131104   5.039   0.829   4.823 -5.2881  0.3358 -1.3071
10381TIP3    H231105   5.101   0.774   4.696 -1.0212 -0.7038  1.1129
10382TIP3   OH231106   5.893   1.433   1.569 -0.7994  0.1764  0.3214
10382TIP3    H131107   5.818   1.462   1.621 -0.4516  1.3517  0.1808
10382TIP3    H231108   5.960   1.501   1.583  0.5096 -1.2306  1.0429
10383TIP3   OH231109   1.285   7.253   6.249 -0.3420  0.2146 -0.0794
10383TIP3    H131110   1.289   7.277   6.157  0.4326 -0.6081 -0.2694
10383TIP3    H231111   1.224   7.316   6.288 -0.0143  1.1056 -0.9820
10384TIP3   OH231112   3.360   4.458   5.558 -0.1647 -0.5097 -0.4165
10384TIP3    H131113   3.382   4.544   5.523 -1.6423 -0.2289 -0.7032
10384TIP3    H231114   3.351   4.402   5.481  0.0016 -0.7225 -0.2805
10385TIP3   OH231115  -0.014   3.029   0.450 -0.1353  0.6091 -0.4325
10385TIP3    H131116   0.075   3.048   0.479 -0.9238  1.1137  1.8233
10385TIP3    H231117  -0.033   2.942   0.487 -1.3215  1.4556  1.0288
10386TIP3   OH231118   0.237   2.007   0.784 -0.0444  0.4012 -0.2619
10386TIP3    H131119   0.174   1.942   0.814 -0.1759  0.6699  0.0515
10386TIP3    H231120   0.201   2.042   0.703  1.4650 -2.0393 -2.0572
10387TIP3   OH231121   5.526   0.865   6.155 -0.2915  0.1000 -0.2885
10387TIP3    H131122   5.564   0.921   6.088  0.5732 -0.4631 -0.2765
10387TIP3    H231123   5.508   0.782   6.110 -1.9728  0.5190 -0.4146
10388TIP3   OH231124   1.867   5.590   4.256  0.4726 -0.3340  0.5457
10388TIP3    H131125   1.869   5.500   4.221 -1.0831 -0.0681 -0.2889
10388TIP3    H231126   1.780   5.598   4.294  0.3216  1.0913 -0.0951
10389TIP3   OH231127   4.954   5.421   1.510  0.1755 -0.0756 -0.6624
10389TIP3    H131128   4.889   5.491   1.519 -0.3106 -0.5396 -0.5342
10389TIP3    H231129   5.022   5.458   1.453  0.1643  0.6719 -0.1969
10390TIP3   OH231130   2.858   6.695   4.287  0.2411  0.4902 -0.1147
10390TIP3    H131131   2.806   6.614   4.284 -0.3210  0.8887 -1.5156
10390TIP3    H231132   2.923   6.679   4.355  0.7131 -1.5083 -0.9982
10391TIP3   OH231133   3.312   1.016   5.410  0.0838  0.3778  0.2710
10391TIP3    H131134   3.258   0.967   5.348  1.6381 -0.5455 -0.3878
10391TIP3    H231135   3.377   1.060   5.355  1.9602 -1.0704  1.3091
10392TIP3   OH231136   6.073   1.273   6.355  0.4201 -0.2252 -0.1146
10392TIP3    H131137   6.004   1.211   6.333  1.4323 -0.7730 -1.9094
10392TIP3    H231138   6.154   1.224   6.340  1.2048  0.6814  1.1027
10393TIP3   OH231139   4.857   0.080   6.360 -0.1734  0.8842 -0.1840
10393TIP3    H131140   4.902   0.042   6.284 -0.4203  0.6998 -0.2364
10393TIP3    H231141   4.767   0.094   6.330 -1.3110 -2.7734  1.2770
10394TIP3   OH231142   2.968   4.214   5.184 -0.2211  0.3234 -0.5453
10394TIP3    H131143   2.883   4.225   5.226 -0.2990  3.3817 -1.3832
10394TIP3    H231144   3.030   4.204   5.257 -0.7654  2.4072  0.2521
10395TIP3   OH231145   0.797   2.471   1.018 -0.6229  0.0126  0.0539
10395TIP3    H131146   0.794   2.502   1.109  0.5423 -0.2149  0.1770
10395TIP3    H231147   0.769   2.547   0.967 -1.2908  0.1414  0.6082
10396TIP3   OH231148   6.107   0.536   6.203  0.4121 -0.1693  0.5795
10396TIP3    H131149   6.102   0.595   6.128  0.1334 -0.2437  0.5367
10396TIP3    H231150   6.106   0.448   6.164 -0.2170 -0.2175  0.6869
10397TIP3   OH231151   1.653   5.132   1.213  0.0514  0.0498 -0.1153
10397TIP3    H131152   1.587   5.068   1.239  0.3197  0.0690  0.6171
10397TIP3    H231153   1.732   5.106   1.261  0.3634  0.4836 -0.3942
10398TIP3   OH231154   4.575   1.211   6.070 -0.2077  0.0302 -0.0246
10398TIP3    H131155   4.623   1.129   6.063  1.8775  1.0848  1.5867
10398TIP3    H231156   4.522   1.201   6.149 -0.2588  0.0775 -0.0524
10399TIP3   OH231157   2.097   5.826   6.035 -0.1899 -0.3629 -0.8519
10399TIP3    H131158   2.092   5.798   6.127  1.1652  0.4546 -0.5187
10399TIP3    H231159   2.018   5.878   6.021  0.4593  0.9970  0.3785
10400TIP3   OH231160   5.336   1.047   5.465 -0.0192  0.5866 -0.0082
10400TIP3    H131161   5.407   1.010   5.518  0.3874  0.4983 -0.6148
10400TIP3    H231162   5.287   0.970   5.434  0.8798  0.5496 -1.3465
10401TIP3   OH231163   5.575   1.285   4.351 -0.0812 -0.2029  0.5987
10401TIP3    H131164   5.573   1.369   4.304  2.0162  0.2835  1.3220
10401TIP3    H231165   5.602   1.221   4.285 -0.1648 -0.0525  0.4174
10402TIP3   OH231166   0.526   3.192   0.471  0.5205  0.1669 -0.2884
10402TIP3    H131167   0.587   3.223   0.539 -0.0256 -1.6315  1.0839
10402TIP3    H231168   0.582   3.168   0.398  1.3171  0.2895  0.2704
10403TIP3   OH231169   1.849   5.469   5.312  0.0483  0.3705  0.2258
10403TIP3    H131170   1.890   5.430   5.389  0.9796  0.4989 -0.2046
10403TIP3    H231171   1.805   5.548   5.345  2.4347  1.7501  0.2599
10404TIP3   OH231172   0.475   5.733   3.263 -0.1460  0.5980 -0.5542
10404TIP3    H131173   0.512   5.773   3.341  0.9482 -1.0152 -0.2194
10404TIP3    H231174   0.534   5.758   3.192  0.4364 -0.2587 -0.3758
10405TIP3   OH231175   0.359   3.585   1.083  0.8050  0.3066 -0.2894
10405TIP3    H131176   0.420   3.554   1.016 -0.9916 -0.0481 -1.8061
10405TIP3    H231177   0.357   3.680   1.071 -0.2940  0.1537 -1.4693
10406TIP3   OH231178   5.146   1.714   3.585 -0.2862  0.2054  0.1157
10406TIP3    H131179   5.078   1.781   3.574  0.1505  0.7345  0.5888
10406TIP3    H231180   5.220   1.746   3.533 -0.0836  0.0800  0.3253
10407TIP3   OH231181   3.956   6.313   4.747  0.0576  0.4075 -0.3725
10407TIP3    H131182   3.928   6.375   4.815 -0.5656  0.5327 -0.7414
10407TIP3    H231183   3.876   6.289   4.701 -0.3432 -3.7684  2.2810
10408TIP3   OH231184   5.851   1.063   6.338 -0.4632 -0.7190 -0.0854
10408TIP3    H131185   5.788   0.991   6.330 -1.6568  0.3045 -0.1079
10408TIP3    H231186   5.796   1.142   6.345  0.7790  0.0222  1.7105
10409TIP3   OH231187   4.517   1.263   3.912  0.2474  0.3096 -0.0633
10409TIP3    H131188   4.437   1.305   3.944 -0.2485 -0.3957 -0.3617
10409TIP3    H231189   4.582   1.278   3.980 -0.2094  0.6854  0.2873
10410TIP3   OH231190   4.630   5.647   5.302  0.2587  0.0854 -0.1564
10410TIP3    H131191   4.717   5.682   5.320  1.3863 -1.9247 -1.4663
10410TIP3    H231192   4.600   5.695   5.225  0.1370  0.8780  0.3810
10411TIP3   OH231193   1.358   5.750   5.271  0.7825  0.4311 -0.0380
10411TIP3    H131194   1.411   5.783   5.344 -0.6642  0.3263  1.0814
10411TIP3    H231195   1.305   5.681   5.310 -0.9081  1.2216 -0.9198
10412TIP3   OH231196   5.644   1.813   0.094 -0.0352  0.1382  0.0363
10412TIP3    H131197   5.652   1.844   0.185 -1.9745 -0.1423  0.3094
10412TIP3    H231198   5.554   1.831   0.070 -0.3309 -2.3564 -0.8877
10413TIP3   OH231199   6.500   3.360   1.877 -0.4381  0.5910  0.5433
10413TIP3    H131200   6.502   3.443   1.925 -0.9994  0.2564  1.1585
10413TIP3    H231201   6.457   3.298   1.937  1.0830 -0.4527  0.5825
10414TIP3   OH231202   2.268   5.440   4.358  0.5475  0.2534 -0.0248
10414TIP3    H131203   2.295   5.463   4.447 -0.0332  0.1281  0.1834
10414TIP3    H231204   2.247   5.524   4.317  1.4883  0.3780 -0.2712
10415TIP3   OH231205   1.019   6.247   5.875 -0.3991  0.4848 -0.5787
10415TIP3    H131206   1.076   6.315   5.910  0.0304  0.4449 -1.2121
10415TIP3    H231207   0.931   6.278   5.895 -0.2707  2.0190 -2.3287
10416TIP3   OH231208   7.286   0.831   0.142  0.3435 -0.4145 -0.3153
10416TIP3    H131209   7.277   0.821   0.047 -1.6647 -1.1835 -0.0545
10416TIP3    H231210   7.325   0.749   0.171  0.5078 -0.3699 -0.4064
10417TIP3   OH231211   6.256   2.145   0.136 -0.0215  0.5473 -0.2362
10417TIP3    H131212   6.348   2.147   0.165  0.3185  0.8794 -1.3062
10417TIP3    H231213   6.231   2.053   0.141 -0.1556  0.6629  1.6470
10418TIP3   OH231214   2.415   6.285   5.863 -0.5814  0.2411 -0.5689
10418TIP3    H131215   2.400   6.354   5.799 -1.8543 -0.9749 -1.5972
10418TIP3    H231216   2.499   6.246   5.837 -0.6953  0.2860 -1.0013
10419TIP3   OH231217   4.843   0.186   4.417 -0.5949 -0.2422 -0.4638
10419TIP3    H131218   4.915   0.218   4.361 -0.7403  1.0052  0.0511
10419TIP3    H231219   4.823   0.260   4.475 -0.9529 -1.2749  0.7422
10420TIP3   OH231220   6.385   0.484   1.808  0.6895 -0.1265 -0.1361
10420TIP3    H131221   6.371   0.575   1.783  0.4458 -0.4918 -1.3728
10420TIP3    H231222   6.480   0.478   1.823  0.5924  0.5223  0.7753
10421TIP3   OH231223   4.095   5.134   6.221 -0.2763  0.4908 -0.0532
10421TIP3    H131224   4.100   5.227   6.199 -0.6200  0.1134 -1.8012
10421TIP3    H231225   4.186   5.106   6.226 -0.1798  0.7970 -0.0397
10422TIP3   OH231226   3.185   4.008   5.081  0.1134  0.1280 -0.2074
10422TIP3    H131227   3.144   4.094   5.085  2.0860  1.2193 -2.3291
10422TIP3    H231228   3.279   4.026   5.088  0.5588 -1.8009 -0.9315
10423TIP3   OH231229   4.561   0.126   5.289  0.7562  0.3430  0.0044
10423TIP3    H131230   4.566   0.214   5.251 -0.0872  0.5452  0.3694
10423TIP3    H231231   4.653   0.098   5.295  0.9495  0.6729 -1.3292
10424TIP3   OH231232   3.593   0.424   5.034  0.1796 -0.2336 -0.5920
10424TIP3    H131233   3.613   0.420   5.127  0.2199 -1.2843 -0.6424
10424TIP3    H231234   3.499   0.445   5.030  0.7235  2.5009 -0.3479
10425TIP3   OH231235   3.600   7.122   2.432  0.4122 -0.0769  0.0062
10425TIP3    H131236   3.615   7.111   2.526  0.8502 -0.6237 -0.1268
10425TIP3    H231237   3.567   7.211   2.423 -1.6243 -0.7140  0.9099
10426TIP3   OH231238   1.749   4.414   6.141 -0.5431  0.6782 -1.4479
10426TIP3    H131239   1.744   4.347   6.072 -1.9737 -0.1993 -0.5289
10426TIP3    H231240   1.663   4.455   6.141  0.2291  2.3218 -1.7813
10427TIP3   OH231241   2.313   1.615   5.925 -0.1558 -0.1108 -0.0816
10427TIP3    H131242   2.242   1.681   5.923  0.9241  1.0650 -0.3914
10427TIP3    H231243   2.382   1.654   5.872  1.2516 -0.6664  1.3245
10428TIP3   OH231244   6.723   2.431   0.392  0.6065 -0.2231 -0.3381
10428TIP3    H131245   6.688   2.376   0.321  1.1451 -1.3050  0.2205
10428TIP3    H231246   6.675   2.402   0.470  1.1825 -0.1750  0.0344
10429TIP3   OH231247   2.148   7.125   6.284  0.0057 -0.1929 -0.2135
10429TIP3    H131248   2.076   7.121   6.346  0.3608  0.1318  0.2219
10429TIP3    H231249   2.117   7.184   6.215 -0.5114 -0.8043 -0.5107
10430TIP3   OH231250   6.462   2.013   1.159 -0.3232 -0.5760  0.1474
10430TIP3    H131251   6.400   2.079   1.191  0.3675  0.8313 -1.3634
10430TIP3    H231252   6.417   1.930   1.172 -1.8810  0.3035  0.5498
10431TIP3   OH231253   3.356   3.260   5.570 -0.2835  0.0325 -1.0802
10431TIP3    H131254   3.440   3.261   5.615  0.0072 -2.1790 -1.5216
10431TIP3    H231255   3.291   3.271   5.639  0.2992  0.0254 -0.5358
10432TIP3   OH231256   5.359   1.380   4.152 -0.2880 -0.4475  0.5965
10432TIP3    H131257   5.437   1.431   4.174 -0.0549 -0.9892  1.0633
10432TIP3    H231258   5.290   1.445   4.138  0.2535  0.0398  0.1480
10433TIP3   OH231259   2.636   7.212   5.617 -0.4589 -0.3837  0.0456
10433TIP3    H131260   2.646   7.287   5.676 -1.2226 -0.7622  0.6787
10433TIP3    H231261   2.694   7.230   5.544 -0.7371  0.8958  0.1291
10434TIP3   OH231262   7.117   4.148   0.273 -0.0350 -0.0353 -0.1081
10434TIP3    H131263   7.094   4.209   0.342  1.7758 -1.0439  1.4563
10434TIP3    H231264   7.045   4.085   0.271  0.4524 -0.6916  1.7292
10435TIP3   OH231265   2.981   0.202   5.012  0.0604  0.2445  0.3178
10435TIP3    H131266   3.069   0.217   4.980  0.0705 -1.3292 -0.3995
10435TIP3    H231267   2.992   0.176   5.103  0.4131 -1.1769 -0.1344
10436TIP3   OH231268   4.637   0.826   4.456 -0.2668 -0.0648 -0.2172
10436TIP3    H131269   4.676   0.902   4.499  0.3465 -0.9049  0.7443
10436TIP3    H231270   4.546   0.850   4.440 -0.1498  0.7551  0.3506
10437TIP3   OH231271   3.367   1.343   4.685  0.2965  0.3518  0.2068
10437TIP3    H131272   3.461   1.323   4.688  0.3340  0.6954  1.9126
10437TIP3    H231273   3.356   1.397   4.607  1.3126 -0.7086 -0.6877
10438TIP3   OH231274   6.026   1.619   5.547 -0.4979  0.2233 -0.8925
10438TIP3    H131275   5.988   1.574   5.623  0.2268  1.9404  0.5168
10438TIP3    H231276   6.099   1.564   5.521  1.9707  1.7960  2.4065
10439TIP3   OH231277   0.692   2.436   1.293 -0.7828 -0.0597 -0.0299
10439TIP3    H131278   0.704   2.415   1.386 -1.2253  0.4135  0.1360
10439TIP3    H231279   0.707   2.352   1.248  1.5733  0.1454  0.2701
10440TIP3   OH231280   2.208   3.386   0.685  0.4447  0.3515  0.1648
10440TIP3    H131281   2.230   3.399   0.593 -0.5460  1.7462  0.1070
10440TIP3    H231282   2.126   3.434   0.697 -0.4944 -1.4988  1.2921
10441TIP3   OH231283   2.869   5.799   5.260 -0.3837  0.6048 -0.1085
10441TIP3    H131284   2.774   5.811   5.269 -0.2613  0.3300  1.7007
10441TIP3    H231285   2.881   5.704   5.263 -0.0366  0.6389 -0.3621
10442TIP3   OH231286   2.640   6.226   5.611  0.0121 -0.1233  0.0256
10442TIP3    H131287   2.642   6.144   5.561 -0.6312  0.1599 -0.4711
10442TIP3    H231288   2.732   6.252   5.619  0.2627 -1.1981  0.6898
10443TIP3   OH231289   5.471   2.648   5.369  0.0685  0.0943  0.3354
10443TIP3    H131290   5.420   2.673   5.446 -0.1605  0.7628 -0.0365
10443TIP3    H231291   5.530   2.722   5.354  0.3695 -0.1933  0.0837
10444TIP3   OH231292   1.746   3.538   1.063 -0.5171 -0.7601 -0.2554
10444TIP3    H131293   1.790   3.622   1.053 -2.0522 -0.0485 -1.1573
10444TIP3    H231294   1.675   3.555   1.124 -0.5309 -1.5335 -0.0418
10445TIP3   OH231295   2.039   4.934  -0.003  0.5449  0.3319 -0.3820
10445TIP3    H131296   2.096   4.875   0.046  0.4347  0.9197  0.4584
10445TIP3    H231297   1.972   4.877  -0.041  1.2670 -0.2652 -0.7746
10446TIP3   OH231298   5.745   0.549   0.051 -0.1696  0.7650  0.4314
10446TIP3    H131299   5.822   0.605   0.066 -0.0532  0.6435  0.2957
10446TIP3    H231300   5.709   0.534   0.138 -0.3230  1.2254  0.4442
10447TIP3   OH231301   2.466   5.764   6.282 -0.0893  0.1517  0.3784
10447TIP3    H131302   2.506   5.775   6.368 -0.0524  1.1439  0.2407
10447TIP3    H231303   2.375   5.741   6.300  0.1080 -0.3969  0.6832
10448TIP3   OH231304   7.018   4.211   1.524  0.7344  0.0046 -0.2271
10448TIP3    H131305   7.033   4.125   1.484 -0.7616 -0.0540 -0.7066
10448TIP3    H231306   7.054   4.273   1.462  2.0062 -0.2819  0.2135
10449TIP3   OH231307   5.160   7.252   2.298 -0.5242 -0.3050  0.2738
10449TIP3    H131308   5.238   7.265   2.242 -0.8462 -0.4648 -0.2135
10449TIP3    H231309   5.162   7.160   2.321 -0.9632 -0.4697 -0.3317
10450TIP3   OH231310   2.584   1.178   0.429  0.0874 -0.4309 -0.5210
10450TIP3    H131311   2.506   1.183   0.484 -0.1393 -0.1894 -0.8670
10450TIP3    H231312   2.638   1.111   0.471  0.4522  0.5936  0.6835
10451TIP3   OH231313   2.629   5.233   5.875  0.3514 -0.0832  0.2480
10451TIP3    H131314   2.667   5.230   5.962 -0.7706  2.3499  0.8874
10451TIP3    H231315   2.607   5.326   5.862 -0.7990 -0.6312 -2.0342
10452TIP3   OH231316   1.073   3.647   0.432 -0.2182 -0.5745 -0.1817
10452TIP3    H131317   0.996   3.684   0.475 -0.4037 -0.6882 -0.4140
10452TIP3    H231318   1.094   3.711   0.363  1.1223  0.4941  1.1689
10453TIP3   OH231319   1.061   3.885   1.116 -0.2673  0.0086  0.6073
10453TIP3    H131320   1.123   3.941   1.070 -1.7814  1.0480 -0.2035
10453TIP3    H231321   1.069   3.910   1.208 -1.5944  2.2449  0.1378
10454TIP3   OH231322   1.165   6.819   4.674  0.4014 -0.1843 -0.0380
10454TIP3    H131323   1.165   6.804   4.580  0.3111 -0.6990  0.0399
10454TIP3    H231324   1.252   6.853   4.694  0.1471  0.7012 -0.4240
10455TIP3   OH231325   6.529   0.268   0.667 -0.1060  0.1411 -0.2139
10455TIP3    H131326   6.445   0.279   0.624  0.0312  2.1399  0.0126
10455TIP3    H231327   6.508   0.258   0.760 -0.1665 -0.7934 -0.3163
10456TIP3   OH231328   0.652   5.202   5.415 -0.1527 -0.2028  0.6719
10456TIP3    H131329   0.658   5.295   5.434  2.6704  0.0380 -1.0703
10456TIP3    H231330   0.675   5.195   5.322 -0.9408 -2.5611  0.6213
10457TIP3   OH231331   2.923   0.349   5.425 -0.4291 -0.0252 -0.0147
10457TIP3    H131332   2.856   0.363   5.493 -0.4984 -2.4577  0.4834
10457TIP3    H231333   2.919   0.427   5.371 -3.2470  0.1843  0.4040
10458TIP3   OH231334   2.999   0.624   4.419  0.1448 -0.9303 -0.4598
10458TIP3    H131335   3.064   0.557   4.398  1.4216 -0.2567  1.2766
10458TIP3    H231336   2.990   0.620   4.515 -0.8406  0.3963 -0.4772
10459TIP3   OH231337   5.105   0.626   4.567 -0.4943 -0.3385 -0.3294
10459TIP3    H131338   5.027   0.656   4.520  0.2940 -0.5509 -1.8394
10459TIP3    H231339   5.124   0.541   4.528  1.1097  0.1891 -0.7424
10460TIP3   OH231340   1.248   3.462   1.779 -0.6400  0.3169 -0.2105
10460TIP3    H131341   1.292   3.432   1.699 -2.5791 -0.1434 -1.1278
10460TIP3    H231342   1.209   3.382   1.816 -2.2543  1.0052 -0.4000
10461TIP3   OH231343   2.645   6.569   3.666  0.5271 -0.0397 -0.1953
10461TIP3    H131344   2.595   6.529   3.737  0.3308  0.0178 -0.3008
10461TIP3    H231345   2.656   6.661   3.692  2.2320 -0.4846  0.7446
10462TIP3   OH231346   3.552   4.602   5.213  0.2227 -0.1616  0.4370
10462TIP3    H131347   3.590   4.624   5.128  0.9848 -0.9669  0.5559
10462TIP3    H231348   3.458   4.594   5.196  0.3548 -0.1769 -0.2975
10463TIP3   OH231349   0.869   4.708   0.575  0.0717  0.0131  0.2220
10463TIP3    H131350   0.951   4.681   0.615  0.2124 -0.3436 -0.3079
10463TIP3    H231351   0.838   4.631   0.528  0.0523  0.5203 -0.5996
10464TIP3   OH231352   6.377   1.040   5.413 -0.1753 -0.1157  0.0283
10464TIP3    H131353   6.364   1.121   5.364 -1.0464  0.7222  1.6068
10464TIP3    H231354   6.297   1.029   5.464 -0.3016 -2.2719 -0.5600
10465TIP3   OH231355   2.145   6.598   6.304  0.5168  0.1552 -0.2996
10465TIP3    H131356   2.168   6.609   6.212  0.3283 -0.3672 -0.4160
10465TIP3    H231357   2.202   6.659   6.351  1.0106  0.0196 -0.7150
10466TIP3   OH231358   1.454   2.800   1.813 -0.3292  0.1355  0.1609
10466TIP3    H131359   1.494   2.813   1.727  1.0690  1.7704  1.0095
10466TIP3    H231360   1.364   2.832   1.803  0.3377  1.9761 -0.2745
10467TIP3   OH231361   0.247   2.214   1.103 -0.0430 -0.2017  0.2443
10467TIP3    H131362   0.274   2.272   1.174  2.6158 -2.5035  1.2227
10467TIP3    H231363   0.161   2.182   1.129  0.0230  0.5539  1.4309
10468TIP3   OH231364   2.917   4.305   5.790  0.4637  1.0845  0.3616
10468TIP3    H131365   2.888   4.383   5.837  2.4923  1.6668  0.6605
10468TIP3    H231366   2.925   4.333   5.699 -2.4659  0.2184 -0.2263
10469TIP3   OH231367   4.441   7.279   5.986 -0.1143 -0.4705  0.3659
10469TIP3    H131368   4.535   7.292   5.971 -0.5253  0.6780 -1.3708
10469TIP3    H231369   4.430   7.292   6.080  1.3763  0.0437  0.4889
10470TIP3   OH231370   3.806   6.139   5.248 -0.6650 -0.0932 -0.0867
10470TIP3    H131371   3.837   6.131   5.339  1.0144 -0.0348 -0.6313
10470TIP3    H231372   3.724   6.187   5.255 -1.1121 -1.0217  1.5004
10471TIP3   OH231373   0.022   2.690   0.108 -0.3064  0.1296 -0.3404
10471TIP3    H131374   0.080   2.746   0.160  0.2187  0.6031 -1.4330
10471TIP3    H231375  -0.053   2.672   0.166  0.5058  0.2425  0.7555
10472TIP3   OH231376   0.481   6.049   4.510  0.1030  0.6210  0.1108
10472TIP3    H131377   0.421   5.998   4.564  2.4113 -1.9387  0.3093
10472TIP3    H231378   0.491   6.131   4.558 -2.4180  0.7223  0.5651
10473TIP3   OH231379   1.467   2.496   0.124  0.5882  0.0351  0.3573
10473TIP3    H131380   1.402   2.553   0.082  0.2955 -0.1108  0.6070
10473TIP3    H231381   1.448   2.409   0.088  0.7944  0.0309  0.2578
10474TIP3   OH231382   0.849   1.694   0.058 -0.4742  0.7040 -0.7556
10474TIP3    H131383   0.943   1.710   0.045 -0.6692  2.6527  0.1125
10474TIP3    H231384   0.841   1.599   0.059  1.6434  0.5072  0.1732
10475TIP3   OH231385   2.811   6.293   4.900  0.6658 -0.0497 -0.1232
10475TIP3    H131386   2.755   6.361   4.937  0.3760  0.0254 -0.6984
10475TIP3    H231387   2.865   6.264   4.974 -0.8471 -0.8611  0.6759
10476TIP3   OH231388   2.096   4.214   1.083  0.3459  0.3518 -0.0501
10476TIP3    H131389   2.049   4.232   1.002  2.3815  1.1913 -1.0869
10476TIP3    H231390   2.037   4.158   1.134 -0.7065 -0.6602 -2.3510
10477TIP3   OH231391   5.425  -0.012   5.447  0.5201 -0.4068 -0.0240
10477TIP3    H131392   5.394   0.068   5.490 -0.3297 -0.4342 -0.5761
10477TIP3    H231393   5.477   0.019   5.373  0.8685 -0.3677  0.2335
10478TIP3   OH231394   4.313   0.952   6.015 -0.7693 -0.1821 -0.2585
10478TIP3    H131395   4.323   0.999   6.098  1.1641 -2.4815  0.8715
10478TIP3    H231396   4.251   1.006   5.965 -3.4805  0.3425  3.3702
10479TIP3   OH231397   3.575   0.644   4.399  0.2439  0.2173  0.2439
10479TIP3    H131398   3.535   0.661   4.314  1.5622  4.4648  0.3534
10479TIP3    H231399   3.667   0.626   4.379  0.3980  0.4737  0.7047
10480TIP3   OH231400   7.688   0.575   5.583 -0.1502 -0.1850  0.6254
10480TIP3    H131401   7.639   0.548   5.660 -0.4584 -1.1456  0.0939
10480TIP3    H231402   7.622   0.603   5.520 -0.1150 -2.3648 -0.4394
10481TIP3   OH231403   3.245   5.553   2.185  0.2456  0.4393 -0.0469
10481TIP3    H131404   3.251   5.625   2.248 -0.0425  0.9834 -0.6400
10481TIP3    H231405   3.319   5.497   2.207 -0.8704 -0.3099  1.9307
10482TIP3   OH231406   1.143   6.450   6.001 -0.1512  0.3744 -0.2765
10482TIP3    H131407   1.154   6.406   6.085 -1.7907 -0.3273 -0.4246
10482TIP3    H231408   1.082   6.522   6.019  1.6168  1.9291 -0.2828
10483TIP3   OH231409   2.309   7.265   5.737  0.4907  0.1424 -0.1944
10483TIP3    H131410   2.273   7.186   5.777 -1.3591  1.8202  1.5409
10483TIP3    H231411   2.379   7.292   5.797 -0.7947  1.4003  0.7746
10484TIP3   OH231412   3.258   6.072   6.176  0.3720 -0.4225 -0.4247
10484TIP3    H131413   3.293   5.989   6.209  2.9476 -0.5230 -3.2272
10484TIP3    H231414   3.167   6.051   6.151  0.3410 -1.8522  0.7961
10485TIP3   OH231415   0.548   3.347   1.544  0.3686 -0.2926  0.2507
10485TIP3    H131416   0.502   3.266   1.565  1.6342 -0.2925  3.2570
10485TIP3    H231417   0.632   3.319   1.508 -0.4743 -0.2992 -1.7261
10486TIP3   OH231418   3.296   2.308   5.930  0.1114 -0.1911  0.4824
10486TIP3    H131419   3.319   2.341   5.843  0.8430  0.5267  0.9429
10486TIP3    H231420   3.204   2.284   5.923 -0.0705  0.6923 -0.2534
10487TIP3   OH231421   3.483   2.216   5.485 -0.1044  0.0594 -0.7912
10487TIP3    H131422   3.546   2.276   5.446 -0.4950  0.9504 -0.0725
10487TIP3    H231423   3.434   2.181   5.410  0.9765 -0.3570 -1.3187
10488TIP3   OH231424   0.412   1.037   1.781 -0.2160 -0.3180  0.3722
10488TIP3    H131425   0.359   0.980   1.837 -2.7839  2.4546  0.9234
10488TIP3    H231426   0.377   1.023   1.693  0.1581 -0.7000  0.2856
10489TIP3   OH231427   7.411   0.304   6.019  0.2366 -0.6181  0.4557
10489TIP3    H131428   7.336   0.341   5.972 -0.4224 -0.5989  1.5036
10489TIP3    H231429   7.466   0.380   6.038 -0.2075 -0.4226  0.9784
10490TIP3   OH231430   1.243   6.228   4.957 -0.1100 -0.1285 -0.3430
10490TIP3    H131431   1.199   6.237   5.041  0.5789  1.5472 -0.1582
10490TIP3    H231432   1.290   6.310   4.944 -0.0229 -0.4485 -2.2651
10491TIP3   OH231433   6.396   4.167   0.964  0.3956 -0.0811 -0.4808
10491TIP3    H131434   6.410   4.259   0.944 -0.7511  0.2239  0.0884
10491TIP3    H231435   6.350   4.167   1.048  2.3636 -1.2446  0.6219
10492TIP3   OH231436   2.892   6.895   6.355  0.4435  0.6011  0.8423
10492TIP3    H131437   2.905   6.988   6.337 -0.3653  0.1575 -2.2577
10492TIP3    H231438   2.798   6.881   6.345  0.9122 -1.1010 -1.7575
10493TIP3   OH231439   4.328   0.730   3.590 -0.2413  0.1867 -0.4750
10493TIP3    H131440   4.319   0.736   3.685 -1.3086  0.2618 -0.5740
10493TIP3    H231441   4.366   0.644   3.574  0.1813  0.2788  0.0323
10494TIP3   OH231442   5.486   4.114   0.597  0.3881 -0.4000  0.0632
10494TIP3    H131443   5.490   4.208   0.582  0.6532 -0.0948  1.9201
10494TIP3    H231444   5.578   4.085   0.595  0.3043 -0.6225 -0.5376
10495TIP3   OH231445   7.498   1.521   0.045 -0.0538  0.0689  0.2029
10495TIP3    H131446   7.589   1.543   0.024 -0.4901  1.9999  0.2272
10495TIP3    H231447   7.482   1.563   0.129 -0.2851 -2.2221  1.3374
10496TIP3   OH231448   7.084   2.427   0.768 -0.3410 -0.1660  0.4903
10496TIP3    H131449   7.109   2.446   0.859  1.4956  0.0129 -0.0188
10496TIP3    H231450   7.055   2.336   0.770 -1.1797  0.1141  1.4217
10497TIP3   OH231451   1.201   3.162   1.030 -0.4742  0.8947  0.3692
10497TIP3    H131452   1.265   3.131   1.093 -0.9086 -1.8462 -0.5007
10497TIP3    H231453   1.240   3.241   0.993  1.3407  0.5512  1.5051
10498TIP3   OH231454   1.018   3.032   1.386 -0.6379 -0.6801 -0.5558
10498TIP3    H131455   1.104   3.035   1.344 -0.4248 -0.9580 -0.1338
10498TIP3    H231456   0.962   3.084   1.328  0.0058  0.2231 -0.3640
10499TIP3   OH231457   4.026   5.168   4.640  0.5554  0.1582 -0.0869
10499TIP3    H131458   4.028   5.196   4.549  2.0005  0.9184  0.1672
10499TIP3    H231459   3.972   5.089   4.640 -1.0803  1.2590 -1.2817
10500TIP3   OH231460   5.667   1.541   0.136  0.0184 -0.1077 -0.0802
10500TIP3    H131461   5.679   1.635   0.151 -0.1326 -0.1188  0.1018
10500TIP3    H231462   5.585   1.535   0.086 -0.3957 -0.2036  0.6045
10501TIP3   OH231463   0.425   2.588   0.647 -0.1528  0.1783 -0.2481
10501TIP3    H131464   0.472   2.621   0.571 -1.2255 -0.1023 -1.0466
10501TIP3    H231465   0.339   2.631   0.642 -0.6732 -0.8122  0.0973
10502TIP3   OH231466   4.464   5.950   4.611  0.1797 -0.4881  0.1658
10502TIP3    H131467   4.519   6.028   4.612  1.5839 -1.4539  0.1006
10502TIP3    H231468   4.409   5.957   4.689  0.9279  0.1236  0.6377
10503TIP3   OH231469   3.514   0.152   4.392 -0.3121  0.3838  0.0769
10503TIP3    H131470   3.574   0.206   4.444 -0.1441 -1.2893  1.6555
10503TIP3    H231471   3.478   0.213   4.327  0.4514  2.2193  1.3285
10504TIP3   OH231472   2.489   1.760   5.778 -0.0598 -0.1833 -0.1536
10504TIP3    H131473   2.438   1.824   5.729 -0.6006  0.6968  1.5270
10504TIP3    H231474   2.562   1.810   5.814 -0.0021 -0.6867  0.4420
10505TIP3   OH231475   6.690   1.189   2.250  0.1686  0.6720 -0.0332
10505TIP3    H131476   6.598   1.210   2.234  0.4973  1.1312 -1.3968
10505TIP3    H231477   6.694   1.166   2.342 -1.4074  0.1541 -0.0842
10506TIP3   OH231478   5.837   2.854   0.524  0.2953  0.2280  0.6279
10506TIP3    H131479   5.928   2.825   0.529  0.7605  0.4366 -4.2574
10506TIP3    H231480   5.839   2.946   0.550  1.4927  0.2800  0.3553
10507TIP3   OH231481   0.027   3.550   1.034 -0.1075 -0.3764 -0.3018
10507TIP3    H131482   0.098   3.541   1.098  0.8079  0.0102 -1.2652
10507TIP3    H231483   0.002   3.642   1.039 -0.2412 -0.4144 -0.2780
10508TIP3   OH231484   0.494   0.252   2.604  0.0939  0.2609  0.1590
10508TIP3    H131485   0.484   0.164   2.640 -1.6581 -0.3022 -1.6556
10508TIP3    H231486   0.439   0.307   2.660  0.4899  0.0669  0.7478
10509TIP3   OH231487   1.110   2.805   0.556 -0.2681 -0.2326 -0.4330
10509TIP3    H131488   1.103   2.798   0.651 -2.2527  3.8894 -0.1483
10509TIP3    H231489   1.201   2.783   0.536  0.7247  0.8593  2.6543
10510TIP3   OH231490   2.127   7.121   4.324 -0.1112 -0.2062  0.0213
10510TIP3    H131491   2.173   7.137   4.241 -0.0909  0.5178  0.1614
10510TIP3    H231492   2.187   7.066   4.374  0.1710 -0.0914 -0.1850
10511TIP3   OH231493   1.906   3.937   0.415 -0.4711 -0.5463 -0.0174
10511TIP3    H131494   1.977   3.883   0.450 -1.2493 -0.1581  2.2216
10511TIP3    H231495   1.854   3.877   0.362  0.8531 -1.1039 -0.6996
10512TIP3   OH231496   6.337   2.117   6.019  0.1856 -0.5969  0.1042
10512TIP3    H131497   6.375   2.184   5.961  1.9909 -0.8856  0.9240
10512TIP3    H231498   6.351   2.035   5.972  1.4356 -0.8038  0.8078
10513TIP3   OH231499   2.162   3.246   1.632  0.4125 -0.3582 -0.2251
10513TIP3    H131500   2.097   3.176   1.627  0.7201 -0.6080 -0.7949
10513TIP3    H231501   2.209   3.230   1.714  0.7749 -1.0813 -0.5675
10514TIP3   OH231502   1.909   6.555   5.671 -0.2818  0.1324 -0.0994
10514TIP3    H131503   1.920   6.528   5.762  0.8912  0.0634 -0.2524
10514TIP3    H231504   1.826   6.514   5.644  0.9127 -2.4712 -0.0064
10515TIP3   OH231505   1.422   1.951   2.087  0.0277  0.1193 -0.1627
10515TIP3    H131506   1.380   2.036   2.099 -1.6438 -0.8092  0.7187
10515TIP3    H231507   1.516   1.970   2.087 -0.2553  1.7251  2.0110
10516TIP3   OH231508   2.354   3.697   1.435 -0.2627  0.1290 -0.0811
10516TIP3    H131509   2.325   3.710   1.525 -1.1565 -1.1201 -0.1900
10516TIP3    H231510   2.449   3.695   1.441 -0.1369  3.6206  0.3558
10517TIP3   OH231511   1.456   0.159   3.759  0.0690 -0.1221 -0.4278
10517TIP3    H131512   1.372   0.188   3.723 -0.6220 -1.5163  0.0210
10517TIP3    H231513   1.464   0.206   3.842 -0.5116 -0.3687 -0.2306
10518TIP3   OH231514   4.743   6.153   6.247 -0.1387 -0.3683 -0.3566
10518TIP3    H131515   4.813   6.099   6.283  0.1634  0.3061  0.0709
10518TIP3    H231516   4.690   6.176   6.323  0.8153  1.5239 -0.2480
10519TIP3   OH231517   1.431   3.079   0.754 -0.1330 -0.2807  0.2288
10519TIP3    H131518   1.465   3.058   0.668 -0.9641 -0.0627 -0.1598
10519TIP3    H231519   1.336   3.073   0.745 -0.2334 -0.1578  1.0990
10520TIP3   OH231520   5.648   2.133   4.868 -0.1269  0.5737 -0.1488
10520TIP3    H131521   5.627   2.057   4.922  0.3297 -0.7196 -1.7461
10520TIP3    H231522   5.731   2.165   4.903 -0.4653  0.5115  0.7115
10521TIP3   OH231523   2.716   5.686   4.674  0.7060  0.0821 -0.7548
10521TIP3    H131524   2.760   5.619   4.727  0.4947 -0.6252 -1.4602
10521TIP3    H231525   2.681   5.638   4.599  0.9704  1.0642 -1.5214
10522TIP3   OH231526   4.742   1.127   5.122  0.1155  0.1576 -0.5803
10522TIP3    H131527   4.712   1.048   5.078 -1.0866  0.3489 -0.1072
10522TIP3    H231528   4.821   1.100   5.168  0.2718 -0.5219 -1.2404
10523TIP3   OH231529   4.116   7.288   5.022 -0.1535  0.0576 -0.5365
10523TIP3    H131530   4.059   7.260   5.094 -1.1903 -2.9356 -2.4017
10523TIP3    H231531   4.055   7.324   4.957  0.3392 -0.8047 -1.4824
10524TIP3   OH231532   1.432   0.403   5.587 -0.5246  0.4299  0.6664
10524TIP3    H131533   1.384   0.362   5.515  1.7593  0.3541 -0.8809
10524TIP3    H231534   1.508   0.444   5.544  0.5624  0.8864  2.9672
10525TIP3   OH231535   7.646  -0.028   6.014  0.2929 -0.1962  0.2588
10525TIP3    H131536   7.558   0.006   5.997  1.1266  2.6096  1.1440
10525TIP3    H231537   7.705   0.039   5.978  2.0678 -1.3998  0.8307
10526TIP3   OH231538   5.564   0.099   4.313  0.1680 -0.6388  0.1305
10526TIP3    H131539   5.595   0.136   4.396 -1.1718 -0.4598  0.5576
10526TIP3    H231540   5.543   0.008   4.334 -0.5477 -0.4841  0.0778
10527TIP3   OH231541   5.908   0.038   5.470  0.0814 -0.2284 -0.2223
10527TIP3    H131542   5.949   0.124   5.467 -0.3742 -0.0134 -0.2122
10527TIP3    H231543   5.872   0.031   5.558  1.8724 -1.2410  0.4712
10528TIP3   OH231544   1.716   1.694   0.621 -0.1257 -0.2393 -0.1399
10528TIP3    H131545   1.739   1.610   0.580  2.2511  0.3574 -0.1087
10528TIP3    H231546   1.625   1.709   0.595 -1.2700 -3.7717  1.5182
10529TIP3   OH231547   4.478   6.556   5.602 -0.1150  0.0885  0.7247
10529TIP3    H131548   4.500   6.568   5.510 -0.5732 -1.1200  0.4474
10529TIP3    H231549   4.431   6.636   5.626 -3.4954 -1.2170 -1.1911
10530TIP3   OH231550   7.737   1.185   4.819  0.1028  0.1112  0.0125
10530TIP3    H131551   7.790   1.120   4.864  1.5040  0.3110 -1.3165
10530TIP3    H231552   7.728   1.257   4.881  1.0829 -0.0812  0.3739
10531TIP3   OH231553   3.102   6.454   5.757  0.3895  0.3539 -0.1279
10531TIP3    H131554   3.166   6.460   5.686  0.7081 -0.0753  0.1212
10531TIP3    H231555   3.132   6.380   5.810  2.1154  2.7441  2.3757
10532TIP3   OH231556   1.647   0.512   5.461 -0.6531  0.8882  0.4761
10532TIP3    H131557   1.725   0.568   5.473  0.7865 -0.6371 -1.5647
10532TIP3    H231558   1.575   0.574   5.450  0.6911  2.3588 -0.2551
10533TIP3   OH231559   4.793   6.434   5.941 -0.1654  0.3900 -0.0146
10533TIP3    H131560   4.777   6.479   5.858  1.5839 -1.1377 -1.2242
10533TIP3    H231561   4.741   6.354   5.935  0.3649  0.0352  0.1490
10534TIP3   OH231562   1.433   1.449   0.225  0.0113 -0.6925  0.0432
10534TIP3    H131563   1.387   1.367   0.242 -0.1435 -0.7962 -0.8652
10534TIP3    H231564   1.510   1.445   0.282  0.5878 -1.9700 -0.7832
10535TIP3   OH231565   5.856   6.710   6.174  0.1017  0.1855 -0.4478
10535TIP3    H131566   5.782   6.741   6.122 -0.2743 -0.3563 -0.2417
10535TIP3    H231567   5.829   6.725   6.265  0.3865  0.3081 -0.3834
10536TIP3   OH231568   1.905   3.508   0.453 -0.2326  0.2524  0.6918
10536TIP3    H131569   1.922   3.432   0.398 -0.7525 -0.0761  0.9872
10536TIP3    H231570   1.829   3.551   0.413  0.9851  1.4807 -0.3711
10537TIP3   OH231571   1.672   2.865   0.353 -0.7273 -0.2949  0.1293
10537TIP3    H131572   1.692   2.932   0.418  1.4065 -0.3186 -0.4604
10537TIP3    H231573   1.665   2.913   0.270  0.0483 -0.6857 -0.1728
10538TIP3   OH231574   2.377   5.118   0.575 -0.3497 -0.0663 -0.4643
10538TIP3    H131575   2.456   5.103   0.627 -0.2477  1.3894 -0.1870
10538TIP3    H231576   2.307   5.076   0.626  0.2547 -1.4807 -0.7819
10539TIP3   OH231577   3.061   6.400   5.349 -0.4758 -0.0314 -0.0808
10539TIP3    H131578   2.986   6.421   5.405 -1.0654 -0.5732 -0.6560
10539TIP3    H231579   3.032   6.421   5.261 -0.4086 -1.4466 -0.4541
10540TIP3   OH231580   0.926   3.267   0.951 -0.0748 -0.7338  0.1914
10540TIP3    H131581   0.927   3.202   0.881 -2.5103  0.1591 -0.7198
10540TIP3    H231582   1.010   3.312   0.942  0.4416 -1.8876 -0.9658
10541TIP3   OH231583   3.160   7.328   5.689  0.2025  0.4577  0.1428
10541TIP3    H131584   3.134   7.246   5.646  1.9298 -0.1059  0.1476
10541TIP3    H231585   3.098   7.337   5.762 -0.4319 -0.4816 -0.2719
10542TIP3   OH231586   5.593   6.814   5.041 -0.2682 -0.2417 -0.1836
10542TIP3    H131587   5.605   6.747   4.973  0.5055 -0.0895 -0.2027
10542TIP3    H231588   5.514   6.861   5.015 -1.1665 -1.5390  0.1504
10543TIP3   OH231589   2.193   3.220   0.933 -0.3942 -0.4795  0.3699
10543TIP3    H131590   2.194   3.257   0.844 -0.0881  0.2669  0.6790
10543TIP3    H231591   2.199   3.296   0.990 -0.7723 -0.9499  1.0381
10544TIP3   OH231592   6.590   5.538   5.515 -0.0160 -0.3120  0.3035
10544TIP3    H131593   6.594   5.552   5.420 -0.4678 -1.0879  0.1625
10544TIP3    H231594   6.562   5.447   5.524  1.6270 -0.7622  1.1640
10545TIP3   OH231595   4.904   6.372   6.178  0.5741 -0.1014 -0.3079
10545TIP3    H131596   4.860   6.376   6.093 -1.7352  2.1442  0.9112
10545TIP3    H231597   4.851   6.311   6.230  1.3286 -0.5969 -0.1065
10546TIP3   OH231598   2.202   2.289   0.558 -0.2981  0.2123 -0.0332
10546TIP3    H131599   2.294   2.299   0.535 -0.5810  1.3043 -0.7450
10546TIP3    H231600   2.155   2.340   0.492 -1.3862  0.0351  0.5842
10547TIP3   OH231601   3.043   0.823   0.976  0.0611  0.4247 -0.2449
10547TIP3    H131602   3.034   0.754   0.911  0.3627  0.7596 -0.6409
10547TIP3    H231603   2.994   0.897   0.940 -0.3838  0.3771  0.2442
10548TIP3   OH231604   1.562   5.614   0.477  0.4738  0.5844 -0.1803
10548TIP3    H131605   1.540   5.658   0.394  3.9314 -2.5961 -2.9522
10548TIP3    H231606   1.503   5.538   0.479  0.1737  0.8309  0.4774
10549TIP3   OH231607   4.282   4.655   5.653  0.0514 -0.2157 -0.1246
10549TIP3    H131608   4.305   4.724   5.715 -2.7573  2.5989 -2.0965
10549TIP3    H231609   4.187   4.650   5.656 -0.0463 -1.0952 -3.0281
10550TIP3   OH231610   2.406   7.318   4.774 -0.1251 -0.9568 -0.5398
10550TIP3    H131611   2.429   7.301   4.865 -1.0356 -2.0308 -0.4999
10550TIP3    H231612   2.316   7.288   4.766 -0.0825 -0.7895 -1.7794
10551TIP3   OH231613   6.047   1.457   3.980  0.2834  0.1507  0.0844
10551TIP3    H131614   6.134   1.418   3.972  0.3123  0.0425  0.8907
10551TIP3    H231615   5.988   1.392   3.943  0.5423  0.2185 -0.4505
10552TIP3   OH231616   5.421   2.487   4.471 -0.1213 -0.0580  0.3484
10552TIP3    H131617   5.391   2.560   4.525 -0.1640 -1.6329  2.5252
10552TIP3    H231618   5.496   2.451   4.518  0.1725 -1.1476 -0.9140
10553TIP3   OH231619   0.303   2.940   0.471  0.2170 -0.0148 -0.0038
10553TIP3    H131620   0.288   2.919   0.379  0.8145  0.2652 -0.1656
10553TIP3    H231621   0.345   3.025   0.470 -0.7116  0.4603  0.5794
10554TIP3   OH231622   2.930   6.594   5.961  0.0220 -0.1010 -0.4670
10554TIP3    H131623   2.945   6.545   5.880 -1.4221 -1.4749  0.0737
10554TIP3    H231624   2.995   6.664   5.959  2.1674 -2.0688 -1.2341
10555TIP3   OH231625   7.383   0.814   3.846 -0.0751  0.2244  0.1441
10555TIP3    H131626   7.290   0.793   3.858  0.1558 -0.3489  0.9734
10555TIP3    H231627   7.383   0.894   3.794 -1.0383  0.2589  0.1933
10556TIP3   OH231628   1.204   0.422   6.096  0.5133  0.0721 -0.2328
10556TIP3    H131629   1.213   0.423   6.001  2.5592  0.7316 -0.0751
10556TIP3    H231630   1.179   0.512   6.118 -1.4175 -0.4453 -0.2427
10557TIP3   OH231631   2.833   7.270   6.076  0.0536 -0.6916 -0.3926
10557TIP3    H131632   2.742   7.287   6.052  0.1951  0.0951 -0.3711
10557TIP3    H231633   2.828   7.230   6.163 -0.2628 -0.5878 -0.3637
10558TIP3   OH231634   0.080   0.550   5.787  0.4206  0.8539 -0.1977
10558TIP3    H131635   0.115   0.612   5.851  2.1682  1.2290 -1.4674
10558TIP3    H231636   0.023   0.602   5.732 -3.4376 -0.0493  2.7701
10559TIP3   OH231637   1.708   3.281   2.772  0.3589  0.2174  0.1508
10559TIP3    H131638   1.742   3.317   2.690 -0.2340 -0.2059 -0.2773
10559TIP3    H231639   1.703   3.357   2.830  0.6150  0.5480 -0.2555
10560TIP3   OH231640   3.380   6.700   5.595  0.0159  0.1283  0.0193
10560TIP3    H131641   3.403   6.668   5.683 -1.7319  0.6215  0.6839
10560TIP3    H231642   3.354   6.791   5.609 -0.5922  0.1108 -0.9500
10561TIP3   OH231643   1.603   1.146   1.383 -0.6432 -0.2459  0.2924
10561TIP3    H131644   1.566   1.188   1.306 -1.2587 -0.0950  0.6695
10561TIP3    H231645   1.697   1.144   1.366 -0.9800 -2.3456 -1.5047
10562TIP3   OH231646   0.708   0.325   5.340 -0.4783 -0.5548  0.3225
10562TIP3    H131647   0.659   0.270   5.279  0.1070  0.3019 -0.9428
10562TIP3    H231648   0.793   0.339   5.297 -0.0236 -0.0090  1.3702
10563TIP3   OH231649   1.005   0.558   4.661  0.1044 -0.1656  0.4221
10563TIP3    H131650   1.096   0.589   4.669 -0.1289  0.2553  1.5166
10563TIP3    H231651   1.002   0.515   4.575  1.2704  0.0490  0.2629
10564TIP3   OH231652   3.581   3.066   0.749  0.0523 -0.0343 -0.1101
10564TIP3    H131653   3.517   3.057   0.820  1.4415 -5.5300  0.6582
10564TIP3    H231654   3.534   3.036   0.671  1.3775 -3.4550  0.3410
10565TIP3   OH231655   6.952   1.892   5.416  0.6464 -0.1900 -0.7913
10565TIP3    H131656   6.947   1.971   5.470 -0.2780 -1.6459  1.3096
10565TIP3    H231657   6.981   1.923   5.330 -0.5134  2.5338 -0.2297
10566TIP3   OH231658   2.083   2.331   0.807 -0.2582 -0.1816  0.1492
10566TIP3    H131659   2.123   2.299   0.726 -3.6534 -1.6931 -1.0335
10566TIP3    H231660   2.106   2.265   0.872  0.4292 -0.2553 -0.1649
10567TIP3   OH231661   0.593   4.237   0.207 -0.5777 -0.4576  1.0348
10567TIP3    H131662   0.609   4.254   0.114 -0.9792  0.3648  1.1130
10567TIP3    H231663   0.507   4.276   0.223  0.6592  1.7552  2.3896
10568TIP3   OH231664   6.449   7.279   6.133 -0.2265 -0.0270  0.3446
10568TIP3    H131665   6.420   7.335   6.061 -0.4929 -0.7653 -0.1283
10568TIP3    H231666   6.413   7.321   6.211  1.7300  1.8955  0.2782
10569TIP3   OH231667   5.633   6.810   4.385  0.7253 -0.3076  0.1452
10569TIP3    H131668   5.567   6.816   4.453 -0.5556  2.7184 -1.2389
10569TIP3    H231669   5.604   6.738   4.329 -0.2767 -0.3217  0.6825
10570TIP3   OH231670   2.857   6.533   5.513  0.4907  0.1581 -0.4284
10570TIP3    H131671   2.875   6.594   5.584  1.6847  0.1335 -0.7026
10570TIP3    H231672   2.764   6.512   5.523  0.8847 -0.7478  1.8371
10571TIP3   OH231673   5.178   6.288   5.601  0.0848  0.0259  0.5007
10571TIP3    H131674   5.126   6.213   5.571 -0.4952  0.3629  0.6558
10571TIP3    H231675   5.159   6.294   5.694 -0.7562  1.0662  0.2666
10572TIP3   OH231676   3.039   5.494   5.604 -0.1098 -0.5643  0.4688
10572TIP3    H131677   2.958   5.543   5.614  0.0577  0.2946 -2.0861
10572TIP3    H231678   3.013   5.410   5.565  0.1401 -0.5499  0.2636
10573TIP3   OH231679   6.622   6.305   3.558 -0.0625  0.2600 -0.4947
10573TIP3    H131680   6.670   6.223   3.570 -0.2854  0.1492 -0.3606
10573TIP3    H231681   6.655   6.339   3.475 -0.5022 -0.3401 -0.9231
10574TIP3   OH231682   2.847   2.135   0.711 -0.4121  0.1193  0.5424
10574TIP3    H131683   2.881   2.139   0.621  2.4966 -1.1151  1.5087
10574TIP3    H231684   2.863   2.222   0.746 -0.9282  0.4045  0.0730
10575TIP3   OH231685   2.967   4.226   0.035 -0.5603 -0.1596 -0.3482
10575TIP3    H131686   2.973   4.321   0.040 -1.1678 -0.1719  0.6350
10575TIP3    H231687   2.979   4.206  -0.058 -1.8327  0.9649 -0.7587
10576TIP3   OH231688   0.619   0.558   3.912 -0.0390 -0.0566  0.6675
10576TIP3    H131689   0.665   0.586   3.991  0.7276  2.2856 -0.5417
10576TIP3    H231690   0.689   0.540   3.849 -0.6529 -1.3549  0.3546
10577TIP3   OH231691   0.455   0.416   4.560 -0.1044  0.4859  0.5115
10577TIP3    H131692   0.372   0.424   4.514 -0.4402 -1.9234  0.6513
10577TIP3    H231693   0.431   0.406   4.652  0.2842 -1.1332  0.4466
10578TIP3   OH231694   1.193   3.448   0.895 -0.3051  0.2783 -0.2747
10578TIP3    H131695   1.284   3.470   0.874 -1.1325  2.7256 -1.4766
10578TIP3    H231696   1.175   3.495   0.977 -0.6630  0.3475 -0.3892
10579TIP3   OH231697   6.100   6.092   5.769 -0.3410 -0.1781 -0.5705
10579TIP3    H131698   6.006   6.107   5.775 -0.6345 -1.2030 -2.1565
10579TIP3    H231699   6.132   6.161   5.711  0.0919  0.8869  0.9101
10580TIP3   OH231700   1.368   2.666   0.330 -0.1757 -0.2041 -0.5292
10580TIP3    H131701   1.411   2.701   0.408  1.8309 -0.0072 -1.6964
10580TIP3    H231702   1.412   2.583   0.312 -2.8114 -1.8681  0.3995
10581TIP3   OH231703   3.657   6.784   5.496 -0.2558  0.4686  0.0300
10581TIP3    H131704   3.677   6.868   5.456 -0.6058  0.3942 -0.3050
10581TIP3    H231705   3.561   6.783   5.501 -0.2070  0.5962  1.1130
10582TIP3   OH231706   5.171   6.611   5.801  0.1962  0.3168 -0.3197
10582TIP3    H131707   5.094   6.651   5.760 -0.7190 -0.1552  0.9055
10582TIP3    H231708   5.244   6.637   5.745 -0.5202  2.7958 -0.1698
10583TIP3   OH231709   3.724   2.228   0.352  0.3984 -0.6741 -0.1735
10583TIP3    H131710   3.710   2.317   0.320  0.6873 -0.8801 -0.8980
10583TIP3    H231711   3.741   2.177   0.272  1.5831 -1.1130  0.3503
10584TIP3   OH231712   3.956   5.028   5.108  0.2404  0.7232 -0.2784
10584TIP3    H131713   3.868   5.065   5.102  0.0086  0.0983 -0.9093
10584TIP3    H231714   3.961   4.968   5.033  0.8952  0.1037  0.2588
10585TIP3   OH231715   3.261   5.864   4.251  0.5771  0.2279 -1.3340
10585TIP3    H131716   3.327   5.875   4.319 -2.2620  1.2977  1.4014
10585TIP3    H231717   3.257   5.769   4.236  0.2569 -0.1853  1.1131
10586TIP3   OH231718   7.112   2.859   0.731 -0.3748 -0.9564 -0.4235
10586TIP3    H131719   7.069   2.943   0.717 -0.9361 -1.0925  0.4590
10586TIP3    H231720   7.052   2.795   0.691  0.9727 -0.7849 -2.8463
10587TIP3   OH231721   4.814   7.290   5.802 -0.4329 -0.3705  0.1851
10587TIP3    H131722   4.842   7.202   5.826 -1.7154 -0.7162  0.4335
10587TIP3    H231723   4.794   7.333   5.885 -0.5574 -0.0995  0.0175
10588TIP3   OH231724   2.581   4.063   2.895 -0.6431 -0.2474  0.0535
10588TIP3    H131725   2.540   3.988   2.939 -0.7655  0.4807  1.1932
10588TIP3    H231726   2.510   4.103   2.844 -1.1677  0.5372  1.3857
10589TIP3   OH231727   3.679   6.176   6.278  0.6764  0.2439  0.0440
10589TIP3    H131728   3.643   6.254   6.236 -1.2309 -0.7461 -0.2111
10589TIP3    H231729   3.673   6.194   6.371 -0.1372  0.2469 -0.0060
10590TIP3   OH231730   6.836   0.370   2.750 -0.1280 -0.4803 -0.3523
10590TIP3    H131731   6.910   0.311   2.764 -0.9536 -1.3666  0.4274
10590TIP3    H231732   6.769   0.314   2.709 -0.3209  0.3369 -1.1697
10591TIP3   OH231733   4.619   5.361   4.175 -0.0337 -0.6222  0.1422
10591TIP3    H131734   4.659   5.401   4.098 -0.6033 -0.4771 -0.0752
10591TIP3    H231735   4.685   5.373   4.244 -0.1010  0.4971  0.0313
10592TIP3   OH231736   1.404   3.003   0.500  0.0154  0.4473  0.2843
10592TIP3    H131737   1.407   2.917   0.543 -2.3526  1.4914  2.6693
10592TIP3    H231738   1.414   2.983   0.407 -2.8314 -2.7271  0.5465
10593TIP3   OH231739   4.325   7.013   6.297 -0.2463 -0.1520 -0.7915
10593TIP3    H131740   4.284   6.964   6.225 -0.2620 -2.5587  0.7961
10593TIP3    H231741   4.264   7.003   6.370  1.5460 -0.8670  0.6140
10594TIP3   OH231742   6.961   0.436   5.285 -0.3308 -0.0901  0.8008
10594TIP3    H131743   6.907   0.480   5.219  0.8895  0.5407  0.1980
10594TIP3    H231744   6.993   0.507   5.340  2.6282 -0.0150 -0.8833
10595TIP3   OH231745   6.659   1.375   4.530 -0.2108  0.0667 -0.4194
10595TIP3    H131746   6.619   1.305   4.479  2.0896 -1.8661  0.3260
10595TIP3    H231747   6.719   1.329   4.590 -0.3888  2.4989  1.7086
10596TIP3   OH231748   7.245   2.339   0.456  0.0557 -0.1429  0.1426
10596TIP3    H131749   7.235   2.427   0.494 -0.4548 -0.1004 -0.0854
10596TIP3    H231750   7.157   2.314   0.431  0.1655 -0.8492  0.4771
10597TIP3   OH231751   5.596   5.440   6.013  0.1246  0.1161  0.3355
10597TIP3    H131752   5.686   5.460   6.040 -0.0370 -2.7291  3.1698
10597TIP3    H231753   5.543   5.509   6.054  0.8467  1.1246 -0.3896
10598TIP3   OH231754   4.363   6.313   5.686  1.0242 -0.2803 -0.0008
10598TIP3    H131755   4.390   6.404   5.673  2.3496 -0.3311  2.0938
10598TIP3    H231756   4.356   6.277   5.597 -0.3599  2.0711 -0.8877
10599TIP3   OH231757   7.110   5.640   5.395  0.1958 -0.2864  0.1760
10599TIP3    H131758   7.090   5.547   5.391 -0.5192 -0.0497 -2.2618
10599TIP3    H231759   7.041   5.677   5.452  0.2300 -1.1648  0.7918
10600TIP3   OH231760   7.576   1.251   4.569  0.1911  0.1112  0.0956
10600TIP3    H131761   7.608   1.172   4.525 -0.4596 -0.4447  0.6038
10600TIP3    H231762   7.606   1.242   4.659 -2.2940 -0.9476  0.8442
10601TIP3   OH231763   7.271   6.388   4.042 -0.1988 -0.3801  0.0774
10601TIP3    H131764   7.225   6.369   3.960 -1.0636  3.1229 -0.3409
10601TIP3    H231765   7.294   6.302   4.077 -2.0222 -2.0404 -2.5804
10602TIP3   OH231766   3.137   6.738   5.103  0.5477  0.8893 -0.2263
10602TIP3    H131767   3.166   6.826   5.076 -1.1388  1.6526  0.3627
10602TIP3    H231768   3.157   6.734   5.196  0.5735  0.6670 -0.2419
10603TIP3   OH231769   4.362   3.966   5.508 -0.0550  0.2727  0.2109
10603TIP3    H131770   4.340   4.017   5.430 -1.7820  0.6830  0.9391
10603TIP3    H231771   4.340   4.024   5.582  0.9821 -0.3382  1.0141
10604TIP3   OH231772   2.828   6.401   3.548 -0.6718 -0.2766  0.3788
10604TIP3    H131773   2.768   6.447   3.607 -1.7541 -2.3020  0.8961
10604TIP3    H231774   2.775   6.385   3.470  0.6089  1.9605 -1.0087
10605TIP3   OH231775   2.807   6.597   1.473  0.0185 -0.5163 -0.1724
10605TIP3    H131776   2.717   6.569   1.457  0.3261 -1.5666 -0.1068
10605TIP3    H231777   2.857   6.515   1.477  0.4248 -0.1438  3.2546
10606TIP3   OH231778   4.494   5.532   6.285  0.1726 -0.3783  0.0946
10606TIP3    H131779   4.543   5.532   6.367  0.9982 -1.1400 -0.3988
10606TIP3    H231780   4.445   5.614   6.287  2.2257  0.8776  0.1491
10607TIP3   OH231781   3.027   3.351   0.717  0.8426  0.7624  0.2009
10607TIP3    H131782   2.931   3.353   0.726  0.7449  0.5433 -0.7802
10607TIP3    H231783   3.057   3.305   0.796  0.1880  1.3709  0.8211
10608TIP3   OH231784   0.315   4.765   0.676  0.0872 -0.1927  0.8783
10608TIP3    H131785   0.315   4.671   0.693  2.3722 -0.5076 -0.7617
10608TIP3    H231786   0.403   4.794   0.699  0.1902  1.0914 -1.0843
10609TIP3   OH231787   0.397   1.315   4.939 -0.2077  0.3170  0.0718
10609TIP3    H131788   0.316   1.289   4.896 -0.3921  0.6956  0.1864
10609TIP3    H231789   0.370   1.350   5.024 -0.0096  1.2594 -0.2394
10610TIP3   OH231790   1.008   0.879   5.703 -0.0019  0.3910  0.2220
10610TIP3    H131791   0.978   0.946   5.765  1.2100 -0.7655  2.1395
10610TIP3    H231792   1.088   0.844   5.743 -0.3537 -1.8652 -0.9566
10611TIP3   OH231793   0.255   0.894   1.007 -0.1105  0.2204  0.0257
10611TIP3    H131794   0.232   0.924   0.919  0.1039 -1.1476 -0.5049
10611TIP3    H231795   0.350   0.880   1.004 -0.0182  0.6821  0.6368
10612TIP3   OH231796   0.418   1.150   5.986 -0.4243 -0.3726  0.1262
10612TIP3    H131797   0.462   1.230   5.959  1.5102 -0.4736  2.7112
10612TIP3    H231798   0.332   1.179   6.017 -0.0508  0.5972  0.2790
10613TIP3   OH231799   0.582   3.648   0.183  0.1001  0.0929  0.4322
10613TIP3    H131800   0.652   3.712   0.195  0.5234 -0.9459  3.8721
10613TIP3    H231801   0.616   3.589   0.116  2.1596  0.1191  1.4112
10614TIP3   OH231802   1.315   0.239   5.369  0.0557  0.4500 -0.6903
10614TIP3    H131803   1.380   0.170   5.382  0.7251  1.3716  1.0485
10614TIP3    H231804   1.289   0.230   5.278  1.8698 -0.6041 -1.1410
10615TIP3   OH231805   6.091   0.856   5.580 -0.4184  0.1155 -0.7298
10615TIP3    H131806   6.088   0.765   5.553  0.7192  0.7613 -3.1166
10615TIP3    H231807   6.027   0.900   5.524 -2.2217  0.5640  1.5433
10616TIP3   OH231808   4.285   0.730   5.833  0.6322 -0.2085 -0.0755
10616TIP3    H131809   4.280   0.823   5.852 -1.1933 -0.5746  1.4382
10616TIP3    H231810   4.306   0.725   5.740 -2.7419  1.7475 -1.0185
10617TIP3   OH231811   2.781   3.619   0.619 -0.2652  0.1293  0.3150
10617TIP3    H131812   2.859   3.637   0.670 -0.0752  1.0816 -0.2881
10617TIP3    H231813   2.733   3.553   0.669  0.3098  0.4662  1.3066
10618TIP3   OH231814   6.111   5.818   5.756 -0.0212  0.3268  0.3606
10618TIP3    H131815   6.115   5.912   5.771 -0.2882  0.8029 -2.3168
10618TIP3    H231816   6.017   5.797   5.759 -0.0440  0.3497 -0.0820
10619TIP3   OH231817   7.381   0.950   5.026 -0.4852 -0.3582 -0.7438
10619TIP3    H131818   7.306   0.926   4.971 -0.8343  1.2823 -1.0023
10619TIP3    H231819   7.345   0.951   5.115 -0.9590  1.1195 -0.9402
10620TIP3   OH231820   7.446   0.024   5.220 -0.9088 -0.3065 -0.6021
10620TIP3    H131821   7.437   0.110   5.178  0.0286 -0.5049 -1.2321
10620TIP3    H231822   7.357   0.001   5.247 -1.1835  0.8309 -0.4817
10621TIP3   OH231823   4.626   5.915   3.635  0.6666 -0.8225  0.3519
10621TIP3    H131824   4.591   5.826   3.640 -0.3862 -0.3849  0.9846
10621TIP3    H231825   4.630   5.945   3.726  1.3047 -0.3316  0.1680
10622TIP3   OH231826   2.603   2.736   0.438 -0.2889 -0.5156 -0.1924
10622TIP3    H131827   2.511   2.752   0.419 -0.4154 -1.4181 -0.3427
10622TIP3    H231828   2.646   2.820   0.419 -1.0831 -0.0704 -0.0490
10623TIP3   OH231829   7.002   4.086   0.965  0.5431  0.4174 -0.2322
10623TIP3    H131830   7.062   4.013   0.981 -1.0358 -1.0852 -1.0793
10623TIP3    H231831   7.007   4.139   1.044 -0.4004 -2.1087  1.5801
10624TIP3   OH231832   7.237   2.090   0.765 -0.4267  0.1646  0.0362
10624TIP3    H131833   7.278   2.113   0.849 -0.5306 -0.4273  0.2440
10624TIP3    H231834   7.146   2.118   0.774 -0.6653 -0.7311  0.4548
10625TIP3   OH231835   1.912   1.959   0.241 -0.1391 -0.1128 -0.2801
10625TIP3    H131836   1.885   1.896   0.308  1.0067  1.0749  1.3161
10625TIP3    H231837   2.003   1.937   0.222  0.3439  1.1785  0.4583
10626TIP3   OH231838   6.458   1.069   5.726  0.6452 -0.0771  0.1755
10626TIP3    H131839   6.429   0.986   5.688  1.9934 -0.7815  0.6643
10626TIP3    H231840   6.410   1.136   5.677 -0.1038 -1.1184 -0.5355
10627TIP3   OH231841   3.911   6.926   5.232 -0.1063  0.1921 -0.1901
10627TIP3    H131842   3.974   6.907   5.303 -0.0884  1.5983  0.1733
10627TIP3    H231843   3.963   6.971   5.166 -1.1355  3.1414  0.9628
10628TIP3   OH231844   6.354   0.081   5.572  0.2459 -0.6181  0.0456
10628TIP3    H131845   6.313   0.120   5.649 -1.6898 -0.1338 -1.2145
10628TIP3    H231846   6.448   0.079   5.594  0.0673  2.0381  1.3199
10629TIP3   OH231847   1.134   2.562   0.952  0.0403 -0.6381 -0.0899
10629TIP3    H131848   1.048   2.522   0.942  0.5391 -1.0985 -2.8667
10629TIP3    H231849   1.189   2.492   0.987 -0.2341 -0.9726 -0.3179
10630TIP3   OH231850   5.369   7.269   5.103  0.4689 -0.6213  0.1272
10630TIP3    H131851   5.323   7.309   5.176 -0.3260  1.0731 -1.2494
10630TIP3    H231852   5.445   7.226   5.143 -0.6680 -0.8694  2.0667
10631TIP3   OH231853   2.995   6.484   5.079 -0.1713  0.1084 -0.5252
10631TIP3    H131854   3.040   6.566   5.099 -1.1588  0.3262  0.8869
10631TIP3    H231855   2.903   6.509   5.070 -0.4524 -0.8067 -0.2499
10632TIP3   OH231856   1.315   4.053   1.291  0.1921 -0.1529  0.1765
10632TIP3    H131857   1.287   4.063   1.200  1.0935 -2.1574 -0.3654
10632TIP3    H231858   1.236   4.026   1.337  0.4042 -2.3946 -0.6817
10633TIP3   OH231859   4.656   5.968   3.899 -0.2400 -0.0518 -0.7025
10633TIP3    H131860   4.596   5.929   3.962  1.5838 -1.6646  0.0969
10633TIP3    H231861   4.679   6.053   3.937 -1.3540  0.2165 -0.6141
10634TIP3   OH231862   0.674   2.056   5.071 -0.0623 -0.1059  0.5139
10634TIP3    H131863   0.745   2.028   5.128  0.0048  1.7464  1.3884
10634TIP3    H231864   0.614   2.103   5.129 -0.5257  0.8884 -0.7433
10635TIP3   OH231865   7.437   0.546   3.803  0.5544 -0.2272  0.2041
10635TIP3    H131866   7.504   0.541   3.735 -0.9029 -0.4325 -1.2475
10635TIP3    H231867   7.419   0.639   3.813  2.1624 -0.0703  1.7102
10636TIP3   OH231868   1.994   3.027   1.702 -0.1034 -0.5033  0.1948
10636TIP3    H131869   2.063   2.981   1.654 -1.8189 -1.0650 -1.8245
10636TIP3    H231870   1.936   2.957   1.733 -1.0271  0.0868 -0.1851
10637TIP3   OH231871   7.400   0.080   3.880  0.3467  0.1307 -0.3432
10637TIP3    H131872   7.451   0.140   3.826  0.9773  0.6422  0.8011
10637TIP3    H231873   7.309   0.100   3.859  0.5401  1.7769  0.3316
10638TIP3   OH231874   6.529   5.300   3.996 -0.2406  0.6598 -0.3722
10638TIP3    H131875   6.449   5.253   3.975  0.0526 -0.6254  1.2887
10638TIP3    H231876   6.505   5.361   4.065  0.1691  0.3939  0.0101
10639TIP3   OH231877   1.361   4.051   0.651  0.7335  0.0160  0.2558
10639TIP3    H131878   1.447   4.009   0.660  1.0805 -0.1340 -3.1582
10639TIP3    H231879   1.310   3.990   0.598 -0.3479  1.7058 -0.6798
10640TIP3   OH231880   3.848   5.188   2.036 -0.1614  0.3550  0.3417
10640TIP3    H131881   3.824   5.193   1.943  1.5099 -0.7219 -0.1580
10640TIP3    H231882   3.882   5.275   2.056  1.4343 -0.0407 -0.6164
10641TIP3   OH231883   4.046   2.475   0.028 -0.2383  0.0057  0.1586
10641TIP3    H131884   4.065   2.555   0.077 -0.1988 -0.2821  0.6091
10641TIP3    H231885   4.032   2.506  -0.062 -0.1919  0.5159  0.3221
10642TIP3   OH231886   4.197   3.793   6.296 -0.0818 -0.1161 -0.7610
10642TIP3    H131887   4.289   3.769   6.283 -0.4181  0.0050 -3.7973
10642TIP3    H231888   4.163   3.727   6.356  1.6450 -0.9663 -0.6837
10643TIP3   OH231889   1.205   4.083   0.988  0.1636  0.3685  0.2307
10643TIP3    H131890   1.222   4.025   0.914  0.9812  0.7664  0.0984
10643TIP3    H231891   1.117   4.117   0.972  1.1858  2.1972 -1.7577
10644TIP3   OH231892   4.377   7.270   5.128 -0.3478 -0.0955  0.4919
10644TIP3    H131893   4.285   7.285   5.105 -0.3890  0.3583  0.9462
10644TIP3    H231894   4.426   7.313   5.058 -0.4709  1.2938  1.2450
10645TIP3   OH231895   3.810   3.562   0.230 -0.0586  0.1606  0.4253
10645TIP3    H131896   3.853   3.642   0.260  1.8527 -1.1981  1.3873
10645TIP3    H231897   3.875   3.494   0.242 -2.0748 -1.7694  0.7850
10646TIP3   OH231898   6.477   5.427   4.250  0.3527 -0.1907  0.0460
10646TIP3    H131899   6.488   5.522   4.242  0.5791 -0.3897 -2.3345
10646TIP3    H231900   6.382   5.414   4.253  0.3001  0.0450 -0.5660
10647TIP3   OH231901   1.318   2.920   0.249  0.1257  0.2530 -0.1776
10647TIP3    H131902   1.341   2.923   0.156  0.9890  0.4558  0.0376
10647TIP3    H231903   1.310   2.827   0.268 -0.8955  0.2332 -0.6528
10648TIP3   OH231904   6.668   5.458   6.364  0.0382 -0.0049  0.0802
10648TIP3    H131905   6.690   5.375   6.406 -0.1542 -0.4427 -0.6857
10648TIP3    H231906   6.691   5.446   6.272 -2.4193 -0.1314 -0.5601
10649TIP3   OH231907   2.241   2.997   1.311 -0.1784 -0.4066 -0.3887
10649TIP3    H131908   2.148   3.011   1.332 -0.7428 -1.9377 -1.7483
10649TIP3    H231909   2.276   3.085   1.297 -1.1150  0.2740  1.3670
10650TIP3   OH231910   0.950   1.455   0.893 -0.3525  0.0193  0.1615
10650TIP3    H131911   0.887   1.526   0.901 -0.3608 -0.0703  0.8887
10650TIP3    H231912   1.033   1.498   0.874 -0.3195  0.2365  0.7888
10651TIP3   OH231913   2.229   3.985   0.824 -0.6983 -0.1168  0.3986
10651TIP3    H131914   2.229   3.924   0.898 -2.1656 -0.6028  0.0264
10651TIP3    H231915   2.184   3.937   0.754 -0.0691  0.6467 -0.5477
10652TIP3   OH231916   0.398   2.761   1.378 -0.6624  0.0891  0.4044
10652TIP3    H131917   0.459   2.796   1.442 -0.6990  1.6615 -0.4037
10652TIP3    H231918   0.452   2.714   1.315 -0.6544 -1.7145  1.7384
10653TIP3   OH231919   0.473   0.601   5.101  0.1133 -0.0127 -0.0821
10653TIP3    H131920   0.405   0.605   5.169 -1.1036  0.3155 -1.3054
10653TIP3    H231921   0.470   0.510   5.070  0.3663 -0.0449 -0.0163
10654TIP3   OH231922   0.096   1.309   5.624  0.2030  0.0837 -0.2036
10654TIP3    H131923   0.023   1.273   5.573 -0.5166  0.5087  0.5075
10654TIP3    H231924   0.082   1.276   5.713  2.0484 -1.5306 -0.4795
10655TIP3   OH231925   4.879   3.597   6.035  0.2523  0.4170  0.1868
10655TIP3    H131926   4.932   3.575   6.112  1.7857  1.8588 -0.4269
10655TIP3    H231927   4.943   3.615   5.967 -1.1044 -1.4367 -1.6198
10656TIP3   OH231928   1.971   0.143   0.464 -0.0433 -0.2669  0.7163
10656TIP3    H131929   2.010   0.197   0.395  0.3733 -0.5160  0.7606
10656TIP3    H231930   1.898   0.098   0.421 -0.2695  0.1752  0.6292
10657TIP3   OH231931   5.436   6.037   5.782 -0.8919 -0.2234  0.8345
10657TIP3    H131932   5.467   5.977   5.715 -1.0179 -0.6398  1.1525
10657TIP3    H231933   5.462   5.998   5.865  3.2677  2.4634  0.9645
10658TIP3   OH231934   3.083   1.293   0.176  0.9142  0.3253 -0.2940
10658TIP3    H131935   3.048   1.204   0.171  1.4979  0.0257  0.7604
10658TIP3    H231936   3.178   1.281   0.177  0.9837  0.8596  1.3371
10659TIP3   OH231937   0.449   2.718   1.763 -0.6085 -0.0948 -0.6474
10659TIP3    H131938   0.510   2.740   1.692 -0.9540 -0.7414 -1.1586
10659TIP3    H231939   0.394   2.796   1.772  0.2151  0.4442 -0.2670
10660TIP3   OH231940   2.892   4.336   0.310  0.3382 -0.5083  0.0451
10660TIP3    H131941   2.905   4.301   0.222 -0.7934  0.3148 -0.4666
10660TIP3    H231942   2.980   4.339   0.348  1.0270  0.4549 -1.5777
10661TIP3   OH231943   3.900   6.662   5.560  0.2030  0.5820  0.1151
10661TIP3    H131944   3.949   6.734   5.522  1.0615 -0.2269 -0.3352
10661TIP3    H231945   3.808   6.689   5.553  0.4546  1.1888 -0.9706
10662TIP3   OH231946   1.956   6.827   4.508 -0.2224  1.1110 -0.2247
10662TIP3    H131947   2.016   6.864   4.573  0.7494 -2.3761  0.9788
10662TIP3    H231948   2.008   6.762   4.461 -1.9900  0.8182 -1.8458
10663TIP3   OH231949   4.866   6.856   4.311  0.0601 -0.4376  0.5402
10663TIP3    H131950   4.956   6.832   4.335  0.6292  1.2766  0.1771
10663TIP3    H231951   4.857   6.947   4.339 -1.3748 -0.4049  0.0296
10664TIP3   OH231952   0.735   2.586   0.030 -0.0842  0.2633  0.1670
10664TIP3    H131953   0.681   2.531  -0.028  1.0081 -1.3139  0.5963
10664TIP3    H231954   0.784   2.523   0.083  2.4797  1.6259 -0.4915
10665TIP3   OH231955   4.158   7.237   5.430 -0.2454  0.2335  0.4421
10665TIP3    H131956   4.224   7.172   5.451 -2.2457 -1.7832  0.6085
10665TIP3    H231957   4.206   7.305   5.381  2.5727  0.4780  3.3946
10666TIP3   OH231958   7.743   1.151   5.241 -0.3266 -0.0413  0.3412
10666TIP3    H131959   7.838   1.142   5.238 -0.1170  1.9587  0.4381
10666TIP3    H231960   7.722   1.202   5.163 -1.2803 -0.0987  0.5563
10667TIP3   OH231961   1.397   3.800   0.201 -0.1954  0.0074  0.0006
10667TIP3    H131962   1.368   3.726   0.148  3.2948  0.3493 -2.5758
10667TIP3    H231963   1.377   3.878   0.148  0.2248  0.5888  0.6771
10668TIP3   OH231964   1.894   0.202   5.642  0.0797 -0.4095 -0.5296
10668TIP3    H131965   1.979   0.167   5.616  0.3797 -0.2963  0.2666
10668TIP3    H231966   1.833   0.170   5.576 -0.0118 -4.0802  1.1872
10669TIP3   OH231967   1.327   4.044   0.107 -0.3261  0.0196 -0.1025
10669TIP3    H131968   1.302   4.072   0.019 -0.1042  1.0652  0.1626
10669TIP3    H231969   1.270   4.095   0.165 -0.7068 -0.9190  0.3479
10670TIP3   OH231970   6.618   7.302   5.849 -0.9246 -0.1154  0.3439
10670TIP3    H131971   6.525   7.314   5.835 -1.5333 -1.1509  3.1308
10670TIP3    H231972   6.646   7.381   5.895 -0.0302  1.0232 -2.1299
10671TIP3   OH231973   0.809   3.831   0.994  0.2575 -0.0849  0.1343
10671TIP3    H131974   0.879   3.831   1.059 -0.3754  1.7532  0.8448
10671TIP3    H231975   0.844   3.781   0.921  2.3377  0.8417  0.4633
10672TIP3   OH231976   3.503   1.568   0.209  0.0170  0.2953 -0.3725
10672TIP3    H131977   3.577   1.617   0.244  0.0136  0.4221 -0.5392
10672TIP3    H231978   3.428   1.627   0.221 -0.2738 -0.3317  0.9357
10673TIP3   OH231979   4.040   6.019   5.137  0.2737  0.5252 -0.0871
10673TIP3    H131980   4.089   6.000   5.217 -0.0149 -0.0653 -0.0461
10673TIP3    H231981   4.029   6.114   5.137  0.9193  0.6023  0.1936
10674TIP3   OH231982   2.725   3.145   0.100 -0.2755  0.4446 -0.2574
10674TIP3    H131983   2.793   3.145   0.168 -0.8189 -1.6313  0.3194
10674TIP3    H231984   2.759   3.086   0.032 -0.1736  1.7524 -1.3802
10675TIP3   OH231985   5.232   7.284   5.577 -0.1289 -0.0205  0.2941
10675TIP3    H131986   5.257   7.215   5.639 -1.0781 -1.5553 -0.9943
10675TIP3    H231987   5.193   7.352   5.632 -0.3683 -1.0716  1.4606
10676TIP3   OH231988   2.127   2.945   1.003  0.2692 -0.1275 -0.5495
10676TIP3    H131989   2.081   2.861   1.009 -0.4294  0.0426 -2.7998
10676TIP3    H231990   2.061   3.009   1.030  1.7236 -0.4558  4.2106
10677TIP3   OH231991   1.468   1.480   2.413 -0.0009  0.2656 -0.3562
10677TIP3    H131992   1.482   1.392   2.377  2.7742  0.8564 -0.7650
10677TIP3    H231993   1.462   1.466   2.508 -1.7331 -0.5969 -0.5637
10678TIP3   OH231994   6.912   5.735   6.054  0.3692 -0.2155  0.1766
10678TIP3    H131995   6.927   5.773   6.140 -0.2256 -0.7032  0.5024
10678TIP3    H231996   6.997   5.697   6.029  0.6111  0.1585  0.4263
10679TIP3   OH231997   5.197   5.389   4.364  0.3506 -0.0450  0.0391
10679TIP3    H131998   5.197   5.311   4.420  0.2650  0.6814  1.0885
10679TIP3    H231999   5.112   5.387   4.320 -1.0969  1.1838  2.6206
10680TIP3   OH232000   2.665   5.126   3.760 -0.5018 -0.2162  0.1634
10680TIP3    H132001   2.681   5.094   3.671 -0.2404 -0.1193  0.1731
10680TIP3    H232002   2.607   5.201   3.748 -2.2119 -1.5176  0.2526
10681TIP3   OH232003   4.061   6.313   5.376 -0.3397  0.3547 -0.0817
10681TIP3    H132004   4.105   6.304   5.292 -0.0242  1.1456 -0.0030
10681TIP3    H232005   4.132   6.325   5.439 -0.6430  1.0096  0.1299
10682TIP3   OH232006   3.342   2.262   0.459  0.8591  0.1135 -0.0568
10682TIP3    H132007   3.359   2.226   0.372  1.1341 -0.0739  0.0736
10682TIP3    H232008   3.295   2.344   0.443  1.5721  0.4505 -0.4049
10683TIP3   OH232009   4.443   6.268   4.769 -0.7717 -0.0718 -0.6683
10683TIP3    H132010   4.378   6.321   4.724 -0.0652  0.5385 -0.9911
10683TIP3    H232011   4.396   6.189   4.796 -2.0166  1.0133  0.4241
10684TIP3   OH232012   0.988   4.314   0.796  0.4428  0.0376  0.0900
10684TIP3    H132013   1.017   4.319   0.887  1.5762  1.5218 -0.3385
10684TIP3    H232014   0.955   4.225   0.787  1.4507 -0.5213  1.6257
10685TIP3   OH232015   5.951   7.322   4.507 -0.1725  0.1160 -0.0892
10685TIP3    H132016   5.932   7.266   4.431 -1.2524  0.9032 -0.4109
10685TIP3    H232017   5.878   7.382   4.511 -0.1124  0.0941  1.5941
10686TIP3   OH232018   2.806   6.426   4.172  0.3837 -0.4639  0.1744
10686TIP3    H132019   2.847   6.438   4.086 -0.2998  1.4520  0.0976
10686TIP3    H232020   2.762   6.342   4.166  0.9009 -0.6584 -1.1346
10687TIP3   OH232021   7.283   0.523   5.636 -0.2935 -0.3465 -0.2245
10687TIP3    H132022   7.354   0.541   5.697 -0.9084 -0.1357  0.4433
10687TIP3    H232023   7.302   0.435   5.602  1.4344  0.5676 -1.7012
10688TIP3   OH232024   6.733   0.687   4.537 -0.0141 -0.7336 -0.5250
10688TIP3    H132025   6.814   0.730   4.562  0.4007 -1.2971 -0.8909
10688TIP3    H232026   6.753   0.644   4.455 -0.6418 -1.0054 -0.5378
10689TIP3   OH232027   1.260   3.621   0.026  0.0652  0.0650 -0.3506
10689TIP3    H132028   1.182   3.586   0.070  1.3041 -1.2327  0.8508
10689TIP3    H232029   1.281   3.556  -0.040 -0.3704  0.8505 -1.2759
10690TIP3   OH232030   3.987   7.123   5.816  0.0480 -0.2031  0.0665
10690TIP3    H132031   3.946   7.139   5.731 -0.4769 -1.8058 -0.0176
10690TIP3    H232032   4.055   7.190   5.824 -0.2963  0.3311 -1.3465
10691TIP3   OH232033   3.515   6.967   4.644 -0.1172  0.0696 -0.5499
10691TIP3    H132034   3.567   6.977   4.724 -0.9558 -0.8646  0.1354
10691TIP3    H232035   3.482   6.877   4.648 -1.6252  0.5760 -1.0580
10692TIP3   OH232036   0.126   2.452  -0.021  0.0564 -0.2243  0.4795
10692TIP3    H132037   0.103   2.521   0.042 -1.4709 -0.4898  0.2304
10692TIP3    H232038   0.202   2.409   0.018  1.7340  2.2834  0.1134
10693TIP3   OH232039   2.319   3.805   1.018  0.0019 -0.2586  0.5657
10693TIP3    H132040   2.316   3.826   1.111 -0.0677 -2.6843  1.1311
10693TIP3    H232041   2.247   3.743   1.004 -0.0329  0.1243 -1.1175
10694TIP3   OH232042   4.004   4.174   0.639 -0.0270 -0.0886  0.1394
10694TIP3    H132043   3.919   4.134   0.654  0.1021 -0.5045 -0.2507
10694TIP3    H232044   4.031   4.206   0.726 -1.2425  1.3774 -0.0122
10695TIP3   OH232045   7.602   0.137   5.715  0.0454 -0.3881 -0.3178
10695TIP3    H132046   7.528   0.087   5.750 -0.6788  1.2352  0.5211
10695TIP3    H232047   7.604   0.115   5.622 -0.8825 -1.2154 -0.1503
10696TIP3   OH232048   2.140   5.351   2.317  0.2414  0.7210  0.0591
10696TIP3    H132049   2.151   5.257   2.301  1.1532  0.7898  0.2160
10696TIP3    H232050   2.161   5.361   2.410  3.0993  1.5011 -0.6293
10697TIP3   OH232051   4.288   5.313   5.324  0.8296  0.6396  0.0312
10697TIP3    H132052   4.378   5.279   5.326  0.2772 -0.9421 -1.0357
10697TIP3    H232053   4.252   5.281   5.242 -0.8343  0.9735  0.6100
10698TIP3   OH232054   1.172   2.794   0.826 -0.4938  1.0358 -0.7101
10698TIP3    H132055   1.267   2.806   0.827 -0.5489  1.4146  0.3900
10698TIP3    H232056   1.157   2.713   0.874 -0.6646  0.4102 -1.7929
10699TIP3   OH232057   1.878   2.670   0.369 -0.5898  0.1159 -0.6266
10699TIP3    H132058   1.837   2.621   0.441 -1.2945  0.7393 -0.6037
10699TIP3    H232059   1.816   2.740   0.349  0.8027  1.5495 -0.0714
10700TIP3   OH232060   3.449   5.637   4.685  0.4905 -0.3393 -0.0769
10700TIP3    H132061   3.458   5.732   4.693  1.6247 -0.3518 -1.1002
10700TIP3    H232062   3.355   5.622   4.672  0.2392  0.5946  0.6689
10701TIP3   OH232063   1.287   3.279   0.548  0.1754 -0.2824 -0.5287
10701TIP3    H132064   1.293   3.226   0.627  0.0596  1.3033  0.5725
10701TIP3    H232065   1.222   3.234   0.494  0.1617 -1.3175  0.3281
10702TIP3   OH232066   1.829   4.998   0.287 -0.0518 -0.4065  0.4281
10702TIP3    H132067   1.819   5.063   0.357 -0.9147  1.3268 -1.2661
10702TIP3    H232068   1.907   5.027   0.239 -0.6216 -0.4430 -0.5228
10703TIP3   OH232069   5.448   5.701   4.924 -0.9048  0.4571  0.4187
10703TIP3    H132070   5.410   5.709   4.837  1.4462 -0.9141 -0.7941
10703TIP3    H232071   5.506   5.776   4.933  1.4607 -1.1763 -0.6240
10704TIP3   OH232072   4.599   4.172   4.815 -0.2359 -0.0596  0.1278
10704TIP3    H132073   4.545   4.250   4.833 -1.0743 -0.3322 -1.1768
10704TIP3    H232074   4.689   4.203   4.825 -0.5873  0.8238  0.6646
10705TIP3   OH232075   0.780   1.788   0.410 -0.1730 -0.5950 -0.0536
10705TIP3    H132076   0.741   1.794   0.323  0.9770  0.0402 -0.5418
10705TIP3    H232077   0.709   1.811   0.470 -0.5660  0.4713 -0.9117
10706TIP3   OH232078   5.267   5.787   4.660  0.2746 -0.5823  0.7890
10706TIP3    H132079   5.332   5.723   4.631  1.0485 -0.1547  1.5676
10706TIP3    H232080   5.205   5.793   4.587  1.8158 -0.0090 -0.4926
10707TIP3   OH232081   5.840   5.750   5.727  0.1489 -0.0656  0.1686
10707TIP3    H132082   5.825   5.657   5.748  2.4764 -0.3231  0.8539
10707TIP3    H232083   5.831   5.795   5.811  1.6787 -0.0377  0.3239
10708TIP3   OH232084   3.917   7.287   5.220 -0.3261 -0.0794  0.1789
10708TIP3    H132085   3.865   7.252   5.293  0.1761 -0.5002  0.3371
10708TIP3    H232086   3.917   7.382   5.234 -1.6594 -0.0117 -0.2266
10709TIP3   OH232087   5.010   6.413   3.203 -0.3036  0.7120  0.0541
10709TIP3    H132088   5.042   6.334   3.245 -0.7739 -0.2531 -1.3592
10709TIP3    H232089   5.084   6.445   3.151 -0.4746  0.5468 -0.2933
10710TIP3   OH232090   5.766   5.536   6.187  0.2364  0.5724  0.2043
10710TIP3    H132091   5.707   5.507   6.256 -0.2068  0.5715 -0.1736
10710TIP3    H232092   5.854   5.529   6.226  0.0874 -0.6259  0.3305
10711TIP3   OH232093   3.066   7.140   4.239 -0.9527 -0.6669 -0.2924
10711TIP3    H132094   3.031   7.076   4.301 -0.0866 -0.5372  0.3436
10711TIP3    H232095   3.158   7.148   4.263 -0.7864 -0.0564 -1.1242
10712TIP3   OH232096   3.541   6.124   5.695 -0.0659  0.1972  0.1460
10712TIP3    H132097   3.580   6.067   5.762 -1.0188 -1.6826 -0.8683
10712TIP3    H232098   3.596   6.202   5.696  3.0099 -1.8705 -0.3577
10713TIP3   OH232099   5.018   5.683   5.052  0.0632  0.5654 -0.3397
10713TIP3    H132100   5.011   5.725   4.967 -2.5646 -0.8784 -0.8985
10713TIP3    H232101   4.954   5.730   5.107 -1.5702 -1.4469 -0.4684
10714TIP3   OH232102   2.811   3.560   1.561  0.3765 -0.1383  0.6892
10714TIP3    H132103   2.734   3.618   1.568  1.4562  1.2375  1.4492
10714TIP3    H232104   2.775   3.472   1.568 -1.0917  0.5038  1.4857
10715TIP3   OH232105   1.012   3.551   0.138  0.0116  0.3099 -0.5688
10715TIP3    H132106   0.984   3.633   0.179 -0.6978 -0.0755 -0.2535
10715TIP3    H232107   0.934   3.495   0.144  0.8817 -0.8133  0.3705
10716TIP3   OH232108   0.568   0.033   5.279 -0.4036 -0.1089  0.2015
10716TIP3    H132109   0.611   0.075   5.204 -0.4532  1.2937  0.9479
10716TIP3    H232110   0.641   0.006   5.336 -0.4270  0.4224  0.4870
10717TIP3   OH232111   0.078   5.469   5.013 -0.0668  0.2551 -0.4246
10717TIP3    H132112   0.036   5.537   5.066  1.1517  1.4328 -0.9504
10717TIP3    H232113   0.134   5.422   5.075  0.3228  0.7640 -0.3899
10718TIP3   OH232114   0.201   7.157   2.397 -0.2092  0.1720 -0.6506
10718TIP3    H132115   0.137   7.132   2.464  0.6623 -1.1476 -0.2836
10718TIP3    H232116   0.283   7.166   2.446  0.0350  1.0933 -1.2345
10719TIP3   OH232117   0.004   0.848   3.596  0.5991 -0.1055 -0.2112
10719TIP3    H132118  -0.059   0.909   3.636  0.3605  0.0118 -0.7654
10719TIP3    H232119   0.077   0.846   3.657 -0.1786 -0.6701  0.7285
10720TIP3   OH232120   6.715   7.276   5.588  0.8075  0.9746 -0.3471
10720TIP3    H132121   6.687   7.295   5.677  0.3932  0.4952 -0.3765
10720TIP3    H232122   6.811   7.271   5.594  0.6790 -0.6494  0.3767
10721TIP3   OH232123   4.732   6.855   5.352  0.5951  0.1442 -0.0135
10721TIP3    H132124   4.828   6.855   5.362  0.5599  2.2859  0.5036
10721TIP3    H232125   4.701   6.911   5.423 -1.0024  0.0487 -0.6217
10722TIP3   OH232126   6.828   6.318   6.089  0.0609  0.5347 -0.0803
10722TIP3    H132127   6.812   6.306   6.183  1.6854  0.0468  0.1446
10722TIP3    H232128   6.807   6.234   6.050  1.2389  0.1493  0.1053
10723TIP3   OH232129   7.539   3.942   3.842  0.6225 -0.0723  0.0495
10723TIP3    H132130   7.573   3.854   3.861  1.3072  0.2942  0.5594
10723TIP3    H232131   7.617   3.998   3.843  0.0826  0.6782  0.5924
10724TIP3   OH232132   5.636   5.186   3.630 -0.3194  0.9763 -0.4101
10724TIP3    H132133   5.545   5.214   3.622 -0.3158  0.6826 -1.5179
10724TIP3    H232134   5.683   5.241   3.567  0.2522  1.0575  0.0854
10725TIP3   OH232135   2.183   0.857   4.383  0.1856 -0.2925 -0.0699
10725TIP3    H132136   2.247   0.871   4.452 -1.7707  0.5127  1.6225
10725TIP3    H232137   2.205   0.922   4.316  0.6252  0.5118  0.8526
10726TIP3   OH232138   2.829   3.897   0.544 -0.0789 -0.1694 -0.3130
10726TIP3    H132139   2.907   3.934   0.585  0.1860  0.3982 -1.3014
10726TIP3    H232140   2.836   3.803   0.561  1.5206 -0.2969 -1.5157
10727TIP3   OH232141   1.002   0.086   4.417 -0.0177 -0.1956 -0.0130
10727TIP3    H132142   1.005   0.167   4.469 -1.4803 -0.5953  0.7355
10727TIP3    H232143   0.908   0.073   4.400  0.1891 -1.8409  0.0563
10728TIP3   OH232144   1.067   0.196   6.130 -0.5280  0.1027  0.0635
10728TIP3    H132145   1.121   0.273   6.112 -0.8098  0.3454  0.2410
10728TIP3    H232146   1.088   0.173   6.220 -0.1700 -0.2533 -0.1093
10729TIP3   OH232147   3.383   5.573   0.649  0.1420  0.3260  0.1387
10729TIP3    H132148   3.320   5.538   0.711  1.3064 -0.8741  0.6664
10729TIP3    H232149   3.435   5.635   0.700  2.7651 -2.5297  1.0859
10730TIP3   OH232150   6.463   3.640   5.438 -0.1604  0.4225 -0.1290
10730TIP3    H132151   6.520   3.617   5.511  0.6172  0.3850 -0.7324
10730TIP3    H232152   6.469   3.735   5.432  1.0592  0.2919 -1.1535
10731TIP3   OH232153   1.981   3.537   0.745 -0.7501  0.4972 -0.3752
10731TIP3    H132154   1.921   3.473   0.786  0.2001  0.1313  0.4698
10731TIP3    H232155   1.949   3.546   0.655 -2.5701  0.9206  0.2918
10732TIP3   OH232156   1.643   0.214   3.507 -0.4183  0.2742 -0.0942
10732TIP3    H132157   1.610   0.210   3.597  1.1922 -0.4735  0.4770
10732TIP3    H232158   1.611   0.298   3.474 -0.3858  0.8956  1.4293
10733TIP3   OH232159   4.556   2.066   0.516 -0.5688 -0.5661 -0.1988
10733TIP3    H132160   4.578   1.985   0.562  1.2454  0.6882  1.2043
10733TIP3    H232161   4.481   2.101   0.565  0.6033  0.1596  1.1005
10734TIP3   OH232162   2.989   0.428   4.102 -0.0983 -0.1363  0.3116
10734TIP3    H132163   2.975   0.498   4.166 -0.9216 -0.5499  0.5787
10734TIP3    H232164   2.903   0.412   4.064  0.1248 -0.8681  0.1019
10735TIP3   OH232165   6.583   6.500   2.728 -0.0672 -0.5866 -0.0149
10735TIP3    H132166   6.611   6.412   2.754 -1.4574 -1.7729 -2.3407
10735TIP3    H232167   6.537   6.534   2.805  0.0999 -2.0666  0.7644
10736TIP3   OH232168   5.979   6.606   5.575  0.2212  0.5367 -0.1033
10736TIP3    H132169   5.951   6.666   5.644  1.9089  3.4293 -1.8355
10736TIP3    H232170   6.074   6.597   5.588  0.1701 -0.8058 -0.5872
10737TIP3   OH232171   7.153   6.499   5.360 -0.1194  0.4514  0.0019
10737TIP3    H132172   7.240   6.530   5.336 -0.1264 -1.0668 -2.1474
10737TIP3    H232173   7.169   6.420   5.412 -0.2061  0.3006 -0.1996
10738TIP3   OH232174   5.531   5.850   5.975  0.2984 -0.0991 -0.2704
10738TIP3    H132175   5.577   5.791   6.035  0.1184  0.6671  0.6291
10738TIP3    H232176   5.472   5.793   5.926 -0.0005 -0.6440  0.7133
10739TIP3   OH232177   1.730   5.423   0.148 -0.1038  0.6337  0.8432
10739TIP3    H132178   1.757   5.494   0.207 -1.2988  1.5712  0.2761
10739TIP3    H232179   1.692   5.357   0.206 -1.9091  1.8516  1.0575
10740TIP3   OH232180   4.181   6.940   6.024 -0.9864  0.4921  0.4715
10740TIP3    H132181   4.094   6.965   5.993 -1.2672  0.5125  1.2548
10740TIP3    H232182   4.234   6.932   5.945 -1.9055 -0.2930 -0.0590
10741TIP3   OH232183   2.466   2.482   0.869 -0.2059 -0.1518 -0.2398
10741TIP3    H132184   2.510   2.552   0.916 -1.6724  0.4915  0.2093
10741TIP3    H232185   2.489   2.496   0.777  0.2870  0.3483 -0.0366
10742TIP3   OH232186   0.655   0.285   4.058 -0.7698 -0.7478 -0.0717
10742TIP3    H132187   0.714   0.358   4.039 -2.3781  0.3414 -0.9892
10742TIP3    H232188   0.668   0.223   3.987  0.4566 -1.2897  0.6064
10743TIP3   OH232189   7.779   6.745   3.131  0.4189  0.1092 -0.6051
10743TIP3    H132190   7.817   6.833   3.128 -1.2403  0.9186  1.1787
10743TIP3    H232191   7.789   6.718   3.223 -3.4336  0.4224 -0.0282
10744TIP3   OH232192   0.070   4.948   4.265 -0.0161 -0.0039 -0.3224
10744TIP3    H132193  -0.019   4.979   4.281  0.1755  0.9644 -1.0740
10744TIP3    H232194   0.122   5.028   4.254  0.8929 -0.5616 -0.1987
10745TIP3   OH232195   2.145   1.992   3.853  0.4319 -0.1278 -0.5727
10745TIP3    H132196   2.194   1.934   3.912 -0.2446 -0.7808 -0.6427
10745TIP3    H232197   2.212   2.034   3.800  1.0533  0.4411  0.6333
10746TIP3   OH232198   3.838   5.845   5.138  0.3127  0.0922  0.0229
10746TIP3    H132199   3.890   5.925   5.146  0.8153 -0.3243  0.8929
10746TIP3    H232200   3.811   5.824   5.227  1.3495 -1.4849 -0.0134
10747TIP3   OH232201   0.440   1.021   4.131 -0.2140 -0.3200  0.0656
10747TIP3    H132202   0.504   1.047   4.197 -0.8634 -0.6074  0.8089
10747TIP3    H232203   0.490   1.021   4.049  1.0225 -1.6183  0.7914
10748TIP3   OH232204   5.971   6.499   4.701 -0.0126 -0.1296 -0.6410
10748TIP3    H132205   6.045   6.512   4.760 -0.1058 -1.1268 -0.2996
10748TIP3    H232206   5.899   6.548   4.742  0.0414 -0.4525 -0.1606
10749TIP3   OH232207   0.747   0.650   3.094  0.2701  0.5663 -0.1916
10749TIP3    H132208   0.757   0.640   2.999  0.4039  1.7623 -0.3097
10749TIP3    H232209   0.819   0.599   3.131 -0.3351 -0.6868 -0.6929
10750TIP3   OH232210   0.043   0.375   4.654  0.3266  0.0666 -0.3884
10750TIP3    H132211   0.077   0.464   4.648  1.9896 -0.4457  0.9581
10750TIP3    H232212   0.121   0.320   4.656 -0.6370 -1.3053  0.6085
10751TIP3   OH232213   7.705   6.753   4.645 -0.1459 -0.1185 -0.1768
10751TIP3    H132214   7.698   6.762   4.741  1.7764 -1.5810  0.1399
10751TIP3    H232215   7.619   6.719   4.618 -0.0472 -1.6454  1.3106
10752TIP3   OH232216   6.792   6.825   4.858  0.1561  0.1819  0.2154
10752TIP3    H132217   6.770   6.820   4.765  0.5286  1.7905  0.0299
10752TIP3    H232218   6.865   6.886   4.862 -1.3917  2.0046  1.8171
10753TIP3   OH232219   7.206   0.294   5.331  0.4510 -0.2536 -0.3156
10753TIP3    H132220   7.206   0.205   5.296  0.9124 -0.1879 -0.4847
10753TIP3    H232221   7.116   0.325   5.319  0.4114 -0.5197 -0.6952
10754TIP3   OH232222   7.220   6.242   3.383 -0.3686 -0.5744 -0.4508
10754TIP3    H132223   7.295   6.299   3.398 -0.6717 -0.5592  1.1229
10754TIP3    H232224   7.187   6.267   3.296  1.6337 -0.8217 -1.2943
10755TIP3   OH232225   3.617   3.393   0.091 -0.3083 -0.3756 -0.6035
10755TIP3    H132226   3.621   3.480   0.130  1.3882 -0.7982  0.2232
10755TIP3    H232227   3.699   3.384   0.042 -0.0351 -1.8468  0.0790
10756TIP3   OH232228   5.678   7.242   4.837 -0.2454  0.0951  0.3409
10756TIP3    H132229   5.617   7.170   4.823  0.7187 -0.4488 -1.1340
10756TIP3    H232230   5.762   7.199   4.854  0.0072  0.8602  1.0654
10757TIP3   OH232231   7.028   5.829   6.294  0.3571  0.0446  0.1969
10757TIP3    H132232   7.012   5.787   6.379  2.2905 -0.0187  0.5609
10757TIP3    H232233   6.992   5.917   6.304  0.3485 -0.0452  1.0060
10758TIP3   OH232234   7.356   6.137   4.592  0.1486 -0.7542  0.1915
10758TIP3    H132235   7.396   6.052   4.577 -3.6384 -2.5751 -0.1208
10758TIP3    H232236   7.311   6.127   4.676 -0.8704  0.7297 -0.1656
10759TIP3   OH232237   0.229   1.184   5.241  0.3370  0.7125  0.2646
10759TIP3    H132238   0.259   1.221   5.158  1.0739 -0.9826 -0.2278
10759TIP3    H232239   0.268   1.241   5.308  1.1239  1.0766 -0.5004
10760TIP3   OH232240   0.362   0.048   4.232 -0.0384  0.0793  0.7182
10760TIP3    H132241   0.377   0.141   4.214 -1.9164  0.4683  1.1119
10760TIP3    H232242   0.330   0.012   4.149  1.9123 -0.5198  0.1919
10761TIP3   OH232243   0.478   5.368   0.454  0.4379  0.0077  0.0271
10761TIP3    H132244   0.548   5.349   0.516  0.1447  0.7669  0.5918
10761TIP3    H232245   0.435   5.284   0.439  1.5021 -0.4645 -0.3544
10762TIP3   OH232246   3.495   7.231   3.790  0.1603  0.0169  0.1451
10762TIP3    H132247   3.406   7.243   3.822  0.1902  3.2150 -0.8163
10762TIP3    H232248   3.542   7.192   3.864 -1.5588  0.0669  1.2974
10763TIP3   OH232249   4.472   5.278   6.176  0.3946 -0.0269 -0.1103
10763TIP3    H132250   4.385   5.280   6.137 -0.0917  0.4453  0.9809
10763TIP3    H232251   4.481   5.363   6.218  0.0004 -1.3740  2.7775
10764TIP3   OH232252   5.907   0.189   3.787 -0.1005  0.1789 -0.3030
10764TIP3    H132253   5.911   0.111   3.843  1.3086 -0.0855 -0.7568
10764TIP3    H232254   5.871   0.157   3.704 -1.1900  0.3681  0.0825
10765TIP3   OH232255   7.176   0.585   4.321 -0.9859 -0.0345 -0.7426
10765TIP3    H132256   7.208   0.555   4.406  0.0353  0.8591 -0.7980
10765TIP3    H232257   7.160   0.504   4.272 -0.9480 -0.5372  0.0670
10766TIP3   OH232258   2.393   0.165   4.613 -0.4177 -0.1083 -0.0636
10766TIP3    H132259   2.325   0.185   4.548 -1.4141  0.0587  1.0161
10766TIP3    H232260   2.468   0.217   4.585 -0.9684  0.2692 -0.8662
10767TIP3   OH232261   7.132   6.351   4.687  0.1116  0.0817  0.4136
10767TIP3    H132262   7.140   6.265   4.727  2.1264  0.0583  0.0269
10767TIP3    H232263   7.166   6.340   4.598 -0.7665  0.9913 -0.0467
10768TIP3   OH232264   6.386   5.363   5.326 -0.3076 -0.1718 -0.1932
10768TIP3    H132265   6.330   5.440   5.311  0.5509  0.5375  0.1887
10768TIP3    H232266   6.382   5.349   5.421 -0.8932 -0.9372 -0.3248
10769TIP3   OH232267   7.533   4.833   4.875 -0.8407 -0.3699 -0.3084
10769TIP3    H132268   7.504   4.843   4.965 -0.6978  1.0995 -0.4175
10769TIP3    H232269   7.485   4.899   4.826  3.2729  2.8222 -0.3315
10770TIP3   OH232270   4.582   1.207   0.920  0.2161 -0.4052  0.0444
10770TIP3    H132271   4.570   1.114   0.903  1.7800 -0.1104 -2.9305
10770TIP3    H232272   4.676   1.222   0.912 -0.0990  1.5643 -0.3279
10771TIP3   OH232273   7.730   0.731   2.519  0.6857 -0.1272  0.3967
10771TIP3    H132274   7.726   0.713   2.613  0.4809  1.6638  0.7378
10771TIP3    H232275   7.813   0.777   2.507 -0.3278  1.6430  0.0547
10772TIP3   OH232276   0.405   6.605   4.984 -0.0481 -0.1554 -0.2875
10772TIP3    H132277   0.416   6.534   5.047  2.1512  1.0274  0.6921
10772TIP3    H232278   0.450   6.680   5.022 -0.7395  1.2694 -2.1588
10773TIP3   OH232279   6.231   6.482   4.856  0.7849  0.8063 -0.2083
10773TIP3    H132280   6.266   6.535   4.929  0.3584 -0.0347  0.6190
10773TIP3    H232281   6.281   6.401   4.860  0.9021  0.8406 -0.9979
10774TIP3   OH232282   5.233   6.080   4.519 -0.0651  0.6105 -0.4944
10774TIP3    H132283   5.307   6.023   4.497 -0.5558 -0.6180  0.9545
10774TIP3    H232284   5.231   6.081   4.615 -1.6994  0.9107 -0.5106
10775TIP3   OH232285   3.489   0.312   4.180  0.0892  0.2726  0.1102
10775TIP3    H132286   3.435   0.391   4.175 -0.6809 -0.3082 -1.0856
10775TIP3    H232287   3.541   0.313   4.100  2.9050  1.5368  1.8995
10776TIP3   OH232288   6.640   6.459   4.693  0.1728 -0.2443  0.2431
10776TIP3    H132289   6.623   6.464   4.787 -0.2672  0.2236  0.1404
10776TIP3    H232290   6.735   6.456   4.686  0.1812 -3.6761  0.8611
10777TIP3   OH232291   0.139   5.916   4.354 -0.7771  0.1608 -0.4219
10777TIP3    H132292   0.154   6.009   4.370 -0.6612  0.2225 -0.8656
10777TIP3    H232293   0.140   5.876   4.441 -0.6138  0.5413 -0.2458
10778TIP3   OH232294   5.406   5.491   3.807 -0.8483 -0.2909  0.3000
10778TIP3    H132295   5.400   5.583   3.779 -0.1510 -0.2774  0.1917
10778TIP3    H232296   5.369   5.442   3.733 -0.5925 -0.1440  0.0736
10779TIP3   OH232297   0.012   0.109   1.950 -0.3524 -0.3002  0.2359
10779TIP3    H132298   0.067   0.057   1.891 -0.4790 -1.6797  1.3090
10779TIP3    H232299   0.022   0.199   1.919 -2.6422 -1.2979 -3.6907
10780TIP3   OH232300   7.614   0.803   4.588 -0.0931  0.0681 -0.1370
10780TIP3    H132301   7.546   0.741   4.613 -0.0449 -0.2183 -0.7174
10780TIP3    H232302   7.601   0.877   4.647 -1.8716  0.6784 -1.2492
10781TIP3   OH232303   0.242   0.404   3.922 -0.3271  0.5003 -0.1683
10781TIP3    H132304   0.174   0.390   3.855 -0.9853 -1.7189  0.9427
10781TIP3    H232305   0.315   0.348   3.895  0.5620  1.8386 -0.6048
10782TIP3   OH232306   1.655   0.876   1.492 -0.1729  0.0861  0.2372
10782TIP3    H132307   1.623   0.824   1.418 -0.7212 -0.7213  1.0246
10782TIP3    H232308   1.642   0.967   1.465 -2.5080 -0.2059  0.2296
10783TIP3   OH232309   1.493   0.152   4.387  0.1299  0.0267 -0.8256
10783TIP3    H132310   1.569   0.096   4.402 -0.0382  0.2384  0.8878
10783TIP3    H232311   1.419   0.091   4.387  0.1425  0.0115 -0.9154
10784TIP3   OH232312   2.036   0.696   3.801  0.0453  0.1948  0.1951
10784TIP3    H132313   1.961   0.702   3.742 -1.0208 -0.8510  1.4049
10784TIP3    H232314   2.095   0.633   3.759 -1.5250 -1.9192  1.0688
10785TIP3   OH232315   0.710   6.431   6.217  0.0708 -0.2718  0.3347
10785TIP3    H132316   0.726   6.403   6.307 -1.6457 -0.8988  0.4572
10785TIP3    H232317   0.649   6.504   6.225 -0.5338 -0.6937 -0.3377
10786TIP3   OH232318   6.897   6.494   4.709  0.3882  0.2186  0.4917
10786TIP3    H132319   6.923   6.570   4.656  1.0672  0.4214  1.1060
10786TIP3    H232320   6.971   6.434   4.704 -0.3869 -0.6665 -0.4667
10787TIP3   OH232321   6.186   6.860   5.027 -0.7468 -0.1649  0.0568
10787TIP3    H132322   6.223   6.828   5.109 -0.6961  1.0853  0.5215
10787TIP3    H232323   6.092   6.842   5.036 -0.5378 -1.4460 -0.2640
10788TIP3   OH232324   6.538   5.646   4.921  0.2607 -0.6897  0.1793
10788TIP3    H132325   6.622   5.683   4.894 -0.4918 -0.4492 -1.9106
10788TIP3    H232326   6.527   5.674   5.012  1.1129  1.7172 -0.4278
10789TIP3   OH232327   6.296   7.012   1.908 -0.0331  0.5866  0.0229
10789TIP3    H132328   6.278   6.931   1.860  1.7381  0.2355 -0.0874
10789TIP3    H232329   6.211   7.056   1.914 -0.9286 -1.0662 -0.2909
10790TIP3   OH232330   6.017   7.055   5.393 -0.7167  0.0339  0.0795
10790TIP3    H132331   6.005   7.147   5.414 -0.7185  0.0264  0.1144
10790TIP3    H232332   5.930   7.024   5.369 -0.5390  0.2757 -0.8890
10791TIP3   OH232333   1.547   0.400   3.320  0.4722 -0.0527 -0.2188
10791TIP3    H132334   1.470   0.370   3.272  0.9956  1.8760 -2.3702
10791TIP3    H232335   1.525   0.489   3.349  1.4397  0.0749  0.1509
10792TIP3   OH232336   7.115   7.051   5.630 -0.4554  0.2016  0.0542
10792TIP3    H132337   7.177   6.983   5.656 -1.1061  0.0084  1.1207
10792TIP3    H232338   7.093   7.031   5.539  0.5156 -0.1266 -0.1119
10793TIP3   OH232339   5.028   5.539   6.271  0.3218  0.4816 -0.3392
10793TIP3    H132340   5.018   5.453   6.231 -1.8860  0.5417 -0.0163
10793TIP3    H232341   5.016   5.524   6.365  0.6203  1.0319 -0.2121
10794TIP3   OH232342   0.800   1.713   4.127  0.0498  0.5179  0.2820
10794TIP3    H132343   0.730   1.684   4.185 -0.9507  2.1655 -0.0641
10794TIP3    H232344   0.860   1.638   4.122 -1.8589 -1.0488  0.2930
10795TIP3   OH232345   3.190   3.251   2.451  0.4218  0.5339 -0.4811
10795TIP3    H132346   3.268   3.196   2.440 -0.9841 -1.1362 -2.6895
10795TIP3    H232347   3.117   3.193   2.427 -1.5854  1.8354  2.1955
10796TIP3   OH232348   6.249   6.790   3.785  0.3459 -0.2636 -0.3849
10796TIP3    H132349   6.244   6.705   3.829  0.0051 -0.8862 -1.6020
10796TIP3    H232350   6.166   6.798   3.738 -0.8451  2.0552  2.0125
10797TIP3   OH232351   5.754   6.201   3.938  0.0652  0.2278 -0.2161
10797TIP3    H132352   5.742   6.292   3.966 -0.2095 -0.0836  0.6916
10797TIP3    H232353   5.680   6.154   3.976 -0.2991 -0.2215 -1.4470
10798TIP3   OH232354   1.701   3.828   0.220  0.0412 -0.4634 -0.4575
10798TIP3    H132355   1.613   3.864   0.230 -0.3004 -1.0110 -1.3844
10798TIP3    H232356   1.743   3.885   0.155  0.8263  0.5903  0.9570
10799TIP3   OH232357   7.546   0.929   5.320  0.7377  0.2640 -0.3873
10799TIP3    H132358   7.485   1.000   5.342  0.2068 -0.2340 -0.2285
10799TIP3    H232359   7.611   0.970   5.264  1.3697  1.2605  1.0459
10800TIP3   OH232360   5.705   4.343   4.483  0.3277  0.1241 -0.1224
10800TIP3    H132361   5.757   4.405   4.534 -0.3876 -0.0170  0.7844
10800TIP3    H232362   5.618   4.344   4.524  0.4498 -1.8850  0.2708
10801TIP3   OH232363   5.857   6.699   4.511  0.1076  1.0037  0.0293
10801TIP3    H132364   5.770   6.715   4.473  0.4463  1.0627 -0.7306
10801TIP3    H232365   5.839   6.658   4.596 -0.6235 -1.5570 -1.3086
10802TIP3   OH232366   6.765   6.791   3.163  0.1841  0.2702  0.0349
10802TIP3    H132367   6.817   6.730   3.214  0.7474 -0.1818 -1.0757
10802TIP3    H232368   6.803   6.877   3.182  2.3947 -0.2166 -2.0152
10803TIP3   OH232369   7.353   5.431   3.645 -0.2646 -0.3416 -0.6669
10803TIP3    H132370   7.298   5.497   3.604 -0.0006 -0.6827 -1.5794
10803TIP3    H232371   7.401   5.478   3.713 -0.6374  0.2425 -0.8091
10804TIP3   OH232372   6.160   6.464   1.694 -0.2440  0.2456 -0.6485
10804TIP3    H132373   6.158   6.551   1.653  0.8748  0.1620 -0.9071
10804TIP3    H232374   6.246   6.460   1.736 -1.7048  0.6717  2.5175
10805TIP3   OH232375   1.085   0.617   3.969  0.3010  0.2367  0.5688
10805TIP3    H132376   1.071   0.705   3.935 -0.6994  0.4283  1.4620
10805TIP3    H232377   1.090   0.562   3.890 -0.3781  0.9018  0.0562
10806TIP3   OH232378   0.143   6.861   2.840  0.4355 -0.4600  0.2991
10806TIP3    H132379   0.156   6.931   2.904 -0.0938 -1.1816  1.1914
10806TIP3    H232380   0.050   6.840   2.846  0.8479 -2.1400  0.9582
10807TIP3   OH232381   1.199   1.772   5.286  0.1105 -0.2413  0.2579
10807TIP3    H132382   1.139   1.724   5.343  0.0998 -1.1333 -0.5003
10807TIP3    H232383   1.231   1.707   5.224  1.4709  0.3353  0.3289
10808TIP3   OH232384   7.371   6.634   6.355 -0.5610 -0.1808 -0.2843
10808TIP3    H132385   7.414   6.717   6.376  1.4983 -0.7155 -2.2581
10808TIP3    H232386   7.387   6.622   6.262 -2.8206 -1.6906 -0.5021
10809TIP3   OH232387   6.017   6.601   2.940 -0.0900 -0.4475  0.2157
10809TIP3    H132388   5.997   6.690   2.971  0.1263 -0.4574  0.3820
10809TIP3    H232389   6.091   6.613   2.880 -0.1627 -0.4955  0.1177
10810TIP3   OH232390   7.175   5.935   4.346  0.1594 -0.1047  0.2624
10810TIP3    H132391   7.214   5.855   4.312 -1.3438 -0.9076  0.4138
10810TIP3    H232392   7.090   5.942   4.302  0.1283  1.2265  0.4967
10811TIP3   OH232393   0.274   7.040   4.413 -0.1559 -0.3342  0.4051
10811TIP3    H132394   0.272   7.001   4.501 -0.4168  0.2307  0.6518
10811TIP3    H232395   0.247   7.130   4.427 -0.2001 -0.2464 -0.2639
10812TIP3   OH232396   1.686   0.442   4.562 -0.4100  0.6859  0.2923
10812TIP3    H132397   1.734   0.375   4.513 -1.1313  0.4668 -0.1242
10812TIP3    H232398   1.611   0.463   4.506 -0.7944  1.0292  0.9309
10813TIP3   OH232399   6.874   5.949   4.698  0.1838  0.1176 -0.0198
10813TIP3    H132400   6.898   5.952   4.605 -0.5354 -0.3886 -0.2276
10813TIP3    H232401   6.797   6.005   4.704 -0.6262 -0.9857  0.0030
10814TIP3   OH232402   6.636   5.510   5.247  0.0191 -0.3182  0.1084
10814TIP3    H132403   6.551   5.475   5.221 -0.8064  0.7725  1.2710
10814TIP3    H232404   6.700   5.453   5.205 -1.2847 -2.1822  0.6013
10815TIP3   OH232405   2.673   0.674   0.960 -0.6697  0.3742 -0.5428
10815TIP3    H132406   2.682   0.759   1.002  0.2765 -0.2081  0.4570
10815TIP3    H232407   2.579   0.664   0.945 -0.8750  1.1782  0.2078
10816TIP3   OH232408   7.115   4.727   1.834  0.5220  0.0635  0.1446
10816TIP3    H132409   7.081   4.733   1.745 -0.7375  0.7418  0.6681
10816TIP3    H232410   7.210   4.732   1.823  0.3515  0.7685 -1.0978
10817TIP3   OH232411   7.465   5.193   5.156  0.0733 -0.3583 -0.3831
10817TIP3    H132412   7.381   5.230   5.129  0.7365  0.5084 -1.2494
10817TIP3    H232413   7.519   5.194   5.077  1.0269 -0.5639  0.2601
10818TIP3   OH232414   0.833   5.654   3.794 -0.2410  0.4146  0.3494
10818TIP3    H132415   0.795   5.581   3.843 -0.3186 -0.6740 -1.2929
10818TIP3    H232416   0.861   5.716   3.862 -0.5230 -0.9518  1.7596
10819TIP3   OH232417   0.171   6.092   5.257  0.3952 -0.0038  0.3980
10819TIP3    H132418   0.161   6.020   5.195  3.6818  0.2822 -0.5734
10819TIP3    H232419   0.210   6.051   5.334 -0.5902  0.2213  1.0201
10820TIP3   OH232420   2.689   3.631   1.013  0.4120 -0.2515  0.1144
10820TIP3    H132421   2.623   3.663   0.951 -0.7587 -0.0021  1.4874
10820TIP3    H232422   2.772   3.669   0.981 -0.2320  0.2073 -1.0567
10821TIP3   OH232423   0.797   6.452   4.018 -0.1253 -0.4551  0.6583
10821TIP3    H132424   0.791   6.356   4.019 -0.2045 -0.4496  0.7397
10821TIP3    H232425   0.716   6.481   4.059 -0.1603 -0.3489  0.5127
10822TIP3   OH232426   1.371   3.549   0.485 -1.2243 -0.3171  0.2964
10822TIP3    H132427   1.355   3.455   0.492 -0.0665 -0.7605 -2.3662
10822TIP3    H232428   1.313   3.578   0.414 -1.2001  0.8798  0.7574
10823TIP3   OH232429   2.441   2.944   0.905 -0.0811  0.7168  0.6118
10823TIP3    H132430   2.516   3.001   0.895  1.2027 -0.8567  1.0885
10823TIP3    H232431   2.478   2.859   0.932 -2.0549  0.1196  1.5621
10824TIP3   OH232432   7.100   6.729   3.670 -0.3213  0.0208  0.6485
10824TIP3    H132433   7.037   6.795   3.645 -0.1848  0.0468  0.3758
10824TIP3    H232434   7.076   6.652   3.618 -0.1391  0.0263  0.5561
10825TIP3   OH232435   0.536   0.824   4.937 -0.1811  0.4189 -0.0604
10825TIP3    H132436   0.511   0.751   4.993 -0.1118  0.5899  0.1968
10825TIP3    H232437   0.530   0.901   4.994  2.1594  0.3199  0.3882
10826TIP3   OH232438   3.625   2.462   0.814 -0.1801  0.3082  0.4451
10826TIP3    H132439   3.673   2.434   0.892 -1.5460 -1.1233  0.7878
10826TIP3    H232440   3.629   2.387   0.755  0.0808  1.0647 -0.5083
10827TIP3   OH232441   6.786   6.754   4.569 -0.1479  0.1239  0.1862
10827TIP3    H132442   6.721   6.707   4.518 -1.6186  1.7616  0.4810
10827TIP3    H232443   6.859   6.769   4.509 -0.7639 -0.2456 -0.6519
10828TIP3   OH232444   7.596   0.157   5.428  0.1995 -0.3718 -0.4175
10828TIP3    H132445   7.682   0.181   5.395  0.6043  0.5337  1.2516
10828TIP3    H232446   7.549   0.124   5.352  1.4144  0.8101 -1.6961
10829TIP3   OH232447   2.726   2.495   0.106  0.4886  0.5745  0.1269
10829TIP3    H132448   2.706   2.480   0.013 -2.8602  0.2818  0.8055
10829TIP3    H232449   2.720   2.590   0.116 -0.6472  0.4997  0.2985
10830TIP3   OH232450   3.892   4.164   0.048  0.0296  0.3073  0.6899
10830TIP3    H132451   3.962   4.125  -0.004 -0.7647  0.0050 -0.1600
10830TIP3    H232452   3.854   4.231  -0.009 -0.8981 -0.0759  0.8528
10831TIP3   OH232453   7.777   5.430   5.470 -0.1896  0.2524  0.0980
10831TIP3    H132454   7.840   5.360   5.485 -0.5247 -0.2651 -0.8375
10831TIP3    H232455   7.723   5.432   5.549  1.5843  1.3461  1.3074
10832TIP3   OH232456   4.718   6.280   4.804  0.2628 -0.1402  0.3506
10832TIP3    H132457   4.724   6.267   4.899 -0.1596  1.1163  0.5580
10832TIP3    H232458   4.626   6.299   4.788  0.2893 -0.5842 -0.3515
10833TIP3   OH232459   0.546   0.159   4.492 -0.0312  0.4893  0.0542
10833TIP3    H132460   0.476   0.104   4.457  0.3436  0.6580 -0.9864
10833TIP3    H232461   0.503   0.243   4.510 -0.4349  0.0992  0.9012
10834TIP3   OH232462   2.879   7.261   5.045  0.0773 -0.1828 -0.9173
10834TIP3    H132463   2.851   7.171   5.060 -2.1654  0.8681  1.6599
10834TIP3    H232464   2.848   7.282   4.957 -3.2405 -0.5645  0.1164
10835TIP3   OH232465   2.512   2.543   0.607  0.0273  0.0430  0.2007
10835TIP3    H132466   2.585   2.492   0.572  0.9208 -0.5504  2.8489
10835TIP3    H232467   2.529   2.632   0.578  1.6101 -0.1503  0.4747
10836TIP3   OH232468   0.323   7.080   4.155 -0.3232 -0.1676 -0.2196
10836TIP3    H132469   0.306   7.038   4.239  2.4049  0.2036  0.5456
10836TIP3    H232470   0.398   7.034   4.119 -1.1781 -0.0295 -2.2852
10837TIP3   OH232471   6.157   0.089   4.786  0.1948 -0.6022 -0.2733
10837TIP3    H132472   6.140   0.178   4.757  0.6938 -1.1456 -2.2645
10837TIP3    H232473   6.161   0.037   4.706  0.6737 -2.2935  0.8101
10838TIP3   OH232474   5.548   7.012   4.772 -1.0076  0.1592  0.4221
10838TIP3    H132475   5.495   6.957   4.715  0.1335 -1.8569  1.2422
10838TIP3    H232476   5.513   6.997   4.860 -0.4569  0.4521  0.6983
10839TIP3   OH232477   6.083   1.250   3.093 -0.6404  0.4386 -0.2919
10839TIP3    H132478   6.018   1.262   3.163 -0.9406 -1.0290 -0.2914
10839TIP3    H232479   6.152   1.314   3.113 -2.1488  2.1052 -0.3762
10840TIP3   OH232480   7.103   0.014   4.902 -0.0082  0.2025 -0.2690
10840TIP3    H132481   7.194   0.032   4.876 -0.2109  1.4470 -0.1335
10840TIP3    H232482   7.051   0.045   4.828 -0.1646 -3.9001 -2.0092
10841TIP3   OH232483   3.238   3.447   0.603 -0.3260  0.3935  0.5362
10841TIP3    H132484   3.272   3.357   0.598 -0.0083  0.6091 -1.7399
10841TIP3    H232485   3.147   3.437   0.628 -0.7281 -0.6959 -1.2340
10842TIP3   OH232486   0.073   1.016   4.978 -0.5199  0.2178  0.3329
10842TIP3    H132487   0.144   0.971   5.023  0.0565 -0.5603 -1.2997
10842TIP3    H232488  -0.004   0.960   4.991 -0.2560 -0.2280 -0.0003
10843TIP3   OH232489   6.391   6.813   5.255  0.1651 -0.2457 -0.0697
10843TIP3    H132490   6.362   6.818   5.347 -4.3964  0.2426 -1.3961
10843TIP3    H232491   6.429   6.899   5.237 -1.4766  0.6391  0.6146
10844TIP3   OH232492   3.918   0.694   5.747  0.1825  0.0893  0.7775
10844TIP3    H132493   3.844   0.690   5.687  0.3719 -0.1140  0.5597
10844TIP3    H232494   3.995   0.684   5.692  0.3800  0.4401  0.9887
10845TIP3   OH232495   7.198   6.816   3.209  0.2337  0.4589  0.1588
10845TIP3    H132496   7.164   6.853   3.127  0.9620  0.8185  0.0156
10845TIP3    H232497   7.253   6.743   3.181  1.0148  0.9918  0.2811
10846TIP3   OH232498   5.165   3.123   0.167 -0.3136 -0.2945  0.4301
10846TIP3    H132499   5.223   3.198   0.180 -2.4336  1.4921 -0.0828
10846TIP3    H232500   5.182   3.066   0.242  0.4914  1.2563  1.4567
10847TIP3   OH232501   4.172   4.747   5.340 -0.7297 -0.0788 -0.1017
10847TIP3    H132502   4.167   4.750   5.436 -1.1169 -1.0492 -0.0971
10847TIP3    H232503   4.263   4.723   5.322 -0.4428  0.8906  0.0031
10848TIP3   OH232504   1.761   0.775   0.345  0.1017  0.2019 -0.0859
10848TIP3    H132505   1.798   0.858   0.376  0.2712 -0.1065  0.5591
10848TIP3    H232506   1.668   0.793   0.335  0.0845  0.3755  0.3704
10849TIP3   OH232507   0.974   5.995   3.768  0.7687 -0.3098  0.4853
10849TIP3    H132508   0.949   5.948   3.848 -0.7413  0.8641  0.7236
10849TIP3    H232509   1.007   6.079   3.799 -1.4785  0.8630 -0.1650
10850TIP3   OH232510   4.642   0.516   4.332  0.0176  0.4518  0.5507
10850TIP3    H132511   4.737   0.516   4.319  0.3026  0.1915  2.4279
10850TIP3    H232512   4.618   0.608   4.337  0.2295  0.5131  0.4199
10851TIP3   OH232513   7.440   7.078   5.850  0.0958  0.0239  0.1494
10851TIP3    H132514   7.407   7.023   5.779  1.8075 -0.6608 -0.1431
10851TIP3    H232515   7.394   7.161   5.840 -2.3125 -1.2238  0.4080
10852TIP3   OH232516   0.514   7.017   4.674  0.1923 -0.0334  0.4443
10852TIP3    H132517   0.485   7.075   4.744 -0.7647 -0.3927  0.3474
10852TIP3    H232518   0.435   6.972   4.645  0.9989 -1.7833  0.8833
10853TIP3   OH232519   7.397   5.524   5.187  0.7208  0.1917  0.9164
10853TIP3    H132520   7.347   5.526   5.106  0.0550 -0.8778  1.2840
10853TIP3    H232521   7.453   5.447   5.179  1.5579  0.7854  0.9540
10854TIP3   OH232522   3.154   1.825   0.726 -0.2002 -0.0300 -0.0890
10854TIP3    H132523   3.196   1.813   0.641  0.2704  2.2187 -0.2006
10854TIP3    H232524   3.203   1.767   0.785  0.1847 -0.7555 -1.1081
10855TIP3   OH232525   6.963   6.164   5.416 -0.3861  0.3735 -0.2506
10855TIP3    H132526   6.939   6.081   5.459  0.4403  0.2872  0.0661
10855TIP3    H232527   6.916   6.231   5.466 -0.5152  0.1512 -0.0712
10856TIP3   OH232528   1.467   0.376   5.853 -0.1054  0.3073 -0.2620
10856TIP3    H132529   1.518   0.299   5.876  0.0492  0.7556  0.9190
10856TIP3    H232530   1.457   0.371   5.758 -0.2261 -1.2430 -0.1736
10857TIP3   OH232531   2.410   7.082   5.019 -0.2128 -0.1515  0.1713
10857TIP3    H132532   2.425   7.021   5.091 -0.9001  0.2604  0.6656
10857TIP3    H232533   2.456   7.162   5.046  0.9805 -0.5497 -0.6318
10858TIP3   OH232534   1.193   6.059   5.963  0.1737  0.1238 -0.1030
10858TIP3    H132535   1.261   6.098   6.019 -1.0347  0.7699  0.9542
10858TIP3    H232536   1.128   6.129   5.954 -0.1087 -0.3167 -1.5312
10859TIP3   OH232537   0.124   7.201   4.031  0.3282 -0.3198  0.6555
10859TIP3    H132538   0.042   7.177   4.075  0.3019 -0.7971  0.3525
10859TIP3    H232539   0.191   7.147   4.074  0.4467 -0.1003  0.7463
10860TIP3   OH232540   1.773   7.218   3.906  0.3616 -0.9601  0.0352
10860TIP3    H132541   1.737   7.130   3.920 -0.2134 -0.5812  1.0079
10860TIP3    H232542   1.867   7.207   3.918  0.5339 -1.8555 -1.9931
10861TIP3   OH232543   1.243   6.538   4.384  0.4142  0.1751 -0.2465
10861TIP3    H132544   1.244   6.633   4.394  1.4401  0.1386  0.0887
10861TIP3    H232545   1.319   6.508   4.435  0.9472 -0.6878 -1.5258
10862TIP3   OH232546   2.501   2.020   5.372  0.0836 -0.0166  0.4511
10862TIP3    H132547   2.517   2.114   5.363  0.6099 -0.1164  0.3122
10862TIP3    H232548   2.462   1.994   5.289 -2.4286  0.5518  1.4204
10863TIP3   OH232549   2.694   0.164   5.466 -0.5750 -0.5971  0.1633
10863TIP3    H132550   2.650   0.230   5.414 -0.2105  0.7603  1.5364
10863TIP3    H232551   2.769   0.136   5.412 -0.7626  0.0648 -0.4398
10864TIP3   OH232552   7.243   6.649   4.643  0.3583  0.2798 -0.2816
10864TIP3    H132553   7.169   6.630   4.585 -1.0702 -0.3193  1.6693
10864TIP3    H232554   7.228   6.739   4.673  1.8897  1.1303 -1.9320
10865TIP3   OH232555   2.677   6.525   6.025  0.4776  0.0596 -0.1244
10865TIP3    H132556   2.759   6.559   5.990  0.6145 -0.3906 -0.2390
10865TIP3    H232557   2.700   6.440   6.061  0.0750 -0.0354 -0.0955
10866TIP3   OH232558   1.401   5.082   0.224 -0.0565  0.0721  0.0622
10866TIP3    H132559   1.446   5.028   0.159 -1.6107 -0.4288 -0.6133
10866TIP3    H232560   1.350   5.020   0.277 -1.3676  0.7869 -0.3299
10867TIP3   OH232561   4.083   1.239   4.287 -0.2376  0.1508  0.2654
10867TIP3    H132562   4.066   1.332   4.273  1.1140  0.7387  2.3800
10867TIP3    H232563   4.029   1.195   4.221  0.5823  2.4822 -2.0370
10868TIP3   OH232564   3.019   6.940   3.815 -0.1429 -0.0532  0.1391
10868TIP3    H132565   2.998   6.869   3.875  0.9593 -0.3946  0.1305
10868TIP3    H232566   3.009   7.020   3.867 -2.6680 -0.0890 -0.1946
10869TIP3   OH232567   3.656   7.322   6.123 -0.2539  0.0457  0.4216
10869TIP3    H132568   3.745   7.292   6.105  0.4883  2.0321  0.6310
10869TIP3    H232569   3.642   7.300   6.216  0.6425  1.1821  0.8411
10870TIP3   OH232570   7.444   3.826   1.238  0.2870  0.2393 -0.0480
10870TIP3    H132571   7.523   3.838   1.291  0.5627  1.8765 -0.7798
10870TIP3    H232572   7.377   3.799   1.300  0.7283  1.6338  1.0814
10871TIP3   OH232573   7.327   3.143   0.281 -0.8265  0.3265  0.0274
10871TIP3    H132574   7.338   3.168   0.372  0.4428  1.6860 -0.4874
10871TIP3    H232575   7.415   3.122   0.251 -1.1303  0.6241 -1.1003
10872TIP3   OH232576   4.667   2.736   5.860  0.1138 -0.6612 -0.0459
10872TIP3    H132577   4.714   2.736   5.944  1.6076  0.2649 -0.8472
10872TIP3    H232578   4.703   2.661   5.813  1.7326  0.7506 -1.1397
10873TIP3   OH232579   4.274   3.535   1.569 -0.2627 -0.3829  0.4673
10873TIP3    H132580   4.369   3.546   1.565 -0.2640  0.9703  2.9309
10873TIP3    H232581   4.253   3.543   1.663 -3.0007  1.1325 -0.2162
10874TIP3   OH232582   6.263   0.665   4.285  0.3391  0.4432  0.7213
10874TIP3    H132583   6.194   0.665   4.350  0.3476 -0.5768  0.7391
10874TIP3    H232584   6.279   0.572   4.266  1.5180  0.6699  0.5368
10875TIP3   OH232585   0.954   6.898   3.070 -0.6919 -0.3583 -0.2340
10875TIP3    H132586   0.898   6.865   3.140 -0.5407 -0.2481 -0.0588
10875TIP3    H232587   0.937   6.992   3.068 -0.6959 -0.3611 -0.3444
10876TIP3   OH232588   1.886   6.303   5.340 -0.5449  0.3094 -0.0799
10876TIP3    H132589   1.887   6.384   5.391 -3.3371 -0.4278  1.2446
10876TIP3    H232590   1.794   6.277   5.339  0.0702 -1.8966 -2.0174
10877TIP3   OH232591   1.619   7.353   4.621  0.2204 -0.0505 -0.7076
10877TIP3    H132592   1.550   7.324   4.681  1.8244  0.7429  1.5842
10877TIP3    H232593   1.610   7.296   4.544 -1.3407 -1.6586  0.6448
10878TIP3   OH232594   3.222   0.182   3.872  0.0754  0.1137 -0.5660
10878TIP3    H132595   3.244   0.123   3.944 -0.1134  0.2658 -0.3832
10878TIP3    H232596   3.306   0.200   3.829  0.0512 -0.7291 -0.9615
10879TIP3   OH232597   4.782   0.694   6.322 -0.3272 -0.3700 -0.2190
10879TIP3    H132598   4.767   0.599   6.329 -2.1820 -0.1730 -1.0975
10879TIP3    H232599   4.712   0.724   6.263  1.3307  1.2625 -1.4027
10880TIP3   OH232600   3.587   1.395   5.052 -0.5332 -0.4506  0.1126
10880TIP3    H132601   3.609   1.378   4.960 -2.8351  1.2973 -0.7875
10880TIP3    H232602   3.497   1.365   5.061 -0.2405 -0.8599  1.9000
10881TIP3   OH232603   6.777  -0.019   6.178  0.0704  0.3905  0.3839
10881TIP3    H132604   6.818  -0.055   6.256  0.3005  1.5723  0.8186
10881TIP3    H232605   6.786   0.076   6.188  1.5615  0.4975 -1.8814
10882TIP3   OH232606   0.545   2.726   0.210  0.2356 -0.6268 -0.2916
10882TIP3    H132607   0.521   2.806   0.164 -3.1243 -2.4446 -1.9622
10882TIP3    H232608   0.606   2.681   0.151 -1.3854 -1.3366 -1.4814
10883TIP3   OH232609   1.427   7.271   3.555 -0.0288 -0.6324  0.1373
10883TIP3    H132610   1.363   7.200   3.555 -0.6717 -0.0642 -0.8279
10883TIP3    H232611   1.476   7.260   3.637 -1.5403 -0.9062  1.0066
10884TIP3   OH232612   5.645   0.961   4.450  0.1051 -0.1772  0.4414
10884TIP3    H132613   5.689   0.996   4.528  2.0272  0.3377 -0.8285
10884TIP3    H232614   5.554   0.989   4.458 -0.1433 -1.6903  3.3941
10885TIP3   OH232615   3.656   0.184   3.770 -0.3744 -0.3484  0.3315
10885TIP3    H132616   3.643   0.093   3.741 -0.8494  0.0670 -0.7800
10885TIP3    H232617   3.570   0.225   3.759 -0.1691  0.2287  0.8738
10886TIP3   OH232618   3.811   0.950   5.220 -0.0242  0.3154  0.5819
10886TIP3    H132619   3.791   0.994   5.137  2.8142  0.4633 -0.0735
10886TIP3    H232620   3.730   0.904   5.243 -1.0750  0.8277 -1.9174
10887TIP3   OH232621   3.411   3.721   5.435  0.3606  0.1731 -0.1775
10887TIP3    H132622   3.438   3.723   5.343 -1.2537  1.1132 -0.6672
10887TIP3    H232623   3.389   3.629   5.452  1.6590 -0.1943 -0.4056
10888TIP3   OH232624   4.164   7.322   5.916  0.6000 -0.1256 -0.1596
10888TIP3    H132625   4.176   7.316   6.011  0.8328  0.0909 -0.1754
10888TIP3    H232626   4.249   7.295   5.880  0.9293  1.0638 -0.2841
10889TIP3   OH232627   1.009   5.154   4.397 -0.1902  0.3270 -0.7289
10889TIP3    H132628   0.986   5.245   4.380  1.1087  0.4690 -1.8205
10889TIP3    H232629   1.079   5.159   4.462  0.7268  0.1855 -1.6869
10890TIP3   OH232630   5.209   1.305   3.369 -0.3399 -0.0593 -0.0340
10890TIP3    H132631   5.189   1.330   3.459 -0.6066  0.1264 -0.1422
10890TIP3    H232632   5.305   1.302   3.365 -0.2325  2.3836 -0.3900
10891TIP3   OH232633   4.162   1.063   5.811 -0.0414  0.5755 -0.1508
10891TIP3    H132634   4.142   1.156   5.825  0.5998  0.6584  0.2335
10891TIP3    H232635   4.158   1.052   5.716  1.6261  1.4006 -0.3333
10892TIP3   OH232636   3.894   1.406   4.666 -0.2641  0.0667  0.0770
10892TIP3    H132637   3.941   1.322   4.669 -0.7176 -0.3539 -3.1763
10892TIP3    H232638   3.962   1.471   4.681  0.3917 -0.7839  0.9160
10893TIP3   OH232639   6.741   0.783   5.342 -0.3542 -0.2133 -0.0832
10893TIP3    H132640   6.662   0.837   5.334 -0.7527 -0.6441  0.8817
10893TIP3    H232641   6.754   0.747   5.254  0.9417  2.8361 -1.1949
10894TIP3   OH232642   7.764   4.612   0.755  0.1422 -0.6064  0.0875
10894TIP3    H132643   7.688   4.583   0.705 -0.1264  1.1964 -0.5757
10894TIP3    H232644   7.730   4.628   0.843 -0.0034 -0.9024  0.0856
10895TIP3   OH232645   6.167   1.646   4.737  0.2444  0.1835  0.3437
10895TIP3    H132646   6.214   1.639   4.653 -1.3987  0.1441 -0.5893
10895TIP3    H232647   6.182   1.562   4.780 -0.2048 -0.3993 -0.6099
10896TIP3   OH232648   5.550   0.183   3.484  0.1604 -0.3585  0.4582
10896TIP3    H132649   5.634   0.149   3.515  1.6839  1.3612 -1.5187
10896TIP3    H232650   5.536   0.140   3.400 -0.1700  0.4545  0.0858
10897TIP3   OH232651   6.433   6.364   0.354  0.1152  0.1859 -0.3145
10897TIP3    H132652   6.428   6.451   0.314  0.5295 -0.6070 -2.1419
10897TIP3    H232653   6.519   6.362   0.396  0.4641  0.3658 -1.0017
10898TIP3   OH232654   3.436   7.283   5.731 -0.1492 -0.1263  0.4222
10898TIP3    H132655   3.474   7.353   5.677  0.1349 -0.6739 -0.0951
10898TIP3    H232656   3.343   7.302   5.733  0.0716  0.9472  1.2851
10899TIP3   OH232657   3.024   5.405   5.905  0.2798 -0.1148  0.3463
10899TIP3    H132658   3.017   5.490   5.861 -0.5590 -0.8761 -1.0087
10899TIP3    H232659   3.110   5.372   5.880  0.7421  0.4721  1.1373
10900TIP3   OH232660   2.336   6.450   5.486 -0.0109  0.4148  0.5157
10900TIP3    H132661   2.414   6.405   5.453 -0.6269  0.5406 -1.1211
10900TIP3    H232662   2.265   6.387   5.474 -0.5553  1.1375 -0.0640
10901TIP3   OH232663   4.565   3.697   0.047 -0.3597 -0.2050  0.1214
10901TIP3    H132664   4.546   3.779   0.001  0.2043  0.4787  1.0858
10901TIP3    H232665   4.555   3.719   0.139  0.2361 -1.1181  0.4058
10902TIP3   OH232666   6.335   0.753   5.026  0.3037  0.2204 -0.2249
10902TIP3    H132667   6.319   0.668   5.067 -0.0509 -0.5949 -2.0312
10902TIP3    H232668   6.406   0.791   5.078  1.0409 -1.5361  0.0905
10903TIP3   OH232669   3.848   6.404   4.997 -0.2336  0.0179 -0.3692
10903TIP3    H132670   3.844   6.431   5.089 -0.0684  0.3212 -0.4501
10903TIP3    H232671   3.818   6.313   4.998 -0.2492  0.0240 -0.0172
10904TIP3   OH232672   7.391   2.908   1.164  0.1220 -0.1672  0.2053
10904TIP3    H132673   7.486   2.909   1.175  0.1498  1.4055 -0.0543
10904TIP3    H232674   7.369   2.816   1.151  1.6639 -0.4920 -0.1382
10905TIP3   OH232675   7.511   3.408   1.490 -0.5922  0.1620  0.0830
10905TIP3    H132676   7.521   3.452   1.405  0.2653 -0.7952 -0.3247
10905TIP3    H232677   7.502   3.315   1.467 -3.3328  0.1818  0.8631
10906TIP3   OH232678   3.267   1.625   5.408  0.2821  0.5330  0.7311
10906TIP3    H132679   3.348   1.610   5.360 -0.6490 -2.7808  0.0765
10906TIP3    H232680   3.292   1.626   5.500  1.0814 -0.2383  0.5160
10907TIP3   OH232681   5.373   0.376   5.885 -0.3568  0.6134  0.6114
10907TIP3    H132682   5.364   0.318   5.960 -0.1437  0.2617  0.3672
10907TIP3    H232683   5.289   0.369   5.839  0.2641 -0.8025 -0.3382
10908TIP3   OH232684   2.036   1.504   0.827  0.4374 -0.0538  0.5249
10908TIP3    H132685   2.119   1.470   0.860  0.0686 -1.1407  0.3520
10908TIP3    H232686   2.003   1.561   0.897  0.7518 -0.5620  1.0863
10909TIP3   OH232687   0.287   1.855   1.184 -0.3724 -0.6675  0.7015
10909TIP3    H132688   0.357   1.892   1.239  0.2040 -1.2354  0.3567
10909TIP3    H232689   0.310   1.883   1.095  0.4729 -2.4728  0.3405
10910TIP3   OH232690   7.541   3.764   2.999 -0.1840 -0.3773 -0.0120
10910TIP3    H132691   7.449   3.790   2.997 -0.2792 -0.7015  0.1998
10910TIP3    H232692   7.568   3.778   3.090  0.4389  1.3287 -0.4342
10911TIP3   OH232693   1.672   7.174   3.335 -0.5771 -0.2608 -0.3933
10911TIP3    H132694   1.589   7.129   3.351 -1.0870  0.8996  0.1940
10911TIP3    H232695   1.679   7.239   3.405  0.2014  0.5282 -1.1919
10912TIP3   OH232696   6.711   1.932   5.951 -0.1402 -0.0532 -0.0766
10912TIP3    H132697   6.735   1.990   6.024 -0.5899 -0.4414  0.3862
10912TIP3    H232698   6.794   1.912   5.907 -0.0896  1.6979 -0.8126
10913TIP3   OH232699   7.537   1.379   6.284 -0.3064  0.1224 -0.8992
10913TIP3    H132700   7.484   1.319   6.231 -0.6653 -0.3349 -0.0271
10913TIP3    H232701   7.602   1.324   6.326  0.0598  0.5073 -0.9542
10914TIP3   OH232702   1.202   2.818   3.119  0.1707 -0.4022  0.1441
10914TIP3    H132703   1.202   2.755   3.191  1.8557  1.1983  1.5866
10914TIP3    H232704   1.151   2.892   3.150 -0.2701 -0.2820 -0.8371
10915TIP3   OH232705   3.727   6.739   5.078 -0.0981 -0.1696 -0.0333
10915TIP3    H132706   3.788   6.757   5.150  0.6661 -1.9080 -0.2200
10915TIP3    H232707   3.746   6.807   5.014  1.5959 -0.6125 -0.0389
10916TIP3   OH232708   2.009   6.008   0.264 -0.1865  0.0184  0.0628
10916TIP3    H132709   2.072   6.035   0.331  2.0927  1.1564 -2.4282
10916TIP3    H232710   1.925   6.037   0.298  1.1161  2.0076  1.7514
10917TIP3   OH232711   3.316   7.018   5.867 -0.6441  0.0559  0.0766
10917TIP3    H132712   3.251   7.055   5.927  0.7421 -0.1959  1.7799
10917TIP3    H232713   3.400   7.049   5.901  0.3157 -1.9400 -0.4042
10918TIP3   OH232714   1.878   0.045   4.824  0.1301  0.0820  0.2968
10918TIP3    H132715   1.845  -0.036   4.785  1.1871 -0.4544  0.4833
10918TIP3    H232716   1.811   0.110   4.805  0.2459 -0.3563 -1.6607
10919TIP3   OH232717   0.387   0.107   6.007 -0.9291 -0.5105  0.2077
10919TIP3    H132718   0.473   0.069   6.025 -1.0683 -0.7502  0.3822
10919TIP3    H232719   0.342   0.106   6.092 -0.5483  1.0669  0.4401
10920TIP3   OH232720   4.764   3.345   0.594  0.5634  0.3834 -0.2283
10920TIP3    H132721   4.710   3.288   0.540  0.5663  1.1099 -1.0119
10920TIP3    H232722   4.712   3.361   0.672  0.7412 -1.0293  0.1846
10921TIP3   OH232723   6.551   6.346   5.633 -0.0118 -0.2681 -0.1274
10921TIP3    H132724   6.568   6.264   5.587  1.0419  0.2628 -0.7058
10921TIP3    H232725   6.500   6.399   5.570  0.6988  0.1331 -0.3691
10922TIP3   OH232726   6.365   0.483   5.647 -0.1964 -0.9153 -0.6528
10922TIP3    H132727   6.424   0.543   5.600 -1.3021  0.6424 -0.1109
10922TIP3    H232728   6.284   0.486   5.598 -0.2183 -2.1019 -0.6966
10923TIP3   OH232729   0.685   3.096   0.252 -0.5790 -0.0407 -0.3772
10923TIP3    H132730   0.753   3.051   0.302 -1.0530  1.0000  1.2561
10923TIP3    H232731   0.661   3.035   0.182 -1.4917 -2.4860  2.0118
10924TIP3   OH232732   0.189   0.882   5.681 -0.2097  0.1792  0.0426
10924TIP3    H132733   0.203   0.931   5.600  1.0584  0.3382  0.3539
10924TIP3    H232734   0.235   0.799   5.667 -0.8028 -0.1807  0.2248
10925TIP3   OH232735   7.399   1.781   3.063 -0.2310  0.3184 -0.1263
10925TIP3    H132736   7.452   1.752   3.136 -0.1333 -0.3060 -0.4412
10925TIP3    H232737   7.454   1.766   2.986 -1.0699 -0.8741 -0.5096
10926TIP3   OH232738   5.276   2.099   4.729 -0.8541  0.2504 -0.2682
10926TIP3    H132739   5.237   2.170   4.780  2.2872  1.6015  0.3272
10926TIP3    H232740   5.335   2.142   4.668 -1.0314 -1.6871 -1.8433
10927TIP3   OH232741   7.054   0.636   5.470  0.1769 -0.2257  0.5218
10927TIP3    H132742   7.136   0.592   5.496 -0.2264 -0.7015  1.0041
10927TIP3    H232743   6.997   0.626   5.546 -0.2489  0.3149  0.2731
10928TIP3   OH232744   5.081   2.672   5.216  0.8987  0.5810 -0.7491
10928TIP3    H132745   5.091   2.767   5.227  1.6268  0.6391 -1.8439
10928TIP3    H232746   5.057   2.661   5.124  1.5838 -0.3486 -0.8224
10929TIP3   OH232747   7.418   0.401   4.681  0.2709 -0.2273 -0.1491
10929TIP3    H132748   7.402   0.326   4.739 -0.7225 -0.2246 -0.4042
10929TIP3    H232749   7.482   0.369   4.618  0.1751 -0.7325  0.0026
10930TIP3   OH232750   6.204   0.289   6.041 -0.4106  0.3263 -0.0987
10930TIP3    H132751   6.272   0.280   5.974 -0.1829 -0.2355  0.2054
10930TIP3    H232752   6.186   0.199   6.068 -1.8986  0.4083 -0.7977
10931TIP3   OH232753   2.111   7.041   4.679  0.1455  0.5754  0.5339
10931TIP3    H132754   2.102   7.119   4.624  2.2275 -0.9235 -2.0926
10931TIP3    H232755   2.204   7.039   4.702  0.6045 -2.2210 -1.2651
10932TIP3   OH232756   5.440   6.798   4.617 -0.1731  0.6145  0.3231
10932TIP3    H132757   5.462   6.744   4.693 -1.0917  0.3085  0.3797
10932TIP3    H232758   5.347   6.784   4.604  0.0867  0.2224 -1.2081
10933TIP3   OH232759   5.500   2.255   3.888 -0.2743  0.1639 -0.3251
10933TIP3    H132760   5.555   2.332   3.876 -0.1599  0.2816  0.8654
10933TIP3    H232761   5.557   2.192   3.932 -1.3586  0.6422  1.8208
10934TIP3   OH232762   0.294   0.925   5.126 -0.3676 -0.1246 -0.3349
10934TIP3    H132763   0.318   0.992   5.190 -3.4159 -0.9026  1.7262
10934TIP3    H232764   0.310   0.842   5.170  0.6393 -0.7397 -1.8143
10935TIP3   OH232765   5.265   7.209   4.857 -0.0506 -0.0192  0.3914
10935TIP3    H132766   5.318   7.243   4.928 -1.9803  2.4138  0.7158
10935TIP3    H232767   5.178   7.196   4.895 -0.2371 -2.0654 -0.6389
10936TIP3   OH232768   0.260   0.796   4.612 -0.5553  0.0892 -0.1340
10936TIP3    H132769   0.261   0.831   4.523 -0.5587  1.1148  0.2563
10936TIP3    H232770   0.349   0.765   4.627 -0.3264  0.7083 -0.1925
10937TIP3   OH232771   6.303   1.109   6.345 -0.3938 -0.8987  0.2807
10937TIP3    H132772   6.357   1.092   6.422  1.6694  0.8327 -0.7247
10937TIP3    H232773   6.363   1.147   6.281 -2.4379 -0.6054 -1.5491
10938TIP3   OH232774   4.204   7.013   3.549  0.6649 -0.0285 -0.4562
10938TIP3    H132775   4.234   6.937   3.500  2.5076  0.7529 -0.5649
10938TIP3    H232776   4.192   7.081   3.482  0.3520  0.1878 -0.1831
10939TIP3   OH232777   7.339   4.785   0.237 -0.6251  0.2480 -0.0425
10939TIP3    H132778   7.423   4.813   0.273 -0.5206  0.7050 -0.6270
10939TIP3    H232779   7.278   4.790   0.311  0.3462 -2.4551  1.0035
10940TIP3   OH232780   6.896   0.959   6.308 -0.4190 -0.5153  0.1453
10940TIP3    H132781   6.960   1.018   6.270 -1.9944 -0.0306 -1.8795
10940TIP3    H232782   6.939   0.921   6.384  1.9721  0.3527 -0.7495
10941TIP3   OH232783   0.240   2.063   4.065 -0.5400  0.0924 -0.0413
10941TIP3    H132784   0.268   1.977   4.033 -1.7107  0.0085 -0.8775
10941TIP3    H232785   0.302   2.084   4.135 -0.1183 -1.3441  0.0361
10942TIP3   OH232786   6.218   2.010   5.311 -0.2500  0.2738  0.6683
10942TIP3    H132787   6.313   2.009   5.305 -0.3313 -1.6443 -0.5251
10942TIP3    H232788   6.197   2.099   5.340  1.8045  1.1594 -0.4854
10943TIP3   OH232789   0.820   4.522   0.912  0.1007  0.3135  0.1746
10943TIP3    H132790   0.839   4.495   1.002 -1.5196 -1.4764  0.0181
10943TIP3    H232791   0.777   4.446   0.873 -1.8829  2.0934 -1.2420
10944TIP3   OH232792   7.261   1.368   5.297 -0.0459  0.0834 -0.1177
10944TIP3    H132793   7.225   1.432   5.236  1.8726 -0.2309 -1.6007
10944TIP3    H232794   7.271   1.417   5.379 -0.8823  0.9993 -0.5410
10945TIP3   OH232795   0.008   0.253   5.203 -0.8567 -0.1837 -0.1813
10945TIP3    H132796   0.045   0.324   5.256 -2.7488 -0.1281  1.1175
10945TIP3    H232797   0.057   0.175   5.228  1.0494  0.5903 -1.4141
10946TIP3   OH232798   0.929   1.453   4.159  0.3596 -0.5202  0.2535
10946TIP3    H132799   0.902   1.433   4.249 -1.9406  0.7441 -0.0912
10946TIP3    H232800   1.017   1.489   4.168 -1.1957  3.1068  2.5193
10947TIP3   OH232801   5.182   6.720   4.656 -0.8359  0.5238 -0.4779
10947TIP3    H132802   5.101   6.670   4.666  0.0331 -0.5244  1.6014
10947TIP3    H232803   5.196   6.761   4.742  1.6946 -0.6752 -0.2893
10948TIP3   OH232804   4.949   6.641   4.049 -0.1483 -0.3171 -0.1020
10948TIP3    H132805   4.954   6.737   4.051 -1.9001 -0.2060  0.1921
10948TIP3    H232806   4.925   6.617   4.139  1.5704 -1.1318  0.1490
10949TIP3   OH232807   1.891   5.791   0.768  0.4874  0.4768 -0.2694
10949TIP3    H132808   1.925   5.715   0.722  1.4287  0.8997 -0.2630
10949TIP3    H232809   1.894   5.766   0.861 -0.2032  0.1186 -0.3411
10950TIP3   OH232810   0.258   1.440   5.134  0.1717  0.0805 -0.1236
10950TIP3    H132811   0.192   1.500   5.170 -0.3757 -0.8024  0.3806
10950TIP3    H232812   0.334   1.451   5.190 -0.4669 -0.8335  0.9338
10951TIP3   OH232813   2.332   3.113   2.094  0.4001  0.5032 -0.2195
10951TIP3    H132814   2.323   3.092   2.187  1.8122 -1.4773 -0.4886
10951TIP3    H232815   2.257   3.070   2.052 -0.2470  1.4123  0.0090
10952TIP3   OH232816   7.190   0.118   5.577  0.4429  0.3002  0.3838
10952TIP3    H132817   7.247   0.192   5.555  0.0561  0.5084  0.0767
10952TIP3    H232818   7.247   0.042   5.570  1.0143  0.6235  1.3314
10953TIP3   OH232819   2.477   3.137   0.557  0.6457 -0.6771  0.1531
10953TIP3    H132820   2.472   3.200   0.485  2.1697  0.7831  1.2735
10953TIP3    H232821   2.389   3.102   0.565 -0.2309  1.3125 -0.5054
10954TIP3   OH232822   0.527   3.330   0.177  0.2409 -0.1586  0.5596
10954TIP3    H132823   0.591   3.259   0.186  0.1591 -0.1809  0.9601
10954TIP3    H232824   0.468   3.300   0.109  1.3793  0.4013 -0.7050
10955TIP3   OH232825   1.522   5.110   0.587  0.9003 -0.4389  0.3335
10955TIP3    H132826   1.526   5.103   0.682  1.2476 -1.5124  0.2418
10955TIP3    H232827   1.434   5.145   0.570 -0.0254 -2.3858  0.9433
10956TIP3   OH232828   7.025   0.249   6.355  0.6856  0.3203 -0.0569
10956TIP3    H132829   7.064   0.166   6.326  0.6936  0.2529  0.1428
10956TIP3    H232830   6.943   0.255   6.306  0.3654 -0.1320  0.4123
10957TIP3   OH232831   0.690   2.232   1.111  0.4618 -0.5269 -0.0460
10957TIP3    H132832   0.727   2.314   1.078  1.9490 -1.5789 -1.0706
10957TIP3    H232833   0.621   2.210   1.049  0.4133 -0.3214 -0.0643
10958TIP3   OH232834   2.817   7.267   3.438  0.3703  0.2510  0.1569
10958TIP3    H132835   2.882   7.231   3.498  0.8029  1.2651  0.2969
10958TIP3    H232836   2.734   7.258   3.485  0.3736 -1.1717 -0.0794
10959TIP3   OH232837   5.824   6.476   3.119  0.0957  0.5653 -0.0182
10959TIP3    H132838   5.865   6.399   3.158  0.9595  1.4273  0.8299
10959TIP3    H232839   5.895   6.520   3.072 -0.7890 -0.0989 -2.0195
10960TIP3   OH232840   6.902   0.993   5.456 -0.3323 -0.0395  0.2189
10960TIP3    H132841   6.816   1.033   5.446 -0.2181 -0.0163 -0.6928
10960TIP3    H232842   6.886   0.899   5.444 -0.0845  0.0553 -0.9592
10961TIP3   OH232843   0.964   1.938   5.170  0.1146  0.2744  0.4837
10961TIP3    H132844   1.002   2.026   5.163 -0.2237  0.2863 -1.4978
10961TIP3    H232845   1.006   1.900   5.247  2.8009  0.9703 -0.5748
10962TIP3   OH232846   3.448   2.475   4.323 -0.0757  0.9307  0.6027
10962TIP3    H132847   3.359   2.441   4.322  0.6314 -0.9923  1.8369
10962TIP3    H232848   3.494   2.424   4.389  1.9784  1.8508 -0.0478
10963TIP3   OH232849   7.681   1.187   5.512  0.3519 -0.4409 -0.4909
10963TIP3    H132850   7.590   1.182   5.484  1.1489  0.0047 -3.2835
10963TIP3    H232851   7.732   1.168   5.434  2.6932  0.7761  0.6635
10964TIP3   OH232852   1.232   0.622   3.288  0.2683 -0.2944 -0.7393
10964TIP3    H132853   1.298   0.680   3.326  1.7294 -2.2333 -0.2407
10964TIP3    H232854   1.228   0.646   3.196  1.2754  0.1931 -0.6525
10965TIP3   OH232855   5.959   1.273   5.916  0.2143  0.3346 -0.1610
10965TIP3    H132856   5.993   1.359   5.889  0.9588 -0.1710 -0.8267
10965TIP3    H232857   6.023   1.241   5.979 -0.2738  0.4437  0.3906
10966TIP3   OH232858   3.924   7.235   6.116 -0.3179  0.1818 -0.5794
10966TIP3    H132859   3.957   7.165   6.060  0.5792 -1.1780  1.5598
10966TIP3    H232860   4.002   7.284   6.142 -0.7181  0.7576 -0.4413
10967TIP3   OH232861   6.490   5.792   5.156 -0.4862 -0.0933  0.6556
10967TIP3    H132862   6.449   5.761   5.236 -0.1979  3.1577  2.1691
10967TIP3    H232863   6.584   5.795   5.177 -0.3841  0.5510  0.1463
10968TIP3   OH232864   4.941   7.158   3.839 -0.1202 -0.1594  0.3974
10968TIP3    H132865   4.934   7.063   3.825  0.1739 -0.0769 -0.3340
10968TIP3    H232866   4.908   7.196   3.757  0.1830  0.3622  0.5212
10969TIP3   OH232867   1.089   1.732   2.418 -0.5878 -0.4310 -0.6339
10969TIP3    H132868   1.056   1.778   2.496  0.2124 -0.0569 -0.5026
10969TIP3    H232869   1.173   1.775   2.399 -0.0766 -1.4899 -0.8305
10970TIP3   OH232870   2.088   6.819   5.803 -0.0749 -0.0604  0.1383
10970TIP3    H132871   2.171   6.862   5.825 -0.7197  0.7103  1.0966
10970TIP3    H232872   2.112   6.755   5.736  1.3012  0.1493  0.4033
10971TIP3   OH232873   1.454   3.249   0.114 -0.2873 -0.2478 -0.0123
10971TIP3    H132874   1.510   3.312   0.159 -0.0698  0.1691 -0.8531
10971TIP3    H232875   1.365   3.274   0.139 -0.2021  0.3712 -0.3029
10972TIP3   OH232876   0.807   0.588   4.098 -0.1575  0.1433  0.7742
10972TIP3    H132877   0.812   0.645   4.174 -0.9711  2.1999 -0.6720
10972TIP3    H232878   0.888   0.604   4.050  0.4094 -1.2357  1.2438
10973TIP3   OH232879   3.303   6.125   0.103  0.2695  0.5314 -0.3541
10973TIP3    H132880   3.279   6.189   0.036  0.2628  1.5302  0.5740
10973TIP3    H232881   3.391   6.098   0.080 -0.1491  0.0284 -1.3924
10974TIP3   OH232882   7.499   0.544   5.140 -0.1380 -0.3064 -0.1338
10974TIP3    H132883   7.419   0.548   5.088  0.4350  2.8773 -0.8824
10974TIP3    H232884   7.569   0.566   5.079  0.8287  1.0414  1.4019
10975TIP3   OH232885   6.936   0.209   5.583 -0.5703  0.3940  0.7560
10975TIP3    H132886   7.026   0.179   5.582  0.1283  2.4235  0.4669
10975TIP3    H232887   6.898   0.174   5.502  0.4998  1.0813 -0.0594
10976TIP3   OH232888   7.231   2.595   4.608  0.7720  0.3153  0.3603
10976TIP3    H132889   7.255   2.506   4.581  2.9169  1.3639 -1.3525
10976TIP3    H232890   7.308   2.628   4.654  0.2583  1.5664  0.3501
10977TIP3   OH232891   5.023   2.830   0.712 -0.4486  0.1683  0.2119
10977TIP3    H132892   4.981   2.761   0.660 -1.5546  0.6227  0.4747
10977TIP3    H232893   5.112   2.834   0.678 -0.5368 -0.9822 -0.2104
10978TIP3   OH232894   1.210   5.190   0.495 -0.9829  0.0776 -0.0498
10978TIP3    H132895   1.141   5.178   0.560 -1.0126 -0.9315 -0.2523
10978TIP3    H232896   1.208   5.110   0.443  0.9781 -0.3943  0.5400
10979TIP3   OH232897   5.902   6.761   5.794 -0.1879  0.1909  0.5229
10979TIP3    H132898   5.976   6.774   5.854  0.2336 -2.8887  0.8013
10979TIP3    H232899   5.824   6.777   5.847  0.2337  2.2648  0.5516
10980TIP3   OH232900   2.154   1.304   3.483  0.1355  0.0898  0.7815
10980TIP3    H132901   2.149   1.292   3.578  1.1890 -1.4750  0.6678
10980TIP3    H232902   2.247   1.317   3.465 -0.1112  0.8418  0.0055
10981TIP3   OH232903   0.560   1.063   5.101 -0.0896  0.1565  0.0264
10981TIP3    H132904   0.531   1.114   5.026 -0.6637 -1.6563 -1.0044
10981TIP3    H232905   0.655   1.064   5.096 -0.0002  3.1370  1.4006
10982TIP3   OH232906   1.245   1.789   3.340 -0.1356 -0.0584  0.3782
10982TIP3    H132907   1.231   1.828   3.253 -2.0933  0.8189  1.0548
10982TIP3    H232908   1.304   1.849   3.385 -0.2274  0.2095  0.1421
10983TIP3   OH232909   0.276   1.609   3.280 -0.4490 -0.5482  0.0316
10983TIP3    H132910   0.326   1.611   3.362 -1.3297 -0.3289  0.5755
10983TIP3    H232911   0.207   1.544   3.296 -0.9190 -0.1462 -0.3596
10984TIP3   OH232912   6.830   3.825   5.677  0.1930  0.1132  0.5665
10984TIP3    H132913   6.834   3.732   5.696  0.7897 -0.0032 -0.1435
10984TIP3    H232914   6.744   3.838   5.636 -0.7177  0.2091  2.4278
10985TIP3   OH232915   0.174   4.934   5.470 -0.0413  0.0019 -0.1161
10985TIP3    H132916   0.221   4.867   5.420 -0.4575  0.0999 -0.6481
10985TIP3    H232917   0.107   4.886   5.518  0.2976 -0.0817  0.2715
10986TIP3   OH232918   5.163   7.175   2.843  0.2183  0.2913 -0.2674
10986TIP3    H132919   5.249   7.148   2.811  0.4977 -0.4363  1.0759
10986TIP3    H232920   5.149   7.261   2.804  1.3923  0.2685 -0.7713
10987TIP3   OH232921   1.104   2.095   2.428 -0.2330  0.3668  0.2368
10987TIP3    H132922   1.110   2.180   2.471  1.3498 -0.2913  1.3575
10987TIP3    H232923   1.070   2.036   2.495  1.9358 -0.5941  0.5128
10988TIP3   OH232924   7.442   5.881   4.466  0.4153 -0.1377  0.1363
10988TIP3    H132925   7.351   5.892   4.439  0.0590  1.0730  1.7664
10988TIP3    H232926   7.477   5.815   4.406 -1.7529 -1.2212  0.0331
10989TIP3   OH232927   0.545   0.207   3.491  0.3755  0.2487 -0.2206
10989TIP3    H132928   0.505   0.127   3.526 -1.0471  0.9924 -0.0962
10989TIP3    H232929   0.492   0.229   3.415  1.6222  0.3123 -1.0868
10990TIP3   OH232930   0.341   0.661   4.012  0.2820 -0.0220 -0.0015
10990TIP3    H132931   0.432   0.646   3.985  0.4610  0.1086  0.5091
10990TIP3    H232932   0.297   0.579   3.992  0.1814  0.4200 -1.5918
10991TIP3   OH232933   6.870   0.597   3.745  0.2032  0.2920  0.0551
10991TIP3    H132934   6.914   0.530   3.691 -0.1301  0.3346 -0.2757
10991TIP3    H232935   6.861   0.672   3.686  0.1452  0.4617  0.2804
10992TIP3   OH232936   1.367   1.385   3.116  0.6651  0.5248 -0.3545
10992TIP3    H132937   1.367   1.309   3.058 -0.1903  1.0442 -1.0562
10992TIP3    H232938   1.328   1.455   3.063 -1.4708  0.6559  1.3157
10993TIP3   OH232939   1.539   2.091   4.482  0.7608 -0.1101  0.4232
10993TIP3    H132940   1.552   2.185   4.487  0.8343 -0.1283  0.5634
10993TIP3    H232941   1.591   2.063   4.406  0.2767  0.0440  0.0276
10994TIP3   OH232942   5.499   6.967   3.391 -0.0658  0.1379  0.0491
10994TIP3    H132943   5.502   6.986   3.297  0.0829 -0.4014 -0.0581
10994TIP3    H232944   5.408   6.942   3.407  0.1663 -0.9137 -0.1877
10995TIP3   OH232945   6.558   5.027   6.308  0.3700  0.1227  0.1642
10995TIP3    H132946   6.646   5.053   6.337  1.3956 -2.7266 -0.2510
10995TIP3    H232947   6.513   5.110   6.292  3.3436  1.6654 -0.6984
10996TIP3   OH232948   6.799   7.087   2.769  0.2229 -0.2337  0.2975
10996TIP3    H132949   6.875   7.108   2.715  0.1041  1.9713  0.9270
10996TIP3    H232950   6.791   6.992   2.763  4.2020 -0.7644  1.7434
10997TIP3   OH232951   6.974   6.357   4.956  0.2321  0.1814  0.4400
10997TIP3    H132952   6.982   6.434   4.900 -1.4225 -0.7653 -1.1364
10997TIP3    H232953   6.953   6.393   5.042 -1.5731  1.4662 -0.4957
10998TIP3   OH232954   4.443   0.304   1.138 -0.2021 -0.2631  0.1649
10998TIP3    H132955   4.401   0.255   1.068 -0.5705 -0.3856  0.4667
10998TIP3    H232956   4.402   0.270   1.218  0.6488 -0.5678  0.4824
10999TIP3   OH232957   2.369   2.300   3.444 -0.1632 -0.2497 -0.5512
10999TIP3    H132958   2.287   2.329   3.404 -0.7623  0.0340  0.8626
10999TIP3    H232959   2.429   2.374   3.433 -0.6578  0.2457  0.0379
11000TIP3   OH232960   2.387   0.515   3.149 -0.3592  0.1571 -0.1047
11000TIP3    H132961   2.364   0.512   3.242 -0.2855  1.3134 -0.0412
11000TIP3    H232962   2.397   0.423   3.124  1.3500 -0.1218  1.4513
11001TIP3   OH232963   1.302   5.024   1.898  0.0521  0.2810  0.0103
11001TIP3    H132964   1.250   5.053   1.973  0.9276 -0.1259  0.7850
11001TIP3    H232965   1.342   5.103   1.863 -0.1846  0.4402  0.0991
11002TIP3   OH232966   0.280   5.080   3.347  0.8605  0.1372  0.5253
11002TIP3    H132967   0.190   5.092   3.315  1.0386  1.5890  0.5147
11002TIP3    H232968   0.330   5.057   3.269  0.9996  2.0986  0.0145
11003TIP3   OH232969   7.195   5.297   0.044  0.0490 -0.0939 -0.0887
11003TIP3    H132970   7.273   5.351   0.030  0.8607 -1.3195 -0.3471
11003TIP3    H232971   7.138   5.317  -0.030  1.0471 -0.8052 -1.0595
11004TIP3   OH232972   2.344   0.267   2.982  0.2949  0.1689 -0.5210
11004TIP3    H132973   2.302   0.217   2.912 -0.0555  0.7682 -0.7477
11004TIP3    H232974   2.331   0.214   3.061  3.0901 -1.8368 -1.3663
11005TIP3   OH232975   0.340   2.860   2.526 -0.1406 -0.0914  0.6496
11005TIP3    H132976   0.358   2.947   2.563 -1.4890  0.2934  0.4422
11005TIP3    H232977   0.264   2.874   2.468  0.7362 -1.0589 -0.7771
11006TIP3   OH232978   7.405   5.426   1.830 -0.4217  0.2253 -0.2242
11006TIP3    H132979   7.399   5.471   1.747 -0.6147  1.2716  0.3495
11006TIP3    H232980   7.495   5.439   1.859 -0.6663  0.8643  0.2759
11007TIP3   OH232981   5.894   5.085   1.585 -0.1903 -0.2527  0.2579
11007TIP3    H132982   5.939   5.094   1.500 -0.9611 -0.9171 -0.2285
11007TIP3    H232983   5.818   5.142   1.578 -0.8842 -1.1951  0.0656
11008TIP3   OH232984   0.402   5.467  -0.012  0.1064  0.8496  0.1077
11008TIP3    H132985   0.395   5.556  -0.046 -0.5273  0.9735  0.5555
11008TIP3    H232986   0.445   5.477   0.073 -1.8022  0.9564  1.0915
11009TIP3   OH232987   5.555   6.564   3.089 -0.2411 -0.4025 -0.3348
11009TIP3    H132988   5.636   6.543   3.136 -1.8682 -2.0852  1.8285
11009TIP3    H232989   5.495   6.592   3.158 -1.4438  1.0176 -1.9497
11010TIP3   OH232990   6.161   4.941   0.483 -0.1891  0.5430  0.0041
11010TIP3    H132991   6.083   4.936   0.429  0.3370 -0.1106 -0.7170
11010TIP3    H232992   6.153   4.867   0.545  0.4384 -0.2881 -0.8835
11011TIP3   OH232993   0.083   5.934   0.786 -0.4012  0.1603 -0.0978
11011TIP3    H132994   0.004   5.944   0.838 -0.5498 -1.6991  0.0620
11011TIP3    H232995   0.051   5.911   0.699 -0.0347 -1.2954  0.1420
11012TIP3   OH232996   7.647   4.724   2.496  1.1397  0.2021 -0.2073
11012TIP3    H132997   7.585   4.677   2.439  0.4019  1.3286 -0.3623
11012TIP3    H232998   7.713   4.659   2.519 -0.2729 -1.1246  0.2062
11013TIP3   OH232999   7.028   4.816   1.077 -0.6971 -0.2362  0.5137
11013TIP3    H133000   6.949   4.868   1.061 -1.8193 -1.4912  1.8392
11013TIP3    H233001   6.996   4.727   1.094  1.0572 -0.9483  0.2662
11014TIP3   OH233002   7.039   1.955   6.175  0.1291 -0.0820  0.7332
11014TIP3    H133003   7.083   1.926   6.095 -0.9169 -1.6038  0.6908
11014TIP3    H233004   7.067   2.046   6.186 -1.5866  0.9574 -2.6989
11015TIP3   OH233005   6.858   5.996   1.074 -0.6373  1.0035 -0.3314
11015TIP3    H133006   6.844   5.990   1.168 -0.9633 -2.7300 -0.5504
11015TIP3    H233007   6.826   6.084   1.050 -0.0256  2.2115  3.0692
11016TIP3   OH233008   3.650   0.349   2.313  0.0705  0.6911 -0.2769
11016TIP3    H133009   3.655   0.274   2.372  1.0484 -0.0006 -1.2283
11016TIP3    H233010   3.716   0.409   2.345  0.4042  0.4406 -0.4966
11017TIP3   OH233011   3.104   4.590   5.961 -1.0003  0.1042  0.9874
11017TIP3    H133012   3.144   4.647   6.026  1.1060 -0.1975  0.0041
11017TIP3    H233013   3.092   4.646   5.884  2.7403 -1.1277 -0.5963
11018TIP3   OH233014   5.017   6.343   1.727  0.2580  0.0709 -0.3189
11018TIP3    H133015   5.040   6.346   1.820 -0.0338 -0.1041 -0.2428
11018TIP3    H233016   5.056   6.422   1.690 -0.4231  0.6166  0.1264
11019TIP3   OH233017   4.323   3.618   5.690 -0.1550 -0.4662  0.0456
11019TIP3    H133018   4.248   3.649   5.739  2.1414  3.7027  1.1672
11019TIP3    H233019   4.362   3.551   5.746 -1.4759 -0.7065  0.6988
11020TIP3   OH233020   5.478   6.722   1.445  0.5126 -0.0590 -0.5124
11020TIP3    H133021   5.553   6.662   1.442  0.9247  0.3602  1.0207
11020TIP3    H233022   5.501   6.786   1.512 -1.3991 -0.1773  0.2958
11021TIP3   OH233023   7.205   0.446   1.073  0.0959 -0.7329  0.2319
11021TIP3    H133024   7.291   0.418   1.106  0.2916 -0.8222 -0.3523
11021TIP3    H233025   7.168   0.367   1.034  0.4455 -0.2948 -0.9933
11022TIP3   OH233026   5.013   7.128   0.880 -0.1242  0.3709 -0.2433
11022TIP3    H133027   5.083   7.146   0.818 -0.9617  2.6733 -0.5828
11022TIP3    H233028   5.041   7.170   0.961  0.3858 -1.5480  0.6043
11023TIP3   OH233029   4.741   1.952   5.667  0.3385 -0.2302 -0.3004
11023TIP3    H133030   4.836   1.954   5.656  0.3730  0.3022  0.0677
11023TIP3    H233031   4.706   1.956   5.579  0.6296  1.6283 -0.3403
11024TIP3   OH233032   6.503   7.350   4.162 -0.1933 -0.2484  0.2532
11024TIP3    H133033   6.435   7.414   4.144 -0.5039 -0.5695  0.2864
11024TIP3    H233034   6.497   7.287   4.091  1.6987  1.0606 -1.1151
11025TIP3   OH233035   4.039   7.272   2.399  0.5659 -0.5874 -0.1903
11025TIP3    H133036   4.059   7.335   2.468  0.7998 -1.3465  0.4372
11025TIP3    H233037   4.087   7.193   2.424 -0.3410 -1.2627 -0.5679
11026TIP3   OH233038   4.097   3.387   5.400 -0.2235  0.1162 -0.0624
11026TIP3    H133039   4.118   3.366   5.490 -2.4464  1.8070  0.8959
11026TIP3    H233040   4.165   3.449   5.373 -1.3172  2.0435  1.5088
11027TIP3   OH233041   5.736   6.974   2.313  0.5872 -0.0791 -0.3411
11027TIP3    H133042   5.753   6.880   2.317  1.0444 -0.0081 -0.5905
11027TIP3    H233043   5.801   7.013   2.372 -0.5109 -0.0302  0.8563
11028TIP3   OH233044   2.547   2.733   6.063  0.3147  0.2184 -0.1783
11028TIP3    H133045   2.592   2.688   6.135  0.6811  0.1271 -0.4584
11028TIP3    H233046   2.467   2.682   6.049  0.4829 -0.0556 -0.1577
11029TIP3   OH233047   7.504   6.381   3.737  0.5366 -0.3542  0.0196
11029TIP3    H133048   7.490   6.463   3.784 -0.1193 -0.5440  0.1515
11029TIP3    H233049   7.467   6.314   3.794  1.8183 -0.8432  0.3046
11030TIP3   OH233050   5.673   6.535   1.476 -0.0677 -0.1323  0.3536
11030TIP3    H133051   5.707   6.496   1.556 -0.0995 -0.3530  0.2592
11030TIP3    H233052   5.614   6.469   1.440 -0.6579  0.2683  0.5552
11031TIP3   OH233053   4.270   3.267   5.618 -0.2339  0.6713  0.5596
11031TIP3    H133054   4.336   3.314   5.568 -2.4286  1.1803 -2.0001
11031TIP3    H233055   4.313   3.185   5.645  1.2378  0.7149 -1.5709
11032TIP3   OH233056   6.616   7.257   3.725  0.0380 -0.4035 -0.1261
11032TIP3    H133057   6.708   7.236   3.713 -0.4057 -1.5084 -1.7106
11032TIP3    H233058   6.615   7.351   3.744  1.4519 -0.3141 -0.4531
11033TIP3   OH233059   2.393   0.653   0.952 -0.0466  0.1217  0.4268
11033TIP3    H133060   2.344   0.655   1.035 -2.4035  2.8835 -0.9462
11033TIP3    H233061   2.334   0.610   0.890 -0.0379  1.9192 -0.8420
11034TIP3   OH233062   4.275   4.971   5.611 -0.6526 -0.3186  0.0892
11034TIP3    H133063   4.282   4.923   5.693 -1.1095 -0.3362  0.1197
11034TIP3    H233064   4.299   5.061   5.633 -0.4219 -0.3998  0.1652
11035TIP3   OH233065   2.887   1.305   1.711 -0.3810 -0.5392 -0.4379
11035TIP3    H133066   2.828   1.379   1.724  2.3952  1.7572 -0.7111
11035TIP3    H233067   2.891   1.262   1.796  0.0374  1.1399  0.3906
11036TIP3   OH233068   2.125   0.385   0.632  0.1265  0.4469 -0.0938
11036TIP3    H133069   2.163   0.372   0.545 -0.0604  0.5044 -0.1851
11036TIP3    H233070   2.031   0.393   0.616 -0.2379 -2.2773  0.3977
11037TIP3   OH233071   6.098   2.029   5.070  0.2198  0.6039  0.1578
11037TIP3    H133072   6.144   2.008   5.151 -0.6973 -0.7097  0.3502
11037TIP3    H233073   6.007   2.041   5.096 -0.1225 -0.0847 -0.7127
11038TIP3   OH233074   0.628   0.185   1.514  0.4344  0.0817  0.3925
11038TIP3    H133075   0.707   0.133   1.496 -0.6348 -1.3754 -0.2016
11038TIP3    H233076   0.596   0.211   1.428 -0.2383 -0.1038  0.5862
11039TIP3   OH233077   5.285   6.652   0.213  0.4138 -0.4358  0.1816
11039TIP3    H133078   5.219   6.641   0.282  0.1815 -1.6556 -0.2195
11039TIP3    H233079   5.367   6.620   0.253  1.2030  2.8110  1.3223
11040TIP3   OH233080   0.677   0.336   1.232 -0.3395 -0.0869  0.0608
11040TIP3    H133081   0.723   0.419   1.220 -1.6707  0.2261 -3.2601
11040TIP3    H233082   0.732   0.271   1.187 -0.2262 -0.7093  1.0843
11041TIP3   OH233083   7.403   6.471   0.548  0.2446 -0.1603  0.1662
11041TIP3    H133084   7.417   6.382   0.580  0.1100 -0.0012  0.6798
11041TIP3    H233085   7.336   6.507   0.607  0.2115  0.2381 -0.1131
11042TIP3   OH233086   2.475   1.473   1.133 -0.4011  0.7255  0.6865
11042TIP3    H133087   2.547   1.425   1.175 -0.2335  0.5367  0.1948
11042TIP3    H233088   2.402   1.467   1.195 -0.9796 -1.7940 -0.1864
11043TIP3   OH233089   2.106   6.327   0.371 -0.0034  0.3201  0.2239
11043TIP3    H133090   2.101   6.345   0.277  0.9616  0.1491  0.1315
11043TIP3    H233091   2.123   6.413   0.411  0.7009  0.2253  0.1364
11044TIP3   OH233092   6.792   2.699   4.596 -0.0540 -0.0031 -0.5072
11044TIP3    H133093   6.814   2.792   4.605  0.1380  0.0510 -1.4530
11044TIP3    H233094   6.859   2.654   4.646 -0.3894  0.3925  0.2995
11045TIP3   OH233095   7.590   6.943   1.037 -0.1650  0.2841  0.0506
11045TIP3    H133096   7.614   6.855   1.008  0.0975  0.3767 -0.0148
11045TIP3    H233097   7.673   6.989   1.047 -0.3366  0.7603 -0.6513
11046TIP3   OH233098   7.146   7.254   1.313  0.5696  0.0972  0.6534
11046TIP3    H133099   7.117   7.196   1.383 -0.3593  0.8764  0.9230
11046TIP3    H233100   7.158   7.196   1.237  1.6653 -0.7600  1.4643
11047TIP3   OH233101   0.056   6.765   1.040  0.2348  0.2526  0.1107
11047TIP3    H133102   0.107   6.707   0.983  0.6469  0.4700  0.2579
11047TIP3    H233103   0.008   6.706   1.097 -2.0944 -0.0715 -2.0685
11048TIP3   OH233104   1.279   0.054   1.862 -0.6905  0.0548  0.5954
11048TIP3    H133105   1.325   0.089   1.786  0.3817 -1.3052  0.5954
11048TIP3    H233106   1.275   0.126   1.924  2.4456 -0.0775  1.0501
11049TIP3   OH233107   0.568   7.028   0.613 -0.5802 -0.2887  0.2741
11049TIP3    H133108   0.495   6.967   0.613 -2.2921  1.7212 -0.6071
11049TIP3    H233109   0.631   6.991   0.551 -1.2855 -1.5155  0.2888
11050TIP3   OH233110   7.414   5.788   2.035 -0.0172 -0.4176 -0.1171
11050TIP3    H133111   7.356   5.724   1.994 -1.8914  0.4108  1.1886
11050TIP3    H233112   7.372   5.873   2.017 -0.3717  0.0328  2.6957
11051TIP3   OH233113   6.046   6.972   0.856  0.0750 -0.0057  0.6006
11051TIP3    H133114   5.978   7.030   0.890 -0.5555  0.0329 -0.6981
11051TIP3    H233115   6.015   6.884   0.874 -0.0592  0.0226  0.5075
11052TIP3   OH233116   6.627   7.196   0.939 -0.2033  0.3817  0.8111
11052TIP3    H133117   6.651   7.273   0.990 -1.7390  2.1853 -1.0884
11052TIP3    H233118   6.682   7.201   0.860 -2.6254  1.3984 -0.8668
11053TIP3   OH233119   0.183   6.414   1.091 -0.4547 -0.5449 -0.1856
11053TIP3    H133120   0.182   6.452   1.003 -0.6485 -0.6464 -0.2263
11053TIP3    H233121   0.250   6.346   1.087  0.0943 -0.0227 -0.0344
11054TIP3   OH233122   0.108   3.750   5.971 -0.1016  0.9701  0.0694
11054TIP3    H133123   0.138   3.669   6.012 -1.3979 -0.9916 -2.6838
11054TIP3    H233124   0.188   3.799   5.951  0.7671 -0.1754  0.7164
11055TIP3   OH233125   6.366   7.133   1.039  0.0470  0.3870 -0.1158
11055TIP3    H133126   6.343   7.041   1.029 -0.6740  0.3890  1.4556
11055TIP3    H233127   6.452   7.141   0.997  0.6678 -1.2576  0.8064
11056TIP3   OH233128   7.479   5.750   1.055 -0.3040 -0.0153 -0.0471
11056TIP3    H133129   7.405   5.715   1.105 -0.3497 -0.7131 -0.6052
11056TIP3    H233130   7.439   5.808   0.990 -0.3929 -0.6201 -0.5422
11057TIP3   OH233131   2.426   0.445   1.365 -0.0787 -0.8999 -0.3576
11057TIP3    H133132   2.453   0.531   1.397  0.0903 -1.5970  1.4176
11057TIP3    H233133   2.467   0.437   1.279 -0.4224  0.9523 -0.7227
11058TIP3   OH233134   0.445   6.150   1.538  0.2352  0.5471  0.0210
11058TIP3    H133135   0.418   6.157   1.630 -3.2282  2.2384 -1.0561
11058TIP3    H233136   0.512   6.218   1.528 -0.6437  1.5603  0.8700
11059TIP3   OH233137   1.399   0.780   2.460 -0.4473 -0.0224  0.2960
11059TIP3    H133138   1.457   0.779   2.385 -0.3542 -1.9319  0.3758
11059TIP3    H233139   1.311   0.780   2.423 -0.4025 -0.2489  0.1932
11060TIP3   OH233140   1.754   5.268   3.226 -0.0794 -0.5904  0.2023
11060TIP3    H133141   1.730   5.353   3.263  0.0343 -1.0083  1.2561
11060TIP3    H233142   1.673   5.216   3.231  0.0333 -0.7670  0.2135
11061TIP3   OH233143   1.724   0.545   1.331  0.2557 -0.5938  0.1351
11061TIP3    H133144   1.798   0.549   1.392  0.0050 -0.8802  0.4596
11061TIP3    H233145   1.647   0.534   1.388  0.0641 -1.3139 -0.2591
11062TIP3   OH233146   4.814   4.768   5.789  0.1195 -0.5390 -0.2442
11062TIP3    H133147   4.860   4.696   5.745  0.8927  0.8553 -1.7633
11062TIP3    H233148   4.760   4.807   5.720  0.8717  1.2951  0.1945
11063TIP3   OH233149   4.991   1.043   0.308 -0.0180  0.0272  0.2941
11063TIP3    H133150   4.955   1.129   0.332 -0.5788 -0.0921 -0.1112
11063TIP3    H233151   5.010   1.050   0.215 -0.9906 -0.6060  0.0389
11064TIP3   OH233152   7.669   0.738   3.205 -0.1297  0.6037 -0.3199
11064TIP3    H133153   7.579   0.767   3.194 -0.1037  0.5014 -0.7975
11064TIP3    H233154   7.722   0.809   3.168 -0.0163  0.6176 -0.1333
11065TIP3   OH233155   4.306   4.848   5.878  0.2261  0.4876 -0.9928
11065TIP3    H133156   4.245   4.874   5.947 -0.5984 -0.9058 -1.1830
11065TIP3    H233157   4.388   4.830   5.924 -1.0233 -3.0416  0.0504
11066TIP3   OH233158   4.709   3.153   5.760  0.6013  0.3979 -0.4529
11066TIP3    H133159   4.789   3.195   5.728 -0.1020  2.5450  0.5211
11066TIP3    H233160   4.678   3.210   5.830 -2.4823  0.3429 -1.6795
11067TIP3   OH233161   5.544   4.885   6.011 -0.4482 -0.1957  0.6900
11067TIP3    H133162   5.639   4.880   6.021 -0.1207  0.1295 -1.8680
11067TIP3    H233163   5.530   4.884   5.916 -3.0132 -0.4292  1.0374
11068TIP3   OH233164   0.243   6.103   0.245  0.3636  0.2861  0.5200
11068TIP3    H133165   0.226   6.030   0.304  1.9467 -0.9311 -0.4634
11068TIP3    H233166   0.337   6.119   0.254  0.5287  0.4090 -1.2652
11069TIP3   OH233167   1.857   7.298   1.380  0.4278 -0.5292  0.8557
11069TIP3    H133168   1.875   7.207   1.357 -1.6770 -0.2911 -1.8962
11069TIP3    H233169   1.810   7.293   1.463  2.3161 -1.7949  1.8797
11070TIP3   OH233170   4.825   2.690   6.099 -0.1270  0.1329 -0.1836
11070TIP3    H133171   4.880   2.612   6.112  1.5112  1.1656 -0.7804
11070TIP3    H233172   4.822   2.731   6.185  0.2741  0.2199 -0.2085
11071TIP3   OH233173   6.281   7.160   3.219  0.1681  0.7506 -0.0064
11071TIP3    H133174   6.339   7.084   3.218  0.1423  0.6966  1.1970
11071TIP3    H233175   6.214   7.137   3.285 -1.4731  0.6199 -1.6721
11072TIP3   OH233176   4.243   2.278   5.462  0.3355 -0.0746 -0.6850
11072TIP3    H133177   4.321   2.327   5.437  2.2564 -2.8210 -0.3620
11072TIP3    H233178   4.239   2.205   5.399 -1.1753 -0.7519  0.1632
11073TIP3   OH233179   3.724   3.125   5.411  0.0006  0.4987 -0.5915
11073TIP3    H133180   3.761   3.128   5.500 -0.8896 -0.2643 -0.1869
11073TIP3    H233181   3.649   3.066   5.418 -0.4889  0.9681 -1.7042
11074TIP3   OH233182   6.336   5.841   1.412  0.3560 -0.0783 -0.0760
11074TIP3    H133183   6.304   5.760   1.451 -0.8217  0.3867 -0.0607
11074TIP3    H233184   6.313   5.833   1.319 -0.2992  0.4973  0.0358
11075TIP3   OH233185   0.847   4.144   2.325  0.0096  0.5185  0.0896
11075TIP3    H133186   0.942   4.130   2.328 -0.4045 -2.4280  3.3717
11075TIP3    H233187   0.835   4.235   2.349  1.9581  0.5639  0.9997
11076TIP3   OH233188   0.346   5.385   1.107  0.1550  0.3399 -0.1724
11076TIP3    H133189   0.353   5.302   1.060 -1.3421  0.0198  0.1579
11076TIP3    H233190   0.429   5.430   1.090  0.9008 -1.1500 -0.4848
11077TIP3   OH233191   7.743   6.649   1.282 -0.0790 -0.1624 -0.0050
11077TIP3    H133192   7.661   6.619   1.321 -0.6461  0.0099 -1.0391
11077TIP3    H233193   7.790   6.692   1.353 -0.6061 -0.8266  0.7457
11078TIP3   OH233194   1.561   1.088   0.280 -0.1940  0.6153  0.2925
11078TIP3    H133195   1.530   1.022   0.218 -1.3499  1.0019  0.4604
11078TIP3    H233196   1.608   1.152   0.226  0.6473 -0.1558  0.0883
11079TIP3   OH233197   3.262   1.877   5.267  0.2629  0.2452 -0.1466
11079TIP3    H133198   3.167   1.881   5.263  0.0630  0.0885  3.1745
11079TIP3    H233199   3.281   1.793   5.308  1.8234  0.5042 -0.3010
11080TIP3   OH233200   4.945   2.980   6.204  0.4144  0.6474 -0.1383
11080TIP3    H133201   5.029   2.969   6.247 -0.6182  1.6336  2.2332
11080TIP3    H233202   4.966   2.987   6.111  2.7962 -0.5443  0.2826
11081TIP3   OH233203   7.626   6.733   1.662  0.2158 -0.0459 -0.0596
11081TIP3    H133204   7.571   6.701   1.734 -0.6516 -0.1229 -0.7473
11081TIP3    H233205   7.674   6.656   1.634  1.4719  0.2472  1.2325
11082TIP3   OH233206   7.306   6.039   3.533 -0.1895  0.5256 -0.3438
11082TIP3    H133207   7.228   6.020   3.586  0.2320 -0.0273  0.0778
11082TIP3    H233208   7.281   6.116   3.481 -0.8741  0.6018  0.0896
11083TIP3   OH233209   6.923   5.725   3.045 -0.5772  0.3617  0.1891
11083TIP3    H133210   6.947   5.637   3.073 -0.5928  0.1521 -0.4579
11083TIP3    H233211   7.001   5.758   3.000 -0.4164  0.8447  0.8032
11084TIP3   OH233212   5.558   4.209   5.590 -0.4203  0.3189  0.6095
11084TIP3    H133213   5.530   4.149   5.659 -1.3519  1.3302  1.1300
11084TIP3    H233214   5.558   4.295   5.632 -1.2262  0.9733 -0.6967
11085TIP3   OH233215   3.301   0.726   0.646 -0.1790 -0.4178  0.4848
11085TIP3    H133216   3.242   0.730   0.722 -0.4895  1.9694  0.1466
11085TIP3    H233217   3.327   0.634   0.642 -1.0358 -0.8164  2.8168
11086TIP3   OH233218   1.209   1.113   1.980 -0.0796  0.0640 -0.1324
11086TIP3    H133219   1.257   1.196   1.990  2.0665 -1.3539  1.6724
11086TIP3    H233220   1.117   1.138   1.992  0.4144  2.3662 -0.8049
11087TIP3   OH233221   7.653   4.631   3.028 -0.2811 -0.9697 -0.6581
11087TIP3    H133222   7.653   4.627   3.124 -0.7273 -1.1476 -0.6652
11087TIP3    H233223   7.601   4.709   3.008  0.4993 -0.4688 -0.7367
11088TIP3   OH233224   0.524   0.561   0.405  0.4064 -0.2619 -0.7805
11088TIP3    H133225   0.593   0.498   0.426  0.5545  0.3584  0.6683
11088TIP3    H233226   0.449   0.530   0.456  0.3323  0.4520 -0.4582
11089TIP3   OH233227   0.698   6.890   0.379 -0.1696 -0.2586 -0.5000
11089TIP3    H133228   0.744   6.867   0.298 -1.6008 -1.6361 -0.9565
11089TIP3    H233229   0.650   6.810   0.403  0.0423  0.2044  1.5829
11090TIP3   OH233230   1.002   7.261   1.401  0.3106 -0.0520 -0.3154
11090TIP3    H133231   0.917   7.292   1.368  0.0514 -0.7330 -0.2857
11090TIP3    H233232   1.047   7.341   1.427 -0.7526  0.2465  0.6885
11091TIP3   OH233233   4.834   4.134   5.124  0.0483 -0.4370 -1.4449
11091TIP3    H133234   4.853   4.069   5.191 -1.9357 -1.3211 -1.7169
11091TIP3    H233235   4.768   4.191   5.162  1.1635  0.9357 -1.5206
11092TIP3   OH233236   5.198   6.565   0.780  0.1901  0.1030  0.3337
11092TIP3    H133237   5.269   6.629   0.779 -0.9713  1.4572  1.4715
11092TIP3    H233238   5.166   6.566   0.871 -1.4426 -0.2841 -0.2135
11093TIP3   OH233239   5.849   6.298   2.483 -1.2228 -0.2460  0.6803
11093TIP3    H133240   5.826   6.227   2.424  0.3046 -1.5696  1.6552
11093TIP3    H233241   5.907   6.259   2.547  0.1767  2.0122  0.8667
11094TIP3   OH233242   1.641   6.518   1.630  0.2563 -0.2461 -0.3085
11094TIP3    H133243   1.628   6.568   1.550  0.9223  0.9853  0.3244
11094TIP3    H233244   1.556   6.519   1.674  0.0465 -0.4162 -0.7127
11095TIP3   OH233245   7.206   5.810   0.130  0.2615 -0.1839 -0.4289
11095TIP3    H133246   7.258   5.862   0.192 -0.1899  0.3262 -0.4744
11095TIP3    H233247   7.218   5.719   0.159 -1.4411  0.1687  1.5607
11096TIP3   OH233248   3.113   0.029   0.889  0.5421 -0.4535  0.5914
11096TIP3    H133249   3.121   0.056   0.798  1.4459  1.0237  1.0840
11096TIP3    H233250   3.019   0.030   0.906  0.3695 -0.8217 -0.3545
11097TIP3   OH233251   3.641   0.270   3.403  0.1660  0.0858 -0.0662
11097TIP3    H133252   3.687   0.187   3.412 -0.4659 -0.1240  1.5515
11097TIP3    H233253   3.559   0.248   3.359  0.7279  0.1405 -1.1610
11098TIP3   OH233254   4.998   2.483   6.119  0.6245  0.3428 -0.6225
11098TIP3    H133255   5.070   2.514   6.175  0.8289  0.2708 -0.8413
11098TIP3    H233256   5.003   2.387   6.125 -1.0902  0.3619  1.4242
11099TIP3   OH233257   5.420   3.577   5.662  0.0683 -0.0443 -0.0562
11099TIP3    H133258   5.494   3.534   5.705  0.0070  0.1209  0.2207
11099TIP3    H233259   5.371   3.506   5.622  1.2269 -0.0135 -1.5850
11100TIP3   OH233260   6.619   2.382   6.308  0.1067 -0.8228 -0.5842
11100TIP3    H133261   6.587   2.391   6.218 -0.6287 -0.1653 -0.2649
11100TIP3    H233262   6.542   2.354   6.358  0.1830  0.1577  0.0825
11101TIP3   OH233263   3.901   0.877   0.776  0.4535 -0.2888 -0.4119
11101TIP3    H133264   3.842   0.912   0.709 -1.3529 -0.2972  1.1152
11101TIP3    H233265   3.912   0.949   0.838 -0.1323 -1.1439  0.7029
11102TIP3   OH233266   2.256   2.629   2.013 -0.1961  0.6724  0.4463
11102TIP3    H133267   2.162   2.629   2.031  0.0750  3.2840  2.0065
11102TIP3    H233268   2.294   2.573   2.081 -0.3930  1.3963  1.1573
11103TIP3   OH233269   1.686   6.127   2.754  0.0131  0.9837 -0.0592
11103TIP3    H133270   1.769   6.145   2.710  1.1740 -1.4971  1.0455
11103TIP3    H233271   1.643   6.061   2.700  0.0554  0.1816  0.8703
11104TIP3   OH233272   0.113   5.931   2.329  0.1511  0.2566  0.0465
11104TIP3    H133273   0.092   5.998   2.395  1.0010  1.0822 -0.5132
11104TIP3    H233274   0.083   5.969   2.247  1.1824  0.2108 -0.3561
11105TIP3   OH233275   6.004   5.941   0.445  0.0370 -0.2803 -0.0781
11105TIP3    H133276   5.967   5.875   0.386  0.6321 -0.9994  0.3308
11105TIP3    H233277   6.074   5.982   0.394  0.2291 -0.5621 -0.0445
11106TIP3   OH233278   5.783   4.947   6.221  0.3541 -0.0607  0.4849
11106TIP3    H133279   5.752   4.856   6.226 -0.1666  0.1642  1.5920
11106TIP3    H233280   5.838   4.950   6.143 -0.5121 -1.0609 -0.1703
11107TIP3   OH233281   2.046   0.195   0.831 -0.0644 -0.1576  0.4691
11107TIP3    H133282   2.007   0.280   0.853 -0.7723 -1.1928  3.4716
11107TIP3    H233283   2.081   0.207   0.743 -1.4717  2.7876  0.2385
11108TIP3   OH233284   7.546   7.076   0.776  0.5241  0.1964  0.4620
11108TIP3    H133285   7.532   7.054   0.868  1.0801  0.9249  0.7149
11108TIP3    H233286   7.614   7.015   0.747 -0.6297 -0.9887  0.1473
11109TIP3   OH233287   6.283   6.052   1.140 -0.2574  0.1538 -0.5087
11109TIP3    H133288   6.319   6.134   1.105 -0.3422  0.0132 -0.9204
11109TIP3    H233289   6.218   6.080   1.204  2.1687  0.4537  1.9347
11110TIP3   OH233290   2.680   0.587   1.694 -0.8938 -0.0569  0.7345
11110TIP3    H133291   2.752   0.646   1.714  0.9507 -1.6351 -1.0312
11110TIP3    H233292   2.716   0.499   1.704 -2.5494 -0.8853 -0.2256
11111TIP3   OH233293   0.186   3.807   1.407  0.4845 -0.2666  0.3669
11111TIP3    H133294   0.200   3.727   1.457 -3.1098 -1.4280 -0.3613
11111TIP3    H233295   0.210   3.784   1.317  0.4383 -0.2238  0.3432
11112TIP3   OH233296   1.474   2.222   0.057 -0.2611  0.1374  0.2180
11112TIP3    H133297   1.512   2.211  -0.030  0.3670 -1.8777  0.7138
11112TIP3    H233298   1.394   2.169   0.054  1.0651 -2.0133  1.6336
11113TIP3   OH233299   2.291   5.916   5.874  0.0644 -0.3948  0.2549
11113TIP3    H133300   2.233   5.905   5.949 -0.8927  1.5220 -0.1678
11113TIP3    H233301   2.274   5.840   5.819 -0.8072 -0.7111  0.9524
11114TIP3   OH233302   1.719   2.497   1.410  0.0386  0.6110  0.4407
11114TIP3    H133303   1.661   2.531   1.341 -1.9117  0.1410  1.7927
11114TIP3    H233304   1.711   2.402   1.403  0.8480  0.5369  0.4915
11115TIP3   OH233305   7.105   7.009   1.139 -0.3088 -0.4291 -0.7257
11115TIP3    H133306   7.141   6.937   1.190 -0.1157 -0.8222 -1.3968
11115TIP3    H233307   7.011   7.006   1.154 -0.1096  0.3334  0.7017
11116TIP3   OH233308   1.601   0.267   0.200 -0.0400  0.1667  0.5557
11116TIP3    H133309   1.602   0.295   0.108  0.3999  0.3220  0.6074
11116TIP3    H233310   1.687   0.292   0.233 -0.2277  0.1801  1.0329
11117TIP3   OH233311   3.185   1.549   0.011 -0.1146 -0.1315  0.1748
11117TIP3    H133312   3.109   1.606   0.001 -0.3431 -0.2624  1.1445
11117TIP3    H233313   3.155   1.478   0.067  0.8897  0.1460  1.0862
11118TIP3   OH233314   4.524   3.811   1.571  0.8736  0.1792  0.0305
11118TIP3    H133315   4.523   3.807   1.476  2.5113  0.6264 -0.0269
11118TIP3    H233316   4.445   3.860   1.594  1.4881  1.7909 -1.2074
11119TIP3   OH233317   0.067   6.843   0.213  0.5431  0.4453 -1.0433
11119TIP3    H133318   0.005   6.780   0.176  0.0890 -0.3378  0.9775
11119TIP3    H233319   0.014   6.921   0.231 -0.1129 -0.5201  1.4832
11120TIP3   OH233320   4.470   3.074   5.614 -0.0689  0.1436 -0.0712
11120TIP3    H133321   4.478   2.979   5.616  0.3421  0.1819  0.0794
11120TIP3    H233322   4.544   3.106   5.666  1.0388  0.6186 -1.8756
11121TIP3   OH233323   1.214   7.126   0.577 -0.7560 -0.3152 -0.7442
11121TIP3    H133324   1.223   7.111   0.483  0.1305 -0.5297 -0.6354
11121TIP3    H233325   1.253   7.213   0.591  1.2921 -1.2846 -0.2407
11122TIP3   OH233326   4.763   1.980   6.142  0.7529  0.2012 -0.1164
11122TIP3    H133327   4.716   2.059   6.118 -1.1771 -0.5764  0.9908
11122TIP3    H233328   4.725   1.911   6.088  1.2240 -0.2743  0.1506
11123TIP3   OH233329   1.031   6.289   3.867 -0.2766 -0.6057  0.2153
11123TIP3    H133330   1.123   6.310   3.849  0.6250 -1.7715  3.0497
11123TIP3    H233331   0.988   6.374   3.876  1.1520 -0.0027  1.6165
11124TIP3   OH233332   0.396   5.635   0.529  0.6077 -0.6837 -0.0443
11124TIP3    H133333   0.463   5.662   0.591  0.0860  1.1078 -0.2293
11124TIP3    H233334   0.420   5.546   0.504  1.4547 -0.9999  1.8480
11125TIP3   OH233335   2.037   5.618   0.605  0.0770  0.1799 -0.2711
11125TIP3    H133336   2.082   5.670   0.537 -0.2193 -0.1929 -0.7565
11125TIP3    H233337   2.074   5.531   0.596 -0.3288  0.0096 -0.2896
11126TIP3   OH233338   2.805   0.630   0.423  0.3678 -0.5367 -0.2451
11126TIP3    H133339   2.745   0.580   0.479 -0.0748  0.1379 -0.1121
11126TIP3    H233340   2.754   0.706   0.395  2.2659  1.9523  2.7686
11127TIP3   OH233341   0.286   0.651   1.324  0.1296  0.1462  0.0696
11127TIP3    H133342   0.372   0.669   1.285  1.0612 -1.9849  1.0389
11127TIP3    H233343   0.300   0.657   1.418 -0.4136 -1.5827  0.2915
11128TIP3   OH233344   4.608   1.235   2.599  0.1071  0.0566  0.2961
11128TIP3    H133345   4.667   1.305   2.572  1.3493 -0.8050  0.7271
11128TIP3    H233346   4.637   1.212   2.687 -0.9585 -0.2959  0.5590
11129TIP3   OH233347   5.347   0.192   2.282 -0.5675 -0.1272  0.3148
11129TIP3    H133348   5.279   0.126   2.297 -0.3246 -0.4172  0.1460
11129TIP3    H233349   5.413   0.173   2.348 -1.2322  0.9499  1.3101
11130TIP3   OH233350   5.286   4.024   6.166  0.4695  0.1471 -0.5460
11130TIP3    H133351   5.332   4.107   6.153  1.3201 -0.2821 -0.3402
11130TIP3    H233352   5.240   4.009   6.084  2.1192 -0.2741 -1.4268
11131TIP3   OH233353   7.435   6.568   3.919 -0.2468 -0.1935  0.4292
11131TIP3    H133354   7.397   6.505   3.981 -0.0693  1.4571  2.2466
11131TIP3    H233355   7.364   6.629   3.900 -0.2389 -0.5642 -0.8810
11132TIP3   OH233356   3.283   1.755   0.226  0.3733 -0.0976  0.4337
11132TIP3    H133357   3.314   1.796   0.145  0.8868 -0.0919  0.6320
11132TIP3    H233358   3.212   1.697   0.198  0.8776 -0.4640 -0.0864
11133TIP3   OH233359   7.728   6.894   0.651 -0.6396  0.1284  0.1390
11133TIP3    H133360   7.817   6.916   0.623  0.6247 -1.0530  3.0048
11133TIP3    H233361   7.703   6.820   0.596 -0.5260  1.4710 -1.7873
11134TIP3   OH233362   4.752   2.575   0.772  0.2612  0.1318 -0.0402
11134TIP3    H133363   4.682   2.640   0.777 -0.4055 -0.3911 -2.1198
11134TIP3    H233364   4.807   2.605   0.700  1.1229 -0.4999  0.3426
11135TIP3   OH233365   0.978   2.111   1.322 -0.0889  0.7389 -0.1436
11135TIP3    H133366   0.960   2.166   1.398 -0.4911  0.5157 -0.0746
11135TIP3    H233367   1.061   2.068   1.343  0.0155  1.0012 -0.0163
11136TIP3   OH233368   0.323   6.595   1.250 -0.7899  0.0379 -0.1627
11136TIP3    H133369   0.312   6.557   1.163  1.1224 -1.0074  0.0344
11136TIP3    H233370   0.351   6.685   1.233 -2.6611  0.5502 -0.6181
11137TIP3   OH233371   2.455   1.753   0.750 -0.0594 -0.2949 -0.3208
11137TIP3    H133372   2.445   1.673   0.802  0.1173  0.7402  1.3371
11137TIP3    H233373   2.440   1.824   0.812 -1.7419  0.9676 -2.1016
11138TIP3   OH233374   5.085   4.892   5.910  0.4827  0.1408 -0.5118
11138TIP3    H133375   5.138   4.945   5.970 -0.7116  0.2950  0.4243
11138TIP3    H233376   5.061   4.815   5.962 -1.6323  0.8725 -0.3401
11139TIP3   OH233377   3.956   1.887   1.586 -0.2399 -0.7458 -0.1008
11139TIP3    H133378   3.970   1.793   1.600  0.0054 -0.6729  0.1520
11139TIP3    H233379   3.862   1.900   1.600 -0.2073 -0.8868  0.2553
11140TIP3   OH233380   5.965   4.994   5.396 -0.0552 -0.5197  0.0739
11140TIP3    H133381   6.013   4.914   5.374  1.0451  0.2750 -0.4715
11140TIP3    H233382   6.026   5.065   5.375 -1.1328  0.4763  0.2576
11141TIP3   OH233383   2.201   2.220   1.024  0.0663  0.1598  0.0643
11141TIP3    H133384   2.212   2.288   1.091  0.3758 -0.6282  0.8330
11141TIP3    H233385   2.137   2.160   1.062 -2.1184  1.3373 -1.6873
11142TIP3   OH233386   2.283   4.339   6.051  0.0570  0.4062 -0.1632
11142TIP3    H133387   2.225   4.413   6.072 -0.0811  0.8607 -2.0725
11142TIP3    H233388   2.309   4.354   5.960  1.7192 -0.7808  0.0917
11143TIP3   OH233389   0.128   2.520   6.339  0.2779  0.5213 -0.7858
11143TIP3    H133390   0.143   2.545   6.430  0.3515  0.5993 -0.8195
11143TIP3    H233391   0.193   2.570   6.289  0.3823  0.3152 -0.8581
11144TIP3   OH233392   2.888   6.370   0.508  0.3971 -0.1697  0.3984
11144TIP3    H133393   2.864   6.278   0.521 -0.1348 -0.2660 -1.2172
11144TIP3    H233394   2.854   6.414   0.586  0.6388 -1.3323  1.1796
11145TIP3   OH233395   1.885   5.096   1.431  0.6258 -0.5015  0.2655
11145TIP3    H133396   1.966   5.126   1.390  0.2704  0.1772  0.0338
11145TIP3    H233397   1.900   5.107   1.525  0.1990  1.2830  0.1597
11146TIP3   OH233398   6.261   0.865   5.796 -0.4182 -0.1809 -0.5754
11146TIP3    H133399   6.289   0.774   5.803  0.4047  0.0783 -0.4524
11146TIP3    H233400   6.205   0.867   5.719 -0.2634 -0.7518 -0.7041
11147TIP3   OH233401   5.562   4.337   4.843 -0.0674 -0.0634  0.3498
11147TIP3    H133402   5.527   4.255   4.808  1.4185 -2.0612  3.3525
11147TIP3    H233403   5.657   4.324   4.843  0.1942  1.7272  0.7545
11148TIP3   OH233404   5.071   0.602   0.586 -0.1005  0.1127 -0.4010
11148TIP3    H133405   5.055   0.524   0.532  1.5311 -0.4421 -0.1095
11148TIP3    H233406   5.073   0.674   0.524 -2.8679  0.1183 -0.5411
11149TIP3   OH233407   2.847   4.992   0.517  0.1946  0.4572 -0.0182
11149TIP3    H133408   2.791   4.937   0.572 -0.3702  0.9039 -0.1290
11149TIP3    H233409   2.793   5.011   0.440  0.9312 -0.0569 -0.6644
11150TIP3   OH233410   1.339   5.602   0.766 -0.2878  0.7762  0.0320
11150TIP3    H133411   1.246   5.593   0.787 -0.6794 -0.1097 -1.9368
11150TIP3    H233412   1.344   5.684   0.716  0.1576  1.3778  1.0638
11151TIP3   OH233413   3.586   6.268   0.662 -0.4571 -0.0231 -0.6232
11151TIP3    H133414   3.512   6.219   0.696 -1.2066  0.8827 -0.9357
11151TIP3    H233415   3.549   6.351   0.632  0.9931  1.3839  1.2846
11152TIP3   OH233416   4.365   0.823   3.134  0.0711  0.0345 -0.0296
11152TIP3    H133417   4.322   0.738   3.127  2.8446 -1.4217 -0.4326
11152TIP3    H233418   4.407   0.821   3.220  1.6875  0.2097 -0.7924
11153TIP3   OH233419   2.522   5.360   0.786  0.4348  0.0124  0.0108
11153TIP3    H133420   2.554   5.286   0.735  1.4171 -0.6189  1.5168
11153TIP3    H233421   2.452   5.323   0.839  1.0202  0.1272  0.8657
11154TIP3   OH233422   5.548   1.459   1.353 -0.2980 -0.1305  0.4953
11154TIP3    H133423   5.480   1.526   1.363 -2.0406 -1.9014  0.8386
11154TIP3    H233424   5.544   1.407   1.433  0.1582 -1.4072 -0.2838
11155TIP3   OH233425   2.148   5.891   0.959 -0.2565 -0.8538  0.1128
11155TIP3    H133426   2.091   5.815   0.971 -1.3658 -0.0171  0.3319
11155TIP3    H233427   2.178   5.912   1.048 -2.3472  0.7404  0.4821
11156TIP3   OH233428   5.309   4.001   5.275  0.1299  0.2845  0.3232
11156TIP3    H133429   5.269   4.075   5.229 -0.5271 -0.5449 -0.4429
11156TIP3    H233430   5.321   3.934   5.208  0.6369 -0.3495  1.0338
11157TIP3   OH233431   4.040   0.431   0.819  0.2320  0.0924 -0.0094
11157TIP3    H133432   3.980   0.358   0.803  0.6705 -0.1566 -0.5005
11157TIP3    H233433   4.009   0.468   0.902 -0.4276 -0.2090 -0.1120
11158TIP3   OH233434   4.576   3.518   5.841 -0.4618 -0.8656  0.5130
11158TIP3    H133435   4.517   3.573   5.892 -0.4628 -0.1898 -0.2044
11158TIP3    H233436   4.630   3.580   5.792 -0.8451 -1.5015 -0.7362
11159TIP3   OH233437   7.608   6.115   0.912  0.3327  0.3495  0.5630
11159TIP3    H133438   7.683   6.113   0.971  0.6595  0.7884  0.1562
11159TIP3    H233439   7.607   6.204   0.876  0.1328  0.0823 -0.1012
11160TIP3   OH233440   2.275   5.299   0.035 -0.4555 -0.2551 -0.3009
11160TIP3    H133441   2.286   5.210   0.003 -0.5352 -0.7489  1.0074
11160TIP3    H233442   2.272   5.290   0.131 -0.4951  1.1407 -0.1589
11161TIP3   OH233443   2.847   0.338   1.320 -0.5369 -0.0902 -0.7945
11161TIP3    H133444   2.908   0.277   1.278 -1.0594  0.0359 -1.7776
11161TIP3    H233445   2.795   0.283   1.379  0.4066 -0.2246 -0.0749
11162TIP3   OH233446   5.703   4.655   6.203  0.5007 -0.3246  0.1926
11162TIP3    H133447   5.756   4.578   6.219  1.0944 -0.5042 -2.4098
11162TIP3    H233448   5.614   4.629   6.228  0.6642 -1.9060 -0.8315
11163TIP3   OH233449   7.029   2.585   5.021 -0.1804 -0.3180  0.1624
11163TIP3    H133450   7.010   2.651   5.088 -1.8568 -1.6630  1.0449
11163TIP3    H233451   7.113   2.548   5.047  0.5628  1.1501 -0.0983
11164TIP3   OH233452   5.595   3.398   5.790 -0.1783  0.3496 -0.1740
11164TIP3    H133453   5.669   3.337   5.788  0.9080  1.6015  0.9325
11164TIP3    H233454   5.517   3.342   5.794  0.8450 -1.0005  2.0817
11165TIP3   OH233455   5.753   0.212   1.780 -0.2560  0.4680 -0.0712
11165TIP3    H133456   5.733   0.200   1.873 -0.5958 -3.1550 -0.5250
11165TIP3    H233457   5.827   0.273   1.778 -0.3646  0.7305  2.5310
11166TIP3   OH233458   2.123   6.189   0.935  0.0986 -0.5627  0.0187
11166TIP3    H133459   2.031   6.183   0.910  0.3605 -0.3514 -0.9922
11166TIP3    H233460   2.125   6.257   1.003 -0.4215 -0.2339 -0.2921
11167TIP3   OH233461   5.447   0.812   0.841  0.2314  1.0024  0.0075
11167TIP3    H133462   5.419   0.761   0.918 -1.7223  1.3209 -0.4486
11167TIP3    H233463   5.466   0.899   0.875 -0.6886  1.1586  0.1546
11168TIP3   OH233464   2.259   5.959   1.548  0.0352  0.3729  0.0984
11168TIP3    H133465   2.280   6.041   1.504 -0.1844  0.3443 -0.0608
11168TIP3    H233466   2.175   5.933   1.512  0.2647 -0.1001 -0.1017
11169TIP3   OH233467   0.381   4.382   5.404 -0.6893  0.2105  0.5774
11169TIP3    H133468   0.320   4.357   5.334 -0.6789  1.5956  0.0674
11169TIP3    H233469   0.343   4.344   5.483 -1.7396  0.2931  0.1221
11170TIP3   OH233470   0.137   6.320   0.118  0.3663 -0.2509  0.4680
11170TIP3    H133471   0.153   6.234   0.157 -0.6582 -0.8122 -0.3025
11170TIP3    H233472   0.205   6.376   0.154  1.4665 -1.5563  0.4568
11171TIP3   OH233473   5.050   2.132   0.346  0.1224  0.6400 -0.6508
11171TIP3    H133474   4.973   2.133   0.403 -0.4136 -1.4657 -1.2910
11171TIP3    H233475   5.038   2.208   0.289 -2.3089 -0.5178 -1.7714
11172TIP3   OH233476   4.786   2.142   0.835  0.4820  0.1144  0.7163
11172TIP3    H133477   4.812   2.053   0.858 -0.3700 -0.0683  0.9761
11172TIP3    H233478   4.751   2.179   0.915  0.1303  0.4285  0.4201
11173TIP3   OH233479   6.445   5.505   0.772 -0.4896 -0.3668 -0.1453
11173TIP3    H133480   6.444   5.417   0.810 -1.2163 -0.6446 -0.7986
11173TIP3    H233481   6.359   5.542   0.796  1.3117  1.6812  3.6090
11174TIP3   OH233482   0.521   6.225   0.282  0.3757 -0.1657  0.0203
11174TIP3    H133483   0.513   6.305   0.230 -1.3740  1.6366  2.9119
11174TIP3    H233484   0.560   6.254   0.364  1.4544 -2.6313  0.4235
11175TIP3   OH233485   1.054   7.303   0.033  0.3885 -0.1268  0.2777
11175TIP3    H133486   1.103   7.273  -0.044  1.8330 -2.3579  2.0239
11175TIP3    H233487   1.049   7.398   0.023  3.3433 -0.0672 -0.9502
11176TIP3   OH233488   6.280   0.585   6.402 -0.0199 -0.0765 -0.2780
11176TIP3    H133489   6.206   0.581   6.341  0.0673  0.7271 -0.4432
11176TIP3    H233490   6.357   0.591   6.346  0.1199 -0.2280 -0.0997
11177TIP3   OH233491   0.925   5.235   6.156  0.7675  0.3548 -0.3856
11177TIP3    H133492   0.959   5.158   6.202 -1.0014  0.1873  0.6716
11177TIP3    H233493   0.878   5.285   6.222 -0.5646  0.8651 -1.6761
11178TIP3   OH233494   0.959   7.043   1.163 -0.3132  1.1166 -0.3838
11178TIP3    H133495   0.919   6.984   1.227 -2.2728  2.1064 -0.6735
11178TIP3    H233496   0.983   7.121   1.214  0.0958  1.0498 -0.4659
11179TIP3   OH233497   7.284   2.240   1.522 -0.0700 -0.0028  0.3341
11179TIP3    H133498   7.214   2.261   1.460  1.1876 -0.6189 -1.3553
11179TIP3    H233499   7.241   2.236   1.607 -2.4520 -2.3243 -0.9178
11180TIP3   OH233500   7.422   0.856   3.131  0.5391 -0.2653  0.0857
11180TIP3    H133501   7.421   0.859   3.036 -1.4484 -0.8691  0.0759
11180TIP3    H233502   7.330   0.858   3.157  1.0902  2.1032  2.0798
11181TIP3   OH233503   2.904   4.602   6.362  0.3404 -0.0561  0.3056
11181TIP3    H133504   2.884   4.679   6.309 -0.2938 -0.5120 -0.1179
11181TIP3    H233505   2.949   4.542   6.302 -0.5981 -0.6747  0.2157
11182TIP3   OH233506   4.514   2.360   1.592 -0.3798  0.3482  0.1158
11182TIP3    H133507   4.449   2.308   1.545  0.6941 -1.4106  0.5812
11182TIP3    H233508   4.585   2.374   1.529  0.0466 -0.0904  0.5011
11183TIP3   OH233509   7.679   4.388   0.375 -0.8040  0.0843  0.1041
11183TIP3    H133510   7.664   4.416   0.285  1.7221 -2.5645 -1.2262
11183TIP3    H233511   7.654   4.295   0.376  0.9177 -0.4042  1.6556
11184TIP3   OH233512   3.225   3.666   2.173 -0.2763 -0.4649  0.4148
11184TIP3    H133513   3.278   3.586   2.173  2.0047  0.9582  1.3663
11184TIP3    H233514   3.228   3.697   2.083  2.5392  0.8091  0.8846
11185TIP3   OH233515   6.338   0.261   2.046 -0.2376 -0.1225  0.2830
11185TIP3    H133516   6.430   0.287   2.043 -0.2719  0.0760  0.9375
11185TIP3    H233517   6.290   0.334   2.007 -0.0808 -0.4315 -0.5088
11186TIP3   OH233518   7.308   2.042   2.127 -0.6692 -0.2791  0.1592
11186TIP3    H133519   7.242   2.000   2.182  0.5925 -2.8409 -0.2184
11186TIP3    H233520   7.372   1.973   2.110  0.7911  1.4675 -1.5719
11187TIP3   OH233521   7.171   0.536   3.058  0.1574  0.0796  0.2051
11187TIP3    H133522   7.202   0.507   2.972 -0.2808 -0.9374  0.3732
11187TIP3    H233523   7.099   0.475   3.078  0.2660  0.3075  1.2900
11188TIP3   OH233524   7.366   1.372   1.123 -0.5094  0.2509  0.2143
11188TIP3    H133525   7.382   1.350   1.031 -3.3476  0.6550 -0.4428
11188TIP3    H233526   7.301   1.308   1.151  1.1153 -0.5432  2.2997
11189TIP3   OH233527   0.932   0.846   1.815 -0.1181  0.3210 -0.4326
11189TIP3    H133528   0.861   0.783   1.827 -0.2884  0.7075  0.6229
11189TIP3    H233529   0.950   0.844   1.721 -1.0761 -0.2614 -0.6115
11190TIP3   OH233530  -0.023   2.443   2.004 -0.8480 -0.1460  0.3173
11190TIP3    H133531  -0.014   2.538   2.012 -1.6220  0.0731 -1.2176
11190TIP3    H233532   0.067   2.410   2.008 -0.4436  0.7881 -0.6980
11191TIP3   OH233533   1.441   2.822   1.361  0.3255 -0.3300  0.1609
11191TIP3    H133534   1.491   2.806   1.441  0.2404  0.5513  0.3902
11191TIP3    H233535   1.465   2.748   1.304 -0.9120 -1.8910  1.6006
11192TIP3   OH233536   4.931   6.899   1.339  0.2365 -0.4102  0.1691
11192TIP3    H133537   5.023   6.911   1.316  0.4394 -1.6986  0.3074
11192TIP3    H233538   4.932   6.884   1.434 -0.2239  0.6930  0.3592
11193TIP3   OH233539   7.543   0.065   1.945 -0.1329 -0.1870  0.4443
11193TIP3    H133540   7.526   0.009   1.869  0.7705 -1.3454  1.0917
11193TIP3    H233541   7.638   0.074   1.948 -0.2877  2.3456 -0.3220
11194TIP3   OH233542   6.481   1.138   1.612 -0.2802  0.1492 -0.2698
11194TIP3    H133543   6.567   1.131   1.572 -0.7959 -2.0141 -1.0416
11194TIP3    H233544   6.484   1.077   1.686 -1.5848 -0.9487 -1.1060
11195TIP3   OH233545   6.839   1.829   0.439 -0.1705  0.0512 -0.6534
11195TIP3    H133546   6.777   1.893   0.474  2.5896  2.4005  0.1582
11195TIP3    H233547   6.840   1.844   0.345 -0.6556  0.1559 -0.6412
11196TIP3   OH233548   0.367   3.096   1.531 -0.6159 -0.1956  0.1496
11196TIP3    H133549   0.356   3.144   1.614  1.6443 -1.6231  1.3144
11196TIP3    H233550   0.291   3.037   1.528 -1.2756  0.6042  0.6646
11197TIP3   OH233551   0.935   3.845   5.951 -0.3592 -0.4184  0.1754
11197TIP3    H133552   1.028   3.822   5.952 -0.8312 -2.3866  1.9236
11197TIP3    H233553   0.930   3.926   6.001  0.3134 -0.7106  0.7201
11198TIP3   OH233554   2.321   3.063   4.986 -0.4106 -0.1766 -0.3729
11198TIP3    H133555   2.390   3.037   4.925  0.1320  0.4089 -0.0116
11198TIP3    H233556   2.241   3.066   4.933 -0.9613 -4.6933 -0.0536
11199TIP3   OH233557   1.925   0.543   1.572 -0.1624  0.6556 -0.2270
11199TIP3    H133558   1.996   0.559   1.634 -0.9338  1.2371  0.5301
11199TIP3    H233559   1.967   0.506   1.495  0.9749  1.1550  0.1524
11200TIP3   OH233560   3.705   5.098   4.688  0.0342  0.0682  0.4526
11200TIP3    H133561   3.702   5.173   4.630 -0.1445  0.0388  0.4230
11200TIP3    H233562   3.628   5.108   4.745  0.0429 -0.0589  0.4880
11201TIP3   OH233563   0.049   1.912   2.384  0.4522 -0.3092  0.2804
11201TIP3    H133564   0.032   2.005   2.367  0.9625 -0.3812 -0.6725
11201TIP3    H233565   0.077   1.909   2.476  1.5977  0.6379 -0.0307
11202TIP3   OH233566   3.444   4.540   6.295  0.0528 -0.0263  0.6518
11202TIP3    H133567   3.456   4.479   6.368 -1.0449 -0.1539  0.7276
11202TIP3    H233568   3.483   4.622   6.325  1.2272 -0.5861  0.6812
11203TIP3   OH233569   0.767   0.406   1.583  0.2100 -0.1227  0.3858
11203TIP3    H133570   0.801   0.438   1.499  1.9107  2.5035  2.0046
11203TIP3    H233571   0.713   0.330   1.559 -1.0115  1.7672 -3.2693
11204TIP3   OH233572   2.845   5.471   4.788 -0.1611  0.2489 -0.1945
11204TIP3    H133573   2.771   5.427   4.829  1.2942 -1.3232  0.7967
11204TIP3    H233574   2.914   5.469   4.854  1.1075  0.7886 -1.4726
11205TIP3   OH233575   1.842   1.957   2.968 -0.1019 -0.1332  0.3101
11205TIP3    H133576   1.871   1.913   2.888 -1.2620  0.4779 -0.4586
11205TIP3    H233577   1.908   1.933   3.033  2.3499  1.5647 -1.4615
11206TIP3   OH233578   0.541   1.598   1.046  0.1599  0.4246  0.3142
11206TIP3    H133579   0.549   1.617   1.140 -0.0839 -0.9246  0.6107
11206TIP3    H233580   0.451   1.570   1.034 -0.1966  1.8809 -0.5768
11207TIP3   OH233581   6.848   0.483   1.766  0.0667 -0.5848  0.4727
11207TIP3    H133582   6.827   0.525   1.683 -0.4815  1.2040  1.4897
11207TIP3    H233583   6.856   0.390   1.744 -0.2589 -0.1676 -1.5364
11208TIP3   OH233584   1.713   5.521   3.301  0.2765  0.0649  0.1303
11208TIP3    H133585   1.732   5.611   3.277 -2.5990  0.4710 -0.7798
11208TIP3    H233586   1.650   5.528   3.373  0.4196 -1.2323  0.3966
11209TIP3   OH233587   0.306   1.714   0.543  0.4406 -0.1491 -0.1458
11209TIP3    H133588   0.325   1.781   0.609 -1.2718 -1.6854  1.9725
11209TIP3    H233589   0.258   1.760   0.475  0.8803  1.1530  0.4089
11210TIP3   OH233590   7.020   0.898   1.685 -0.6431  0.4353 -0.1618
11210TIP3    H133591   7.050   0.836   1.619 -0.3840  1.5071 -1.0725
11210TIP3    H233592   7.027   0.851   1.768  2.4507  0.2343 -0.4849
11211TIP3   OH233593   6.554   0.817   2.815  0.4289  0.2957 -0.0964
11211TIP3    H133594   6.592   0.738   2.777  1.3536  0.8525 -0.3439
11211TIP3    H233595   6.568   0.806   2.909 -1.3928 -0.8373  0.0705
11212TIP3   OH233596   5.288   6.484   2.119 -0.1051 -0.0900 -0.4802
11212TIP3    H133597   5.272   6.550   2.187  0.8021  1.8169 -2.0852
11212TIP3    H233598   5.376   6.450   2.139 -0.0258  0.1345 -0.4526
11213TIP3   OH233599   7.391   1.045   1.495 -0.2286  0.4127  0.4661
11213TIP3    H133600   7.439   1.111   1.446  0.4088 -0.3014  0.1122
11213TIP3    H233601   7.312   1.028   1.444 -0.6623  1.2755  0.8300
11214TIP3   OH233602   0.364   2.555   2.142 -0.7209 -0.0234  0.4065
11214TIP3    H133603   0.351   2.504   2.063 -2.6797  0.6375  0.2762
11214TIP3    H233604   0.391   2.641   2.111 -0.3232 -0.1091  0.5111
11215TIP3   OH233605   7.477   2.682   0.789  0.1091  0.2264  0.0139
11215TIP3    H133606   7.538   2.739   0.835  0.0528  0.7658 -0.5704
11215TIP3    H233607   7.531   2.632   0.728 -0.1259  1.3394 -1.1366
11216TIP3   OH233608   4.439   6.837   1.340 -0.1545 -0.0987  0.2508
11216TIP3    H133609   4.378   6.780   1.386  0.1404  2.0237  3.4393
11216TIP3    H233610   4.386   6.882   1.275 -1.3348 -0.6237  0.8298
11217TIP3   OH233611   4.478   7.049   0.654 -0.1972  0.0417 -0.0108
11217TIP3    H133612   4.496   6.981   0.589  0.2660  1.8812 -1.8838
11217TIP3    H233613   4.556   7.105   0.652 -1.3920  1.7769 -0.0328
11218TIP3   OH233614   6.677   2.131   1.041  0.2091 -0.1241 -0.6424
11218TIP3    H133615   6.723   2.054   1.007  0.0487  0.7529 -2.9223
11218TIP3    H233616   6.612   2.095   1.102  0.2571 -1.7830 -1.5302
11219TIP3   OH233617   4.472   7.134   4.664  0.2607  0.0312 -0.0561
11219TIP3    H133618   4.509   7.209   4.710 -0.5736  1.9576 -2.4264
11219TIP3    H233619   4.380   7.134   4.691  0.6592 -1.3109  1.3910
11220TIP3   OH233620   0.634   1.127   1.960 -0.1568  0.1952  0.0360
11220TIP3    H133621   0.573   1.177   2.015  0.1140  0.9590 -0.3682
11220TIP3    H233622   0.577   1.077   1.902 -0.3981  1.0765 -0.4904
11221TIP3   OH233623   7.764   1.331   1.298  0.4677 -0.2634  0.9928
11221TIP3    H133624   7.767   1.427   1.292  1.0386 -0.3326  0.1176
11221TIP3    H233625   7.790   1.301   1.211 -0.6733 -1.2041  0.9592
11222TIP3   OH233626   1.188   1.861   1.401 -0.1956 -0.0051  0.3995
11222TIP3    H133627   1.204   1.806   1.324  0.9325  3.0586 -1.6478
11222TIP3    H233628   1.275   1.876   1.438 -0.3431  1.3576  0.2220
11223TIP3   OH233629   0.600   2.735   2.727 -0.3027 -0.1485 -0.9222
11223TIP3    H133630   0.616   2.811   2.672 -1.9218  0.4580 -0.5876
11223TIP3    H233631   0.565   2.771   2.809  1.0755 -1.1041  0.1032
11224TIP3   OH233632   6.382   3.200   2.118 -0.8230 -0.1121  0.3864
11224TIP3    H133633   6.328   3.218   2.195  0.4615 -1.9523  1.7695
11224TIP3    H233634   6.399   3.106   2.122 -0.6335 -0.2086 -2.0972
11225TIP3   OH233635   3.989   5.927   6.021 -0.3544  0.2507  0.4269
11225TIP3    H133636   3.901   5.943   6.055 -0.1877  1.4866  0.3113
11225TIP3    H233637   3.979   5.930   5.926 -0.3751 -0.7049  0.3938
11226TIP3   OH233638   5.171   7.168   3.161  0.3994 -0.0428  0.6775
11226TIP3    H133639   5.232   7.228   3.205 -0.2515 -0.1920  1.8121
11226TIP3    H233640   5.167   7.200   3.071  1.1627  0.7530  0.9143
11227TIP3   OH233641   3.862   6.482   5.291  0.1321  0.2880  0.1675
11227TIP3    H133642   3.829   6.495   5.380  1.0799  1.6432  0.3501
11227TIP3    H233643   3.941   6.429   5.302 -0.2709 -0.3427  0.0372
11228TIP3   OH233644   7.598   2.127   0.353 -0.7527 -0.4844 -0.0483
11228TIP3    H133645   7.505   2.112   0.337 -1.3652  2.3077  0.6553
11228TIP3    H233646   7.604   2.150   0.445  0.5717 -0.0942 -0.2154
11229TIP3   OH233647   3.127   5.522   0.770 -0.5379 -0.5149 -0.3657
11229TIP3    H133648   3.061   5.588   0.795 -0.0658 -0.5392  0.9807
11229TIP3    H233649   3.107   5.502   0.679 -1.7257  0.2818 -0.2957
11230TIP3   OH233650   7.330   1.646   0.941 -0.5147 -0.3409  0.1281
11230TIP3    H133651   7.252   1.618   0.894  0.3027 -0.2130 -1.3370
11230TIP3    H233652   7.392   1.573   0.931  0.8785  1.0574 -1.9334
11231TIP3   OH233653   6.799   1.711   3.839  0.0282 -0.7171  0.3483
11231TIP3    H133654   6.772   1.703   3.930  1.0076 -1.7972  0.5595
11231TIP3    H233655   6.774   1.800   3.814  0.5843 -0.0966  1.9457
11232TIP3   OH233656   1.945   4.649   5.667 -0.0520  0.9094  0.7330
11232TIP3    H133657   1.921   4.596   5.592  0.3699 -0.3783  1.4802
11232TIP3    H233658   1.877   4.632   5.732  0.8770  0.1241  1.5135
11233TIP3   OH233659   7.369   4.010   0.254 -0.1732  0.3904  0.0098
11233TIP3    H133660   7.360   3.924   0.296  0.6728  0.7011  0.8429
11233TIP3    H233661   7.288   4.056   0.276 -0.3562  0.0331  0.0881
11234TIP3   OH233662   3.294   6.713   3.215 -0.1213  0.8315  0.1324
11234TIP3    H133663   3.355   6.660   3.267  1.1899  3.6511  1.5892
11234TIP3    H233664   3.273   6.787   3.271 -2.9378  1.2418 -1.3532
11235TIP3   OH233665   2.269   5.109   6.171  0.1149  0.0722 -0.0613
11235TIP3    H133666   2.269   5.147   6.259  0.5150 -0.9666  0.3876
11235TIP3    H233667   2.331   5.163   6.121 -0.1473  0.6881  0.2750
11236TIP3   OH233668   6.348   4.041   0.127  0.1618 -1.0792  0.2425
11236TIP3    H133669   6.294   4.108   0.085 -1.1768 -0.8946  2.2058
11236TIP3    H233670   6.400   4.089   0.191  2.6094 -1.2762 -1.5205
11237TIP3   OH233671   6.397   2.424   1.900  0.9859  0.2186 -0.3349
11237TIP3    H133672   6.328   2.429   1.834  0.8302  1.3543 -0.0981
11237TIP3    H233673   6.478   2.417   1.849  0.7779 -0.0880 -0.6268
11238TIP3   OH233674   7.685   0.615   1.182 -0.3450 -0.1348 -0.0766
11238TIP3    H133675   7.754   0.550   1.195 -0.7365 -0.5217  0.1102
11238TIP3    H233676   7.619   0.569   1.129  0.2380  0.7286 -1.5706
11239TIP3   OH233677   7.811   0.955   0.052  0.2538  0.1386 -0.1593
11239TIP3    H133678   7.813   0.870   0.008 -1.2725 -0.3993  0.7666
11239TIP3    H233679   7.729   0.954   0.102  0.7043  1.7605  0.6397
11240TIP3   OH233680   4.565   6.612   0.706 -0.0288  0.0705 -0.2393
11240TIP3    H133681   4.474   6.593   0.687 -0.5143  1.6101  0.4054
11240TIP3    H233682   4.599   6.532   0.746 -1.3146 -0.2452  0.2491
11241TIP3   OH233683   0.838   2.082   0.664 -0.3842 -0.3271 -0.3573
11241TIP3    H133684   0.933   2.072   0.650 -0.2583 -1.6282  1.3058
11241TIP3    H233685   0.827   2.174   0.689  0.3832 -0.0539 -1.0139
11242TIP3   OH233686   7.102   1.143   1.563  0.2271 -0.1922  0.2684
11242TIP3    H133687   7.087   1.062   1.612  1.2303  0.3990  1.5776
11242TIP3    H233688   7.156   1.196   1.621  1.1051  0.6839 -1.3341
11243TIP3   OH233689   5.883   1.641   0.893 -0.1341  0.0337 -0.4339
11243TIP3    H133690   5.876   1.547   0.877 -0.2488 -0.2263  1.0466
11243TIP3    H233691   5.873   1.681   0.806 -3.6671 -1.1329 -0.6450
11244TIP3   OH233692   1.225   7.093   3.169  0.3083  0.8797  0.3156
11244TIP3    H133693   1.244   7.183   3.195  4.8440 -0.3407  1.5944
11244TIP3    H233694   1.230   7.094   3.074 -1.3880  2.3045  0.2228
11245TIP3   OH233695   6.399   6.806   1.135  0.1088 -0.1214 -0.0543
11245TIP3    H133696   6.396   6.820   1.040  0.2332 -0.3020 -0.0839
11245TIP3    H233697   6.315   6.766   1.156  0.5530 -1.1682 -0.2590
11246TIP3   OH233698   5.238   0.071   6.251  0.8241  0.1787 -0.5744
11246TIP3    H133699   5.213   0.120   6.330  0.8128 -1.2621  0.3220
11246TIP3    H233700   5.280  -0.008   6.283  0.7511 -0.4730 -2.0197
11247TIP3   OH233701   0.114   2.424   2.318 -0.5491 -0.1407  0.0027
11247TIP3    H133702   0.085   2.510   2.287 -1.6908 -1.3198 -2.2914
11247TIP3    H233703   0.205   2.439   2.345 -0.7975  1.8294 -0.1282
11248TIP3   OH233704   3.370   1.329   0.181  0.2685 -0.3648  0.1772
11248TIP3    H133705   3.421   1.288   0.111  2.6262 -0.8725  2.1471
11248TIP3    H233706   3.418   1.408   0.203 -1.1314  0.4454  0.4249
11249TIP3   OH233707   0.599   1.037   2.839  0.1358  0.0548 -0.6953
11249TIP3    H133708   0.571   1.121   2.876 -0.5927 -0.6859  0.4788
11249TIP3    H233709   0.518   0.987   2.831  0.8567 -1.4189  0.9057
11250TIP3   OH233710   0.054   0.040   1.480  0.4750  0.2483  0.1827
11250TIP3    H133711   0.098   0.121   1.454 -0.2533  0.9714  1.2270
11250TIP3    H233712   0.120  -0.028   1.463  0.4047  0.7840 -2.6217
11251TIP3   OH233713   7.435   2.478   1.531 -0.3458 -0.1271 -0.8084
11251TIP3    H133714   7.445   2.390   1.567 -2.0435  0.5340  1.3559
11251TIP3    H233715   7.470   2.472   1.442  0.3055 -2.7707 -0.3955
11252TIP3   OH233716   6.134   0.119   5.148 -0.3493  0.5025 -0.1296
11252TIP3    H133717   6.040   0.135   5.155 -0.4629  0.1749 -0.8157
11252TIP3    H233718   6.159   0.157   5.064 -0.0681 -0.3323 -0.4274
11253TIP3   OH233719   0.911   1.514   1.247 -0.6690 -0.1357  0.0136
11253TIP3    H133720   0.878   1.467   1.323 -0.2829  0.1772  0.3817
11253TIP3    H233721   0.845   1.582   1.230 -1.2847 -0.8833 -0.5949
11254TIP3   OH233722   7.099   0.733   0.571  0.0102  0.0104 -0.4325
11254TIP3    H133723   7.062   0.648   0.544 -2.3294  0.2281  1.8500
11254TIP3    H233724   7.169   0.710   0.631 -0.7470 -0.3345  0.3380
11255TIP3   OH233725   7.505   0.359   1.029 -0.0906  0.4014  0.1398
11255TIP3    H133726   7.556   0.358   1.109  0.7477 -1.9025 -0.3886
11255TIP3    H233727   7.477   0.268   1.017 -1.3076  0.9644 -1.4702
11256TIP3   OH233728   4.428   4.698   5.418  0.2796  0.0275 -0.9828
11256TIP3    H133729   4.507   4.645   5.431  0.2503  0.4324  1.0270
11256TIP3    H233730   4.383   4.693   5.502 -1.2357  0.7885 -1.7464
11257TIP3   OH233731   7.549   2.058   1.841  0.2734 -0.0959  0.0933
11257TIP3    H133732   7.561   2.134   1.898 -1.3280  1.6400 -1.8121
11257TIP3    H233733   7.459   2.030   1.857 -0.1806  0.3937 -1.5347
11258TIP3   OH233734   5.543   6.768   0.927  0.1355 -0.2713 -0.1438
11258TIP3    H133735   5.638   6.762   0.914 -0.1866  0.2455 -3.0723
11258TIP3    H233736   5.507   6.764   0.838 -2.6245 -1.0517  0.9801
11259TIP3   OH233737   0.702   4.916   5.978  0.1668 -0.4402 -0.1589
11259TIP3    H133738   0.612   4.925   5.947 -0.3347  0.0530  1.3665
11259TIP3    H233739   0.711   4.823   5.999  0.5176 -0.7759 -1.7953
11260TIP3   OH233740   6.999   2.400   2.366 -0.3041  0.2202  0.2177
11260TIP3    H133741   6.924   2.387   2.424  1.1275 -1.2390  1.7761
11260TIP3    H233742   7.063   2.448   2.419  0.2015  0.7380 -0.8438
11261TIP3   OH233743   1.537   0.218   2.218 -0.0687  0.1031 -0.7447
11261TIP3    H133744   1.484   0.289   2.181 -1.9110  0.5212  2.4966
11261TIP3    H233745   1.474   0.148   2.236  1.1235 -0.8928 -0.4227
11262TIP3   OH233746   7.631   0.975   0.901  0.2036 -0.1587 -0.2025
11262TIP3    H133747   7.660   1.021   0.822 -1.4412 -0.4742 -1.0227
11262TIP3    H233748   7.689   0.899   0.907  0.1961 -0.2620 -1.2524
11263TIP3   OH233749   2.217   3.610   2.289 -0.4862  0.7701  0.1369
11263TIP3    H133750   2.281   3.673   2.321 -0.3574 -0.5937  2.6877
11263TIP3    H233751   2.264   3.559   2.223  0.0026  1.9868 -0.4749
11264TIP3   OH233752   1.007   2.247   1.617 -0.0884 -0.1080  0.1010
11264TIP3    H133753   1.013   2.333   1.576 -1.3712 -0.1706 -0.2548
11264TIP3    H233754   0.919   2.246   1.656  0.6335 -0.5333  1.7558
11265TIP3   OH233755   6.949   0.109   1.416  0.1908 -0.3903  0.4999
11265TIP3    H133756   7.043   0.091   1.411  0.1902 -0.3585  0.3718
11265TIP3    H233757   6.930   0.157   1.335  0.4694  1.4365  1.5017
11266TIP3   OH233758   7.544   0.468   1.589  0.0313 -0.0540  0.4551
11266TIP3    H133759   7.534   0.440   1.680 -0.1864  0.5246  0.6124
11266TIP3    H233760   7.460   0.508   1.567 -0.0827 -0.6298 -0.1541
11267TIP3   OH233761   7.321   1.774   1.185 -0.5659  0.7731  0.0936
11267TIP3    H133762   7.331   1.730   1.101 -0.2626  0.0775  0.4908
11267TIP3    H233763   7.360   1.861   1.171 -1.5701  1.0750 -0.8112
11268TIP3   OH233764   0.864   0.943   0.732 -0.2035 -0.4282 -0.4600
11268TIP3    H133765   0.883   0.972   0.821 -1.5406  0.1832 -0.3637
11268TIP3    H233766   0.852   0.849   0.739 -1.2123 -0.2527  0.1697
11269TIP3   OH233767   2.901   1.340   3.109  0.5891 -0.3542 -0.5922
11269TIP3    H133768   2.827   1.292   3.147 -0.1749  0.3943 -1.0930
11269TIP3    H233769   2.930   1.398   3.180  1.5246 -1.5591  0.0154
11270TIP3   OH233770   1.381   2.306   1.395 -0.1594  0.2521 -0.0089
11270TIP3    H133771   1.419   2.264   1.318  2.2878 -0.6386  1.5882
11270TIP3    H233772   1.371   2.235   1.458 -1.5368  1.0712  0.7240
11271TIP3   OH233773   6.179   3.795   4.647  0.6239  0.0012  0.3771
11271TIP3    H133774   6.094   3.757   4.671 -0.2352  2.1445  0.7917
11271TIP3    H233775   6.237   3.771   4.719  0.2464 -1.0090  0.3573
11272TIP3   OH233776   5.906   3.847   5.907 -0.2606  0.6630 -0.6791
11272TIP3    H133777   5.946   3.932   5.927  1.0828 -0.1690  0.2707
11272TIP3    H233778   5.832   3.840   5.967 -1.8356  2.1742 -2.3784
11273TIP3   OH233779   1.643   1.590   1.491 -1.1396  0.4901 -0.2603
11273TIP3    H133780   1.626   1.641   1.570 -1.6534 -2.0058  1.2997
11273TIP3    H233781   1.621   1.500   1.515  0.5225 -0.6280 -2.6597
11274TIP3   OH233782   6.757   6.105   0.428 -0.1050 -1.0194  0.4066
11274TIP3    H133783   6.707   6.027   0.451  1.2441 -2.3278 -0.9882
11274TIP3    H233784   6.799   6.083   0.344 -0.7113  1.6651 -0.6468
11275TIP3   OH233785   3.640   3.751   0.554  0.0377 -0.5759 -0.0831
11275TIP3    H133786   3.615   3.750   0.461 -0.5736  0.9408  0.0527
11275TIP3    H233787   3.559   3.729   0.600 -0.0635  0.2739  0.1572
11276TIP3   OH233788   1.724   3.046   0.547 -0.3451 -0.4488 -0.3613
11276TIP3    H133789   1.808   3.071   0.586 -0.2583 -1.0376 -0.1762
11276TIP3    H233790   1.678   3.129   0.535 -0.3055 -0.2457  0.8377
11277TIP3   OH233791   4.278   5.492   4.211 -0.0595 -0.0535 -0.7119
11277TIP3    H133792   4.295   5.585   4.195  0.1620  0.2355  1.0630
11277TIP3    H233793   4.308   5.478   4.301 -0.8565 -1.6548 -0.6887
11278TIP3   OH233794   2.710   1.659   0.490 -0.0651 -0.0986 -0.0165
11278TIP3    H133795   2.640   1.678   0.554  0.3760  1.2052  0.0904
11278TIP3    H233796   2.770   1.601   0.537 -0.3749 -0.1272  0.3477
11279TIP3   OH233797   1.556   1.758   2.390 -0.1154  0.0816  0.1442
11279TIP3    H133798   1.469   1.794   2.373 -0.8541 -0.3793  2.7558
11279TIP3    H233799   1.549   1.666   2.365  0.1802  0.4824 -1.4243
11280TIP3   OH233800   3.716   1.496   0.011 -0.0749  0.4273 -0.3005
11280TIP3    H133801   3.674   1.415  -0.017  0.1067 -0.4082  1.7417
11280TIP3    H233802   3.649   1.542   0.061  0.1035  1.1155 -0.6881
11281TIP3   OH233803   2.280   4.197   1.756 -0.1953  0.2132  0.1073
11281TIP3    H133804   2.188   4.221   1.769 -0.0595  0.3985  0.7469
11281TIP3    H233805   2.294   4.124   1.816 -0.1669 -0.4105 -0.6526
11282TIP3   OH233806   6.613   6.581   4.459  0.1106 -0.2634  0.5448
11282TIP3    H133807   6.605   6.521   4.384  1.4342 -0.9712  0.9666
11282TIP3    H233808   6.584   6.529   4.534  0.2670 -0.0439  0.7554
11283TIP3   OH233809   3.336   2.709   0.123  0.2931 -0.0831  0.1855
11283TIP3    H133810   3.431   2.726   0.126  0.1240  0.8009  0.7469
11283TIP3    H233811   3.314   2.714   0.030  0.7349  0.0705  0.0866
11284TIP3   OH233812   2.042   1.030   1.845  0.1679  0.2364 -0.0983
11284TIP3    H133813   1.951   1.041   1.820  0.0693 -1.2133 -0.4495
11284TIP3    H233814   2.060   1.103   1.904 -1.5405 -0.0973  0.8624
11285TIP3   OH233815   6.246   6.945   6.201 -0.0879  0.4114  0.1352
11285TIP3    H133816   6.313   6.917   6.264 -0.2616  1.3895  0.7686
11285TIP3    H233817   6.296   6.991   6.133 -0.1742  1.8077  0.9924
11286TIP3   OH233818   3.798   2.903   0.769 -0.0808  0.8015  0.3744
11286TIP3    H133819   3.784   2.847   0.845  0.0756 -0.9450 -0.8598
11286TIP3    H233820   3.714   2.947   0.756 -1.3041 -1.7065 -0.6590
11287TIP3   OH233821   6.989   2.168   0.715 -0.2613  0.3428  0.2366
11287TIP3    H133822   7.007   2.220   0.637  1.0469 -0.4583 -0.0022
11287TIP3    H233823   6.926   2.102   0.686 -0.6398  0.7431  0.1400
11288TIP3   OH233824   1.962   1.883   1.738  0.0530 -0.0298 -0.0794
11288TIP3    H133825   1.955   1.919   1.826 -0.9901 -2.7790  1.0401
11288TIP3    H233826   2.035   1.820   1.743 -1.9257 -2.4340 -0.2960
11289TIP3   OH233827   2.373   1.900   2.816  0.1343  0.5614 -0.4840
11289TIP3    H133828   2.378   1.990   2.784  0.8562 -0.0977 -2.2666
11289TIP3    H233829   2.359   1.848   2.738 -2.2249 -0.7151  0.7618
11290TIP3   OH233830   3.920   0.035   0.293 -0.2976 -0.0678 -0.2851
11290TIP3    H133831   3.873  -0.043   0.265  0.6465 -1.2782  1.3804
11290TIP3    H233832   3.884   0.055   0.380 -0.0822  0.9589 -0.4228
11291TIP3   OH233833   6.588   4.680   6.352 -0.2194 -0.6435 -0.3441
11291TIP3    H133834   6.553   4.738   6.420 -0.9031 -1.2524 -0.1685
11291TIP3    H233835   6.647   4.736   6.301 -1.0299  0.2621 -0.3080
11292TIP3   OH233836   2.840   0.351   0.926  0.0540  0.0583 -0.6022
11292TIP3    H133837   2.885   0.366   1.009 -0.7401  0.1314 -0.1761
11292TIP3    H233838   2.840   0.436   0.883 -1.1828  0.4577  0.1654
11293TIP3   OH233839   6.134   6.392   5.924  0.3655 -0.2951 -0.4109
11293TIP3    H133840   6.172   6.414   5.839  0.1909  0.4105 -0.3132
11293TIP3    H233841   6.193   6.326   5.961  2.6921  2.2386  0.6209
11294TIP3   OH233842   6.619   7.132   2.247  0.2103  0.4217  0.2691
11294TIP3    H133843   6.690   7.197   2.255  0.0847  0.6230 -0.2559
11294TIP3    H233844   6.579   7.151   2.163  0.7425 -0.9237 -0.2938
11295TIP3   OH233845   6.573   6.882   1.317 -0.7651 -0.2955  0.1830
11295TIP3    H133846   6.510   6.829   1.268 -0.8446  0.0980 -0.1482
11295TIP3    H233847   6.624   6.927   1.249 -0.0912 -0.6524  0.4501
11296TIP3   OH233848   1.982   0.798   1.175  0.5991  0.6182 -0.4329
11296TIP3    H133849   2.001   0.791   1.081  2.0529 -0.6501 -0.0740
11296TIP3    H233850   1.936   0.881   1.184  0.1190  0.5811 -2.3208
11297TIP3   OH233851   0.146   5.540   0.192 -0.3516  0.5133  0.0228
11297TIP3    H133852   0.215   5.600   0.165 -1.4258  1.3903 -0.7922
11297TIP3    H233853   0.075   5.596   0.223 -0.5677 -0.3889  1.2104
11298TIP3   OH233854   4.737   3.851   6.092 -0.1779 -0.4569  0.1080
11298TIP3    H133855   4.789   3.816   6.020 -1.3354 -2.8653  0.3988
11298TIP3    H233856   4.791   3.837   6.170  0.3092  0.5039 -0.0460
11299TIP3   OH233857   1.902   0.640   0.650 -0.1071  0.0480 -0.6077
11299TIP3    H133858   1.876   0.549   0.643 -0.2475  0.0856 -0.5801
11299TIP3    H233859   1.866   0.682   0.572  1.2534 -0.2237 -1.3882
11300TIP3   OH233860   5.331   3.876   5.920 -0.3691 -0.1994 -0.7256
11300TIP3    H133861   5.386   3.807   5.956 -0.3551 -0.9687 -2.1573
11300TIP3    H233862   5.264   3.829   5.870 -0.9612  0.7947 -0.8738
11301TIP3   OH233863   1.317   0.312   0.107  0.4851 -0.1220 -0.1338
11301TIP3    H133864   1.406   0.326   0.138  0.5167  0.9394 -0.6884
11301TIP3    H233865   1.320   0.332   0.014 -0.2013 -0.6784 -0.2825
11302TIP3   OH233866   6.121   6.951   1.497 -0.2148  0.3216 -0.2087
11302TIP3    H133867   6.041   6.978   1.451  1.6074  0.8905 -3.1270
11302TIP3    H233868   6.169   7.032   1.511  0.6102 -0.2166  0.0869
11303TIP3   OH233869   4.601   7.326   2.303 -0.3779  0.2203  0.3132
11303TIP3    H133870   4.558   7.339   2.388 -0.8467 -0.7071  0.2220
11303TIP3    H233871   4.531   7.298   2.244  0.2907 -1.0213  0.0872
11304TIP3   OH233872   7.308   5.848   3.972  0.0289  0.3168  0.1998
11304TIP3    H133873   7.375   5.864   3.905  0.0600 -0.0200  0.1521
11304TIP3    H233874   7.228   5.830   3.922  0.5663 -2.2700  0.2144
11305TIP3   OH233875   4.684   7.022   5.868  0.3402  0.5038  0.7175
11305TIP3    H133876   4.727   6.960   5.926 -1.8531 -0.5288  1.3189
11305TIP3    H233877   4.590   7.003   5.878 -0.2012  1.7857 -1.4853
11306TIP3   OH233878   2.827   1.233   0.582 -0.0742 -0.0475  0.0979
11306TIP3    H133879   2.922   1.222   0.575 -0.1958 -1.5690  0.5602
11306TIP3    H233880   2.813   1.327   0.574  1.3826  0.0906 -0.9905
11307TIP3   OH233881   4.354   6.629   5.960  0.2507 -0.1855 -0.6762
11307TIP3    H133882   4.313   6.550   5.924  0.6786 -0.1299 -1.3063
11307TIP3    H233883   4.350   6.692   5.889 -1.5245  0.8905  0.3564
11308TIP3   OH233884   3.691   6.390   5.721  0.6729  0.2742 -0.0453
11308TIP3    H133885   3.764   6.337   5.753 -0.3358 -0.7967  0.5136
11308TIP3    H233886   3.705   6.476   5.762  0.1627 -0.6797  2.2464
11309TIP3   OH233887   0.713   7.070   0.061  0.5154 -0.4878  0.1012
11309TIP3    H133888   0.754   7.073  -0.025 -0.6366 -0.5547 -0.4494
11309TIP3    H233889   0.787   7.066   0.122  1.3322 -0.5536 -0.8780
11310TIP3   OH233890   4.294   2.619   1.509 -0.4714  0.1501 -0.4078
11310TIP3    H133891   4.276   2.667   1.590 -1.3365  0.7438 -0.9428
11310TIP3    H233892   4.311   2.529   1.537 -4.2144 -0.4344  0.1360
11311TIP3   OH233893   3.078   3.985   0.098  0.7313  0.1587 -0.4724
11311TIP3    H133894   3.057   4.078   0.090  2.4144  0.5348 -0.7113
11311TIP3    H233895   2.993   3.941   0.095 -0.1706  1.7504  0.7484
11312TIP3   OH233896   0.131   2.503   0.380 -0.2850  0.1174  0.3494
11312TIP3    H133897   0.190   2.506   0.305 -0.7282  0.0065  0.0037
11312TIP3    H233898   0.147   2.418   0.420 -0.4794 -0.0625  0.0426
11313TIP3   OH233899   2.705   1.937   1.336 -0.0735 -0.0778 -0.2319
11313TIP3    H133900   2.633   1.999   1.340 -1.4692 -1.7504  1.5313
11313TIP3    H233901   2.690   1.887   1.255 -0.3091  0.2391 -0.3828
11314TIP3   OH233902   2.751   1.520   1.290 -0.5098  0.5247 -0.3450
11314TIP3    H133903   2.737   1.591   1.227  1.2338  0.0125 -1.3623
11314TIP3    H233904   2.764   1.442   1.236  0.2408 -0.0666  0.6603
11315TIP3   OH233905   6.625   4.619   5.589 -0.4603 -0.8123  0.0097
11315TIP3    H133906   6.663   4.651   5.671 -1.9009  0.6539  0.1389
11315TIP3    H233907   6.683   4.652   5.521  0.4269 -1.5614  0.3827
11316TIP3   OH233908   3.877   2.536   0.443  0.1517 -0.3252 -0.4009
11316TIP3    H133909   3.913   2.601   0.383 -0.8085 -0.9537 -1.6794
11316TIP3    H233910   3.813   2.585   0.495  2.0425  0.5609  1.1860
11317TIP3   OH233911   5.779   3.696   0.350  0.1598  0.0638  0.1230
11317TIP3    H133912   5.785   3.787   0.321  2.3908 -0.2737 -0.5739
11317TIP3    H233913   5.806   3.699   0.442 -0.1147  0.1602  0.2001
11318TIP3   OH233914   5.194   6.680   5.187  0.1632  1.0235  0.4162
11318TIP3    H133915   5.119   6.716   5.236  0.4449  3.3777 -0.7958
11318TIP3    H233916   5.162   6.596   5.153 -1.5531  1.4817  0.8365
11319TIP3   OH233917   4.689   6.025   5.123  0.0956 -0.0281 -0.1287
11319TIP3    H133918   4.751   5.958   5.151 -0.8835 -0.5241  0.9086
11319TIP3    H233919   4.609   6.005   5.172 -1.5822 -0.7164 -3.0004
11320TIP3   OH233920   1.436   0.325   1.133 -0.1131 -0.1630  0.7327
11320TIP3    H133921   1.528   0.348   1.120 -0.1202 -0.2844  0.4628
11320TIP3    H233922   1.438   0.252   1.195 -0.1408  1.1741  2.3426
11321TIP3   OH233923   7.693   6.357   0.781  0.4957  0.3467 -0.3566
11321TIP3    H133924   7.705   6.441   0.736 -0.8904  1.1029  0.6522
11321TIP3    H233925   7.658   6.380   0.867  0.0648 -1.2636 -0.0758
11322TIP3   OH233926   1.453   1.678   0.510  0.3579 -0.4707  0.0071
11322TIP3    H133927   1.377   1.641   0.556  0.0382  0.9052  0.5989
11322TIP3    H233928   1.484   1.606   0.455 -0.2397 -1.6342  1.1509
11323TIP3   OH233929   2.481   2.218   0.414 -0.0580  0.1778 -0.1179
11323TIP3    H133930   2.497   2.182   0.502 -0.1159  0.9207  0.1960
11323TIP3    H233931   2.427   2.151   0.371 -0.2318 -0.0852  0.4941
11324TIP3   OH233932   6.077   6.607   2.308 -0.3556 -0.0070  0.3146
11324TIP3    H133933   6.122   6.526   2.283 -1.4146 -0.8924  1.2422
11324TIP3    H233934   6.137   6.648   2.370 -0.3473 -0.6838  0.7656
11325TIP3   OH233935   2.045   1.924   0.861 -0.9521  0.1157 -0.0009
11325TIP3    H133936   2.065   1.990   0.795 -1.5092 -0.2315 -0.5194
11325TIP3    H233937   1.963   1.884   0.831 -0.1850 -1.3741 -0.1318
11326TIP3   OH233938   6.190   6.299   1.443 -0.4725 -0.4965 -0.3035
11326TIP3    H133939   6.156   6.217   1.406  1.6372 -1.5005 -0.0672
11326TIP3    H233940   6.156   6.301   1.532  0.7792 -1.9217  0.2170
11327TIP3   OH233941   2.311   2.059   2.261  0.1956 -0.1208  0.1336
11327TIP3    H133942   2.309   1.980   2.315  1.7103 -0.6533 -0.5448
11327TIP3    H233943   2.299   2.026   2.171 -0.5818  0.5805 -0.0323
11328TIP3   OH233944   0.085  -0.009   1.079  0.8523 -0.0219  0.2344
11328TIP3    H133945   0.016  -0.067   1.113  1.2541 -0.9404 -0.4870
11328TIP3    H233946   0.041   0.076   1.067 -0.2404 -0.6796 -0.5126
11329TIP3   OH233947   4.305   4.544   6.066  0.3624 -0.0327 -0.7842
11329TIP3    H133948   4.262   4.492   5.999  0.6294 -1.0076 -0.2115
11329TIP3    H233949   4.344   4.480   6.125  0.4493  0.8147  0.0980
11330TIP3   OH233950   7.750   1.576   2.964 -0.1111  0.1987  0.1246
11330TIP3    H133951   7.821   1.625   3.007  0.3129 -0.8270  0.5940
11330TIP3    H233952   7.715   1.519   3.032 -1.2413  0.5204 -0.1703
11331TIP3   OH233953   2.500   1.824   2.399 -0.0283 -0.0961  0.0360
11331TIP3    H133954   2.431   1.763   2.372  0.6968 -1.4012  1.0738
11331TIP3    H233955   2.578   1.769   2.410  0.5060  0.9221  1.4908
11332TIP3   OH233956   5.072   5.842   4.844 -0.7750  0.2462  0.3074
11332TIP3    H133957   5.154   5.861   4.800 -0.6494 -0.2822  0.3137
11332TIP3    H233958   5.030   5.927   4.854 -1.9435  0.1147 -3.0406
11333TIP3   OH233959   3.216   5.172   5.382  0.0505  0.0873  0.2236
11333TIP3    H133960   3.213   5.266   5.367 -0.5278  0.0856  0.3100
11333TIP3    H233961   3.144   5.137   5.329 -1.2677 -0.0403  2.0487
11334TIP3   OH233962   1.912   1.355   2.459  0.9281 -0.1989 -0.1410
11334TIP3    H133963   1.892   1.338   2.551  0.8451 -0.6189 -0.2361
11334TIP3    H233964   2.000   1.319   2.447  0.8524 -0.3358 -0.2807
11335TIP3   OH233965   2.380   2.567   0.285 -0.2878 -0.1419 -0.1706
11335TIP3    H133966   2.363   2.646   0.233 -1.3105  0.3799  0.9293
11335TIP3    H233967   2.424   2.599   0.363 -1.1151 -0.6067  0.4877
11336TIP3   OH233968   6.085   4.153   5.479  0.2365 -0.3086 -0.1603
11336TIP3    H133969   6.004   4.175   5.432 -0.0396  2.0724  1.3522
11336TIP3    H233970   6.072   4.063   5.509 -0.1948 -1.3708 -3.2920
11337TIP3   OH233971   3.429   2.630   0.976 -0.2346 -0.0456  0.5279
11337TIP3    H133972   3.391   2.673   0.899  2.0036  1.2239  0.1166
11337TIP3    H233973   3.471   2.551   0.941  0.1076  0.1233  0.5578
11338TIP3   OH233974   7.772   2.179   0.151  0.3029 -0.2315 -0.1255
11338TIP3    H133975   7.718   2.133   0.215 -1.0970  1.0226 -0.3683
11338TIP3    H233976   7.834   2.229   0.204 -2.1127  2.3612  0.4052
11339TIP3   OH233977   7.728   1.362   1.621 -0.2034 -0.0310 -0.2933
11339TIP3    H133978   7.742   1.274   1.586 -0.1664 -0.3280  0.4713
11339TIP3    H233979   7.815   1.401   1.624  0.2538 -1.1758  2.5832
11340TIP3   OH233980   4.050   4.899   6.341  0.0663  0.2262 -0.4314
11340TIP3    H133981   4.033   4.972   6.281  0.1611 -0.1851 -0.9623
11340TIP3    H233982   4.109   4.936   6.407  0.4251  0.5245 -0.9172
11341TIP3   OH233983   7.222   0.821   2.271 -0.5062 -0.1694  0.0547
11341TIP3    H133984   7.205   0.770   2.191 -0.3165 -2.1958  1.2622
11341TIP3    H233985   7.315   0.809   2.288 -0.7227 -0.4603  1.0519
11342TIP3   OH233986   2.104   1.217   2.049  0.1739 -0.2610 -0.1976
11342TIP3    H133987   2.136   1.210   2.139 -2.1079 -2.5794  0.4835
11342TIP3    H233988   2.025   1.270   2.055  0.0029 -0.4350 -0.8307
11343TIP3   OH233989   3.021   0.539   1.079 -0.4414 -0.0258  0.1276
11343TIP3    H133990   2.953   0.561   1.143  1.1343 -0.0642  1.8489
11343TIP3    H233991   3.013   0.606   1.011 -0.7285  1.3020  1.4534
11344TIP3   OH233992   4.646   0.244   0.670 -0.4116  0.0063  0.1584
11344TIP3    H133993   4.736   0.273   0.658 -0.8106  0.3633 -2.3159
11344TIP3    H233994   4.594   0.310   0.624 -1.8261 -0.9587  0.3601
11345TIP3   OH233995   3.037   1.627   1.345 -0.9651  0.1571  0.6609
11345TIP3    H133996   3.088   1.672   1.412  0.2225  0.2597 -0.2985
11345TIP3    H233997   2.948   1.623   1.381 -0.2415 -0.2723  2.4716
11346TIP3   OH233998   3.967   0.634   0.991  0.2789  0.2381 -0.4282
11346TIP3    H133999   3.879   0.666   0.976 -0.3289 -1.1223  0.1213
11346TIP3    H234000   4.020   0.713   1.004 -1.2408  1.0208  1.3263
11347TIP3   OH234001   5.354   7.070   6.337 -0.0141  0.6369 -0.2503
11347TIP3    H134002   5.279   7.112   6.296  0.8464  0.9392 -1.5142
11347TIP3    H234003   5.335   6.976   6.332 -1.2441  0.7815  1.2559
11348TIP3   OH234004   6.871   3.500   0.563  0.0559 -0.3173 -0.2189
11348TIP3    H134005   6.952   3.451   0.575  0.5789  0.0616 -2.0957
11348TIP3    H234006   6.847   3.485   0.471 -0.9645  1.1380 -0.2105
11349TIP3   OH234007   0.687   0.304   6.121 -0.0201 -0.1826 -0.0899
11349TIP3    H134008   0.715   0.386   6.162 -2.5519  1.3551 -1.3560
11349TIP3    H234009   0.747   0.293   6.047  0.7089  0.1938  0.4340
11350TIP3   OH234010   5.149   4.071   3.853  0.1356 -0.1705  0.4014
11350TIP3    H134011   5.242   4.070   3.827  0.7540 -0.1200  2.5244
11350TIP3    H234012   5.114   4.151   3.813  1.0937 -0.0317 -0.1753
11351TIP3   OH234013   3.680   4.451   5.532  0.2919 -0.1691  0.4295
11351TIP3    H134014   3.697   4.522   5.469 -0.4737 -0.9772 -0.7106
11351TIP3    H234015   3.643   4.495   5.608 -1.3087  0.5381 -0.7376
11352TIP3   OH234016   0.238   2.329   2.013  0.9667  0.4530  0.0436
11352TIP3    H134017   0.325   2.304   1.982  1.6606  2.5220  0.2159
11352TIP3    H234018   0.206   2.253   2.060  2.6462 -0.3719 -0.1156
11353TIP3   OH234019   4.353   3.028   5.991  0.3823  0.6110  0.0374
11353TIP3    H134020   4.436   2.983   6.007  0.0509 -0.2863 -0.7407
11353TIP3    H234021   4.291   2.958   5.969 -0.3051  1.3867 -0.5395
11354TIP3   OH234022   3.623   1.617   1.404  0.0260 -0.1084 -0.0066
11354TIP3    H134023   3.629   1.712   1.395  0.3398 -0.1575 -0.3072
11354TIP3    H234024   3.576   1.604   1.486 -0.2663  0.3091 -0.1067
11355TIP3   OH234025   3.456   0.577   1.499  0.2744  0.3103  0.2728
11355TIP3    H134026   3.416   0.583   1.412 -0.5558 -0.5793  0.5877
11355TIP3    H234027   3.406   0.640   1.552  0.3569  0.3865  0.2594
11356TIP3   OH234028   5.595   6.295   0.397 -0.1055 -0.0397 -0.2381
11356TIP3    H134029   5.641   6.242   0.332  0.2022  1.5546 -1.3517
11356TIP3    H234030   5.597   6.384   0.361 -1.4775  0.5599  1.1146
11357TIP3   OH234031   2.788   0.571   0.747  0.2255 -1.0493  0.2414
11357TIP3    H134032   2.728   0.615   0.807 -0.0039 -1.6461  0.4536
11357TIP3    H234033   2.732   0.513   0.695  0.0366  1.3300 -2.3345
11358TIP3   OH234034   4.084   1.683   2.871 -0.3300 -0.2496 -0.3995
11358TIP3    H134035   4.128   1.624   2.810  1.0500  0.8790 -0.5418
11358TIP3    H234036   3.991   1.667   2.859 -0.0724 -0.0375 -2.8206
11359TIP3   OH234037   6.367   6.880   2.185  0.1028 -0.2758  0.3574
11359TIP3    H134038   6.361   6.919   2.097  1.2554 -2.1047 -0.5710
11359TIP3    H234039   6.390   6.789   2.169  1.6060 -0.3335  2.6048
11360TIP3   OH234040   2.337   0.480   0.096 -0.2244 -0.3456  0.0139
11360TIP3    H134041   2.290   0.426   0.159  0.5479 -1.4262 -0.3262
11360TIP3    H234042   2.269   0.508   0.034 -0.6508 -0.8338  0.2499
11361TIP3   OH234043   3.674   6.478   6.256  0.4129 -0.1539  0.0528
11361TIP3    H134044   3.652   6.536   6.183 -0.7901 -0.2465  0.3277
11361TIP3    H234045   3.764   6.499   6.277  1.1501 -0.9252 -2.2008
11362TIP3   OH234046   6.293   3.477   5.306 -0.1142 -0.2555  0.4451
11362TIP3    H134047   6.314   3.487   5.213 -1.9539  0.3647  0.0664
11362TIP3    H234048   6.331   3.554   5.348  2.0020 -1.2687  0.4635
11363TIP3   OH234049   5.400   5.672   5.802  0.4945  0.3879 -0.3873
11363TIP3    H134050   5.467   5.718   5.753  1.7157 -0.0497  0.8269
11363TIP3    H234051   5.337   5.643   5.736  0.5242  2.3834 -1.3404
11364TIP3   OH234052   1.697   1.276   0.134 -0.2613 -0.0380 -0.4094
11364TIP3    H134053   1.789   1.256   0.150  0.0516  0.7438 -1.1529
11364TIP3    H234054   1.695   1.304   0.042 -1.6650 -2.4693 -1.1604
11365TIP3   OH234055   1.744   2.161   0.152  0.1773  0.1633 -0.2269
11365TIP3    H134056   1.783   2.075   0.174  0.1073  0.0694 -0.4754
11365TIP3    H234057   1.660   2.140   0.112 -1.0661  0.4159  2.1765
11366TIP3   OH234058   5.924   5.192   6.153  0.2297 -0.5819 -0.7676
11366TIP3    H134059   5.871   5.205   6.231 -0.7261 -0.5747 -1.4006
11366TIP3    H234060   5.860   5.173   6.084  1.1220 -1.7391 -1.3066
11367TIP3   OH234061   7.754   2.875   4.455 -0.2311 -0.1736 -0.3848
11367TIP3    H134062   7.730   2.962   4.420  0.4793 -0.0164 -0.4751
11367TIP3    H234063   7.808   2.836   4.387  0.2684 -0.2991  0.0824
11368TIP3   OH234064   7.447   2.603   4.793 -0.1150 -0.0624  0.0653
11368TIP3    H134065   7.494   2.655   4.729  0.6100  0.8175  1.2822
11368TIP3    H234066   7.513   2.577   4.857 -1.2397  1.2188  1.8145
11369TIP3   OH234067   5.017   5.652   5.959  0.1088  0.1103  0.1711
11369TIP3    H134068   5.058   5.681   5.877 -0.8264  0.6333 -0.1189
11369TIP3    H234069   4.977   5.568   5.936  0.0567  0.1396  0.1544
11370TIP3   OH234070   4.867   1.232   0.856 -0.4382  0.3636 -0.2065
11370TIP3    H134071   4.843   1.262   0.769 -0.0374  0.9362 -0.1169
11370TIP3    H234072   4.892   1.311   0.904 -0.4761  0.0339  0.3725
11371TIP3   OH234073   0.877   5.812   6.095  0.5975 -0.3490  0.4906
11371TIP3    H134074   0.860   5.881   6.031  0.6927 -0.5261  0.2740
11371TIP3    H234075   0.907   5.738   6.043  1.1158 -0.3446  0.7794
11372TIP3   OH234076   4.692   6.173   5.920  0.2353  0.0230  0.5155
11372TIP3    H134077   4.647   6.193   6.002  1.6008 -0.7200  1.4640
11372TIP3    H234078   4.737   6.090   5.937 -0.9957 -1.1032 -1.6124
11373TIP3   OH234079   7.334   3.823   4.429 -0.3177 -0.0922  0.0869
11373TIP3    H134080   7.388   3.878   4.373 -1.4000  0.8641 -0.0600
11373TIP3    H234081   7.337   3.866   4.515 -0.5342 -0.2406  0.1710
11374TIP3   OH234082   4.961   4.954   6.209 -0.0492  0.6868 -0.1827
11374TIP3    H134083   4.914   4.990   6.134  1.5571  0.7078 -1.2227
11374TIP3    H234084   4.960   4.859   6.195 -0.1177  0.6602 -0.0013
11375TIP3   OH234085   1.042   5.805   4.993 -0.0965 -0.6607  0.1161
11375TIP3    H134086   1.027   5.753   5.071 -0.3152  0.3293  0.7456
11375TIP3    H234087   1.136   5.824   4.994 -0.2399  0.0309  0.5741
11376TIP3   OH234088   2.040   6.833   0.440 -0.0425 -0.1511  0.1647
11376TIP3    H134089   2.061   6.839   0.533 -0.8416  0.5433  0.3030
11376TIP3    H234090   1.961   6.779   0.436  0.2561 -0.5672 -0.1467
11377TIP3   OH234091   6.099   4.787   6.120  0.4300 -0.4591  0.0257
11377TIP3    H134092   6.021   4.794   6.064  0.8230 -0.4295 -0.5211
11377TIP3    H234093   6.122   4.694   6.117  0.4314 -0.4623  0.1580
11378TIP3   OH234094   3.719   2.332   1.054  0.1276 -0.1014 -0.4057
11378TIP3    H134095   3.779   2.308   1.125  1.4190  0.3470 -1.3238
11378TIP3    H234096   3.655   2.389   1.096  0.6667 -0.1324  0.4803
11379TIP3   OH234097   4.635   0.091   1.224 -0.2731 -0.1115  0.4627
11379TIP3    H134098   4.569   0.046   1.277  0.2656 -1.2783  0.1531
11379TIP3    H234099   4.606   0.182   1.222 -0.5798 -0.1469  2.3406
11380TIP3   OH234100   3.259   1.152   2.047 -0.1183  0.1941  0.3602
11380TIP3    H134101   3.226   1.100   2.121 -0.7749  1.3571  0.8954
11380TIP3    H234102   3.266   1.241   2.081  0.1963  0.6221 -0.7949
11381TIP3   OH234103   2.131   6.986   1.036 -0.0878 -0.4379 -0.0517
11381TIP3    H134104   2.182   6.987   0.956 -0.3943 -0.2222 -0.2459
11381TIP3    H234105   2.165   6.911   1.085 -0.9637 -1.5270 -1.0837
11382TIP3   OH234106   7.752   2.386   1.115 -0.5329  0.1780 -0.5559
11382TIP3    H134107   7.788   2.474   1.102 -0.1512 -0.2638 -2.7491
11382TIP3    H234108   7.789   2.357   1.198 -0.7485  2.1179  0.2527
11383TIP3   OH234109   4.883   0.456   5.914 -0.2474 -0.6084  0.6426
11383TIP3    H134110   4.813   0.506   5.872  0.7278 -0.9730 -1.4983
11383TIP3    H234111   4.837   0.391   5.968 -1.5537 -0.5117 -0.3237
11384TIP3   OH234112   7.407   1.376   2.145 -0.0210  0.5667  0.0045
11384TIP3    H134113   7.459   1.298   2.128  0.8972  0.8641  1.3823
11384TIP3    H234114   7.316   1.346   2.142  0.2736 -0.2957 -0.6862
11385TIP3   OH234115   7.718   4.115   0.991 -0.1131  0.1762  0.0229
11385TIP3    H134116   7.756   4.041   1.038  0.9277  0.2835 -0.6357
11385TIP3    H234117   7.625   4.109   1.009  0.0591 -0.8253  0.6391
11386TIP3   OH234118   6.877   4.697   0.350 -0.4024  0.2775  0.1316
11386TIP3    H134119   6.953   4.639   0.355 -1.3923 -1.1917 -1.4832
11386TIP3    H234120   6.914   4.785   0.353  1.2944 -0.4304  0.3951
11387TIP3   OH234121   0.604   1.278   1.698 -0.6777  0.4591 -0.2922
11387TIP3    H134122   0.514   1.312   1.704 -0.7890 -0.0402  1.0091
11387TIP3    H234123   0.597   1.188   1.729  0.2276  0.3297 -0.4649
11388TIP3   OH234124   1.093   3.906   1.385  0.0869 -0.3648  0.1650
11388TIP3    H134125   1.090   3.918   1.480 -0.6109 -2.6471  0.4581
11388TIP3    H234126   1.111   3.813   1.373 -1.0748 -0.3540 -1.9286
11389TIP3   OH234127   1.154   1.431   1.446  0.5430 -0.4544  0.0885
11389TIP3    H134128   1.091   1.500   1.469 -0.3417 -0.9517 -0.7896
11389TIP3    H234129   1.143   1.419   1.352  1.0130 -1.4831  0.1604
11390TIP3   OH234130   1.478   2.406   0.746 -0.2152 -0.0193 -0.5682
11390TIP3    H134131   1.401   2.407   0.689 -1.9682 -0.8420  1.6980
11390TIP3    H234132   1.525   2.326   0.723 -0.5147  0.0288 -1.3465
11391TIP3   OH234133   7.782   3.617   1.825  0.3898 -0.2564  0.4242
11391TIP3    H134134   7.721   3.584   1.891 -0.8145  0.9207 -0.1077
11391TIP3    H234135   7.735   3.611   1.743  1.6280 -1.0039 -0.2524
11392TIP3   OH234136   1.399   3.553   1.007 -0.0695  0.0194  0.2254
11392TIP3    H134137   1.403   3.645   1.034  0.9054 -0.9550  3.6371
11392TIP3    H234138   1.469   3.544   0.942  0.1383  1.5738  0.2204
11393TIP3   OH234139   0.290   5.187   0.589  0.5466  0.3862  0.6817
11393TIP3    H134140   0.261   5.097   0.571  1.3295 -0.1973  2.3135
11393TIP3    H234141   0.259   5.237   0.513  1.2383 -1.4908 -0.8965
11394TIP3   OH234142   7.336   3.192   0.562 -0.3285 -0.2708  0.2927
11394TIP3    H134143   7.417   3.239   0.583 -0.3335  0.4974 -1.3577
11394TIP3    H234144   7.354   3.101   0.584  1.1424 -0.1780 -0.5195
11395TIP3   OH234145   0.243   2.194   0.348 -0.0312 -0.1566 -0.0083
11395TIP3    H134146   0.227   2.169   0.439 -0.9565 -2.1871 -0.6852
11395TIP3    H234147   0.335   2.219   0.345  0.5243 -1.9575  1.1013
11396TIP3   OH234148   0.571   4.081   1.600  0.0384 -0.2269  0.0947
11396TIP3    H134149   0.643   4.038   1.647 -0.6356 -1.3022  0.1549
11396TIP3    H234150   0.555   4.025   1.525 -0.1630  0.4838 -0.3956
11397TIP3   OH234151   7.160   2.946   0.997  0.0660 -0.4592  0.5174
11397TIP3    H134152   7.160   2.875   0.932 -1.5215 -0.6599  0.7055
11397TIP3    H234153   7.250   2.949   1.029  0.4572 -1.5336 -0.4279
11398TIP3   OH234154   0.248   4.521   1.050 -0.1688  0.4608 -0.3616
11398TIP3    H134155   0.297   4.545   0.971  1.5283  0.1492  0.5682
11398TIP3    H234156   0.260   4.426   1.058  0.4049  0.6185  0.7394
11399TIP3   OH234157   4.498   0.535   6.300 -0.2618  0.4083  0.2129
11399TIP3    H134158   4.490   0.533   6.395  0.6979  1.6976  0.3326
11399TIP3    H234159   4.582   0.493   6.282 -0.3357  0.3738 -0.0485
11400TIP3   OH234160   0.600   4.761   0.351 -0.1761  0.3899  0.2045
11400TIP3    H134161   0.605   4.722   0.438  0.9085  0.0562  0.0135
11400TIP3    H234162   0.668   4.715   0.301 -2.7985 -1.5920 -1.6829
11401TIP3   OH234163   1.960   6.333   6.210  0.0340  0.1195 -0.2818
11401TIP3    H134164   1.996   6.421   6.215  0.8995 -0.1659 -1.4674
11401TIP3    H234165   2.030   6.276   6.242 -0.1300 -0.2464 -0.5728
11402TIP3   OH234166   6.429   1.743   1.227  0.3670  0.0748  0.0143
11402TIP3    H134167   6.396   1.664   1.270 -1.4343  1.1990  0.7291
11402TIP3    H234168   6.387   1.743   1.142 -0.5619  0.8803  0.4690
11403TIP3   OH234169   0.429   4.295   1.078  0.3645  0.1800 -0.3447
11403TIP3    H134170   0.476   4.347   1.013 -0.9837  0.7682 -0.8704
11403TIP3    H234171   0.497   4.246   1.124  1.3409 -0.2131 -2.1674
11404TIP3   OH234172   0.276   4.608   0.279 -0.0378 -0.5074 -0.0694
11404TIP3    H134173   0.238   4.621   0.192  0.4947 -2.9131 -0.6787
11404TIP3    H234174   0.357   4.660   0.277  0.0213 -0.6210 -1.0290
11405TIP3   OH234175   0.539   1.922   0.589 -0.1617 -0.9202 -0.1616
11405TIP3    H134176   0.570   1.877   0.667  0.2465  0.6821  0.6098
11405TIP3    H234177   0.514   2.009   0.619 -1.1585 -0.6870 -1.5967
11406TIP3   OH234178   0.258   4.041   1.712  0.0891  0.0802 -0.2709
11406TIP3    H134179   0.351   4.061   1.701  0.4273 -0.1145  1.9392
11406TIP3    H234180   0.256   3.950   1.740 -0.7330  0.2015  0.0847
11407TIP3   OH234181   7.120   3.599   0.319  0.5818 -0.0581  0.0045
11407TIP3    H134182   7.034   3.629   0.288  0.3232 -0.2101  0.5700
11407TIP3    H234183   7.122   3.624   0.411  0.7093 -1.0084  0.2646
11408TIP3   OH234184   7.767   5.387   0.703 -0.1443 -0.1015 -0.1586
11408TIP3    H134185   7.718   5.419   0.779  1.7990 -2.1474  2.0338
11408TIP3    H234186   7.839   5.449   0.695  1.1482 -1.3570  1.3725
11409TIP3   OH234187   0.494   4.622   1.446 -0.4463  0.0530  0.8213
11409TIP3    H134188   0.415   4.634   1.393  0.0818  0.0600  0.0173
11409TIP3    H234189   0.490   4.692   1.511 -0.6510  0.6134  0.2174
11410TIP3   OH234190   0.852   4.433   2.391 -0.1810  0.0265 -0.7574
11410TIP3    H134191   0.790   4.497   2.426  0.0534 -0.1197 -0.0719
11410TIP3    H234192   0.911   4.485   2.337 -0.1763  0.3433 -0.4522
11411TIP3   OH234193   7.121   0.599   1.718  0.2129 -0.0305 -0.4231
11411TIP3    H134194   7.179   0.537   1.761  0.5844  0.5943 -0.0164
11411TIP3    H234195   7.033   0.566   1.737  0.4556 -1.6432 -2.0596
11412TIP3   OH234196   6.282   2.721   2.156  0.4285 -0.7292 -0.0362
11412TIP3    H134197   6.293   2.733   2.062 -0.2104 -0.1855 -0.0473
11412TIP3    H234198   6.281   2.626   2.168  1.2247 -0.7944 -0.4856
11413TIP3   OH234199   7.502   3.561   0.921 -0.7349  0.2913  0.4646
11413TIP3    H134200   7.458   3.476   0.926  0.7972 -0.4540  1.7337
11413TIP3    H234201   7.554   3.566   1.001  2.0274  0.8177 -1.2867
11414TIP3   OH234202   7.303   4.673  -0.009 -0.5124 -0.2586  0.2109
11414TIP3    H134203   7.296   4.717   0.075  0.9402 -0.9329  0.7053
11414TIP3    H234204   7.356   4.595   0.009 -0.4370 -0.5620 -1.2631
11415TIP3   OH234205   4.108   1.891   5.142 -0.2016 -0.1241 -0.2797
11415TIP3    H134206   4.102   1.799   5.168  1.0743  0.0581  0.7195
11415TIP3    H234207   4.132   1.888   5.049  1.1114 -0.8161  0.0678
11416TIP3   OH234208   3.589   2.815   0.097  0.1588  0.3380  0.9411
11416TIP3    H134209   3.554   2.893   0.054 -0.1280 -0.2835  0.0486
11416TIP3    H234210   3.669   2.795   0.049  0.0966 -0.0644  1.0005
11417TIP3   OH234211   2.182   3.524   6.044  0.6036  0.1627  0.0057
11417TIP3    H134212   2.250   3.590   6.034  0.9212  0.0662  1.3489
11417TIP3    H234213   2.109   3.571   6.083  1.4939 -0.6203  2.7468
11418TIP3   OH234214   6.569   0.205   5.209  0.0473 -0.0907  0.4807
11418TIP3    H134215   6.491   0.236   5.255 -0.9040 -0.4353 -0.8952
11418TIP3    H234216   6.587   0.273   5.143 -0.7453 -1.3698 -1.0693
11419TIP3   OH234217   5.325   0.084   5.722 -0.2192  0.4322  0.2363
11419TIP3    H134218   5.262   0.094   5.794 -0.6068 -0.6758  0.0589
11419TIP3    H234219   5.334   0.172   5.687  1.6108  1.4064  2.9934
11420TIP3   OH234220   2.551   0.196   1.040 -0.1952 -0.2378  0.2116
11420TIP3    H134221   2.515   0.110   1.061 -1.4009  0.5541  1.4325
11420TIP3    H234222   2.638   0.177   1.004 -0.7413 -2.0038 -0.2508
11421TIP3   OH234223   0.879   2.643   0.603  0.2118  0.4781 -0.3292
11421TIP3    H134224   0.872   2.636   0.508  1.1218  1.0424 -0.4403
11421TIP3    H234225   0.947   2.708   0.618  0.2448  0.2198  0.7126
11422TIP3   OH234226   4.176   1.543   5.480 -0.3582  0.4454  0.2519
11422TIP3    H134227   4.259   1.576   5.512 -0.0863  0.1960 -0.1850
11422TIP3    H234228   4.137   1.617   5.433 -0.5875  0.6953  0.8282
11423TIP3   OH234229   7.462   1.019   0.535 -0.1445 -0.0835  0.4852
11423TIP3    H134230   7.387   0.979   0.579 -0.1883 -1.0373 -0.4443
11423TIP3    H234231   7.500   0.949   0.483  0.7197  0.6855  0.0584
11424TIP3   OH234232   5.951   3.450   5.931  0.5552  0.1960 -0.1765
11424TIP3    H134233   5.861   3.481   5.932 -0.0824 -1.6365  0.0696
11424TIP3    H234234   5.983   3.464   6.020  0.4422  0.6164 -0.2018
11425TIP3   OH234235   2.094   5.045   1.047 -0.1508 -0.1705  0.0096
11425TIP3    H134236   2.132   4.997   1.121 -1.2879 -0.1670  0.6098
11425TIP3    H234237   2.079   4.978   0.980  1.0254 -0.1481 -0.2897
11426TIP3   OH234238   0.340   1.368   1.643  0.2942 -0.5774  0.0576
11426TIP3    H134239   0.303   1.306   1.580  1.5933 -1.2664 -0.0491
11426TIP3    H234240   0.293   1.450   1.626  0.8499 -0.6491 -2.0552
11427TIP3   OH234241   0.311   1.510   0.814  0.0779 -0.4947 -0.1650
11427TIP3    H134242   0.248   1.580   0.800  0.2428 -0.7430 -2.3107
11427TIP3    H234243   0.346   1.491   0.727  0.5495 -2.7380  0.4626
11428TIP3   OH234244   0.704   2.403   1.565  0.1957  0.2739  0.2032
11428TIP3    H134245   0.728   2.466   1.634  3.4994 -0.4700 -0.2123
11428TIP3    H234246   0.694   2.320   1.610  2.1560 -0.1716 -0.1447
11429TIP3   OH234247   1.627   2.985   2.259  0.4063 -0.1236 -0.6846
11429TIP3    H134248   1.670   3.052   2.206  0.8292  1.1396  1.1592
11429TIP3    H234249   1.544   3.025   2.286  0.8433 -0.1704  0.7688
11430TIP3   OH234250   7.486   2.453   2.595 -0.7483  0.1035  0.8206
11430TIP3    H134251   7.543   2.529   2.583 -1.9040  0.8577 -0.0222
11430TIP3    H234252   7.545   2.378   2.586  0.4359  0.8956  1.8447
11431TIP3   OH234253   7.000   3.431   1.714 -0.1074  0.6921 -0.0739
11431TIP3    H134254   6.951   3.369   1.660 -0.0611 -0.1771  0.8643
11431TIP3    H234255   7.087   3.391   1.723 -0.4080  0.3443  1.4234
11432TIP3   OH234256   0.111   3.933   0.186  0.4907  0.1606 -0.5065
11432TIP3    H134257   0.026   3.949   0.227  0.3140 -0.5349 -0.5948
11432TIP3    H234258   0.102   3.968   0.098  0.1693 -0.2577 -0.6389
11433TIP3   OH234259   0.543   1.550   1.326 -0.2416 -0.2284 -0.6665
11433TIP3    H134260   0.591   1.573   1.405 -0.2101 -0.4439 -0.6229
11433TIP3    H234261   0.457   1.523   1.358 -0.2826 -0.1586 -0.7186
11434TIP3   OH234262   6.400   6.349   2.120 -0.5219  0.0178  0.3389
11434TIP3    H134263   6.385   6.370   2.028 -0.8327  1.9246  0.8097
11434TIP3    H234264   6.492   6.322   2.124  0.3540  2.7453 -0.0740
11435TIP3   OH234265   3.593   2.780   2.028  0.8113 -0.0106  0.0812
11435TIP3    H134266   3.597   2.822   1.942  0.3176 -0.3880 -0.1280
11435TIP3    H234267   3.507   2.739   2.030  0.5591  0.5694  1.0290
11436TIP3   OH234268   0.998   1.664   1.477 -0.6482 -1.1287  0.0261
11436TIP3    H134269   0.927   1.695   1.421  0.4571  0.9760 -0.2727
11436TIP3    H234270   1.051   1.742   1.494  0.4409 -2.2319  1.9395
11437TIP3   OH234271   7.795   3.116   0.972  0.2008  0.6552  0.0326
11437TIP3    H134272   7.741   3.142   0.898  0.1917 -0.0995 -0.2339
11437TIP3    H234273   7.861   3.058   0.934 -0.9506 -1.2883  0.8911
11438TIP3   OH234274   5.793   7.278   6.103 -0.2454  0.5701 -0.4342
11438TIP3    H134275   5.799   7.182   6.101  0.5447  0.6509 -2.3400
11438TIP3    H234276   5.790   7.299   6.197  1.1923 -1.2214  0.0496
11439TIP3   OH234277   1.944   4.359   1.638  0.0827 -0.2892  0.4942
11439TIP3    H134278   1.922   4.452   1.639 -0.2548 -0.3487 -0.4729
11439TIP3    H234279   1.970   4.341   1.547 -0.0614 -1.1806  0.6181
11440TIP3   OH234280   3.210   2.968   0.098  0.1007 -0.1874 -0.6994
11440TIP3    H134281   3.130   2.916   0.092 -0.1840 -0.6203  4.2499
11440TIP3    H234282   3.280   2.904   0.101  0.3087  0.0169 -1.1668
11441TIP3   OH234283   1.661   3.315   0.686  0.0502  0.2483  0.0890
11441TIP3    H134284   1.596   3.264   0.735  1.9249 -0.1150  2.2606
11441TIP3    H234285   1.642   3.406   0.709 -1.0820  0.3113 -1.0422
11442TIP3   OH234286   5.432   5.238   5.946  0.1960 -0.4463 -0.1296
11442TIP3    H134287   5.449   5.264   5.856  0.8166 -0.6659 -0.0804
11442TIP3    H234288   5.471   5.308   5.999 -0.4768 -0.1365 -0.0284
11443TIP3   OH234289   3.418   5.820   6.287  0.1820  0.4942  0.0364
11443TIP3    H134290   3.467   5.848   6.365 -0.0123  1.2864 -0.1296
11443TIP3    H234291   3.384   5.734   6.311 -0.8131  1.2114  1.2517
11444TIP3   OH234292   5.166   6.186   6.245 -0.4144  0.0801 -0.6089
11444TIP3    H134293   5.160   6.151   6.156 -0.1973  0.9347 -0.9707
11444TIP3    H234294   5.127   6.273   6.239 -2.2922 -0.6573  0.6091
11445TIP3   OH234295   0.670   3.800   1.944  0.0720  0.1707 -0.3253
11445TIP3    H134296   0.668   3.895   1.935 -1.1179  0.1704 -0.0995
11445TIP3    H234297   0.579   3.772   1.927  0.5828 -0.9937 -1.2632
11446TIP3   OH234298   0.986   1.850   0.977  0.1124  0.0626 -0.3208
11446TIP3    H134299   1.034   1.827   0.898 -0.6610  1.8512 -1.3326
11446TIP3    H234300   0.910   1.792   0.976  1.9170 -2.4792  1.0615
11447TIP3   OH234301   0.785   1.684   2.002 -0.2030 -0.0574  0.2060
11447TIP3    H134302   0.827   1.761   1.964  0.1933 -1.1242 -1.5974
11447TIP3    H234303   0.714   1.663   1.941  0.9810 -2.3136 -0.4830
11448TIP3   OH234304   6.425   2.984   5.278  0.4436 -0.3999  0.0892
11448TIP3    H134305   6.415   2.921   5.350  1.8103 -0.2397  0.4346
11448TIP3    H234306   6.516   3.012   5.283 -0.2702  1.9908  0.2232
11449TIP3   OH234307   0.949   0.630   5.591 -0.5468 -0.2032  0.2094
11449TIP3    H134308   0.955   0.718   5.628  1.1929 -0.7383  1.2600
11449TIP3    H234309   0.895   0.581   5.653  0.7952 -0.5935  1.0985
11450TIP3   OH234310   3.154   3.986   1.648  0.1071 -0.2167 -0.2862
11450TIP3    H134311   3.067   3.950   1.668  0.5065 -0.8480  0.3663
11450TIP3    H234312   3.192   4.005   1.734  1.0962 -1.1236 -0.5041
11451TIP3   OH234313   3.017   1.754   0.043  0.1229  0.0735 -0.0599
11451TIP3    H134314   2.924   1.776   0.037  0.0118 -0.1613  0.7220
11451TIP3    H234315   3.041   1.773   0.134  0.8256  0.0816 -0.2424
11452TIP3   OH234316   5.015   0.896   3.698 -0.4212  0.0554 -0.1121
11452TIP3    H134317   5.001   0.884   3.604 -1.2475 -1.5247  0.1918
11452TIP3    H234318   5.101   0.858   3.715 -0.0428  0.8118 -0.3071
11453TIP3   OH234319   7.657   3.210   0.275 -0.2273  0.0229  0.3766
11453TIP3    H134320   7.704   3.147   0.329 -0.4955 -0.1831  0.3694
11453TIP3    H234321   7.708   3.291   0.282  0.1692 -0.2199  0.3072
11454TIP3   OH234322   1.249   2.251   1.032 -0.5685  0.5703  0.5862
11454TIP3    H134323   1.164   2.207   1.031  1.5997 -3.8550  1.0645
11454TIP3    H234324   1.280   2.240   1.122  2.2905 -1.5624 -0.6009
11455TIP3   OH234325   0.109   7.212   1.444 -0.4134  0.0247  0.3454
11455TIP3    H134326   0.030   7.169   1.412 -0.0677 -0.8740  0.6918
11455TIP3    H234327   0.179   7.180   1.387 -0.3333  1.0006 -0.1088
11456TIP3   OH234328   7.787   0.237   5.911  0.5953 -0.0406  0.0730
11456TIP3    H134329   7.831   0.319   5.891  2.6428 -1.3240 -0.8370
11456TIP3    H234330   7.724   0.226   5.839  1.3316  0.0304 -0.5904
11457TIP3   OH234331   3.341   1.191   0.428 -0.2515  0.3351  0.6145
11457TIP3    H134332   3.354   1.285   0.442  3.2182  0.0564 -0.2971
11457TIP3    H234333   3.319   1.183   0.335  0.4201  0.1435  0.4754
11458TIP3   OH234334   1.533   3.241   4.660 -0.3275 -0.0166 -0.3955
11458TIP3    H134335   1.518   3.317   4.716  2.9605  0.4935 -0.1177
11458TIP3    H234336   1.592   3.273   4.591  1.7024 -2.4589  0.1376
11459TIP3   OH234337   0.235   3.199   0.481 -0.1452 -0.0572 -0.3642
11459TIP3    H134338   0.217   3.282   0.436  0.7230  0.1698 -0.3046
11459TIP3    H234339   0.330   3.193   0.483 -0.0306  1.5694  4.3435
11460TIP3   OH234340   3.114   4.253   1.486 -0.2728 -0.3639  0.3741
11460TIP3    H134341   3.048   4.295   1.541 -1.8326 -0.8371 -1.0896
11460TIP3    H234342   3.137   4.173   1.533 -1.2767 -0.5513  0.5659
11461TIP3   OH234343   7.269   4.206   6.085 -0.1653  0.6894  0.0515
11461TIP3    H134344   7.298   4.285   6.130  0.2824  0.8037 -0.4359
11461TIP3    H234345   7.287   4.223   5.992 -2.2339  0.9663 -0.3292
11462TIP3   OH234346   4.918   5.423   5.878 -0.0341  0.3629 -0.5305
11462TIP3    H134347   4.915   5.356   5.809  0.7289  1.3682 -1.5739
11462TIP3    H234348   4.827   5.442   5.897 -0.3035  1.9852 -3.1924
11463TIP3   OH234349   0.351   2.523   2.512 -0.1300 -0.7599  0.4621
11463TIP3    H134350   0.379   2.444   2.558  0.3811 -0.1272  1.2606
11463TIP3    H234351   0.384   2.595   2.566  1.7591  0.0283 -1.6680
11464TIP3   OH234352   4.541   3.331   0.774 -0.0852  0.2580  0.3976
11464TIP3    H134353   4.487   3.255   0.756  0.3687  0.2078 -0.8121
11464TIP3    H234354   4.532   3.346   0.868 -0.2014 -1.2632  0.6347
11465TIP3   OH234355   1.580   2.637   1.989 -0.2277  0.0031  0.8131
11465TIP3    H134356   1.567   2.710   1.929 -0.6568  0.8545  1.9300
11465TIP3    H234357   1.657   2.591   1.955  0.0946  1.0229  0.1643
11466TIP3   OH234358   4.671   6.736   6.208 -0.6676 -0.7976  0.0362
11466TIP3    H134359   4.601   6.674   6.187  0.1638 -1.3924 -1.0427
11466TIP3    H234360   4.739   6.683   6.248 -0.3276 -0.4316 -0.0531
11467TIP3   OH234361   1.649   4.118   3.572  0.0783  0.0409  0.2509
11467TIP3    H134362   1.697   4.129   3.490  0.5257 -0.0256  0.5017
11467TIP3    H234363   1.607   4.203   3.586  1.1597  0.5175  0.6823
11468TIP3   OH234364   7.078   0.518   6.343 -0.0980 -0.3763 -0.0866
11468TIP3    H134365   7.100   0.561   6.260 -3.4284 -1.4725 -1.6133
11468TIP3    H234366   7.096   0.426   6.328 -1.2148 -0.6504  0.1842
11469TIP3   OH234367   7.504   1.965   1.188  0.0543  0.5100  0.1999
11469TIP3    H134368   7.585   1.993   1.145  0.0790 -0.3901 -0.3623
11469TIP3    H234369   7.508   2.004   1.275  0.1372  2.1403 -0.5111
11470TIP3   OH234370   0.716   3.314   0.660 -0.3177 -0.1109  0.7181
11470TIP3    H134371   0.752   3.402   0.654 -0.2102 -0.3277 -2.5026
11470TIP3    H234372   0.782   3.264   0.709  1.2698  0.7480 -0.5082
11471TIP3   OH234373   2.379   1.129   0.608 -0.0404 -0.6112  0.0752
11471TIP3    H134374   2.294   1.171   0.619  0.0620 -0.2338 -0.5007
11471TIP3    H234375   2.360   1.046   0.564 -0.2982 -1.4280  1.7137
11472TIP3   OH234376   1.660   3.043   0.133 -0.0597 -0.2880 -0.5167
11472TIP3    H134377   1.677   3.033   0.039  0.5175 -0.7958 -0.3596
11472TIP3    H234378   1.588   3.106   0.138  0.7587  0.7209 -1.2515
11473TIP3   OH234379   6.442   7.071   4.723  0.0831 -0.6351 -0.0447
11473TIP3    H134380   6.369   7.088   4.664  1.2123  2.1892 -0.7028
11473TIP3    H234381   6.480   6.988   4.692 -1.5726 -1.0573 -0.9691
11474TIP3   OH234382   5.245   2.024   6.204  0.4095 -0.2128 -0.7166
11474TIP3    H134383   5.227   1.951   6.263 -0.3275  0.3086 -0.2875
11474TIP3    H234384   5.301   1.987   6.136  1.3759 -0.8013  0.3698
   7.80000   7.35391   6.36867   0.00000   0.00000  -2.60000   0.00000  -2.60000  -3.67696
