Title
19927
    1ASP      N    1   6.007   1.145   4.747 -0.9692  0.2995  0.6998
    1ASP    HT1    2   5.952   1.109   4.827 -0.6732 -1.9333 -0.0447
    1ASP    HT2    3   6.086   1.080   4.729 -0.3325  1.4829 -1.0984
    1ASP    HT3    4   5.946   1.135   4.664  1.5952  2.5866 -1.6778
    1ASP     CA    5   6.058   1.287   4.756 -0.3209  1.5412  0.1161
    1ASP     HA    6   6.136   1.285   4.830  1.1153  1.0975 -1.3782
    1ASP     CB    7   6.116   1.328   4.612 -0.1621 -0.0558 -0.7268
    1ASP    HB1    8   6.033   1.329   4.538 -1.7413  2.7582  0.8917
    1ASP    HB2    9   6.195   1.254   4.585 -0.7088 -0.9492  0.0621
    1ASP     CG   10   6.186   1.461   4.626 -0.4116  0.2917  0.1465
    1ASP    OD1   11   6.193   1.536   4.529 -0.1131 -0.6871  0.2123
    1ASP    OD2   12   6.242   1.499   4.729 -0.0999  0.5368  0.0227
    1ASP      C   13   5.944   1.373   4.809  0.5266  0.3302 -0.4138
    1ASP      O   14   5.840   1.315   4.851 -0.1736  0.2019 -0.0248
    2ALA      N   15   5.947   1.507   4.817 -0.3507 -0.8769 -0.2532
    2ALA     HN   16   6.032   1.550   4.786 -1.2512  0.6062 -0.7709
    2ALA     CA   17   5.842   1.589   4.866  0.8952  0.1654 -0.5134
    2ALA     HA   18   5.799   1.543   4.954  0.2380  0.7703 -0.5144
    2ALA     CB   19   5.893   1.728   4.901  0.5590  0.7281  0.4682
    2ALA    HB1   20   5.985   1.711   4.960  0.5616 -0.4874  0.1192
    2ALA    HB2   21   5.831   1.801   4.958  0.9486  1.1696  0.3358
    2ALA    HB3   22   5.924   1.770   4.803  0.6317 -0.2379  0.0699
    2ALA      C   23   5.725   1.590   4.767  0.2427 -0.2412  0.3878
    2ALA      O   24   5.736   1.609   4.647 -0.2733 -0.1699 -0.4272
    3ASP      N   25   5.604   1.557   4.821  0.0643  0.3880  0.7639
    3ASP     HN   26   5.593   1.568   4.919 -0.2901  1.2227  0.6437
    3ASP     CA   27   5.489   1.530   4.742 -0.8070 -0.0107  0.2075
    3ASP     HA   28   5.493   1.591   4.653 -1.4343  0.4782  0.5026
    3ASP     CB   29   5.480   1.375   4.717  0.1671  0.6330 -0.0422
    3ASP    HB1   30   5.443   1.314   4.802  1.9538 -1.1532 -0.4845
    3ASP    HB2   31   5.583   1.339   4.696  0.7713  2.1256  0.2861
    3ASP     CG   32   5.397   1.337   4.591 -0.0662 -0.4705 -0.6694
    3ASP    OD1   33   5.383   1.214   4.565 -0.4777  0.8026 -0.6155
    3ASP    OD2   34   5.334   1.421   4.527 -0.3714  0.2131 -0.3856
    3ASP      C   35   5.368   1.577   4.813  0.3730  0.1377 -0.5270
    3ASP      O   36   5.368   1.571   4.934  0.2760  0.0008 -0.4179
    4GLY      N   37   5.261   1.620   4.744 -0.2523  0.3790  0.5996
    4GLY     HN   38   5.257   1.604   4.645 -1.0342  1.3722  0.4564
    4GLY     CA   39   5.130   1.669   4.798  0.1668  0.5411  0.0587
    4GLY    HA1   40   5.087   1.593   4.860  2.2039  0.0663  0.9643
    4GLY    HA2   41   5.070   1.698   4.712  0.1652 -1.4528 -0.6643
    4GLY      C   42   5.133   1.792   4.887  0.5528  0.2515 -0.4868
    4GLY      O   43   5.224   1.871   4.866  0.0880 -0.0616  0.1990
    5PRO      N   44   5.039   1.816   4.975  0.1774  0.0322 -0.4944
    5PRO     CD   45   4.912   1.745   4.988  0.2641 -0.5347  0.8082
    5PRO    HD1   46   4.927   1.638   5.015  2.3413 -0.4989 -0.0291
    5PRO    HD2   47   4.863   1.740   4.889  3.2787  2.2288 -1.0265
    5PRO     CA   48   5.039   1.931   5.065 -0.3622 -0.2481 -0.1972
    5PRO     HA   49   5.014   2.018   5.006 -0.7966 -0.5822 -0.5152
    5PRO     CB   50   4.926   1.888   5.168  0.8869  0.0793  0.4701
    5PRO    HB1   51   4.894   1.981   5.219  2.5600 -0.5275  2.7950
    5PRO    HB2   52   4.971   1.822   5.245 -1.1950 -0.6383  1.1491
    5PRO     CG   53   4.816   1.819   5.089 -1.6068  0.4328  0.3320
    5PRO    HG1   54   4.753   1.748   5.146 -2.5554  1.0051  0.0085
    5PRO    HG2   55   4.759   1.889   5.024  1.7932 -0.1239 -3.7092
    5PRO      C   56   5.174   1.973   5.138 -0.6825  0.5639  0.0184
    5PRO      O   57   5.233   1.879   5.192 -0.1491  0.4674 -0.0855
    6GLY      N   58   5.215   2.097   5.133 -0.1560  0.0933  0.2148
    6GLY     HN   59   5.153   2.155   5.081 -0.0663  1.5177  1.6161
    6GLY     CA   60   5.328   2.166   5.189 -0.1633  0.0459  0.0254
    6GLY    HA1   61   5.316   2.272   5.169  0.8329 -0.1056 -1.4742
    6GLY    HA2   62   5.411   2.117   5.142 -0.5202 -0.8131  0.2724
    6GLY      C   63   5.349   2.146   5.341  0.3639  0.3087 -0.5187
    6GLY      O   64   5.251   2.126   5.416 -0.8265 -1.0325  0.1487
    7ASP      N   65   5.474   2.143   5.393 -0.1456  0.6235 -0.5436
    7ASP     HN   66   5.548   2.166   5.330  0.5818 -0.1360  0.0141
    7ASP     CA   67   5.508   2.099   5.528  0.5813  0.6187  0.6440
    7ASP     HA   68   5.467   2.000   5.541  1.1666  0.2176 -0.4454
    7ASP     CB   69   5.660   2.088   5.536  0.4748 -0.0365  0.0586
    7ASP    HB1   70   5.693   2.045   5.632 -0.5819 -1.3791 -0.1456
    7ASP    HB2   71   5.703   2.190   5.530 -1.1348  0.7792  1.4786
    7ASP     CG   72   5.714   1.995   5.432  0.0927 -0.3915 -0.2762
    7ASP    OD1   73   5.652   1.891   5.404  0.1575  0.4729 -0.3465
    7ASP    OD2   74   5.825   2.022   5.385 -0.7388  0.3302  0.3265
    7ASP      C   75   5.456   2.204   5.628  0.2636  0.3778  0.0734
    7ASP      O   76   5.449   2.326   5.593  0.0647 -0.2894  0.0479
    8PRO      N   77   5.408   2.170   5.750  1.0120 -0.1662 -0.2550
    8PRO     CD   78   5.412   2.034   5.809 -0.3180  0.2555 -0.0858
    8PRO    HD1   79   5.515   1.992   5.818  1.2256  3.5509 -0.8355
    8PRO    HD2   80   5.364   1.959   5.744  1.4750  0.9179 -2.3051
    8PRO     CA   81   5.357   2.265   5.855  0.3731  0.3097 -0.0621
    8PRO     HA   82   5.253   2.279   5.828 -0.1559 -3.3566 -0.4956
    8PRO     CB   83   5.354   2.184   5.987  0.5868 -0.1663  0.3357
    8PRO    HB1   84   5.259   2.213   6.039  0.2016 -0.1614 -0.3620
    8PRO    HB2   85   5.437   2.212   6.056 -0.3907  0.4964  1.2822
    8PRO     CG   86   5.338   2.038   5.945  0.2446 -0.3762  0.0840
    8PRO    HG1   87   5.387   1.971   6.018  2.1626 -1.0373 -1.7220
    8PRO    HG2   88   5.233   2.009   5.925  0.5188 -0.6713 -1.0382
    8PRO      C   89   5.435   2.393   5.868  0.9196 -0.0670  0.0001
    8PRO      O   90   5.554   2.391   5.878 -0.6728 -0.0862  0.0040
    9ASP      N   91   5.362   2.510   5.867 -0.4393  0.0934 -0.3143
    9ASP     HN   92   5.263   2.520   5.867 -0.3812  0.7957 -1.3283
    9ASP     CA   93   5.425   2.640   5.871  0.0492 -0.2275  1.0510
    9ASP     HA   94   5.512   2.648   5.808 -0.4116 -1.1503  0.2731
    9ASP     CB   95   5.325   2.750   5.833 -0.9240 -0.4104  0.4157
    9ASP    HB1   96   5.368   2.852   5.841 -0.1120 -0.5812 -1.1965
    9ASP    HB2   97   5.241   2.749   5.906  0.9159  0.5400  2.6812
    9ASP     CG   98   5.266   2.732   5.696  0.3051  0.4469  0.3654
    9ASP    OD1   99   5.178   2.815   5.656  0.2802  0.0063  0.2488
    9ASP    OD2  100   5.321   2.652   5.616  0.2809 -0.0695 -0.0432
    9ASP      C  101   5.479   2.659   6.012  0.7905  0.5677  0.5355
    9ASP      O  102   5.449   2.596   6.114  0.2504 -0.5964  0.2775
   10ALA      N  103   5.567   2.756   6.022 -0.1027 -0.6158  0.1603
   10ALA     HN  104   5.602   2.797   5.938  3.0885  0.2425  1.7255
   10ALA     CA  105   5.629   2.807   6.145  0.8223  0.2512 -0.3383
   10ALA     HA  106   5.616   2.726   6.215 -0.0079  0.3085 -0.4206
   10ALA     CB  107   5.775   2.842   6.119 -0.2687 -0.0816  0.5241
   10ALA    HB1  108   5.829   2.872   6.212  1.3810  2.2469 -1.0468
   10ALA    HB2  109   5.784   2.919   6.039 -2.5588  0.7853  1.0162
   10ALA    HB3  110   5.826   2.757   6.069 -0.9880  0.6389 -1.5083
   10ALA      C  111   5.549   2.927   6.192  0.4490 -0.3028 -0.4859
   10ALA      O  112   5.512   3.011   6.113 -0.0433 -0.1909  0.4540
   11GLY      N  113   5.516   2.935   6.323 -0.1916  0.2282  0.2316
   11GLY     HN  114   5.566   2.875   6.386 -0.1914 -0.5680 -0.5084
   11GLY     CA  115   5.453   3.049   6.379  0.6504  0.3148  0.0192
   11GLY    HA1  116   5.349   3.059   6.352  0.4275  0.1184  0.7704
   11GLY    HA2  117   5.512   3.134   6.347 -0.4031  0.3517 -1.9893
   11GLY      C  118   5.467   3.054   6.527 -0.1560 -0.2363 -0.0773
   11GLY    OT1  119   5.576   3.010   6.574  0.3538 -0.2507 -0.0074
   11GLY    OT2  120   5.377   3.108   6.597 -0.1642 -0.1467  0.3851
   12SOD    SOD  121   0.302   1.628   4.758 -0.0411  0.2124 -0.0034
   13SOD    SOD  122   5.104   2.610   3.578 -0.0494 -0.1652  0.0309
   14SOD    SOD  123   0.865   0.080   2.512  0.0923  0.1228  0.2005
   15SOD    SOD  124   3.301   1.511   0.084  0.2879  0.6130 -0.2590
   16SOD    SOD  125   6.140   2.382   2.366 -0.5911 -0.2378 -0.1200
   17SOD    SOD  126   4.026   5.689   1.940  0.0600 -0.2538  0.2709
   18SOD    SOD  127   0.427   2.439   0.498  0.4998  0.2992  0.3039
   19SOD    SOD  128   4.739   0.148   0.681 -0.2308 -0.1904  0.1569
   20SOD    SOD  129   2.703   3.482   0.768 -0.0775 -0.0800  0.2167
   21SOD    SOD  130   1.348   0.739   1.007 -0.1143 -0.3088 -0.4046
   22SOD    SOD  131   2.778   4.729   3.135 -0.4875 -0.2301 -0.0887
   23SOD    SOD  132   4.104   5.887   1.240  0.0988  0.1557 -0.1347
   24SOD    SOD  133   6.082   0.163   3.195  0.0127  0.0240  0.7099
   25SOD    SOD  134   3.404   0.106   1.603  0.8939  0.0534 -0.0663
   26SOD    SOD  135   2.117   0.252   3.252 -0.4951  0.2799 -0.0156
   27SOD    SOD  136   2.696   3.441   3.957  0.1837 -0.3332  0.1070
   28SOD    SOD  137   5.207   4.379   1.900 -0.3280  0.7102  0.0005
   29SOD    SOD  138   0.583   0.873   2.595  0.0341  0.4016 -0.4277
   30SOD    SOD  139   5.242   5.243   2.412  0.1179  0.2334 -0.2076
   31SOD    SOD  140   2.608   3.818   0.259  0.0727  0.3674 -0.5359
   32SOD    SOD  141   4.237   2.520   2.367 -0.4002  0.6370 -0.1009
   33SOD    SOD  142   5.187   5.350   1.011  0.0051 -0.3214 -0.3550
   34CLA    CLA  143   0.572   3.179   4.505  0.0649  0.0791 -0.3072
   35CLA    CLA  144   3.425   2.329   2.994  0.4010 -0.4727  0.1697
   36CLA    CLA  145   5.162   3.823   3.110  0.1557 -0.1977  0.3988
   37CLA    CLA  146   4.267   0.522   4.275 -0.1609  0.0670  0.0788
   38CLA    CLA  147   2.166   2.637   2.139  0.0944 -0.0148  0.2509
   39CLA    CLA  148   6.281   4.430   2.189 -0.0755 -0.3162  0.2636
   40CLA    CLA  149   2.857   0.568   2.175  0.4295  0.1701 -0.0585
   41CLA    CLA  150   4.992   5.202   1.669 -0.1787  0.2562  0.0595
   42CLA    CLA  151   3.515   5.892   1.291 -0.7048 -0.2192 -0.0577
   43CLA    CLA  152   2.455   4.029   0.142 -0.3091  0.0684  0.5049
   44CLA    CLA  153   3.330   5.547   2.810  0.2530 -0.1416 -0.5192
   45CLA    CLA  154   4.871   2.042   0.417 -0.5090 -0.3840 -0.3955
   46CLA    CLA  155   3.478   5.941   3.580 -0.2526 -0.1905  0.2173
   47CLA    CLA  156   1.675   2.120   0.601  0.1035 -0.0372 -0.1867
   48CLA    CLA  157   0.567   2.006   3.459 -0.2927 -0.2805  0.2398
   49CLA    CLA  158   2.836   5.695   0.926 -0.2795 -0.1752  0.1737
   50CLA    CLA  159   4.542   0.374   1.748 -0.1122  0.0684  0.3759
   51CLA    CLA  160   6.209   0.566   4.233  0.3619  0.4462 -0.0524
   52TIP3   OH2  161   5.614   5.148   0.929 -0.1332 -0.1426  0.5427
   52TIP3    H1  162   5.595   5.082   0.996 -0.8276  1.5119  2.0544
   52TIP3    H2  163   5.694   5.191   0.961  1.2343 -1.2086 -1.2321
   53TIP3   OH2  164   1.378   2.400   1.898  0.1237  0.5057  0.2512
   53TIP3    H1  165   1.333   2.484   1.896  1.9269  1.5340  0.8683
   53TIP3    H2  166   1.433   2.400   1.820 -0.6709 -0.6069 -0.3444
   54TIP3   OH2  167   2.190   1.435   4.234 -0.1586 -0.0487  0.4882
   54TIP3    H1  168   2.159   1.372   4.170  0.5634 -0.8505  0.9074
   54TIP3    H2  169   2.250   1.492   4.186 -1.5410  0.9544 -0.1163
   55TIP3   OH2  170   1.107   1.858   3.491  0.6741 -0.2030  0.0997
   55TIP3    H1  171   1.034   1.835   3.434  0.6577 -1.3463  0.5503
   55TIP3    H2  172   1.071   1.922   3.552  0.5482  0.6084 -0.8218
   56TIP3   OH2  173   2.818   1.544   2.761  0.1905  0.0312 -0.1202
   56TIP3    H1  174   2.787   1.629   2.791  0.8070  0.3064 -0.2469
   56TIP3    H2  175   2.838   1.496   2.841  0.5503  0.2755 -0.0614
   57TIP3   OH2  176   2.350   4.503   2.283  0.3231 -0.3578 -0.2338
   57TIP3    H1  177   2.385   4.546   2.361  2.7830 -2.0061 -0.3173
   57TIP3    H2  178   2.317   4.575   2.229  1.2340  1.0986  1.0533
   58TIP3   OH2  179   5.228   0.107   0.776 -0.3052  0.5772 -0.1007
   58TIP3    H1  180   5.261   0.027   0.818 -0.4386  0.0237 -1.0207
   58TIP3    H2  181   5.238   0.175   0.843 -1.0345 -0.3830  1.0315
   59TIP3   OH2  182   3.461   3.323   1.830 -0.5772  0.2009 -0.2169
   59TIP3    H1  183   3.371   3.308   1.800 -0.6798  0.5739 -0.1078
   59TIP3    H2  184   3.514   3.261   1.780 -0.6056  1.4849 -1.9390
   60TIP3   OH2  185   1.242   2.153   4.069 -1.3858  0.5997  0.3171
   60TIP3    H1  186   1.181   2.222   4.041 -0.1105  1.4872 -0.3409
   60TIP3    H2  187   1.251   2.166   4.163 -0.2632  2.1091  0.0351
   61TIP3   OH2  188   1.481   4.118   2.805 -1.0404 -0.3938  0.2496
   61TIP3    H1  189   1.558   4.174   2.813  0.5695 -2.5500  0.7415
   61TIP3    H2  190   1.506   4.054   2.738 -2.3845 -1.1900  0.4860
   62TIP3   OH2  191   6.310   2.869   3.408 -0.2141 -0.1611 -0.7361
   62TIP3    H1  192   6.351   2.880   3.494 -0.2274  0.0619 -0.7584
   62TIP3    H2  193   6.367   2.809   3.362  1.1227  1.5646 -1.4421
   63TIP3   OH2  194   2.029   3.927   3.583  0.3801  0.2359  0.3794
   63TIP3    H1  195   2.083   3.981   3.525  0.5326 -0.4520 -0.1461
   63TIP3    H2  196   1.945   3.920   3.538 -0.8200  2.7740  2.0353
   64TIP3   OH2  197   3.388   2.177   0.960  0.0299 -0.0373  0.5940
   64TIP3    H1  198   3.467   2.178   0.905 -1.1028 -0.6884 -1.1456
   64TIP3    H2  199   3.406   2.111   1.027  1.9177  1.6042  1.8251
   65TIP3   OH2  200   3.867   2.484   2.028 -0.6377 -0.1119 -0.2506
   65TIP3    H1  201   3.860   2.571   1.987  0.0526  0.0637 -0.0068
   65TIP3    H2  202   3.776   2.454   2.036 -0.8508  0.3770 -0.7866
   66TIP3   OH2  203   1.207   2.796   3.801 -0.0367  0.5722 -0.2651
   66TIP3    H1  204   1.276   2.742   3.763 -0.5563  0.5158 -1.1575
   66TIP3    H2  205   1.139   2.800   3.734 -1.8093 -1.0155  1.2892
   67TIP3   OH2  206   4.171   2.235   1.302 -0.0476  0.1758 -0.5293
   67TIP3    H1  207   4.259   2.256   1.335 -0.0749 -0.2015 -0.2056
   67TIP3    H2  208   4.112   2.267   1.371 -0.1267 -0.2297 -0.4067
   68TIP3   OH2  209   4.241   2.794   5.130  0.2440 -0.3478 -0.0486
   68TIP3    H1  210   4.286   2.853   5.070 -1.7266  0.3864 -0.9048
   68TIP3    H2  211   4.158   2.838   5.149 -0.0652 -1.5386  1.6009
   69TIP3   OH2  212   2.388   4.721   3.965 -0.1964  0.1458  0.2021
   69TIP3    H1  213   2.474   4.747   3.996  0.0552  1.3061 -1.3222
   69TIP3    H2  214   2.337   4.802   3.964 -0.0417  0.3422 -2.6631
   70TIP3   OH2  215   5.648   5.943   4.729 -1.1863 -0.3184 -0.8154
   70TIP3    H1  216   5.638   6.002   4.804 -2.7611 -0.7787 -0.6156
   70TIP3    H2  217   5.713   5.879   4.757 -0.2165  0.7080 -0.6470
   71TIP3   OH2  218   4.636   1.540   4.836 -0.2479 -0.7804 -0.0985
   71TIP3    H1  219   4.683   1.486   4.773 -1.8398 -1.2060 -0.9733
   71TIP3    H2  220   4.617   1.621   4.788  0.7731 -0.0485  0.6995
   72TIP3   OH2  221   0.689   0.376   0.506  0.4781  0.2780  0.2058
   72TIP3    H1  222   0.622   0.422   0.455 -0.1014  0.4544  1.1135
   72TIP3    H2  223   0.641   0.310   0.555  0.6468  1.7091  2.4095
   73TIP3   OH2  224   4.813   2.883   0.881 -0.4609  0.2292 -0.0050
   73TIP3    H1  225   4.779   2.970   0.900 -1.6950  0.1669 -1.6649
   73TIP3    H2  226   4.902   2.883   0.916 -0.3888  2.2051 -0.0975
   74TIP3   OH2  227   2.142   1.544   3.317 -0.4083  0.3548 -0.0256
   74TIP3    H1  228   2.107   1.484   3.251  0.7424  1.2001 -1.4628
   74TIP3    H2  229   2.138   1.630   3.276  0.9232  0.8147  0.7519
   75TIP3   OH2  230   6.271   5.794   0.924 -0.5155  0.5173  0.3476
   75TIP3    H1  231   6.263   5.783   1.019 -2.8136  0.7775  0.2308
   75TIP3    H2  232   6.248   5.709   0.887  1.4251  0.0948  0.0016
   76TIP3   OH2  233   2.356   1.733   2.463 -0.5019  0.0133 -0.6743
   76TIP3    H1  234   2.290   1.775   2.407 -0.9665 -1.1375 -1.0411
   76TIP3    H2  235   2.371   1.648   2.421  0.0986 -0.3481  0.2471
   77TIP3   OH2  236   4.235   0.011   0.921  0.1517  0.2728 -0.3941
   77TIP3    H1  237   4.190   0.081   0.969 -1.4186  0.5225 -2.1021
   77TIP3    H2  238   4.270   0.053   0.843  0.6454 -0.5450 -0.6279
   78TIP3   OH2  239   4.963   5.616   5.085 -0.0378 -0.4120 -0.0515
   78TIP3    H1  240   5.043   5.636   5.036  1.5355 -0.0756  2.4813
   78TIP3    H2  241   4.899   5.679   5.053  1.2680  0.5651 -0.8530
   79TIP3   OH2  242   4.656   4.311   2.406 -0.1459 -0.5726 -0.4321
   79TIP3    H1  243   4.723   4.334   2.470  0.3128  3.0911 -2.0199
   79TIP3    H2  244   4.706   4.280   2.330 -0.6422 -3.4687  0.2728
   80TIP3   OH2  245   3.982   1.095   0.808 -0.0993 -0.8313  0.1029
   80TIP3    H1  246   4.074   1.103   0.783  0.0041 -0.7927  0.4835
   80TIP3    H2  247   3.967   1.001   0.813 -0.0788 -0.8378  0.0372
   81TIP3   OH2  248   2.203   3.539   0.159 -0.3499 -0.4149  0.0510
   81TIP3    H1  249   2.153   3.458   0.172 -1.5446  0.2956  0.0414
   81TIP3    H2  250   2.168   3.576   0.078  0.8415 -0.3422 -0.4527
   82TIP3   OH2  251   5.874   2.759   2.106 -0.0691 -0.3210  0.2156
   82TIP3    H1  252   5.796   2.815   2.107 -1.7127 -2.4742 -0.0298
   82TIP3    H2  253   5.911   2.767   2.194 -0.9355  0.2061  0.5417
   83TIP3   OH2  254   3.390   0.171   1.839  0.1487 -0.0776  0.6657
   83TIP3    H1  255   3.374   0.245   1.898  0.4786  1.1051 -0.6742
   83TIP3    H2  256   3.479   0.142   1.861  0.5706  0.8570  0.2685
   84TIP3   OH2  257   4.334   3.122   2.956 -0.3273  0.3393 -0.5558
   84TIP3    H1  258   4.248   3.161   2.942  0.4893  1.3872 -3.3113
   84TIP3    H2  259   4.334   3.097   3.048 -2.6140  2.6681  0.1996
   85TIP3   OH2  260   1.514   3.619   1.046  0.6091 -0.2789 -0.0147
   85TIP3    H1  261   1.536   3.626   1.139 -1.2464  1.0626  0.3762
   85TIP3    H2  262   1.496   3.526   1.033  0.5185 -0.4235  1.0452
   86TIP3   OH2  263   3.448   2.630   2.373 -0.0989 -0.4088  0.7563
   86TIP3    H1  264   3.396   2.683   2.433  1.1585  0.6989  0.9087
   86TIP3    H2  265   3.499   2.694   2.322 -0.5832 -1.3474 -0.9862
   87TIP3   OH2  266   2.063   1.588   4.434 -0.0623 -0.0117 -0.4803
   87TIP3    H1  267   2.104   1.528   4.372 -0.7094 -0.6524 -0.3067
   87TIP3    H2  268   2.132   1.610   4.496 -0.4618 -2.8596  1.1526
   88TIP3   OH2  269   0.442   3.619   4.031  0.6775 -0.5135  0.8919
   88TIP3    H1  270   0.518   3.570   4.000  0.8659  1.3416 -1.9393
   88TIP3    H2  271   0.467   3.649   4.119  2.3528 -1.6904  0.8545
   89TIP3   OH2  272   1.188   0.555   4.904 -0.1959 -0.2422  0.0928
   89TIP3    H1  273   1.191   0.651   4.906  1.4208 -0.2622  1.2211
   89TIP3    H2  274   1.268   0.528   4.949 -0.3615 -2.1377 -0.6582
   90TIP3   OH2  275   4.761   3.468   0.598 -0.2038 -0.2279 -0.3623
   90TIP3    H1  276   4.770   3.402   0.529 -2.1713 -1.4475  0.4593
   90TIP3    H2  277   4.799   3.427   0.676  0.3344  0.4141 -0.2731
   91TIP3   OH2  278   1.819   0.021   0.923 -0.0711 -0.1093  0.1904
   91TIP3    H1  279   1.914   0.010   0.932  0.2301  1.1481 -1.1816
   91TIP3    H2  280   1.798  -0.019   0.838 -0.5120  1.0159 -0.2441
   92TIP3   OH2  281   5.664   2.130   4.931  0.0616  0.4229  0.5503
   92TIP3    H1  282   5.688   2.066   4.998  0.3053  1.3938  1.4234
   92TIP3    H2  283   5.597   2.086   4.878  1.1157 -1.0063  0.3303
   93TIP3   OH2  284   0.131   1.574   4.606  0.2368 -0.0635  0.4532
   93TIP3    H1  285   0.041   1.546   4.621  0.7371 -2.8843 -1.1410
   93TIP3    H2  286   0.160   1.524   4.529  3.2581  0.5181  1.0714
   94TIP3   OH2  287   1.740   4.579   4.689  0.5727 -0.1796 -0.1271
   94TIP3    H1  288   1.686   4.654   4.713  0.4284 -0.5632  0.7750
   94TIP3    H2  289   1.730   4.517   4.761  2.6182 -0.0442  0.3402
   95TIP3   OH2  290   2.218   0.743   3.688  0.4882 -0.4664 -0.4357
   95TIP3    H1  291   2.128   0.765   3.664  0.0140 -1.0148  0.7834
   95TIP3    H2  292   2.259   0.828   3.705  0.5419 -0.1379 -2.0686
   96TIP3   OH2  293   2.477   0.160   1.409  0.1872 -0.5824  0.6392
   96TIP3    H1  294   2.431   0.159   1.493 -0.6468  0.5318  0.2179
   96TIP3    H2  295   2.430   0.097   1.355 -0.4457  0.0751  0.4179
   97TIP3   OH2  296   0.359   3.363   3.091 -0.0330 -0.0197  0.1855
   97TIP3    H1  297   0.357   3.312   3.172 -0.2435  0.2743  0.3727
   97TIP3    H2  298   0.284   3.331   3.041 -1.3325  1.3743  1.1203
   98TIP3   OH2  299   2.018   0.503   2.996  0.3593  0.1545 -0.3524
   98TIP3    H1  300   1.985   0.554   3.070 -1.8020 -1.8461  0.1642
   98TIP3    H2  301   2.097   0.461   3.029 -0.7844 -1.0130  0.9927
   99TIP3   OH2  302   2.078   3.955   0.497  0.2575  0.5876  0.3957
   99TIP3    H1  303   2.127   4.017   0.550  1.5222 -1.0995  1.2755
   99TIP3    H2  304   2.140   3.884   0.479 -1.6196 -1.3117  0.9789
  100TIP3   OH2  305   1.398   3.323   1.163 -0.6609 -0.1344  0.1635
  100TIP3    H1  306   1.392   3.360   1.252  4.3349  2.6085 -0.2716
  100TIP3    H2  307   1.429   3.234   1.177 -0.6632  0.0133  1.2177
  101TIP3   OH2  308   5.965   0.673   1.462  0.6466 -0.3052 -0.0466
  101TIP3    H1  309   5.889   0.732   1.461 -0.2593 -1.4183  0.5967
  101TIP3    H2  310   5.945   0.609   1.531  2.3335 -0.4323  0.3813
  102TIP3   OH2  311   4.453   0.345   1.126 -0.2213 -0.8253 -0.4110
  102TIP3    H1  312   4.450   0.379   1.037  0.5319  0.7764  0.1292
  102TIP3    H2  313   4.488   0.256   1.117 -1.7765 -1.3363 -1.8343
  103TIP3   OH2  314   1.993   2.489   2.360 -0.3547  0.0260  0.0499
  103TIP3    H1  315   2.042   2.538   2.294  0.5153 -0.3348  0.4059
  103TIP3    H2  316   1.921   2.546   2.384 -0.3010  0.4364 -0.7316
  104TIP3   OH2  317   4.643   3.143   0.776 -0.6182  0.1436  0.1058
  104TIP3    H1  318   4.594   3.072   0.817  0.2676 -0.6863 -0.2430
  104TIP3    H2  319   4.601   3.157   0.692  0.0760 -0.9594 -0.4405
  105TIP3   OH2  320   3.611   1.509   0.998  0.0313  0.3872 -0.2253
  105TIP3    H1  321   3.636   1.589   0.952  0.5145 -0.1575 -0.9161
  105TIP3    H2  322   3.553   1.463   0.938 -0.0896  0.1228  0.0890
  106TIP3   OH2  323   3.362   4.372   3.997  0.3421 -0.2395  0.8183
  106TIP3    H1  324   3.276   4.413   4.007  0.2940  0.2652 -1.1816
  106TIP3    H2  325   3.425   4.442   4.017  0.2663  0.1191 -0.1670
  107TIP3   OH2  326   4.031   1.708   1.161 -0.3507 -0.1514 -0.6047
  107TIP3    H1  327   4.019   1.687   1.253 -0.0978 -1.3953 -0.8396
  107TIP3    H2  328   3.942   1.710   1.125 -0.3325 -2.4414 -0.8932
  108TIP3   OH2  329   2.333   2.542   3.517  0.3921 -0.1415 -0.2569
  108TIP3    H1  330   2.327   2.619   3.573  2.5188  0.2153 -0.4192
  108TIP3    H2  331   2.294   2.570   3.434  1.2011  0.8279 -0.3385
  109TIP3   OH2  332   5.764   5.589   2.577  0.3595  0.0054 -0.3387
  109TIP3    H1  333   5.852   5.553   2.587  0.5671 -0.0022 -2.0071
  109TIP3    H2  334   5.707   5.525   2.620  1.2437  0.6818  1.9963
  110TIP3   OH2  335   0.275   2.549   1.743  0.1017 -0.1079  0.4671
  110TIP3    H1  336   0.278   2.466   1.697 -4.6091  0.0351 -0.6056
  110TIP3    H2  337   0.259   2.614   1.674  0.9490  1.3238  1.5648
  111TIP3   OH2  338   6.030   5.255   0.001  0.0822  0.7204  0.0762
  111TIP3    H1  339   5.965   5.269   0.070  1.2633  1.3223  1.1169
  111TIP3    H2  340   6.107   5.304   0.031  1.2232 -0.4612 -0.8194
  112TIP3   OH2  341   2.620   5.824   2.252  0.0463 -0.1497 -0.2750
  112TIP3    H1  342   2.703   5.822   2.301  0.2641  0.0569 -0.6362
  112TIP3    H2  343   2.558   5.864   2.313 -0.2295 -1.8795  0.6727
  113TIP3   OH2  344   4.050   3.968   4.284 -0.0167  0.0168 -0.0559
  113TIP3    H1  345   4.040   4.050   4.237 -0.3478  0.6090  1.0207
  113TIP3    H2  346   4.020   3.987   4.373 -0.0120 -1.2395  0.2363
  114TIP3   OH2  347   4.862   5.134   0.867  0.3301 -0.1903 -0.0197
  114TIP3    H1  348   4.929   5.195   0.838  0.2408 -0.3468 -0.5604
  114TIP3    H2  349   4.814   5.181   0.935  2.3118 -0.8025  1.9243
  115TIP3   OH2  350   1.548   3.401   4.021 -0.4841 -0.2006  0.1243
  115TIP3    H1  351   1.551   3.377   4.113  1.2449 -1.7011 -0.2685
  115TIP3    H2  352   1.634   3.379   3.987 -0.4057  2.1475 -1.4513
  116TIP3   OH2  353   3.197   0.389   0.189 -0.1139 -0.8405 -0.0704
  116TIP3    H1  354   3.246   0.347   0.118  1.5666  1.7794 -0.5946
  116TIP3    H2  355   3.235   0.353   0.269  0.4654 -1.2124 -0.5051
  117TIP3   OH2  356   0.050   2.545   2.925 -0.5727 -0.9263  0.2672
  117TIP3    H1  357   0.079   2.458   2.954 -0.4911 -0.7604  0.6999
  117TIP3    H2  358   0.051   2.598   3.005  0.5832 -0.2018 -0.2039
  118TIP3   OH2  359   3.317   1.435   1.880 -0.3221  0.0309 -0.0781
  118TIP3    H1  360   3.243   1.419   1.821  1.6293 -3.0934 -2.0416
  118TIP3    H2  361   3.278   1.442   1.967 -2.9660 -0.6830 -1.1027
  119TIP3   OH2  362   6.129   1.643   4.077 -0.2930  0.0853 -0.2942
  119TIP3    H1  363   6.194   1.647   4.146  0.4898 -0.5766 -0.9649
  119TIP3    H2  364   6.061   1.705   4.103 -0.9699 -1.5227  2.0265
  120TIP3   OH2  365   0.596   5.443   4.919  0.1211  0.1342  0.4682
  120TIP3    H1  366   0.523   5.445   4.982 -1.2707 -1.8948 -0.9521
  120TIP3    H2  367   0.610   5.535   4.897 -1.8326  0.6332  1.0189
  121TIP3   OH2  368   6.264   2.017   4.322  0.4899 -0.5101  0.0324
  121TIP3    H1  369   6.225   1.947   4.375  1.9826 -2.0675 -0.8458
  121TIP3    H2  370   6.356   2.018   4.347  1.7558 -2.6770 -3.7386
  122TIP3   OH2  371   5.688   1.651   1.580  0.0975  0.2798  0.5227
  122TIP3    H1  372   5.751   1.580   1.587 -2.3502 -2.0617  0.6242
  122TIP3    H2  373   5.636   1.645   1.660 -1.8151  0.4648 -0.6452
  123TIP3   OH2  374   4.482   0.553   1.353  0.3420  0.3095 -0.0691
  123TIP3    H1  375   4.517   0.507   1.276  0.1115  0.0897 -0.0432
  123TIP3    H2  376   4.482   0.488   1.422 -0.7735  0.0940 -0.2464
  124TIP3   OH2  377   0.223   5.995   2.935  0.0214 -0.2262 -0.1045
  124TIP3    H1  378   0.306   6.024   2.896 -0.1644 -0.7465 -0.8996
  124TIP3    H2  379   0.205   5.910   2.894 -0.5641 -0.4429  0.5675
  125TIP3   OH2  380   0.777   2.825   1.458 -0.1887 -0.5302 -0.7377
  125TIP3    H1  381   0.854   2.803   1.406  1.1302  1.8123  0.0304
  125TIP3    H2  382   0.722   2.877   1.399  0.7549  1.1303 -0.2366
  126TIP3   OH2  383   0.456   2.396   4.480  0.1264 -0.1929  0.3901
  126TIP3    H1  384   0.524   2.350   4.431 -1.5167 -1.5677 -0.6604
  126TIP3    H2  385   0.428   2.467   4.422  0.4060  0.1662  0.6857
  127TIP3   OH2  386   6.151   1.774   2.509  0.7326  0.2131  0.0700
  127TIP3    H1  387   6.218   1.719   2.468  1.3548  2.2326 -1.7828
  127TIP3    H2  388   6.129   1.728   2.590  1.7760 -2.3215 -0.9904
  128TIP3   OH2  389   0.585   3.473   2.860 -0.1761 -0.3381  0.4453
  128TIP3    H1  390   0.492   3.486   2.875 -0.0331  0.4722  0.7082
  128TIP3    H2  391   0.627   3.539   2.916  0.4939  0.5375 -1.0364
  129TIP3   OH2  392   3.756   0.622   5.061 -0.6943  0.4129 -0.2092
  129TIP3    H1  393   3.762   0.536   5.103  0.6217  0.9467  0.8116
  129TIP3    H2  394   3.684   0.666   5.107  0.5249  0.8732  1.3748
  130TIP3   OH2  395   3.973   1.636   4.001 -0.2358  0.2368 -0.0958
  130TIP3    H1  396   3.957   1.714   3.947  0.3930 -0.0430 -0.7051
  130TIP3    H2  397   4.008   1.572   3.939 -1.3929 -0.7612  0.2689
  131TIP3   OH2  398   4.778   3.308   4.933  0.1520  0.0091 -0.7407
  131TIP3    H1  399   4.779   3.311   5.028 -1.8454 -2.7992 -0.5227
  131TIP3    H2  400   4.718   3.379   4.908  0.9060  0.9497  0.0172
  132TIP3   OH2  401   1.228   5.265   1.242  0.6490  0.0876  0.2139
  132TIP3    H1  402   1.259   5.282   1.331  1.0396 -0.1608  0.1289
  132TIP3    H2  403   1.281   5.322   1.187  0.4790  0.1657  0.1305
  133TIP3   OH2  404   1.077   0.469   1.525  0.0946  0.2479  0.2579
  133TIP3    H1  405   1.001   0.526   1.538 -0.6322 -0.4432 -0.7527
  133TIP3    H2  406   1.114   0.458   1.612 -0.6923  0.9841  0.7035
  134TIP3   OH2  407   5.647   0.978   3.168  0.0586 -0.1372 -0.2718
  134TIP3    H1  408   5.729   0.959   3.213  0.9063  2.5103 -0.4995
  134TIP3    H2  409   5.581   0.929   3.216  1.2054  0.9220  2.6296
  135TIP3   OH2  410   0.451   5.703   2.037  0.6311 -0.2056 -0.1561
  135TIP3    H1  411   0.385   5.724   2.104 -0.9692 -1.4300 -1.2572
  135TIP3    H2  412   0.508   5.639   2.079 -0.4959 -1.1380  0.0270
  136TIP3   OH2  413   3.517   2.513   2.654  0.3084 -0.1063  0.3044
  136TIP3    H1  414   3.568   2.589   2.683 -1.8699  2.1734 -1.3233
  136TIP3    H2  415   3.521   2.516   2.559 -0.1491 -1.8559  0.1963
  137TIP3   OH2  416   5.627   0.842   3.428  0.0530 -0.2764 -0.1920
  137TIP3    H1  417   5.707   0.790   3.421 -0.5829 -1.2759 -0.2625
  137TIP3    H2  418   5.644   0.902   3.500  1.0636 -0.0983 -0.5545
  138TIP3   OH2  419   0.803   1.819   3.585 -0.7066  0.2232 -0.1840
  138TIP3    H1  420   0.738   1.873   3.540 -0.8711  0.7797  0.6966
  138TIP3    H2  421   0.837   1.761   3.517 -1.6384  0.3837 -0.8086
  139TIP3   OH2  422   0.689   1.153   0.599 -0.1869 -0.2663  0.3173
  139TIP3    H1  423   0.760   1.127   0.658 -0.3282 -1.0690  0.1502
  139TIP3    H2  424   0.729   1.217   0.540 -0.1894  0.9882  1.6225
  140TIP3   OH2  425   2.750   2.339   4.046  0.0224 -0.6033 -0.1627
  140TIP3    H1  426   2.795   2.416   4.010 -1.2612 -0.1395 -0.8202
  140TIP3    H2  427   2.803   2.265   4.016  1.2077 -0.0145  0.3692
  141TIP3   OH2  428   4.099   2.688   0.986  0.3977 -0.2646  0.4858
  141TIP3    H1  429   4.060   2.617   0.935  1.9594 -0.2536 -0.8341
  141TIP3    H2  430   4.032   2.713   1.048 -1.2394 -0.9975 -0.8969
  142TIP3   OH2  431   4.562   0.027   0.630  0.0116 -0.4559  0.3458
  142TIP3    H1  432   4.591  -0.064   0.624  3.3866  0.4895  0.3635
  142TIP3    H2  433   4.545   0.053   0.540  0.7414 -0.6281  0.1551
  143TIP3   OH2  434   3.054   4.311   1.743 -0.2124 -0.8028 -0.0093
  143TIP3    H1  435   3.049   4.404   1.720  0.1784 -0.8308 -0.2141
  143TIP3    H2  436   2.981   4.270   1.695 -0.4849 -0.5776  0.2103
  144TIP3   OH2  437   5.755   0.562   1.048 -0.1115 -0.1858 -0.0218
  144TIP3    H1  438   5.733   0.652   1.070 -0.9071 -0.2642 -0.4652
  144TIP3    H2  439   5.807   0.531   1.123  0.2990  0.6796  0.0584
  145TIP3   OH2  440   5.900   5.338   2.428  0.2705  0.1564  0.0127
  145TIP3    H1  441   5.962   5.304   2.363 -0.8323 -1.6798 -0.1517
  145TIP3    H2  442   5.815   5.333   2.384 -0.3438 -0.0682  1.1995
  146TIP3   OH2  443   3.958   5.010   3.207  0.8473 -0.2986  0.1810
  146TIP3    H1  444   3.973   5.031   3.115 -0.1932 -0.3310 -0.0079
  146TIP3    H2  445   4.003   4.926   3.221  2.2618  0.4085  0.1037
  147TIP3   OH2  446   3.448   2.558   4.119 -0.7189  0.1467  0.1830
  147TIP3    H1  447   3.531   2.512   4.109 -0.0478  1.2974  0.2864
  147TIP3    H2  448   3.391   2.521   4.051  0.6968  1.1335 -1.6155
  148TIP3   OH2  449   1.463   4.220   3.587 -0.8983 -0.2991  0.2188
  148TIP3    H1  450   1.372   4.234   3.609 -0.3755  1.4304  1.4781
  148TIP3    H2  451   1.508   4.213   3.671  0.2769  0.0866 -0.3511
  149TIP3   OH2  452   2.236   5.548   1.902  0.1813  0.7028  0.0458
  149TIP3    H1  453   2.219   5.457   1.926 -1.5415  1.3777  1.6641
  149TIP3    H2  454   2.329   5.550   1.880  0.4998 -1.2480  0.9838
  150TIP3   OH2  455   0.829   5.944   4.082  0.1330  0.0040  0.3662
  150TIP3    H1  456   0.753   5.975   4.033 -1.2002 -0.4299  2.0312
  150TIP3    H2  457   0.852   6.017   4.140  0.0547 -0.3679  0.8772
  151TIP3   OH2  458   2.881   1.938   2.525 -0.1452 -0.1781 -0.5205
  151TIP3    H1  459   2.865   1.943   2.619  0.9624 -2.3950 -0.1488
  151TIP3    H2  460   2.794   1.939   2.486 -0.7482 -1.4185  0.7023
  152TIP3   OH2  461   0.542   0.156   4.861  0.0185  0.2074  0.3689
  152TIP3    H1  462   0.621   0.146   4.807 -0.0888  0.4088  0.1709
  152TIP3    H2  463   0.476   0.189   4.800 -0.2635 -0.1117  0.5006
  153TIP3   OH2  464   1.025   2.083   0.432 -0.1699 -0.4146  0.2613
  153TIP3    H1  465   0.979   2.159   0.468 -0.1055 -0.1650 -0.1729
  153TIP3    H2  466   0.987   2.070   0.345 -1.8693 -2.3613  1.2216
  154TIP3   OH2  467   0.822   3.097   1.974 -0.0295 -0.1390  0.6723
  154TIP3    H1  468   0.892   3.041   2.007  0.0420 -0.4743 -0.0208
  154TIP3    H2  469   0.866   3.154   1.910 -0.3242 -0.1246  0.4828
  155TIP3   OH2  470   1.019   4.767   1.043  0.4968  0.1642  0.7696
  155TIP3    H1  471   1.080   4.841   1.040 -0.0818  0.6304 -2.4687
  155TIP3    H2  472   1.069   4.694   1.007 -0.3505  0.1951 -0.5330
  156TIP3   OH2  473   5.374   2.033   0.858 -0.3318  0.2502 -0.1361
  156TIP3    H1  474   5.385   2.115   0.906 -1.1107  0.3498 -0.1041
  156TIP3    H2  475   5.346   1.970   0.925 -0.2522  0.0920 -0.2506
  157TIP3   OH2  476   5.607   2.292   2.820  0.1297  0.0528  0.5323
  157TIP3    H1  477   5.580   2.202   2.831  0.1843 -0.0984 -0.4673
  157TIP3    H2  478   5.599   2.331   2.907 -0.6799 -0.6917  0.8003
  158TIP3   OH2  479   1.290   1.783   2.463  0.4172  0.2278  0.2926
  158TIP3    H1  480   1.275   1.701   2.510 -2.4866  0.6254  0.2589
  158TIP3    H2  481   1.272   1.851   2.528  0.6984  0.8156 -0.2359
  159TIP3   OH2  482   3.188   4.128   0.459 -0.6469  0.2713 -0.3723
  159TIP3    H1  483   3.177   4.056   0.522 -0.8145  0.3950 -0.2579
  159TIP3    H2  484   3.281   4.125   0.435 -0.0018  1.6863  1.6738
  160TIP3   OH2  485   4.879   3.475   3.672 -0.0600  0.2453  0.0308
  160TIP3    H1  486   4.870   3.563   3.634 -0.9102 -0.5410 -1.7273
  160TIP3    H2  487   4.971   3.451   3.656  0.3145  0.9864  0.9817
  161TIP3   OH2  488   1.739   5.259   0.962  0.1145 -0.0034 -0.5109
  161TIP3    H1  489   1.741   5.168   0.991  0.0412 -0.6864 -2.5304
  161TIP3    H2  490   1.683   5.259   0.884  2.4952  1.1857 -2.3404
  162TIP3   OH2  491   2.420   0.234   2.759 -0.0224  0.4084  0.2164
  162TIP3    H1  492   2.470   0.290   2.699 -0.0338  0.2352  0.0445
  162TIP3    H2  493   2.329   0.262   2.747  0.1562  1.6816  1.5376
  163TIP3   OH2  494   0.059   1.305   1.341  0.5720  0.3855 -0.4312
  163TIP3    H1  495   0.020   1.222   1.369 -1.4062  1.7938  1.2764
  163TIP3    H2  496   0.014   1.325   1.258  0.3970  0.1766 -0.3889
  164TIP3   OH2  497   2.474   4.720   2.429  0.0202  0.5587 -0.0759
  164TIP3    H1  498   2.393   4.770   2.414 -0.4166  0.0615  0.6015
  164TIP3    H2  499   2.543   4.777   2.395 -0.4319  1.7971  1.0080
  165TIP3   OH2  500   1.559   3.521   2.934 -0.0806  0.1717  0.2617
  165TIP3    H1  501   1.469   3.521   2.967  0.6437 -0.0015  2.3748
  165TIP3    H2  502   1.600   3.597   2.975  0.7156  0.3012 -0.7532
  166TIP3   OH2  503   0.731   1.251   1.629 -0.1941 -0.1710 -0.5999
  166TIP3    H1  504   0.785   1.292   1.697  0.4537 -1.7179 -0.1337
  166TIP3    H2  505   0.767   1.284   1.547  0.0497  0.4901 -0.2343
  167TIP3   OH2  506   4.651   2.721   0.399  0.2018  0.3653 -0.1650
  167TIP3    H1  507   4.665   2.663   0.325 -0.7115 -0.6133  0.3930
  167TIP3    H2  508   4.739   2.750   0.424  0.7062 -0.9008 -0.3775
  168TIP3   OH2  509   3.158   2.746   0.203 -0.5076 -0.3813 -0.2455
  168TIP3    H1  510   3.138   2.807   0.132 -1.7753  1.7516  1.7956
  168TIP3    H2  511   3.246   2.772   0.232 -1.3516  1.1369  1.1324
  169TIP3   OH2  512   5.020   4.565   2.386  0.6789 -0.2787  0.3656
  169TIP3    H1  513   5.108   4.556   2.349  0.4831 -4.0334  0.4211
  169TIP3    H2  514   5.007   4.484   2.436 -1.8803  1.3012  2.5392
  170TIP3   OH2  515   3.442   5.852   3.938  0.3034 -0.0841 -0.0137
  170TIP3    H1  516   3.396   5.787   3.991  1.7446  0.1716  1.6205
  170TIP3    H2  517   3.372   5.906   3.902 -0.8629 -1.8558 -0.5464
  171TIP3   OH2  518   3.036   3.970   1.857 -0.6929  0.5813 -0.0376
  171TIP3    H1  519   3.021   3.877   1.844 -1.4798  0.7010 -0.0183
  171TIP3    H2  520   3.110   3.991   1.800 -0.4971 -0.0547 -0.0217
  172TIP3   OH2  521   3.442   1.487   4.934  0.0005  0.4979  0.5293
  172TIP3    H1  522   3.427   1.581   4.931  0.6472  0.6384  1.2417
  172TIP3    H2  523   3.496   1.474   5.012  1.7426 -0.2100 -0.7310
  173TIP3   OH2  524   5.573   3.930   2.528 -0.4043 -0.0342  0.4902
  173TIP3    H1  525   5.521   3.991   2.476 -1.1939 -1.2495 -0.1904
  173TIP3    H2  526   5.625   3.986   2.586 -1.0533  1.2727 -0.1497
  174TIP3   OH2  527   3.869   5.331   0.424  0.9814 -0.2886  0.2419
  174TIP3    H1  528   3.860   5.405   0.484  0.4897  0.2843 -0.5215
  174TIP3    H2  529   3.894   5.371   0.341  2.0689 -1.1054  0.1565
  175TIP3   OH2  530   5.444   0.708   4.036  0.5054 -0.2649 -0.4001
  175TIP3    H1  531   5.478   0.650   3.967 -0.8930 -2.0700  0.3481
  175TIP3    H2  532   5.486   0.676   4.116 -0.0455 -0.0329 -0.0156
  176TIP3   OH2  533   5.701   0.556   3.451  0.1573  0.2641 -0.1681
  176TIP3    H1  534   5.668   0.467   3.460 -2.9109  1.3151 -0.0341
  176TIP3    H2  535   5.666   0.587   3.368  1.0047  1.4409 -0.1225
  177TIP3   OH2  536   5.118   4.951   2.159  0.0523  0.1685 -0.1242
  177TIP3    H1  537   5.087   4.974   2.071 -1.2768  1.1288  0.5545
  177TIP3    H2  538   5.043   4.907   2.199  0.2304  0.7887  0.9172
  178TIP3   OH2  539   5.961   2.200   4.653  0.1291  0.5659  0.2831
  178TIP3    H1  540   5.990   2.131   4.713 -0.0524 -0.1169 -0.3979
  178TIP3    H2  541   5.919   2.265   4.709 -2.0479 -1.0925  0.7193
  179TIP3   OH2  542   3.739   2.356   4.929 -0.0919  0.3387  0.0592
  179TIP3    H1  543   3.819   2.357   4.982  1.0613 -0.2605 -1.5967
  179TIP3    H2  544   3.698   2.272   4.950 -0.7938  1.0251  1.5798
  180TIP3   OH2  545   5.745   2.743   4.693  0.0053  0.0632  0.4248
  180TIP3    H1  546   5.700   2.803   4.633 -1.8870  0.2870  1.9862
  180TIP3    H2  547   5.815   2.705   4.640 -0.4991  1.5424 -1.4147
  181TIP3   OH2  548   2.798   4.913   2.984 -0.2463 -0.4398 -0.2380
  181TIP3    H1  549   2.775   5.002   3.010  3.6875  0.0285  2.5097
  181TIP3    H2  550   2.854   4.924   2.907 -0.9216 -0.7206 -0.7831
  182TIP3   OH2  551   6.303   5.543   1.167 -0.0917  0.7284  0.6877
  182TIP3    H1  552   6.304   5.507   1.078 -0.6860  1.7173  0.2678
  182TIP3    H2  553   6.278   5.469   1.222  0.1921  0.1238  0.0292
  183TIP3   OH2  554   6.320   5.009   1.724  0.1086 -0.6006  0.2814
  183TIP3    H1  555   6.311   5.101   1.751  1.8705  0.1320 -1.3532
  183TIP3    H2  556   6.231   4.976   1.723 -0.5645  1.0351  1.1135
  184TIP3   OH2  557   3.567   5.509   0.661  0.5442 -0.6290 -0.4037
  184TIP3    H1  558   3.579   5.449   0.587  0.0253  0.6578 -1.5700
  184TIP3    H2  559   3.656   5.539   0.681  0.5165  0.4515 -1.7697
  185TIP3   OH2  560   1.654   2.042   2.177 -0.4335 -0.5180 -0.1459
  185TIP3    H1  561   1.704   1.997   2.246 -0.0878  1.0020  0.6357
  185TIP3    H2  562   1.574   2.070   2.221 -0.3598  0.1692 -0.4470
  186TIP3   OH2  563   5.893   2.079   2.679 -0.1938 -0.6786  0.2769
  186TIP3    H1  564   5.937   2.052   2.598 -0.5656 -1.2243  0.2543
  186TIP3    H2  565   5.826   2.141   2.649  0.0320 -0.4501  0.2319
  187TIP3   OH2  566   0.599   5.453   1.474  0.2982  0.1807  0.6139
  187TIP3    H1  567   0.546   5.458   1.394  0.6745  0.8635  0.3977
  187TIP3    H2  568   0.660   5.381   1.458 -1.0594 -1.1613  1.1876
  188TIP3   OH2  569   2.783   3.511   1.004 -0.0622 -0.2185 -0.1544
  188TIP3    H1  570   2.846   3.534   1.073 -0.5313 -0.3617  0.3341
  188TIP3    H2  571   2.786   3.415   1.001 -0.1194 -0.2162 -0.2560
  189TIP3   OH2  572   0.133   2.237   2.397 -0.0992  0.1131 -0.1395
  189TIP3    H1  573   0.163   2.290   2.323  0.4422  0.0898  0.0555
  189TIP3    H2  574   0.191   2.161   2.397  0.4261  0.4941  0.7774
  190TIP3   OH2  575   1.962   3.299   0.560 -0.5978 -0.3791 -0.1119
  190TIP3    H1  576   1.992   3.208   0.556 -0.2918 -0.3368  0.8559
  190TIP3    H2  577   1.927   3.309   0.649 -1.6487  0.1457 -0.5664
  191TIP3   OH2  578   3.187   0.822   4.162 -0.1942  0.2291  0.2567
  191TIP3    H1  579   3.268   0.846   4.207 -0.6836 -1.1958  2.0421
  191TIP3    H2  580   3.205   0.837   4.070  2.1476 -0.1126  0.5918
  192TIP3   OH2  581   1.127   1.911   1.282 -0.2868  0.1350 -0.1362
  192TIP3    H1  582   1.130   1.819   1.307 -1.6452  0.7540  2.6394
  192TIP3    H2  583   1.047   1.945   1.322  0.4731  2.6630 -0.5430
  193TIP3   OH2  584   2.093   1.796   3.203 -0.1764 -0.0309  0.0165
  193TIP3    H1  585   2.115   1.820   3.292 -0.9177  0.3485  0.1049
  193TIP3    H2  586   2.125   1.868   3.149  1.6632 -0.9712 -0.2046
  194TIP3   OH2  587   2.367   2.024   1.349 -0.0839 -0.0373  0.2132
  194TIP3    H1  588   2.349   2.101   1.295  0.3237  1.3007  1.8963
  194TIP3    H2  589   2.337   1.950   1.296  1.0824  1.0977 -2.1730
  195TIP3   OH2  590   4.462   2.932   0.872 -0.3692  0.1545  0.3378
  195TIP3    H1  591   4.430   2.867   0.935 -0.5990 -1.1787 -1.0738
  195TIP3    H2  592   4.383   2.967   0.831 -0.2033 -1.5035 -1.5665
  196TIP3   OH2  593   2.793   2.547   3.097 -0.2085  0.3951 -0.1944
  196TIP3    H1  594   2.716   2.503   3.134 -0.3449 -0.3681 -1.3254
  196TIP3    H2  595   2.769   2.564   3.005  1.0755 -0.1534 -0.6533
  197TIP3   OH2  596   5.562   2.673   0.820  0.2040  0.2834 -0.5062
  197TIP3    H1  597   5.485   2.694   0.769 -1.9755  0.4020  2.5640
  197TIP3    H2  598   5.569   2.577   0.815 -0.5355  0.2144 -0.3446
  198TIP3   OH2  599   2.150   0.151   2.300  0.2897 -0.0341 -0.2628
  198TIP3    H1  600   2.095   0.090   2.250  0.5609 -0.1840 -0.3773
  198TIP3    H2  601   2.087   0.211   2.341 -0.0465 -0.9660  0.6401
  199TIP3   OH2  602   0.750   1.804   4.593  0.2712  0.1765 -0.0476
  199TIP3    H1  603   0.805   1.859   4.537  2.3718 -0.6653  1.0668
  199TIP3    H2  604   0.801   1.723   4.604 -1.3292 -0.7533  0.8485
  200TIP3   OH2  605   0.865   1.823   1.698  0.3817 -0.0575  0.1946
  200TIP3    H1  606   0.932   1.773   1.652  0.9190 -0.8835  1.7678
  200TIP3    H2  607   0.795   1.834   1.635  0.8758 -1.5628 -0.6607
  201TIP3   OH2  608   0.719   3.785   4.101  0.2169  0.6214  0.3698
  201TIP3    H1  609   0.761   3.833   4.172  1.2281  3.6410 -2.0591
  201TIP3    H2  610   0.691   3.852   4.039 -2.2088 -1.7306 -1.3390
  202TIP3   OH2  611   1.223   1.142   0.937 -0.1854 -0.2031  0.2964
  202TIP3    H1  612   1.281   1.202   0.890 -0.5498  0.8503  1.1587
  202TIP3    H2  613   1.282   1.076   0.974  0.3396  0.1970  0.1877
  203TIP3   OH2  614   1.759   1.999   4.435 -0.4983 -0.0168 -0.3811
  203TIP3    H1  615   1.838   2.018   4.486 -0.2899 -2.9655  0.5500
  203TIP3    H2  616   1.700   2.072   4.456  1.3452  1.4114  0.1761
  204TIP3   OH2  617   2.395   5.577   4.484  0.0713 -0.0174  0.5152
  204TIP3    H1  618   2.408   5.484   4.468 -1.0932  0.0232 -0.9059
  204TIP3    H2  619   2.475   5.619   4.452  0.1191 -0.4504  0.0597
  205TIP3   OH2  620   2.461   2.349   3.936  0.7702  0.3598 -0.3310
  205TIP3    H1  621   2.545   2.354   3.982  0.8022  1.4372 -0.4819
  205TIP3    H2  622   2.405   2.296   3.993  1.7249 -0.9006 -0.5199
  206TIP3   OH2  623   3.340   2.774   5.142  0.1147 -0.1732 -0.0862
  206TIP3    H1  624   3.364   2.694   5.096 -2.0453 -1.2598  0.5651
  206TIP3    H2  625   3.336   2.748   5.234 -1.4934  0.4161  0.0404
  207TIP3   OH2  626   2.730   4.341   1.727  0.1007  0.8370 -0.5139
  207TIP3    H1  627   2.756   4.248   1.728  0.7668  0.9920 -1.6615
  207TIP3    H2  628   2.777   4.379   1.801 -2.3944 -0.2516  1.8119
  208TIP3   OH2  629   0.187   0.650   3.217 -0.2998  0.5512 -0.2011
  208TIP3    H1  630   0.178   0.731   3.267  3.1207  1.8764 -1.4052
  208TIP3    H2  631   0.157   0.673   3.129 -0.4144  0.1646 -0.2628
  209TIP3   OH2  632   0.643   0.118   1.865  0.1344  0.3110  0.0460
  209TIP3    H1  633   0.699   0.057   1.913 -0.0708  1.3179  1.6312
  209TIP3    H2  634   0.693   0.199   1.863 -1.1583  1.1810  1.3503
  210TIP3   OH2  635   2.416   4.626   3.700  0.0857  0.1326 -0.1810
  210TIP3    H1  636   2.409   4.644   3.793  1.4143 -1.0569  0.1844
  210TIP3    H2  637   2.326   4.629   3.668 -0.7306 -1.9254  1.6517
  211TIP3   OH2  638   2.545   1.055   2.155 -0.2804  0.5084  0.2635
  211TIP3    H1  639   2.566   0.965   2.132 -0.5645  0.7336 -0.9376
  211TIP3    H2  640   2.482   1.083   2.089  1.4981  2.3093 -0.7729
  212TIP3   OH2  641   4.449   0.238   1.466  0.5694  0.6213 -0.2043
  212TIP3    H1  642   4.486   0.263   1.550  2.3446  0.1952 -0.8314
  212TIP3    H2  643   4.388   0.167   1.486  0.4435  0.9917  0.7769
  213TIP3   OH2  644   4.102   5.985   3.648  0.0501 -0.1571 -0.1950
  213TIP3    H1  645   4.010   5.996   3.670  0.2749  0.1849  0.6172
  213TIP3    H2  646   4.114   5.890   3.644 -0.5897 -0.1973 -1.4657
  214TIP3   OH2  647   3.553   2.466   3.231 -0.4586 -0.2166 -0.1254
  214TIP3    H1  648   3.481   2.411   3.263 -1.0805  0.7082  0.1186
  214TIP3    H2  649   3.540   2.470   3.136 -0.4410 -0.4572 -0.1370
  215TIP3   OH2  650   2.167   2.013   3.013 -0.4096 -0.2611 -0.4093
  215TIP3    H1  651   2.157   2.018   2.918 -1.1358 -0.0486 -0.3290
  215TIP3    H2  652   2.131   2.096   3.046  2.0532  0.7486 -0.0974
  216TIP3   OH2  653   2.290   0.105   4.728  0.1034 -0.1829 -0.1362
  216TIP3    H1  654   2.317   0.055   4.805 -0.9097 -1.3592 -0.5244
  216TIP3    H2  655   2.322   0.054   4.653  1.4523  1.1572 -0.5417
  217TIP3   OH2  656   0.536   1.515   5.101 -0.3731 -0.3613 -0.6360
  217TIP3    H1  657   0.566   1.431   5.066 -1.5026 -0.0957 -2.3428
  217TIP3    H2  658   0.464   1.491   5.159  1.0858 -0.7502  1.1016
  218TIP3   OH2  659   0.429   5.855   2.595  0.3276  0.0712 -0.3058
  218TIP3    H1  660   0.514   5.811   2.599  0.8541  1.1119  0.2600
  218TIP3    H2  661   0.435   5.911   2.517  0.0035 -0.1491 -0.4927
  219TIP3   OH2  662   3.547   5.503   0.186  0.0097 -0.3209  0.1334
  219TIP3    H1  663   3.588   5.416   0.191 -1.1029 -0.8042  1.8232
  219TIP3    H2  664   3.457   5.485   0.156 -0.0962  0.3059  0.0672
  220TIP3   OH2  665   2.033   3.585   3.038  0.1881 -0.2005 -0.3184
  220TIP3    H1  666   2.081   3.663   3.065  1.5417  0.0909 -3.1741
  220TIP3    H2  667   2.019   3.596   2.944 -1.0014 -2.6804 -0.5296
  221TIP3   OH2  668   5.351   3.306   0.548 -0.7137 -0.5643  0.3213
  221TIP3    H1  669   5.405   3.382   0.570 -1.4780  0.1429 -0.2030
  221TIP3    H2  670   5.358   3.297   0.453  0.6651 -2.1580  0.5218
  222TIP3   OH2  671   6.179   2.266   2.552 -0.3893  0.8497  0.4834
  222TIP3    H1  672   6.127   2.186   2.545  0.2032  0.5028 -0.0358
  222TIP3    H2  673   6.237   2.251   2.626  0.2691  0.4631 -0.0922
  223TIP3   OH2  674   1.002   2.619   0.871 -0.4397 -0.3401  0.3794
  223TIP3    H1  675   0.965   2.572   0.945 -2.3106  2.1511  1.1864
  223TIP3    H2  676   1.085   2.655   0.904  0.0237 -1.3798  0.3796
  224TIP3   OH2  677   2.923   2.938   0.861  0.0078 -0.3568 -0.3360
  224TIP3    H1  678   2.911   2.965   0.952  0.9580  0.7150 -0.5023
  224TIP3    H2  679   2.947   3.019   0.815 -0.7956 -0.8164 -1.6143
  225TIP3   OH2  680   5.491   3.031   3.218  0.3382 -0.3590 -0.2240
  225TIP3    H1  681   5.582   3.013   3.239  0.3624 -0.1744 -0.1680
  225TIP3    H2  682   5.446   2.947   3.229  0.8369 -0.9332 -2.0975
  226TIP3   OH2  683   1.559   3.963   0.634  0.0771  0.5468  0.0257
  226TIP3    H1  684   1.648   3.996   0.644 -0.2419  2.3466 -2.1880
  226TIP3    H2  685   1.559   3.878   0.679  2.6502  0.8662  0.7722
  227TIP3   OH2  686   5.960   4.301   3.197 -0.1673 -0.3386 -0.9753
  227TIP3    H1  687   5.899   4.372   3.175 -0.3285 -0.0040  0.4582
  227TIP3    H2  688   6.037   4.319   3.144  0.0894  1.3720 -0.0902
  228TIP3   OH2  689   3.594   2.142   4.985  1.2112 -0.4243 -0.6873
  228TIP3    H1  690   3.630   2.066   5.031 -0.3126 -0.4550  0.5385
  228TIP3    H2  691   3.547   2.105   4.911 -0.5893 -0.8233  0.6111
  229TIP3   OH2  692   0.717   3.579   0.489  0.2967  0.2860  0.7991
  229TIP3    H1  693   0.783   3.567   0.421  0.7645  0.2681  1.2428
  229TIP3    H2  694   0.768   3.595   0.569 -0.2483  0.9647  1.0227
  230TIP3   OH2  695   6.169   1.089   2.643  0.2575 -0.1438  0.5680
  230TIP3    H1  696   6.184   1.156   2.709 -0.2231  2.9932 -2.2552
  230TIP3    H2  697   6.074   1.077   2.641  0.3824 -1.7008  1.6480
  231TIP3   OH2  698   0.297   2.855   4.416 -0.1606 -0.3038  0.9495
  231TIP3    H1  699   0.214   2.809   4.400 -0.0659 -0.4864  0.9803
  231TIP3    H2  700   0.273   2.928   4.473 -0.7248  1.1083 -1.0124
  232TIP3   OH2  701   0.923   0.731   2.198 -1.0894  0.3715 -0.1308
  232TIP3    H1  702   0.955   0.721   2.109  0.2286 -0.3596  0.3874
  232TIP3    H2  703   0.981   0.796   2.237 -0.6791 -0.4212  0.6163
  233TIP3   OH2  704   3.714   2.696   1.902  0.6360 -0.1350  0.4315
  233TIP3    H1  705   3.670   2.780   1.917  3.0463  1.2757  0.1708
  233TIP3    H2  706   3.646   2.639   1.868 -1.4566  1.2163  2.0721
  234TIP3   OH2  707   3.604   2.310   3.694 -0.0851  0.5315 -0.1844
  234TIP3    H1  708   3.689   2.314   3.649  0.4997  0.0420  0.8539
  234TIP3    H2  709   3.608   2.230   3.746 -0.2930  1.6594  1.6404
  235TIP3   OH2  710   5.856   0.132   3.145  0.0313  0.2374  0.0193
  235TIP3    H1  711   5.798   0.056   3.139  0.0532  0.2750 -0.7198
  235TIP3    H2  712   5.796   0.207   3.148  0.0276  0.2621 -0.5190
  236TIP3   OH2  713   6.206   5.457   3.928  0.1281 -0.0900  0.0375
  236TIP3    H1  714   6.266   5.476   3.856 -1.6141 -0.0313 -1.4420
  236TIP3    H2  715   6.196   5.362   3.927  1.1669 -0.2429  1.1397
  237TIP3   OH2  716   2.282   1.120   4.739 -0.3552  0.2213 -0.5269
  237TIP3    H1  717   2.276   1.059   4.812  1.1299  1.2024  0.4607
  237TIP3    H2  718   2.194   1.158   4.732 -0.2094  1.0948  1.6393
  238TIP3   OH2  719   5.126   4.609   1.984 -0.3019  0.1857 -0.0260
  238TIP3    H1  720   5.192   4.635   2.049  2.3474  0.3000 -2.5817
  238TIP3    H2  721   5.043   4.618   2.030  1.1936  3.0950  2.4597
  239TIP3   OH2  722   2.481   0.455   1.568 -0.1045 -0.0670 -0.2688
  239TIP3    H1  723   2.478   0.442   1.473 -0.1170  0.2334 -0.3097
  239TIP3    H2  724   2.532   0.381   1.601 -0.5687 -0.4739 -0.4532
  240TIP3   OH2  725   2.491   2.660   4.594  0.0402  0.2540  0.1135
  240TIP3    H1  726   2.430   2.700   4.532 -0.4057  0.1375  0.4672
  240TIP3    H2  727   2.557   2.617   4.540 -1.0060 -0.8785 -0.3128
  241TIP3   OH2  728   4.615   4.778   0.835  0.3382  0.0808  0.4548
  241TIP3    H1  729   4.603   4.863   0.879 -1.4659  0.1412 -0.0890
  241TIP3    H2  730   4.614   4.714   0.906 -0.7150  0.3303  0.6803
  242TIP3   OH2  731   1.910   3.073   4.088  0.0773  0.7023  0.0835
  242TIP3    H1  732   1.848   3.005   4.115  2.9602 -2.0960  0.2905
  242TIP3    H2  733   1.966   3.085   4.164  0.8215  1.9030 -0.6385
  243TIP3   OH2  734   2.589   4.671   4.902  0.3690  0.1582  0.1429
  243TIP3    H1  735   2.664   4.729   4.913  1.2871 -0.8027 -0.7396
  243TIP3    H2  736   2.549   4.698   4.820 -0.9113  1.3329  1.1040
  244TIP3   OH2  737   1.045   2.048   3.687  0.4374 -0.7821 -0.0108
  244TIP3    H1  738   0.985   2.095   3.744  0.4873 -1.8002  0.9020
  244TIP3    H2  739   1.113   2.015   3.745  1.4361 -0.3860 -0.9070
  245TIP3   OH2  740   1.801   5.779   2.705 -0.7423  0.1855 -0.1559
  245TIP3    H1  741   1.882   5.822   2.676 -0.7248  0.1753 -0.1220
  245TIP3    H2  742   1.823   5.686   2.708 -1.2333 -0.0139 -1.7644
  246TIP3   OH2  743   1.230   1.071   1.788  0.1050 -0.3028 -0.4743
  246TIP3    H1  744   1.304   1.106   1.836 -1.3873  2.0371  0.2856
  246TIP3    H2  745   1.226   1.124   1.708 -0.6240 -0.5595 -0.6169
  247TIP3   OH2  746   4.063   2.656   3.960  0.2554 -0.4196 -0.5076
  247TIP3    H1  747   4.094   2.741   3.992  0.3203  0.6435 -3.0774
  247TIP3    H2  748   3.975   2.648   3.995 -0.0806  1.1694 -0.8898
  248TIP3   OH2  749   4.538   1.283   3.393  0.6530  0.1208  0.2158
  248TIP3    H1  750   4.598   1.246   3.458  1.2984 -0.1818 -0.5384
  248TIP3    H2  751   4.488   1.208   3.361 -0.0393  0.3492  0.7284
  249TIP3   OH2  752   2.835   2.902   3.022  0.2587 -0.2788 -0.8821
  249TIP3    H1  753   2.746   2.900   2.985  0.3086  1.8223 -1.2014
  249TIP3    H2  754   2.822   2.904   3.117 -0.0675  0.7050 -0.9412
  250TIP3   OH2  755   2.598   4.296   3.393 -0.2114  0.3439  0.0016
  250TIP3    H1  756   2.580   4.306   3.300 -1.2817  1.1505  0.2833
  250TIP3    H2  757   2.641   4.211   3.400 -0.2739  0.2031 -1.2064
  251TIP3   OH2  758   0.609   3.436   3.512  0.1718 -0.1063  0.5935
  251TIP3    H1  759   0.646   3.361   3.558  1.6652  1.6040  2.3913
  251TIP3    H2  760   0.653   3.436   3.427 -1.8940 -2.7514 -0.6340
  252TIP3   OH2  761   0.677   5.728   1.841 -0.1236  0.1566 -0.0521
  252TIP3    H1  762   0.681   5.641   1.801  0.6808  0.3302 -0.3678
  252TIP3    H2  763   0.592   5.730   1.885  0.0639 -0.9725  0.3996
  253TIP3   OH2  764   1.460   2.650   5.033 -0.2948 -0.0377 -0.4522
  253TIP3    H1  765   1.419   2.728   5.069  0.9249  0.4270 -0.0178
  253TIP3    H2  766   1.387   2.591   5.014 -1.1860  0.9622 -0.2202
  254TIP3   OH2  767   0.248   3.932   4.040  0.1887 -0.5594 -0.5633
  254TIP3    H1  768   0.261   3.851   3.991  0.8859  0.1449 -1.5737
  254TIP3    H2  769   0.235   3.999   3.974 -2.0366 -0.0673  0.2778
  255TIP3   OH2  770   4.795   0.525   4.631  0.1752  0.2705  0.7975
  255TIP3    H1  771   4.700   0.536   4.620 -0.1510 -1.5539  1.3672
  255TIP3    H2  772   4.833   0.576   4.560 -1.2495  0.7262  0.3155
  256TIP3   OH2  773   5.268   2.007   4.334 -0.4256 -0.5622 -0.3564
  256TIP3    H1  774   5.297   2.013   4.243 -0.1231 -1.0063 -0.2906
  256TIP3    H2  775   5.183   1.962   4.330 -0.6951 -0.0540 -0.4677
  257TIP3   OH2  776   2.482   2.242   3.701  0.7001 -0.4340 -0.3880
  257TIP3    H1  777   2.388   2.227   3.691  0.7630 -0.6289 -0.6971
  257TIP3    H2  778   2.490   2.291   3.783  0.4660 -1.6952  0.4066
  258TIP3   OH2  779   2.074   4.562   1.770 -0.4553 -0.3338  0.2149
  258TIP3    H1  780   2.019   4.640   1.777  2.9776  2.3081  0.2695
  258TIP3    H2  781   2.112   4.567   1.682  0.6681 -1.3395  0.6098
  259TIP3   OH2  782   5.225   2.153   3.811  0.1470  0.0955 -0.4790
  259TIP3    H1  783   5.145   2.178   3.765  0.5103  1.4722 -0.4001
  259TIP3    H2  784   5.291   2.147   3.742 -0.4363 -3.4093 -0.9354
  260TIP3   OH2  785   0.837   2.532   4.732  0.1394 -0.1479  0.1057
  260TIP3    H1  786   0.747   2.501   4.739 -0.9372  1.9963 -2.5864
  260TIP3    H2  787   0.839   2.614   4.782  1.2724 -1.2177  1.9495
  261TIP3   OH2  788   0.467   4.158   4.794 -0.5058  0.2189 -0.6150
  261TIP3    H1  789   0.539   4.184   4.852 -1.3439  0.7607  0.2070
  261TIP3    H2  790   0.431   4.240   4.761 -0.7528 -0.0510 -1.0339
  262TIP3   OH2  791   2.719   4.914   0.820  0.1944  0.0254  0.0026
  262TIP3    H1  792   2.661   4.912   0.744 -0.5450 -1.7367  0.5502
  262TIP3    H2  793   2.676   4.972   0.882 -1.2988 -1.5802  0.5687
  263TIP3   OH2  794   3.238   1.800   1.815 -0.0417  0.3395 -0.3126
  263TIP3    H1  795   3.145   1.826   1.816 -0.0316  0.3846 -0.4868
  263TIP3    H2  796   3.236   1.705   1.820 -0.1536  0.2352 -1.8657
  264TIP3   OH2  797   3.718   1.967   0.712 -0.1597 -0.4007 -0.4686
  264TIP3    H1  798   3.769   2.040   0.748 -0.7314  0.3501 -1.1193
  264TIP3    H2  799   3.778   1.925   0.650  0.1039 -0.3427 -0.2567
  265TIP3   OH2  800   5.818   3.691   3.339  0.0136 -0.3110  0.0011
  265TIP3    H1  801   5.735   3.654   3.369 -1.4050  2.0149 -0.7879
  265TIP3    H2  802   5.813   3.783   3.364  1.9153  0.1086 -1.0114
  266TIP3   OH2  803   0.921   2.256   2.446 -0.2856 -0.3972  0.0531
  266TIP3    H1  804   0.927   2.263   2.541 -0.0029 -0.0697  0.0140
  266TIP3    H2  805   0.957   2.170   2.425 -0.1125 -0.3645  0.2193
  267TIP3   OH2  806   1.678   2.883   1.709  0.4254  0.0437 -0.6898
  267TIP3    H1  807   1.719   2.953   1.760  0.3194 -0.8214  0.6134
  267TIP3    H2  808   1.689   2.911   1.618  0.6193  1.6212 -0.2137
  268TIP3   OH2  809   2.532   5.876   4.833 -0.2574  0.0567 -0.2437
  268TIP3    H1  810   2.478   5.858   4.756  0.0016  0.3648 -0.4975
  268TIP3    H2  811   2.581   5.955   4.811  1.2412 -0.9161 -0.5143
  269TIP3   OH2  812   2.635   3.058   1.693  0.2295  0.2712 -0.8922
  269TIP3    H1  813   2.652   2.988   1.630 -0.5019  2.3533 -3.5622
  269TIP3    H2  814   2.690   3.036   1.768  1.3845 -2.1888 -2.3343
  270TIP3   OH2  815   5.599   4.622   3.405  0.3897 -0.6763  0.1612
  270TIP3    H1  816   5.597   4.652   3.496 -0.9594  1.7863 -0.5646
  270TIP3    H2  817   5.597   4.526   3.410  3.3745 -0.7167  2.6992
  271TIP3   OH2  818   2.532   5.322   4.855 -0.6629 -0.2401  0.4227
  271TIP3    H1  819   2.474   5.379   4.805 -2.3681 -2.4834 -0.3273
  271TIP3    H2  820   2.559   5.375   4.931 -0.6987  2.0994 -1.1075
  272TIP3   OH2  821   3.604   4.096   1.214 -0.4099 -0.2058  0.2759
  272TIP3    H1  822   3.688   4.140   1.214  0.6598 -2.0254 -1.4911
  272TIP3    H2  823   3.609   4.034   1.286 -0.1047 -0.4849  0.0207
  273TIP3   OH2  824   3.583   2.207   0.468 -0.4657 -0.2395  0.0224
  273TIP3    H1  825   3.576   2.277   0.403 -0.7277 -0.7509 -0.5067
  273TIP3    H2  826   3.503   2.217   0.521 -0.1005  0.3717  0.4740
  274TIP3   OH2  827   3.043   2.332   4.133 -0.1745  0.1771 -0.1527
  274TIP3    H1  828   3.055   2.421   4.166  1.1872 -0.0085 -0.0921
  274TIP3    H2  829   3.083   2.333   4.046 -0.8702 -0.1676 -0.4812
  275TIP3   OH2  830   5.021   1.954   3.260 -0.1841  0.4279 -0.5191
  275TIP3    H1  831   5.026   1.867   3.221 -0.5363  0.1410  0.0726
  275TIP3    H2  832   4.983   2.009   3.191 -0.2899  0.0423 -0.7701
  276TIP3   OH2  833   3.241   5.785   0.072  0.4643 -0.0924 -0.0904
  276TIP3    H1  834   3.312   5.843   0.043  0.9116 -1.0936 -1.0521
  276TIP3    H2  835   3.162   5.823   0.034  0.3213  1.4842  1.6360
  277TIP3   OH2  836   6.124   2.661   1.958  0.4376  0.3648  0.2730
  277TIP3    H1  837   6.055   2.718   1.992  1.3056  1.7060 -0.1247
  277TIP3    H2  838   6.202   2.717   1.954  0.6858 -0.0304 -2.7688
  278TIP3   OH2  839   5.926   5.223   4.126 -0.9902  0.4917  0.2497
  278TIP3    H1  840   5.991   5.234   4.057 -1.0650 -0.4408  0.0124
  278TIP3    H2  841   5.978   5.199   4.203 -0.8145  2.4753  0.8014
  279TIP3   OH2  842   0.086   1.871   1.210 -0.1682  0.6485  0.3611
  279TIP3    H1  843   0.150   1.878   1.280  0.1256  0.2915  0.1298
  279TIP3    H2  844   0.042   1.956   1.210 -0.8009  0.3425  1.5663
  280TIP3   OH2  845   5.777   4.083   2.686 -0.5292 -0.7710 -0.0253
  280TIP3    H1  846   5.786   4.083   2.781 -0.9634 -0.8469  0.0178
  280TIP3    H2  847   5.867   4.078   2.653 -0.2366  1.1449  0.3734
  281TIP3   OH2  848   3.796   0.331   0.646 -0.5500  0.4523 -0.5633
  281TIP3    H1  849   3.887   0.309   0.666 -0.6225  0.2007 -0.5049
  281TIP3    H2  850   3.753   0.246   0.631 -0.7154  0.5855 -0.8439
  282TIP3   OH2  851   3.757   3.563   1.378 -1.0022 -0.0842 -0.3098
  282TIP3    H1  852   3.817   3.636   1.361 -1.6707  0.4822 -0.3115
  282TIP3    H2  853   3.792   3.519   1.455 -0.3232 -0.0485 -0.5988
  283TIP3   OH2  854   5.820   3.364   1.360  0.3614 -0.4711  0.1802
  283TIP3    H1  855   5.888   3.340   1.297 -0.2931 -0.8712 -0.3822
  283TIP3    H2  856   5.747   3.304   1.342 -0.0930 -0.1430  0.8672
  284TIP3   OH2  857   1.856   5.351   3.266  0.1689  0.1314 -0.6056
  284TIP3    H1  858   1.901   5.380   3.186 -3.3097  0.8561 -2.5090
  284TIP3    H2  859   1.791   5.419   3.283  0.4389 -0.2684  2.6406
  285TIP3   OH2  860   1.458   0.957   5.052  0.2691  0.5443 -0.0585
  285TIP3    H1  861   1.488   1.033   5.004  0.1100 -0.5340 -1.9745
  285TIP3    H2  862   1.443   0.890   4.985  0.7126 -1.2904  1.5568
  286TIP3   OH2  863   2.841   5.241   4.936 -0.2678 -0.1713  0.6129
  286TIP3    H1  864   2.878   5.328   4.943  1.9102 -1.0357  0.4477
  286TIP3    H2  865   2.764   5.252   4.880  0.2300  1.5571  0.2209
  287TIP3   OH2  866   0.099   0.108   2.051 -0.0545  0.1640  0.2121
  287TIP3    H1  867   0.148   0.172   1.998 -1.7667  1.5018  0.1615
  287TIP3    H2  868   0.158   0.087   2.123  1.4505  0.0297 -1.0127
  288TIP3   OH2  869   1.720   0.556   3.074  0.1123  0.5175  0.0839
  288TIP3    H1  870   1.781   0.573   3.002 -0.7481  1.6571 -0.4116
  288TIP3    H2  871   1.736   0.465   3.098  2.5635  0.9806  0.5172
  289TIP3   OH2  872   0.639   3.889   0.640  0.2704 -0.0532  0.0677
  289TIP3    H1  873   0.629   3.956   0.572  0.3084  0.3056  0.4085
  289TIP3    H2  874   0.731   3.863   0.634 -0.5521 -2.8878 -2.6351
  290TIP3   OH2  875   5.189   3.286   2.027 -0.0869  0.1590  0.1708
  290TIP3    H1  876   5.177   3.373   2.064  1.4316  0.0273  1.0462
  290TIP3    H2  877   5.273   3.256   2.061  0.1271 -1.0633 -1.3000
  291TIP3   OH2  878   1.421   0.486   0.065 -0.0614 -0.6730 -0.1826
  291TIP3    H1  879   1.426   0.429   0.142  1.3974  0.1002  0.3308
  291TIP3    H2  880   1.509   0.481   0.026 -0.8456 -1.2638 -1.9743
  292TIP3   OH2  881   4.353   1.173   3.020 -0.3504 -0.2224  0.5611
  292TIP3    H1  882   4.417   1.161   2.950 -0.9304  3.1222 -0.7023
  292TIP3    H2  883   4.400   1.151   3.100  1.6117 -0.1805 -0.5298
  293TIP3   OH2  884   6.042   2.337   2.817 -0.1399  0.3756 -0.2696
  293TIP3    H1  885   6.070   2.412   2.764 -0.8760  1.0235  0.2293
  293TIP3    H2  886   5.956   2.313   2.784 -0.0411 -0.0563 -0.2244
  294TIP3   OH2  887   5.080   2.701   3.358  0.4685 -0.3065  0.3806
  294TIP3    H1  888   5.051   2.792   3.358 -0.3095 -0.5478 -0.0192
  294TIP3    H2  889   5.019   2.656   3.299 -1.3344 -1.7440  3.0857
  295TIP3   OH2  890   0.864   0.131   5.094  0.0476 -0.4683 -0.2599
  295TIP3    H1  891   0.912   0.206   5.058  0.6750 -0.7061  0.0591
  295TIP3    H2  892   0.783   0.167   5.128  0.2701  0.0404 -0.2673
  296TIP3   OH2  893   3.709   1.968   4.258  0.0729  0.1771 -0.3144
  296TIP3    H1  894   3.630   1.971   4.203 -0.2821  0.8133  0.2184
  296TIP3    H2  895   3.766   1.905   4.214 -0.6474 -0.1390 -0.8235
  297TIP3   OH2  896   2.575   2.638   1.927  0.4772 -0.6590 -0.9075
  297TIP3    H1  897   2.633   2.562   1.923 -2.0481 -2.6892 -1.3611
  297TIP3    H2  898   2.533   2.631   2.013  1.9956  1.7374  0.1339
  298TIP3   OH2  899   3.861   5.382   3.182 -0.1566 -0.1117 -0.1665
  298TIP3    H1  900   3.805   5.460   3.174 -0.9623 -0.7043 -0.4613
  298TIP3    H2  901   3.867   5.366   3.276  1.2672  1.1694  0.0041
  299TIP3   OH2  902   3.899   5.716   1.737  0.3227 -0.4464  0.2739
  299TIP3    H1  903   3.828   5.653   1.752 -0.4489  0.5735  1.0801
  299TIP3    H2  904   3.903   5.725   1.642 -0.3190 -0.8649  0.1985
  300TIP3   OH2  905   6.305   2.173   3.468  0.1370  0.0848  0.4069
  300TIP3    H1  906   6.353   2.090   3.475  0.9858  0.5539  0.2471
  300TIP3    H2  907   6.370   2.240   3.489  0.0502  0.8571 -1.6387
  301TIP3   OH2  908   4.718   3.525   0.224  0.5996  0.4462  0.1711
  301TIP3    H1  909   4.755   3.613   0.221 -0.1283  0.9234  2.6564
  301TIP3    H2  910   4.764   3.477   0.156  0.9097  2.7613 -1.3686
  302TIP3   OH2  911   5.954   0.826   2.665 -0.3958 -0.3601 -0.8960
  302TIP3    H1  912   5.972   0.887   2.593  0.1487 -1.4372 -1.7140
  302TIP3    H2  913   5.895   0.762   2.627 -0.4786 -0.6856 -0.2320
  303TIP3   OH2  914   0.281   2.326   1.915 -0.7531  0.4633 -0.3531
  303TIP3    H1  915   0.367   2.306   1.879  1.1113  2.6776  2.3849
  303TIP3    H2  916   0.248   2.398   1.861 -0.3850  0.3290 -0.7610
  304TIP3   OH2  917   3.703   4.280   3.072  0.0443  0.4821  0.3899
  304TIP3    H1  918   3.643   4.238   3.011  0.5422 -1.4856  1.1913
  304TIP3    H2  919   3.655   4.358   3.103 -1.1411  0.2230 -0.7062
  305TIP3   OH2  920   1.963   2.815   1.490 -0.0821  0.0234 -0.2063
  305TIP3    H1  921   1.880   2.859   1.471 -0.4238  0.4617  1.9667
  305TIP3    H2  922   1.937   2.731   1.528  0.5612 -1.5157 -2.9101
  306TIP3   OH2  923   2.404   2.219   0.084 -0.1804 -0.4090 -0.2437
  306TIP3    H1  924   2.459   2.140   0.088 -0.0144 -0.2781  0.1067
  306TIP3    H2  925   2.413   2.259   0.171  0.8111  0.7343 -0.8571
  307TIP3   OH2  926   5.490   1.358   2.929  0.1640  0.0877  0.0183
  307TIP3    H1  927   5.504   1.267   2.954  1.9664  0.0523 -0.9613
  307TIP3    H2  928   5.528   1.365   2.841  0.0012  1.7616  0.0512
  308TIP3   OH2  929   5.661   1.507   0.282 -0.4808 -0.1389  0.2602
  308TIP3    H1  930   5.570   1.479   0.268 -0.0906 -1.3719  0.0354
  308TIP3    H2  931   5.670   1.513   0.377 -1.0748  1.0065  0.2583
  309TIP3   OH2  932   5.766   0.253   1.014 -0.0419  0.1713  0.1502
  309TIP3    H1  933   5.678   0.215   1.009 -0.5433  1.2398  0.5532
  309TIP3    H2  934   5.757   0.327   1.074  0.9455  0.8189 -0.4628
  310TIP3   OH2  935   3.213   5.437   1.328  0.2375 -0.1612 -0.4094
  310TIP3    H1  936   3.160   5.417   1.406 -0.2234  0.4615 -0.5541
  310TIP3    H2  937   3.287   5.487   1.361 -0.6871  1.3444 -0.5140
  311TIP3   OH2  938   3.955   2.706   1.389 -0.2128 -0.5121 -0.0568
  311TIP3    H1  939   3.866   2.684   1.360  0.1113  0.1505 -1.6434
  311TIP3    H2  940   3.973   2.791   1.348  0.8403 -0.2227  0.9574
  312TIP3   OH2  941   3.287   5.193   0.036  0.1746 -0.1643 -0.7953
  312TIP3    H1  942   3.324   5.161   0.119 -0.5550 -2.3356 -1.2292
  312TIP3    H2  943   3.250   5.279   0.058 -1.0905 -1.1747  1.4981
  313TIP3   OH2  944   2.890   3.285   3.299  0.4660  0.1249 -0.7849
  313TIP3    H1  945   2.880   3.210   3.358  0.8017  0.1773 -0.6543
  313TIP3    H2  946   2.915   3.357   3.357  0.3712  0.2804 -0.9380
  314TIP3   OH2  947   2.349   5.672   3.337 -0.8060 -0.3478  0.5287
  314TIP3    H1  948   2.432   5.635   3.308  0.5264  2.0532  1.0917
  314TIP3    H2  949   2.284   5.634   3.278  1.0037 -0.3287 -1.5857
  315TIP3   OH2  950   5.732   5.355   1.601 -0.0960 -0.6726  0.2050
  315TIP3    H1  951   5.646   5.394   1.582 -0.4085 -0.7138  1.4487
  315TIP3    H2  952   5.712   5.264   1.622  0.3806 -0.9441 -0.5059
  316TIP3   OH2  953   0.570   1.956   0.770  0.3825  0.0081 -0.2709
  316TIP3    H1  954   0.632   1.916   0.830  0.0336  0.8105  0.6588
  316TIP3    H2  955   0.617   1.963   0.687  0.3943 -2.4301 -0.5368
  317TIP3   OH2  956   2.398   5.683   2.584 -0.2002 -0.4409 -0.6424
  317TIP3    H1  957   2.398   5.625   2.660 -0.2896  0.2164 -0.1316
  317TIP3    H2  958   2.486   5.675   2.547 -0.6385 -1.9833 -1.4312
  318TIP3   OH2  959   3.790   4.358   1.349 -0.8048  0.3755 -0.2657
  318TIP3    H1  960   3.726   4.314   1.405 -1.0512 -1.6045 -1.9785
  318TIP3    H2  961   3.866   4.299   1.348 -1.0964 -0.0831 -2.5273
  319TIP3   OH2  962   0.577   0.019   0.836 -0.2727 -0.6388  0.4128
  319TIP3    H1  963   0.665  -0.009   0.861 -0.5143 -1.2815  0.5789
  319TIP3    H2  964   0.542   0.062   0.915 -0.0724 -0.2941  0.3139
  320TIP3   OH2  965   0.612   2.580   3.151  0.8414  0.1838  0.1373
  320TIP3    H1  966   0.561   2.501   3.135 -0.5886  0.9099  0.8837
  320TIP3    H2  967   0.672   2.587   3.077 -1.5896  0.4117 -1.9357
  321TIP3   OH2  968   4.117   5.915   4.381 -0.2930 -0.0837 -0.2972
  321TIP3    H1  969   4.152   5.903   4.293  0.0806  2.8219 -0.6390
  321TIP3    H2  970   4.022   5.916   4.370 -0.5948 -4.2801  0.1197
  322TIP3   OH2  971   2.327   3.854   0.661 -0.4089 -0.0573  0.0433
  322TIP3    H1  972   2.302   3.781   0.717  2.4593 -0.2467  1.2521
  322TIP3    H2  973   2.306   3.932   0.713 -1.5280 -0.0626 -0.3759
  323TIP3   OH2  974   0.113   3.501   1.891 -0.2871  0.6901 -0.6221
  323TIP3    H1  975   0.061   3.421   1.877 -0.4847  0.9184 -1.1820
  323TIP3    H2  976   0.204   3.473   1.879 -0.0207 -0.2425  2.5501
  324TIP3   OH2  977   2.601   0.422   2.046 -0.7169  0.5152 -0.1182
  324TIP3    H1  978   2.521   0.475   2.051 -0.2586  1.4536 -2.0800
  324TIP3    H2  979   2.669   0.476   2.085 -0.7999  0.1606  0.5386
  325TIP3   OH2  980   3.707   3.125   1.759  0.2440 -0.1053  0.6208
  325TIP3    H1  981   3.686   3.173   1.679  1.3487  0.6339  0.7579
  325TIP3    H2  982   3.795   3.091   1.744 -0.2518 -1.5373  0.8002
  326TIP3   OH2  983   1.143   3.855   2.861  0.9118 -0.0002  0.0419
  326TIP3    H1  984   1.095   3.774   2.848  0.3055  0.5095 -1.0929
  326TIP3    H2  985   1.155   3.890   2.772  1.0524  1.1939  0.5122
  327TIP3   OH2  986   1.004   3.634   2.330 -0.0048  0.2453  0.1672
  327TIP3    H1  987   1.091   3.669   2.348 -0.1697  1.0613 -0.5434
  327TIP3    H2  988   0.948   3.712   2.323 -0.4849 -0.1776 -0.8931
  328TIP3   OH2  989   5.332   4.406   1.694  0.1036  0.9254  0.4074
  328TIP3    H1  990   5.393   4.479   1.687  1.1697 -0.0806 -2.2403
  328TIP3    H2  991   5.388   4.329   1.705 -0.8058  0.1901  0.0524
  329TIP3   OH2  992   0.973   1.113   2.655  0.1600 -0.2618 -0.0333
  329TIP3    H1  993   0.956   1.105   2.749 -0.4435 -2.0103 -0.2573
  329TIP3    H2  994   0.919   1.187   2.627  0.3938  0.3164  0.9835
  330TIP3   OH2  995   1.525   4.897   2.139  0.2210  0.1483 -0.1068
  330TIP3    H1  996   1.475   4.816   2.130  0.2418 -0.2029  2.1978
  330TIP3    H2  997   1.459   4.965   2.153  0.2734 -0.0059  1.0123
  331TIP3   OH2  998   5.022   4.652   5.113 -0.0104  0.4157  0.2027
  331TIP3    H1  999   5.029   4.701   5.031  2.2707 -0.1550 -0.0208
  331TIP3    H2 1000   5.008   4.561   5.086 -0.7281  0.4299  0.5047
  332TIP3   OH2 1001   5.457   3.227   2.976 -0.6533 -0.5195  0.0147
  332TIP3    H1 1002   5.474   3.190   2.890 -0.4731  0.4767 -0.3911
  332TIP3    H2 1003   5.478   3.156   3.037 -2.7733 -1.9401 -0.8129
  333TIP3   OH2 1004   3.815   5.587   4.583  0.6147  0.1640  0.1647
  333TIP3    H1 1005   3.760   5.511   4.602 -0.3579  0.9607  0.5882
  333TIP3    H2 1006   3.885   5.583   4.648 -1.0173  1.1879  2.0828
  334TIP3   OH2 1007   0.809   4.885   0.847  0.6083 -0.2937  0.1755
  334TIP3    H1 1008   0.888   4.845   0.884  2.6587  1.9445 -1.4880
  334TIP3    H2 1009   0.805   4.852   0.757 -1.6620 -2.0219  0.8035
  335TIP3   OH2 1010   2.049   0.686   1.035  0.6088  0.4447  0.2465
  335TIP3    H1 1011   1.961   0.658   1.063  0.3793  0.2851 -0.6108
  335TIP3    H2 1012   2.081   0.741   1.107  0.0075  0.1015  0.7873
  336TIP3   OH2 1013   3.007   4.647   3.068 -0.4788  0.1701 -0.2923
  336TIP3    H1 1014   3.058   4.726   3.084 -0.1999 -0.1295  0.3357
  336TIP3    H2 1015   3.025   4.591   3.143 -2.4019  0.3954  0.4053
  337TIP3   OH2 1016   2.382   5.382   0.304  0.1947 -0.0125  0.1043
  337TIP3    H1 1017   2.374   5.287   0.317  2.2728 -0.2533 -0.0048
  337TIP3    H2 1018   2.324   5.420   0.369 -2.2106 -1.3276 -1.1135
  338TIP3   OH2 1019   4.995   4.040   3.326  0.3968  0.0617 -0.3500
  338TIP3    H1 1020   4.913   3.998   3.352  1.1313 -0.6552  0.9341
  338TIP3    H2 1021   5.042   3.974   3.276  2.2775 -1.4382  3.0544
  339TIP3   OH2 1022   4.771   2.190   2.107 -0.2753  0.5906 -0.3553
  339TIP3    H1 1023   4.739   2.270   2.064 -0.5025  0.2583 -0.8004
  339TIP3    H2 1024   4.716   2.120   2.073 -0.1594  0.2568  0.1357
  340TIP3   OH2 1025   5.864   0.394   1.966 -0.5751  0.0047 -0.1052
  340TIP3    H1 1026   5.800   0.381   2.037  0.4077  0.7273  0.9599
  340TIP3    H2 1027   5.892   0.306   1.943  0.3456 -0.2106  1.6372
  341TIP3   OH2 1028   5.022   4.718   4.845 -0.0664 -0.0064 -0.2078
  341TIP3    H1 1029   4.989   4.770   4.772  0.6957 -0.8833 -1.1845
  341TIP3    H2 1030   5.069   4.645   4.805 -0.8979 -1.3493  1.1217
  342TIP3   OH2 1031   4.352   5.189   4.777  0.0759  0.3202  0.1343
  342TIP3    H1 1032   4.369   5.212   4.868  1.0352  0.8981 -0.1749
  342TIP3    H2 1033   4.373   5.268   4.728 -0.0051 -0.1211 -0.6336
  343TIP3   OH2 1034   4.086   3.703   4.207  0.0389 -0.6174  0.0745
  343TIP3    H1 1035   4.059   3.627   4.258 -0.6344 -0.0615  0.5690
  343TIP3    H2 1036   4.052   3.778   4.256  1.3768  0.0520  0.0435
  344TIP3   OH2 1037   5.778   4.103   0.930  0.3002 -0.1908  0.4459
  344TIP3    H1 1038   5.820   4.018   0.947  0.6913 -0.4611 -1.6863
  344TIP3    H2 1039   5.754   4.135   1.017  2.6410 -1.1912  1.5433
  345TIP3   OH2 1040   1.511   3.734   2.215  0.6059 -0.2000 -0.3275
  345TIP3    H1 1041   1.529   3.642   2.238 -2.1856 -0.7799 -0.0012
  345TIP3    H2 1042   1.446   3.728   2.145 -1.4991  1.4352  1.3487
  346TIP3   OH2 1043   2.577   4.338   4.926  0.3243 -0.1774  0.1288
  346TIP3    H1 1044   2.574   4.246   4.953  0.8777 -0.2959 -0.1837
  346TIP3    H2 1045   2.578   4.334   4.830 -1.3259  0.2207  0.0741
  347TIP3   OH2 1046  -0.011   5.746   4.851  0.0330 -0.2506 -0.5752
  347TIP3    H1 1047   0.006   5.837   4.874 -2.1560  0.3343 -1.0203
  347TIP3    H2 1048   0.072   5.714   4.815  0.7964  1.6035 -0.5746
  348TIP3   OH2 1049   4.519   4.741   4.085  0.4056  0.0516 -0.3660
  348TIP3    H1 1050   4.593   4.707   4.136 -1.2442 -1.3139  1.3100
  348TIP3    H2 1051   4.542   4.832   4.067  2.0854 -0.0595  0.9117
  349TIP3   OH2 1052   1.926   4.758   1.311 -0.2826  0.4214 -0.2315
  349TIP3    H1 1053   1.855   4.820   1.327  0.9473  1.9321 -0.4659
  349TIP3    H2 1054   1.974   4.795   1.237  2.0789  0.6463  1.3137
  350TIP3   OH2 1055   5.473   0.010   2.621  0.0126 -0.1632 -0.1585
  350TIP3    H1 1056   5.405   0.006   2.688  0.8863 -0.7557  0.7147
  350TIP3    H2 1057   5.454   0.090   2.571 -0.4170  0.5070  1.0532
  351TIP3   OH2 1058   2.249   1.166   0.436 -0.3037 -0.2999  0.1204
  351TIP3    H1 1059   2.255   1.179   0.531  0.1959 -0.6926  0.1487
  351TIP3    H2 1060   2.161   1.197   0.413 -0.1577  0.5114  0.5918
  352TIP3   OH2 1061   1.846   3.980   4.882 -0.5427 -0.7540 -0.2956
  352TIP3    H1 1062   1.923   3.925   4.868 -1.1629 -1.4857 -0.8657
  352TIP3    H2 1063   1.871   4.038   4.955  1.5232  0.8428 -2.1360
  353TIP3   OH2 1064   4.252   1.072   1.164  0.4053 -1.3537 -0.2127
  353TIP3    H1 1065   4.257   0.986   1.120  2.4795 -1.6951  0.5456
  353TIP3    H2 1066   4.307   1.129   1.109  1.4359 -1.2969  0.8353
  354TIP3   OH2 1067   1.061   4.494   4.494 -0.3337  0.5821 -0.0723
  354TIP3    H1 1068   1.007   4.423   4.459 -0.6942  0.7705  0.0952
  354TIP3    H2 1069   1.007   4.572   4.485 -0.5044  0.6136  1.0269
  355TIP3   OH2 1070   4.282   3.474   3.002  0.5863 -0.3336 -0.6695
  355TIP3    H1 1071   4.299   3.558   3.044  0.5161 -0.4486 -0.4095
  355TIP3    H2 1072   4.350   3.416   3.035 -0.2672 -0.7875  0.3519
  356TIP3   OH2 1073   3.701   2.786   0.802 -0.2884 -0.1279  0.3738
  356TIP3    H1 1074   3.696   2.874   0.766  2.7552 -0.0899 -0.1980
  356TIP3    H2 1075   3.632   2.737   0.756 -2.2494  1.9472  0.9407
  357TIP3   OH2 1076   0.440   4.777   4.989  0.3722 -0.0815 -0.6107
  357TIP3    H1 1077   0.431   4.708   4.923 -1.4878  0.2108 -0.7204
  357TIP3    H2 1078   0.448   4.729   5.072  1.2352 -0.4335 -0.8839
  358TIP3   OH2 1079   0.483   0.831   2.253  0.0059 -0.4613 -0.4157
  358TIP3    H1 1080   0.548   0.787   2.307  0.5340 -0.6178 -1.1668
  358TIP3    H2 1081   0.497   0.924   2.268 -1.0577 -0.5057  1.1151
  359TIP3   OH2 1082   5.621   3.755   4.233 -0.1810  0.3683  0.3371
  359TIP3    H1 1083   5.657   3.678   4.189  0.0072  1.0616 -0.7741
  359TIP3    H2 1084   5.527   3.738   4.239 -0.2657  0.4007 -0.6841
  360TIP3   OH2 1085   4.647   2.702   4.827  0.0270 -0.2387  0.8133
  360TIP3    H1 1086   4.655   2.653   4.745  0.6398  1.4289 -0.1749
  360TIP3    H2 1087   4.588   2.650   4.881 -2.0442 -0.4012 -1.4533
  361TIP3   OH2 1088   5.701   4.117   1.960 -0.3651  0.6645  0.0474
  361TIP3    H1 1089   5.682   4.074   2.044 -0.2849 -0.5688 -0.5562
  361TIP3    H2 1090   5.757   4.191   1.984  1.2524 -0.7657  0.9054
  362TIP3   OH2 1091   5.223   5.882   2.521 -0.2355 -0.0564  0.1853
  362TIP3    H1 1092   5.290   5.895   2.589  1.7560 -1.6502 -1.3558
  362TIP3    H2 1093   5.270   5.843   2.448 -2.4742  0.7979 -1.8428
  363TIP3   OH2 1094   6.233   5.383   0.141  0.1687  0.5910 -0.4379
  363TIP3    H1 1095   6.289   5.396   0.065 -1.1652  2.1754 -1.2260
  363TIP3    H2 1096   6.264   5.448   0.205 -0.2285  0.9190 -0.5709
  364TIP3   OH2 1097   4.757   3.178   3.115  0.0891 -0.4753  0.5999
  364TIP3    H1 1098   4.810   3.210   3.188 -0.6295 -0.6942  1.2457
  364TIP3    H2 1099   4.678   3.143   3.158 -1.9884  2.4920 -0.4257
  365TIP3   OH2 1100   3.953   2.034   2.818  0.4913  0.2281 -0.4308
  365TIP3    H1 1101   4.026   1.975   2.806  0.6055  0.1676  0.5115
  365TIP3    H2 1102   3.903   1.997   2.891 -0.3401  0.4020 -0.8969
  366TIP3   OH2 1103   3.635   1.155   3.110 -0.2801 -0.0593  0.5076
  366TIP3    H1 1104   3.592   1.237   3.133  0.2750  0.1743  0.7276
  366TIP3    H2 1105   3.717   1.156   3.159  0.4715 -0.0102 -0.6846
  367TIP3   OH2 1106   3.697   4.702   2.579  0.3208 -0.3812  0.1837
  367TIP3    H1 1107   3.615   4.730   2.538 -0.4301 -0.9215  1.2775
  367TIP3    H2 1108   3.689   4.607   2.586  1.0627 -0.4447  0.2810
  368TIP3   OH2 1109   4.850   4.416   5.099  0.1084  0.3131  0.2277
  368TIP3    H1 1110   4.822   4.429   5.190 -0.3386  0.1035  0.1237
  368TIP3    H2 1111   4.777   4.448   5.047  0.5399  0.8216 -0.0696
  369TIP3   OH2 1112   2.263   2.788   4.437  0.2954  0.8335 -0.0173
  369TIP3    H1 1113   2.293   2.825   4.355  0.3991 -0.6940 -0.7072
  369TIP3    H2 1114   2.216   2.708   4.412 -0.4450  0.7982  1.3457
  370TIP3   OH2 1115   2.547   5.073   1.925  0.0720  0.5614  0.2407
  370TIP3    H1 1116   2.525   5.164   1.904 -1.2941  0.0025 -0.9577
  370TIP3    H2 1117   2.535   5.067   2.020 -0.9539  1.3616  0.1778
  371TIP3   OH2 1118   6.172   5.374   4.774 -0.0112 -0.2131  0.9577
  371TIP3    H1 1119   6.248   5.354   4.720 -0.1529  1.5908  0.0187
  371TIP3    H2 1120   6.207   5.384   4.863  0.4530 -1.7273  0.9711
  372TIP3   OH2 1121   5.801   0.895   4.212  0.6647  0.6841  0.0801
  372TIP3    H1 1122   5.787   0.826   4.277  0.1520  0.6588 -0.0525
  372TIP3    H2 1123   5.895   0.893   4.196  0.3058 -3.1436 -3.3343
  373TIP3   OH2 1124   0.262   1.685   2.001  0.1067  0.1765 -0.4565
  373TIP3    H1 1125   0.253   1.613   1.939  0.4691  1.2563 -1.8449
  373TIP3    H2 1126   0.336   1.737   1.966 -1.6586  2.5372 -0.9615
  374TIP3   OH2 1127   0.477   0.856   4.068 -0.2685 -0.5016  0.3380
  374TIP3    H1 1128   0.442   0.892   3.986 -1.6268  0.8122  1.4465
  374TIP3    H2 1129   0.572   0.858   4.056 -0.4143 -2.3096 -1.9901
  375TIP3   OH2 1130   3.673   3.622   4.916 -0.6785  0.0630 -0.5402
  375TIP3    H1 1131   3.655   3.657   4.829 -1.4058  2.2867  0.4392
  375TIP3    H2 1132   3.604   3.657   4.972 -1.3622 -2.8524  0.6394
  376TIP3   OH2 1133   4.223   1.538   0.729  0.0752 -0.1268  0.2412
  376TIP3    H1 1134   4.217   1.450   0.692  1.7147 -0.3794  0.5077
  376TIP3    H2 1135   4.296   1.579   0.682 -0.6899  1.1196  0.0977
  377TIP3   OH2 1136   6.040   4.448   4.876  0.2541  0.2118  0.8197
  377TIP3    H1 1137   5.952   4.421   4.848  1.1877  0.3033 -2.7140
  377TIP3    H2 1138   6.091   4.367   4.874  0.7934  0.5572  0.2965
  378TIP3   OH2 1139   3.336   4.781   1.153  0.0280 -0.4106  0.4486
  378TIP3    H1 1140   3.332   4.689   1.180 -1.0226 -0.2341  0.9424
  378TIP3    H2 1141   3.366   4.827   1.232 -1.4625 -0.0934  0.8670
  379TIP3   OH2 1142   1.965   4.851   2.464 -0.3756  0.2162  0.3152
  379TIP3    H1 1143   1.937   4.772   2.509 -0.9621  0.4650  0.3888
  379TIP3    H2 1144   1.910   4.920   2.499  0.4720  0.7564  0.6281
  380TIP3   OH2 1145   0.972   1.342   3.079 -0.1389 -0.1411  0.6968
  380TIP3    H1 1146   1.017   1.258   3.092 -1.4333 -1.0277 -0.3122
  380TIP3    H2 1147   0.953   1.345   2.985 -3.2911 -0.4674  1.2022
  381TIP3   OH2 1148   3.001   0.672   0.410 -0.9011  0.3981 -0.3145
  381TIP3    H1 1149   2.993   0.694   0.503 -1.7148 -0.6987 -0.1007
  381TIP3    H2 1150   2.911   0.655   0.382 -0.4996 -0.8833 -0.8873
  382TIP3   OH2 1151   2.892   2.199   2.233 -0.7856  0.6354  0.2408
  382TIP3    H1 1152   2.914   2.208   2.326  0.2898 -0.3556  0.1049
  382TIP3    H2 1153   2.814   2.145   2.232 -0.1015 -0.3828  0.5397
  383TIP3   OH2 1154   6.056   5.242   2.183  0.3804  0.5146  0.1410
  383TIP3    H1 1155   5.993   5.311   2.162 -0.0460  1.0602  2.8272
  383TIP3    H2 1156   6.137   5.288   2.204 -0.1337  0.3869  2.7583
  384TIP3   OH2 1157   1.857   4.700   3.734  0.5384  0.0927  0.8570
  384TIP3    H1 1158   1.787   4.685   3.671 -0.2303  0.0121  1.7194
  384TIP3    H2 1159   1.867   4.796   3.735  0.7335  0.0831  0.4401
  385TIP3   OH2 1160   5.753   4.630   2.826  0.8111  0.3379  0.2037
  385TIP3    H1 1161   5.845   4.647   2.847  1.4460 -1.7515 -0.6745
  385TIP3    H2 1162   5.719   4.586   2.903  1.4298 -1.6567 -0.6083
  386TIP3   OH2 1163   2.802   5.245   3.346  0.5735 -0.4462 -0.0801
  386TIP3    H1 1164   2.717   5.272   3.381  0.1372 -1.7791 -0.0765
  386TIP3    H2 1165   2.785   5.222   3.255  1.2067  0.5594 -0.4662
  387TIP3   OH2 1166   2.678   4.744   2.647 -0.0567 -0.7774  0.6127
  387TIP3    H1 1167   2.683   4.840   2.652  1.6261 -0.7090 -1.1272
  387TIP3    H2 1168   2.587   4.724   2.668  0.0508  0.9765  3.3188
  388TIP3   OH2 1169   2.909   2.120   4.869 -0.5070 -0.4057  0.4442
  388TIP3    H1 1170   2.857   2.050   4.830 -0.3424 -0.9458  1.1590
  388TIP3    H2 1171   2.886   2.118   4.962 -1.3567  1.2547  0.2965
  389TIP3   OH2 1172   2.353   3.037   1.555  0.1332  0.3414 -0.5703
  389TIP3    H1 1173   2.400   3.062   1.635 -0.8911  0.7255 -0.0559
  389TIP3    H2 1174   2.326   2.946   1.570  0.0224  0.3827 -0.5183
  390TIP3   OH2 1175   2.479   3.442   4.000  0.5438 -0.1169 -0.0873
  390TIP3    H1 1176   2.405   3.473   4.052  1.6068  1.1032  0.7725
  390TIP3    H2 1177   2.443   3.427   3.913 -0.6593  0.7356  0.2383
  391TIP3   OH2 1178   5.518   3.491   0.665 -0.2462 -0.8305  0.2169
  391TIP3    H1 1179   5.604   3.516   0.630 -0.8985 -1.5976 -2.1237
  391TIP3    H2 1180   5.471   3.573   0.674 -0.4739 -0.6439 -2.0621
  392TIP3   OH2 1181   3.531   4.571   2.921 -0.1643 -0.0968  0.0773
  392TIP3    H1 1182   3.453   4.541   2.875  0.1686 -0.7648 -0.0608
  392TIP3    H2 1183   3.532   4.666   2.908 -2.1393  0.2615  1.9113
  393TIP3   OH2 1184   5.165   0.319   4.933  0.0163  0.4231  0.0256
  393TIP3    H1 1185   5.246   0.286   4.970 -0.3762  1.1054  1.5398
  393TIP3    H2 1186   5.161   0.410   4.960 -1.9996  0.0034  1.3411
  394TIP3   OH2 1187   5.523   3.113   2.703  0.1537 -0.2092 -0.0913
  394TIP3    H1 1188   5.458   3.157   2.649 -0.5381 -1.6655 -0.4943
  394TIP3    H2 1189   5.607   3.149   2.674 -0.2575 -0.4526 -1.6639
  395TIP3   OH2 1190   4.981   0.632   2.211  0.1738  0.2912  0.5242
  395TIP3    H1 1191   4.989   0.550   2.163 -0.5381 -0.2064  1.2385
  395TIP3    H2 1192   4.951   0.607   2.298  0.5034  1.2613  0.9365
  396TIP3   OH2 1193   5.679   3.996   2.195  0.0518 -0.1047  0.2711
  396TIP3    H1 1194   5.744   4.040   2.249 -0.0452  0.2603  0.0903
  396TIP3    H2 1195   5.598   4.002   2.246 -0.1089  0.5193 -0.0618
  397TIP3   OH2 1196   5.402   0.401   2.753  0.5103  0.6867  0.0823
  397TIP3    H1 1197   5.365   0.482   2.787 -0.9121  1.3294 -2.6570
  397TIP3    H2 1198   5.329   0.338   2.758  1.3225 -0.2120  1.3169
  398TIP3   OH2 1199   1.215   5.805   4.200  0.2571 -0.7233 -0.0350
  398TIP3    H1 1200   1.125   5.819   4.171 -0.3513 -1.7037  1.2754
  398TIP3    H2 1201   1.257   5.890   4.190 -0.8125 -0.2518 -0.6773
  399TIP3   OH2 1202   0.638   5.661   4.370  0.1127 -0.2187  0.2243
  399TIP3    H1 1203   0.607   5.669   4.280  0.9722 -1.4506 -0.2011
  399TIP3    H2 1204   0.605   5.576   4.399 -0.3241  0.2569  1.1566
  400TIP3   OH2 1205   3.755   5.311   1.763  0.8274  0.1236 -0.1309
  400TIP3    H1 1206   3.708   5.313   1.847 -0.8510 -2.3380 -0.9310
  400TIP3    H2 1207   3.688   5.292   1.698  2.3697  0.3353 -1.8595
  401TIP3   OH2 1208   3.520   1.484   0.179  0.2762 -0.1292 -0.5072
  401TIP3    H1 1209   3.540   1.566   0.225  1.2070  0.6710 -2.2642
  401TIP3    H2 1210   3.543   1.416   0.242  1.0119  0.9239  0.4101
  402TIP3   OH2 1211   1.986   0.851   3.802 -0.6683 -0.2769 -0.0759
  402TIP3    H1 1212   1.988   0.943   3.776 -0.1041 -0.7702 -1.8989
  402TIP3    H2 1213   2.001   0.853   3.897 -0.7784  1.4938 -0.0578
  403TIP3   OH2 1214   3.199   3.995   1.215 -0.0730 -0.4433  0.5589
  403TIP3    H1 1215   3.128   3.932   1.227 -1.4305  0.7885 -0.5823
  403TIP3    H2 1216   3.158   4.080   1.230  0.3726  0.5197 -2.8630
  404TIP3   OH2 1217   2.013   5.075   2.693 -0.0127 -0.2595 -0.4373
  404TIP3    H1 1218   2.013   4.983   2.716 -0.4466 -0.0158  0.5677
  404TIP3    H2 1219   1.925   5.092   2.658 -1.0240  0.4281  2.2153
  405TIP3   OH2 1220   2.742   1.819   3.321 -0.2976 -0.3029 -0.2273
  405TIP3    H1 1221   2.802   1.865   3.379  1.0415 -2.4058  0.1809
  405TIP3    H2 1222   2.774   1.839   3.233  1.0560 -1.3808 -0.0150
  406TIP3   OH2 1223   4.460   3.621   1.525 -0.4945 -0.0262  0.4345
  406TIP3    H1 1224   4.517   3.579   1.589 -0.1198 -1.1484 -0.5963
  406TIP3    H2 1225   4.517   3.681   1.478 -0.4406 -0.2454  0.2180
  407TIP3   OH2 1226   1.515   3.802   4.715 -0.2642 -0.1398 -0.1145
  407TIP3    H1 1227   1.492   3.738   4.782 -1.8873  0.1967 -0.3236
  407TIP3    H2 1228   1.505   3.755   4.632  0.3147 -0.1269 -0.1983
  408TIP3   OH2 1229   0.523   4.575   2.895 -0.1805  0.0891 -0.2153
  408TIP3    H1 1230   0.553   4.634   2.964  2.0572  1.0896 -1.9203
  408TIP3    H2 1231   0.458   4.627   2.847  0.5695  0.5818 -0.7166
  409TIP3   OH2 1232   2.530   2.413   2.804  0.4222  0.4415 -0.9713
  409TIP3    H1 1233   2.625   2.410   2.820  0.4473 -0.0746 -1.1828
  409TIP3    H2 1234   2.504   2.501   2.831  1.0961  0.8632 -1.6440
  410TIP3   OH2 1235   2.655   4.494   2.233 -0.7305 -0.9035  0.1579
  410TIP3    H1 1236   2.668   4.540   2.316  0.8450  0.0334 -0.5840
  410TIP3    H2 1237   2.560   4.478   2.230 -0.9672  0.0204  1.6173
  411TIP3   OH2 1238   1.280   1.918   4.349  0.2514 -0.4963  0.0129
  411TIP3    H1 1239   1.364   1.881   4.322  0.4401  0.6568 -1.1082
  411TIP3    H2 1240   1.302   2.000   4.393 -0.2792 -0.1701 -0.3105
  412TIP3   OH2 1241   0.826   2.958   4.483 -0.2245 -0.2300 -0.1778
  412TIP3    H1 1242   0.842   2.947   4.389 -1.4819  0.8034 -0.5473
  412TIP3    H2 1243   0.783   3.044   4.490  1.5138  0.5715  1.5525
  413TIP3   OH2 1244   4.346   3.015   3.693 -0.1026 -0.1591  0.2822
  413TIP3    H1 1245   4.268   2.959   3.693 -0.9930  1.0400  0.8487
  413TIP3    H2 1246   4.399   2.983   3.765 -0.6063 -0.2916  0.6033
  414TIP3   OH2 1247   6.225   3.144   3.412 -0.5686 -0.7347  0.2789
  414TIP3    H1 1248   6.256   3.053   3.406 -0.9834 -0.8810  0.3115
  414TIP3    H2 1249   6.262   3.187   3.335 -0.6759 -1.0258  0.0616
  415TIP3   OH2 1250   1.215   1.855   4.987 -0.3526  0.0447 -0.2569
  415TIP3    H1 1251   1.162   1.911   5.044  2.4985  0.7700  1.9620
  415TIP3    H2 1252   1.225   1.774   5.037 -0.8222 -0.7654 -1.4553
  416TIP3   OH2 1253   5.097   4.296   2.465 -0.1959 -0.0405 -0.2125
  416TIP3    H1 1254   5.028   4.251   2.416 -0.2939 -0.4392  0.2768
  416TIP3    H2 1255   5.138   4.227   2.518 -1.6527  0.7280  2.0815
  417TIP3   OH2 1256   4.353   0.087   3.932  0.6632  0.4154 -0.0117
  417TIP3    H1 1257   4.287   0.157   3.930 -0.9707 -1.0297  0.5899
  417TIP3    H2 1258   4.410   0.110   4.006 -0.0550  0.9258  0.3992
  418TIP3   OH2 1259   3.482   5.127   2.133 -0.5855 -0.3844 -0.0793
  418TIP3    H1 1260   3.532   5.193   2.086  0.1351 -0.0345  1.1410
  418TIP3    H2 1261   3.548   5.075   2.179 -1.2800 -0.5499  0.7494
  419TIP3   OH2 1262   5.490   4.877   0.852 -0.2909 -0.2719 -0.3002
  419TIP3    H1 1263   5.540   4.948   0.893 -0.0703  0.4700 -1.8024
  419TIP3    H2 1264   5.399   4.899   0.870 -0.1714 -0.6533  0.8759
  420TIP3   OH2 1265   2.865   5.900   1.794  0.3688  0.2946  0.1821
  420TIP3    H1 1266   2.815   5.946   1.861 -0.4438 -1.0372  0.5431
  420TIP3    H2 1267   2.831   5.933   1.711  0.5440  1.0881  0.4192
  421TIP3   OH2 1268   3.556   2.562   0.552  0.0036  0.1262  0.6857
  421TIP3    H1 1269   3.482   2.552   0.612 -0.3834  0.7994  0.3398
  421TIP3    H2 1270   3.531   2.511   0.475 -0.3447  0.7638  0.3642
  422TIP3   OH2 1271   1.191   4.844   1.418  0.1192  0.3195 -0.1162
  422TIP3    H1 1272   1.256   4.818   1.483 -0.7434 -0.4249  0.4700
  422TIP3    H2 1273   1.183   4.768   1.360 -0.0574  0.5030 -0.3347
  423TIP3   OH2 1274   1.762   5.815   2.303  0.2268  0.1433  0.1006
  423TIP3    H1 1275   1.787   5.754   2.234 -1.2671  1.2629 -1.5322
  423TIP3    H2 1276   1.705   5.765   2.361 -0.1851 -0.2778 -0.6611
  424TIP3   OH2 1277   3.195   5.264   0.828  0.3689 -0.0662  0.2001
  424TIP3    H1 1278   3.249   5.297   0.755 -0.0080 -0.8466 -0.4499
  424TIP3    H2 1279   3.124   5.328   0.835 -1.1524 -1.3733 -1.9861
  425TIP3   OH2 1280   2.607   0.426   2.635 -0.3685  0.0067 -0.0614
  425TIP3    H1 1281   2.590   0.513   2.670  1.3039  0.3682 -0.0619
  425TIP3    H2 1282   2.680   0.393   2.688 -2.7020 -2.5668  1.8632
  426TIP3   OH2 1283   4.519   0.551   4.548  0.5066 -0.0219  0.7037
  426TIP3    H1 1284   4.440   0.595   4.577  1.2585  0.8939  1.4036
  426TIP3    H2 1285   4.489   0.465   4.518 -0.7654  0.3775  0.7853
  427TIP3   OH2 1286   4.844   5.349   3.695 -0.1216  0.0544  0.5650
  427TIP3    H1 1287   4.917   5.342   3.756  0.0511  0.3899  0.4009
  427TIP3    H2 1288   4.880   5.396   3.620 -0.7186  0.9501  0.8215
  428TIP3   OH2 1289   1.417   3.609   3.254 -0.1274 -0.0880  0.3653
  428TIP3    H1 1290   1.387   3.691   3.294  1.0848  0.9641 -0.7836
  428TIP3    H2 1291   1.503   3.630   3.218 -0.8836 -1.1418 -2.2729
  429TIP3   OH2 1292   4.241   3.858   4.526 -0.3316  0.1027  0.3929
  429TIP3    H1 1293   4.301   3.799   4.480 -2.4796 -1.5531 -0.4773
  429TIP3    H2 1294   4.230   3.932   4.467  0.0528 -0.1010  0.0606
  430TIP3   OH2 1295   1.472   2.863   3.370 -0.4676  0.6223 -0.0458
  430TIP3    H1 1296   1.512   2.860   3.457  0.8325  1.7519 -0.5752
  430TIP3    H2 1297   1.461   2.771   3.347  0.1140  0.2944  0.8954
  431TIP3   OH2 1298   5.680   3.988   3.983  0.3925 -0.2673 -0.5866
  431TIP3    H1 1299   5.722   4.051   4.042  1.0311  2.5760 -3.7562
  431TIP3    H2 1300   5.599   4.030   3.956 -0.4935 -2.0415 -0.8540
  432TIP3   OH2 1301   5.826   0.128   1.449  0.2945  0.3910  0.2353
  432TIP3    H1 1302   5.786   0.057   1.400  2.5285 -1.3420  0.7747
  432TIP3    H2 1303   5.772   0.135   1.528 -0.2206 -0.3764 -0.0308
  433TIP3   OH2 1304   0.950   2.396   0.078 -0.2332 -0.3658  0.6377
  433TIP3    H1 1305   0.885   2.348   0.026  1.2644 -1.8134  0.0166
  433TIP3    H2 1306   0.980   2.332   0.143  1.3632 -0.1188  0.1874
  434TIP3   OH2 1307   2.791   4.553   2.500  0.2087 -0.1125  0.0118
  434TIP3    H1 1308   2.761   4.633   2.543  1.9504  1.3282 -1.2886
  434TIP3    H2 1309   2.858   4.518   2.559  1.3027  0.8769 -0.5787
  435TIP3   OH2 1310   4.545   5.281   2.494 -0.0002 -0.1441 -0.2911
  435TIP3    H1 1311   4.592   5.353   2.453  1.3960 -0.7675  0.1605
  435TIP3    H2 1312   4.574   5.203   2.446 -0.4111 -0.5756  0.1512
  436TIP3   OH2 1313   0.134   0.939   1.487 -0.3083  0.1469  0.3188
  436TIP3    H1 1314   0.149   1.013   1.545  0.1897  1.0559 -0.9393
  436TIP3    H2 1315   0.047   0.954   1.450  0.3113  0.8288 -0.9276
  437TIP3   OH2 1316   2.727   4.958   3.888  0.0381  0.3381 -0.9836
  437TIP3    H1 1317   2.750   5.044   3.923  0.6087  0.1403 -0.8530
  437TIP3    H2 1318   2.672   4.918   3.956 -1.5589  1.2015 -1.7277
  438TIP3   OH2 1319   4.653   2.475   0.230 -0.1654  0.2229 -0.2071
  438TIP3    H1 1320   4.642   2.429   0.314 -1.3276 -0.5017 -0.7261
  438TIP3    H2 1321   4.741   2.450   0.201  0.1042  0.1720  0.6048
  439TIP3   OH2 1322   4.285   2.351   2.212  0.4493  0.6045 -0.2436
  439TIP3    H1 1323   4.270   2.346   2.118 -1.0662 -0.8689  0.0279
  439TIP3    H2 1324   4.346   2.279   2.230 -0.4896 -0.1241  0.0909
  440TIP3   OH2 1325   3.174   5.611   1.100  0.2476  0.1275 -0.3806
  440TIP3    H1 1326   3.124   5.568   1.031 -1.7468 -0.7928  1.5328
  440TIP3    H2 1327   3.170   5.551   1.174  1.1482  1.6831  0.9928
  441TIP3   OH2 1328   1.687   5.690   5.181  0.0025  0.5339 -0.9156
  441TIP3    H1 1329   1.636   5.631   5.126 -1.4258  0.9463 -0.0737
  441TIP3    H2 1330   1.635   5.770   5.185  0.0995  0.5322  0.9841
  442TIP3   OH2 1331   5.479   3.486   4.016 -0.4942  0.0415 -0.0729
  442TIP3    H1 1332   5.465   3.447   3.929  1.3274  1.6041 -1.1483
  442TIP3    H2 1333   5.574   3.491   4.025 -0.6243 -0.5533  2.2824
  443TIP3   OH2 1334   2.874   1.904   0.327 -0.1841  0.3096  0.4312
  443TIP3    H1 1335   2.818   1.923   0.402  0.2107  0.8078  0.5997
  443TIP3    H2 1336   2.910   1.989   0.301 -2.2791  0.6019 -1.9094
  444TIP3   OH2 1337   3.961   0.753   1.368 -0.1571 -0.4162  0.4388
  444TIP3    H1 1338   3.912   0.833   1.387  1.4137  0.0552  3.0234
  444TIP3    H2 1339   4.035   0.782   1.313 -0.9518 -0.5758 -0.7474
  445TIP3   OH2 1340   3.810   2.630   4.051 -0.5192 -0.1566  0.3269
  445TIP3    H1 1341   3.795   2.542   4.085  0.9054 -0.5600 -0.0330
  445TIP3    H2 1342   3.738   2.644   3.989 -0.0901 -1.5585 -0.5225
  446TIP3   OH2 1343   3.070   5.074   4.998 -0.2927  0.4561 -0.1435
  446TIP3    H1 1344   2.996   5.130   5.021 -0.7966  0.1782 -1.0427
  446TIP3    H2 1345   3.056   5.052   4.906 -0.2146 -1.2857  0.2306
  447TIP3   OH2 1346   2.260   0.928   4.943  0.4849 -0.2751 -0.8651
  447TIP3    H1 1347   2.262   0.931   5.039  0.8131 -0.9369 -0.8437
  447TIP3    H2 1348   2.337   0.877   4.919 -0.7617 -2.0144 -1.3623
  448TIP3   OH2 1349   6.055   5.402   0.752 -0.3458  0.9712  0.1637
  448TIP3    H1 1350   5.995   5.439   0.688 -1.7663  0.6097  1.2384
  448TIP3    H2 1351   6.015   5.421   0.837  1.4234  1.3266  0.9674
  449TIP3   OH2 1352   0.089   2.682   2.617 -0.1303  0.0049  0.2024
  449TIP3    H1 1353   0.101   2.589   2.633  0.0935  0.0931  0.5729
  449TIP3    H2 1354   0.002   2.702   2.651 -0.7614 -0.3435 -1.1501
  450TIP3   OH2 1355   2.385   3.163   2.982  0.1832  0.2889  0.2986
  450TIP3    H1 1356   2.325   3.220   3.032 -0.3935 -0.7517  0.8300
  450TIP3    H2 1357   2.410   3.216   2.907 -1.5940  0.7053 -0.0616
  451TIP3   OH2 1358   4.595   0.615   0.628 -0.7037  0.3134  0.1533
  451TIP3    H1 1359   4.647   0.644   0.554 -0.4002 -0.7880 -0.0748
  451TIP3    H2 1360   4.505   0.641   0.606 -0.3549  1.7634  0.3242
  452TIP3   OH2 1361   0.197   3.188   2.889 -0.0986 -0.5895 -0.0522
  452TIP3    H1 1362   0.212   3.118   2.952 -1.6081 -0.4224  0.5387
  452TIP3    H2 1363   0.103   3.186   2.873  0.1937 -0.4199 -2.0778
  453TIP3   OH2 1364   2.106   5.255   3.118 -0.5674 -0.4368  0.0466
  453TIP3    H1 1365   2.150   5.189   3.172  0.4996  2.0216  2.4620
  453TIP3    H2 1366   2.017   5.259   3.153 -0.7629 -0.9092 -0.4004
  454TIP3   OH2 1367   0.778   0.278   2.556 -0.5438 -0.1591  0.0385
  454TIP3    H1 1368   0.807   0.350   2.501 -0.5048 -0.0052  0.2573
  454TIP3    H2 1369   0.737   0.321   2.632  0.4531 -0.3444  0.6958
  455TIP3   OH2 1370   0.583   3.627   4.845 -0.1302 -0.3832 -0.1366
  455TIP3    H1 1371   0.664   3.655   4.805  0.1567 -0.0765  0.6335
  455TIP3    H2 1372   0.536   3.580   4.776  0.4188 -0.0220 -0.7605
  456TIP3   OH2 1373   2.997   4.334   2.488  0.5302 -0.0825 -0.1524
  456TIP3    H1 1374   3.064   4.326   2.420  0.6274 -1.6304  0.0962
  456TIP3    H2 1375   2.919   4.294   2.450 -0.2213  1.4607 -0.3347
  457TIP3   OH2 1376   4.725   3.822   0.317  0.5029  0.6040 -0.8578
  457TIP3    H1 1377   4.683   3.907   0.333 -0.8522 -0.4900  2.3086
  457TIP3    H2 1378   4.727   3.780   0.403  0.9496 -2.6590 -2.3044
  458TIP3   OH2 1379   3.351   2.386   4.768 -0.5066  0.1069  0.3429
  458TIP3    H1 1380   3.308   2.329   4.704  0.4037  0.2430 -0.4056
  458TIP3    H2 1381   3.444   2.362   4.762 -0.6147 -1.4836  3.2002
  459TIP3   OH2 1382   4.750   4.779   2.860  0.4893 -0.4895 -0.1391
  459TIP3    H1 1383   4.770   4.815   2.947  1.8266  0.4903 -0.8140
  459TIP3    H2 1384   4.812   4.707   2.850  0.1610 -0.7666 -0.1834
  460TIP3   OH2 1385   0.720   2.218   0.044  0.8572  0.1145  0.1086
  460TIP3    H1 1386   0.696   2.236  -0.046  1.9244 -1.0177 -0.4440
  460TIP3    H2 1387   0.654   2.263   0.097  0.8252  1.6943 -1.1984
  461TIP3   OH2 1388   5.994   5.808   4.235  0.3991 -0.1269 -0.3416
  461TIP3    H1 1389   5.950   5.891   4.217 -0.2248  0.0108  1.6093
  461TIP3    H2 1390   5.982   5.794   4.329  0.0965 -2.6414 -0.6725
  462TIP3   OH2 1391   5.703   2.224   2.228  0.3318  0.1060 -0.2191
  462TIP3    H1 1392   5.635   2.285   2.199  1.1028  0.5688 -1.0862
  462TIP3    H2 1393   5.673   2.139   2.198 -0.3528  0.1573  0.2903
  463TIP3   OH2 1394   3.559   1.032   0.550  0.2614  0.5841  0.4595
  463TIP3    H1 1395   3.495   1.020   0.621 -2.4508 -2.2518 -2.1743
  463TIP3    H2 1396   3.573   0.945   0.514 -1.8900  2.0696 -5.0722
  464TIP3   OH2 1397   2.563   3.674   3.476 -0.1336  0.0814 -0.1014
  464TIP3    H1 1398   2.639   3.683   3.419  0.0282  0.1862  0.1279
  464TIP3    H2 1399   2.490   3.653   3.417  0.3178 -1.2867 -0.2058
  465TIP3   OH2 1400   5.988   2.366   0.217  0.1587  0.4928  0.2226
  465TIP3    H1 1401   5.924   2.437   0.213 -1.4757 -0.9445 -0.7731
  465TIP3    H2 1402   5.936   2.287   0.201  2.0248 -0.8549  0.5782
  466TIP3   OH2 1403   3.697   5.720   0.181 -0.0741  0.5235  0.1649
  466TIP3    H1 1404   3.656   5.634   0.182 -1.1306  1.0064  1.0012
  466TIP3    H2 1405   3.688   5.750   0.090  0.4201 -0.2869 -0.1605
  467TIP3   OH2 1406   1.027   2.936   2.051  0.0507 -0.0175  0.0501
  467TIP3    H1 1407   0.974   2.891   2.117 -0.7551 -0.3962 -0.8275
  467TIP3    H2 1408   1.113   2.895   2.058  0.2734  0.6092  1.5066
  468TIP3   OH2 1409   2.971   2.922   2.770  0.6436 -0.2806 -0.1540
  468TIP3    H1 1410   2.939   2.912   2.859 -1.2597 -0.3195 -0.8066
  468TIP3    H2 1411   2.994   2.833   2.742 -0.6306 -0.5627 -0.3529
  469TIP3   OH2 1412   2.006   0.957   3.128 -0.2480  0.4460 -0.1424
  469TIP3    H1 1413   1.926   0.977   3.079  0.1109 -0.3726 -1.1008
  469TIP3    H2 1414   2.027   1.039   3.173 -0.8805  1.0842 -0.9577
  470TIP3   OH2 1415   4.879   3.958   2.932 -0.7912 -0.0384  0.4399
  470TIP3    H1 1416   4.859   3.867   2.909 -0.1180  0.0965 -0.7805
  470TIP3    H2 1417   4.951   3.951   2.995  0.3562 -0.3561 -0.8409
  471TIP3   OH2 1418   4.824   2.459   4.221  0.2162 -0.5355  0.0727
  471TIP3    H1 1419   4.756   2.416   4.170 -0.5583 -1.0841  1.5166
  471TIP3    H2 1420   4.835   2.405   4.299  2.7316 -0.7812 -0.3504
  472TIP3   OH2 1421   6.353   5.077   3.169 -0.2429 -0.0764  0.5856
  472TIP3    H1 1422   6.262   5.101   3.187 -0.5483 -0.5671 -0.2401
  472TIP3    H2 1423   6.348   5.022   3.091  1.0438  2.4569 -1.4303
  473TIP3   OH2 1424   2.469   2.689   4.886 -0.9101 -0.1475  0.2384
  473TIP3    H1 1425   2.397   2.627   4.870  0.6182 -2.4691  1.6734
  473TIP3    H2 1426   2.495   2.719   4.799 -3.8339  1.1619 -0.3118
  474TIP3   OH2 1427   0.383   0.938   1.357  0.1331  0.1679  0.3167
  474TIP3    H1 1428   0.297   0.940   1.399  0.2190 -0.7779  0.5564
  474TIP3    H2 1429   0.369   0.979   1.272 -0.6091 -0.1990  0.2570
  475TIP3   OH2 1430   3.176   0.271   2.277 -0.0941 -0.0876 -0.2732
  475TIP3    H1 1431   3.167   0.187   2.232  1.7686  0.6296 -2.1448
  475TIP3    H2 1432   3.086   0.304   2.283 -0.8764 -2.2448  0.6622
  476TIP3   OH2 1433   2.230   0.495   4.510 -0.3370  0.1806  0.0911
  476TIP3    H1 1434   2.220   0.445   4.429 -2.2668  2.5675 -1.2588
  476TIP3    H2 1435   2.174   0.450   4.574 -0.9500 -0.1753 -0.6887
  477TIP3   OH2 1436   1.766   2.641   2.431 -0.2989 -0.3090  0.2323
  477TIP3    H1 1437   1.713   2.580   2.482 -0.5843 -1.7073 -1.5954
  477TIP3    H2 1438   1.716   2.655   2.351  1.0458  0.1219 -0.5774
  478TIP3   OH2 1439   5.634   4.332   4.573  0.1101 -0.1950 -0.4036
  478TIP3    H1 1440   5.646   4.238   4.585 -0.2152 -0.2854 -0.7583
  478TIP3    H2 1441   5.623   4.342   4.479 -2.2761 -0.1039 -0.1924
  479TIP3   OH2 1442   1.364   2.122   4.715 -0.3846 -0.2116  0.3781
  479TIP3    H1 1443   1.338   2.030   4.723 -0.1148 -0.3198  0.0395
  479TIP3    H2 1444   1.291   2.171   4.754 -1.2829 -0.4828 -0.9023
  480TIP3   OH2 1445   3.509   2.035   3.638  0.4427  0.3952  0.6626
  480TIP3    H1 1446   3.576   2.022   3.705  0.1705 -2.1774  0.5266
  480TIP3    H2 1447   3.554   2.019   3.555  0.1507  0.8976  0.3982
  481TIP3   OH2 1448   3.359   5.966   1.539  0.2124 -0.5733  0.1642
  481TIP3    H1 1449   3.274   6.010   1.535 -0.5100 -1.9751 -1.3541
  481TIP3    H2 1450   3.386   5.960   1.447  0.8264 -2.2105  0.4300
  482TIP3   OH2 1451   3.580   5.231   0.163  0.1827  0.2035 -0.2904
  482TIP3    H1 1452   3.533   5.190   0.236 -1.6755 -1.4261 -2.2484
  482TIP3    H2 1453   3.664   5.186   0.160  0.0714 -0.0701  0.5268
  483TIP3   OH2 1454   5.693   1.983   3.154  0.2489  0.0787 -0.1077
  483TIP3    H1 1455   5.665   2.068   3.189 -1.9445 -0.3529 -0.6721
  483TIP3    H2 1456   5.693   1.995   3.059 -0.2832 -0.6018 -0.1992
  484TIP3   OH2 1457   5.686   0.783   0.501  0.5017 -0.5272 -0.4047
  484TIP3    H1 1458   5.707   0.695   0.469  0.3647 -0.7273  0.0599
  484TIP3    H2 1459   5.642   0.825   0.427  1.7555 -0.3919 -1.1060
  485TIP3   OH2 1460   2.703   0.034   3.978  0.5105 -0.3154  0.0195
  485TIP3    H1 1461   2.675   0.045   3.887 -0.7449 -0.1986  0.4092
  485TIP3    H2 1462   2.669   0.110   4.023 -0.5950 -1.3430  0.9816
  486TIP3   OH2 1463   0.907   1.338   2.827  0.3489  0.2708  0.7129
  486TIP3    H1 1464   0.857   1.265   2.863  0.6909  0.1904  1.0315
  486TIP3    H2 1465   0.850   1.414   2.837 -0.5956 -0.1738 -0.9192
  487TIP3   OH2 1466   2.410   5.105   4.582  0.2411 -0.0387  0.0926
  487TIP3    H1 1467   2.427   5.106   4.676  2.1655  0.9684 -0.2314
  487TIP3    H2 1468   2.471   5.040   4.547  2.3531  2.3276 -0.8871
  488TIP3   OH2 1469   2.670   0.431   0.602 -0.6309  0.6356  0.4417
  488TIP3    H1 1470   2.620   0.454   0.679 -3.8941 -1.0411 -0.9928
  488TIP3    H2 1471   2.663   0.335   0.596 -0.2261  0.6840 -1.7286
  489TIP3   OH2 1472   4.765   0.854   2.434  0.3538  0.5153 -0.4377
  489TIP3    H1 1473   4.809   0.926   2.387  0.8791 -0.2333 -1.1160
  489TIP3    H2 1474   4.831   0.784   2.436 -0.3217 -0.1157 -0.2100
  490TIP3   OH2 1475   2.342   0.249   0.653  0.5503 -0.1162 -0.7768
  490TIP3    H1 1476   2.392   0.258   0.572  0.1661  2.0927 -0.8222
  490TIP3    H2 1477   2.296   0.332   0.663 -1.6005 -1.3294  0.2838
  491TIP3   OH2 1478   2.160   5.501   2.355 -0.5976 -0.3152 -0.3108
  491TIP3    H1 1479   2.203   5.573   2.310 -0.6091 -0.2584 -0.2320
  491TIP3    H2 1480   2.108   5.543   2.424 -0.7318 -0.3871 -0.3666
  492TIP3   OH2 1481   1.123   5.934   1.651  0.2815  0.1549 -0.3699
  492TIP3    H1 1482   1.077   5.903   1.730 -1.9109  1.1991 -1.1540
  492TIP3    H2 1483   1.113   5.863   1.588 -0.8554  0.6109 -0.7315
  493TIP3   OH2 1484   2.528   3.656   0.847 -0.4076  0.0647 -0.5123
  493TIP3    H1 1485   2.514   3.635   0.940 -0.3924 -0.2020 -0.5701
  493TIP3    H2 1486   2.445   3.633   0.805 -1.0555  1.8255 -0.2954
  494TIP3   OH2 1487   5.605   4.297   4.282  0.2248  0.0152 -0.5818
  494TIP3    H1 1488   5.581   4.251   4.201  2.8281  0.1310 -1.5069
  494TIP3    H2 1489   5.687   4.341   4.261  2.1523 -1.6138  2.6695
  495TIP3   OH2 1490   2.570   4.086   2.265 -0.1988  0.8318 -0.8208
  495TIP3    H1 1491   2.590   4.124   2.180  0.6024  3.3720  0.4096
  495TIP3    H2 1492   2.474   4.084   2.269 -0.2556 -0.0990 -2.0639
  496TIP3   OH2 1493   5.438   2.980   0.355 -0.0450 -0.2654 -0.2722
  496TIP3    H1 1494   5.469   3.070   0.367 -1.3511 -0.0278  1.8418
  496TIP3    H2 1495   5.480   2.931   0.426 -0.9733 -0.8499 -0.1112
  497TIP3   OH2 1496   1.058   4.797   0.264  0.2663  0.3560 -0.0564
  497TIP3    H1 1497   1.152   4.809   0.276  0.4520 -1.0565  0.0867
  497TIP3    H2 1498   1.043   4.814   0.171  0.3190  2.4284  0.2574
  498TIP3   OH2 1499   5.597   4.009   4.315 -0.0116  0.5340  0.6677
  498TIP3    H1 1500   5.664   4.064   4.275  0.6780 -0.5869  0.2105
  498TIP3    H2 1501   5.616   3.921   4.282 -0.5099 -0.1405  2.0796
  499TIP3   OH2 1502   1.555   4.951   3.405 -0.7387 -0.3688 -0.0708
  499TIP3    H1 1503   1.497   4.931   3.478  0.0017  0.5036  0.7967
  499TIP3    H2 1504   1.498   4.988   3.338 -1.3587 -0.6596  0.2948
  500TIP3   OH2 1505   0.354   0.260   4.379  0.2107 -0.5433 -0.2196
  500TIP3    H1 1506   0.359   0.308   4.296 -0.6174  0.3308  0.2207
  500TIP3    H2 1507   0.297   0.186   4.360 -0.6137  0.0887 -0.2326
  501TIP3   OH2 1508   4.108   2.654   0.289 -0.6200 -0.0924 -0.4550
  501TIP3    H1 1509   4.202   2.670   0.289 -0.7522  0.7132 -0.8872
  501TIP3    H2 1510   4.099   2.564   0.321  0.3702 -0.5939 -1.5026
  502TIP3   OH2 1511   5.374   5.518   4.877 -0.1427  0.0574 -0.7358
  502TIP3    H1 1512   5.376   5.423   4.862 -0.2072 -0.0459 -0.1124
  502TIP3    H2 1513   5.401   5.556   4.793 -3.8283 -0.3679 -2.3444
  503TIP3   OH2 1514   5.778   4.878   1.421  0.1742  0.0826  0.2423
  503TIP3    H1 1515   5.755   4.831   1.341  0.6494 -0.5460  0.4680
  503TIP3    H2 1516   5.846   4.939   1.394 -0.1000  0.3036  0.0459
  504TIP3   OH2 1517   0.608   0.039   3.296 -0.1989  0.1351  0.4261
  504TIP3    H1 1518   0.558   0.009   3.372  0.3573 -1.0077  0.3618
  504TIP3    H2 1519   0.664   0.109   3.331 -0.9243  0.5636  0.7624
  505TIP3   OH2 1520   1.625   3.770   4.997  0.4272 -0.5892  0.3744
  505TIP3    H1 1521   1.599   3.859   5.017 -0.8329 -0.6997 -0.6429
  505TIP3    H2 1522   1.716   3.777   4.967 -0.2011  0.6395 -1.4419
  506TIP3   OH2 1523   4.701   1.036   1.430  0.1699 -0.2351  0.0917
  506TIP3    H1 1524   4.689   0.956   1.481  1.0171  0.3231  1.2184
  506TIP3    H2 1525   4.615   1.051   1.389 -0.5766 -0.6864  1.4100
  507TIP3   OH2 1526   0.794   3.166   3.898 -0.5243 -0.2419  0.0168
  507TIP3    H1 1527   0.882   3.203   3.906 -0.5603 -0.3165  0.8736
  507TIP3    H2 1528   0.780   3.119   3.980 -1.6278  0.3444  0.1910
  508TIP3   OH2 1529   0.372   2.742   2.266 -0.3711 -0.9158  0.5222
  508TIP3    H1 1530   0.464   2.717   2.276 -0.4081 -1.3869 -0.2368
  508TIP3    H2 1531   0.343   2.762   2.355  0.3321 -1.2233  0.8305
  509TIP3   OH2 1532   2.912   2.834   4.856 -0.8155  0.8342 -0.5877
  509TIP3    H1 1533   2.887   2.830   4.949  2.4004  0.3942  0.3840
  509TIP3    H2 1534   2.929   2.742   4.832  0.8249  1.1543 -0.7901
  510TIP3   OH2 1535   4.301   5.019   3.833  0.3033 -0.1702 -0.2426
  510TIP3    H1 1536   4.372   4.999   3.894  0.1501 -1.8449 -0.5721
  510TIP3    H2 1537   4.230   4.960   3.858 -0.4923  0.5191 -0.7944
  511TIP3   OH2 1538   2.047   4.492   3.170  0.0072  0.2199 -0.2442
  511TIP3    H1 1539   1.995   4.526   3.242 -0.4072 -2.3952  0.7829
  511TIP3    H2 1540   2.097   4.420   3.207  0.1710 -0.8958 -2.4290
  512TIP3   OH2 1541   4.806   2.127   4.657 -0.4881 -0.4264  0.0879
  512TIP3    H1 1542   4.839   2.041   4.633  0.6384  0.0240  0.0033
  512TIP3    H2 1543   4.861   2.155   4.729 -0.4744  0.4727 -0.2618
  513TIP3   OH2 1544   3.094   1.505   3.810  0.2323 -0.1941 -0.0658
  513TIP3    H1 1545   3.016   1.465   3.771  0.1734 -0.4131  0.2707
  513TIP3    H2 1546   3.073   1.511   3.903  0.9196 -0.9716  0.1528
  514TIP3   OH2 1547   5.015   0.576   0.087  0.8274 -0.4438  0.3041
  514TIP3    H1 1548   5.076   0.596   0.157  1.6279  1.8930 -0.9474
  514TIP3    H2 1549   4.975   0.660   0.065 -0.8031 -1.4377 -0.7803
  515TIP3   OH2 1550   1.262   4.345   4.259  0.0760  0.1470  0.6189
  515TIP3    H1 1551   1.332   4.362   4.197 -0.2987  0.5510  0.3006
  515TIP3    H2 1552   1.266   4.419   4.320 -1.0255  0.9964 -0.2828
  516TIP3   OH2 1553   4.657   5.058   4.695 -0.0077 -0.2733  0.1546
  516TIP3    H1 1554   4.569   5.093   4.683  0.0805 -0.0964  0.0173
  516TIP3    H2 1555   4.706   5.129   4.737  0.7541  0.6102 -2.0689
  517TIP3   OH2 1556   2.732   2.840   0.689  0.1178 -0.5962 -0.5588
  517TIP3    H1 1557   2.812   2.887   0.714 -0.5325  0.1879  0.1304
  517TIP3    H2 1558   2.752   2.748   0.702  1.8236 -0.6776 -3.0545
  518TIP3   OH2 1559   1.623   3.120   3.372 -0.2170  0.5490 -0.1266
  518TIP3    H1 1560   1.574   3.202   3.365 -1.2750 -0.1359 -1.1337
  518TIP3    H2 1561   1.560   3.052   3.350  0.6996 -0.5350  0.4689
  519TIP3   OH2 1562   5.152   4.927   1.556 -0.1412  0.0471  0.0942
  519TIP3    H1 1563   5.084   4.909   1.491 -0.8455  0.4755  0.6984
  519TIP3    H2 1564   5.129   5.013   1.591  0.3211 -0.1093  0.7946
  520TIP3   OH2 1565   4.670   1.198   4.863 -0.2950  0.0334 -0.1004
  520TIP3    H1 1566   4.708   1.256   4.929  1.2852  0.0370 -0.9682
  520TIP3    H2 1567   4.696   1.110   4.890  0.2793  0.0283 -0.6676
  521TIP3   OH2 1568   0.244   2.099   1.629 -0.0463 -0.0531 -0.2086
  521TIP3    H1 1569   0.264   2.016   1.671  0.1161  1.1325  2.2415
  521TIP3    H2 1570   0.171   2.135   1.680  1.3782  2.3109  0.2829
  522TIP3   OH2 1571   3.221   1.664   2.102 -0.6132  0.5448 -0.0416
  522TIP3    H1 1572   3.201   1.573   2.082 -0.0400  0.2958  0.5072
  522TIP3    H2 1573   3.135   1.707   2.104 -1.2014 -0.5654  2.6124
  523TIP3   OH2 1574   0.443   1.249   1.664  0.0390  0.0277  0.2456
  523TIP3    H1 1575   0.425   1.155   1.671  2.2581 -0.4035  0.8453
  523TIP3    H2 1576   0.538   1.254   1.654 -0.0317  2.2277  0.3630
  524TIP3   OH2 1577   1.663   4.033   0.928  0.3414  0.5874 -0.5882
  524TIP3    H1 1578   1.569   4.020   0.919 -0.1863 -0.4088  3.9533
  524TIP3    H2 1579   1.672   4.124   0.958  0.7457  0.4120 -0.1660
  525TIP3   OH2 1580   0.011   1.475   1.582  0.1816  0.4534 -0.0742
  525TIP3    H1 1581  -0.051   1.453   1.512 -0.1303  1.6566 -0.1984
  525TIP3    H2 1582   0.078   1.528   1.539 -1.1126  3.0380  0.8206
  526TIP3   OH2 1583   0.747   2.563   4.220  0.1137  0.2735  0.4233
  526TIP3    H1 1584   0.743   2.584   4.313  0.5945  0.4925  0.3981
  526TIP3    H2 1585   0.793   2.479   4.216 -1.4054 -0.5875  0.4920
  527TIP3   OH2 1586   0.546   1.001   5.086 -0.8169 -0.2943  0.3503
  527TIP3    H1 1587   0.465   1.016   5.134 -0.6393  2.7956 -0.1368
  527TIP3    H2 1588   0.609   1.060   5.128  0.5313 -0.8353 -0.8540
  528TIP3   OH2 1589   0.333   5.233   4.697 -0.1061 -0.4058 -0.2210
  528TIP3    H1 1590   0.306   5.163   4.757  0.9801 -0.3083  0.4111
  528TIP3    H2 1591   0.307   5.314   4.741  0.8505 -0.3270  0.2227
  529TIP3   OH2 1592   3.234   1.066   2.909 -0.0104 -0.3931 -0.1979
  529TIP3    H1 1593   3.195   1.056   2.996 -0.5849  0.3139 -0.3628
  529TIP3    H2 1594   3.265   1.156   2.906  2.7617 -1.2271  0.3456
  530TIP3   OH2 1595   0.310   2.324   3.611 -0.1252  0.9611  0.0398
  530TIP3    H1 1596   0.291   2.268   3.536 -0.5972  2.2680 -0.8410
  530TIP3    H2 1597   0.316   2.263   3.685 -1.3363 -0.1843 -0.7612
  531TIP3   OH2 1598   3.998   2.041   5.043 -0.0041  0.2814 -0.4594
  531TIP3    H1 1599   3.978   2.116   5.100  0.7989  0.6125 -0.5965
  531TIP3    H2 1600   4.080   2.065   5.001  0.3182 -0.7402 -0.4214
  532TIP3   OH2 1601   1.914   0.937   0.959  0.4313  0.6686  0.2891
  532TIP3    H1 1602   1.972   0.917   0.885 -0.5151 -0.6701 -0.1410
  532TIP3    H2 1603   1.959   0.901   1.035  2.2624  3.6029  0.7366
  533TIP3   OH2 1604   3.719   4.763   1.218  0.0165  0.1027  0.4579
  533TIP3    H1 1605   3.697   4.721   1.301 -0.5348 -0.6789 -0.0686
  533TIP3    H2 1606   3.683   4.705   1.151 -1.2758  1.7129 -0.3046
  534TIP3   OH2 1607   3.060   0.469   4.664 -0.1515  0.5521 -0.5557
  534TIP3    H1 1608   3.054   0.552   4.712 -0.9275  0.6211 -0.7545
  534TIP3    H2 1609   3.095   0.494   4.578 -0.5707  0.7174 -0.6859
  535TIP3   OH2 1610   3.228   4.697   3.465 -0.4021  0.7191  0.7197
  535TIP3    H1 1611   3.186   4.678   3.549 -0.9981  1.0729  0.5056
  535TIP3    H2 1612   3.192   4.781   3.438 -1.5643 -0.1950 -0.7358
  536TIP3   OH2 1613   5.372   4.813   0.048  0.1443 -0.0663  0.4958
  536TIP3    H1 1614   5.402   4.742  -0.007  0.1690 -0.2777  0.7794
  536TIP3    H2 1615   5.451   4.865   0.066  0.1398 -0.0096  0.3503
  537TIP3   OH2 1616   4.069   2.405   0.339  0.1987  0.5027 -0.1141
  537TIP3    H1 1617   4.051   2.354   0.259  1.3789 -1.1355  0.6065
  537TIP3    H2 1618   4.006   2.371   0.403  1.5605 -0.7661  0.6229
  538TIP3   OH2 1619   6.273   5.545   0.813  0.2686 -0.2005  0.1872
  538TIP3    H1 1620   6.224   5.463   0.822  0.9991 -0.7552 -0.7269
  538TIP3    H2 1621   6.284   5.557   0.719 -0.1351  1.1462  0.2910
  539TIP3   OH2 1622   2.365   2.795   5.143 -0.4241 -0.1817 -0.1180
  539TIP3    H1 1623   2.371   2.891   5.149  0.1410 -0.2873  1.3467
  539TIP3    H2 1624   2.440   2.770   5.089  1.4273  0.0145  2.1586
  540TIP3   OH2 1625   5.812   3.796   0.142 -0.4626 -0.6734  0.1432
  540TIP3    H1 1626   5.739   3.740   0.116  1.9203 -2.8421 -2.6402
  540TIP3    H2 1627   5.795   3.880   0.099 -2.5144 -0.1713  1.7579
  541TIP3   OH2 1628   5.978   1.860   4.156 -0.3573  0.7341  0.3761
  541TIP3    H1 1629   6.018   1.905   4.082  3.1191 -1.2582  0.8021
  541TIP3    H2 1630   5.965   1.928   4.222  0.2455  1.8978 -0.6676
  542TIP3   OH2 1631   2.524   1.163   4.252  0.3954  0.0581 -1.1067
  542TIP3    H1 1632   2.561   1.212   4.326  0.0790  0.4277 -1.1893
  542TIP3    H2 1633   2.589   1.095   4.233  0.7466  0.3201 -0.8600
  543TIP3   OH2 1634   2.685   0.293   0.252  0.1706 -0.7066 -0.3498
  543TIP3    H1 1635   2.661   0.314   0.161  0.6806 -1.8436 -0.7617
  543TIP3    H2 1636   2.664   0.201   0.262 -0.3125 -0.4823  0.8587
  544TIP3   OH2 1637   2.639   4.346   0.493  0.4640  0.7666  0.0073
  544TIP3    H1 1638   2.640   4.320   0.401 -1.1988  0.1195  0.1326
  544TIP3    H2 1639   2.664   4.267   0.540 -0.4029  0.5874  0.1813
  545TIP3   OH2 1640   4.384   2.622   4.962 -0.2553 -0.3025 -0.3793
  545TIP3    H1 1641   4.347   2.667   5.038  1.0470  0.3160 -0.0789
  545TIP3    H2 1642   4.309   2.604   4.905 -1.0851  0.2984  0.5042
  546TIP3   OH2 1643   1.821   0.133   1.558  0.1743 -0.7040  0.0854
  546TIP3    H1 1644   1.913   0.113   1.540 -0.2081 -1.8511 -0.7917
  546TIP3    H2 1645   1.794   0.065   1.620 -0.4931 -1.4043 -0.9434
  547TIP3   OH2 1646   4.430   5.828   4.515 -0.1502  0.1978 -0.1795
  547TIP3    H1 1647   4.343   5.789   4.511 -0.3261  0.5279  0.3499
  547TIP3    H2 1648   4.429   5.882   4.594  0.8602 -0.5575  0.3764
  548TIP3   OH2 1649  -0.016   3.084   0.433 -0.2523  0.3610  0.0862
  548TIP3    H1 1650   0.070   3.054   0.402 -0.8596 -3.4403  1.5358
  548TIP3    H2 1651   0.004   3.146   0.503  1.2924  0.1849 -0.1577
  549TIP3   OH2 1652   4.902   2.940   3.074 -1.0219  0.4599  0.1680
  549TIP3    H1 1653   4.840   3.012   3.063 -2.0143 -0.2358  0.9691
  549TIP3    H2 1654   4.869   2.872   3.015  1.2554  1.4227 -2.4263
  550TIP3   OH2 1655   1.301   2.539   3.769  0.1498 -0.3641 -0.1843
  550TIP3    H1 1656   1.226   2.529   3.711  0.7645 -0.2825 -1.0166
  550TIP3    H2 1657   1.276   2.493   3.849 -0.9796  0.0922 -0.2559
  551TIP3   OH2 1658   0.119   1.530   4.899  0.0679 -0.2218  0.3295
  551TIP3    H1 1659   0.108   1.444   4.939 -0.2989 -0.7728 -0.9347
  551TIP3    H2 1660   0.049   1.537   4.835  0.3948  0.8249  0.0569
  552TIP3   OH2 1661   3.326   3.530   3.016  0.8422  0.4476 -0.2439
  552TIP3    H1 1662   3.388   3.576   2.959  0.1375  2.6221  0.6400
  552TIP3    H2 1663   3.377   3.457   3.052  1.6319 -0.3065 -2.6911
  553TIP3   OH2 1664   1.069   4.172   1.635 -0.3194 -0.4816  0.1786
  553TIP3    H1 1665   1.096   4.131   1.716 -1.4752  0.0801  0.8794
  553TIP3    H2 1666   1.070   4.266   1.653 -1.6858 -0.3982 -0.0729
  554TIP3   OH2 1667   3.269   0.834   4.583 -0.2790 -0.1460  0.2203
  554TIP3    H1 1668   3.315   0.759   4.544 -0.5778 -0.3655  0.2825
  554TIP3    H2 1669   3.338   0.890   4.617  0.0215  0.2502 -0.9776
  555TIP3   OH2 1670   4.948   0.872   0.065  0.0132 -0.0614 -0.5017
  555TIP3    H1 1671   4.878   0.839   0.121 -0.4975  2.4016  0.4151
  555TIP3    H2 1672   5.002   0.926   0.122  2.1034 -1.0286 -1.4407
  556TIP3   OH2 1673   0.316   3.289   3.372 -0.2878 -0.3142 -0.4903
  556TIP3    H1 1674   0.316   3.220   3.438 -1.0164  0.5233  0.4182
  556TIP3    H2 1675   0.336   3.369   3.421 -1.6592  0.4517 -1.1364
  557TIP3   OH2 1676   2.326   4.136   3.588 -0.3095  0.4236 -0.1946
  557TIP3    H1 1677   2.325   4.044   3.563 -0.5915  0.2932  0.2809
  557TIP3    H2 1678   2.414   4.150   3.622 -0.0236  0.5247 -0.9544
  558TIP3   OH2 1679   2.303   2.489   4.797  0.6846  0.4908  0.0739
  558TIP3    H1 1680   2.348   2.431   4.735 -1.5843  1.8192 -3.0581
  558TIP3    H2 1681   2.228   2.438   4.827 -0.0424  0.9796 -0.8895
  559TIP3   OH2 1682   4.046   3.646   4.594  0.0191  0.3694 -0.3733
  559TIP3    H1 1683   4.130   3.687   4.572 -0.2011  0.2025 -1.6103
  559TIP3    H2 1684   4.065   3.591   4.669  1.0202  0.3319 -0.6369
  560TIP3   OH2 1685   0.742   1.505   4.597  0.1779 -0.5183  0.1290
  560TIP3    H1 1686   0.820   1.483   4.546  1.2997  0.2697  1.4418
  560TIP3    H2 1687   0.672   1.451   4.559  0.5732  1.0623 -3.1906
  561TIP3   OH2 1688   3.804   2.750   4.593  0.2876 -0.1628  0.1189
  561TIP3    H1 1689   3.754   2.788   4.665  1.3448 -1.9253  1.8847
  561TIP3    H2 1690   3.803   2.656   4.610 -0.9601 -0.8934 -3.2239
  562TIP3   OH2 1691   5.458   2.253   0.988  0.7432  0.2892  0.8279
  562TIP3    H1 1692   5.538   2.287   0.947 -0.0231  0.2501 -0.7441
  562TIP3    H2 1693   5.404   2.331   1.002 -0.5961 -0.0484 -1.8581
  563TIP3   OH2 1694   4.631   1.719   2.777  0.2478 -0.2325  0.7604
  563TIP3    H1 1695   4.573   1.741   2.849 -1.3191 -0.6260 -0.3368
  563TIP3    H2 1696   4.617   1.626   2.761  0.6816 -0.1911  0.0464
  564TIP3   OH2 1697   1.280   0.308   4.287  0.0654 -0.0837  0.0040
  564TIP3    H1 1698   1.324   0.388   4.315 -0.8231  0.6053 -0.5018
  564TIP3    H2 1699   1.288   0.248   4.361 -0.6742  1.0548  1.0352
  565TIP3   OH2 1700   2.650   5.359   2.654  0.3108 -0.1840 -0.1550
  565TIP3    H1 1701   2.738   5.334   2.683 -0.2005 -1.2584  0.5243
  565TIP3    H2 1702   2.663   5.443   2.610  1.5038  0.2480  0.9429
  566TIP3   OH2 1703   2.281   0.236   3.434 -0.5905 -0.9524  0.9637
  566TIP3    H1 1704   2.319   0.294   3.500 -0.8214  0.0418  0.2525
  566TIP3    H2 1705   2.356   0.203   3.384 -0.5740  0.4763 -0.0118
  567TIP3   OH2 1706   5.855   0.489   2.947 -0.0667 -0.0314  0.1254
  567TIP3    H1 1707   5.768   0.525   2.963  0.2561  0.6848  0.2900
  567TIP3    H2 1708   5.862   0.487   2.851  0.1526  0.9513  0.1110
  568TIP3   OH2 1709   6.269   0.569   5.101  0.2450  0.5855 -0.2476
  568TIP3    H1 1710   6.197   0.517   5.138  0.1545  0.5115 -0.5262
  568TIP3    H2 1711   6.326   0.505   5.059  0.9438  0.5418  0.7240
  569TIP3   OH2 1712   5.583   2.769   3.863 -0.7539 -0.4769 -0.0350
  569TIP3    H1 1713   5.547   2.712   3.932  0.0908  0.6615  1.4036
  569TIP3    H2 1714   5.520   2.841   3.856 -0.3050 -0.0373  0.3423
  570TIP3   OH2 1715   2.474   0.560   0.203  0.1955  0.3468  0.3834
  570TIP3    H1 1716   2.413   0.629   0.229 -0.4491  0.1479 -0.5244
  570TIP3    H2 1717   2.424   0.507   0.140  1.6935  0.8564 -1.3147
  571TIP3   OH2 1718   1.086   2.506   2.088 -0.7506  0.1021 -0.1446
  571TIP3    H1 1719   1.043   2.587   2.112  0.8976  0.7729  0.6874
  571TIP3    H2 1720   1.105   2.516   1.994 -3.3511 -0.7151 -0.8473
  572TIP3   OH2 1721   2.070   2.287   4.167  0.2173  0.2953 -0.0444
  572TIP3    H1 1722   2.077   2.193   4.184 -1.1685  0.1267 -0.2940
  572TIP3    H2 1723   2.131   2.327   4.229 -0.8654 -0.6356  1.6985
  573TIP3   OH2 1724   2.345   0.784   1.136  0.4216  0.4331  0.0257
  573TIP3    H1 1725   2.321   0.716   1.200  0.0579  0.0167 -0.5406
  573TIP3    H2 1726   2.311   0.865   1.173 -1.6224 -0.0822 -0.5807
  574TIP3   OH2 1727   4.329   4.181   4.130 -0.5141  0.5083  0.3422
  574TIP3    H1 1728   4.290   4.096   4.110  2.0237 -0.8009  0.5918
  574TIP3    H2 1729   4.379   4.203   4.051  0.0734  1.0242  0.8523
  575TIP3   OH2 1730   2.099   2.509   2.845  0.0942 -0.3550 -0.2785
  575TIP3    H1 1731   2.178   2.563   2.845  1.0974 -1.7499 -1.2264
  575TIP3    H2 1732   2.091   2.477   2.935 -0.1115  0.7612  0.1181
  576TIP3   OH2 1733   4.441   4.197   0.038 -0.1664 -0.3085  0.1518
  576TIP3    H1 1734   4.438   4.101   0.037  0.3444 -0.3256 -0.8968
  576TIP3    H2 1735   4.420   4.220   0.129 -1.1821 -1.3682  0.2181
  577TIP3   OH2 1736   4.604   5.940   1.043  0.2161  0.0923 -0.3976
  577TIP3    H1 1737   4.571   5.993   0.971  0.8928  1.1163  0.0223
  577TIP3    H2 1738   4.657   6.001   1.096  1.7357 -1.1838 -0.3812
  578TIP3   OH2 1739   1.666   0.677   1.335 -0.2634 -0.5149  0.2737
  578TIP3    H1 1740   1.751   0.662   1.375  0.3587 -0.3312 -0.9423
  578TIP3    H2 1741   1.614   0.720   1.404  0.2547 -1.6096  1.3820
  579TIP3   OH2 1742   3.414   0.636   0.851 -0.7612 -0.5840 -0.1372
  579TIP3    H1 1743   3.404   0.662   0.943  1.4432 -1.4943  0.4243
  579TIP3    H2 1744   3.350   0.690   0.804 -1.2317  0.6468  1.7887
  580TIP3   OH2 1745   6.161   1.981   0.363 -0.1279  0.1173  1.0257
  580TIP3    H1 1746   6.160   2.075   0.346  0.4913  0.4707  2.7288
  580TIP3    H2 1747   6.078   1.963   0.407 -1.1262 -0.5406 -0.9796
  581TIP3   OH2 1748   2.514   2.559   1.057  0.5171 -0.2169  0.0074
  581TIP3    H1 1749   2.563   2.553   0.975  2.8709  3.5988  0.9143
  581TIP3    H2 1750   2.579   2.544   1.125 -1.1813 -2.1871  1.3493
  582TIP3   OH2 1751   1.956   2.189   3.088  0.5616  0.4622  0.4991
  582TIP3    H1 1752   1.901   2.141   3.150 -0.4811 -0.5700 -1.1581
  582TIP3    H2 1753   1.895   2.219   3.021  1.9991 -0.6922 -1.4066
  583TIP3   OH2 1754   2.792   3.763   3.310  0.0977 -0.6242 -0.0247
  583TIP3    H1 1755   2.819   3.742   3.220 -0.2099 -1.5140  0.0761
  583TIP3    H2 1756   2.872   3.792   3.353  1.0209 -3.4359  0.3364
  584TIP3   OH2 1757   0.474   2.817   4.817  0.5055 -0.0818 -0.4037
  584TIP3    H1 1758   0.399   2.761   4.832  0.6810 -0.0689  0.5956
  584TIP3    H2 1759   0.507   2.791   4.730  1.2447 -2.3099  0.4636
  585TIP3   OH2 1760   2.365   5.243   2.804 -0.4636 -0.6562  0.2523
  585TIP3    H1 1761   2.276   5.259   2.834  0.1500  1.9037  0.9359
  585TIP3    H2 1762   2.419   5.249   2.883  0.6028  0.8400 -0.5370
  586TIP3   OH2 1763   3.918   1.584   1.819 -0.8058 -0.1985  0.1672
  586TIP3    H1 1764   3.910   1.538   1.903 -0.0709 -1.0666 -0.2222
  586TIP3    H2 1765   3.861   1.660   1.828 -1.1186 -0.5438  1.2750
  587TIP3   OH2 1766   5.505   0.741   5.147  0.1383  0.0138 -0.5218
  587TIP3    H1 1767   5.482   0.804   5.216 -0.8183  0.6122 -1.3587
  587TIP3    H2 1768   5.599   0.751   5.136  0.0271  1.2302 -0.5520
  588TIP3   OH2 1769   6.140   4.089   2.201  0.4288  0.2803  1.0905
  588TIP3    H1 1770   6.135   4.044   2.117 -0.2661  0.8643  0.8185
  588TIP3    H2 1771   6.195   4.165   2.184 -0.0395  0.6139  1.0698
  589TIP3   OH2 1772   4.419   4.667   3.735  0.6511  0.1132 -0.5778
  589TIP3    H1 1773   4.401   4.573   3.729  0.5609  0.1227 -0.4466
  589TIP3    H2 1774   4.394   4.691   3.824  1.8714  0.0028 -0.1872
  590TIP3   OH2 1775   3.400   3.884   0.777  0.3507 -0.3251  0.1670
  590TIP3    H1 1776   3.358   3.857   0.696  0.3383 -0.5278  0.2411
  590TIP3    H2 1777   3.363   3.971   0.796 -0.8116 -0.9294  0.7730
  591TIP3   OH2 1778   4.733   5.845   2.762  0.4268 -0.0962  0.7236
  591TIP3    H1 1779   4.775   5.781   2.819 -1.1285  0.2519  2.3634
  591TIP3    H2 1780   4.716   5.921   2.819 -0.0753  0.7645 -0.5163
  592TIP3   OH2 1781   3.247   5.518   0.085  0.3599 -0.1172  0.1193
  592TIP3    H1 1782   3.240   5.613   0.092 -1.7984 -0.3201  1.6663
  592TIP3    H2 1783   3.172   5.493   0.031 -0.1074 -1.0574  1.1656
  593TIP3   OH2 1784   4.177   2.670   2.832  0.5639  0.1940 -1.0815
  593TIP3    H1 1785   4.194   2.699   2.922  1.1140 -1.7764 -0.5071
  593TIP3    H2 1786   4.097   2.617   2.839  1.3471 -1.0860 -1.4750
  594TIP3   OH2 1787   3.530   0.288   2.419  0.2983 -0.3058  0.1348
  594TIP3    H1 1788   3.567   0.310   2.333  1.4382 -2.3131  0.0318
  594TIP3    H2 1789   3.567   0.353   2.478  1.8886 -0.6248 -0.4432
  595TIP3   OH2 1790   5.322   5.121   3.362 -0.0797 -1.0659  1.0240
  595TIP3    H1 1791   5.259   5.143   3.430  0.3186 -1.0399  1.3860
  595TIP3    H2 1792   5.401   5.171   3.383 -1.4832  3.1286 -2.2876
  596TIP3   OH2 1793   2.781   5.568   0.474 -0.1323  0.3358 -0.3969
  596TIP3    H1 1794   2.734   5.497   0.429  0.5714 -0.1786 -0.3493
  596TIP3    H2 1795   2.813   5.527   0.555  2.7188 -0.1658 -1.6586
  597TIP3   OH2 1796   2.436   5.954   4.534 -0.3749 -0.0323  0.1818
  597TIP3    H1 1797   2.348   5.988   4.514  0.2737  0.2003 -2.6644
  597TIP3    H2 1798   2.442   5.873   4.484  1.2883  0.3551 -0.2912
  598TIP3   OH2 1799   5.294   4.708   2.160 -0.2155 -0.2436 -0.3154
  598TIP3    H1 1800   5.236   4.783   2.147  0.9476  0.8499  0.5111
  598TIP3    H2 1801   5.376   4.733   2.118  0.5505 -0.5497  0.9400
  599TIP3   OH2 1802   1.055   5.639   1.995 -0.1534  0.1609 -0.3421
  599TIP3    H1 1803   1.085   5.601   1.912 -0.1023 -0.2255 -0.1481
  599TIP3    H2 1804   1.091   5.581   2.062 -0.6312  0.1795 -0.0706
  600TIP3   OH2 1805   3.362   4.167   3.748  0.2541  0.1242 -0.5362
  600TIP3    H1 1806   3.408   4.234   3.799  1.3588  0.2854 -1.6847
  600TIP3    H2 1807   3.298   4.215   3.697 -1.1922 -0.0915  1.0112
  601TIP3   OH2 1808   1.392   0.384   3.443  0.4169 -0.4708  0.0578
  601TIP3    H1 1809   1.349   0.356   3.523  1.7871  0.3853  1.1531
  601TIP3    H2 1810   1.469   0.328   3.436  1.3362  0.6879  0.4191
  602TIP3   OH2 1811   5.962   5.771   4.507 -0.5905 -0.0988  0.5561
  602TIP3    H1 1812   5.965   5.684   4.545  2.0974 -0.3310  0.0421
  602TIP3    H2 1813   5.960   5.830   4.582  1.1787 -0.6020  1.0394
  603TIP3   OH2 1814   5.418   0.608   0.091  0.3594 -0.5180  0.3337
  603TIP3    H1 1815   5.372   0.525   0.080 -0.0728 -0.1905 -0.3766
  603TIP3    H2 1816   5.406   0.630   0.183 -0.8892 -0.4577  0.1674
  604TIP3   OH2 1817   3.954   3.404   1.477 -0.2911 -0.0261 -0.1234
  604TIP3    H1 1818   4.005   3.379   1.554 -1.4662  2.3298  1.5126
  604TIP3    H2 1819   4.018   3.446   1.419  0.2517 -0.1208  0.3954
  605TIP3   OH2 1820   4.172   1.629   3.716  0.1007 -0.5395  0.4485
  605TIP3    H1 1821   4.232   1.667   3.779  1.7832 -0.6697 -0.9896
  605TIP3    H2 1822   4.180   1.534   3.729 -1.0072 -0.5448  1.2813
  606TIP3   OH2 1823   6.054   3.092   4.891 -0.5270  0.3450  0.6404
  606TIP3    H1 1824   6.122   3.151   4.857  0.3975 -1.4374 -0.7312
  606TIP3    H2 1825   5.989   3.087   4.821  0.1931 -1.4715  0.0615
  607TIP3   OH2 1826   3.247   2.373   1.492  0.3897  0.0844 -0.3261
  607TIP3    H1 1827   3.155   2.360   1.469 -0.0702 -0.0354  1.4151
  607TIP3    H2 1828   3.245   2.438   1.563  1.2588 -2.5206  2.2914
  608TIP3   OH2 1829   2.996   0.548   1.182  0.9605  0.2151 -0.2511
  608TIP3    H1 1830   3.039   0.523   1.100  1.0670 -3.7250  0.8170
  608TIP3    H2 1831   3.034   0.491   1.248 -3.5686 -1.3793  1.3790
  609TIP3   OH2 1832   1.368   1.027   3.611  0.3308  0.3019 -0.0190
  609TIP3    H1 1833   1.363   0.969   3.687 -2.0697  1.6811  0.9620
  609TIP3    H2 1834   1.291   1.005   3.558  0.4298  1.2885 -0.5965
  610TIP3   OH2 1835   5.235   1.525   2.023  0.4706  0.4213 -0.2682
  610TIP3    H1 1836   5.161   1.502   2.080 -1.3504  3.7357 -1.0450
  610TIP3    H2 1837   5.309   1.536   2.083 -0.5217  0.3614  1.0080
  611TIP3   OH2 1838   3.458   2.228   4.128  0.3522 -0.2740  0.3735
  611TIP3    H1 1839   3.430   2.190   4.211  0.4742 -0.8683  0.1451
  611TIP3    H2 1840   3.430   2.165   4.062  0.3710  0.1345 -0.0301
  612TIP3   OH2 1841   2.957   4.029   5.128 -0.1673 -0.1551 -0.2352
  612TIP3    H1 1842   2.875   4.014   5.175  0.4076  0.4684  1.0220
  612TIP3    H2 1843   2.998   3.943   5.123 -0.6450 -0.3774 -0.4096
  613TIP3   OH2 1844   5.079   5.697   4.176  0.2740 -0.1763 -0.4819
  613TIP3    H1 1845   5.049   5.788   4.174  0.2831 -0.1840 -2.2003
  613TIP3    H2 1846   5.128   5.691   4.258 -1.7701  0.6618  0.8873
  614TIP3   OH2 1847   0.286   4.381   3.096  0.2581 -0.4617 -0.1191
  614TIP3    H1 1848   0.204   4.397   3.049 -0.6141 -2.3107  0.6741
  614TIP3    H2 1849   0.343   4.338   3.032  0.3935  0.2158 -0.4703
  615TIP3   OH2 1850   4.559   1.771   3.942 -0.2591 -0.4198 -0.2935
  615TIP3    H1 1851   4.646   1.749   3.976 -0.7151 -1.6871  0.1157
  615TIP3    H2 1852   4.547   1.713   3.867  0.3037  1.6197 -2.0476
  616TIP3   OH2 1853   4.563   0.485   3.122  0.0710 -0.0585 -0.1368
  616TIP3    H1 1854   4.596   0.420   3.184 -0.4590 -0.9555 -0.7617
  616TIP3    H2 1855   4.468   0.470   3.121  0.2140 -1.2543 -2.4234
  617TIP3   OH2 1856   4.523   2.534   0.944 -0.4425 -0.5503 -0.2319
  617TIP3    H1 1857   4.493   2.571   0.861 -0.8150 -0.0489  0.1140
  617TIP3    H2 1858   4.443   2.524   0.995 -0.3276 -1.7293 -0.2683
  618TIP3   OH2 1859   5.001   5.524   3.542 -0.3381  0.4788  0.1064
  618TIP3    H1 1860   5.034   5.593   3.600 -0.5625  0.6681  0.0115
  618TIP3    H2 1861   4.918   5.558   3.509 -0.8816 -0.1880  0.7245
  619TIP3   OH2 1862   5.595   2.312   3.505 -0.0468 -0.4193  0.1822
  619TIP3    H1 1863   5.562   2.327   3.593 -2.2118 -1.6832 -0.3411
  619TIP3    H2 1864   5.595   2.399   3.464  2.3588  0.4229  1.7816
  620TIP3   OH2 1865   2.230   1.905   3.418  0.0001 -0.1646 -0.1733
  620TIP3    H1 1866   2.320   1.929   3.392  0.8142 -3.2609 -0.6417
  620TIP3    H2 1867   2.242   1.852   3.497 -1.4314 -0.4587 -0.1407
  621TIP3   OH2 1868   3.167   4.179   2.719 -0.3504  0.2752  0.1764
  621TIP3    H1 1869   3.184   4.220   2.804 -2.5203 -0.5099  1.0660
  621TIP3    H2 1870   3.071   4.176   2.713 -0.2425 -0.7799 -1.7785
  622TIP3   OH2 1871   1.181   3.156   2.137 -0.1592 -0.5529 -0.1330
  622TIP3    H1 1872   1.119   3.090   2.107 -1.2643  0.6603 -0.5908
  622TIP3    H2 1873   1.127   3.231   2.162  0.9646 -0.3368  1.8088
  623TIP3   OH2 1874   6.003   3.586   1.071  0.3110 -0.3082 -0.1370
  623TIP3    H1 1875   6.078   3.640   1.047 -1.2293  1.5229 -1.1284
  623TIP3    H2 1876   5.987   3.607   1.163  0.5668 -0.1519 -0.1279
  624TIP3   OH2 1877   4.608   3.355   1.887  0.1514 -0.0357 -0.2866
  624TIP3    H1 1878   4.641   3.268   1.913  0.9978  0.6179  0.9336
  624TIP3    H2 1879   4.512   3.345   1.889  0.1830 -0.4327  1.8214
  625TIP3   OH2 1880   1.726   5.467   1.655 -0.2542 -0.4466  0.4505
  625TIP3    H1 1881   1.767   5.445   1.739  0.4529 -2.5201 -0.3777
  625TIP3    H2 1882   1.772   5.413   1.591  0.9784  2.8404 -1.7510
  626TIP3   OH2 1883   5.168   5.182   4.658  0.1846 -0.0545 -0.3124
  626TIP3    H1 1884   5.097   5.238   4.626  0.9789  1.4869  0.5177
  626TIP3    H2 1885   5.144   5.163   4.749 -0.2443 -1.3915 -0.6749
  627TIP3   OH2 1886   0.672   3.541   1.625 -0.3606  0.8103 -0.2846
  627TIP3    H1 1887   0.736   3.544   1.696 -0.9692 -0.1311  0.3375
  627TIP3    H2 1888   0.721   3.506   1.550  0.1262  1.1890 -0.1449
  628TIP3   OH2 1889   2.932   5.640   1.242  0.4099  0.5265 -0.6790
  628TIP3    H1 1890   2.919   5.712   1.303 -0.6129 -0.8025  0.7493
  628TIP3    H2 1891   2.876   5.661   1.167  0.6959  1.5534 -0.6122
  629TIP3   OH2 1892   1.967   1.537   0.084 -0.4257  0.2810 -0.0216
  629TIP3    H1 1893   1.907   1.577   0.147  0.0354 -0.4849  0.9143
  629TIP3    H2 1894   1.909   1.500   0.017 -1.0815 -1.3419  1.3934
  630TIP3   OH2 1895   5.203   5.594   0.955 -0.4859  0.0215  0.1209
  630TIP3    H1 1896   5.127   5.651   0.944 -0.1366  0.4858  0.0861
  630TIP3    H2 1897   5.269   5.631   0.897  0.1656  0.3353  1.0408
  631TIP3   OH2 1898   0.738   5.871   3.086 -0.8213  0.5990 -0.3011
  631TIP3    H1 1899   0.743   5.940   3.020 -0.8813  0.4240 -0.4894
  631TIP3    H2 1900   0.655   5.826   3.068  0.2504 -0.9871 -1.6479
  632TIP3   OH2 1901   3.977   1.043   1.565  0.4163  0.3462  0.1456
  632TIP3    H1 1902   3.942   1.058   1.478  1.1722  0.6738 -0.1134
  632TIP3    H2 1903   4.067   1.012   1.550 -0.4406 -2.8076  0.7031
  633TIP3   OH2 1904   0.161   2.062   0.270  0.7370 -0.3955 -0.0404
  633TIP3    H1 1905   0.163   1.968   0.290 -0.4301 -0.8832 -1.9746
  633TIP3    H2 1906   0.069   2.087   0.277  1.0101  0.5769  0.2524
  634TIP3   OH2 1907   2.845   3.024   4.670 -0.7014 -0.2515 -0.7542
  634TIP3    H1 1908   2.862   2.946   4.723 -1.1196 -0.4595 -0.9229
  634TIP3    H2 1909   2.887   3.095   4.718  1.0463 -0.8084 -1.3824
  635TIP3   OH2 1910   1.587   1.568   3.609  0.4764 -0.2398 -0.4535
  635TIP3    H1 1911   1.547   1.627   3.673  0.1890  1.2218 -1.9150
  635TIP3    H2 1912   1.523   1.499   3.596  0.3250 -0.2799  0.4537
  636TIP3   OH2 1913   6.279   4.729   3.465 -0.2632 -0.1610  0.5109
  636TIP3    H1 1914   6.311   4.816   3.443 -1.6813 -0.0288 -1.1827
  636TIP3    H2 1915   6.221   4.743   3.540  0.5363  0.1424  1.0849
  637TIP3   OH2 1916   5.320   3.347   3.349  0.4592 -0.6462 -0.4616
  637TIP3    H1 1917   5.395   3.310   3.395  0.1558 -0.1869  0.4416
  637TIP3    H2 1918   5.268   3.271   3.322  1.1238 -0.9563 -0.9028
  638TIP3   OH2 1919   0.982   0.392   3.761  0.8033  0.0713 -0.4106
  638TIP3    H1 1920   1.040   0.316   3.756  0.3934 -0.3692  0.9567
  638TIP3    H2 1921   0.940   0.384   3.847 -0.0656  1.2595 -0.7004
  639TIP3   OH2 1922   0.357   5.999   0.010 -0.4579 -0.0699  0.3734
  639TIP3    H1 1923   0.336   5.923   0.065 -1.0515  0.7363  1.2798
  639TIP3    H2 1924   0.428   5.968  -0.046 -0.2623 -1.1057  1.1536
  640TIP3   OH2 1925   5.950   0.520   4.374 -0.4671  0.0332  0.3350
  640TIP3    H1 1926   6.037   0.550   4.349 -0.8323  1.2261  0.4191
  640TIP3    H2 1927   5.917   0.476   4.296 -0.7251  1.7689 -0.6008
  641TIP3   OH2 1928   5.026   0.078   2.350 -0.2651  0.4731  0.1059
  641TIP3    H1 1929   4.941   0.122   2.349 -0.8048 -0.5415  0.0555
  641TIP3    H2 1930   5.007  -0.011   2.381  0.7011  0.0765 -0.3885
  642TIP3   OH2 1931   5.539   3.327   2.068 -0.6900 -0.0133 -0.0516
  642TIP3    H1 1932   5.520   3.241   2.030 -3.3438  0.8703 -0.8713
  642TIP3    H2 1933   5.616   3.358   2.021 -0.4813 -1.3785 -0.6492
  643TIP3   OH2 1934   1.247   1.590   4.290 -0.3436 -0.1414  0.0565
  643TIP3    H1 1935   1.226   1.516   4.346  1.4231 -1.7401 -1.2452
  643TIP3    H2 1936   1.331   1.623   4.323 -0.2308  0.1063 -0.4616
  644TIP3   OH2 1937   0.583   1.688   2.599  0.5008 -0.4632  0.0186
  644TIP3    H1 1938   0.664   1.696   2.548  2.7195  1.3337  3.4132
  644TIP3    H2 1939   0.557   1.778   2.618 -0.6830 -1.0407  1.3382
  645TIP3   OH2 1940   6.086   3.693   0.627  0.3561  0.6664  0.2430
  645TIP3    H1 1941   6.123   3.609   0.653  0.3512  0.8244  0.7743
  645TIP3    H2 1942   6.125   3.711   0.542 -1.2681 -0.8761 -0.8758
  646TIP3   OH2 1943   2.819   5.858   1.365 -0.2874  0.2938  0.1765
  646TIP3    H1 1944   2.797   5.908   1.443 -0.3211  1.0475 -0.3035
  646TIP3    H2 1945   2.853   5.923   1.303  0.2730 -0.3657 -0.2398
  647TIP3   OH2 1946   4.211   0.674   3.330 -0.3441 -0.1603  0.2534
  647TIP3    H1 1947   4.126   0.715   3.345 -1.2383 -1.2051 -1.5734
  647TIP3    H2 1948   4.262   0.739   3.282  0.6113  1.1467  2.8468
  648TIP3   OH2 1949   4.365   5.213   0.190 -0.4612 -0.4492 -0.2718
  648TIP3    H1 1950   4.354   5.119   0.203 -0.3415 -0.5835 -1.1351
  648TIP3    H2 1951   4.405   5.243   0.272  1.7027 -1.5383 -0.8414
  649TIP3   OH2 1952   0.035   2.414   0.459  0.3369 -0.2418 -0.8279
  649TIP3    H1 1953   0.001   2.500   0.486  0.4188 -0.4642 -0.0138
  649TIP3    H2 1954  -0.029   2.383   0.394 -1.0083 -0.6319  0.6330
  650TIP3   OH2 1955   2.184   5.498   5.172 -0.2249  0.2757 -0.3325
  650TIP3    H1 1956   2.214   5.549   5.096 -1.2704  1.2148 -0.1511
  650TIP3    H2 1957   2.104   5.543   5.200  0.0585 -0.1498  1.2366
  651TIP3   OH2 1958   4.354   3.038   3.430 -0.1466  0.1265  0.1304
  651TIP3    H1 1959   4.321   2.948   3.434  2.7957 -1.0136  0.9384
  651TIP3    H2 1960   4.383   3.058   3.518  1.7950  0.8061 -0.6087
  652TIP3   OH2 1961   1.963   3.412   0.278 -0.8065 -0.4402 -0.2834
  652TIP3    H1 1962   1.949   3.349   0.207  0.1482 -0.3654 -0.5513
  652TIP3    H2 1963   1.961   3.358   0.358 -1.6581 -0.5568 -0.3766
  653TIP3   OH2 1964   1.245   4.624   2.620  0.0924  0.6287 -0.1035
  653TIP3    H1 1965   1.160   4.666   2.604 -0.5279 -0.0944  1.1983
  653TIP3    H2 1966   1.248   4.551   2.558 -0.8181 -0.1227  0.7149
  654TIP3   OH2 1967   0.575   2.291   1.404  0.0630  0.4436  0.5508
  654TIP3    H1 1968   0.487   2.323   1.384  0.3562  1.4307  0.7834
  654TIP3    H2 1969   0.628   2.370   1.415  1.0831 -0.1345  0.0074
  655TIP3   OH2 1970   0.672   1.125   2.195  0.4635  0.0801 -0.4745
  655TIP3    H1 1971   0.648   1.130   2.103  0.4441  1.8834 -0.3949
  655TIP3    H2 1972   0.612   1.185   2.239  0.2679 -0.9744  0.7784
  656TIP3   OH2 1973   1.958   2.106   0.437 -0.2164  0.2060  0.0840
  656TIP3    H1 1974   1.875   2.086   0.480  0.7785 -0.5610  1.7571
  656TIP3    H2 1975   1.942   2.189   0.392 -2.4046 -0.8002 -1.1735
  657TIP3   OH2 1976   3.057   5.130   2.568  0.3227 -0.1412  0.2351
  657TIP3    H1 1977   3.151   5.126   2.589  0.1569 -3.0648  0.8348
  657TIP3    H2 1978   3.055   5.138   2.472  1.1377  1.2694  0.3019
  658TIP3   OH2 1979   2.219   5.463   0.492  0.2245  0.1906  0.1917
  658TIP3    H1 1980   2.231   5.401   0.565 -0.6308  1.0094  1.0584
  658TIP3    H2 1981   2.129   5.494   0.502  1.0037  2.5509  0.5903
  659TIP3   OH2 1982   6.184   2.165   0.877  0.4630  0.4061 -0.5140
  659TIP3    H1 1983   6.137   2.089   0.843  0.0264  0.2285  0.4444
  659TIP3    H2 1984   6.247   2.188   0.809 -1.1664  0.8020 -1.9430
  660TIP3   OH2 1985   2.454   5.235   2.456 -0.0638 -0.7311  0.2257
  660TIP3    H1 1986   2.498   5.271   2.533  3.0681  1.4769 -2.3105
  660TIP3    H2 1987   2.361   5.245   2.474  0.5725  2.7379  2.4443
  661TIP3   OH2 1988   0.434   4.194   2.977 -0.2611  0.3161 -0.0161
  661TIP3    H1 1989   0.402   4.118   3.025 -0.3439  0.5603  0.3160
  661TIP3    H2 1990   0.505   4.229   3.032 -1.1344  1.3022  0.5387
  662TIP3   OH2 1991   1.357   4.787   1.058  0.0553 -0.0577  0.6294
  662TIP3    H1 1992   1.305   4.856   1.099 -0.2449 -0.1125  0.3466
  662TIP3    H2 1993   1.302   4.756   0.986 -0.0591 -0.9849  1.1022
  663TIP3   OH2 1994   5.266   0.367   2.098 -0.1365 -0.1647  0.8762
  663TIP3    H1 1995   5.180   0.378   2.058  0.2717 -0.3054 -0.0784
  663TIP3    H2 1996   5.248   0.343   2.188 -1.0939  0.1114  0.7675
  664TIP3   OH2 1997   0.842   3.131   1.434 -0.2338 -0.3207  0.6934
  664TIP3    H1 1998   0.759   3.178   1.439  0.4660  1.1179 -0.5042
  664TIP3    H2 1999   0.840   3.087   1.350 -0.0441 -0.8010  0.9389
  665TIP3   OH2 2000   1.229   3.390   3.205 -0.2535 -0.1231 -0.0727
  665TIP3    H1 2001   1.223   3.337   3.125 -0.0439 -1.1370  0.5594
  665TIP3    H2 2002   1.297   3.454   3.186  0.6311 -1.0989 -0.3105
  666TIP3   OH2 2003   2.659   4.055   4.740  0.1289  0.4538 -0.2847
  666TIP3    H1 2004   2.657   4.026   4.831 -1.1134 -1.6548 -0.9239
  666TIP3    H2 2005   2.576   4.101   4.728 -0.8779 -1.4685 -0.9758
  667TIP3   OH2 2006   4.472   0.544   4.897  0.2254  0.0160 -0.8184
  667TIP3    H1 2007   4.508   0.457   4.879 -1.2587 -0.5022 -1.3865
  667TIP3    H2 2008   4.437   0.539   4.985  0.6323  0.2129 -0.6434
  668TIP3   OH2 2009   4.079   3.461   0.177 -0.5199  0.3663 -0.0989
  668TIP3    H1 2010   4.057   3.368   0.168 -0.9596  0.6462 -2.5242
  668TIP3    H2 2011   4.169   3.467   0.146 -0.1981  0.6700  0.8446
  669TIP3   OH2 2012   0.471   0.658   4.702 -0.5291 -0.2291 -0.7849
  669TIP3    H1 2013   0.471   0.733   4.762 -1.8428 -1.0025  0.2490
  669TIP3    H2 2014   0.533   0.597   4.741 -1.6569 -0.8893  0.0665
  670TIP3   OH2 2015   3.844   2.496   0.586  0.5484  0.4110  0.1541
  670TIP3    H1 2016   3.750   2.506   0.572 -0.0347  0.0048  3.1166
  670TIP3    H2 2017   3.852   2.412   0.632  2.4515  0.0755 -0.7288
  671TIP3   OH2 2018   4.902   2.014   1.070 -0.1004  0.0763 -0.0842
  671TIP3    H1 2019   4.964   2.040   1.002  0.4353  0.6333  0.5978
  671TIP3    H2 2020   4.952   1.958   1.129 -0.4769 -0.1537  0.0212
  672TIP3   OH2 2021   4.425   2.812   1.454 -0.2942 -0.3095 -0.3815
  672TIP3    H1 2022   4.350   2.757   1.430 -0.0375 -0.6381 -0.4395
  672TIP3    H2 2023   4.500   2.769   1.413  0.1624 -0.9034  1.0269
  673TIP3   OH2 2024   2.608   1.445   1.587  0.1277  0.6567  0.5285
  673TIP3    H1 2025   2.596   1.426   1.494 -2.2127  1.4525  0.5789
  673TIP3    H2 2026   2.657   1.527   1.589 -0.3606  0.9747 -0.0533
  674TIP3   OH2 2027   4.935   5.801   3.144  0.4265  0.1055 -0.3813
  674TIP3    H1 2028   4.877   5.802   3.067 -0.4218 -1.3177  0.1907
  674TIP3    H2 2029   4.913   5.880   3.192 -1.7147 -0.8088  0.2561
  675TIP3   OH2 2030   0.837   1.402   1.392  0.4443 -0.5335  0.5060
  675TIP3    H1 2031   0.899   1.471   1.370 -1.7777  1.3305 -0.3289
  675TIP3    H2 2032   0.867   1.326   1.342  0.2432  1.2506 -2.5358
  676TIP3   OH2 2033   0.647   2.058   1.506 -0.1777  0.2323 -0.3079
  676TIP3    H1 2034   0.614   2.141   1.474  1.3841  0.6248 -1.0267
  676TIP3    H2 2035   0.693   2.020   1.431  1.5452  0.0602  0.7833
  677TIP3   OH2 2036   6.040   0.393   4.617 -0.1537 -0.5296 -0.5408
  677TIP3    H1 2037   5.998   0.432   4.540  1.1304 -0.1548 -1.0767
  677TIP3    H2 2038   6.094   0.463   4.653 -0.5913 -0.7620  0.6088
  678TIP3   OH2 2039   5.619   5.806   1.056 -0.6128 -0.0770 -0.4928
  678TIP3    H1 2040   5.630   5.858   0.976 -0.0622 -1.7471 -1.5440
  678TIP3    H2 2041   5.538   5.840   1.095 -0.2620  1.5911 -1.0895
  679TIP3   OH2 2042   2.355   4.579   3.323 -0.5353  0.1014  0.3711
  679TIP3    H1 2043   2.320   4.588   3.235 -0.2495 -0.1217  0.2316
  679TIP3    H2 2044   2.287   4.614   3.380 -0.6393  0.4306  0.0468
  680TIP3   OH2 2045   2.408   0.902   2.807  0.4689 -0.2408  1.0697
  680TIP3    H1 2046   2.462   0.970   2.848 -0.5184  0.5557  1.0733
  680TIP3    H2 2047   2.355   0.868   2.878 -1.0808  0.9784  0.5511
  681TIP3   OH2 2048   2.418   0.656   3.183 -0.0167 -0.1062  0.3168
  681TIP3    H1 2049   2.373   0.696   3.109  1.9549 -1.3922 -1.7125
  681TIP3    H2 2050   2.479   0.723   3.213  1.4789 -0.6233 -1.4163
  682TIP3   OH2 2051   2.881   2.668   4.175 -0.2503  0.4291  0.2949
  682TIP3    H1 2052   2.881   2.644   4.082 -0.7032  2.5795 -0.3137
  682TIP3    H2 2053   2.791   2.693   4.193 -0.2261 -0.2543  1.4169
  683TIP3   OH2 2054   1.259   2.862   4.630 -0.3060 -0.3871  0.4994
  683TIP3    H1 2055   1.324   2.888   4.695 -1.7555  0.9933  1.4642
  683TIP3    H2 2056   1.291   2.778   4.597  0.8692 -0.7646  2.4356
  684TIP3   OH2 2057   4.076   3.936   0.446 -0.2567  0.0177  0.1153
  684TIP3    H1 2058   4.024   3.875   0.498  1.2910 -0.8407  0.7242
  684TIP3    H2 2059   4.109   3.885   0.373  1.4044 -0.0339  0.8602
  685TIP3   OH2 2060   4.679   1.313   1.138  0.0603  0.4396 -0.1932
  685TIP3    H1 2061   4.772   1.326   1.156  0.1291 -0.9676  0.6908
  685TIP3    H2 2062   4.635   1.336   1.220 -0.3041  0.4431 -0.3852
  686TIP3   OH2 2063   1.012   1.151   4.417  0.4373  0.4774  0.1140
  686TIP3    H1 2064   1.044   1.138   4.328  0.3866  1.1436 -0.0024
  686TIP3    H2 2065   1.011   1.246   4.429 -1.9300  0.5356 -0.0523
  687TIP3   OH2 2066   1.460   0.473   4.411  0.4879 -0.1482 -0.4722
  687TIP3    H1 2067   1.476   0.466   4.505  1.1575  0.0591 -0.5683
  687TIP3    H2 2068   1.534   0.523   4.378 -0.0002  0.2067 -1.0371
  688TIP3   OH2 2069   3.099   4.646   0.792  0.5885 -0.4381 -0.6644
  688TIP3    H1 2070   3.052   4.728   0.781  0.3873 -0.5849 -0.9227
  688TIP3    H2 2071   3.182   4.659   0.746  0.7597 -0.2123 -0.2909
  689TIP3   OH2 2072   3.832   0.260   4.948  0.1173 -0.1855 -0.1104
  689TIP3    H1 2073   3.821   0.289   5.038  2.4331  2.9067 -0.6511
  689TIP3    H2 2074   3.869   0.172   4.955 -0.1723 -0.1846  1.9123
  690TIP3   OH2 2075   2.874   4.169   0.014  0.8991 -0.1427  0.3633
  690TIP3    H1 2076   2.958   4.136   0.046  1.9751  0.6374 -1.4574
  690TIP3    H2 2077   2.880   4.264   0.024  0.2895 -0.0727  0.1097
  691TIP3   OH2 2078   3.609   1.935   2.617  0.0655 -0.4075 -0.6846
  691TIP3    H1 2079   3.636   1.908   2.705 -0.6858  0.7204 -0.0844
  691TIP3    H2 2080   3.673   2.002   2.592  0.7265 -1.2555 -1.3311
  692TIP3   OH2 2081   4.832   0.650   0.455  0.2761  0.5047 -0.3188
  692TIP3    H1 2082   4.793   0.678   0.372  0.4875 -1.4393 -1.1287
  692TIP3    H2 2083   4.880   0.571   0.433  1.3453  0.6169  1.4514
  693TIP3   OH2 2084   1.638   2.179   4.610  1.2170 -0.2857  0.3188
  693TIP3    H1 2085   1.554   2.173   4.655  0.2137  0.7558 -1.2953
  693TIP3    H2 2086   1.696   2.224   4.671 -0.0313  0.8940  0.6757
  694TIP3   OH2 2087   4.067   2.366   4.963 -0.1733  0.1178  0.3204
  694TIP3    H1 2088   4.065   2.279   4.922  0.1834  0.3748 -0.2535
  694TIP3    H2 2089   4.116   2.420   4.902  2.2838  0.0104  2.0488
  695TIP3   OH2 2090   3.182   0.835   1.225  0.3109  0.0760  0.2550
  695TIP3    H1 2091   3.214   0.769   1.163 -1.4165 -1.3947  0.8310
  695TIP3    H2 2092   3.257   0.851   1.283  0.3282 -2.8406  1.2392
  696TIP3   OH2 2093   2.707   5.359   3.810  0.2143 -0.4355 -0.5115
  696TIP3    H1 2094   2.686   5.431   3.869 -1.6552  0.9758 -2.7183
  696TIP3    H2 2095   2.779   5.392   3.757  0.8008 -1.0576 -0.1130
  697TIP3   OH2 2096   0.546   0.628   0.105  0.2637 -0.2244  0.4378
  697TIP3    H1 2097   0.532   0.594   0.193 -1.1215 -0.6343  0.0968
  697TIP3    H2 2098   0.609   0.568   0.065 -0.7255 -1.3331  0.4710
  698TIP3   OH2 2099   4.162   3.855   0.889  0.5011  0.9488  0.0946
  698TIP3    H1 2100   4.240   3.898   0.855  0.6041  2.7620  2.3693
  698TIP3    H2 2101   4.182   3.838   0.981 -0.8742 -0.8999  0.1041
  699TIP3   OH2 2102   6.223   5.286   1.250  0.3125 -0.1163 -0.1676
  699TIP3    H1 2103   6.297   5.280   1.310  0.3486  0.6003 -0.1268
  699TIP3    H2 2104   6.156   5.230   1.288  0.8885 -0.9079 -0.2931
  700TIP3   OH2 2105   3.284   5.715   3.701  0.0194  0.5311 -0.1427
  700TIP3    H1 2106   3.335   5.784   3.659  0.6841  0.2712  0.2366
  700TIP3    H2 2107   3.339   5.684   3.772 -0.5103 -0.0139  0.0345
  701TIP3   OH2 2108   4.582   2.012   1.112 -0.1171 -0.0616  0.2506
  701TIP3    H1 2109   4.651   2.060   1.065 -0.9732  2.7940  1.6985
  701TIP3    H2 2110   4.630   1.953   1.170  1.0786  0.3212 -0.3056
  702TIP3   OH2 2111   2.838   5.110   4.568  0.0773  0.0146 -0.1664
  702TIP3    H1 2112   2.883   5.084   4.648 -2.7861 -0.7641  1.3375
  702TIP3    H2 2113   2.862   5.201   4.555 -0.7385  0.7179  2.6533
  703TIP3   OH2 2114   3.436   2.073   4.754  0.2005 -0.0900  0.6480
  703TIP3    H1 2115   3.385   2.120   4.688  0.0266 -1.8789 -0.5564
  703TIP3    H2 2116   3.371   2.019   4.800  0.7893 -1.4963 -0.1095
  704TIP3   OH2 2117   0.829   0.392   3.150 -0.3868  0.2361  0.4641
  704TIP3    H1 2118   0.786   0.471   3.182 -1.6233 -0.3044  0.1988
  704TIP3    H2 2119   0.852   0.412   3.059 -0.4469  0.3910  0.4829
  705TIP3   OH2 2120   2.653   5.729   3.100 -0.2725  0.4110  0.0064
  705TIP3    H1 2121   2.633   5.673   3.174 -0.4741  0.0859 -0.2880
  705TIP3    H2 2122   2.669   5.816   3.138  0.8888 -0.0215  0.5516
  706TIP3   OH2 2123   4.034   4.804  -0.011  0.6210 -0.5126 -0.1074
  706TIP3    H1 2124   4.028   4.847   0.075 -0.1421 -1.2875  0.2348
  706TIP3    H2 2125   4.083   4.867  -0.064  1.6215 -0.2650  1.0450
  707TIP3   OH2 2126   3.374   4.825   2.660  0.0657  0.0306  0.0998
  707TIP3    H1 2127   3.311   4.771   2.708 -0.0660  0.4024  0.3551
  707TIP3    H2 2128   3.376   4.788   2.572  1.3136 -1.5156  0.7332
  708TIP3   OH2 2129   1.551   5.184   3.585  0.0379 -0.1522 -0.1166
  708TIP3    H1 2130   1.558   5.279   3.600 -1.1839 -0.0783  0.0854
  708TIP3    H2 2131   1.640   5.152   3.594  0.3416  0.8584  0.6801
  709TIP3   OH2 2132   3.112   3.798   5.099 -0.2416  0.3000  0.5043
  709TIP3    H1 2133   3.036   3.747   5.072 -0.3032  0.3182  0.6391
  709TIP3    H2 2134   3.172   3.735   5.137 -0.4308  0.3606  0.9151
  710TIP3   OH2 2135   3.190   0.292   2.966 -0.8750 -0.6845  0.0896
  710TIP3    H1 2136   3.175   0.285   3.060 -0.1972 -0.3441  0.2344
  710TIP3    H2 2137   3.188   0.202   2.934  0.1890 -0.9324  0.6569
  711TIP3   OH2 2138   4.083   0.716   0.566 -0.1864 -0.3790  0.0894
  711TIP3    H1 2139   4.017   0.648   0.555  0.6626 -1.0873 -0.7427
  711TIP3    H2 2140   4.033   0.795   0.586 -1.3368 -0.7664 -1.1335
  712TIP3   OH2 2141   4.867   5.572   1.255 -0.0871 -0.3020  0.3518
  712TIP3    H1 2142   4.826   5.603   1.174  0.1006  0.0912  0.4013
  712TIP3    H2 2143   4.820   5.619   1.324  1.1223  0.9666  0.3570
  713TIP3   OH2 2144   1.734   5.888   1.795  0.2322 -0.1166  0.4237
  713TIP3    H1 2145   1.825   5.867   1.773  0.2738 -0.6195  1.0559
  713TIP3    H2 2146   1.687   5.881   1.712  0.5508 -1.0753  0.3138
  714TIP3   OH2 2147   3.582   4.675   2.057 -0.0412 -0.0085 -0.1488
  714TIP3    H1 2148   3.544   4.750   2.102  0.0098  0.4020 -0.7694
  714TIP3    H2 2149   3.669   4.666   2.094 -0.6076 -0.7527  1.0515
  715TIP3   OH2 2150   6.043   3.612   3.974 -0.5435 -0.0020  0.0763
  715TIP3    H1 2151   6.100   3.535   3.984 -1.3252 -0.3660  2.2693
  715TIP3    H2 2152   6.025   3.616   3.880  3.4824  0.4859 -0.8878
  716TIP3   OH2 2153   1.922   0.903   1.499  0.1725  0.9109  0.4719
  716TIP3    H1 2154   2.005   0.951   1.506  1.7229 -1.7290  1.6320
  716TIP3    H2 2155   1.882   0.910   1.585  0.8224 -0.5100  0.9095
  717TIP3   OH2 2156   0.644   5.714   4.901  0.2037 -0.1759 -0.5070
  717TIP3    H1 2157   0.573   5.758   4.855 -0.1662 -0.4294 -0.1870
  717TIP3    H2 2158   0.708   5.783   4.918  0.3076 -0.0673 -1.3265
  718TIP3   OH2 2159   2.993   1.651   3.538  0.0495  1.1132  0.0154
  718TIP3    H1 2160   3.030   1.563   3.537 -0.6834  0.7782 -1.7318
  718TIP3    H2 2161   2.910   1.643   3.491  0.5628  2.9717 -1.3435
  719TIP3   OH2 2162   3.599   0.121   3.774 -0.4002 -0.4136 -0.5089
  719TIP3    H1 2163   3.662   0.133   3.703 -0.3109 -0.8668 -0.5055
  719TIP3    H2 2164   3.561   0.035   3.759  1.0510 -1.4023  1.1056
  720TIP3   OH2 2165   3.758   1.104   1.000 -0.6408 -0.1199 -0.1996
  720TIP3    H1 2166   3.756   1.009   1.011 -0.0017 -0.2890 -1.3429
  720TIP3    H2 2167   3.821   1.118   0.930  0.1841  1.2456  0.7798
  721TIP3   OH2 2168   3.743   2.061   3.791  0.0887  0.0193  0.1413
  721TIP3    H1 2169   3.838   2.058   3.782  0.1819 -0.0572  1.0508
  721TIP3    H2 2170   3.721   1.981   3.839 -0.4849 -0.1870 -0.4450
  722TIP3   OH2 2171   1.409   5.600   3.475 -0.1495  0.0349  0.4691
  722TIP3    H1 2172   1.472   5.662   3.512 -1.4671  1.1537  0.9022
  722TIP3    H2 2173   1.419   5.610   3.381 -0.3261  0.8785  0.5359
  723TIP3   OH2 2174   1.068   0.902   3.665 -0.0547  0.4340  0.0105
  723TIP3    H1 2175   1.048   0.906   3.571  0.4106 -0.7950 -0.1584
  723TIP3    H2 2176   1.054   0.810   3.689 -1.1140  0.9167  1.3719
  724TIP3   OH2 2177   0.658   0.066   1.568  0.0891 -0.2303 -0.3783
  724TIP3    H1 2178   0.655   0.147   1.618  0.7086 -0.2203 -0.3570
  724TIP3    H2 2179   0.683   0.092   1.480  4.4613 -0.7431  0.4994
  725TIP3   OH2 2180   1.811   4.574   4.132 -0.3185 -0.1836  0.4315
  725TIP3    H1 2181   1.827   4.667   4.144 -3.3311  0.5711 -0.6163
  725TIP3    H2 2182   1.872   4.548   4.062  0.8863  0.8448  1.0635
  726TIP3   OH2 2183   0.362   1.154   3.477  0.1608  0.1708 -0.6181
  726TIP3    H1 2184   0.291   1.212   3.506  1.1722  0.2526  2.0166
  726TIP3    H2 2185   0.357   1.079   3.536  1.9180 -0.0512 -0.6863
  727TIP3   OH2 2186   3.458   2.495   1.343  0.1152 -0.0763 -0.6814
  727TIP3    H1 2187   3.415   2.523   1.262 -1.1494  1.9843  0.5892
  727TIP3    H2 2188   3.386   2.468   1.399  1.0120 -1.8945 -0.3486
  728TIP3   OH2 2189   4.318   2.028   1.140  0.1140 -0.5950  0.1167
  728TIP3    H1 2190   4.292   2.100   1.198 -0.2731  1.8217 -2.7688
  728TIP3    H2 2191   4.413   2.034   1.134  0.1507 -0.8232  0.4627
  729TIP3   OH2 2192   0.146   1.375   1.995  0.0755  0.3179 -0.1958
  729TIP3    H1 2193   0.121   1.465   1.975  0.5792  1.0003  1.9016
  729TIP3    H2 2194   0.238   1.369   1.969  0.4806  0.9188  1.0274
  730TIP3   OH2 2195   0.124   4.813   4.623 -0.2748  0.2546 -0.3680
  730TIP3    H1 2196   0.142   4.762   4.544 -0.4647 -0.6179  0.1375
  730TIP3    H2 2197   0.056   4.763   4.669 -2.3567  2.2404 -1.0875
  731TIP3   OH2 2198   5.120   1.563   1.380 -0.0695 -0.3123 -0.1193
  731TIP3    H1 2199   5.215   1.559   1.392  0.5633  0.1845 -3.8100
  731TIP3    H2 2200   5.084   1.521   1.459  2.9938  2.0954  2.8884
  732TIP3   OH2 2201   0.866   1.118   3.632  0.7165 -0.3473  0.2164
  732TIP3    H1 2202   0.805   1.110   3.706 -0.0511 -0.1429 -0.3788
  732TIP3    H2 2203   0.941   1.065   3.658 -0.8009 -2.8274 -0.1049
  733TIP3   OH2 2204   0.813   3.945   4.299  0.0473  0.3612 -0.0390
  733TIP3    H1 2205   0.879   3.905   4.356  1.4671  2.0161 -0.4586
  733TIP3    H2 2206   0.768   4.008   4.355  1.9631  2.5593 -0.8063
  734TIP3   OH2 2207   0.949   2.990   0.269 -0.6627  0.5404  0.6762
  734TIP3    H1 2208   0.985   3.069   0.230  1.1319  0.2947  1.7148
  734TIP3    H2 2209   1.018   2.925   0.260 -1.8157 -0.7144  0.5100
  735TIP3   OH2 2210   6.375   5.335   2.740  0.3133 -0.2335  0.1633
  735TIP3    H1 2211   6.338   5.420   2.761  0.0542  0.2352 -1.9495
  735TIP3    H2 2212   6.300   5.282   2.714  0.6120 -0.7333  0.3032
  736TIP3   OH2 2213   1.333   4.455   2.284 -0.0841  0.1238  0.0046
  736TIP3    H1 2214   1.265   4.520   2.268  0.0529  0.2953  0.1215
  736TIP3    H2 2215   1.301   4.405   2.359 -0.4520 -0.3048 -0.4314
  737TIP3   OH2 2216   0.111   1.584   3.897  0.2461 -0.0629 -0.2234
  737TIP3    H1 2217   0.017   1.567   3.893 -0.0315  1.4356 -0.9431
  737TIP3    H2 2218   0.148   1.529   3.828 -0.0685 -0.8157  0.1993
  738TIP3   OH2 2219   3.181   2.818   3.097 -0.0327  0.0651 -0.1130
  738TIP3    H1 2220   3.219   2.842   3.182 -2.4359 -0.3060  1.1653
  738TIP3    H2 2221   3.106   2.764   3.120 -0.9497  0.2406 -2.4955
  739TIP3   OH2 2222   3.486   1.768   2.156 -0.4556 -0.0642 -0.3767
  739TIP3    H1 2223   3.468   1.852   2.198 -0.4399 -0.6123  0.7902
  739TIP3    H2 2224   3.399   1.732   2.135 -0.4536  0.3399 -1.0913
  740TIP3   OH2 2225   4.037   3.934   5.111 -0.1045  0.4361  0.3011
  740TIP3    H1 2226   3.990   3.929   5.028 -1.5306 -1.1162  1.1536
  740TIP3    H2 2227   3.979   3.984   5.169  0.4760  0.7456  0.6331
  741TIP3   OH2 2228   2.455   4.762   4.665 -0.0205  0.4274  0.6817
  741TIP3    H1 2229   2.512   4.813   4.607  1.9766  0.2034  2.3379
  741TIP3    H2 2230   2.426   4.688   4.611  0.7232  0.9013 -0.4019
  742TIP3   OH2 2231   0.974   4.336   2.463  0.1079  0.3362  0.6568
  742TIP3    H1 2232   0.959   4.278   2.388  1.1041  0.5405  0.2820
  742TIP3    H2 2233   0.889   4.378   2.478 -1.0704 -2.2059  1.8346
  743TIP3   OH2 2234   3.963   4.426   0.745  0.0414 -0.0917  0.4793
  743TIP3    H1 2235   3.888   4.384   0.786  0.2446 -1.3972 -0.4195
  743TIP3    H2 2236   4.038   4.375   0.774  0.4017  0.2602  0.1731
  744TIP3   OH2 2237   1.208   0.433   1.773  0.0432  0.1584 -0.3774
  744TIP3    H1 2238   1.300   0.428   1.748 -0.1213 -2.0142 -0.7827
  744TIP3    H2 2239   1.206   0.407   1.865 -0.2206 -0.6271 -0.5943
  745TIP3   OH2 2240   2.139  -0.007   3.681  0.1599 -0.3723 -0.2923
  745TIP3    H1 2241   2.185   0.020   3.760  2.0054  0.2067 -1.4960
  745TIP3    H2 2242   2.079   0.065   3.662  0.9224  0.2732 -0.3132
  746TIP3   OH2 2243   3.931   1.639   3.541 -0.1302 -0.3651  1.2398
  746TIP3    H1 2244   3.994   1.638   3.613  0.8404 -2.2534  0.4307
  746TIP3    H2 2245   3.975   1.686   3.470  0.3765 -1.6184  0.6994
  747TIP3   OH2 2246   4.740   3.117   0.160 -0.1026 -0.4580  0.0887
  747TIP3    H1 2247   4.658   3.128   0.113  0.0474 -1.1033 -0.3425
  747TIP3    H2 2248   4.716   3.064   0.236 -0.0845 -0.6779 -0.0566
  748TIP3   OH2 2249   4.875   1.638   4.482 -0.4609 -0.0352 -0.6366
  748TIP3    H1 2250   4.894   1.558   4.531 -3.5577  0.6195  2.0034
  748TIP3    H2 2251   4.855   1.608   4.393  0.6118 -1.8928 -0.2915
  749TIP3   OH2 2252   4.847   2.848   1.652  0.2052 -0.7944  0.3348
  749TIP3    H1 2253   4.816   2.782   1.713  0.0850 -0.7194  0.3555
  749TIP3    H2 2254   4.788   2.923   1.665  0.8254 -0.3832  0.8792
  750TIP3   OH2 2255   0.898   4.902   4.841 -0.2432  0.0293  0.6706
  750TIP3    H1 2256   0.991   4.882   4.830  0.0917  1.9209 -0.3800
  750TIP3    H2 2257   0.888   4.917   4.935  0.2420 -1.2895  0.9615
  751TIP3   OH2 2258   3.729   5.113   0.956  0.4444 -0.2789  0.1198
  751TIP3    H1 2259   3.767   5.074   0.877  0.7337  0.2821 -0.0228
  751TIP3    H2 2260   3.636   5.123   0.935  0.3902 -0.7663  0.1108
  752TIP3   OH2 2261   4.608   2.924   4.141 -0.4493 -0.2150 -0.3126
  752TIP3    H1 2262   4.664   2.850   4.164 -0.0635 -0.2547 -1.3666
  752TIP3    H2 2263   4.666   2.987   4.100 -0.7742  0.7019  0.5849
  753TIP3   OH2 2264   2.384   2.867   0.924  0.2836 -0.4184  0.3969
  753TIP3    H1 2265   2.389   2.882   0.830 -1.5130 -1.9860 -0.0125
  753TIP3    H2 2266   2.399   2.772   0.933 -0.6367 -0.4676  1.5751
  754TIP3   OH2 2267   1.338   3.049   3.852  0.2368  0.1938  0.0455
  754TIP3    H1 2268   1.319   3.054   3.758 -1.6296  0.4451  0.4072
  754TIP3    H2 2269   1.314   2.959   3.876  0.2199  0.2851  0.3767
  755TIP3   OH2 2270   2.067   1.557   5.050  0.3093 -0.0983  0.6149
  755TIP3    H1 2271   1.981   1.542   5.010 -0.1476  0.3083  1.4152
  755TIP3    H2 2272   2.082   1.651   5.040 -0.4538  0.2794  2.5904
  756TIP3   OH2 2273   0.445   4.000   1.911 -0.0081  0.1628  0.3645
  756TIP3    H1 2274   0.383   4.049   1.964  0.3054 -0.8250  1.7014
  756TIP3    H2 2275   0.430   4.030   1.822 -1.1690  1.2223  0.8943
  757TIP3   OH2 2276   2.171   4.142   2.586  0.4273  0.1472 -0.5333
  757TIP3    H1 2277   2.191   4.233   2.606 -2.2557  0.5234  0.9355
  757TIP3    H2 2278   2.089   4.125   2.632  2.4197 -4.0208  2.1203
  758TIP3   OH2 2279   4.459   1.680   1.823 -0.7968  0.1229  0.6624
  758TIP3    H1 2280   4.446   1.660   1.730  0.2606  1.6217  0.1393
  758TIP3    H2 2281   4.393   1.747   1.842 -0.6410  0.2264  0.8373
  759TIP3   OH2 2282   5.673   4.051   0.278  0.6752  0.1694 -0.3549
  759TIP3    H1 2283   5.699   3.991   0.348  2.2968  0.4111 -0.7140
  759TIP3    H2 2284   5.756   4.081   0.240 -0.0614  2.8045 -0.0388
  760TIP3   OH2 2285   2.898   5.333   2.993 -0.1271  0.2162  0.3249
  760TIP3    H1 2286   2.902   5.345   2.898 -0.0249  1.1578  0.4321
  760TIP3    H2 2287   2.926   5.418   3.028 -2.0059  0.5401  1.1878
  761TIP3   OH2 2288   2.948   4.681   4.713 -0.1779  0.0950 -0.5751
  761TIP3    H1 2289   3.004   4.635   4.651  0.0400 -0.2797 -0.1006
  761TIP3    H2 2290   2.884   4.616   4.741  0.2516  0.0049  0.2441
  762TIP3   OH2 2291   4.498   3.705   4.694  0.2218 -0.0186 -0.1082
  762TIP3    H1 2292   4.419   3.755   4.712  0.3866  0.3481 -0.3900
  762TIP3    H2 2293   4.557   3.767   4.651  0.6370 -0.3041  0.0373
  763TIP3   OH2 2294   2.711   5.154   3.091  0.7373  0.1036 -0.6565
  763TIP3    H1 2295   2.635   5.198   3.054  0.1596 -0.7942 -0.5752
  763TIP3    H2 2296   2.785   5.211   3.071  0.0389  0.9907 -0.7277
  764TIP3   OH2 2297   3.658   0.821   2.165 -0.1093 -0.1999 -0.0610
  764TIP3    H1 2298   3.709   0.850   2.089 -0.0590 -3.0498 -1.2360
  764TIP3    H2 2299   3.569   0.850   2.147  0.1299  0.2084 -0.6185
  765TIP3   OH2 2300   0.129   0.430   4.658 -0.5803 -0.2851 -0.2079
  765TIP3    H1 2301   0.128   0.409   4.565  1.1570  0.8742 -0.5248
  765TIP3    H2 2302   0.140   0.525   4.662 -1.1693 -0.2471  1.1852
  766TIP3   OH2 2303   4.317   0.150   1.728 -0.5985 -0.5955  0.2930
  766TIP3    H1 2304   4.280   0.224   1.679 -1.4776 -1.0418  0.2614
  766TIP3    H2 2305   4.401   0.182   1.760 -0.5048  0.0792 -0.5817
  767TIP3   OH2 2306   1.825   2.138   0.858 -0.0722 -0.3931 -0.0453
  767TIP3    H1 2307   1.756   2.156   0.922  0.0812 -2.2388  0.7097
  767TIP3    H2 2308   1.780   2.134   0.774 -0.3127  1.8467 -0.0929
  768TIP3   OH2 2309   1.990   5.188   1.718  0.2197 -0.8773 -0.3966
  768TIP3    H1 2310   2.051   5.241   1.666 -0.0985  0.7980  0.8511
  768TIP3    H2 2311   2.046   5.123   1.761  1.1759  0.5914  0.6812
  769TIP3   OH2 2312   3.750   5.624   0.934 -0.1415  0.1924 -0.1732
  769TIP3    H1 2313   3.757   5.690   0.865  0.3093  0.5655  0.2278
  769TIP3    H2 2314   3.666   5.642   0.977 -0.6950 -0.3949 -0.9764
  770TIP3   OH2 2315   0.887   0.324   1.782  0.0337 -0.0146  0.1103
  770TIP3    H1 2316   0.932   0.241   1.763  0.0233  0.5117 -2.5129
  770TIP3    H2 2317   0.950   0.372   1.836  1.0668 -0.7589 -0.3878
  771TIP3   OH2 2318   4.223   0.298   4.641 -0.0198 -0.2793  0.1478
  771TIP3    H1 2319   4.289   0.311   4.573  1.2460 -0.1905  1.3647
  771TIP3    H2 2320   4.169   0.377   4.637  0.8204  0.3029  0.0937
  772TIP3   OH2 2321   6.217   0.729   2.680 -0.0348 -0.0676 -0.0094
  772TIP3    H1 2322   6.253   0.761   2.762  1.8011  1.6517 -1.3722
  772TIP3    H2 2323   6.131   0.770   2.674  0.5357  1.2292  0.2760
  773TIP3   OH2 2324   6.044   3.059   3.852 -0.2119 -0.1349 -0.0839
  773TIP3    H1 2325   6.066   3.058   3.945 -1.7345  1.0315  0.3249
  773TIP3    H2 2326   6.115   3.109   3.811 -0.4294  0.8690  0.7288
  774TIP3   OH2 2327   4.743   1.149   4.196  0.0547 -0.0728  0.1668
  774TIP3    H1 2328   4.681   1.149   4.269 -1.0250  1.9720 -0.6730
  774TIP3    H2 2329   4.827   1.172   4.236 -0.1531 -0.6974  0.9999
  775TIP3   OH2 2330   0.256   1.108   2.199 -0.5849 -0.1827 -0.1629
  775TIP3    H1 2331   0.272   1.202   2.197  0.6044 -0.3788 -0.8673
  775TIP3    H2 2332   0.261   1.085   2.292 -1.0762  0.4687  0.0336
  776TIP3   OH2 2333   1.701   2.113   3.238  0.0361 -0.1479 -0.1022
  776TIP3    H1 2334   1.675   2.067   3.319  0.6172  1.0324  0.7794
  776TIP3    H2 2335   1.621   2.158   3.210  0.1639  0.5295  0.5820
  777TIP3   OH2 2336   3.610   4.259   1.543  0.2252 -0.2023 -0.2474
  777TIP3    H1 2337   3.528   4.277   1.496  0.2615 -0.7804 -0.5409
  777TIP3    H2 2338   3.601   4.169   1.572  0.1657  0.1842  0.9565
  778TIP3   OH2 2339   6.023   4.975   3.804  0.3173 -0.1890 -0.0436
  778TIP3    H1 2340   5.933   4.953   3.830 -0.1049 -0.2369 -1.4381
  778TIP3    H2 2341   6.073   4.895   3.818  0.1242 -0.1926  0.6485
  779TIP3   OH2 2342   5.388   0.806   1.103  0.2353 -0.1159 -0.5251
  779TIP3    H1 2343   5.346   0.890   1.084  1.4772  0.8319  0.7598
  779TIP3    H2 2344   5.362   0.786   1.193  1.6347 -0.0600 -0.0986
  780TIP3   OH2 2345   0.397   2.048   4.814  0.0362 -0.2950 -0.0981
  780TIP3    H1 2346   0.392   2.140   4.840 -0.3030 -0.6031  1.0200
  780TIP3    H2 2347   0.489   2.025   4.824 -0.1704 -0.5759  1.6001
  781TIP3   OH2 2348   1.391   5.684   2.726  0.2943 -0.1168 -0.1896
  781TIP3    H1 2349   1.374   5.758   2.668  0.8895  2.7586  2.9711
  781TIP3    H2 2350   1.304   5.653   2.752 -0.1445  2.2764  1.5532
  782TIP3   OH2 2351   2.699   2.113   0.744 -0.3058 -0.1164  0.3393
  782TIP3    H1 2352   2.746   2.170   0.684  1.5874 -2.6014 -0.7302
  782TIP3    H2 2353   2.749   2.119   0.826  0.3612 -0.7679 -0.0060
  783TIP3   OH2 2354   0.099   0.722   2.459 -0.0582 -0.3461 -0.3182
  783TIP3    H1 2355   0.034   0.654   2.478 -0.6264  0.4214  0.5581
  783TIP3    H2 2356   0.128   0.703   2.370  0.8383 -2.5733  0.3823
  784TIP3   OH2 2357   3.983   3.334   2.358  0.2032 -0.4227 -0.1280
  784TIP3    H1 2358   4.044   3.356   2.428  1.9904  0.4843 -1.8665
  784TIP3    H2 2359   3.915   3.401   2.362  0.6663  0.0229  0.3144
  785TIP3   OH2 2360   4.036   1.577   2.912  0.0119 -0.4404 -1.0137
  785TIP3    H1 2361   3.987   1.559   2.992 -0.6603 -0.1279 -1.3454
  785TIP3    H2 2362   4.082   1.659   2.930 -0.7767  0.0616 -1.2215
  786TIP3   OH2 2363   3.686   5.040   2.301 -0.2808  0.8472  0.4930
  786TIP3    H1 2364   3.769   5.039   2.254 -0.7804  2.0128 -0.4838
  786TIP3    H2 2365   3.699   5.104   2.371 -1.0399  2.8909 -1.1180
  787TIP3   OH2 2366   5.916   1.936   2.915  0.9034  0.6711  0.4699
  787TIP3    H1 2367   5.901   1.978   2.830 -0.2337 -0.4399  0.0903
  787TIP3    H2 2368   5.937   2.009   2.974 -2.1217  2.0045  0.1048
  788TIP3   OH2 2369   2.295   3.148   5.014  0.3997 -0.0821 -0.6181
  788TIP3    H1 2370   2.310   3.122   4.923  2.2115 -0.1427 -0.3502
  788TIP3    H2 2371   2.327   3.238   5.019  1.7099 -0.5598  0.2478
  789TIP3   OH2 2372   1.869   1.640   3.182  0.4986 -0.4377  0.6058
  789TIP3    H1 2373   1.794   1.698   3.191  1.0158  0.7308 -1.8124
  789TIP3    H2 2374   1.945   1.699   3.177  1.1178 -1.2846 -1.0811
  790TIP3   OH2 2375   1.393   4.679   2.004 -0.2141 -0.0162  0.0260
  790TIP3    H1 2376   1.346   4.610   2.049 -0.6403 -0.1016 -0.5339
  790TIP3    H2 2377   1.449   4.634   1.941  1.6399  0.0126  1.5862
  791TIP3   OH2 2378   3.312   2.414   0.603  0.6241 -0.1701 -0.0563
  791TIP3    H1 2379   3.267   2.462   0.534  0.0500  0.5257  0.7688
  791TIP3    H2 2380   3.277   2.325   0.597 -0.6009  0.2579  0.3075
  792TIP3   OH2 2381   0.633   3.003   1.713 -0.5607  0.2583  0.1969
  792TIP3    H1 2382   0.625   2.952   1.794 -0.4784  1.0639  0.7194
  792TIP3    H2 2383   0.725   2.991   1.687 -0.1026  1.4133  1.1925
  793TIP3   OH2 2384   6.014   4.534   2.614  0.7516 -0.0060  0.0286
  793TIP3    H1 2385   5.929   4.578   2.609  0.3210 -0.7970  0.2967
  793TIP3    H2 2386   6.077   4.605   2.607  0.1017  0.4775 -1.6864
  794TIP3   OH2 2387   3.904   0.710   1.968 -0.7688  0.1559 -0.1163
  794TIP3    H1 2388   3.982   0.759   1.995 -1.8847  2.5078 -0.8297
  794TIP3    H2 2389   3.908   0.711   1.872 -1.2863 -0.3674 -0.1442
  795TIP3   OH2 2390   5.878   4.056   1.623 -0.7528 -0.0013 -0.1711
  795TIP3    H1 2391   5.870   4.006   1.704 -0.3274 -1.2979 -0.8930
  795TIP3    H2 2392   5.972   4.069   1.612 -0.8526  0.8897 -0.0488
  796TIP3   OH2 2393   2.522   1.176   0.827  0.5106 -0.4330  0.1635
  796TIP3    H1 2394   2.466   1.237   0.780  0.6352  1.9903  2.8725
  796TIP3    H2 2395   2.485   1.090   0.808 -2.2687  0.8195 -0.5467
  797TIP3   OH2 2396   1.666   1.235   2.753 -0.3683  0.1587  0.2400
  797TIP3    H1 2397   1.700   1.182   2.681 -0.5170  0.4139 -0.0220
  797TIP3    H2 2398   1.581   1.267   2.721 -0.7815 -0.3336  0.8156
  798TIP3   OH2 2399   4.776   5.530   4.794 -0.0802 -0.2945  0.3466
  798TIP3    H1 2400   4.775   5.438   4.822 -2.5372 -0.8384 -1.1796
  798TIP3    H2 2401   4.729   5.576   4.864 -2.5166 -0.9780 -0.6993
  799TIP3   OH2 2402   1.117   0.639   3.720  0.1067 -0.5830 -0.4834
  799TIP3    H1 2403   1.082   0.558   3.758  0.5430 -1.3301 -1.6149
  799TIP3    H2 2404   1.204   0.615   3.687  1.0532  0.8423  0.8494
  800TIP3   OH2 2405   6.149   3.536   4.322  0.2457  0.2860  0.3784
  800TIP3    H1 2406   6.220   3.584   4.279  0.1816  1.2483  1.3114
  800TIP3    H2 2407   6.073   3.593   4.314 -0.3006 -0.4991 -0.1349
  801TIP3   OH2 2408   3.928   3.601   1.738  0.1319  0.2835 -0.1111
  801TIP3    H1 2409   4.019   3.624   1.758  0.7493 -2.1336  0.1575
  801TIP3    H2 2410   3.914   3.518   1.783 -1.6895 -0.2478 -1.5525
  802TIP3   OH2 2411   0.716   0.159   0.275 -0.2507 -0.3757  0.3449
  802TIP3    H1 2412   0.627   0.131   0.294  0.2011 -1.4004  1.0519
  802TIP3    H2 2413   0.756   0.173   0.361  0.1758  0.4123  0.0335
  803TIP3   OH2 2414   2.960   1.912   3.458 -0.6424  0.4753 -0.5947
  803TIP3    H1 2415   3.039   1.926   3.405  0.4074  1.9362  1.2556
  803TIP3    H2 2416   2.972   1.824   3.495  0.1981  0.7391 -0.2208
  804TIP3   OH2 2417   5.262   4.875   0.438 -0.0441 -0.3769 -0.4067
  804TIP3    H1 2418   5.342   4.826   0.420  0.2328 -0.7281  1.5674
  804TIP3    H2 2419   5.201   4.809   0.473 -0.1952  0.3786  0.8098
  805TIP3   OH2 2420   4.388   3.550   2.347 -0.2219 -0.2830 -0.1251
  805TIP3    H1 2421   4.353   3.489   2.282  1.4484 -0.1603 -1.2083
  805TIP3    H2 2422   4.474   3.513   2.370  0.1292  0.8227  0.3863
  806TIP3   OH2 2423   5.202   3.148   0.277 -0.5343  0.0135  0.5960
  806TIP3    H1 2424   5.275   3.201   0.246  1.1305 -1.1414  2.2333
  806TIP3    H2 2425   5.126   3.205   0.273  0.5685  1.4572 -0.6461
  807TIP3   OH2 2426   5.682   5.276   0.474 -0.4219  0.5517 -0.5132
  807TIP3    H1 2427   5.643   5.218   0.539  0.2835  1.5069  0.7967
  807TIP3    H2 2428   5.608   5.327   0.440 -1.0201 -0.9333 -1.5437
  808TIP3   OH2 2429   4.968   0.192   3.210 -0.2503  0.2041  0.0357
  808TIP3    H1 2430   4.946   0.265   3.152 -0.8235  0.0250  0.0154
  808TIP3    H2 2431   5.060   0.204   3.230 -0.2661  0.7672 -0.2054
  809TIP3   OH2 2432   2.254   1.286   4.461 -0.8706  0.4238 -0.5917
  809TIP3    H1 2433   2.239   1.361   4.404 -1.7493 -1.0424 -2.3857
  809TIP3    H2 2434   2.348   1.270   4.455 -0.7038  1.2716 -0.3210
  810TIP3   OH2 2435   3.395   5.849   4.995  0.1437 -0.2704 -0.0294
  810TIP3    H1 2436   3.481   5.819   4.967  0.0256 -0.8544  0.2104
  810TIP3    H2 2437   3.381   5.931   4.947  0.8241 -0.1764 -0.0679
  811TIP3   OH2 2438   5.351   3.647   4.207  0.0289  0.1583 -0.1481
  811TIP3    H1 2439   5.285   3.704   4.167  1.7577  1.3362 -1.4452
  811TIP3    H2 2440   5.388   3.597   4.134  0.2896 -0.8087  0.6229
  812TIP3   OH2 2441   4.116   0.910   4.003 -0.2558 -0.7332  0.4582
  812TIP3    H1 2442   4.093   0.863   3.923  1.2171 -0.4193 -0.1811
  812TIP3    H2 2443   4.182   0.854   4.045 -1.5296 -1.2607  1.8686
  813TIP3   OH2 2444   0.154   0.768   0.600 -0.2382  0.1303  0.1147
  813TIP3    H1 2445   0.159   0.679   0.637 -0.8908 -0.1682 -0.4888
  813TIP3    H2 2446   0.113   0.756   0.515 -1.1238  1.1191  0.3805
  814TIP3   OH2 2447   3.960   4.954   5.149 -0.2169  0.2665 -0.4034
  814TIP3    H1 2448   3.939   5.046   5.136  2.7637  0.7906 -2.5536
  814TIP3    H2 2449   3.925   4.910   5.071 -1.2622 -0.4001  0.4110
  815TIP3   OH2 2450   1.461   1.475   0.382  0.3979  0.6362  0.1088
  815TIP3    H1 2451   1.453   1.567   0.405 -2.8005  0.2492  0.9764
  815TIP3    H2 2452   1.428   1.470   0.292  2.4882  0.5458 -0.7152
  816TIP3   OH2 2453   4.756   2.421   4.902 -0.4609 -0.3772  0.2217
  816TIP3    H1 2454   4.768   2.378   4.987  3.0620 -0.5217 -0.1806
  816TIP3    H2 2455   4.742   2.513   4.922  1.7395 -0.1666  1.0365
  817TIP3   OH2 2456   4.333   0.783   4.485 -0.0822 -0.2002 -0.2788
  817TIP3    H1 2457   4.304   0.733   4.561 -2.1605  1.3472  0.0588
  817TIP3    H2 2458   4.337   0.720   4.413 -0.9619 -1.1511  0.4924
  818TIP3   OH2 2459   4.234   2.793   3.448  0.3702 -0.2754  0.5719
  818TIP3    H1 2460   4.221   2.769   3.540 -1.4668 -0.6504  0.2677
  818TIP3    H2 2461   4.306   2.738   3.418 -1.4975 -3.0943  0.8140
  819TIP3   OH2 2462   5.401   1.731   0.669 -0.2056  0.0563  0.9222
  819TIP3    H1 2463   5.424   1.821   0.689 -1.7757  0.2423  1.9999
  819TIP3    H2 2464   5.485   1.685   0.669  0.9778  1.8766 -2.1241
  820TIP3   OH2 2465   5.405   2.825   4.507  0.5168  0.4310  0.2491
  820TIP3    H1 2466   5.348   2.748   4.512  0.5684  0.3394 -0.4678
  820TIP3    H2 2467   5.344   2.898   4.499  0.4867  0.2798 -1.1708
  821TIP3   OH2 2468   2.537   1.358   4.464  0.2929  0.0900 -0.0672
  821TIP3    H1 2469   2.497   1.445   4.475  0.6268  0.5037 -1.8745
  821TIP3    H2 2470   2.630   1.373   4.477  0.3872  0.0677 -0.7117
  822TIP3   OH2 2471   4.882   2.059   1.687  0.0651 -0.1478 -0.4870
  822TIP3    H1 2472   4.898   2.041   1.595 -0.5798 -2.5095 -0.2028
  822TIP3    H2 2473   4.892   1.974   1.730  0.8630  0.9816  1.7202
  823TIP3   OH2 2474   1.066   3.477   3.416 -0.2917  0.3574 -0.1888
  823TIP3    H1 2475   1.062   3.571   3.398 -2.7974  0.0779 -1.4061
  823TIP3    H2 2476   1.102   3.438   3.337  0.0995  0.2149  0.0550
  824TIP3   OH2 2477   4.840   3.050   4.814  0.5675 -0.8598 -0.1654
  824TIP3    H1 2478   4.923   3.061   4.768  0.3891 -0.2950 -0.3614
  824TIP3    H2 2479   4.800   3.136   4.812 -0.7134 -1.4403 -1.4197
  825TIP3   OH2 2480   4.038   0.907   3.377  0.5285 -0.5632 -0.5227
  825TIP3    H1 2481   4.124   0.934   3.409  1.1602 -0.9582 -1.8294
  825TIP3    H2 2482   3.988   0.886   3.457  1.4863  0.0877  0.2686
  826TIP3   OH2 2483   3.047   5.669   1.761  0.2639  0.1342  0.1171
  826TIP3    H1 2484   2.999   5.746   1.731  1.9671  1.2292  0.0769
  826TIP3    H2 2485   3.045   5.675   1.857 -2.7391 -1.8322  0.3078
  827TIP3   OH2 2486   5.264   0.586   3.695 -0.3814 -0.2639 -0.6413
  827TIP3    H1 2487   5.350   0.555   3.723 -0.1826  1.1894  0.4308
  827TIP3    H2 2488   5.280   0.633   3.614 -0.5066 -1.7589 -1.5853
  828TIP3   OH2 2489   3.250   4.550   2.491 -0.0427  0.2805  0.2412
  828TIP3    H1 2490   3.218   4.491   2.422 -1.8424 -0.5343  1.6954
  828TIP3    H2 2491   3.247   4.637   2.452 -0.8998 -0.1802 -0.7544
  829TIP3   OH2 2492   2.169   1.137   1.005 -0.1234 -0.4916 -0.0601
  829TIP3    H1 2493   2.145   1.214   0.953  0.9365  1.0128  1.5779
  829TIP3    H2 2494   2.199   1.074   0.940 -0.0268  0.8605 -1.3960
  830TIP3   OH2 2495   1.163   4.994   3.761 -0.6401 -0.3933 -0.5157
  830TIP3    H1 2496   1.110   4.956   3.831  1.3979  0.7569  1.8320
  830TIP3    H2 2497   1.113   5.070   3.731 -0.8897  0.0054  0.8303
  831TIP3   OH2 2498   0.062   1.497   1.058  0.3943  0.1504 -0.2680
  831TIP3    H1 2499   0.084   1.428   0.995  1.1102  0.6456 -0.5826
  831TIP3    H2 2500   0.068   1.578   1.007 -2.5044  0.3536 -0.4604
  832TIP3   OH2 2501   5.355   1.571   4.012  0.1543 -0.6814 -0.0089
  832TIP3    H1 2502   5.348   1.520   4.093 -0.8766 -1.5934 -0.6391
  832TIP3    H2 2503   5.285   1.635   4.017 -1.2997 -2.1169 -1.0833
  833TIP3   OH2 2504   4.529   0.738   2.000  0.1865  0.3056 -0.0861
  833TIP3    H1 2505   4.551   0.665   2.058 -0.4069 -1.3132 -1.7908
  833TIP3    H2 2506   4.437   0.755   2.017 -0.0174 -0.2459 -0.6097
  834TIP3   OH2 2507   5.088   5.319   0.804  0.0306  0.0591  0.2903
  834TIP3    H1 2508   5.098   5.244   0.746 -0.8981 -1.0343  1.4884
  834TIP3    H2 2509   5.040   5.384   0.751  1.2338  0.0351 -0.9005
  835TIP3   OH2 2510   6.281   0.783   2.980  0.6207 -0.8579 -0.4385
  835TIP3    H1 2511   6.303   0.831   3.060  3.9230 -0.1023 -1.6588
  835TIP3    H2 2512   6.185   0.783   2.978  0.4461  0.2119  2.8227
  836TIP3   OH2 2513   5.488   3.274   4.852  0.0568 -0.3556  0.2477
  836TIP3    H1 2514   5.410   3.225   4.878 -0.6344 -0.1495 -1.3583
  836TIP3    H2 2515   5.551   3.206   4.828 -0.5858 -0.5061 -1.0947
  837TIP3   OH2 2516   0.707   2.014   0.253  0.3851 -0.2729 -0.3697
  837TIP3    H1 2517   0.682   1.935   0.206 -0.6657  0.1545 -0.5529
  837TIP3    H2 2518   0.734   2.075   0.183  0.3820 -0.1861 -0.2954
  838TIP3   OH2 2519   1.730   5.144   2.643  0.6431  0.4809  0.2635
  838TIP3    H1 2520   1.719   5.239   2.638 -2.5937  0.2594  0.9232
  838TIP3    H2 2521   1.660   5.114   2.702  0.9538 -2.3885 -0.6464
  839TIP3   OH2 2522   5.110   2.316   2.664  0.0508  0.5417  0.0612
  839TIP3    H1 2523   5.186   2.281   2.617 -1.5105  0.4278 -2.5763
  839TIP3    H2 2524   5.097   2.403   2.626 -0.7630  0.8356  0.9742
  840TIP3   OH2 2525   5.927   5.488   4.546 -0.4302 -0.5686 -0.2383
  840TIP3    H1 2526   5.931   5.397   4.577 -3.6410 -0.9831 -0.6345
  840TIP3    H2 2527   5.835   5.513   4.558  0.4093  2.7973  0.1698
  841TIP3   OH2 2528   2.497   4.637   1.662 -0.1090 -0.1889  0.3428
  841TIP3    H1 2529   2.561   4.657   1.730 -0.3684  0.4872  0.3989
  841TIP3    H2 2530   2.433   4.580   1.705  0.7430 -1.3440  0.1290
  842TIP3   OH2 2531   0.136   0.904   5.108 -0.6415 -0.1179 -0.3788
  842TIP3    H1 2532   0.190   0.943   5.177 -0.6513 -0.7204 -0.0222
  842TIP3    H2 2533   0.119   0.815   5.139 -0.0608 -0.6273 -1.4884
  843TIP3   OH2 2534   4.049   0.282   4.309  0.3267 -0.0125 -0.5101
  843TIP3    H1 2535   4.124   0.337   4.332  0.0675  0.6185 -1.1329
  843TIP3    H2 2536   4.082   0.223   4.240  0.1558  0.5391 -1.0750
  844TIP3   OH2 2537   2.972   4.626   1.331 -0.3361  0.2470  0.7830
  844TIP3    H1 2538   3.060   4.596   1.354 -0.1388 -2.5936 -2.7654
  844TIP3    H2 2539   2.914   4.574   1.387  0.1835  0.0139  1.1165
  845TIP3   OH2 2540   2.626   2.573   4.374  0.2957  0.0292  0.2820
  845TIP3    H1 2541   2.624   2.484   4.339 -1.3938  0.0139  0.3485
  845TIP3    H2 2542   2.608   2.629   4.298  3.4544  0.5329 -0.2189
  846TIP3   OH2 2543   2.011   2.039   1.370  0.2255  0.6166  0.6807
  846TIP3    H1 2544   2.106   2.039   1.381  0.1878  0.6765  1.0467
  846TIP3    H2 2545   1.994   1.968   1.308  0.3923 -0.4320  1.7851
  847TIP3   OH2 2546   1.594   4.176   2.109  0.2523  0.1577  0.0021
  847TIP3    H1 2547   1.615   4.185   2.016  1.9912 -1.7267  0.1495
  847TIP3    H2 2548   1.615   4.262   2.146 -0.7400  1.0315 -1.3384
  848TIP3   OH2 2549   4.060   2.674   0.587 -0.0395  0.1461  0.3686
  848TIP3    H1 2550   4.081   2.704   0.499  1.3292 -0.1654  0.5564
  848TIP3    H2 2551   3.987   2.614   0.576 -1.4502  1.8781 -0.2531
  849TIP3   OH2 2552   4.917   4.725   0.090 -0.2742  0.3065 -0.3024
  849TIP3    H1 2553   4.936   4.809   0.048  1.3748  1.1390  1.9223
  849TIP3    H2 2554   4.959   4.660   0.033  0.2684  1.2066 -0.9604
  850TIP3   OH2 2555   3.372   5.750   2.450  0.6750  0.0168 -0.2091
  850TIP3    H1 2556   3.364   5.762   2.355  0.6219  1.0482 -0.0880
  850TIP3    H2 2557   3.372   5.839   2.485  0.5175 -0.3609  0.7767
  851TIP3   OH2 2558   0.844   2.194   0.830 -0.0082 -0.0234 -0.0207
  851TIP3    H1 2559   0.833   2.226   0.920  0.6823  1.0780 -0.3110
  851TIP3    H2 2560   0.761   2.151   0.809 -2.1494  3.9442 -0.5805
  852TIP3   OH2 2561   2.602   0.876   0.516 -0.0737  0.2197 -0.4930
  852TIP3    H1 2562   2.651   0.894   0.596  0.8725  1.1451 -1.2407
  852TIP3    H2 2563   2.585   0.782   0.518  2.9971 -0.4441 -0.8378
  853TIP3   OH2 2564   1.784   5.088   3.046  0.0332 -0.2543  0.3790
  853TIP3    H1 2565   1.790   4.998   3.080  0.1189 -0.9333 -1.2909
  853TIP3    H2 2566   1.832   5.084   2.963  0.0193  1.3500  0.2743
  854TIP3   OH2 2567   3.000   4.293   2.980  0.1285 -0.0737 -0.3650
  854TIP3    H1 2568   2.958   4.347   2.913  1.1071  2.7398  1.1420
  854TIP3    H2 2569   3.088   4.331   2.990 -0.0978 -0.0690  2.7287
  855TIP3   OH2 2570   4.604   4.052   4.309 -0.0602  0.2457 -0.2247
  855TIP3    H1 2571   4.591   4.137   4.266  1.8631 -0.0070 -1.3937
  855TIP3    H2 2572   4.611   3.990   4.237  0.0227 -0.6994  0.5845
  856TIP3   OH2 2573   2.986   2.406   4.444  0.3077  0.4691 -0.0617
  856TIP3    H1 2574   2.944   2.336   4.395  1.3305 -1.4927  1.6782
  856TIP3    H2 2575   3.076   2.409   4.410 -0.4383  2.9314 -2.0513
  857TIP3   OH2 2576   4.834   3.091   2.442  0.2654 -0.7509 -0.2040
  857TIP3    H1 2577   4.886   3.070   2.519 -0.4889 -3.1039 -0.2746
  857TIP3    H2 2578   4.899   3.114   2.375  0.9666  0.3321  0.7953
  858TIP3   OH2 2579   4.776   4.842   2.063 -0.2012  0.4904  0.4148
  858TIP3    H1 2580   4.681   4.834   2.071 -0.3720 -1.1768 -2.2352
  858TIP3    H2 2581   4.788   4.923   2.014 -0.4251 -0.2752 -0.9583
  859TIP3   OH2 2582   4.046   1.248   0.256  0.1735 -0.0606 -0.0172
  859TIP3    H1 2583   4.041   1.264   0.162  0.9305  1.5066  0.1759
  859TIP3    H2 2584   4.140   1.247   0.275  0.0406  1.7119  0.9975
  860TIP3   OH2 2585   5.589   3.523   4.935  0.3534  0.2417 -0.0453
  860TIP3    H1 2586   5.606   3.540   5.027 -0.4211 -0.3922  0.2234
  860TIP3    H2 2587   5.530   3.448   4.934 -1.8679  1.8631 -0.9219
  861TIP3   OH2 2588   2.806   2.063   3.619 -0.4316 -0.2137  0.4387
  861TIP3    H1 2589   2.859   2.010   3.559 -1.2766 -0.5257 -0.0395
  861TIP3    H2 2590   2.866   2.132   3.649  0.3196 -0.7072  0.1067
  862TIP3   OH2 2591   6.254   5.456   5.024  0.6209 -0.1407 -0.0087
  862TIP3    H1 2592   6.296   5.537   5.053 -0.1166  0.5100 -0.7044
  862TIP3    H2 2593   6.299   5.387   5.072  2.1449  0.5605 -0.3511
  863TIP3   OH2 2594   3.200   0.043   2.118 -0.3401 -0.2372  0.1580
  863TIP3    H1 2595   3.179   0.050   2.025 -0.0208 -1.6741 -0.0471
  863TIP3    H2 2596   3.227  -0.048   2.130 -1.3570 -0.3714  1.8522
  864TIP3   OH2 2597   0.162   2.651   3.433  0.3334 -0.0786  0.2647
  864TIP3    H1 2598   0.245   2.666   3.478 -0.4669 -0.4224  1.9441
  864TIP3    H2 2599   0.133   2.565   3.465 -1.7089  0.9704  1.4566
  865TIP3   OH2 2600   4.885   3.771   3.889  0.4842 -0.0561  0.2404
  865TIP3    H1 2601   4.951   3.764   3.820  0.9666  0.2240  0.6631
  865TIP3    H2 2602   4.878   3.682   3.925  1.7369  0.1983  1.1847
  866TIP3   OH2 2603   5.589   0.943   4.063  0.6353  0.3841 -0.2176
  866TIP3    H1 2604   5.666   0.946   4.119 -0.6726  0.8817  1.6549
  866TIP3    H2 2605   5.581   0.850   4.039  1.6245  0.2819 -0.1952
  867TIP3   OH2 2606   2.273   1.624   4.602 -0.3433  0.3304 -0.2874
  867TIP3    H1 2607   2.360   1.639   4.566 -0.5911  2.2326 -0.1972
  867TIP3    H2 2608   2.288   1.608   4.695  0.0076 -1.0129 -0.5502
  868TIP3   OH2 2609   0.572   2.462   4.747  0.4776  0.0114  0.1620
  868TIP3    H1 2610   0.539   2.387   4.797  1.8270 -0.3404  0.5672
  868TIP3    H2 2611   0.537   2.449   4.659  1.1272 -1.4240  0.0793
  869TIP3   OH2 2612   3.267   0.153   3.867  0.6161  0.0010  0.0793
  869TIP3    H1 2613   3.202   0.117   3.807  0.6028  0.1777 -0.0155
  869TIP3    H2 2614   3.350   0.113   3.840  0.4624 -0.6423  0.5516
  870TIP3   OH2 2615   6.246   2.131   2.273 -0.1874  0.1262 -0.2203
  870TIP3    H1 2616   6.279   2.172   2.193 -1.6699  2.4210  0.2268
  870TIP3    H2 2617   6.316   2.143   2.337 -0.8030  2.7344  0.0721
  871TIP3   OH2 2618   3.674   2.795   0.473  0.4081  0.5109  0.3106
  871TIP3    H1 2619   3.635   2.712   0.498 -2.9905  1.2856 -1.7588
  871TIP3    H2 2620   3.727   2.775   0.396  1.6066 -0.0548  1.2512
  872TIP3   OH2 2621   1.143   1.618   3.705 -0.1097  0.3930 -0.8299
  872TIP3    H1 2622   1.059   1.625   3.751  1.2511  1.3134  1.7625
  872TIP3    H2 2623   1.133   1.672   3.627 -1.0310  3.1009  1.0086
  873TIP3   OH2 2624   0.930   2.048   1.097 -0.1879  0.3541 -0.6843
  873TIP3    H1 2625   0.891   2.003   1.022 -0.2684 -3.0885  1.2044
  873TIP3    H2 2626   1.024   2.040   1.084 -0.2004  0.6602 -0.9408
  874TIP3   OH2 2627   1.659   0.430   2.496  0.1953  0.5415 -0.1728
  874TIP3    H1 2628   1.595   0.444   2.566 -0.0390 -0.6322 -0.1304
  874TIP3    H2 2629   1.704   0.349   2.521  1.5360  1.2026 -0.3285
  875TIP3   OH2 2630   1.487   2.599   0.152 -0.1235 -0.2585  0.6781
  875TIP3    H1 2631   1.397   2.633   0.144 -0.8758 -1.6483  2.4096
  875TIP3    H2 2632   1.522   2.644   0.228  0.4428 -0.1692  0.3656
  876TIP3   OH2 2633   0.366   5.372   3.123  0.3081 -0.2469  0.7106
  876TIP3    H1 2634   0.309   5.338   3.192 -0.7443 -0.1818 -0.0917
  876TIP3    H2 2635   0.334   5.331   3.043  0.5975  0.7344  0.0685
  877TIP3   OH2 2636   2.477   5.346   1.763 -0.3373  1.0542 -0.3796
  877TIP3    H1 2637   2.562   5.368   1.725  0.3453  0.3770  0.7070
  877TIP3    H2 2638   2.441   5.280   1.704  0.7335 -0.0237  0.1148
  878TIP3   OH2 2639   3.392   1.270   1.259 -0.0069 -0.5451 -0.6483
  878TIP3    H1 2640   3.434   1.253   1.175 -1.8075  1.2942 -2.0075
  878TIP3    H2 2641   3.302   1.241   1.248  0.1128 -1.8513  1.2716
  879TIP3   OH2 2642   2.100   0.042   5.126 -0.1769  0.1460 -0.2226
  879TIP3    H1 2643   2.064  -0.044   5.148 -1.2164  0.7132  0.3586
  879TIP3    H2 2644   2.025   0.094   5.100  0.4366  0.9013 -0.5383
  880TIP3   OH2 2645   1.699   3.481   1.632 -0.2009 -0.3320  0.4971
  880TIP3    H1 2646   1.759   3.407   1.642  0.7888  0.5820  1.5968
  880TIP3    H2 2647   1.750   3.546   1.583 -1.1184 -0.4290 -0.6111
  881TIP3   OH2 2648   2.206   5.258   2.198 -0.4891 -0.5579 -0.3870
  881TIP3    H1 2649   2.179   5.349   2.184 -1.0700 -0.6692 -0.0228
  881TIP3    H2 2650   2.230   5.254   2.291  1.9259 -0.1861 -0.9243
  882TIP3   OH2 2651   2.780   0.671   0.876 -0.1630  0.5173  0.7477
  882TIP3    H1 2652   2.743   0.698   0.960 -0.5209 -0.5891  0.9665
  882TIP3    H2 2653   2.780   0.751   0.823 -1.2977  0.9133  1.3144
  883TIP3   OH2 2654   1.860   0.324   4.398 -0.3155 -0.4742 -0.0228
  883TIP3    H1 2655   1.796   0.281   4.342 -0.0223 -0.8070 -0.1087
  883TIP3    H2 2656   1.902   0.253   4.446  0.1449 -0.2801 -0.1339
  884TIP3   OH2 2657   5.129   3.404   3.600  0.1401 -0.0197 -0.1982
  884TIP3    H1 2658   5.183   3.330   3.629  0.4554 -0.0128 -0.7452
  884TIP3    H2 2659   5.183   3.448   3.533 -0.3585  0.2534 -0.4269
  885TIP3   OH2 2660   0.408   1.594   1.317  0.2002  0.0211 -0.3935
  885TIP3    H1 2661   0.441   1.637   1.238  0.5103 -0.7281 -0.6881
  885TIP3    H2 2662   0.380   1.507   1.286  1.4355 -0.7410  0.5281
  886TIP3   OH2 2663   0.686   3.217   4.807  0.7287  0.3676 -0.3623
  886TIP3    H1 2664   0.730   3.294   4.771 -0.7795  1.5700  0.2388
  886TIP3    H2 2665   0.647   3.174   4.732  0.8608  0.6817 -0.6119
  887TIP3   OH2 2666   1.523   2.327   0.072  0.8196 -0.2355  0.0265
  887TIP3    H1 2667   1.520   2.292   0.161  0.3561 -0.4152 -0.0558
  887TIP3    H2 2668   1.512   2.421   0.082 -0.1793 -0.3529  0.0979
  888TIP3   OH2 2669   4.894   2.427   2.295 -0.5018 -0.5292  0.1282
  888TIP3    H1 2670   4.878   2.334   2.279  1.4923 -1.0472  0.8959
  888TIP3    H2 2671   4.954   2.453   2.226 -0.4900  0.0062  0.3374
  889TIP3   OH2 2672   2.434   3.865   2.091  0.1017 -0.1562 -0.0136
  889TIP3    H1 2673   2.463   3.882   2.180 -0.7701 -1.7475  0.6157
  889TIP3    H2 2674   2.338   3.867   2.096  0.0281 -0.9604 -0.7467
  890TIP3   OH2 2675   4.837   3.739   1.700 -0.4985 -0.0153 -0.4365
  890TIP3    H1 2676   4.766   3.680   1.675  0.2028 -0.4094 -1.6214
  890TIP3    H2 2677   4.913   3.681   1.709 -0.2162  0.4621  0.3336
  891TIP3   OH2 2678   3.577   4.576   3.976  0.3850  0.2418 -0.0724
  891TIP3    H1 2679   3.588   4.616   3.890  1.8488 -0.5989 -0.3090
  891TIP3    H2 2680   3.650   4.609   4.028  2.1788 -2.6098 -0.5302
  892TIP3   OH2 2681   3.728   5.775   1.464 -0.2909  0.3561  0.3589
  892TIP3    H1 2682   3.686   5.742   1.543 -0.8452  2.9639  1.2639
  892TIP3    H2 2683   3.656   5.798   1.406 -0.2292  3.0868  1.1777
  893TIP3   OH2 2684   0.312   0.591   2.755 -0.3253 -0.0133  0.4826
  893TIP3    H1 2685   0.346   0.502   2.763  1.3139  0.6531  1.5904
  893TIP3    H2 2686   0.251   0.600   2.828 -0.6258 -0.2838  0.2655
  894TIP3   OH2 2687   1.696   4.425   0.043 -0.0448  0.0815 -0.5156
  894TIP3    H1 2688   1.697   4.360   0.113  0.0934  0.1645 -0.4409
  894TIP3    H2 2689   1.618   4.478   0.061 -1.5315 -1.5010 -1.8937
  895TIP3   OH2 2690   4.652   5.547   2.430  0.0906 -0.2572  0.0388
  895TIP3    H1 2691   4.589   5.604   2.473  0.2242 -0.6901  0.8409
  895TIP3    H2 2692   4.678   5.594   2.351 -0.7939  0.1808  0.0000
  896TIP3   OH2 2693   1.755   1.201   4.620 -0.5233 -0.2151  0.0990
  896TIP3    H1 2694   1.757   1.272   4.685  0.0061 -0.4233  0.3231
  896TIP3    H2 2695   1.847   1.174   4.613 -0.7645 -1.0872  0.2492
  897TIP3   OH2 2696   1.300   0.295   2.377  0.3371  0.4165  0.6361
  897TIP3    H1 2697   1.348   0.376   2.358  0.0496  0.1606 -1.3911
  897TIP3    H2 2698   1.252   0.276   2.297 -1.2021 -0.6924  1.7658
  898TIP3   OH2 2699   0.169   1.368   2.468  0.2527  0.2087 -0.0310
  898TIP3    H1 2700   0.246   1.414   2.502  1.0563 -1.8806  1.2146
  898TIP3    H2 2701   0.202   1.282   2.444 -1.3693 -0.1037 -1.2752
  899TIP3   OH2 2702   5.615   4.928   0.074  0.4035  0.8798  0.4133
  899TIP3    H1 2703   5.680   4.931   0.004 -0.6088  1.4205 -0.5295
  899TIP3    H2 2704   5.639   4.999   0.132  0.4818  1.2650 -0.0855
  900TIP3   OH2 2705   4.080   4.929   3.993 -0.3182 -0.0895  0.2738
  900TIP3    H1 2706   4.146   4.872   4.032  0.6703 -0.3062 -1.5901
  900TIP3    H2 2707   4.044   4.878   3.920 -2.4105  0.1225  1.0927
  901TIP3   OH2 2708   3.033   5.873   5.147 -0.9539 -0.2418 -0.6886
  901TIP3    H1 2709   3.062   5.783   5.133 -2.0962 -0.4842 -1.6815
  901TIP3    H2 2710   2.972   5.868   5.221  1.0425  0.1968  1.0959
  902TIP3   OH2 2711   3.175   1.232   1.103  0.0192 -0.4529 -0.5538
  902TIP3    H1 2712   3.210   1.314   1.067 -1.3468  0.6320  0.4771
  902TIP3    H2 2713   3.124   1.194   1.032 -0.0391  0.0383 -0.7796
  903TIP3   OH2 2714   0.406   4.798   0.383  0.7114 -0.1128 -0.3201
  903TIP3    H1 2715   0.483   4.855   0.376 -0.1693  1.3119  0.9843
  903TIP3    H2 2716   0.336   4.847   0.340  0.0315 -0.3753  0.4574
  904TIP3   OH2 2717   4.858   3.255   0.444 -0.1949  0.7326  0.9145
  904TIP3    H1 2718   4.946   3.240   0.479  0.9730  1.7841 -1.3525
  904TIP3    H2 2719   4.869   3.255   0.349 -2.5829  1.3483  0.5641
  905TIP3   OH2 2720   4.556   3.038   2.523  0.7451  0.3085  0.1228
  905TIP3    H1 2721   4.540   3.115   2.577  1.0599  1.3866 -1.2487
  905TIP3    H2 2722   4.606   3.072   2.448  0.9947 -1.2563 -0.4529
  906TIP3   OH2 2723   6.313   0.694   1.188  0.0310 -0.0904  0.2220
  906TIP3    H1 2724   6.301   0.757   1.118  0.8557  2.0029  1.8706
  906TIP3    H2 2725   6.225   0.659   1.205 -0.4593  0.7023 -0.6208
  907TIP3   OH2 2726   1.880   5.341   2.119 -0.3343  0.2021 -0.2912
  907TIP3    H1 2727   1.953   5.280   2.112  1.6851  2.6025 -1.4368
  907TIP3    H2 2728   1.802   5.285   2.114  1.3118 -2.5053  1.4223
  908TIP3   OH2 2729   1.292   2.459   4.925 -0.1476  0.4131 -0.2536
  908TIP3    H1 2730   1.279   2.374   4.967  0.8211  0.1988 -0.3678
  908TIP3    H2 2731   1.226   2.462   4.855  2.4357 -2.1297 -3.1105
  909TIP3   OH2 2732   4.071   3.266   4.540  0.2523 -0.5641 -0.0442
  909TIP3    H1 2733   4.086   3.216   4.460  0.3145  0.7115 -0.8635
  909TIP3    H2 2734   3.987   3.235   4.572  0.7930 -1.9741  0.1032
  910TIP3   OH2 2735   1.205   0.976   3.394  0.1171  0.1270 -0.6847
  910TIP3    H1 2736   1.207   0.891   3.351 -1.5669  0.6058 -1.8047
  910TIP3    H2 2737   1.135   1.024   3.350  1.1663  2.1883 -0.2389
  911TIP3   OH2 2738   4.424   2.796   0.541 -0.1713 -0.0823  0.0735
  911TIP3    H1 2739   4.432   2.756   0.628  0.7553  0.2795  0.1621
  911TIP3    H2 2740   4.493   2.754   0.490 -0.9117 -0.5206 -0.5911
  912TIP3   OH2 2741   3.169   3.958   3.819  0.5430 -0.4791  0.1872
  912TIP3    H1 2742   3.197   3.867   3.823  0.0304 -0.7270 -1.1996
  912TIP3    H2 2743   3.241   4.004   3.777  0.3639 -0.4621 -0.1106
  913TIP3   OH2 2744   5.770   3.983   3.042 -0.0296 -0.4163  0.1964
  913TIP3    H1 2745   5.777   3.902   2.990 -1.3106 -0.7920  0.5802
  913TIP3    H2 2746   5.706   3.962   3.110 -0.4345  0.9562  0.2614
  914TIP3   OH2 2747   2.590   3.489   4.641 -0.1513 -0.9164 -0.2635
  914TIP3    H1 2748   2.570   3.473   4.549  0.2439  0.4074 -0.5980
  914TIP3    H2 2749   2.600   3.584   4.648  0.4377 -1.0443  1.0184
  915TIP3   OH2 2750   1.950   5.626   5.203 -0.6248  0.1952 -0.0864
  915TIP3    H1 2751   1.937   5.568   5.128 -2.2974  1.3683 -0.7860
  915TIP3    H2 2752   1.871   5.680   5.204  0.4866  1.8822  1.0271
  916TIP3   OH2 2753   1.346   4.156   1.167 -0.1595  0.7715 -0.2944
  916TIP3    H1 2754   1.290   4.199   1.231 -0.5479 -1.1294  0.7202
  916TIP3    H2 2755   1.327   4.200   1.084 -0.1913  2.7848  0.7452
  917TIP3   OH2 2756   4.492   4.430   1.915 -0.4809 -0.2807 -0.6293
  917TIP3    H1 2757   4.479   4.341   1.947 -1.5511 -0.4306 -1.4137
  917TIP3    H2 2758   4.491   4.421   1.820  0.8058  0.3889 -0.7177
  918TIP3   OH2 2759   4.486   3.383   0.259  0.1556 -0.1688  0.1596
  918TIP3    H1 2760   4.464   3.359   0.349 -0.4998  0.6644  0.2347
  918TIP3    H2 2761   4.574   3.418   0.264  0.4641 -0.9476  0.3265
  919TIP3   OH2 2762   0.290   5.650   2.458  0.1071 -0.2229  0.6674
  919TIP3    H1 2763   0.201   5.670   2.486 -0.9650 -0.8263 -2.0231
  919TIP3    H2 2764   0.346   5.696   2.522 -2.1202  2.8865  0.6003
  920TIP3   OH2 2765   2.810   0.701   1.294 -0.3394 -0.6165  0.7009
  920TIP3    H1 2766   2.820   0.684   1.388 -0.5919 -0.0389  0.8405
  920TIP3    H2 2767   2.867   0.638   1.251  1.9476  0.9133  1.3421
  921TIP3   OH2 2768   1.320   0.839   0.781  0.0959 -0.3003 -0.0239
  921TIP3    H1 2769   1.271   0.908   0.737 -0.4318  0.3850  1.5418
  921TIP3    H2 2770   1.407   0.876   0.795 -0.3488  0.3298  1.3174
  922TIP3   OH2 2771   4.088   2.093   4.507 -0.3984  0.0265 -0.4211
  922TIP3    H1 2772   4.077   2.024   4.572 -3.7057  1.5520  0.8476
  922TIP3    H2 2773   4.056   2.055   4.425 -0.0164 -0.6283 -0.2745
  923TIP3   OH2 2774   3.123   0.313   1.247  0.0597 -0.4025  0.0009
  923TIP3    H1 2775   3.190   0.255   1.284  0.1380 -1.3925 -1.6006
  923TIP3    H2 2776   3.068   0.255   1.194 -0.3224  0.8735 -1.0348
  924TIP3   OH2 2777   5.099   1.336   1.534 -0.5545  0.2964 -0.1227
  924TIP3    H1 2778   5.042   1.266   1.565  0.3550 -1.3212 -1.8514
  924TIP3    H2 2779   5.164   1.346   1.603 -1.3574  0.2540  0.6507
  925TIP3   OH2 2780   2.817   0.195   4.969  0.3112  0.1493  0.3415
  925TIP3    H1 2781   2.891   0.150   5.010 -0.1415 -1.0759 -0.1516
  925TIP3    H2 2782   2.852   0.227   4.886  0.2547 -0.5395  0.0511
  926TIP3   OH2 2783   0.511   1.613   0.399  0.2882  0.3398 -0.1846
  926TIP3    H1 2784   0.435   1.636   0.452  0.8253 -1.4206  1.4776
  926TIP3    H2 2785   0.492   1.526   0.366  0.8894  0.5611 -1.1585
  927TIP3   OH2 2786   5.071   5.858   1.205  0.2230  0.1350  0.5325
  927TIP3    H1 2787   4.981   5.883   1.227  0.5205  0.4046  1.4818
  927TIP3    H2 2788   5.074   5.764   1.223  0.4676  0.3543  1.7280
  928TIP3   OH2 2789   2.547   4.345   3.126  0.3298  0.4944 -0.1707
  928TIP3    H1 2790   2.534   4.265   3.076 -3.4346 -0.2895  1.6910
  928TIP3    H2 2791   2.500   4.412   3.076  3.0755  1.5843 -1.4831
  929TIP3   OH2 2792   0.668   4.336   0.662 -0.4301 -0.4053 -0.0266
  929TIP3    H1 2793   0.653   4.394   0.737 -1.0776  0.3584 -0.7213
  929TIP3    H2 2794   0.708   4.393   0.596 -0.8681 -0.8018 -0.6435
  930TIP3   OH2 2795   3.529   0.025   4.156  0.5472  0.2309 -0.1932
  930TIP3    H1 2796   3.618   0.060   4.163  0.8628 -0.7529  1.4972
  930TIP3    H2 2797   3.472   0.102   4.154  1.4109  0.8703 -1.2182
  931TIP3   OH2 2798   1.124   2.184   4.852  0.1612 -0.3542  0.5694
  931TIP3    H1 2799   1.089   2.266   4.816  0.2661 -0.4346  0.2780
  931TIP3    H2 2800   1.048   2.127   4.859 -0.0251 -0.0195  1.3871
  932TIP3   OH2 2801   0.834   4.756   2.288  0.0072 -0.4586 -0.0959
  932TIP3    H1 2802   0.746   4.758   2.326  0.7507  0.3584  1.7162
  932TIP3    H2 2803   0.835   4.677   2.235 -1.3323 -1.3272  1.0849
  933TIP3   OH2 2804   2.360   2.660   3.947 -0.1514  0.3840 -0.0897
  933TIP3    H1 2805   2.334   2.570   3.927  0.9244  0.1898 -0.6881
  933TIP3    H2 2806   2.334   2.710   3.869 -1.0170  0.6633  0.3618
  934TIP3   OH2 2807   4.616   0.487   2.115  0.2243 -0.7917  0.7183
  934TIP3    H1 2808   4.565   0.437   2.179  0.2944 -1.0803  0.5495
  934TIP3    H2 2809   4.606   0.439   2.033 -0.3510 -0.0976  0.3707
  935TIP3   OH2 2810   1.976   5.209   4.496 -0.4274 -0.6221  0.2494
  935TIP3    H1 2811   1.953   5.120   4.522  0.3526 -1.6630 -2.2611
  935TIP3    H2 2812   1.906   5.234   4.435 -0.2010  0.1375  0.2981
  936TIP3   OH2 2813   2.023   2.093   3.448  0.0688 -0.1108 -0.6001
  936TIP3    H1 2814   2.035   2.184   3.421 -0.7833  0.2381  0.1366
  936TIP3    H2 2815   2.107   2.051   3.429  0.7192  1.0069 -0.3002
  937TIP3   OH2 2816   1.857   3.661   3.456 -0.1103 -0.3453 -0.4443
  937TIP3    H1 2817   1.812   3.745   3.454 -0.2676 -0.4250 -0.1692
  937TIP3    H2 2818   1.812   3.611   3.523  1.0011 -0.0882  0.5214
  938TIP3   OH2 2819   3.877   1.270   0.467 -0.3653 -0.1940  0.5837
  938TIP3    H1 2820   3.859   1.177   0.484 -1.6892 -0.0756 -0.0049
  938TIP3    H2 2821   3.937   1.270   0.393  0.1128 -0.5834  0.9655
  939TIP3   OH2 2822   1.256   2.646   1.869  0.0704  0.2792 -0.1544
  939TIP3    H1 2823   1.313   2.722   1.860  0.8375 -0.2025  0.4466
  939TIP3    H2 2824   1.178   2.668   1.820 -0.1003  1.8304  0.7526
  940TIP3   OH2 2825   5.213   5.337   2.187 -0.0607 -0.3645 -0.6470
  940TIP3    H1 2826   5.272   5.283   2.136 -0.1710 -0.0897 -1.0768
  940TIP3    H2 2827   5.145   5.364   2.124 -1.1361 -1.4043  0.0409
  941TIP3   OH2 2828   0.192   3.891   1.387 -0.5009  0.5744 -0.4306
  941TIP3    H1 2829   0.269   3.945   1.372  1.0832 -1.6940 -1.0018
  941TIP3    H2 2830   0.133   3.912   1.314 -0.0070  1.5844 -0.5539
  942TIP3   OH2 2831   5.960   4.009   3.229 -0.1817 -0.3769 -0.3762
  942TIP3    H1 2832   5.908   3.997   3.149 -2.5102 -0.7058  1.0856
  942TIP3    H2 2833   5.986   4.101   3.227  0.9606 -0.7021 -2.1312
  943TIP3   OH2 2834   3.165   4.265   3.246  0.1332 -0.3128 -0.4679
  943TIP3    H1 2835   3.162   4.360   3.254  1.6539 -0.3167  0.5004
  943TIP3    H2 2836   3.084   4.234   3.288 -0.1943  0.5286 -0.4700
  944TIP3   OH2 2837   3.221   3.725   2.140 -0.5383  0.4456  0.0163
  944TIP3    H1 2838   3.292   3.662   2.129 -0.4375  0.7120 -0.9512
  944TIP3    H2 2839   3.257   3.791   2.199  0.3310  1.0187 -1.1278
  945TIP3   OH2 2840   4.242   0.555   1.163 -0.2902  0.3821 -0.5803
  945TIP3    H1 2841   4.295   0.497   1.109 -1.0462 -0.1054 -0.8017
  945TIP3    H2 2842   4.280   0.546   1.251 -0.8725 -1.0483 -0.4456
  946TIP3   OH2 2843   2.175   2.540   0.274  0.0434 -0.2255 -0.0918
  946TIP3    H1 2844   2.242   2.472   0.273 -0.6123 -0.8857 -0.3664
  946TIP3    H2 2845   2.187   2.584   0.358 -1.2322 -2.4443  1.3777
  947TIP3   OH2 2846   0.277   4.694   3.840  0.2635  0.0778 -0.6529
  947TIP3    H1 2847   0.243   4.774   3.881 -0.5865 -0.0837 -1.0255
  947TIP3    H2 2848   0.205   4.662   3.786  0.8808 -0.4946 -1.1576
  948TIP3   OH2 2849   3.814   5.647   5.128 -0.9720  0.6397 -0.2728
  948TIP3    H1 2850   3.742   5.627   5.187  0.8064 -1.1040  1.4676
  948TIP3    H2 2851   3.800   5.590   5.052 -0.7981 -0.6178  0.6139
  949TIP3   OH2 2852   3.869   2.478   3.545  0.0450  0.3309  0.3221
  949TIP3    H1 2853   3.818   2.550   3.507  0.2305  0.6134  0.6104
  949TIP3    H2 2854   3.840   2.401   3.496  0.2067  0.6738 -0.3221
  950TIP3   OH2 2855   3.505   1.682   0.374 -1.0969 -0.3293 -0.1280
  950TIP3    H1 2856   3.543   1.769   0.364 -1.1798 -0.4026 -1.1430
  950TIP3    H2 2857   3.441   1.692   0.444 -0.8906  0.3501 -0.0272
  951TIP3   OH2 2858   2.462   1.801   1.728  0.4775  0.1685 -0.0859
  951TIP3    H1 2859   2.451   1.771   1.638 -1.8709  0.7878 -0.0779
  951TIP3    H2 2860   2.466   1.721   1.780 -0.0537 -0.1839 -0.5815
  952TIP3   OH2 2861   4.431   0.305   0.342 -0.1171 -0.2397 -0.4763
  952TIP3    H1 2862   4.499   0.371   0.332  0.1817 -0.6428 -1.1187
  952TIP3    H2 2863   4.474   0.222   0.321 -1.2250 -0.3220 -2.6539
  953TIP3   OH2 2864   3.243   2.221   4.321  0.3519  0.2926  0.3236
  953TIP3    H1 2865   3.193   2.210   4.240  0.0399 -0.4415  0.6016
  953TIP3    H2 2866   3.258   2.315   4.328 -0.5112  0.4705 -0.0566
  954TIP3   OH2 2867   1.064   3.168   1.191  0.4188  0.4475  0.3380
  954TIP3    H1 2868   1.124   3.143   1.261  0.4597 -1.9290 -0.4560
  954TIP3    H2 2869   1.065   3.094   1.131 -3.0522  0.4462  0.1018
  955TIP3   OH2 2870   4.095   2.428   3.785 -0.5443  0.0252  0.4555
  955TIP3    H1 2871   4.126   2.498   3.842 -1.4318  1.6611 -0.9885
  955TIP3    H2 2872   4.025   2.467   3.734 -1.6642 -2.1841  0.1727
  956TIP3   OH2 2873   3.102   5.718   2.033  0.2849  0.2233 -0.5925
  956TIP3    H1 2874   3.166   5.680   2.092  0.0153 -0.6823 -0.8680
  956TIP3    H2 2875   3.074   5.799   2.076  0.8715  0.1132  0.0040
  957TIP3   OH2 2876   2.533   0.778   3.927 -0.0901 -0.2956 -1.0571
  957TIP3    H1 2877   2.452   0.829   3.929  0.1471  0.0648  0.9034
  957TIP3    H2 2878   2.506   0.691   3.956  0.2862 -0.0395  0.1025
  958TIP3   OH2 2879   5.058   2.883   0.253  0.8851 -0.2703 -0.0801
  958TIP3    H1 2880   5.101   2.967   0.261 -1.5823  0.9900  1.1017
  958TIP3    H2 2881   5.059   2.846   0.341  0.5841 -0.7429 -0.2649
  959TIP3   OH2 2882   2.485   2.084   1.732  0.1150  0.5341  0.1121
  959TIP3    H1 2883   2.393   2.108   1.730  0.3728  1.5665  0.1614
  959TIP3    H2 2884   2.485   1.989   1.744 -0.9356  0.5133 -0.0013
  960TIP3   OH2 2885   5.102   3.035  -0.019  0.3504  0.6679 -0.2289
  960TIP3    H1 2886   5.145   3.107   0.028 -0.1121 -0.1483  1.5022
  960TIP3    H2 2887   5.084   2.970   0.048 -0.7870 -0.3475 -1.4744
  961TIP3   OH2 2888   0.054   2.648   2.181 -0.3204  0.0912 -0.4932
  961TIP3    H1 2889   0.078   2.735   2.214  0.3153 -0.5859  0.9456
  961TIP3    H2 2890   0.068   2.653   2.087  0.1589  1.4055 -0.3715
  962TIP3   OH2 2891   3.756   4.430   4.167  0.6064 -0.1932  0.0566
  962TIP3    H1 2892   3.758   4.357   4.228 -0.9053  0.5526  1.0791
  962TIP3    H2 2893   3.701   4.400   4.095 -0.4986  0.1157  0.7554
  963TIP3   OH2 2894   0.803   2.646   0.185  0.2328 -0.2082 -0.7649
  963TIP3    H1 2895   0.840   2.585   0.250  1.2440  1.0880 -0.0856
  963TIP3    H2 2896   0.862   2.639   0.111 -0.1094 -0.6273 -1.0046
  964TIP3   OH2 2897   0.910   5.505   3.981  0.0432 -0.2279  0.3175
  964TIP3    H1 2898   0.917   5.568   4.053 -0.3245 -0.3071  0.4259
  964TIP3    H2 2899   0.815   5.496   3.967  0.1070  0.6202 -0.8940
  965TIP3   OH2 2900   1.850   0.565   1.535  0.4703  0.3301  0.0517
  965TIP3    H1 2901   1.936   0.565   1.576  1.0866 -1.9402 -1.0708
  965TIP3    H2 2902   1.788   0.568   1.608  1.4693  1.0054  0.9068
  966TIP3   OH2 2903   4.593   5.671   5.054 -0.2292  0.3737  0.6385
  966TIP3    H1 2904   4.536   5.700   5.125  0.3646 -0.0109  1.2847
  966TIP3    H2 2905   4.645   5.600   5.092 -0.8841 -0.8192 -0.5798
  967TIP3   OH2 2906   0.426   5.241   0.744 -0.4649 -0.1216 -0.3940
  967TIP3    H1 2907   0.513   5.248   0.706 -0.5970 -1.9216 -1.1674
  967TIP3    H2 2908   0.380   5.320   0.716  0.4770  0.1659 -1.1770
  968TIP3   OH2 2909   0.162   0.511   4.287  0.0217  0.3182  0.6592
  968TIP3    H1 2910   0.196   0.593   4.251  0.4539  0.4738  1.3975
  968TIP3    H2 2911   0.072   0.506   4.254  0.7759 -0.2155 -1.4977
  969TIP3   OH2 2912   3.103   5.889   4.882  0.9430 -0.1647  0.0300
  969TIP3    H1 2913   3.183   5.839   4.903  0.6955 -0.0950  1.1702
  969TIP3    H2 2914   3.075   5.926   4.965 -0.4111 -0.3571 -0.3222
  970TIP3   OH2 2915   0.421   3.715   0.525 -0.4195  0.0909  0.1738
  970TIP3    H1 2916   0.411   3.717   0.429 -1.2941  0.6276  0.2658
  970TIP3    H2 2917   0.508   3.751   0.541 -0.1014 -0.3796 -0.4389
  971TIP3   OH2 2918   5.184   5.369   3.255  0.3024  0.3026  0.3196
  971TIP3    H1 2919   5.279   5.375   3.267  0.2610  2.0571 -0.0021
  971TIP3    H2 2920   5.157   5.458   3.230 -1.5429  0.0454  1.2329
  972TIP3   OH2 2921   0.323   2.971   1.824 -0.2131 -0.1603  0.4206
  972TIP3    H1 2922   0.382   3.040   1.792 -1.5204  0.8039 -0.0004
  972TIP3    H2 2923   0.332   2.975   1.919 -0.8900  1.1839  0.4485
  973TIP3   OH2 2924   4.911   5.890   2.547 -0.9827  0.1118  0.1112
  973TIP3    H1 2925   4.893   5.810   2.497  0.6466 -0.6442  0.6834
  973TIP3    H2 2926   4.839   5.895   2.610 -0.7564 -1.2835  0.5081
  974TIP3   OH2 2927   0.887   4.724   3.306 -0.1988  0.3282 -0.0696
  974TIP3    H1 2928   0.981   4.733   3.319 -0.1387 -0.4778  0.1029
  974TIP3    H2 2929   0.847   4.763   3.383  0.0655 -1.3191  0.9596
  975TIP3   OH2 2930   1.677   5.564   1.309  0.0550 -1.0921  0.1828
  975TIP3    H1 2931   1.685   5.541   1.216 -4.1893  1.0019 -0.9561
  975TIP3    H2 2932   1.678   5.660   1.310 -3.8671 -0.8647  1.5189
  976TIP3   OH2 2933   5.124   1.098   2.716 -0.1666 -0.0142  0.1438
  976TIP3    H1 2934   5.142   1.174   2.660 -1.3456  1.0459  1.1476
  976TIP3    H2 2935   5.123   1.134   2.805  0.6248 -1.4768  0.7735
  977TIP3   OH2 2936   0.218   4.213   2.779 -0.2916 -0.2094 -0.2375
  977TIP3    H1 2937   0.293   4.228   2.836 -0.3305 -0.7506 -0.0375
  977TIP3    H2 2938   0.255   4.177   2.698 -0.2892  0.0318 -0.3459
  978TIP3   OH2 2939   3.159   4.173   1.553  0.5078  0.3367 -0.1529
  978TIP3    H1 2940   3.070   4.165   1.519  0.4587  0.4456 -0.0535
  978TIP3    H2 2941   3.150   4.233   1.628  0.1746 -1.7622  1.5795
  979TIP3   OH2 2942   5.696   0.369   2.188  0.0460 -0.2777 -0.4378
  979TIP3    H1 2943   5.617   0.326   2.157 -2.0059  2.6666  0.2753
  979TIP3    H2 2944   5.754   0.298   2.214 -3.2133 -2.5996  1.1359
  980TIP3   OH2 2945   0.250   1.409   4.366  0.0116  0.0307  0.6363
  980TIP3    H1 2946   0.207   1.442   4.287 -0.2010  1.2392  1.2380
  980TIP3    H2 2947   0.227   1.316   4.368 -2.8404  0.6682  1.0727
  981TIP3   OH2 2948   0.459   4.766   2.180  0.1762 -0.4640 -0.0628
  981TIP3    H1 2949   0.487   4.815   2.257  4.6110  0.9749 -2.2022
  981TIP3    H2 2950   0.472   4.674   2.204 -1.4753 -0.2550  1.7886
  982TIP3   OH2 2951   0.050   5.620   0.580  0.2951  0.0840 -0.0219
  982TIP3    H1 2952   0.134   5.635   0.536 -1.5349  1.7054 -3.3064
  982TIP3    H2 2953   0.019   5.708   0.604 -0.7164 -0.4497  0.7189
  983TIP3   OH2 2954   5.851   1.240   3.008 -0.1087  1.1061 -0.3028
  983TIP3    H1 2955   5.757   1.229   3.020  0.3302 -0.7445  1.9195
  983TIP3    H2 2956   5.881   1.155   2.976  1.1084  0.9189  1.2710
  984TIP3   OH2 2957   4.924   3.590   4.274  0.1832 -0.5345 -0.0588
  984TIP3    H1 2958   4.872   3.553   4.346  0.0254 -1.2945 -0.5519
  984TIP3    H2 2959   4.953   3.675   4.307  0.5232 -1.0722  1.1005
  985TIP3   OH2 2960   4.056   2.064   2.166  0.1099 -0.2142  0.0115
  985TIP3    H1 2961   4.109   1.991   2.132 -2.0194 -1.5395 -0.7005
  985TIP3    H2 2962   4.081   2.139   2.112  1.5280 -0.6708 -0.0150
  986TIP3   OH2 2963   2.437   0.116   4.298  0.5772 -0.1652  0.1542
  986TIP3    H1 2964   2.358   0.067   4.275  0.0511  0.0134  1.5218
  986TIP3    H2 2965   2.438   0.190   4.238 -0.1105 -0.3494 -0.0928
  987TIP3   OH2 2966   2.872   1.403   3.646  0.7769 -0.2054  0.4630
  987TIP3    H1 2967   2.912   1.332   3.596  3.3531  1.3881  0.0830
  987TIP3    H2 2968   2.815   1.448   3.584  1.4701 -0.1496 -0.1406
  988TIP3   OH2 2969   5.869   4.732   2.258 -0.2519 -0.0739 -0.6673
  988TIP3    H1 2970   5.963   4.736   2.276 -0.6793  2.6481  1.5593
  988TIP3    H2 2971   5.862   4.757   2.166  1.1592  0.8731 -0.5613
  989TIP3   OH2 2972   2.273   4.813   0.888  0.6193 -0.6811 -0.2255
  989TIP3    H1 2973   2.243   4.904   0.897 -0.8366 -1.2217  0.8077
  989TIP3    H2 2974   2.316   4.811   0.802  0.0819  0.8257 -0.5782
  990TIP3   OH2 2975   5.868   0.865   3.276  0.0577  0.2215 -0.1066
  990TIP3    H1 2976   5.948   0.817   3.253 -0.9238 -1.1271 -0.8148
  990TIP3    H2 2977   5.858   0.851   3.370  1.2243  1.3410  0.2211
  991TIP3   OH2 2978   4.121   2.551   3.219  0.3966 -0.2210 -0.7030
  991TIP3    H1 2979   4.181   2.477   3.230  0.3638 -0.0123  1.1475
  991TIP3    H2 2980   4.034   2.510   3.209  0.2547 -0.4719  1.1661
  992TIP3   OH2 2981   4.980   0.427   0.924  0.3999  0.1096 -0.1884
  992TIP3    H1 2982   5.000   0.436   0.831 -0.0433  1.3293 -0.1895
  992TIP3    H2 2983   5.046   0.367   0.957 -0.2128 -1.3695 -1.5317
  993TIP3   OH2 2984   0.183   3.442   0.235 -0.8828  0.4358  0.0727
  993TIP3    H1 2985   0.272   3.417   0.211 -0.8463 -1.5401  1.9223
  993TIP3    H2 2986   0.195   3.510   0.302 -0.8130  1.0626 -0.5691
  994TIP3   OH2 2987   2.088   1.192   3.245 -0.5080  0.2896  0.6207
  994TIP3    H1 2988   2.147   1.180   3.319 -0.1627 -0.0354  0.2979
  994TIP3    H2 2989   2.146   1.207   3.170 -0.8171 -0.5294  0.2076
  995TIP3   OH2 2990   2.559   0.709   2.630 -0.1897 -0.3424  0.3905
  995TIP3    H1 2991   2.520   0.770   2.693 -2.3322 -1.7722  0.5557
  995TIP3    H2 2992   2.543   0.749   2.545 -0.6044 -0.1519  0.5545
  996TIP3   OH2 2993   0.790   2.006   2.926 -0.0356 -0.1991 -0.2851
  996TIP3    H1 2994   0.806   2.076   2.989 -0.0592 -0.3800 -0.0780
  996TIP3    H2 2995   0.797   1.926   2.977  0.0253 -0.3501 -0.5288
  997TIP3   OH2 2996   5.857   1.643   3.528 -0.2562  0.3415  0.0201
  997TIP3    H1 2997   5.913   1.703   3.576  2.3414 -1.5316 -0.4534
  997TIP3    H2 2998   5.800   1.605   3.595  1.0342  0.1975  1.0748
  998TIP3   OH2 2999   2.387   2.977   2.736  0.0140 -0.3524  0.1736
  998TIP3    H1 3000   2.381   2.988   2.642 -0.7592 -1.7126  0.0368
  998TIP3    H2 3001   2.303   3.009   2.770 -0.0970 -0.7753  0.3013
  999TIP3   OH2 3002   3.990   0.670   4.349  0.0915  0.1866  0.1649
  999TIP3    H1 3003   4.067   0.622   4.319 -0.5346 -0.2322 -0.8451
  999TIP3    H2 3004   4.015   0.762   4.343  1.3462  0.0307  2.2216
 1000TIP3   OH2 3005   0.017   3.255   1.841 -0.3934 -0.0989  0.2531
 1000TIP3    H1 3006   0.055   3.174   1.808  1.7737  0.6584  0.7385
 1000TIP3    H2 3007  -0.022   3.231   1.924 -1.8741 -1.0876 -0.6837
 1001TIP3   OH2 3008   5.661   5.701   4.301  0.3559  0.0217  0.5016
 1001TIP3    H1 3009   5.632   5.631   4.242 -0.6595  1.3868 -0.6884
 1001TIP3    H2 3010   5.755   5.708   4.286  0.0649  0.5526 -1.2254
 1002TIP3   OH2 3011   3.932   4.678   1.878  0.0590 -0.3601 -0.0689
 1002TIP3    H1 3012   4.020   4.715   1.874 -1.3588  3.4445  0.2603
 1002TIP3    H2 3013   3.927   4.640   1.966  0.5793  1.7971  0.9559
 1003TIP3   OH2 3014   4.613   0.789   4.454  0.0746 -0.0757 -0.0803
 1003TIP3    H1 3015   4.571   0.703   4.458 -0.9577  0.4675  1.7490
 1003TIP3    H2 3016   4.542   0.851   4.468  1.2600  0.9316  1.9017
 1004TIP3   OH2 3017   0.597   1.217   4.258  0.2062  0.2176 -0.1743
 1004TIP3    H1 3018   0.617   1.277   4.187  1.4383  0.9328  0.7229
 1004TIP3    H2 3019   0.664   1.148   4.250 -0.5944 -0.5224 -0.6130
 1005TIP3   OH2 3020   6.181   4.928   1.113 -0.5145  0.3948  0.1059
 1005TIP3    H1 3021   6.254   4.945   1.053 -0.2013  1.7887  0.8251
 1005TIP3    H2 3022   6.103   4.931   1.058 -0.0212 -2.4741 -0.9306
 1006TIP3   OH2 3023   3.272   1.737   0.128  0.5810 -0.2851  0.1961
 1006TIP3    H1 3024   3.197   1.795   0.113 -0.6099 -1.6921  0.4450
 1006TIP3    H2 3025   3.285   1.740   0.223  0.2957 -0.6747  0.2498
 1007TIP3   OH2 3026   2.234   2.309   0.852  0.5228  0.2515 -0.3138
 1007TIP3    H1 3027   2.174   2.238   0.830  0.2950  0.6828 -1.1241
 1007TIP3    H2 3028   2.286   2.274   0.925  0.0404 -0.5331 -0.3276
 1008TIP3   OH2 3029   2.194   4.396   1.161  0.2616  0.0778 -0.6915
 1008TIP3    H1 3030   2.226   4.457   1.094  1.6334 -0.6253 -0.6949
 1008TIP3    H2 3031   2.232   4.312   1.138 -2.9777 -1.2466 -1.6765
 1009TIP3   OH2 3032   2.191   3.819   0.237 -0.2469  0.8664  0.2715
 1009TIP3    H1 3033   2.261   3.884   0.234 -1.4312  2.1807  0.0544
 1009TIP3    H2 3034   2.234   3.737   0.213  1.6564  1.1864  2.2385
 1010TIP3   OH2 3035   1.154   4.920   4.789  0.1199  0.1493 -0.3768
 1010TIP3    H1 3036   1.175   4.901   4.698 -2.0810  0.6884 -1.0494
 1010TIP3    H2 3037   1.182   5.011   4.801 -4.1433  1.9637 -2.1997
 1011TIP3   OH2 3038   4.102   1.420   1.132  1.0991 -0.1566 -0.0662
 1011TIP3    H1 3039   4.017   1.457   1.108  1.0838  1.9113  2.7061
 1011TIP3    H2 3040   4.165   1.482   1.096  1.3107 -0.3506 -0.0253
 1012TIP3   OH2 3041   3.481   3.336   3.204  0.0034  0.3262  0.6918
 1012TIP3    H1 3042   3.481   3.321   3.299  0.6597 -1.7214  0.4158
 1012TIP3    H2 3043   3.570   3.317   3.176 -0.9702 -2.7728 -0.7822
 1013TIP3   OH2 3044   5.932   5.790   1.409  0.1537 -0.5323  0.1009
 1013TIP3    H1 3045   5.981   5.872   1.415 -1.9172  0.7754 -0.0365
 1013TIP3    H2 3046   6.000   5.723   1.398  1.8581  1.3289 -1.7116
 1014TIP3   OH2 3047   6.047   2.357   3.961 -0.0259  0.2738 -0.4476
 1014TIP3    H1 3048   6.142   2.360   3.974  0.3357 -0.0062 -2.5211
 1014TIP3    H2 3049   6.031   2.424   3.894 -1.6469  1.8802  1.4592
 1015TIP3   OH2 3050   2.281   5.661   4.950 -0.0667 -0.1365  0.3566
 1015TIP3    H1 3051   2.196   5.658   4.907  0.2862 -0.6798 -0.3235
 1015TIP3    H2 3052   2.339   5.609   4.894  0.7108  0.2030  0.8151
 1016TIP3   OH2 3053   5.016   3.136   2.224 -0.1855  0.0826  0.2198
 1016TIP3    H1 3054   4.955   3.208   2.204 -0.6323 -0.2830  0.2610
 1016TIP3    H2 3055   5.097   3.181   2.250 -0.8508  0.6013  1.4970
 1017TIP3   OH2 3056   3.247   3.496   4.511 -0.4607  0.2190  0.1408
 1017TIP3    H1 3057   3.173   3.521   4.566  0.0114 -0.1697  0.9809
 1017TIP3    H2 3058   3.214   3.503   4.422 -1.3689  0.4843  0.4809
 1018TIP3   OH2 3059   3.658   2.276   1.783  0.3993  0.3414 -0.1184
 1018TIP3    H1 3060   3.599   2.202   1.797  0.4355  0.3542  0.0966
 1018TIP3    H2 3061   3.668   2.316   1.869 -0.2203  1.0545 -0.3619
 1019TIP3   OH2 3062   1.928   1.854   1.089  0.7968 -0.1700  0.1091
 1019TIP3    H1 3063   1.939   1.794   1.162  0.0853  0.6643  0.9207
 1019TIP3    H2 3064   1.835   1.877   1.090  0.9272  0.4224 -0.6013
 1020TIP3   OH2 3065   3.587   0.595   2.536 -0.1984 -0.0552 -0.2603
 1020TIP3    H1 3066   3.667   0.617   2.585 -0.6960  0.0987  0.5063
 1020TIP3    H2 3067   3.517   0.600   2.601 -0.8435 -0.1499 -0.9307
 1021TIP3   OH2 3068   3.704   1.711   0.841 -0.4054  0.1381  0.1822
 1021TIP3    H1 3069   3.707   1.803   0.817 -0.8659  0.4054  1.0827
 1021TIP3    H2 3070   3.796   1.684   0.843 -0.1780  0.9249  1.1354
 1022TIP3   OH2 3071   2.945   0.044   4.694 -0.8147  0.2456  0.2511
 1022TIP3    H1 3072   2.911   0.127   4.661 -0.9638  0.3940  0.7657
 1022TIP3    H2 3073   2.895  -0.023   4.646 -1.6671  0.4586  0.8150
 1023TIP3   OH2 3074   3.376   4.965   5.076 -0.0281 -0.6430  0.1071
 1023TIP3    H1 3075   3.326   4.953   4.995  0.3091 -0.2459 -0.1640
 1023TIP3    H2 3076   3.361   5.056   5.100 -1.0060 -1.0397  1.0922
 1024TIP3   OH2 3077   3.609   1.495   5.135  0.2555  0.2384 -0.0299
 1024TIP3    H1 3078   3.681   1.519   5.076  0.6209 -0.3297  0.1753
 1024TIP3    H2 3079   3.614   1.559   5.206  1.3480 -0.5394  0.6176
 1025TIP3   OH2 3080   4.553   2.380   4.316  0.3852  0.1861  0.3130
 1025TIP3    H1 3081   4.533   2.378   4.222  0.1063 -0.1294  0.3776
 1025TIP3    H2 3082   4.506   2.305   4.352  0.8106  0.0786  0.6448
 1026TIP3   OH2 3083   0.431   2.199   0.789 -0.0570 -0.4164  0.0595
 1026TIP3    H1 3084   0.491   2.257   0.742 -0.3731 -1.4913 -1.7789
 1026TIP3    H2 3085   0.475   2.114   0.791 -1.4209 -1.2051 -1.2670
 1027TIP3   OH2 3086   2.986   5.704   0.220  0.2367  0.1203 -0.4784
 1027TIP3    H1 3087   3.031   5.652   0.154 -0.7881  0.5944 -1.5877
 1027TIP3    H2 3088   2.893   5.697   0.197 -0.0053  1.6525 -0.0792
 1028TIP3   OH2 3089   0.580   5.616   2.541  0.0181  0.1356  0.1374
 1028TIP3    H1 3090   0.543   5.547   2.487 -3.4719  1.5408  0.4976
 1028TIP3    H2 3091   0.654   5.649   2.490  0.5998 -2.4938 -0.9063
 1029TIP3   OH2 3092   3.812   1.927   3.030  0.2705  0.2672 -0.5433
 1029TIP3    H1 3093   3.742   1.983   3.064  0.7809  0.5814  0.0130
 1029TIP3    H2 3094   3.877   1.926   3.099 -0.2990 -2.1235  0.0443
 1030TIP3   OH2 3095   1.660   3.085   2.050 -0.3146  0.4902 -0.0396
 1030TIP3    H1 3096   1.694   3.141   2.120 -1.0693  0.5081  0.3188
 1030TIP3    H2 3097   1.738   3.043   2.014  0.1059  0.6406  0.6688
 1031TIP3   OH2 3098   0.822   4.121   5.074 -0.1394 -0.0345  0.1843
 1031TIP3    H1 3099   0.771   4.060   5.020 -2.3142  1.3948  0.4833
 1031TIP3    H2 3100   0.821   4.082   5.162  1.3453 -1.1635 -0.2596
 1032TIP3   OH2 3101   3.392   1.962   3.043  0.2324  0.0651 -0.4623
 1032TIP3    H1 3102   3.330   2.020   2.999  2.0418  1.6780 -1.0487
 1032TIP3    H2 3103   3.416   1.897   2.977 -0.9859 -0.7318 -0.1478
 1033TIP3   OH2 3104   2.559   2.740   4.157  0.3417  0.1989  0.2410
 1033TIP3    H1 3105   2.503   2.723   4.081 -0.1819 -0.3281  0.7351
 1033TIP3    H2 3106   2.532   2.827   4.187  1.6818  1.1479 -1.1302
 1034TIP3   OH2 3107   2.987   2.129   4.606 -0.2865 -0.8363  0.4052
 1034TIP3    H1 3108   2.963   2.137   4.699  0.3830  0.4452  0.4958
 1034TIP3    H2 3109   2.921   2.182   4.561  0.7944  0.5708  0.4092
 1035TIP3   OH2 3110   0.127   0.556   2.970 -0.0445 -0.0067  0.0746
 1035TIP3    H1 3111   0.052   0.608   2.942 -0.3916 -0.7076 -0.3147
 1035TIP3    H2 3112   0.092   0.468   2.984  0.5871 -0.2052  0.4572
 1036TIP3   OH2 3113   2.897   5.234   2.153 -0.1077 -0.2658 -0.4925
 1036TIP3    H1 3114   2.912   5.178   2.077 -0.7046 -0.6946 -0.3023
 1036TIP3    H2 3115   2.802   5.238   2.162 -0.0582  0.3371 -0.1761
 1037TIP3   OH2 3116   1.485   4.479   4.868 -0.1004  0.1028 -0.1611
 1037TIP3    H1 3117   1.390   4.468   4.866 -0.0101 -0.6911 -0.8475
 1037TIP3    H2 3118   1.499   4.558   4.921 -1.1944  0.8191 -0.8851
 1038TIP3   OH2 3119   5.678   5.554   0.935  0.6942  0.2478 -0.3224
 1038TIP3    H1 3120   5.648   5.554   0.844 -0.3755 -1.0377  0.0108
 1038TIP3    H2 3121   5.668   5.645   0.963  1.6714  0.8116 -1.6683
 1039TIP3   OH2 3122   4.346   0.592   0.248 -0.4107  0.1901 -0.2716
 1039TIP3    H1 3123   4.260   0.556   0.272 -0.3827  1.0465  1.2300
 1039TIP3    H2 3124   4.366   0.550   0.164 -1.5993 -1.2003  0.0796
 1040TIP3   OH2 3125   1.653   0.937   2.566 -0.3108  0.2132 -0.0571
 1040TIP3    H1 3126   1.604   0.967   2.489  0.6836 -1.0585 -1.2398
 1040TIP3    H2 3127   1.734   0.989   2.564 -0.6600  0.7932  0.6482
 1041TIP3   OH2 3128   4.497   1.040   5.096  0.3967  0.3319  0.2896
 1041TIP3    H1 3129   4.437   1.089   5.040 -1.1593  0.6602  2.1549
 1041TIP3    H2 3130   4.522   0.964   5.043 -1.3585  0.4014 -0.7153
 1042TIP3   OH2 3131   0.467   3.099   0.443  0.3465 -0.5078 -0.5534
 1042TIP3    H1 3132   0.512   3.126   0.523  0.1356 -1.3100 -0.1551
 1042TIP3    H2 3133   0.440   3.181   0.402 -0.8812 -0.0907  0.9704
 1043TIP3   OH2 3134   4.367   5.884   3.935 -0.0781  0.4993 -0.1225
 1043TIP3    H1 3135   4.329   5.920   4.015 -0.2113 -0.8228  0.4303
 1043TIP3    H2 3136   4.341   5.946   3.866 -1.0723  0.9525  0.6349
 1044TIP3   OH2 3137   1.147   0.366   2.776  0.1259  0.0193 -0.2952
 1044TIP3    H1 3138   1.233   0.326   2.792 -0.3032 -1.6687 -1.8590
 1044TIP3    H2 3139   1.166   0.445   2.726  0.8855  1.1098  1.5718
 1045TIP3   OH2 3140   0.520   5.950   1.849 -0.8043  0.1126 -0.6713
 1045TIP3    H1 3141   0.597   5.917   1.802 -0.1879 -1.6700  1.4048
 1045TIP3    H2 3142   0.445   5.910   1.805 -0.4735  0.7989 -1.8906
 1046TIP3   OH2 3143   3.776   5.568   3.984  0.1225  0.1449  0.5980
 1046TIP3    H1 3144   3.754   5.507   4.054 -0.8751  0.3078  0.4400
 1046TIP3    H2 3145   3.716   5.545   3.913  1.7971 -0.7051 -0.6087
 1047TIP3   OH2 3146   5.374   1.576   1.005 -0.4228  0.0465  0.1471
 1047TIP3    H1 3147   5.338   1.574   0.917  0.6604  0.6773 -0.3287
 1047TIP3    H2 3148   5.374   1.668   1.030  1.8952  0.2591 -0.3505
 1048TIP3   OH2 3149   4.540   3.751   5.137  0.0515 -0.3406 -0.0143
 1048TIP3    H1 3150   4.457   3.798   5.127  0.0330 -0.5939 -1.3421
 1048TIP3    H2 3151   4.514   3.662   5.163  0.0191  0.0213  1.2531
 1049TIP3   OH2 3152   5.250   0.720   0.594  0.4757 -0.1829  0.8154
 1049TIP3    H1 3153   5.230   0.656   0.662 -2.7575  0.0231  0.2372
 1049TIP3    H2 3154   5.193   0.795   0.614  1.2031  0.8695 -0.7879
 1050TIP3   OH2 3155   3.929   2.728   3.371  0.0115 -0.2405 -0.1172
 1050TIP3    H1 3156   3.944   2.691   3.458 -0.4776 -0.1029  0.0278
 1050TIP3    H2 3157   4.006   2.702   3.320  0.4821 -0.0094  0.4602
 1051TIP3   OH2 3158   3.437   0.675   2.790 -0.0463  0.7188 -0.0617
 1051TIP3    H1 3159   3.378   0.721   2.731 -0.4337 -1.3156 -1.3264
 1051TIP3    H2 3160   3.390   0.596   2.815  0.9187  0.5642  1.4185
 1052TIP3   OH2 3161   5.479   4.530   3.806  0.3052 -0.1027 -0.2780
 1052TIP3    H1 3162   5.496   4.438   3.825  0.7907 -0.0730 -0.5548
 1052TIP3    H2 3163   5.401   4.551   3.858 -1.9677 -1.6143 -2.7849
 1053TIP3   OH2 3164   3.101   5.602   4.486 -0.3533 -0.3272  0.1772
 1053TIP3    H1 3165   3.188   5.636   4.466 -0.1203  0.0692  1.7269
 1053TIP3    H2 3166   3.117   5.533   4.551 -1.2465  0.1821  0.9532
 1054TIP3   OH2 3167   6.022   0.076   0.664  0.1621 -0.1232 -0.1291
 1054TIP3    H1 3168   5.951   0.140   0.666  0.5956  0.3521  1.0064
 1054TIP3    H2 3169   6.081   0.106   0.595 -0.5299 -0.2987 -0.8066
 1055TIP3   OH2 3170   5.930   1.123   0.224 -0.1292  0.0104  0.4726
 1055TIP3    H1 3171   5.900   1.153   0.138  0.7399 -0.3852  0.0153
 1055TIP3    H2 3172   5.916   1.197   0.282 -1.2833  0.0804  0.1240
 1056TIP3   OH2 3173   1.615   3.171   1.741 -0.1780 -0.4130  0.1072
 1056TIP3    H1 3174   1.681   3.229   1.703 -0.6903  0.3543  0.3663
 1056TIP3    H2 3175   1.648   3.151   1.829 -0.4161  0.1815  0.3337
 1057TIP3   OH2 3176   5.360   2.161   1.374  0.2708 -0.3885 -0.3005
 1057TIP3    H1 3177   5.339   2.142   1.465 -0.5768 -0.6080 -0.5298
 1057TIP3    H2 3178   5.306   2.238   1.353  1.2422  0.3003 -0.3182
 1058TIP3   OH2 3179   3.196   4.016   4.116 -0.1734 -0.1148  0.1618
 1058TIP3    H1 3180   3.116   4.065   4.096  0.0330  0.1185 -0.1002
 1058TIP3    H2 3181   3.237   4.001   4.030 -0.2205 -0.7268  0.2412
 1059TIP3   OH2 3182   4.109   0.310   1.911 -0.1394  0.0592 -0.6317
 1059TIP3    H1 3183   4.188   0.343   1.869  0.8445 -0.5956  0.6072
 1059TIP3    H2 3184   4.121   0.215   1.914 -1.2565 -0.1089 -0.9398
 1060TIP3   OH2 3185   6.112   1.262   2.860  0.5340  0.4394  0.4578
 1060TIP3    H1 3186   6.037   1.306   2.821  1.8923  1.6460 -0.9237
 1060TIP3    H2 3187   6.117   1.298   2.949 -1.2312 -0.6228  1.0440
 1061TIP3   OH2 3188   5.090   4.281   1.484  0.0214  0.3604 -0.3890
 1061TIP3    H1 3189   5.143   4.336   1.542 -0.2066  0.4496 -0.2627
 1061TIP3    H2 3190   5.146   4.207   1.463  0.6299  1.0170 -1.1926
 1062TIP3   OH2 3191   0.259   0.946   2.844  0.3122  0.3951  0.0897
 1062TIP3    H1 3192   0.203   0.969   2.769  1.1205  0.1920 -0.5952
 1062TIP3    H2 3193   0.239   1.013   2.910 -0.4685  0.5363 -0.2704
 1063TIP3   OH2 3194   2.765   1.406   3.019  0.5876  0.0804 -0.3010
 1063TIP3    H1 3195   2.714   1.428   3.097  1.6367  1.9965 -0.1019
 1063TIP3    H2 3196   2.699   1.384   2.953 -0.4538  1.1484  0.3444
 1064TIP3   OH2 3197   2.645   2.137   1.511 -0.0271 -0.6126  0.1449
 1064TIP3    H1 3198   2.733   2.104   1.528 -0.3351 -2.2095 -1.0829
 1064TIP3    H2 3199   2.595   2.110   1.588  0.2597 -0.9509  0.2164
 1065TIP3   OH2 3200   5.350   0.045   3.980  0.5815  0.1709 -0.3660
 1065TIP3    H1 3201   5.268   0.093   3.986 -0.5256 -1.7217  0.2941
 1065TIP3    H2 3202   5.384   0.044   4.070  0.0112 -1.2159 -0.1460
 1066TIP3   OH2 3203   5.452   5.890   2.705 -0.0524 -0.1894  0.2155
 1066TIP3    H1 3204   5.444   5.972   2.753  0.8017 -1.0334  1.9269
 1066TIP3    H2 3205   5.546   5.871   2.704 -0.0142 -0.1817 -1.9396
 1067TIP3   OH2 3206   1.689   0.203   4.219  0.7269  0.1131 -0.0645
 1067TIP3    H1 3207   1.644   0.159   4.291  1.5480  0.0109  0.3913
 1067TIP3    H2 3208   1.680   0.142   4.145 -2.5020  1.3700 -0.9104
 1068TIP3   OH2 3209   3.666   0.133   1.272 -0.4686 -0.1381  0.1807
 1068TIP3    H1 3210   3.698   0.186   1.345 -0.8101  0.6068 -0.1995
 1068TIP3    H2 3211   3.579   0.105   1.299 -0.9670  0.8962 -0.3040
 1069TIP3   OH2 3212   3.037   3.414   4.315 -0.4192 -0.1967 -0.2613
 1069TIP3    H1 3213   3.029   3.330   4.270  1.3223 -1.7536  2.0455
 1069TIP3    H2 3214   3.119   3.451   4.282  1.2197 -1.6520  1.7835
 1070TIP3   OH2 3215   3.037   4.670   0.114 -0.0767 -0.3132 -0.5785
 1070TIP3    H1 3216   2.945   4.694   0.102 -0.1999 -0.8062 -0.6492
 1070TIP3    H2 3217   3.084   4.718   0.046 -0.2071  0.3763 -0.1917
 1071TIP3   OH2 3218   2.991   5.109   1.937  0.2254  1.0161 -0.0975
 1071TIP3    H1 3219   3.086   5.112   1.922  0.7897 -1.4677  2.1946
 1071TIP3    H2 3220   2.953   5.108   1.849  2.1826  3.4282 -1.0911
 1072TIP3   OH2 3221   5.043   4.595   3.748  0.2272 -0.2175  0.0201
 1072TIP3    H1 3222   5.067   4.505   3.766 -2.5864 -1.1227 -0.2776
 1072TIP3    H2 3223   4.991   4.591   3.668 -0.4505  1.5776  0.3082
 1073TIP3   OH2 3224   5.687   5.153   2.527  0.2432 -0.3290 -0.0548
 1073TIP3    H1 3225   5.770   5.150   2.479  0.1715 -0.5183 -0.1672
 1073TIP3    H2 3226   5.660   5.061   2.534  0.6645 -0.3809  1.0642
 1074TIP3   OH2 3227   5.649   1.347   4.292 -0.3961 -0.4094  0.1259
 1074TIP3    H1 3228   5.688   1.379   4.373  0.3688  0.7328 -0.6672
 1074TIP3    H2 3229   5.723   1.318   4.239 -0.8268 -0.5302 -0.4192
 1075TIP3   OH2 3230   1.124   1.468   1.786 -0.0229  0.0826 -0.0353
 1075TIP3    H1 3231   1.167   1.485   1.869  0.6611  0.2059 -0.4078
 1075TIP3    H2 3232   1.170   1.523   1.723 -0.5804  0.0463 -0.4885
 1076TIP3   OH2 3233   4.047   5.455   3.595  0.5278  0.4693  0.6289
 1076TIP3    H1 3234   4.032   5.374   3.644 -0.0795  0.5482  0.5853
 1076TIP3    H2 3235   4.029   5.525   3.659  1.3115  0.5759  0.7432
 1077TIP3   OH2 3236   1.834   0.971   2.254 -0.5569  0.7366  0.7819
 1077TIP3    H1 3237   1.872   0.987   2.340 -0.4804 -2.0644  1.3327
 1077TIP3    H2 3238   1.907   0.981   2.193  0.0919 -0.2907  1.3743
 1078TIP3   OH2 3239   1.805   1.359   4.082  0.0949  0.0679  0.2635
 1078TIP3    H1 3240   1.843   1.430   4.032  0.3901 -0.7358 -0.6775
 1078TIP3    H2 3241   1.712   1.383   4.091  0.4035  1.0621  0.8571
 1079TIP3   OH2 3242   0.309   1.999   2.505 -0.1104  0.3775 -0.4970
 1079TIP3    H1 3243   0.258   1.961   2.576 -0.4620  0.5897 -0.6344
 1079TIP3    H2 3244   0.269   1.964   2.425 -0.4651  1.0565 -0.6277
 1080TIP3   OH2 3245   0.065   2.966   2.228  0.4686 -0.0406  0.3882
 1080TIP3    H1 3246   0.074   3.006   2.314 -0.4665 -1.0985  1.0030
 1080TIP3    H2 3247   0.065   3.040   2.167 -0.0111  0.8136  1.3887
 1081TIP3   OH2 3248   3.604   1.522   4.609 -0.0602 -0.6916  0.2230
 1081TIP3    H1 3249   3.609   1.431   4.582 -1.2945  0.0153 -2.8341
 1081TIP3    H2 3250   3.512   1.546   4.596  0.6033  1.4748 -1.0138
 1082TIP3   OH2 3251   0.364   4.124   2.225 -0.5579 -0.5674 -0.7871
 1082TIP3    H1 3252   0.281   4.077   2.221 -1.2346  0.5786 -0.5977
 1082TIP3    H2 3253   0.345   4.210   2.186  0.7884 -0.6395 -1.6597
 1083TIP3   OH2 3254   4.280   3.776   3.394  0.3927 -0.4940 -0.0961
 1083TIP3    H1 3255   4.274   3.724   3.474 -0.0870 -2.1541 -1.1700
 1083TIP3    H2 3256   4.275   3.867   3.425 -0.7217 -1.0994  1.6846
 1084TIP3   OH2 3257   3.727   1.259   4.968 -0.2217  0.2634  0.3338
 1084TIP3    H1 3258   3.782   1.198   4.919 -0.2456  1.6536 -1.5238
 1084TIP3    H2 3259   3.770   1.344   4.958 -0.1170  0.6035  2.9672
 1085TIP3   OH2 3260   5.936   3.129   3.352 -0.2408  0.0526 -0.4884
 1085TIP3    H1 3261   6.029   3.120   3.329 -0.3655  2.1776 -2.1730
 1085TIP3    H2 3262   5.929   3.091   3.439  1.5660 -2.9631 -1.5030
 1086TIP3   OH2 3263   1.732   0.462   4.129 -0.1414 -0.6051 -0.6191
 1086TIP3    H1 3264   1.711   0.375   4.163 -0.5491 -1.6290 -3.2498
 1086TIP3    H2 3265   1.706   0.522   4.199  1.2998 -2.5966  1.7997
 1087TIP3   OH2 3266   4.752   1.897   2.301  0.1006  0.2116 -0.4806
 1087TIP3    H1 3267   4.737   1.912   2.394 -0.2716 -1.6894 -0.1983
 1087TIP3    H2 3268   4.723   1.808   2.286 -0.3363  0.6520 -2.5467
 1088TIP3   OH2 3269   2.712   5.775   5.007  0.0625  0.3577  0.3251
 1088TIP3    H1 3270   2.632   5.790   4.957 -0.6475 -1.0126  1.0317
 1088TIP3    H2 3271   2.741   5.863   5.032 -0.0073  1.0363 -1.7445
 1089TIP3   OH2 3272   3.371   0.709   0.497  0.0838 -0.0966 -0.0653
 1089TIP3    H1 3273   3.343   0.745   0.581 -2.5978  0.5696 -1.1326
 1089TIP3    H2 3274   3.416   0.627   0.519 -0.5760  0.0661  1.9975
 1090TIP3   OH2 3275   4.002   0.811   4.804  0.5738  0.5266  0.5013
 1090TIP3    H1 3276   4.003   0.721   4.772 -0.6258  0.1154  1.5788
 1090TIP3    H2 3277   4.058   0.810   4.881  0.5268  0.6877  0.5378
 1091TIP3   OH2 3278   0.698   4.790   1.989 -0.1147  0.2395  0.0948
 1091TIP3    H1 3279   0.684   4.788   2.084  0.2380 -0.2221  0.1398
 1091TIP3    H2 3280   0.615   4.820   1.953 -0.1772  0.6601  0.5650
 1092TIP3   OH2 3281   4.909   0.058   5.083 -0.0117 -0.3542  0.3551
 1092TIP3    H1 3282   4.878   0.133   5.032  0.1245  0.7008  1.7814
 1092TIP3    H2 3283   4.999   0.080   5.105  0.3837 -1.4439 -0.1004
 1093TIP3   OH2 3284   2.549   3.068   3.228  0.3788 -0.3006 -0.3924
 1093TIP3    H1 3285   2.481   3.100   3.171 -0.0236 -1.1839 -0.4319
 1093TIP3    H2 3286   2.579   2.987   3.187  2.0543  0.4966 -0.8334
 1094TIP3   OH2 3287   4.799   1.271   2.557  0.3644 -0.2257 -0.2020
 1094TIP3    H1 3288   4.827   1.192   2.510 -0.5865 -1.3915  1.0892
 1094TIP3    H2 3289   4.878   1.302   2.600  0.4987 -1.2954  0.3743
 1095TIP3   OH2 3290   1.269   2.944   2.422 -0.2391 -0.4677  0.4787
 1095TIP3    H1 3291   1.324   2.954   2.344 -0.6184  0.2427  0.2966
 1095TIP3    H2 3292   1.327   2.967   2.494 -0.9802  3.0240  0.1056
 1096TIP3   OH2 3293   3.284   1.137   2.177 -0.3231 -0.4701 -0.3888
 1096TIP3    H1 3294   3.238   1.123   2.260  0.2220 -0.1011 -0.0197
 1096TIP3    H2 3295   3.344   1.210   2.195 -2.5597  1.9424 -2.0335
 1097TIP3   OH2 3296   1.281   3.529   2.931  0.2427  0.3462 -0.2314
 1097TIP3    H1 3297   1.203   3.584   2.930 -0.8255 -1.0695  0.6071
 1097TIP3    H2 3298   1.255   3.451   2.882  0.0346 -1.4614  2.5426
 1098TIP3   OH2 3299   4.925   3.729   0.131 -0.1707  0.6868 -0.3255
 1098TIP3    H1 3300   5.016   3.734   0.161  0.2006 -0.7029 -1.1657
 1098TIP3    H2 3301   4.875   3.765   0.205  1.0534  1.7523  0.0384
 1099TIP3   OH2 3302   0.060   4.393   1.384  0.2927 -0.4793 -0.1632
 1099TIP3    H1 3303   0.051   4.411   1.290  0.1283  1.2004  0.1405
 1099TIP3    H2 3304   0.057   4.479   1.425  0.9272 -1.1444  1.3516
 1100TIP3   OH2 3305   2.452   1.725   0.044  0.1368  0.2836  0.4611
 1100TIP3    H1 3306   2.374   1.701   0.095  0.4426  1.8998  1.7845
 1100TIP3    H2 3307   2.418   1.754  -0.040 -1.0747  3.5887  1.9141
 1101TIP3   OH2 3308   1.645   0.565   4.898  0.2435  0.0501  0.4413
 1101TIP3    H1 3309   1.565   0.532   4.938  0.5958 -1.3420  0.0400
 1101TIP3    H2 3310   1.688   0.616   4.967 -1.1055  1.0646  0.5747
 1102TIP3   OH2 3311   5.400   4.019   3.497  0.1674 -0.3004 -0.5505
 1102TIP3    H1 3312   5.357   3.934   3.497 -0.6541  0.1029 -0.5333
 1102TIP3    H2 3313   5.341   4.075   3.446  0.4573  0.3722 -0.1525
 1103TIP3   OH2 3314   1.105   3.156   2.459  0.1244 -0.1239 -0.1216
 1103TIP3    H1 3315   1.054   3.171   2.379  1.6647  0.3556 -1.0677
 1103TIP3    H2 3316   1.158   3.079   2.440 -1.2902 -1.5341  1.4147
 1104TIP3   OH2 3317   5.863   0.878   1.770 -0.0079  0.0459  0.2426
 1104TIP3    H1 3318   5.875   0.787   1.796 -0.8788  0.2676  1.5076
 1104TIP3    H2 3319   5.951   0.915   1.770  0.1879 -0.3912  1.3004
 1105TIP3   OH2 3320   4.347   3.534   1.195 -0.4347  0.4284  0.1248
 1105TIP3    H1 3321   4.416   3.515   1.131 -0.2168  2.0575 -0.1688
 1105TIP3    H2 3322   4.394   3.568   1.271 -0.7716 -0.5844  0.8068
 1106TIP3   OH2 3323   3.724   2.590   1.285 -0.2297  0.6020  0.2540
 1106TIP3    H1 3324   3.629   2.599   1.280 -0.5494 -2.0227  0.0416
 1106TIP3    H2 3325   3.738   2.516   1.345  1.6986  1.1044  0.4898
 1107TIP3   OH2 3326   5.954   3.389   0.037  0.1937  0.2977 -0.2003
 1107TIP3    H1 3327   5.916   3.322   0.095 -0.1779  0.1855 -0.5645
 1107TIP3    H2 3328   5.998   3.450   0.096  0.1784 -0.0413  0.1690
 1108TIP3   OH2 3329   1.612   2.610   4.285  0.8271  0.2806 -0.2190
 1108TIP3    H1 3330   1.707   2.624   4.278  1.1393 -1.2964  0.3382
 1108TIP3    H2 3331   1.603   2.546   4.356 -0.6802  0.5191 -0.1651
 1109TIP3   OH2 3332   2.691   0.323   2.353 -0.6979 -0.3559 -0.6956
 1109TIP3    H1 3333   2.723   0.400   2.306  0.1618  0.0160  0.4371
 1109TIP3    H2 3334   2.655   0.357   2.435 -0.0886 -1.1581 -0.0684
 1110TIP3   OH2 3335   5.583   5.016   1.998  0.4387  0.1008  0.0616
 1110TIP3    H1 3336   5.674   5.024   2.027  0.8636 -0.9832 -0.8842
 1110TIP3    H2 3337   5.580   5.064   1.916  0.3306 -0.3871 -0.2274
 1111TIP3   OH2 3338   0.335   4.700   0.852 -0.5620 -0.8873  0.2827
 1111TIP3    H1 3339   0.343   4.628   0.790 -2.2614 -1.4561  0.6517
 1111TIP3    H2 3340   0.323   4.778   0.797  0.7744 -0.9329 -0.1091
 1112TIP3   OH2 3341   4.264   1.229   3.681 -0.1619  0.0638  0.3166
 1112TIP3    H1 3342   4.184   1.177   3.684  0.3238 -0.9427 -1.9680
 1112TIP3    H2 3343   4.332   1.169   3.714  0.1996 -0.3785 -1.1673
 1113TIP3   OH2 3344   0.509   5.263   2.525  0.2018 -0.4430  0.7395
 1113TIP3    H1 3345   0.444   5.302   2.583  0.3823 -0.7270  1.1289
 1113TIP3    H2 3346   0.515   5.172   2.552 -0.3451 -0.8029 -0.2801
 1114TIP3   OH2 3347   3.866   2.228   0.730 -0.0733  0.3951  0.0145
 1114TIP3    H1 3348   3.880   2.199   0.640 -0.8477  1.0290 -0.3153
 1114TIP3    H2 3349   3.946   2.201   0.776  0.8558  1.1430 -1.1224
 1115TIP3   OH2 3350   1.734   2.250   3.935  0.7276 -0.0685 -0.1849
 1115TIP3    H1 3351   1.751   2.166   3.977  1.3360  1.0062  1.8431
 1115TIP3    H2 3352   1.754   2.235   3.842  0.4983 -2.2228  0.0606
 1116TIP3   OH2 3353   2.534   2.182   3.417  0.0502 -0.2453 -0.0058
 1116TIP3    H1 3354   2.534   2.205   3.510  0.7291  1.8621 -0.4826
 1116TIP3    H2 3355   2.457   2.227   3.382  0.3797 -0.1879 -0.6584
 1117TIP3   OH2 3356   3.419   1.800   4.569 -0.5366 -0.1557  0.1857
 1117TIP3    H1 3357   3.482   1.862   4.605 -0.7292  0.0013  0.2577
 1117TIP3    H2 3358   3.369   1.852   4.505 -1.8376  0.2331  1.4572
 1118TIP3   OH2 3359   1.779   1.545   1.825  1.2004  0.6298 -0.3072
 1118TIP3    H1 3360   1.740   1.569   1.741 -1.5667 -1.1759  0.3073
 1118TIP3    H2 3361   1.857   1.495   1.802  1.1835  1.2206 -1.7495
 1119TIP3   OH2 3362   2.508   4.543   1.390 -0.0881 -0.3185 -0.0330
 1119TIP3    H1 3363   2.466   4.552   1.305 -0.3400 -0.7805  0.0400
 1119TIP3    H2 3364   2.458   4.599   1.448  1.7729  2.3011 -0.7466
 1120TIP3   OH2 3365   5.293   4.320   5.177 -0.0350 -0.3308 -0.5846
 1120TIP3    H1 3366   5.237   4.268   5.234 -0.6320 -0.7508 -1.5237
 1120TIP3    H2 3367   5.247   4.321   5.093  1.4502 -0.8349 -1.4380
 1121TIP3   OH2 3368   2.947   3.601   0.205 -0.2577 -0.1043  0.4770
 1121TIP3    H1 3369   3.037   3.614   0.175 -0.2766  0.9077  0.7970
 1121TIP3    H2 3370   2.933   3.507   0.201 -0.0042 -0.1126 -1.9309
 1122TIP3   OH2 3371   2.591   0.029   0.283 -0.0053  0.2621  0.0858
 1122TIP3    H1 3372   2.519   0.047   0.222 -1.0778 -0.1685  1.1723
 1122TIP3    H2 3373   2.635  -0.048   0.246 -0.6544 -0.0120 -0.1340
 1123TIP3   OH2 3374   2.396   5.012   2.660 -0.1642  0.5258 -0.5306
 1123TIP3    H1 3375   2.381   5.095   2.706 -1.4778  0.0888 -0.1190
 1123TIP3    H2 3376   2.489   5.014   2.636  0.0464  1.6986  0.2931
 1124TIP3   OH2 3377   2.088   2.683   4.666 -0.4864 -0.0127 -0.1713
 1124TIP3    H1 3378   2.109   2.704   4.757  2.3629  0.6021 -0.8694
 1124TIP3    H2 3379   2.121   2.594   4.654 -0.4671  0.0713 -0.7399
 1125TIP3   OH2 3380   2.626   5.837   1.990 -0.0237 -0.3901 -0.2661
 1125TIP3    H1 3381   2.559   5.771   1.973 -1.7265  1.6032 -1.9821
 1125TIP3    H2 3382   2.634   5.839   2.085 -2.0712 -1.0977 -0.0175
 1126TIP3   OH2 3383   3.588   3.081   0.965 -0.2714 -0.1155 -0.1120
 1126TIP3    H1 3384   3.673   3.074   1.010 -0.0935 -0.0343 -0.4289
 1126TIP3    H2 3385   3.525   3.100   1.034  0.1212  0.8185 -0.0011
 1127TIP3   OH2 3386   0.248   3.354   2.677  0.0282 -0.0424 -0.4329
 1127TIP3    H1 3387   0.232   3.290   2.747  0.5875  0.0486 -0.2252
 1127TIP3    H2 3388   0.265   3.436   2.722  0.6037 -0.0299 -0.6702
 1128TIP3   OH2 3389   2.356   2.253   2.990 -0.3632 -0.2358 -0.1225
 1128TIP3    H1 3390   2.344   2.159   2.979  0.4648 -0.4049  0.3731
 1128TIP3    H2 3391   2.422   2.277   2.925  0.2473 -0.2021  0.4973
 1129TIP3   OH2 3392   0.493   5.724   1.530 -0.1242  0.2776  0.3014
 1129TIP3    H1 3393   0.489   5.633   1.561  2.3173 -0.3550 -1.0198
 1129TIP3    H2 3394   0.412   5.763   1.563 -1.1635 -2.2959  1.1058
 1130TIP3   OH2 3395   5.901   2.926   2.685 -0.4404  0.0783 -0.2081
 1130TIP3    H1 3396   5.915   2.883   2.769  0.2226 -1.3586 -1.0208
 1130TIP3    H2 3397   5.835   2.872   2.641  0.4294 -0.1533 -1.2684
 1131TIP3   OH2 3398   3.739   2.293   1.216 -0.3422 -0.0059  0.0587
 1131TIP3    H1 3399   3.810   2.283   1.153  0.4253  0.7382  0.7738
 1131TIP3    H2 3400   3.716   2.204   1.241 -0.7285 -0.3180 -1.3338
 1132TIP3   OH2 3401   5.762   3.272   0.524  0.5113  0.1255 -0.1568
 1132TIP3    H1 3402   5.725   3.360   0.531 -1.3141 -0.5687 -0.6703
 1132TIP3    H2 3403   5.857   3.286   0.530  0.2567  2.0937 -0.0279
 1133TIP3   OH2 3404   1.219   1.878   2.724  0.7078  0.2273 -0.0847
 1133TIP3    H1 3405   1.247   1.809   2.784  2.2739  0.4117 -0.5404
 1133TIP3    H2 3406   1.181   1.945   2.780 -2.1751 -1.5279  0.2686
 1134TIP3   OH2 3407   0.502   4.651   0.584 -0.9503 -0.4818  0.4220
 1134TIP3    H1 3408   0.495   4.576   0.525  1.1065 -0.6621  0.3275
 1134TIP3    H2 3409   0.459   4.722   0.537 -3.6530 -1.7361  0.8557
 1135TIP3   OH2 3410   3.781   1.028   1.311  0.4878  0.4563  0.1283
 1135TIP3    H1 3411   3.763   1.111   1.356  0.2086 -0.3583  1.5748
 1135TIP3    H2 3412   3.865   1.042   1.267  0.6851  1.3497  0.7646
 1136TIP3   OH2 3413   3.077   1.445   4.379  0.2042  0.6971  0.3258
 1136TIP3    H1 3414   3.092   1.350   4.387  0.7218  0.8560  1.3565
 1136TIP3    H2 3415   3.164   1.483   4.387  0.1219  1.2271 -1.0184
 1137TIP3   OH2 3416   0.625   3.036   3.406 -0.5577 -0.9345 -0.3800
 1137TIP3    H1 3417   0.686   3.002   3.472 -1.3136  2.6676  2.5017
 1137TIP3    H2 3418   0.672   3.107   3.363 -1.6282 -0.1487 -0.3025
 1138TIP3   OH2 3419   4.784   3.748   3.558 -0.3264  0.0215 -0.1399
 1138TIP3    H1 3420   4.738   3.822   3.520 -2.7450 -1.1939  0.2355
 1138TIP3    H2 3421   4.861   3.786   3.600 -2.2102  2.5764  1.2754
 1139TIP3   OH2 3422   5.393   3.750   0.962  0.1959 -0.2139 -0.7097
 1139TIP3    H1 3423   5.450   3.687   1.006  0.3280  0.6742  0.4522
 1139TIP3    H2 3424   5.410   3.833   1.007 -1.8104  0.1376 -0.5053
 1140TIP3   OH2 3425   0.874   4.453   1.385  0.2137 -0.5491 -0.0281
 1140TIP3    H1 3426   0.873   4.361   1.356 -0.1492 -0.4682 -0.2869
 1140TIP3    H2 3427   0.820   4.498   1.320  0.7319 -0.0805 -0.1370
 1141TIP3   OH2 3428   1.345   0.506   1.495 -0.1999 -0.1157  0.0152
 1141TIP3    H1 3429   1.255   0.476   1.486 -0.6670  0.2288  2.7228
 1141TIP3    H2 3430   1.398   0.427   1.486 -0.7137 -0.3173 -1.6141
 1142TIP3   OH2 3431   5.293   5.739   0.479  0.5666  1.0722 -0.3777
 1142TIP3    H1 3432   5.241   5.819   0.470  0.3612  0.8275 -1.4424
 1142TIP3    H2 3433   5.269   5.686   0.403  1.5679  0.4914 -0.2998
 1143TIP3   OH2 3434   3.689   0.473   3.999 -0.2304  0.6610 -0.2770
 1143TIP3    H1 3435   3.720   0.497   4.086 -0.1831 -1.0394  0.2044
 1143TIP3    H2 3436   3.766   0.437   3.955 -0.5296  0.3759 -0.5774
 1144TIP3   OH2 3437   1.009   1.971   4.324  0.1118  0.0956  1.2034
 1144TIP3    H1 3438   0.946   1.908   4.287  1.7596  0.1975 -2.0692
 1144TIP3    H2 3439   1.095   1.933   4.306  1.1100  2.3552  0.9158
 1145TIP3   OH2 3440   2.916   1.308   4.697 -0.6030  0.5188 -0.0111
 1145TIP3    H1 3441   2.841   1.250   4.680 -1.0996  0.9307  0.6848
 1145TIP3    H2 3442   2.888   1.393   4.664  0.5318  0.1678 -1.9767
 1146TIP3   OH2 3443   3.496   3.603   1.362  0.6948  0.6368  0.4357
 1146TIP3    H1 3444   3.588   3.583   1.344  1.3249  1.6493  2.3545
 1146TIP3    H2 3445   3.479   3.563   1.447 -1.1689 -0.9429 -0.5862
 1147TIP3   OH2 3446   4.125   4.062   3.223 -0.2814  0.3547 -0.3451
 1147TIP3    H1 3447   4.039   4.102   3.207 -0.9624 -1.2614 -0.9440
 1147TIP3    H2 3448   4.179   4.091   3.150 -0.8614 -0.0633 -0.9522
 1148TIP3   OH2 3449   2.382   0.616   4.090  0.0278  0.1925 -0.2762
 1148TIP3    H1 3450   2.331   0.688   4.127  0.6037  1.8434 -2.4637
 1148TIP3    H2 3451   2.458   0.608   4.148 -0.7788  0.3055  0.8336
 1149TIP3   OH2 3452   1.794   1.732   2.023 -0.0701  0.2815 -0.6504
 1149TIP3    H1 3453   1.803   1.666   1.954  0.1035 -1.5615  1.0541
 1149TIP3    H2 3454   1.700   1.753   2.023 -0.1886 -0.2189 -1.0039
 1150TIP3   OH2 3455   1.475   0.374   1.139  0.1329 -0.0966  0.0670
 1150TIP3    H1 3456   1.426   0.295   1.116 -0.0995 -0.0909  0.5334
 1150TIP3    H2 3457   1.497   0.363   1.232 -0.6577  0.7871  0.3748
 1151TIP3   OH2 3458   1.001   3.945   4.499  0.0827 -0.3391  0.1617
 1151TIP3    H1 3459   1.089   3.974   4.475  0.2448 -0.1228  0.9881
 1151TIP3    H2 3460   1.006   3.926   4.593 -1.4105  2.3448  0.8962
 1152TIP3   OH2 3461   4.777   0.315   1.519 -0.3513  0.1089 -0.3521
 1152TIP3    H1 3462   4.782   0.409   1.502  0.3234  0.1124 -0.1685
 1152TIP3    H2 3463   4.702   0.304   1.576 -1.0182  0.4203 -1.1468
 1153TIP3   OH2 3464   2.173   0.922   4.502 -0.0847 -0.4883 -0.1576
 1153TIP3    H1 3465   2.212   1.001   4.541 -0.4103  0.5458 -1.8440
 1153TIP3    H2 3466   2.117   0.887   4.571  1.3807 -0.2531  1.2284
 1154TIP3   OH2 3467   4.016   5.518   4.203 -0.1735 -0.5388  0.1795
 1154TIP3    H1 3468   3.972   5.437   4.229 -1.5821 -0.6504 -2.2543
 1154TIP3    H2 3469   3.956   5.588   4.231 -0.9216 -0.5883 -1.1917
 1155TIP3   OH2 3470   4.847   0.363   3.065 -0.4073  0.0385  0.0749
 1155TIP3    H1 3471   4.834   0.457   3.076 -0.7322  0.0062 -0.0337
 1155TIP3    H2 3472   4.797   0.341   2.987 -0.6237 -0.2880  0.3019
 1156TIP3   OH2 3473   5.263   3.216   2.537 -0.3402 -0.5261 -0.0868
 1156TIP3    H1 3474   5.294   3.271   2.465 -3.2269  0.9959 -0.3237
 1156TIP3    H2 3475   5.212   3.148   2.495 -0.5403 -0.6992  0.4303
 1157TIP3   OH2 3476   5.278   4.905   2.913 -0.8966 -0.3002  0.1275
 1157TIP3    H1 3477   5.218   4.865   2.976  0.8611 -1.2110  1.2951
 1157TIP3    H2 3478   5.314   4.981   2.959  0.8177 -1.2855  0.4947
 1158TIP3   OH2 3479   2.916   0.881   4.192  0.7550 -0.1006  0.0821
 1158TIP3    H1 3480   3.011   0.873   4.179  0.7677 -0.3981  0.3328
 1158TIP3    H2 3481   2.878   0.839   4.115  0.8098  1.7278 -0.9980
 1159TIP3   OH2 3482   0.095   4.596   3.660  0.3177  0.1767  0.4861
 1159TIP3    H1 3483   0.056   4.658   3.600 -1.4841  0.1028  1.5161
 1159TIP3    H2 3484   0.156   4.544   3.606  0.9703  2.0080 -0.6182
 1160TIP3   OH2 3485   3.683   0.757   4.742  0.3793  0.0483  0.0721
 1160TIP3    H1 3486   3.712   0.674   4.705  1.9284  0.2532  0.7631
 1160TIP3    H2 3487   3.645   0.734   4.827  1.9261  0.1512  0.8117
 1161TIP3   OH2 3488   5.604   1.332   1.836 -0.1233 -0.5540  0.0486
 1161TIP3    H1 3489   5.548   1.388   1.782  0.3256  0.5111  0.6746
 1161TIP3    H2 3490   5.593   1.244   1.798 -1.6003 -0.2344 -0.3252
 1162TIP3   OH2 3491   5.915   5.452   2.145 -0.3451 -0.1221 -0.1100
 1162TIP3    H1 3492   5.878   5.516   2.206  0.6661  0.2312  0.1500
 1162TIP3    H2 3493   5.862   5.463   2.065  0.3543  1.6893 -0.3857
 1163TIP3   OH2 3494   1.367   0.027   2.440 -0.0460 -0.2725  0.7214
 1163TIP3    H1 3495   1.301  -0.031   2.479  0.4303  0.4871  2.7658
 1163TIP3    H2 3496   1.322   0.111   2.431 -0.0204 -0.3320 -0.0044
 1164TIP3   OH2 3497   4.061   4.554   4.102 -0.3159  0.7471 -0.2225
 1164TIP3    H1 3498   3.974   4.518   4.085  1.1288 -2.9983 -0.5605
 1164TIP3    H2 3499   4.113   4.528   4.025  2.3814 -2.1793  2.3062
 1165TIP3   OH2 3500   1.730   0.765   2.759 -0.2017 -0.2547 -0.4558
 1165TIP3    H1 3501   1.713   0.840   2.702  0.9825  0.8593  0.5739
 1165TIP3    H2 3502   1.649   0.755   2.809 -0.0427  1.0277  0.1057
 1166TIP3   OH2 3503   3.268   4.920   4.734 -0.1656  0.0369 -0.1548
 1166TIP3    H1 3504   3.332   4.907   4.665 -0.3856 -0.2158 -0.3159
 1166TIP3    H2 3505   3.264   4.836   4.779 -0.4062  0.0395 -0.1674
 1167TIP3   OH2 3506   3.879   4.851   1.660 -0.3478  0.0359 -0.3810
 1167TIP3    H1 3507   3.784   4.862   1.664 -0.3710 -0.0148 -0.7737
 1167TIP3    H2 3508   3.898   4.789   1.730 -0.3923  1.3636  0.8660
 1168TIP3   OH2 3509   3.485   0.944   4.706 -0.5658 -0.2143  0.4806
 1168TIP3    H1 3510   3.548   0.872   4.706  0.4782  0.6844  0.7920
 1168TIP3    H2 3511   3.519   1.007   4.770  0.2173  1.9506 -1.8803
 1169TIP3   OH2 3512   0.692   0.957   1.346  0.1750 -0.2339 -0.0857
 1169TIP3    H1 3513   0.717   0.935   1.256  0.0334  4.0807 -1.4162
 1169TIP3    H2 3514   0.597   0.944   1.348  0.1230 -0.0110 -0.7119
 1170TIP3   OH2 3515   1.679   4.892   1.250 -0.2962  0.3507 -0.3736
 1170TIP3    H1 3516   1.615   4.824   1.271  0.5396 -0.5064 -0.5412
 1170TIP3    H2 3517   1.639   4.973   1.284 -0.3095 -0.5273  1.9243
 1171TIP3   OH2 3518   2.309   1.267   3.457  0.5004 -0.0637  0.0179
 1171TIP3    H1 3519   2.390   1.287   3.503 -1.2071 -0.5979  3.5489
 1171TIP3    H2 3520   2.271   1.353   3.438  1.1009  0.1530 -0.2562
 1172TIP3   OH2 3521   1.697   1.046   0.281  0.0814 -0.1488 -0.5417
 1172TIP3    H1 3522   1.622   1.038   0.222 -0.3474 -0.8006  0.0841
 1172TIP3    H2 3523   1.703   1.140   0.299 -1.1549 -0.1775  0.1285
 1173TIP3   OH2 3524   2.168   2.605   1.817 -0.1996 -0.5142  0.0196
 1173TIP3    H1 3525   2.256   2.571   1.800  0.5040  1.2991 -0.1547
 1173TIP3    H2 3526   2.161   2.606   1.913 -0.2889 -1.2597  0.0258
 1174TIP3   OH2 3527   1.247   1.287   2.946  0.0421  0.2224 -0.0069
 1174TIP3    H1 3528   1.332   1.331   2.951  0.4487 -0.5137 -0.3587
 1174TIP3    H2 3529   1.227   1.261   3.036  1.4052 -1.8604 -0.2468
 1175TIP3   OH2 3530   2.876   5.734   2.391 -0.1122  0.1564  0.0243
 1175TIP3    H1 3531   2.900   5.660   2.335  0.4270  0.1376  0.2702
 1175TIP3    H2 3532   2.958   5.759   2.434  0.2959  2.6065 -2.0119
 1176TIP3   OH2 3533   4.090   1.228   3.055 -0.6695  0.0293 -0.2780
 1176TIP3    H1 3534   4.175   1.185   3.052 -1.3297 -1.4640  0.9345
 1176TIP3    H2 3535   4.058   1.224   2.964  1.2878  2.3266 -1.1610
 1177TIP3   OH2 3536   5.913   0.472   1.240  0.2649 -0.0837 -0.2476
 1177TIP3    H1 3537   5.905   0.526   1.319 -0.4362 -1.0321  0.3498
 1177TIP3    H2 3538   5.971   0.401   1.266  0.8331  0.1288 -0.9029
 1178TIP3   OH2 3539   1.936   1.347   1.626 -0.0717  0.1383 -0.2762
 1178TIP3    H1 3540   1.910   1.381   1.540  0.7366 -2.2034 -1.5344
 1178TIP3    H2 3541   1.948   1.253   1.612 -1.5320 -0.6364  2.8233
 1179TIP3   OH2 3542   1.606   1.975   2.457 -0.2430 -0.1160  0.2589
 1179TIP3    H1 3543   1.694   1.947   2.433 -0.1888  0.5440 -0.3503
 1179TIP3    H2 3544   1.587   1.927   2.538 -0.4785 -2.4731 -1.1072
 1180TIP3   OH2 3545   0.337   5.441   4.329 -0.0313  0.3004  0.1442
 1180TIP3    H1 3546   0.385   5.438   4.246  1.0849 -0.1060  0.7835
 1180TIP3    H2 3547   0.301   5.530   4.332  1.4981  0.9577  0.0662
 1181TIP3   OH2 3548   1.942   5.967   4.139 -0.0116  0.0412 -0.6062
 1181TIP3    H1 3549   1.943   5.882   4.096  2.6688 -0.4821  0.2855
 1181TIP3    H2 3550   1.878   5.958   4.210  0.3266 -1.2794 -0.4467
 1182TIP3   OH2 3551  -0.006   5.082   4.048  0.9529  0.0369  0.0568
 1182TIP3    H1 3552   0.013   5.156   4.106  1.5113  0.2525 -0.3914
 1182TIP3    H2 3553   0.073   5.028   4.052  0.4817 -0.6334  0.5189
 1183TIP3   OH2 3554   3.059   2.778   0.552  0.1067 -0.0661  1.2854
 1183TIP3    H1 3555   3.058   2.874   0.547  0.7063 -0.1312 -0.6656
 1183TIP3    H2 3556   3.041   2.749   0.463  0.1431 -1.7813  1.8082
 1184TIP3   OH2 3557   4.612   0.529   4.155 -0.0979  0.4276  0.3555
 1184TIP3    H1 3558   4.518   0.536   4.168 -0.2056 -0.3345  0.0260
 1184TIP3    H2 3559   4.622   0.463   4.087  0.5729  2.1115 -1.2774
 1185TIP3   OH2 3560   2.934   1.776   0.715 -0.2008 -0.0284  0.2519
 1185TIP3    H1 3561   2.843   1.790   0.689 -0.0141 -0.8009 -0.8987
 1185TIP3    H2 3562   2.979   1.856   0.690 -0.1074 -0.5993 -1.5065
 1186TIP3   OH2 3563   3.649   1.357   3.325  0.1544 -0.2232 -0.3384
 1186TIP3    H1 3564   3.688   1.281   3.369  1.1269  1.1147  1.2504
 1186TIP3    H2 3565   3.556   1.336   3.318  0.0847 -0.8492  1.7144
 1187TIP3   OH2 3566   5.725   3.194   4.468  0.3318 -0.1902  0.1007
 1187TIP3    H1 3567   5.691   3.200   4.558 -0.6800  0.5011 -0.3134
 1187TIP3    H2 3568   5.717   3.283   4.433 -0.9633 -0.8009 -1.2587
 1188TIP3   OH2 3569   5.611   0.090   1.730  0.5617  0.0530 -0.3944
 1188TIP3    H1 3570   5.553   0.046   1.668  1.4803 -0.6455 -0.7915
 1188TIP3    H2 3571   5.652   0.018   1.779  1.4648  0.4945 -0.4796
 1189TIP3   OH2 3572   4.450   3.327   3.845 -0.3225  0.4580  0.2548
 1189TIP3    H1 3573   4.408   3.309   3.929  1.2069 -1.7242  0.6307
 1189TIP3    H2 3574   4.542   3.340   3.866  0.3727 -1.6404 -1.1702
 1190TIP3   OH2 3575   2.324   3.533   0.416 -0.8086 -0.3224  0.4881
 1190TIP3    H1 3576   2.316   3.524   0.321 -0.0977  0.0659  0.3939
 1190TIP3    H2 3577   2.233   3.525   0.447 -1.5636  3.0350 -0.5021
 1191TIP3   OH2 3578   6.322   1.179   2.089 -0.1444  0.3244 -0.2563
 1191TIP3    H1 3579   6.378   1.246   2.050  1.6220 -0.6082  0.5500
 1191TIP3    H2 3580   6.324   1.198   2.183 -1.3752  0.3838 -0.2199
 1192TIP3   OH2 3581   4.242   5.446   4.068 -0.4223 -0.0790  0.5220
 1192TIP3    H1 3582   4.160   5.467   4.114 -0.7897  2.6407 -1.1385
 1192TIP3    H2 3583   4.305   5.508   4.104  0.2794 -0.5172  0.0608
 1193TIP3   OH2 3584   6.124   0.329   1.255 -0.0376 -0.3827  0.3276
 1193TIP3    H1 3585   6.125   0.238   1.285  1.9159 -0.4873  0.0511
 1193TIP3    H2 3586   6.167   0.377   1.325 -0.9432  0.3344  0.4104
 1194TIP3   OH2 3587   3.370   5.141   3.243  0.2437  0.7603  0.7136
 1194TIP3    H1 3588   3.384   5.172   3.153 -0.7109  0.0060  0.2841
 1194TIP3    H2 3589   3.297   5.194   3.275 -0.2516  0.1570  0.5891
 1195TIP3   OH2 3590   0.480   5.180   3.647  0.7582  0.1412  0.0204
 1195TIP3    H1 3591   0.509   5.138   3.728  0.5971  1.2914  0.6916
 1195TIP3    H2 3592   0.390   5.208   3.665  0.3621 -0.4941 -0.9160
 1196TIP3   OH2 3593   3.119   5.356   2.209  0.1307 -0.1553 -0.1710
 1196TIP3    H1 3594   3.047   5.309   2.167  1.5306 -1.4960 -1.1605
 1196TIP3    H2 3595   3.175   5.288   2.245  0.4276  0.8965  1.4727
 1197TIP3   OH2 3596   5.212   1.270   4.146 -0.1227  0.0672 -0.0503
 1197TIP3    H1 3597   5.143   1.329   4.116 -0.0996 -0.8282 -2.0268
 1197TIP3    H2 3598   5.287   1.327   4.163 -0.5796  0.7788 -0.3773
 1198TIP3   OH2 3599   6.210   3.634   1.334  0.5030 -0.4148  0.5823
 1198TIP3    H1 3600   6.191   3.696   1.405 -2.5314  0.8078 -1.1050
 1198TIP3    H2 3601   6.246   3.688   1.264 -0.1847 -0.9068 -0.1662
 1199TIP3   OH2 3602   2.091   4.205   1.670 -0.1925 -0.1967 -0.3660
 1199TIP3    H1 3603   2.127   4.229   1.756 -0.0148 -0.7745 -0.2773
 1199TIP3    H2 3604   2.133   4.265   1.609  2.0060 -1.7174 -0.4626
 1200TIP3   OH2 3605   0.133   0.866   0.113  0.5883 -0.3430  0.3269
 1200TIP3    H1 3606   0.189   0.812   0.057 -0.6500 -0.0122 -1.3073
 1200TIP3    H2 3607   0.191   0.897   0.183  1.9580 -1.5554 -0.2320
 1201TIP3   OH2 3608   6.043   4.852   4.160 -0.3969  0.0001  0.6141
 1201TIP3    H1 3609   5.972   4.799   4.124 -0.2965 -0.5811  1.2706
 1201TIP3    H2 3610   6.008   4.941   4.162 -0.2635  0.1427 -1.3255
 1202TIP3   OH2 3611   2.189   4.994   4.453  0.1408  0.3690 -0.6925
 1202TIP3    H1 3612   2.265   5.031   4.499  1.4807  0.2619 -2.6866
 1202TIP3    H2 3613   2.198   4.900   4.464 -1.0048  0.3983  0.9330
 1203TIP3   OH2 3614   0.409   0.599   4.178 -0.0295 -0.1922  0.0340
 1203TIP3    H1 3615   0.451   0.591   4.264  0.0113 -1.0264 -0.0570
 1203TIP3    H2 3616   0.426   0.690   4.152  1.2675 -0.3584  0.2246
 1204TIP3   OH2 3617   5.285   3.431   2.912  0.5245  0.0521 -0.3582
 1204TIP3    H1 3618   5.307   3.405   3.001  0.2881  2.7995  0.6073
 1204TIP3    H2 3619   5.365   3.418   2.862  0.9307 -0.6589  0.4562
 1205TIP3   OH2 3620   5.425   1.199   1.498 -0.2844  0.1183  0.0073
 1205TIP3    H1 3621   5.428   1.145   1.578  3.8238 -0.5062 -0.3509
 1205TIP3    H2 3622   5.380   1.144   1.434 -0.8492 -0.6879  1.0585
 1206TIP3   OH2 3623   5.967   5.314   3.704  0.3617 -0.1180 -0.2899
 1206TIP3    H1 3624   5.892   5.300   3.761  1.5652  0.7077  1.5797
 1206TIP3    H2 3625   6.043   5.298   3.759  1.6099 -0.5617 -2.0256
 1207TIP3   OH2 3626   3.003   3.686   3.693  0.0237 -0.2651 -0.1052
 1207TIP3    H1 3627   2.910   3.666   3.690  0.2514 -1.2433 -1.6916
 1207TIP3    H2 3628   3.041   3.617   3.748 -0.5016  1.8869  3.2991
 1208TIP3   OH2 3629   4.680   0.434   0.308 -0.1928  0.6577  0.2745
 1208TIP3    H1 3630   4.751   0.379   0.275 -0.2772 -0.3191  1.6466
 1208TIP3    H2 3631   4.694   0.519   0.267  1.3781  0.2968  0.0112
 1209TIP3   OH2 3632   3.957   4.244   1.887 -0.7287 -0.4663  0.3950
 1209TIP3    H1 3633   3.865   4.272   1.895 -0.1554  3.0343 -2.6884
 1209TIP3    H2 3634   3.955   4.174   1.822 -1.2470 -1.1017  1.0719
 1210TIP3   OH2 3635   4.125   4.497   1.234  0.2542 -0.2836  0.3110
 1210TIP3    H1 3636   4.074   4.552   1.295  0.5430  0.5776 -0.2103
 1210TIP3    H2 3637   4.109   4.535   1.148  0.0888 -1.3177 -0.1270
 1211TIP3   OH2 3638   3.323   1.553   4.512 -0.0124 -0.5215 -0.4465
 1211TIP3    H1 3639   3.249   1.540   4.571 -1.5099 -0.2690 -2.1717
 1211TIP3    H2 3640   3.355   1.641   4.534  0.8414 -1.2558  1.3942
 1212TIP3   OH2 3641   4.007   4.706   4.334 -0.0909  0.2670  0.4806
 1212TIP3    H1 3642   4.056   4.682   4.255 -2.3804  0.3498 -1.0496
 1212TIP3    H2 3643   3.988   4.623   4.377 -0.2891  0.0754  0.0257
 1213TIP3   OH2 3644   1.728   5.526   4.876  0.7761  0.1651  0.8319
 1213TIP3    H1 3645   1.645   5.534   4.923 -0.5524 -0.5038 -1.2376
 1213TIP3    H2 3646   1.729   5.601   4.816  0.7443 -0.8154 -0.4434
 1214TIP3   OH2 3647   3.110   1.644   1.581  0.4539  0.2499 -0.0972
 1214TIP3    H1 3648   3.203   1.649   1.557  0.4337  0.5336 -0.1158
 1214TIP3    H2 3649   3.094   1.551   1.593  0.6944  0.1820 -0.2860
 1215TIP3   OH2 3650   3.867   4.331   0.401 -0.1916  0.0171  0.1261
 1215TIP3    H1 3651   3.778   4.334   0.436  0.3672  0.3108  1.6042
 1215TIP3    H2 3652   3.868   4.255   0.342 -1.7828  0.8472 -1.0191
 1216TIP3   OH2 3653   5.739   0.793   2.115 -0.2107 -0.2323 -0.3482
 1216TIP3    H1 3654   5.695   0.864   2.068  0.8900  1.1409  0.5740
 1216TIP3    H2 3655   5.804   0.760   2.054  0.3638  0.6815 -0.2445
 1217TIP3   OH2 3656   5.159   4.446   4.701 -0.1152 -0.2858  0.6563
 1217TIP3    H1 3657   5.119   4.498   4.631  2.3903  1.8045  0.6085
 1217TIP3    H2 3658   5.188   4.366   4.658 -1.1630 -0.3133 -0.0348
 1218TIP3   OH2 3659   5.918   2.893   1.488 -0.2525 -0.1475  0.5523
 1218TIP3    H1 3660   5.959   2.823   1.437  1.0589  1.3293 -0.4890
 1218TIP3    H2 3661   5.828   2.896   1.455  0.6436  0.9788 -2.0150
 1219TIP3   OH2 3662   5.712   5.510   3.984 -0.4880 -0.0053  0.1173
 1219TIP3    H1 3663   5.802   5.536   4.003 -0.3251 -1.6171  1.8486
 1219TIP3    H2 3664   5.719   5.422   3.948 -1.3696 -0.1390  0.2398
 1220TIP3   OH2 3665   0.768   6.009   1.996  0.3102  0.1425  0.1051
 1220TIP3    H1 3666   0.688   5.960   1.977  0.7003 -0.4278 -0.0859
 1220TIP3    H2 3667   0.836   5.963   1.947  0.5663  1.2902 -0.6351
 1221TIP3   OH2 3668   4.301   1.847   4.655  0.2204 -0.0504  0.0190
 1221TIP3    H1 3669   4.366   1.882   4.715 -0.2047  1.4490 -0.3657
 1221TIP3    H2 3670   4.234   1.808   4.711  0.6197 -0.1155  0.4572
 1222TIP3   OH2 3671   3.513   5.036   3.459  0.1065  0.2395 -0.4961
 1222TIP3    H1 3672   3.457   5.091   3.405 -0.4505 -0.7873 -0.9957
 1222TIP3    H2 3673   3.460   4.959   3.478  0.9418 -0.2336 -0.0059
 1223TIP3   OH2 3674   1.534   4.185   2.445  0.3243  0.5499 -0.6349
 1223TIP3    H1 3675   1.588   4.111   2.474 -1.4295 -0.4640  0.1714
 1223TIP3    H2 3676   1.580   4.262   2.478  0.5638 -0.3644  1.2989
 1224TIP3   OH2 3677   5.073   0.861   2.020  0.2502 -0.0760 -0.0982
 1224TIP3    H1 3678   5.094   0.898   2.106 -1.8981 -0.7303  0.7772
 1224TIP3    H2 3679   5.016   0.787   2.039 -1.0076  0.2871 -2.1251
 1225TIP3   OH2 3680   0.767   3.782   4.718 -0.0932  0.0832 -0.2798
 1225TIP3    H1 3681   0.779   3.751   4.628  1.0722 -0.7605  0.1289
 1225TIP3    H2 3682   0.853   3.816   4.742 -0.3224  0.0374  0.6169
 1226TIP3   OH2 3683   3.881   4.140   0.214  0.1782  0.8524 -0.1832
 1226TIP3    H1 3684   3.820   4.066   0.207 -0.3949  1.3275 -0.2597
 1226TIP3    H2 3685   3.961   4.109   0.170  0.8303 -0.6083  1.8621
 1227TIP3   OH2 3686   5.968   1.642   1.239 -0.1098  0.0979 -0.2512
 1227TIP3    H1 3687   5.909   1.709   1.273  0.7376 -0.1189  1.8086
 1227TIP3    H2 3688   6.056   1.676   1.257  0.3637 -0.6147 -1.1470
 1228TIP3   OH2 3689   4.699   0.260   4.435  0.7111 -0.1936 -0.3124
 1228TIP3    H1 3690   4.604   0.270   4.433  0.4305 -2.1256  1.1659
 1228TIP3    H2 3691   4.732   0.342   4.398 -1.5046  0.6210 -0.6356
 1229TIP3   OH2 3692   3.452   5.735   0.876  0.1451 -0.3060  0.0560
 1229TIP3    H1 3693   3.396   5.714   0.802 -1.2429  0.1345  0.9403
 1229TIP3    H2 3694   3.526   5.675   0.868 -0.5029 -0.9899 -1.0771
 1230TIP3   OH2 3695   1.986   2.670   3.922  0.2325  0.3559 -0.4669
 1230TIP3    H1 3696   1.997   2.734   3.851 -0.1915  0.9526 -0.0062
 1230TIP3    H2 3697   1.891   2.664   3.933  0.2799 -0.1212 -0.2842
 1231TIP3   OH2 3698   6.276   0.825   4.475 -0.1353 -0.0852  0.1419
 1231TIP3    H1 3699   6.313   0.753   4.526  2.4129  0.9849 -0.0395
 1231TIP3    H2 3700   6.253   0.786   4.391  1.8395 -0.6182 -0.2004
 1232TIP3   OH2 3701   0.729   3.367   4.293  0.1962  0.6164  0.1745
 1232TIP3    H1 3702   0.689   3.307   4.355  0.3214 -0.7131 -0.9785
 1232TIP3    H2 3703   0.818   3.380   4.326  1.5131 -2.9708 -1.5244
 1233TIP3   OH2 3704   1.477   5.080   4.777  0.1383 -0.3507 -0.1376
 1233TIP3    H1 3705   1.513   5.059   4.863 -2.7818 -4.0013  0.4479
 1233TIP3    H2 3706   1.410   5.147   4.795 -0.5448 -1.1809  0.5020
 1234TIP3   OH2 3707   1.555   3.457   4.649  0.6834 -0.5871  0.1284
 1234TIP3    H1 3708   1.604   3.418   4.722  0.9045 -3.5516 -1.4227
 1234TIP3    H2 3709   1.617   3.457   4.576 -0.2880 -0.1821 -0.7263
 1235TIP3   OH2 3710   2.940   2.279   2.485  0.1523 -0.6013  0.0929
 1235TIP3    H1 3711   3.028   2.317   2.497  1.4940 -2.8149 -2.0106
 1235TIP3    H2 3712   2.936   2.207   2.548  0.0507 -0.8402 -0.1856
 1236TIP3   OH2 3713   5.835   0.918   2.919  0.0632 -0.1321 -0.5252
 1236TIP3    H1 3714   5.873   0.876   2.996 -0.0532 -2.6167 -1.6988
 1236TIP3    H2 3715   5.869   0.866   2.845 -1.3641  0.9284 -1.9969
 1237TIP3   OH2 3716   3.958   1.714   0.227  0.0686  0.3122 -0.6104
 1237TIP3    H1 3717   3.973   1.700   0.134  0.0549 -0.9962 -0.4292
 1237TIP3    H2 3718   3.893   1.648   0.251  0.2272  0.4935  0.3665
 1238TIP3   OH2 3719   6.152   1.962   3.946 -0.3204  0.7625  0.0366
 1238TIP3    H1 3720   6.171   2.044   3.901  2.9145 -1.0733 -2.3444
 1238TIP3    H2 3721   6.238   1.930   3.975 -1.4030 -1.9444  0.5652
 1239TIP3   OH2 3722   0.997   4.788   2.827  0.5576  0.1023 -0.1521
 1239TIP3    H1 3723   0.984   4.842   2.749  1.0426  0.7582  0.2105
 1239TIP3    H2 3724   1.090   4.797   2.848  0.3448  0.3370  0.7806
 1240TIP3   OH2 3725   3.570   3.046   0.132  0.8855  0.1379  0.2126
 1240TIP3    H1 3726   3.592   3.105   0.059 -0.3815  0.5673  0.1535
 1240TIP3    H2 3727   3.653   3.034   0.179  1.6769  0.0401 -1.1534
 1241TIP3   OH2 3728   6.017   2.165   1.683  0.5398 -0.6502 -0.0940
 1241TIP3    H1 3729   5.932   2.125   1.697  0.1504  0.5550  1.1796
 1241TIP3    H2 3730   6.080   2.097   1.708  0.0094 -1.7642 -1.6418
 1242TIP3   OH2 3731   3.729   1.254   2.141  0.2386 -0.2161  0.4665
 1242TIP3    H1 3732   3.711   1.212   2.057 -1.7258 -2.2306  1.7938
 1242TIP3    H2 3733   3.805   1.310   2.124  1.4351 -2.3839 -2.0729
 1243TIP3   OH2 3734   0.146   5.022   2.748 -0.3547  0.0141  0.2729
 1243TIP3    H1 3735   0.221   5.051   2.696  0.1514 -0.4835  0.7031
 1243TIP3    H2 3736   0.163   4.929   2.764 -0.6157  0.1040  1.1321
 1244TIP3   OH2 3737   1.693   0.194   1.284 -0.2637 -0.3463 -0.0492
 1244TIP3    H1 3738   1.679   0.103   1.258 -0.1859 -0.1292 -0.8916
 1244TIP3    H2 3739   1.771   0.191   1.340 -0.4606 -0.8354  0.2105
 1245TIP3   OH2 3740   6.231   2.807   1.013 -0.0017  0.1484  0.5200
 1245TIP3    H1 3741   6.187   2.726   1.040  0.5979  0.1658  1.6188
 1245TIP3    H2 3742   6.208   2.870   1.081  2.6426 -0.1662  1.8230
 1246TIP3   OH2 3743   2.971   5.941   3.386  0.0262 -0.4851  0.4344
 1246TIP3    H1 3744   2.959   6.034   3.368 -0.6092  0.1104  3.4965
 1246TIP3    H2 3745   2.898   5.917   3.443  0.9557 -2.5156  0.8773
 1247TIP3   OH2 3746   2.476   4.147   2.851 -0.1475 -0.3161 -0.4149
 1247TIP3    H1 3747   2.422   4.072   2.826 -2.4601  0.6765  1.2622
 1247TIP3    H2 3748   2.534   4.160   2.776 -2.0963 -1.5973 -2.2612
 1248TIP3   OH2 3749   1.017   2.574   0.374  0.4469  0.1591 -0.0901
 1248TIP3    H1 3750   1.034   2.546   0.463  2.3156 -3.0820 -1.2789
 1248TIP3    H2 3751   1.103   2.570   0.331 -0.3738  1.7254 -2.0354
 1249TIP3   OH2 3752   2.810   4.625   3.763  0.1195 -0.1734 -0.1693
 1249TIP3    H1 3753   2.745   4.575   3.714 -0.7269  0.2270  0.5369
 1249TIP3    H2 3754   2.777   4.628   3.852  1.1997 -0.1157  0.2491
 1250TIP3   OH2 3755   5.938   0.619   4.905 -0.3878 -0.0698  0.2368
 1250TIP3    H1 3756   5.953   0.537   4.953 -0.6946 -1.0778 -1.3264
 1250TIP3    H2 3757   5.860   0.657   4.946  0.5625  0.1769  1.8889
 1251TIP3   OH2 3758   2.705   2.602   1.653 -0.1572  0.5415  0.0008
 1251TIP3    H1 3759   2.683   2.538   1.586  1.9894  0.3834 -0.6281
 1251TIP3    H2 3760   2.656   2.574   1.731  1.1760 -2.2815 -0.0584
 1252TIP3   OH2 3761   2.532   3.106   3.510  0.5031  0.2906  0.5951
 1252TIP3    H1 3762   2.527   3.112   3.414  0.8344  2.1306  0.6506
 1252TIP3    H2 3763   2.504   3.017   3.530 -1.0255  0.3230 -1.1079
 1253TIP3   OH2 3764   5.946   2.350   0.710 -0.3284  0.3172  0.1994
 1253TIP3    H1 3765   5.981   2.283   0.768 -1.1562  0.8853  1.3993
 1253TIP3    H2 3766   6.017   2.367   0.648 -0.3161 -2.0814 -0.5462
 1254TIP3   OH2 3767   2.329   3.213   2.136 -0.8691 -0.3477  0.0242
 1254TIP3    H1 3768   2.245   3.200   2.182 -1.0326 -1.2664 -0.4990
 1254TIP3    H2 3769   2.364   3.124   2.126 -0.9036 -0.1941 -1.7288
 1255TIP3   OH2 3770   1.842   3.748   1.684  0.3219 -0.7912 -0.3110
 1255TIP3    H1 3771   1.761   3.740   1.735  0.2441 -1.1541 -0.4884
 1255TIP3    H2 3772   1.866   3.840   1.692  0.5361 -0.9333  0.7197
 1256TIP3   OH2 3773   4.225   2.660   1.368  0.5224 -0.6164 -0.1216
 1256TIP3    H1 3774   4.131   2.675   1.372  0.6774  0.6025 -0.5636
 1256TIP3    H2 3775   4.240   2.584   1.424 -0.9856 -2.1867 -1.7692
 1257TIP3   OH2 3776   1.796   1.255   3.229  0.2073  0.5751  0.1053
 1257TIP3    H1 3777   1.888   1.245   3.252  0.6517  1.2316 -1.2366
 1257TIP3    H2 3778   1.782   1.193   3.157 -0.9342 -0.9338  1.5683
 1258TIP3   OH2 3779   4.514   0.927   0.306 -0.0380 -0.1205  0.1840
 1258TIP3    H1 3780   4.442   0.951   0.248  0.1365 -3.0414 -1.4558
 1258TIP3    H2 3781   4.471   0.891   0.384 -0.4547 -2.1562 -0.9211
 1259TIP3   OH2 3782   6.249   4.021   0.111  0.2387  0.6530  0.5028
 1259TIP3    H1 3783   6.331   3.973   0.126 -0.9955 -2.4061 -1.4723
 1259TIP3    H2 3784   6.227   4.057   0.197  1.5414 -2.0865  2.1334
 1260TIP3   OH2 3785   0.347   1.222   4.064  0.0881 -0.0259  0.1657
 1260TIP3    H1 3786   0.442   1.234   4.058 -0.0002  0.4256 -0.3752
 1260TIP3    H2 3787   0.332   1.196   4.155  0.9288 -1.9375 -0.1928
 1261TIP3   OH2 3788   3.652   2.710   3.392 -0.0175 -0.3700  0.3625
 1261TIP3    H1 3789   3.745   2.728   3.380  0.1253 -1.2643  0.0840
 1261TIP3    H2 3790   3.634   2.634   3.337 -1.1776  0.4700 -0.4905
 1262TIP3   OH2 3791   6.244   2.420   1.004 -0.8625  0.7320 -0.7189
 1262TIP3    H1 3792   6.215   2.335   0.968 -0.0558  0.3951 -0.6036
 1262TIP3    H2 3793   6.245   2.407   1.098  1.0404  0.2511 -0.7731
 1263TIP3   OH2 3794   4.674   0.354   2.809 -0.1195  0.5038 -0.5470
 1263TIP3    H1 3795   4.651   0.421   2.873  0.8931  0.5492 -0.2111
 1263TIP3    H2 3796   4.595   0.301   2.800 -0.6511  1.2194 -0.1606
 1264TIP3   OH2 3797   2.668   4.193   2.046  0.2500  0.1018 -0.1805
 1264TIP3    H1 3798   2.692   4.144   1.967 -1.2679  1.4539 -1.5610
 1264TIP3    H2 3799   2.723   4.272   2.043  0.1342  0.1929  0.0872
 1265TIP3   OH2 3800   4.280   5.013   2.461 -0.1623  0.1732 -0.4914
 1265TIP3    H1 3801   4.270   5.067   2.382 -1.0760  0.1713 -0.3873
 1265TIP3    H2 3802   4.374   4.999   2.469 -0.0751 -0.0018 -1.6974
 1266TIP3   OH2 3803   0.143   3.950   4.291 -0.1284 -0.0077  0.3748
 1266TIP3    H1 3804   0.163   3.970   4.200 -1.5118 -1.2778 -0.2492
 1266TIP3    H2 3805   0.225   3.964   4.337  0.0212  3.1461 -0.5872
 1267TIP3   OH2 3806   3.861   4.155   1.139 -0.2841 -0.0640 -0.0382
 1267TIP3    H1 3807   3.931   4.095   1.163 -0.6044 -1.2109 -1.7700
 1267TIP3    H2 3808   3.854   4.147   1.044  0.6971  3.9030 -0.6246
 1268TIP3   OH2 3809   0.035   5.552   0.309 -0.0930 -0.4052 -0.2442
 1268TIP3    H1 3810  -0.003   5.556   0.397 -0.5415  0.6019 -0.4593
 1268TIP3    H2 3811   0.129   5.542   0.323 -0.1693 -0.3159  0.3456
 1269TIP3   OH2 3812   4.363   0.704   0.498  0.4853 -0.1873  0.4407
 1269TIP3    H1 3813   4.376   0.659   0.415 -0.0805  2.0176 -0.9520
 1269TIP3    H2 3814   4.275   0.679   0.526  0.7790 -1.1447  0.5122
 1270TIP3   OH2 3815   1.831   4.412   2.980  0.0061  0.1961  0.5244
 1270TIP3    H1 3816   1.839   4.389   3.073  0.9027  2.1029  0.9854
 1270TIP3    H2 3817   1.764   4.481   2.979 -0.1916 -0.0010 -0.2819
 1271TIP3   OH2 3818   3.867   2.943   2.282 -0.0007 -0.1544  0.0872
 1271TIP3    H1 3819   3.947   2.941   2.334 -0.9500 -0.2842  1.5864
 1271TIP3    H2 3820   3.813   3.011   2.321 -0.5866  0.0289 -0.9840
 1272TIP3   OH2 3821   1.305   3.943   4.588 -0.6893 -0.7473  0.1080
 1272TIP3    H1 3822   1.312   3.927   4.682 -4.8272 -1.6431  0.4505
 1272TIP3    H2 3823   1.303   3.856   4.549 -0.0395 -0.3893 -0.7542
 1273TIP3   OH2 3824   5.855   0.024   1.117 -0.0226 -0.3300 -0.0019
 1273TIP3    H1 3825   5.789  -0.016   1.174 -0.9716 -0.3819 -1.1042
 1273TIP3    H2 3826   5.811   0.100   1.080  0.8838  0.2188  0.0077
 1274TIP3   OH2 3827   5.654   1.590   3.990 -0.2130  0.1998 -0.4257
 1274TIP3    H1 3828   5.682   1.570   4.080  0.2686 -0.0644 -0.6294
 1274TIP3    H2 3829   5.561   1.565   3.988 -0.0887 -0.3048 -0.1520
 1275TIP3   OH2 3830   1.863   0.627   0.432  0.5438  0.0998  0.0852
 1275TIP3    H1 3831   1.810   0.671   0.365 -3.3007 -1.0410  2.0639
 1275TIP3    H2 3832   1.848   0.534   0.416  0.0430 -0.1966  2.0635
 1276TIP3   OH2 3833   5.379   0.003   0.569  0.0777 -0.3256  0.5711
 1276TIP3    H1 3834   5.322  -0.036   0.503 -0.0891  1.0262 -0.1304
 1276TIP3    H2 3835   5.322   0.061   0.619  0.6605  0.4526  0.3593
 1277TIP3   OH2 3836   3.106   4.467   4.328 -0.0443 -0.6347 -0.0083
 1277TIP3    H1 3837   3.144   4.502   4.409  0.9760 -1.5636 -0.0606
 1277TIP3    H2 3838   3.151   4.515   4.258 -0.5743 -0.1764 -0.0373
 1278TIP3   OH2 3839   5.343   5.136   1.388 -0.3070  0.3507  0.5788
 1278TIP3    H1 3840   5.425   5.165   1.348 -1.8241  0.0877 -3.2278
 1278TIP3    H2 3841   5.355   5.042   1.403  0.8047  0.7308  2.2235
 1279TIP3   OH2 3842   6.191   0.951   4.715  0.2052  0.0903 -0.0394
 1279TIP3    H1 3843   6.219   0.915   4.631 -2.2969 -0.3619 -0.7316
 1279TIP3    H2 3844   6.228   0.892   4.780 -0.4650 -1.4159 -0.9874
 1280TIP3   OH2 3845   1.913   4.088   1.208 -0.7736 -0.0667 -0.4528
 1280TIP3    H1 3846   1.969   4.069   1.284 -0.1833 -1.1869 -1.1495
 1280TIP3    H2 3847   1.824   4.076   1.241 -0.6568  1.7874  0.6856
 1281TIP3   OH2 3848   5.828   3.484   1.653  0.2680 -0.0640  0.4288
 1281TIP3    H1 3849   5.883   3.447   1.584  0.1638 -0.6456  0.6573
 1281TIP3    H2 3850   5.741   3.449   1.634  0.5814 -1.8003  1.9687
 1282TIP3   OH2 3851   2.707   5.726   0.158  0.0001 -0.0475 -0.7267
 1282TIP3    H1 3852   2.694   5.820   0.175 -0.9526 -0.3340  0.2511
 1282TIP3    H2 3853   2.634   5.683   0.203  0.2101 -1.2449 -1.4733
 1283TIP3   OH2 3854   4.637   3.783   1.402  0.2926  0.5871 -0.3709
 1283TIP3    H1 3855   4.652   3.724   1.328 -0.8843 -1.1443  0.6942
 1283TIP3    H2 3856   4.725   3.809   1.430  0.8319 -0.3476 -1.1293
 1284TIP3   OH2 3857   2.671   1.519   4.162 -0.3648  0.0558  0.0097
 1284TIP3    H1 3858   2.754   1.559   4.187  1.9418 -2.8305 -2.2451
 1284TIP3    H2 3859   2.643   1.470   4.240 -0.9660  2.3179  1.3255
 1285TIP3   OH2 3860   0.632   2.852   2.064 -0.2846 -0.2277  0.5171
 1285TIP3    H1 3861   0.642   2.784   2.131 -0.3960  0.7389  1.5378
 1285TIP3    H2 3862   0.562   2.818   2.008 -0.2040 -1.0544  0.8884
 1286TIP3   OH2 3863   3.548   5.402   1.592 -0.0235 -0.3575 -0.0562
 1286TIP3    H1 3864   3.516   5.474   1.537 -1.5946  0.3000  1.6075
 1286TIP3    H2 3865   3.475   5.340   1.595  0.5451 -1.0326  0.1982
 1287TIP3   OH2 3866   0.536   0.815   2.836 -0.1851 -0.0134 -0.4713
 1287TIP3    H1 3867   0.444   0.840   2.835 -0.1254  0.4793  1.4886
 1287TIP3    H2 3868   0.559   0.814   2.929  1.6118 -0.7927 -0.8876
 1288TIP3   OH2 3869   3.191   5.413   3.059  0.2843  0.1723 -0.2997
 1288TIP3    H1 3870   3.151   5.489   3.102 -0.5169 -0.2634 -0.2520
 1288TIP3    H2 3871   3.228   5.448   2.978 -0.1204  0.6070 -0.2991
 1289TIP3   OH2 3872   4.303   4.741   3.497 -0.2445  0.0032 -0.1729
 1289TIP3    H1 3873   4.289   4.834   3.516  1.2954  0.2330 -0.0382
 1289TIP3    H2 3874   4.335   4.704   3.579 -0.3622 -0.5345 -0.3664
 1290TIP3   OH2 3875   2.588   0.136   2.086  0.5186  0.6415  0.2677
 1290TIP3    H1 3876   2.638   0.093   2.016  0.6126 -0.9376  1.2448
 1290TIP3    H2 3877   2.612   0.228   2.080 -0.7774  0.9023 -2.8537
 1291TIP3   OH2 3878   0.834   5.449   0.688  0.2600  0.3001 -0.7124
 1291TIP3    H1 3879   0.786   5.530   0.671  0.5057  0.9699  1.5054
 1291TIP3    H2 3880   0.774   5.379   0.660 -0.7569  1.1827 -0.8039
 1292TIP3   OH2 3881   3.745   0.598   0.235  0.2108  0.5210  0.3863
 1292TIP3    H1 3882   3.734   0.545   0.156 -0.9219  0.3030  0.6737
 1292TIP3    H2 3883   3.833   0.635   0.227  0.6161 -0.5452 -0.3335
 1293TIP3   OH2 3884   0.592   5.355   4.415  0.5681 -0.3581 -0.0567
 1293TIP3    H1 3885   0.502   5.382   4.394  0.4529 -0.4692  0.2939
 1293TIP3    H2 3886   0.590   5.260   4.411  0.6694 -0.3616 -0.0331
 1294TIP3   OH2 3887   3.057   0.711   4.776  0.5236 -0.0881 -0.7105
 1294TIP3    H1 3888   3.006   0.746   4.849  0.9221  0.1491 -0.5413
 1294TIP3    H2 3889   3.056   0.782   4.711 -0.4918 -0.5963 -1.2656
 1295TIP3   OH2 3890   2.629   3.108   4.545 -0.6708  0.6798 -0.0038
 1295TIP3    H1 3891   2.673   3.035   4.589 -2.0078 -0.8523 -1.0730
 1295TIP3    H2 3892   2.696   3.144   4.487 -0.8598 -2.1264 -2.2114
 1296TIP3   OH2 3893   0.355   2.034   0.467 -0.3760 -0.1416  0.2469
 1296TIP3    H1 3894   0.286   2.031   0.400  0.0214 -2.2117 -0.1567
 1296TIP3    H2 3895   0.343   2.118   0.510 -2.8337 -0.2012 -0.1636
 1297TIP3   OH2 3896   3.515   4.412   3.458 -0.1363  0.2071 -0.4600
 1297TIP3    H1 3897   3.432   4.454   3.479  0.0858 -0.0389  1.0045
 1297TIP3    H2 3898   3.530   4.433   3.366 -2.1103 -0.2658 -0.9381
 1298TIP3   OH2 3899   2.926   0.931   1.268 -0.6510 -0.2983 -0.2736
 1298TIP3    H1 3900   3.012   0.911   1.231  0.4839  2.1494  0.8578
 1298TIP3    H2 3901   2.889   0.845   1.288  1.3616 -1.4452 -1.1190
 1299TIP3   OH2 3902   4.104   1.420   4.981  0.2358 -0.3389 -0.1109
 1299TIP3    H1 3903   4.149   1.345   5.021 -0.1984  0.3487  1.7381
 1299TIP3    H2 3904   4.140   1.424   4.892  1.5022 -1.7076  0.2946
 1300TIP3   OH2 3905   2.929   4.470   5.139 -0.3496 -0.0468  0.2163
 1300TIP3    H1 3906   2.921   4.564   5.122 -0.6572 -0.2933 -1.0500
 1300TIP3    H2 3907   3.000   4.464   5.204 -0.3602  1.0539  0.3526
 1301TIP3   OH2 3908   3.080   4.259   1.219 -0.4185  0.1546 -0.3279
 1301TIP3    H1 3909   3.104   4.329   1.280  1.7756  0.1387 -1.0732
 1301TIP3    H2 3910   3.080   4.300   1.133 -0.2266 -0.5077 -0.6502
 1302TIP3   OH2 3911   1.785   1.668   4.824  0.2651  0.7235 -0.6064
 1302TIP3    H1 3912   1.704   1.695   4.779 -0.4395  0.3991  0.4460
 1302TIP3    H2 3913   1.763   1.585   4.865  1.6171 -0.1499 -1.5617
 1303TIP3   OH2 3914   1.702   4.275   1.049  0.1867  0.0085 -0.1760
 1303TIP3    H1 3915   1.794   4.296   1.065  0.5434 -2.1935  1.2207
 1303TIP3    H2 3916   1.657   4.359   1.054  1.8475  0.8896  1.5287
 1304TIP3   OH2 3917   4.046   1.697   4.856  0.0867  0.5113  0.3293
 1304TIP3    H1 3918   4.076   1.720   4.944  1.1047  0.9146 -0.1037
 1304TIP3    H2 3919   4.078   1.608   4.843  0.5118  0.6896  0.1291
 1305TIP3   OH2 3920   0.060   1.570   1.838  0.2113  0.5981 -0.5295
 1305TIP3    H1 3921   0.054   1.522   1.756 -3.5673 -0.6750  0.2934
 1305TIP3    H2 3922   0.007   1.649   1.824  0.4223  0.9038  0.3423
 1306TIP3   OH2 3923   5.817   4.928   4.913  0.2257  0.1012 -0.2628
 1306TIP3    H1 3924   5.824   4.852   4.970  1.9415  0.2952 -0.1434
 1306TIP3    H2 3925   5.905   4.966   4.913  0.3489  0.0575 -3.1020
 1307TIP3   OH2 3926   0.665   4.886   1.532  0.0247  0.6049  0.3948
 1307TIP3    H1 3927   0.688   4.951   1.599  0.0095  2.0760 -0.9702
 1307TIP3    H2 3928   0.748   4.844   1.510  0.0883  0.3706  1.0540
 1308TIP3   OH2 3929   0.337   3.326   0.629  0.2722 -0.1272  0.0146
 1308TIP3    H1 3930   0.410   3.373   0.669  1.4261 -1.7445 -0.0796
 1308TIP3    H2 3931   0.353   3.332   0.535  0.3816 -0.6132 -0.0016
 1309TIP3   OH2 3932   6.195   0.186   0.219 -0.0945 -0.0030 -0.4404
 1309TIP3    H1 3933   6.240   0.134   0.152  1.7243 -0.3255  0.9366
 1309TIP3    H2 3934   6.186   0.127   0.293 -1.4669  0.5439 -0.1425
 1310TIP3   OH2 3935   2.908   5.297   2.706  0.2525 -0.0799 -0.1246
 1310TIP3    H1 3936   2.909   5.377   2.654 -0.3191  0.1197  0.1680
 1310TIP3    H2 3937   2.978   5.243   2.669  0.8535  0.6832 -0.1200
 1311TIP3   OH2 3938   6.234   4.238   2.475  0.4012 -0.3649  0.3776
 1311TIP3    H1 3939   6.246   4.299   2.402 -2.9552  2.4956  1.9203
 1311TIP3    H2 3940   6.256   4.153   2.438  2.5858  1.3242 -2.7881
 1312TIP3   OH2 3941   6.172   3.998   4.652  0.4185  0.0557  0.1995
 1312TIP3    H1 3942   6.117   4.076   4.642  0.8473  0.2608 -0.6978
 1312TIP3    H2 3943   6.138   3.954   4.730 -2.8865 -1.3240 -1.7681
 1313TIP3   OH2 3944   3.250   1.657   4.248  0.5149  0.3438 -0.2881
 1313TIP3    H1 3945   3.185   1.700   4.193  2.2153  2.3857 -0.8125
 1313TIP3    H2 3946   3.280   1.725   4.309  2.0722 -0.5607  0.0128
 1314TIP3   OH2 3947   1.280   1.722   2.978  0.4260 -0.1332 -0.8883
 1314TIP3    H1 3948   1.363   1.678   2.960  0.4067 -0.6003  0.1516
 1314TIP3    H2 3949   1.253   1.690   3.064  0.8318  2.4843  0.3257
 1315TIP3   OH2 3950   1.225   1.884   4.712  0.3579  0.4136  0.2180
 1315TIP3    H1 3951   1.232   1.883   4.807  1.3175  0.9361  0.1662
 1315TIP3    H2 3952   1.221   1.791   4.688  0.0057  0.2797  0.7692
 1316TIP3   OH2 3953   1.185   1.659   1.380  0.1125 -0.5506  0.1145
 1316TIP3    H1 3954   1.275   1.629   1.374  0.6646  0.2898  2.8515
 1316TIP3    H2 3955   1.147   1.606   1.450 -1.5742 -0.9277 -1.0190
 1317TIP3   OH2 3956   1.362   4.871   3.608  0.3526 -0.0597 -0.7824
 1317TIP3    H1 3957   1.321   4.835   3.529 -0.3203  2.2847 -1.5742
 1317TIP3    H2 3958   1.292   4.916   3.654  1.0607 -0.1257  0.4049
 1318TIP3   OH2 3959   1.135   1.735   4.078 -0.0638  0.7272  0.4988
 1318TIP3    H1 3960   1.041   1.718   4.075 -0.0770  0.8341  0.2657
 1318TIP3    H2 3961   1.166   1.686   4.154 -0.3496  0.9005  0.7280
 1319TIP3   OH2 3962   3.885   2.543   0.010  0.0338  0.1268  0.0588
 1319TIP3    H1 3963   3.912   2.461   0.051 -0.3834  0.5942  1.3072
 1319TIP3    H2 3964   3.951   2.559  -0.058  0.0295 -1.3085 -0.3153
 1320TIP3   OH2 3965   3.514   5.469   4.391 -0.1037 -0.6371 -0.1279
 1320TIP3    H1 3966   3.445   5.536   4.382  0.2351 -0.3307 -0.4583
 1320TIP3    H2 3967   3.571   5.483   4.316  1.1754  0.1064  0.9217
 1321TIP3   OH2 3968   4.676   2.475   4.659 -0.1674  0.4045  0.5384
 1321TIP3    H1 3969   4.735   2.441   4.592 -0.2880  2.0070 -0.4387
 1321TIP3    H2 3970   4.706   2.435   4.740  0.1771 -1.3523 -0.4114
 1322TIP3   OH2 3971   0.127   0.074   3.726 -0.5335 -0.2140 -0.5525
 1322TIP3    H1 3972   0.042   0.056   3.686 -0.2102 -0.3189 -1.2173
 1322TIP3    H2 3973   0.191   0.047   3.660 -0.0011  0.8675 -0.5150
 1323TIP3   OH2 3974   5.464   0.046   3.312 -0.2675 -0.2537 -0.4827
 1323TIP3    H1 3975   5.535   0.051   3.247 -1.1220 -0.8769 -1.4996
 1323TIP3    H2 3976   5.507   0.017   3.392  0.6881 -0.2416 -0.9771
 1324TIP3   OH2 3977   4.329   5.197   3.113  0.1899  0.0039  0.1586
 1324TIP3    H1 3978   4.415   5.198   3.157  1.1405  0.5729 -1.5942
 1324TIP3    H2 3979   4.296   5.109   3.126  1.2157 -0.3385  0.5713
 1325TIP3   OH2 3980   2.708   4.322   4.206 -0.1448  0.2538  0.1221
 1325TIP3    H1 3981   2.741   4.302   4.119 -1.5495 -0.4955 -0.2758
 1325TIP3    H2 3982   2.682   4.238   4.242 -0.0469  0.6152  1.0665
 1326TIP3   OH2 3983   5.933   2.500   3.021  0.3925  0.3325  0.0086
 1326TIP3    H1 3984   5.997   2.437   2.987  0.2081 -0.0291  0.3289
 1326TIP3    H2 3985   5.860   2.496   2.959  0.1558 -0.1559  0.3217
 1327TIP3   OH2 3986   5.754   4.615   4.878  0.0614 -0.0921 -0.2234
 1327TIP3    H1 3987   5.798   4.560   4.943  0.5532  0.9333  0.3371
 1327TIP3    H2 3988   5.703   4.677   4.929 -0.3020  0.1325 -0.8416
 1328TIP3   OH2 3989   0.701   2.991   5.054  0.3245 -0.3277 -0.0244
 1328TIP3    H1 3990   0.752   2.969   5.132 -0.6505  1.0312  1.0463
 1328TIP3    H2 3991   0.730   3.079   5.030  2.4009 -1.6218 -2.7525
 1329TIP3   OH2 3992   2.100   5.665   2.575 -0.3533 -0.1023  0.0412
 1329TIP3    H1 3993   2.078   5.750   2.536 -0.8547 -0.1756  0.1608
 1329TIP3    H2 3994   2.193   5.654   2.558  0.3692  1.6734  2.2584
 1330TIP3   OH2 3995   2.834   0.305   3.253 -0.1647 -0.3023  0.0535
 1330TIP3    H1 3996   2.768   0.245   3.219 -0.2969 -1.4114  2.1233
 1330TIP3    H2 3997   2.800   0.392   3.230 -0.9830 -0.9110 -1.2182
 1331TIP3   OH2 3998   5.223   4.872   4.657 -0.3114  0.5161 -0.4036
 1331TIP3    H1 3999   5.244   4.914   4.574 -1.9020  1.0167 -0.5751
 1331TIP3    H2 4000   5.151   4.924   4.693  0.9576  0.8975  1.7523
 1332TIP3   OH2 4001   0.997   3.005   1.602  0.0435 -0.2141 -0.2606
 1332TIP3    H1 4002   0.955   3.053   1.530  0.5630 -0.7417 -0.9371
 1332TIP3    H2 4003   0.966   2.915   1.591 -0.3210 -0.1946  0.5289
 1333TIP3   OH2 4004   2.239   5.287   3.791  0.2042  0.3904 -0.2070
 1333TIP3    H1 4005   2.287   5.351   3.737 -1.7645  2.7989  0.6806
 1333TIP3    H2 4006   2.271   5.302   3.879 -0.8195  0.7408  0.1221
 1334TIP3   OH2 4007   4.040   3.137   3.965  0.6757 -0.1317  0.4579
 1334TIP3    H1 4008   3.961   3.185   3.989  1.1253  1.0771 -0.3717
 1334TIP3    H2 4009   4.086   3.195   3.904  2.9049 -0.1598  1.9694
 1335TIP3   OH2 4010   1.117   1.755   0.276 -0.4566 -0.3301 -0.2818
 1335TIP3    H1 4011   1.078   1.804   0.348 -0.3679 -0.9370  0.1895
 1335TIP3    H2 4012   1.209   1.780   0.276 -0.4167 -0.4678 -0.0566
 1336TIP3   OH2 4013   3.398   4.228   1.365  1.0500 -0.5354 -0.5078
 1336TIP3    H1 4014   3.317   4.197   1.405  0.7019  1.8379  0.8470
 1336TIP3    H2 4015   3.442   4.149   1.335 -1.5338 -1.9326 -0.8853
 1337TIP3   OH2 4016   4.208   1.295   4.361 -0.7534 -0.0290 -0.3829
 1337TIP3    H1 4017   4.132   1.282   4.418 -0.4471  1.8139  0.5154
 1337TIP3    H2 4018   4.223   1.390   4.362  1.6357 -0.3422 -0.4327
 1338TIP3   OH2 4019   5.534   2.029   0.604  0.3338  0.1524 -0.2549
 1338TIP3    H1 4020   5.621   2.068   0.617 -0.0179  1.1156 -0.7467
 1338TIP3    H2 4021   5.483   2.060   0.678 -0.0245  0.8584 -0.7933
 1339TIP3   OH2 4022   0.773   4.512   2.621 -0.0309  0.8678 -0.0338
 1339TIP3    H1 4023   0.705   4.475   2.564  0.3737 -0.5213  0.3491
 1339TIP3    H2 4024   0.756   4.474   2.707 -0.0464  2.1941  0.5735
 1340TIP3   OH2 4025   6.096   3.134   0.324 -0.0630  0.7992 -0.3301
 1340TIP3    H1 4026   6.091   3.165   0.414  0.0102 -1.0040  0.3244
 1340TIP3    H2 4027   6.189   3.120   0.308 -0.1038  0.7919 -0.5664
 1341TIP3   OH2 4028   0.208   5.684   4.252  0.2901 -0.1729 -0.4113
 1341TIP3    H1 4029   0.132   5.673   4.195  0.1912  0.6378 -0.4593
 1341TIP3    H2 4030   0.251   5.763   4.218  0.2387  0.3124  0.6081
 1342TIP3   OH2 4031   3.073   1.355   3.374 -0.3038 -0.5030 -0.3131
 1342TIP3    H1 4032   3.009   1.284   3.379 -0.5725 -0.1826  1.3818
 1342TIP3    H2 4033   3.069   1.385   3.283 -0.8148 -2.0593 -0.8405
 1343TIP3   OH2 4034   3.448   4.901   3.068 -0.4717 -0.5806  0.3925
 1343TIP3    H1 4035   3.493   4.948   3.138 -0.3553 -1.6905  1.0960
 1343TIP3    H2 4036   3.508   4.906   2.994 -0.4525  0.3327  0.4566
 1344TIP3   OH2 4037   1.467   4.742   4.405  0.4501  0.3751  0.3798
 1344TIP3    H1 4038   1.498   4.768   4.492 -0.9885  0.1331  0.9892
 1344TIP3    H2 4039   1.535   4.774   4.346  2.8451 -1.7536  1.7321
 1345TIP3   OH2 4040   1.305   0.183   4.535 -0.3209 -0.3302 -0.2520
 1345TIP3    H1 4041   1.267   0.098   4.557  0.3998 -0.6025 -0.0572
 1345TIP3    H2 4042   1.285   0.238   4.611 -1.0787 -0.2182 -0.5179
 1346TIP3   OH2 4043   2.080   3.038   0.713  0.6049 -0.4309  0.2755
 1346TIP3    H1 4044   2.055   3.129   0.732 -0.0284 -0.6089  0.3166
 1346TIP3    H2 4045   2.116   3.006   0.795  3.7581  0.7035 -0.5154
 1347TIP3   OH2 4046   3.864   5.908   0.900  0.5131 -0.2912  0.1474
 1347TIP3    H1 4047   3.866   5.974   0.830 -0.8120 -0.5954 -0.2090
 1347TIP3    H2 4048   3.818   5.952   0.972 -1.8553 -1.2856 -0.6570
 1348TIP3   OH2 4049   3.175   4.314   3.596  0.4429 -0.2245  0.4741
 1348TIP3    H1 4050   3.160   4.407   3.616 -1.7121  0.3373 -2.9597
 1348TIP3    H2 4051   3.098   4.287   3.547  2.1337 -3.1541 -0.8382
 1349TIP3   OH2 4052   1.270   0.287   3.110 -0.0746  0.2151  0.1482
 1349TIP3    H1 4053   1.360   0.310   3.132  0.2641 -1.9754  1.2967
 1349TIP3    H2 4054   1.216   0.345   3.164  0.6775  0.2388  0.8884
 1350TIP3   OH2 4055   5.300   4.487   4.391 -0.2060 -0.7421 -0.3047
 1350TIP3    H1 4056   5.292   4.395   4.365  0.7371 -0.4056 -1.9442
 1350TIP3    H2 4057   5.233   4.532   4.340  1.2401 -0.1602 -1.8040
 1351TIP3   OH2 4058   5.347   0.578   2.347 -0.5032  0.0785 -0.0691
 1351TIP3    H1 4059   5.301   0.507   2.304 -1.0004  0.1481  0.3329
 1351TIP3    H2 4060   5.413   0.535   2.401 -0.1706 -0.0277 -0.5517
 1352TIP3   OH2 4061   3.470   4.033   4.873 -0.2704  0.5585 -0.1919
 1352TIP3    H1 4062   3.456   3.949   4.829 -0.2684 -0.6666  1.9876
 1352TIP3    H2 4063   3.392   4.044   4.928 -0.4343  2.1881 -0.7087
 1353TIP3   OH2 4064   1.376   0.630   1.202 -0.1449 -0.4675 -0.4951
 1353TIP3    H1 4065   1.373   0.642   1.297  0.8305  0.7954 -0.5965
 1353TIP3    H2 4066   1.418   0.544   1.190  3.0028  0.8012  0.2481
 1354TIP3   OH2 4067   4.731   0.206   0.462 -0.0266  0.7096  0.3280
 1354TIP3    H1 4068   4.737   0.298   0.438 -0.2128  0.6708  0.1345
 1354TIP3    H2 4069   4.728   0.159   0.379  0.2698  0.5136  0.4241
 1355TIP3   OH2 4070   2.762   2.911   2.406  0.7308  0.9192 -0.0351
 1355TIP3    H1 4071   2.769   2.826   2.449 -0.2362  1.0467  0.4112
 1355TIP3    H2 4072   2.841   2.918   2.353  0.2274 -0.8246 -1.0995
 1356TIP3   OH2 4073   5.170   1.670   1.783 -1.0185 -0.0912 -0.4244
 1356TIP3    H1 4074   5.181   1.620   1.864 -2.2099 -0.6894 -0.5992
 1356TIP3    H2 4075   5.190   1.760   1.807  0.2756 -0.5032  0.1180
 1357TIP3   OH2 4076   3.671   1.621   2.289 -0.5195  0.1805 -0.7306
 1357TIP3    H1 4077   3.607   1.655   2.226 -0.3070  0.6991 -0.6670
 1357TIP3    H2 4078   3.638   1.648   2.374  0.9392  2.4392 -0.8195
 1358TIP3   OH2 4079   1.812   5.003   1.620  0.1328  0.0121  0.0861
 1358TIP3    H1 4080   1.837   5.014   1.528  0.9612  0.4504  0.3521
 1358TIP3    H2 4081   1.870   5.061   1.668  0.5595 -1.1276  1.0096
 1359TIP3   OH2 4082   1.296   1.593   3.237 -0.3521 -0.1856 -0.3146
 1359TIP3    H1 4083   1.388   1.566   3.241 -0.1243  0.6614  0.6577
 1359TIP3    H2 4084   1.247   1.511   3.245  0.2582 -0.9616 -3.3584
 1360TIP3   OH2 4085   0.976   5.936   3.190 -0.1885  0.0771 -0.1948
 1360TIP3    H1 4086   1.038   5.941   3.117 -0.8485  1.4048 -0.6937
 1360TIP3    H2 4087   0.906   5.879   3.158 -0.2210  0.2363 -0.4114
 1361TIP3   OH2 4088   0.432   5.684   3.040  0.1006 -0.0917  0.1602
 1361TIP3    H1 4089   0.344   5.647   3.039 -0.1548  0.4905  0.6503
 1361TIP3    H2 4090   0.485   5.622   2.989 -0.5905 -0.4341 -0.1466
 1362TIP3   OH2 4091   5.617   2.445   1.802 -0.4927  0.1613  1.0122
 1362TIP3    H1 4092   5.581   2.532   1.780 -0.0215  0.0130 -0.5078
 1362TIP3    H2 4093   5.711   2.459   1.807 -0.2745 -0.4610 -0.5426
 1363TIP3   OH2 4094   1.452   2.962   2.623 -0.0224 -0.7402 -0.6682
 1363TIP3    H1 4095   1.464   2.867   2.626 -2.2014 -1.1180  3.4762
 1363TIP3    H2 4096   1.527   2.998   2.671 -0.9860 -0.7337  0.8828
 1364TIP3   OH2 4097   4.900   4.556   2.909  0.0641 -0.1084 -0.4228
 1364TIP3    H1 4098   4.936   4.592   2.990  0.9188 -0.2351 -0.7267
 1364TIP3    H2 4099   4.978   4.538   2.855 -0.5249  0.8920 -1.6634
 1365TIP3   OH2 4100   3.235   2.198   4.603 -0.1573 -0.5203 -0.0381
 1365TIP3    H1 4101   3.144   2.170   4.610 -0.2463 -0.3570 -0.5022
 1365TIP3    H2 4102   3.250   2.207   4.508  0.1872 -0.0463  0.0589
 1366TIP3   OH2 4103   4.010   1.596   0.497  0.0063  0.8331  0.4692
 1366TIP3    H1 4104   4.044   1.572   0.410 -0.2147 -0.1245  0.6338
 1366TIP3    H2 4105   3.916   1.606   0.483  0.1827  2.3752  0.2502
 1367TIP3   OH2 4106   4.201   5.668   4.530  0.1797 -0.8247  0.0469
 1367TIP3    H1 4107   4.162   5.607   4.593 -0.5403  0.5556  0.9924
 1367TIP3    H2 4108   4.160   5.752   4.551  3.0290  0.5493  0.5241
 1368TIP3   OH2 4109   2.865   2.827   5.134  0.1332  0.1894  0.5378
 1368TIP3    H1 4110   2.909   2.818   5.219  0.9478  0.2483  0.1341
 1368TIP3    H2 4111   2.774   2.801   5.151  0.5203 -0.8100  1.2062
 1369TIP3   OH2 4112   1.963   1.089   5.063 -0.3901  0.1754  0.7256
 1369TIP3    H1 4113   1.971   1.173   5.019 -1.2295  0.5307  1.2294
 1369TIP3    H2 4114   1.896   1.041   5.013 -0.4780  0.1134  0.9013
 1370TIP3   OH2 4115   4.141   4.882   1.352 -0.2940  1.2727 -0.0202
 1370TIP3    H1 4116   4.074   4.819   1.379  0.1304  0.7134 -0.2661
 1370TIP3    H2 4117   4.094   4.944   1.296 -0.4294  0.3414 -0.9699
 1371TIP3   OH2 4118   5.077   1.661   2.942 -0.2895  0.2801 -0.8052
 1371TIP3    H1 4119   5.026   1.690   2.867 -1.7468 -0.6134 -0.2229
 1371TIP3    H2 4120   5.053   1.569   2.953  1.5596 -0.2073 -0.5520
 1372TIP3   OH2 4121   2.263   2.002   2.573  0.1411  0.0898  0.3658
 1372TIP3    H1 4122   2.262   1.906   2.573 -1.6489  0.0837  0.2117
 1372TIP3    H2 4123   2.351   2.024   2.542  0.8043 -1.4881  1.0182
 1373TIP3   OH2 4124   5.198   3.867   4.732 -0.1635 -0.3206  0.7332
 1373TIP3    H1 4125   5.117   3.819   4.713 -0.3294  0.7897 -1.8173
 1373TIP3    H2 4126   5.264   3.799   4.743 -0.8901 -1.2104 -0.2063
 1374TIP3   OH2 4127   5.153   4.077   0.844  0.2440 -0.0064  0.1450
 1374TIP3    H1 4128   5.107   4.104   0.764  0.2137  1.3941  0.5974
 1374TIP3    H2 4129   5.228   4.027   0.813 -0.1681 -0.0963 -0.7293
 1375TIP3   OH2 4130   3.355   1.001   0.303  0.5389  0.2825  0.7436
 1375TIP3    H1 4131   3.298   1.025   0.377  0.8880 -1.0024  1.4573
 1375TIP3    H2 4132   3.317   0.920   0.269  1.2670  0.0373  0.4934
 1376TIP3   OH2 4133   1.809   1.265   3.763  0.3858 -0.2903  0.0349
 1376TIP3    H1 4134   1.745   1.281   3.832  0.3112 -0.1330 -0.0705
 1376TIP3    H2 4135   1.790   1.332   3.697 -0.0939 -0.9586 -0.5261
 1377TIP3   OH2 4136   5.391   1.446   4.254 -0.2177 -0.2605  0.2773
 1377TIP3    H1 4137   5.359   1.433   4.343 -1.0041 -3.2719 -0.3209
 1377TIP3    H2 4138   5.483   1.418   4.257 -0.2865 -0.5071  0.1212
 1378TIP3   OH2 4139   4.774   4.132   3.655  0.3138 -0.2165 -0.2033
 1378TIP3    H1 4140   4.691   4.095   3.626  0.9599 -0.9107 -1.2383
 1378TIP3    H2 4141   4.772   4.125   3.751 -0.6438 -0.5909 -0.2440
 1379TIP3   OH2 4142   2.447   4.465   4.198 -0.5835  0.0504 -0.1861
 1379TIP3    H1 4143   2.363   4.423   4.217  0.3758 -1.4269  0.9797
 1379TIP3    H2 4144   2.479   4.420   4.120  0.4967 -1.5631  1.1276
 1380TIP3   OH2 4145   1.339   2.159   1.991  0.3603  0.7271 -0.7151
 1380TIP3    H1 4146   1.351   2.244   1.948 -0.6384  0.1900 -2.1086
 1380TIP3    H2 4147   1.426   2.117   1.986  0.6323  1.2930 -0.8128
 1381TIP3   OH2 4148   5.529   2.027   2.863 -0.8782 -0.2724  0.0156
 1381TIP3    H1 4149   5.577   1.953   2.827  0.3558 -0.0145  1.0725
 1381TIP3    H2 4150   5.438   1.996   2.868 -0.6221 -1.2143 -0.8062
 1382TIP3   OH2 4151   4.702   5.702   1.835 -0.1061  0.2305  0.0857
 1382TIP3    H1 4152   4.700   5.787   1.790 -0.1709 -0.0695 -0.4840
 1382TIP3    H2 4153   4.792   5.694   1.866  0.1160  0.1320 -0.5844
 1383TIP3   OH2 4154   4.572   1.550   1.012  0.5396  0.6028  0.0645
 1383TIP3    H1 4155   4.576   1.460   1.044  0.3260  0.6208  0.1465
 1383TIP3    H2 4156   4.615   1.547   0.926  0.1700  0.3361 -0.1188
 1384TIP3   OH2 4157   2.231   4.808   2.739  0.4643  0.4974  0.1252
 1384TIP3    H1 4158   2.284   4.879   2.703 -1.7327  2.2675  0.1679
 1384TIP3    H2 4159   2.181   4.849   2.810 -0.5010 -1.2323  0.4943
 1385TIP3   OH2 4160   0.913   2.772   3.927  0.3523 -0.2012 -0.3635
 1385TIP3    H1 4161   0.928   2.818   3.844 -0.3502  1.4135  0.3606
 1385TIP3    H2 4162   1.000   2.753   3.960  0.7851  2.2221  0.1330
 1386TIP3   OH2 4163   1.317   1.283   4.191  0.2295  0.7512 -0.0160
 1386TIP3    H1 4164   1.294   1.193   4.165 -0.4555  1.1801 -0.9442
 1386TIP3    H2 4165   1.322   1.280   4.286 -1.4330  0.0976  0.0729
 1387TIP3   OH2 4166   1.344   4.738   3.902 -0.0646  0.0862 -0.0856
 1387TIP3    H1 4167   1.411   4.776   3.845  0.1078  0.4461  0.3510
 1387TIP3    H2 4168   1.394   4.695   3.972 -0.2734 -0.4216 -0.2441
 1388TIP3   OH2 4169   4.019   2.560   2.293  0.0650 -0.2096 -0.3902
 1388TIP3    H1 4170   3.964   2.496   2.248 -2.4386  0.8790  0.9642
 1388TIP3    H2 4171   3.961   2.603   2.356  2.1260  2.0108  0.1604
 1389TIP3   OH2 4172   2.130   4.874   5.040 -0.3164  0.1178 -0.0430
 1389TIP3    H1 4173   2.224   4.880   5.025 -0.2729 -0.5609 -0.1037
 1389TIP3    H2 4174   2.092   4.943   4.986  0.2153  1.1224  0.8383
 1390TIP3   OH2 4175   1.423   0.485   5.038  0.3205  0.0863 -0.0035
 1390TIP3    H1 4176   1.399   0.403   5.080 -0.2031  0.4744  0.4705
 1390TIP3    H2 4177   1.465   0.536   5.108 -0.0192  0.5036 -0.0981
 1391TIP3   OH2 4178   5.691   5.247   2.215 -0.5258 -0.8802 -0.3186
 1391TIP3    H1 4179   5.738   5.164   2.207  1.6595  0.3337 -0.8420
 1391TIP3    H2 4180   5.706   5.291   2.132 -0.7235  0.5044  0.3567
 1392TIP3   OH2 4181   4.613   3.527   4.864 -0.4037 -0.3163  0.1321
 1392TIP3    H1 4182   4.681   3.587   4.896  2.4662 -2.3647 -1.6248
 1392TIP3    H2 4183   4.554   3.583   4.813  0.8472  1.3647  0.4248
 1393TIP3   OH2 4184   5.882   5.802   2.741 -0.0400 -0.0832 -0.6680
 1393TIP3    H1 4185   5.968   5.812   2.698  1.2893 -2.7482  1.1170
 1393TIP3    H2 4186   5.847   5.720   2.706 -0.6213 -0.3803  0.5472
 1394TIP3   OH2 4187   0.368   3.593   1.223  0.3953 -0.1810  0.2433
 1394TIP3    H1 4188   0.305   3.541   1.272 -1.1370  2.4093  1.2353
 1394TIP3    H2 4189   0.384   3.670   1.277  1.2655  1.2001 -1.8207
 1395TIP3   OH2 4190   5.546   5.836   0.523 -0.3992 -0.7087 -0.1080
 1395TIP3    H1 4191   5.602   5.822   0.446 -1.2008 -0.2585 -0.7889
 1395TIP3    H2 4192   5.472   5.778   0.510 -1.3597  0.5643 -0.5259
 1396TIP3   OH2 4193   5.316   5.745   1.957 -0.1176  0.2756 -0.1072
 1396TIP3    H1 4194   5.330   5.730   1.863 -0.6979 -0.1306 -0.1328
 1396TIP3    H2 4195   5.327   5.658   1.996 -0.2736  0.3712  0.1478
 1397TIP3   OH2 4196   1.950   3.212   2.493  0.1528 -0.3625  0.5883
 1397TIP3    H1 4197   1.932   3.289   2.547 -0.6679 -0.0830 -0.0723
 1397TIP3    H2 4198   2.004   3.246   2.421 -3.4594  0.5062 -1.9632
 1398TIP3   OH2 4199   3.760   3.028   1.163  0.0050 -0.8664  0.0200
 1398TIP3    H1 4200   3.744   3.012   1.256  1.8654  1.0305  0.7350
 1398TIP3    H2 4201   3.783   2.942   1.127 -0.4658 -1.5696  1.3416
 1399TIP3   OH2 4202   2.578   2.112   1.983  0.3010 -0.1389  0.3883
 1399TIP3    H1 4203   2.533   2.034   2.015 -0.8911  0.3087 -0.1170
 1399TIP3    H2 4204   2.536   2.131   1.899 -0.6309  1.9912  1.2479
 1400TIP3   OH2 4205   5.457   4.470   0.297 -0.1096 -0.2307  0.1481
 1400TIP3    H1 4206   5.495   4.539   0.351  1.7217  0.2487 -1.6558
 1400TIP3    H2 4207   5.531   4.434   0.247 -1.5136 -1.4437 -1.1697
 1401TIP3   OH2 4208   4.990   4.418   1.786 -0.6384 -0.4821 -0.1373
 1401TIP3    H1 4209   4.957   4.508   1.794 -0.1011 -0.3476  0.7165
 1401TIP3    H2 4210   4.921   4.371   1.740 -0.6248  0.5318 -1.2215
 1402TIP3   OH2 4211   4.568   3.004   0.363 -0.1677 -0.0024 -0.6347
 1402TIP3    H1 4212   4.533   3.066   0.427  0.4267  0.3369 -0.6300
 1402TIP3    H2 4213   4.603   2.932   0.416 -0.1864  0.0114 -0.6038
 1403TIP3   OH2 4214   2.659   1.422   4.881 -0.3005 -0.0577  0.7523
 1403TIP3    H1 4215   2.730   1.383   4.933 -1.1578 -0.9941  1.2813
 1403TIP3    H2 4216   2.581   1.405   4.933 -0.8207  1.7201  0.5950
 1404TIP3   OH2 4217   5.247   1.863   1.033 -0.1322  0.0976 -0.3154
 1404TIP3    H1 4218   5.287   1.885   1.117  0.8424 -0.8051 -0.5245
 1404TIP3    H2 4219   5.179   1.799   1.055  0.0326 -0.0372 -0.2007
 1405TIP3   OH2 4220   5.227   4.969   0.808 -0.4211  0.6490 -0.1994
 1405TIP3    H1 4221   5.179   5.004   0.733  0.1471 -0.4777 -1.1351
 1405TIP3    H2 4222   5.170   4.900   0.842 -0.1544  0.3540 -0.3460
 1406TIP3   OH2 4223   2.891   1.093   1.494  0.3374  0.7399  0.3159
 1406TIP3    H1 4224   2.972   1.106   1.543  0.6930  1.6067 -0.4775
 1406TIP3    H2 4225   2.919   1.072   1.405 -0.2895  2.1657 -0.2437
 1407TIP3   OH2 4226   1.459   3.364   3.353  0.0885  0.2305  0.4137
 1407TIP3    H1 4227   1.393   3.306   3.315  1.6685 -0.7060 -1.0516
 1407TIP3    H2 4228   1.432   3.452   3.327 -2.0493  0.1943  2.2123
 1408TIP3   OH2 4229   3.974   3.181   2.135 -0.2951 -0.2420 -0.7984
 1408TIP3    H1 4230   3.947   3.093   2.160 -1.5888  0.0462 -1.1276
 1408TIP3    H2 4231   4.004   3.221   2.217 -0.6515 -0.6540 -0.4642
 1409TIP3   OH2 4232   5.981   2.178   3.044  0.4918  0.2191 -0.2816
 1409TIP3    H1 4233   6.030   2.219   2.973 -0.9044 -0.3969 -1.6695
 1409TIP3    H2 4234   5.965   2.249   3.106 -1.0684  1.6503 -2.1670
 1410TIP3   OH2 4235   1.538   1.478   3.227  0.2105 -0.2807 -0.6299
 1410TIP3    H1 4236   1.593   1.550   3.258 -0.2146  0.3382 -1.2558
 1410TIP3    H2 4237   1.582   1.399   3.257  0.9114  0.2296 -0.2773
 1411TIP3   OH2 4238   0.989   0.083   1.530 -0.1991 -0.2700  0.1345
 1411TIP3    H1 4239   0.909   0.113   1.487 -1.2100  0.8710  2.6016
 1411TIP3    H2 4240   1.059   0.102   1.468 -1.7261 -0.4874 -1.7361
 1412TIP3   OH2 4241   4.980   3.328   4.275 -0.4045  0.1265 -0.6309
 1412TIP3    H1 4242   4.886   3.309   4.277 -0.2226 -0.7690 -0.2432
 1412TIP3    H2 4243   4.986   3.420   4.300 -1.0343 -0.4522  2.0279
 1413TIP3   OH2 4244   1.066   4.309   3.242  0.0847 -0.1223 -0.0657
 1413TIP3    H1 4245   1.041   4.218   3.253 -4.6510  1.1349  1.8779
 1413TIP3    H2 4246   1.049   4.328   3.150 -1.9953 -0.5273  0.1974
 1414TIP3   OH2 4247   2.882   5.756   4.555 -0.7726 -0.0703  0.9841
 1414TIP3    H1 4248   2.950   5.732   4.491 -0.9732  1.0758  0.3232
 1414TIP3    H2 4249   2.910   5.841   4.589 -1.1453 -0.2538  1.7633
 1415TIP3   OH2 4250   5.345   2.800   3.273 -0.1037  0.2784 -0.2579
 1415TIP3    H1 4251   5.279   2.765   3.213 -0.9357  2.8725 -0.9931
 1415TIP3    H2 4252   5.357   2.731   3.339 -0.0639 -2.1736 -2.6491
 1416TIP3   OH2 4253   4.147   0.284   1.046  0.0195 -0.3925  0.1468
 1416TIP3    H1 4254   4.230   0.304   1.089 -0.7723  0.2334  1.4594
 1416TIP3    H2 4255   4.081   0.296   1.115 -1.0575 -1.9854 -0.5382
 1417TIP3   OH2 4256   0.827   4.479   0.507  0.5432 -0.6575 -0.8675
 1417TIP3    H1 4257   0.840   4.562   0.461  1.2274 -0.0260  0.3954
 1417TIP3    H2 4258   0.915   4.454   0.535  0.1993 -1.2296 -0.2675
 1418TIP3   OH2 4259   4.876   0.346   1.798  0.9414 -0.2844  0.6650
 1418TIP3    H1 4260   4.896   0.363   1.706  1.2616  1.0687  0.9645
 1418TIP3    H2 4261   4.789   0.386   1.810  1.7240  1.2766  1.3959
 1419TIP3   OH2 4262   5.420   2.181   3.065 -0.3092  0.1732  0.5526
 1419TIP3    H1 4263   5.487   2.198   3.131 -1.1820 -1.2905  1.8687
 1419TIP3    H2 4264   5.468   2.144   2.991  0.5359  0.7690  0.7924
 1420TIP3   OH2 4265   4.206   2.138   0.576 -0.0331 -0.2547 -0.0601
 1420TIP3    H1 4266   4.246   2.224   0.561 -1.9616  0.8988  1.1178
 1420TIP3    H2 4267   4.186   2.106   0.488  1.7058 -0.0550 -0.5805
 1421TIP3   OH2 4268   4.874   3.752   3.180 -0.2713 -0.0410 -0.2347
 1421TIP3    H1 4269   4.878   3.671   3.231 -1.9153 -0.6246 -0.9661
 1421TIP3    H2 4270   4.964   3.767   3.152  0.5278 -0.2007  2.0233
 1422TIP3   OH2 4271   0.107   0.416   4.967  0.3975  0.0443 -0.1721
 1422TIP3    H1 4272   0.188   0.365   4.960  1.5461  1.9755 -2.8251
 1422TIP3    H2 4273   0.043   0.366   4.917  1.0711  0.2948 -1.3479
 1423TIP3   OH2 4274   1.831   1.508   4.588  0.4106  0.0443  0.3877
 1423TIP3    H1 4275   1.846   1.557   4.669 -1.7761  1.5102  0.0034
 1423TIP3    H2 4276   1.889   1.549   4.524  0.7601  0.1458  0.7615
 1424TIP3   OH2 4277   0.943   0.521   2.385  0.0392 -0.5935 -0.5856
 1424TIP3    H1 4278   1.007   0.555   2.448  1.4216 -1.6249 -1.3739
 1424TIP3    H2 4279   0.929   0.593   2.324 -0.9979  0.2742  0.6198
 1425TIP3   OH2 4280   4.023   1.133   1.259  0.3276 -0.4882 -0.2447
 1425TIP3    H1 4281   4.102   1.106   1.214  0.2300 -0.3985 -0.4686
 1425TIP3    H2 4282   4.022   1.228   1.251  0.1479 -0.4960 -0.3246
 1426TIP3   OH2 4283   3.434   3.515   2.080  0.2795 -0.0780 -0.3002
 1426TIP3    H1 4284   3.425   3.466   2.162 -0.1441 -0.4195 -0.5520
 1426TIP3    H2 4285   3.392   3.460   2.014  0.1354  0.4536 -0.6522
 1427TIP3   OH2 4286   0.417   1.719   4.939 -0.0881  0.7235  0.3863
 1427TIP3    H1 4287   0.431   1.813   4.945 -0.0464  0.6955  0.7661
 1427TIP3    H2 4288   0.489   1.680   4.988 -0.3376  0.5109  0.5928
 1428TIP3   OH2 4289   2.758   4.913   1.403  0.0898  0.0802  0.2674
 1428TIP3    H1 4290   2.760   4.992   1.349 -0.4961  0.2558  0.4898
 1428TIP3    H2 4291   2.685   4.861   1.367  1.9740 -1.5356 -1.4786
 1429TIP3   OH2 4292   4.682   2.579   1.733 -0.0338 -0.4502 -0.7876
 1429TIP3    H1 4293   4.654   2.562   1.643 -0.0373 -1.6425 -0.5684
 1429TIP3    H2 4294   4.619   2.645   1.765  0.0529  0.0905 -1.6859
 1430TIP3   OH2 4295   4.083   2.292   1.986  0.4217 -0.1321 -0.6493
 1430TIP3    H1 4296   4.164   2.335   1.962  0.4316  1.4180  1.7772
 1430TIP3    H2 4297   4.020   2.363   1.996 -0.7442 -1.1262 -0.7111
 1431TIP3   OH2 4298   1.414   1.241   3.430 -0.0695 -0.0700  0.0912
 1431TIP3    H1 4299   1.385   1.319   3.478  0.1493  0.5232 -0.7095
 1431TIP3    H2 4300   1.368   1.169   3.471 -0.1843  0.4662  0.9391
 1432TIP3   OH2 4301   1.726   2.977   1.442  0.3473 -0.1302 -0.3268
 1432TIP3    H1 4302   1.732   3.072   1.433  0.2490 -0.2448 -1.8721
 1432TIP3    H2 4303   1.645   2.953   1.396  1.1163 -1.1017 -1.2049
 1433TIP3   OH2 4304   4.894   1.738   2.767 -0.0651  0.6374 -0.2113
 1433TIP3    H1 4305   4.799   1.744   2.762  0.0108  1.6433 -0.6952
 1433TIP3    H2 4306   4.920   1.694   2.686 -0.1229  0.1348  0.0357
 1434TIP3   OH2 4307   2.106   4.114   4.812  0.6043  0.2768  0.4170
 1434TIP3    H1 4308   2.127   4.206   4.828  1.2147 -0.0542  1.7146
 1434TIP3    H2 4309   2.013   4.113   4.791  0.5307  1.1702  0.6648
 1435TIP3   OH2 4310   3.602   0.437   3.009 -0.7477 -0.2800 -0.3105
 1435TIP3    H1 4311   3.527   0.424   2.951 -1.1391 -0.9710  0.3321
 1435TIP3    H2 4312   3.671   0.382   2.972 -0.6303  0.1635 -0.7616
 1436TIP3   OH2 4313   5.289   5.655   2.954 -0.1557 -0.0644  0.1467
 1436TIP3    H1 4314   5.250   5.706   2.883  0.5204  0.2118 -0.0362
 1436TIP3    H2 4315   5.381   5.649   2.931  0.4398  1.4904  1.8425
 1437TIP3   OH2 4316   5.963   4.904   3.118 -0.4395 -0.3246  0.4662
 1437TIP3    H1 4317   5.990   4.892   3.027 -0.6502 -1.2703  0.5245
 1437TIP3    H2 4318   5.872   4.876   3.121 -0.5212 -0.0328  0.9151
 1438TIP3   OH2 4319   3.231   1.092   0.543 -0.0131  0.1404  0.0271
 1438TIP3    H1 4320   3.270   1.054   0.622  0.5558 -1.1778 -0.8406
 1438TIP3    H2 4321   3.142   1.057   0.540  0.3934 -0.9110 -0.5789
 1439TIP3   OH2 4322   2.269   4.749   2.155 -0.2196  0.6137 -0.2569
 1439TIP3    H1 4323   2.294   4.815   2.219 -0.0063  0.3638 -0.0779
 1439TIP3    H2 4324   2.332   4.759   2.084 -0.4929  0.9304 -0.4573
 1440TIP3   OH2 4325   1.480   1.405   2.960 -0.0575  0.1419  0.5045
 1440TIP3    H1 4326   1.559   1.420   2.910 -0.8799  2.8924 -0.1437
 1440TIP3    H2 4327   1.504   1.428   3.050  0.4110 -1.1252  0.7211
 1441TIP3   OH2 4328   5.789   0.123   2.755  0.4530  0.4432 -0.3982
 1441TIP3    H1 4329   5.758   0.038   2.722 -2.1566  0.8685  0.7579
 1441TIP3    H2 4330   5.738   0.138   2.834  1.9528  2.4287  0.2516
 1442TIP3   OH2 4331   5.488   0.645   1.552 -0.3029 -0.0460 -0.0025
 1442TIP3    H1 4332   5.505   0.718   1.611  0.3821 -0.5080  0.3812
 1442TIP3    H2 4333   5.526   0.569   1.596  0.1729 -0.4084 -1.0023
 1443TIP3   OH2 4334   0.937   3.302   3.593  0.0137  0.4268  0.2488
 1443TIP3    H1 4335   0.880   3.353   3.651 -2.9029 -0.4786 -1.5423
 1443TIP3    H2 4336   0.969   3.365   3.529 -0.4216  0.6802  0.2784
 1444TIP3   OH2 4337   1.915   4.483   3.891 -0.3355  0.6001  0.2255
 1444TIP3    H1 4338   1.887   4.565   3.851  0.5835  1.3136  0.9857
 1444TIP3    H2 4339   1.844   4.422   3.872 -1.6540  1.8975  0.7035
 1445TIP3   OH2 4340   1.005   1.958   0.793 -0.1671 -0.0548  0.2137
 1445TIP3    H1 4341   1.077   1.972   0.854  0.0637 -1.6433  0.3659
 1445TIP3    H2 4342   0.974   2.045   0.771  1.8823  0.6859  0.0589
 1446TIP3   OH2 4343   2.763   0.554   0.350 -0.4769 -0.5768 -0.1133
 1446TIP3    H1 4344   2.757   0.477   0.294 -1.6220 -1.1368  0.7338
 1446TIP3    H2 4345   2.738   0.522   0.437  0.1857  0.5039  0.4906
 1447TIP3   OH2 4346   3.474   0.953   1.242 -0.1238 -0.0237 -0.2125
 1447TIP3    H1 4347   3.460   0.917   1.329  0.2094 -0.3293 -0.2815
 1447TIP3    H2 4348   3.568   0.970   1.237 -0.4563  2.4336  0.4146
 1448TIP3   OH2 4349   5.193   1.863   2.244 -0.0707  0.3374 -0.0442
 1448TIP3    H1 4350   5.248   1.909   2.180 -2.5973  0.7787 -2.0675
 1448TIP3    H2 4351   5.103   1.881   2.215 -1.2900 -0.9671  2.6416
 1449TIP3   OH2 4352   3.646   0.987   3.745  0.0749  0.1429  0.7544
 1449TIP3    H1 4353   3.564   1.023   3.710  0.1971  0.9493  1.2611
 1449TIP3    H2 4354   3.618   0.919   3.806 -0.2202  0.3686  0.8752
 1450TIP3   OH2 4355   3.180   3.676   1.821 -0.1651  0.4247 -0.2794
 1450TIP3    H1 4356   3.197   3.726   1.901  1.0935 -0.3496 -0.0332
 1450TIP3    H2 4357   3.155   3.589   1.853 -0.1693  0.2585 -0.7282
 1451TIP3   OH2 4358   1.833   3.519   1.126 -0.8035  0.1592 -0.1375
 1451TIP3    H1 4359   1.918   3.509   1.082 -1.3972 -0.1813 -1.2559
 1451TIP3    H2 4360   1.794   3.596   1.083 -1.8287 -0.7940 -0.9585
 1452TIP3   OH2 4361   3.778   0.842   4.475 -0.2920 -0.0748 -0.2256
 1452TIP3    H1 4362   3.798   0.789   4.552  0.1671  0.3707 -0.0303
 1452TIP3    H2 4363   3.705   0.797   4.433 -1.2724  0.2672  1.0581
 1453TIP3   OH2 4364   3.124   3.868   0.576 -0.9432 -0.7465  0.2817
 1453TIP3    H1 4365   3.051   3.833   0.526 -0.3656 -0.2970 -0.9068
 1453TIP3    H2 4366   3.198   3.812   0.553 -0.8406 -1.0673  1.3096
 1454TIP3   OH2 4367   0.356   3.840   4.769  0.5258  0.3746 -0.0876
 1454TIP3    H1 4368   0.418   3.851   4.842  0.1182  0.8991  0.1874
 1454TIP3    H2 4369   0.404   3.869   4.692  1.3261 -1.1751 -0.2136
 1455TIP3   OH2 4370   4.454   5.578   1.746 -0.5436  0.0533  0.0878
 1455TIP3    H1 4371   4.486   5.498   1.704  2.5282  1.1564  0.0940
 1455TIP3    H2 4372   4.531   5.616   1.787 -2.0013  2.7631  0.5408
 1456TIP3   OH2 4373   1.064   1.712   4.481 -0.2873 -0.3766  0.6051
 1456TIP3    H1 4374   1.148   1.695   4.439 -1.5234 -2.0754 -1.3926
 1456TIP3    H2 4375   1.052   1.807   4.471  0.7344 -0.3298 -0.4078
 1457TIP3   OH2 4376   6.139   5.189   3.903 -0.1119 -0.0892 -0.5334
 1457TIP3    H1 4377   6.083   5.124   3.861 -0.9013 -1.9426  2.9954
 1457TIP3    H2 4378   6.208   5.138   3.945  0.1637  1.4870  1.0409
 1458TIP3   OH2 4379   1.118   5.152   2.748 -0.1772  0.8326 -0.4630
 1458TIP3    H1 4380   1.067   5.211   2.692 -0.1653  0.3313 -1.0038
 1458TIP3    H2 4381   1.169   5.099   2.687 -2.0867 -1.5280 -0.1622
 1459TIP3   OH2 4382   1.405   2.169   1.568  0.0750  0.0302 -0.7723
 1459TIP3    H1 4383   1.465   2.238   1.599 -0.0514 -0.7704  1.4001
 1459TIP3    H2 4384   1.462   2.107   1.522  0.4952  0.5555 -0.9784
 1460TIP3   OH2 4385   0.508   0.320   1.366 -0.3536 -0.0224 -0.4045
 1460TIP3    H1 4386   0.463   0.372   1.432 -0.5145 -0.7567  0.0614
 1460TIP3    H2 4387   0.601   0.340   1.379 -0.4087  0.0854 -0.1819
 1461TIP3   OH2 4388   2.095   0.303   4.631 -0.7109  0.1509 -0.4559
 1461TIP3    H1 4389   2.026   0.237   4.631 -0.5931  0.0287 -0.6151
 1461TIP3    H2 4390   2.168   0.264   4.679  0.6137 -1.1546 -3.3135
 1462TIP3   OH2 4391   3.739   4.352   0.906 -0.0060  0.4878  0.3015
 1462TIP3    H1 4392   3.673   4.293   0.943  0.3224  0.0846  0.2627
 1462TIP3    H2 4393   3.767   4.406   0.980  2.3008 -1.8325  1.3140
 1463TIP3   OH2 4394   4.916   3.264   1.110 -0.2581  0.6875  0.2025
 1463TIP3    H1 4395   4.975   3.227   1.176 -0.5767  0.4426  0.3507
 1463TIP3    H2 4396   4.831   3.268   1.153 -0.3299  1.1361  0.0229
 1464TIP3   OH2 4397   2.456   4.285   3.948 -0.4963  0.1621  0.0755
 1464TIP3    H1 4398   2.467   4.217   3.881 -1.2166  0.1595 -0.0462
 1464TIP3    H2 4399   2.361   4.289   3.963 -0.4247  0.8624  0.3693
 1465TIP3   OH2 4400   5.734   5.166   5.047  0.0968  0.1529 -0.1086
 1465TIP3    H1 4401   5.805   5.226   5.023 -1.4463  1.9254 -0.4598
 1465TIP3    H2 4402   5.748   5.089   4.992  1.5709  0.5730 -0.3610
 1466TIP3   OH2 4403   6.251   0.337   4.444  0.1123 -0.4952  0.2912
 1466TIP3    H1 4404   6.191   0.346   4.517 -0.4756 -1.6124 -0.0254
 1466TIP3    H2 4405   6.220   0.400   4.379 -0.0433 -0.2923  0.5631
 1467TIP3   OH2 4406   3.732   3.129   3.271  0.3108  0.0860 -0.4450
 1467TIP3    H1 4407   3.711   3.104   3.181 -1.7548 -1.3827  0.3715
 1467TIP3    H2 4408   3.813   3.082   3.291 -0.0417 -0.7998 -1.0516
 1468TIP3   OH2 4409   2.063   0.464   3.372  0.1268  0.4076  0.1541
 1468TIP3    H1 4410   2.154   0.485   3.394  0.5933  0.5819 -1.7496
 1468TIP3    H2 4411   2.023   0.549   3.352 -0.5470  0.3559  1.2153
 1469TIP3   OH2 4412   1.201   0.574   0.526  0.1394 -0.6848 -0.7899
 1469TIP3    H1 4413   1.252   0.652   0.505  1.0994 -1.0358  0.1005
 1469TIP3    H2 4414   1.121   0.607   0.567  0.2766 -0.1496 -0.9465
 1470TIP3   OH2 4415   0.193   5.282   0.511  0.4608 -0.5051 -0.4948
 1470TIP3    H1 4416   0.103   5.261   0.536  0.9357 -3.1044 -0.6653
 1470TIP3    H2 4417   0.219   5.352   0.570 -2.2895  1.8301 -1.7763
 1471TIP3   OH2 4418   2.629   5.800   4.138 -0.0915  0.1089  0.0047
 1471TIP3    H1 4419   2.533   5.796   4.140 -0.2324  0.7080 -2.4129
 1471TIP3    H2 4420   2.654   5.835   4.223 -2.0143  0.0198  0.6509
 1472TIP3   OH2 4421   4.168   2.530   4.228 -0.3204  0.4440 -0.1883
 1472TIP3    H1 4422   4.136   2.457   4.281  1.5727 -0.0408  0.3499
 1472TIP3    H2 4423   4.091   2.558   4.178 -1.2282 -1.5618 -0.0179
 1473TIP3   OH2 4424   3.165   0.164   3.597  0.0732  0.3940  0.0042
 1473TIP3    H1 4425   3.240   0.219   3.576 -0.7503  1.0870 -1.2585
 1473TIP3    H2 4426   3.175   0.087   3.541 -0.6686  0.9590 -0.9336
 1474TIP3   OH2 4427   0.920   3.448   4.945 -0.0261 -0.0418 -0.1350
 1474TIP3    H1 4428   0.956   3.362   4.919 -3.3837 -1.0734 -1.9322
 1474TIP3    H2 4429   0.912   3.496   4.862 -1.6601  0.5340  0.3312
 1475TIP3   OH2 4430   1.297   2.437   0.956  0.4887 -0.0889 -0.0744
 1475TIP3    H1 4431   1.387   2.408   0.971  0.2117 -0.9660  0.0003
 1475TIP3    H2 4432   1.249   2.404   1.032  0.2889  1.3120  0.4345
 1476TIP3   OH2 4433   5.625   0.941   2.701  0.5977  0.1367 -0.5709
 1476TIP3    H1 4434   5.636   0.849   2.676  3.2499  0.3384 -0.3845
 1476TIP3    H2 4435   5.605   0.986   2.619 -1.8218 -0.6790 -0.5105
 1477TIP3   OH2 4436   1.530   4.113   3.357 -0.0761 -0.1310 -0.1174
 1477TIP3    H1 4437   1.441   4.112   3.321 -0.4135 -1.0171  0.7011
 1477TIP3    H2 4438   1.518   4.142   3.447  0.6301  0.9414 -0.3435
 1478TIP3   OH2 4439   5.308   0.649   0.887 -0.0011 -0.2892 -0.0253
 1478TIP3    H1 4440   5.331   0.681   0.974  1.3074  2.5992 -1.2967
 1478TIP3    H2 4441   5.354   0.565   0.879  0.6206 -0.1552  1.7124
 1479TIP3   OH2 4442   6.222   4.238   4.854  0.2532  0.0003  0.0585
 1479TIP3    H1 4443   6.314   4.216   4.867 -0.0385 -1.2905  0.0912
 1479TIP3    H2 4444   6.174   4.164   4.892 -0.7930  0.5728 -0.1115
 1480TIP3   OH2 4445   5.798   4.375   2.074  0.1222 -0.4802 -0.1430
 1480TIP3    H1 4446   5.855   4.377   2.151  0.9617  2.9173 -0.6724
 1480TIP3    H2 4447   5.730   4.440   2.094 -0.4380 -0.5512 -1.6879
 1481TIP3   OH2 4448   1.891   5.655   2.114 -0.2443  0.3522  0.3645
 1481TIP3    H1 4449   1.927   5.678   2.028  1.2473 -0.2080  0.8190
 1481TIP3    H2 4450   1.900   5.560   2.119 -0.2331  0.3934  1.1917
 1482TIP3   OH2 4451   2.981   1.886   2.197  0.1700  0.3272  0.1621
 1482TIP3    H1 4452   2.892   1.851   2.189 -0.1995  1.4042 -0.6822
 1482TIP3    H2 4453   2.982   1.932   2.281  0.1178 -0.1913  0.4502
 1483TIP3   OH2 4454   3.540   1.056   4.959  0.0250  0.0440 -0.3088
 1483TIP3    H1 4455   3.477   1.121   4.930 -0.3607 -0.0733  0.2505
 1483TIP3    H2 4456   3.626   1.098   4.948 -0.2680  1.0796  1.1145
 1484TIP3   OH2 4457   6.288   2.092   2.990  0.2196 -0.2663  0.7254
 1484TIP3    H1 4458   6.243   2.008   2.991 -1.0530  0.3754 -0.1459
 1484TIP3    H2 4459   6.236   2.148   3.048  1.2282 -0.1298  1.5492
 1485TIP3   OH2 4460   5.441   3.430   2.651  0.1494 -0.4784 -0.4066
 1485TIP3    H1 4461   5.535   3.442   2.638 -0.0320  1.3320 -0.3415
 1485TIP3    H2 4462   5.407   3.417   2.562  0.2722  0.6820 -0.6486
 1486TIP3   OH2 4463   3.363   3.559   0.257 -0.9550 -0.8308 -0.1140
 1486TIP3    H1 4464   3.344   3.465   0.268 -2.0580 -0.5216  0.8065
 1486TIP3    H2 4465   3.449   3.561   0.215  0.9572 -2.2749  3.3307
 1487TIP3   OH2 4466   2.588   2.311   4.275 -0.5810  0.2895  0.1124
 1487TIP3    H1 4467   2.502   2.279   4.245 -1.8001  2.0260  1.5407
 1487TIP3    H2 4468   2.630   2.343   4.195 -1.7395  0.4552 -0.4515
 1488TIP3   OH2 4469   2.862   0.034   2.532 -0.3486 -0.5424  0.1286
 1488TIP3    H1 4470   2.775  -0.003   2.515 -1.0693  1.0146  0.2905
 1488TIP3    H2 4471   2.897   0.056   2.445 -0.7976  0.2904  0.1488
 1489TIP3   OH2 4472   3.246   1.975   3.649 -0.3666  0.0917 -0.1242
 1489TIP3    H1 4473   3.255   1.917   3.573 -0.5602  1.0989 -0.9451
 1489TIP3    H2 4474   3.336   2.002   3.670 -0.2692 -0.5733  0.3173
 1490TIP3   OH2 4475   2.053   4.576   2.142  0.4454 -0.4134 -0.1784
 1490TIP3    H1 4476   2.055   4.546   2.052 -0.4054 -1.2230  0.0565
 1490TIP3    H2 4477   2.115   4.649   2.145  0.8235 -0.6780 -1.2978
 1491TIP3   OH2 4478   3.782   1.515   3.738 -0.6662 -0.4171  0.4268
 1491TIP3    H1 4479   3.870   1.481   3.753 -0.4316  0.2944  0.7108
 1491TIP3    H2 4480   3.766   1.502   3.644 -0.1478 -0.3047  0.3203
 1492TIP3   OH2 4481   3.560   3.702   3.178 -0.0102 -0.6185  0.2461
 1492TIP3    H1 4482   3.500   3.756   3.230  2.4626  3.4465 -0.6779
 1492TIP3    H2 4483   3.620   3.665   3.243  0.0965  0.3391  0.7236
 1493TIP3   OH2 4484   1.719   0.674   3.954 -0.0501  0.1065  0.1113
 1493TIP3    H1 4485   1.773   0.717   4.020  0.2490  0.8885 -0.6241
 1493TIP3    H2 4486   1.734   0.580   3.968  0.1024  0.2558  1.0585
 1494TIP3   OH2 4487   2.891   3.777   3.038 -0.8526  0.0951 -0.0355
 1494TIP3    H1 4488   2.937   3.855   3.007 -1.2527  0.1519 -0.5019
 1494TIP3    H2 4489   2.960   3.715   3.060 -0.5537  0.1794 -0.7207
 1495TIP3   OH2 4490   0.687   4.340   2.844 -0.1776 -0.4568  0.6280
 1495TIP3    H1 4491   0.628   4.412   2.867  0.3432 -0.0053  0.5679
 1495TIP3    H2 4492   0.688   4.284   2.922  0.3633  0.2450  1.1385
 1496TIP3   OH2 4493   3.603   1.122   3.477 -0.1394  0.1715 -0.1145
 1496TIP3    H1 4494   3.599   1.060   3.404 -1.2043  0.5457 -0.3809
 1496TIP3    H2 4495   3.672   1.087   3.534  0.4403 -0.3358 -1.0947
 1497TIP3   OH2 4496   2.696   4.107   0.641 -0.1898  0.3680 -0.2475
 1497TIP3    H1 4497   2.665   4.043   0.704 -1.0538  2.1753  1.2817
 1497TIP3    H2 4498   2.789   4.118   0.661 -0.4077  0.7580  0.5838
 1498TIP3   OH2 4499   4.991   5.322   5.004  0.3826  0.7706 -0.3496
 1498TIP3    H1 4500   4.964   5.331   5.095  1.0491  1.6274 -0.2178
 1498TIP3    H2 4501   5.014   5.412   4.977 -1.3844  0.8242 -1.8745
 1499TIP3   OH2 4502   3.505   1.823   1.761 -0.1110 -0.1508 -0.3680
 1499TIP3    H1 4503   3.413   1.822   1.786 -0.0087 -0.8041  0.0304
 1499TIP3    H2 4504   3.506   1.858   1.672 -0.8509 -1.0139 -0.7369
 1500TIP3   OH2 4505   4.735   4.808   4.935 -0.2092 -0.2484 -0.2633
 1500TIP3    H1 4506   4.698   4.881   4.885 -0.4621 -1.7900 -2.4766
 1500TIP3    H2 4507   4.661   4.747   4.944 -0.3070  0.1826  2.5232
 1501TIP3   OH2 4508   0.830   2.430   1.564 -0.0627 -0.1563  0.2252
 1501TIP3    H1 4509   0.914   2.470   1.587  0.1241 -0.2090 -0.3603
 1501TIP3    H2 4510   0.853   2.342   1.534 -0.4208 -0.5094  0.9712
 1502TIP3   OH2 4511   4.108   5.903   2.032  0.3763  0.1320 -0.8017
 1502TIP3    H1 4512   4.182   5.961   2.013  0.4430  0.4105  0.2264
 1502TIP3    H2 4513   4.098   5.908   2.127 -3.1986  2.9130 -1.1019
 1503TIP3   OH2 4514   1.253   5.706   0.015 -0.4334 -0.2933  0.2345
 1503TIP3    H1 4515   1.294   5.621   0.028 -0.3991 -0.1713  0.9488
 1503TIP3    H2 4516   1.208   5.724   0.097  0.1108  0.6815  0.3401
 1504TIP3   OH2 4517   0.871   5.282   3.318 -0.4229  0.1626 -0.6071
 1504TIP3    H1 4518   0.944   5.221   3.309 -1.0513 -0.6544 -0.3450
 1504TIP3    H2 4519   0.808   5.253   3.252 -0.0606  1.5620 -1.6115
 1505TIP3   OH2 4520   1.222   5.517   5.024 -0.1103 -0.2420  0.4775
 1505TIP3    H1 4521   1.164   5.589   5.051  0.6001  0.3530  0.4510
 1505TIP3    H2 4522   1.207   5.508   4.930 -1.1286 -0.9875  0.6917
 1506TIP3   OH2 4523   5.479   0.190   2.392  0.5858  0.0933 -0.0353
 1506TIP3    H1 4524   5.394   0.210   2.353  0.4157 -0.7084 -0.1104
 1506TIP3    H2 4525   5.505   0.270   2.438  0.6752  0.9740 -1.5656
 1507TIP3   OH2 4526   2.708   0.497   3.110 -0.7380  0.3075 -0.7393
 1507TIP3    H1 4527   2.685   0.547   3.188  0.0100  2.0438 -1.5733
 1507TIP3    H2 4528   2.626   0.455   3.084 -1.0859  0.0107  0.7310
 1508TIP3   OH2 4529   3.120   5.011   3.720  0.2820 -0.0419 -0.2694
 1508TIP3    H1 4530   3.080   5.055   3.796 -1.5190  0.5474 -1.4950
 1508TIP3    H2 4531   3.145   5.083   3.662 -0.1581 -0.5406 -1.0839
 1509TIP3   OH2 4532   0.975   4.165   2.775  0.0085 -0.1037 -0.8603
 1509TIP3    H1 4533   1.040   4.212   2.827  1.0331 -0.2107 -1.9955
 1509TIP3    H2 4534   1.009   4.169   2.686 -1.2736 -0.6574 -1.3942
 1510TIP3   OH2 4535   5.774   1.635   4.251  0.2592 -0.3265  0.2797
 1510TIP3    H1 4536   5.854   1.588   4.274  0.4453 -1.0674 -1.6601
 1510TIP3    H2 4537   5.801   1.726   4.243  1.1425 -0.6853 -1.1689
 1511TIP3   OH2 4538   0.668   5.194   1.833 -0.1301 -0.2795  0.2943
 1511TIP3    H1 4539   0.727   5.125   1.804  0.2440  0.0909  0.1710
 1511TIP3    H2 4540   0.634   5.163   1.917 -1.3943 -1.4677 -0.6030
 1512TIP3   OH2 4541   6.092   0.166   4.783 -0.5749  0.1883 -0.3090
 1512TIP3    H1 4542   6.184   0.184   4.767 -0.5817  1.2331  0.7104
 1512TIP3    H2 4543   6.045   0.241   4.747 -0.9758 -0.0289 -0.2518
 1513TIP3   OH2 4544   0.669   4.021   0.148  0.6488  0.0195  0.2178
 1513TIP3    H1 4545   0.607   4.084   0.110 -0.0813  0.0927  1.4610
 1513TIP3    H2 4546   0.655   3.941   0.098  0.4180  0.3812 -0.3088
 1514TIP3   OH2 4547   3.738   1.440   2.478 -0.0714  0.3835  0.1830
 1514TIP3    H1 4548   3.660   1.410   2.525  0.0404  0.1987  0.2502
 1514TIP3    H2 4549   3.703   1.493   2.406 -0.2937 -0.2814 -0.2146
 1515TIP3   OH2 4550   3.031   5.728   3.574 -0.6976  0.4418 -0.0723
 1515TIP3    H1 4551   3.119   5.734   3.610 -0.2323  1.0040 -1.2520
 1515TIP3    H2 4552   3.022   5.805   3.518 -0.9283 -0.9578 -2.0972
 1516TIP3   OH2 4553   1.701   0.022   4.688  0.1775 -0.2337 -0.7537
 1516TIP3    H1 4554   1.655  -0.043   4.743 -1.9163  0.1805 -1.8868
 1516TIP3    H2 4555   1.675   0.106   4.724 -1.1376  0.0397 -2.2402
 1517TIP3   OH2 4556   6.053   2.766   4.857  0.1568 -0.0373 -0.3702
 1517TIP3    H1 4557   6.088   2.846   4.819 -2.7395  1.5599  0.1142
 1517TIP3    H2 4558   6.027   2.713   4.781  3.5120 -1.4168 -0.7720
 1518TIP3   OH2 4559   3.525   4.200   2.887 -0.3098 -0.0759 -0.4593
 1518TIP3    H1 4560   3.506   4.116   2.928  1.3391  0.6102  1.9181
 1518TIP3    H2 4561   3.589   4.180   2.819 -2.5406 -1.1326 -2.4033
 1519TIP3   OH2 4562   0.480   1.064   0.424 -0.9702 -0.5014 -0.1046
 1519TIP3    H1 4563   0.574   1.083   0.433 -1.3276  0.5924  1.9890
 1519TIP3    H2 4564   0.473   0.971   0.446 -0.2763 -0.8609 -1.3095
 1520TIP3   OH2 4565   5.606   5.076   4.743 -0.0778 -0.0157 -0.2325
 1520TIP3    H1 4566   5.674   5.017   4.775 -0.3374  0.3474  1.0302
 1520TIP3    H2 4567   5.590   5.047   4.653  0.6571 -1.0808 -0.0414
 1521TIP3   OH2 4568   3.905   3.453   3.089  0.2034 -0.0610  0.0040
 1521TIP3    H1 4569   3.850   3.530   3.074  1.0532  0.6194  0.3373
 1521TIP3    H2 4570   3.971   3.482   3.151  1.3273 -0.6932 -0.8707
 1522TIP3   OH2 4571   0.273   2.639   0.462 -0.3269 -0.6327 -0.0597
 1522TIP3    H1 4572   0.245   2.650   0.371  0.4630  1.3369 -0.1218
 1522TIP3    H2 4573   0.191   2.635   0.511 -0.7913 -2.7038 -0.9037
 1523TIP3   OH2 4574   4.133   4.304   0.397 -0.1047  0.2777  0.7878
 1523TIP3    H1 4575   4.147   4.271   0.309 -0.9778  0.2163  0.6669
 1523TIP3    H2 4576   4.041   4.331   0.399 -0.1817 -0.0112  1.7705
 1524TIP3   OH2 4577   3.230   1.848   2.818  0.3596  0.0353 -0.5021
 1524TIP3    H1 4578   3.262   1.832   2.729  2.9421 -0.3624  0.3975
 1524TIP3    H2 4579   3.209   1.941   2.820 -0.0210 -0.0120 -1.5871
 1525TIP3   OH2 4580   4.012   1.142   3.663  0.0768 -0.1117  0.6620
 1525TIP3    H1 4581   3.977   1.197   3.592  0.7809  0.0624  0.4395
 1525TIP3    H2 4582   3.948   1.150   3.733  0.0500  0.8156  0.5442
 1526TIP3   OH2 4583   2.095   3.114   1.770  0.2820 -0.1295 -0.5093
 1526TIP3    H1 4584   2.163   3.049   1.783  0.0651 -0.0236  1.3855
 1526TIP3    H2 4585   2.142   3.198   1.764  0.3613 -0.0895  0.5065
 1527TIP3   OH2 4586   0.970   3.579   0.670 -0.4944  0.2420  0.7954
 1527TIP3    H1 4587   0.975   3.664   0.714 -0.3225 -0.1349  1.5319
 1527TIP3    H2 4588   1.024   3.588   0.593 -1.2422  1.1000  0.3509
 1528TIP3   OH2 4589   2.186   1.498   1.242  0.0484  0.1263  0.6569
 1528TIP3    H1 4590   2.175   1.430   1.309  0.6860 -0.8940 -0.2388
 1528TIP3    H2 4591   2.279   1.519   1.245 -0.0596  0.6156  0.5914
 1529TIP3   OH2 4592   4.085   4.232   5.168 -0.2211 -0.0471  0.1996
 1529TIP3    H1 4593   4.122   4.221   5.080 -0.1658 -2.0404  0.4143
 1529TIP3    H2 4594   4.021   4.302   5.159  1.4205  1.4219 -0.8760
 1530TIP3   OH2 4595   2.613   4.200   2.597 -0.1972 -0.6695 -0.2204
 1530TIP3    H1 4596   2.564   4.283   2.603 -0.1790 -0.7061  0.5613
 1530TIP3    H2 4597   2.568   4.151   2.529 -0.8338 -0.4226  0.0122
 1531TIP3   OH2 4598   4.552   4.346   4.227  0.9701  0.0629  0.4763
 1531TIP3    H1 4599   4.464   4.331   4.192  0.3801  0.3626  1.7857
 1531TIP3    H2 4600   4.603   4.377   4.152 -0.4183  1.3018  0.0063
 1532TIP3   OH2 4601   0.054   1.402   3.080  0.2109 -0.3035 -0.0492
 1532TIP3    H1 4602   0.095   1.367   3.001  2.0841  0.2135  0.6483
 1532TIP3    H2 4603   0.023   1.489   3.055  0.6202 -0.2234 -0.2826
 1533TIP3   OH2 4604   4.775   4.127   3.920  0.3266 -0.7123 -0.0649
 1533TIP3    H1 4605   4.853   4.177   3.943 -1.3543  1.6221  0.9168
 1533TIP3    H2 4606   4.754   4.077   3.999  0.1656 -0.4371  0.0656
 1534TIP3   OH2 4607   2.020   0.866   2.851 -0.0757 -0.0926  0.0075
 1534TIP3    H1 4608   1.929   0.857   2.821  0.6277 -0.4419 -2.2279
 1534TIP3    H2 4609   2.071   0.820   2.785  1.7907  0.5853  0.9169
 1535TIP3   OH2 4610   5.577   4.951   4.510  0.1314 -0.3849 -0.5022
 1535TIP3    H1 4611   5.487   4.936   4.482  0.2953  1.6219 -2.4022
 1535TIP3    H2 4612   5.628   4.886   4.461 -0.1878 -1.0349  0.0134
 1536TIP3   OH2 4613   1.356   0.026   3.852 -0.4183 -0.1526  0.5093
 1536TIP3    H1 4614   1.361  -0.064   3.884  1.3140 -0.2239  0.0942
 1536TIP3    H2 4615   1.379   0.080   3.928  1.7506 -0.2392 -0.0226
 1537TIP3   OH2 4616   3.025   1.314   2.297 -0.4865 -0.2527  0.1391
 1537TIP3    H1 4617   3.018   1.383   2.363  2.4208  0.1418  0.1502
 1537TIP3    H2 4618   2.989   1.236   2.340 -2.4235  0.8501  0.6559
 1538TIP3   OH2 4619   3.810   0.665   2.954 -0.2459  0.3734  0.1028
 1538TIP3    H1 4620   3.734   0.614   2.926  0.0175 -0.0706  0.1883
 1538TIP3    H2 4621   3.775   0.752   2.972 -0.6808  0.2544 -0.1520
 1539TIP3   OH2 4622   5.396   3.956   4.479  0.1137 -0.1116 -0.0392
 1539TIP3    H1 4623   5.454   3.972   4.405 -0.4688  0.1432 -0.4505
 1539TIP3    H2 4624   5.411   3.864   4.502 -0.5077 -0.5226 -1.2017
 1540TIP3   OH2 4625   1.237   0.207   3.620  0.7112 -0.1968 -0.3954
 1540TIP3    H1 4626   1.259   0.169   3.704  0.8648  2.2125  0.7348
 1540TIP3    H2 4627   1.142   0.196   3.612  0.4551  0.8884  0.8467
 1541TIP3   OH2 4628   2.837   5.578   3.409 -0.4166  0.0846 -0.2716
 1541TIP3    H1 4629   2.896   5.503   3.414 -0.5223  0.0438  0.6707
 1541TIP3    H2 4630   2.864   5.634   3.482 -1.2779  0.2588 -0.0719
 1542TIP3   OH2 4631   2.299   5.098   0.959  0.1535  0.1958  0.1025
 1542TIP3    H1 4632   2.349   5.052   1.027  0.3579  0.5044  0.1647
 1542TIP3    H2 4633   2.270   5.179   1.002  1.0725  0.8382 -0.4548
 1543TIP3   OH2 4634   4.312   5.360   3.802 -0.4010  0.1096 -0.3206
 1543TIP3    H1 4635   4.286   5.379   3.892  0.6526  1.3672 -0.2408
 1543TIP3    H2 4636   4.284   5.270   3.787  1.4418 -0.9595  2.0488
 1544TIP3   OH2 4637   0.868   4.987   5.094 -0.2570  0.2566  0.2048
 1544TIP3    H1 4638   0.781   5.000   5.056 -0.1405 -0.2766 -0.2584
 1544TIP3    H2 4639   0.855   4.994   5.188 -0.4818  2.0049  0.0679
 1545TIP3   OH2 4640   0.151   1.999   4.473 -0.3375 -1.2135 -0.5633
 1545TIP3    H1 4641   0.193   1.953   4.400 -1.2286 -0.8244 -1.3458
 1545TIP3    H2 4642   0.220   2.055   4.508  0.1680 -1.5717 -0.9659
 1546TIP3   OH2 4643   3.512   1.093   2.814  0.1007 -0.3240 -0.0892
 1546TIP3    H1 4644   3.431   1.048   2.839  1.3784 -2.8324 -0.0723
 1546TIP3    H2 4645   3.542   1.046   2.736  1.5807  0.4510 -0.0204
 1547TIP3   OH2 4646   3.891   1.468   1.570  0.4157 -0.1821 -0.3528
 1547TIP3    H1 4647   3.823   1.435   1.628  0.2465 -1.4129 -1.2035
 1547TIP3    H2 4648   3.952   1.514   1.627 -0.6893  0.2079  0.5315
 1548TIP3   OH2 4649   1.687   2.069   1.755 -0.3304 -0.2717  0.0423
 1548TIP3    H1 4650   1.771   2.048   1.715 -1.2219 -2.6456 -0.7484
 1548TIP3    H2 4651   1.709   2.112   1.837  1.6481 -0.9691 -0.0735
 1549TIP3   OH2 4652   0.015   0.420   2.264  0.3081  0.2778  0.1963
 1549TIP3    H1 4653   0.012   0.435   2.359 -0.2279 -1.0954  0.4199
 1549TIP3    H2 4654   0.048   0.502   2.228 -1.0520  1.4259  1.4321
 1550TIP3   OH2 4655   0.098   2.486   4.965  0.5661 -0.9946  0.0067
 1550TIP3    H1 4656   0.026   2.455   4.910 -0.3003  0.8374  0.0596
 1550TIP3    H2 4657   0.072   2.462   5.054 -0.0630 -0.2170  0.0411
 1551TIP3   OH2 4658   2.995   1.638   0.474  0.2658  0.6675  0.0770
 1551TIP3    H1 4659   2.923   1.614   0.415 -0.0493  0.9091  0.3656
 1551TIP3    H2 4660   2.954   1.689   0.544  0.7222  0.8374  0.2253
 1552TIP3   OH2 4661   6.087   3.012   1.179 -1.1728  0.0918 -0.5226
 1552TIP3    H1 4662   6.116   2.990   1.268 -1.2122 -1.0077 -0.7660
 1552TIP3    H2 4663   6.052   3.101   1.187  0.4928  0.7247  0.1747
 1553TIP3   OH2 4664   3.895   3.814   4.850  0.0177  0.5219  0.4311
 1553TIP3    H1 4665   3.958   3.853   4.789  0.2711  0.2081  0.4936
 1553TIP3    H2 4666   3.826   3.779   4.793  0.1791  0.3639  0.3341
 1554TIP3   OH2 4667   6.276   5.823   4.393 -0.3116 -0.5219 -0.5833
 1554TIP3    H1 4668   6.239   5.771   4.321 -0.8055 -1.8982  0.6088
 1554TIP3    H2 4669   6.268   5.766   4.469  0.6889  0.6972  0.4682
 1555TIP3   OH2 4670   3.436   3.044   2.488 -0.2554  0.0829  0.1047
 1555TIP3    H1 4671   3.500   3.062   2.557  1.2711 -1.6056 -0.8029
 1555TIP3    H2 4672   3.397   2.960   2.512  0.9969 -1.0148 -1.5280
 1556TIP3   OH2 4673   5.403   5.276   4.779 -0.3929  0.0676 -0.5858
 1556TIP3    H1 4674   5.339   5.237   4.719 -0.2665 -0.6943 -0.2323
 1556TIP3    H2 4675   5.486   5.235   4.756 -0.4283 -0.6167  0.4397
 1557TIP3   OH2 4676   6.234   3.453   3.307 -0.2841  0.5196 -0.3958
 1557TIP3    H1 4677   6.319   3.467   3.348  0.5025  0.1536 -1.8262
 1557TIP3    H2 4678   6.246   3.484   3.217 -1.4787 -0.0843 -0.7795
 1558TIP3   OH2 4679   0.502   2.252   2.267 -0.1628  0.5379 -0.2041
 1558TIP3    H1 4680   0.593   2.276   2.285 -0.0616  0.6482 -0.8310
 1558TIP3    H2 4681   0.456   2.336   2.264  0.3290  0.7946 -3.1600
 1559TIP3   OH2 4682   2.107   3.693   3.335  0.6724 -0.1155 -0.1148
 1559TIP3    H1 4683   2.015   3.714   3.351  0.5316 -0.2204 -0.7696
 1559TIP3    H2 4684   2.132   3.749   3.262  0.7937 -0.9443 -0.7188
 1560TIP3   OH2 4685   5.641   3.701   2.940 -0.2334 -0.0304 -0.2362
 1560TIP3    H1 4686   5.596   3.700   2.856  1.3028 -1.1099 -1.0901
 1560TIP3    H2 4687   5.572   3.720   3.004 -2.0351 -2.1976 -1.3931
 1561TIP3   OH2 4688   2.010   4.006   1.474  0.6533 -0.2401 -0.5822
 1561TIP3    H1 4689   2.064   4.068   1.523  0.7465 -0.9034  0.1798
 1561TIP3    H2 4690   1.957   3.963   1.541 -0.2964 -0.1231 -1.2337
 1562TIP3   OH2 4691   1.772   4.577   0.585  0.2174 -0.4189  0.3718
 1562TIP3    H1 4692   1.734   4.499   0.546  1.4160 -0.2845 -1.1673
 1562TIP3    H2 4693   1.851   4.594   0.533  2.0909 -0.3448  3.0218
 1563TIP3   OH2 4694   3.937   5.137   1.909 -0.8643  0.0037 -0.1898
 1563TIP3    H1 4695   4.013   5.111   1.857  0.6507 -0.2313  1.9974
 1563TIP3    H2 4696   3.892   5.202   1.855  1.5986  1.0776 -1.1028
 1564TIP3   OH2 4697   4.938   5.252   3.368  0.0250 -0.3589  0.2297
 1564TIP3    H1 4698   4.924   5.238   3.274  0.5995  1.3772 -0.1500
 1564TIP3    H2 4699   5.017   5.306   3.373 -0.4313  0.2245  1.6758
 1565TIP3   OH2 4700   4.759   0.621   3.462 -0.3547 -0.1944  0.0349
 1565TIP3    H1 4701   4.750   0.613   3.557  0.6572  0.0870  0.1636
 1565TIP3    H2 4702   4.750   0.531   3.430  2.9367 -0.9019  0.7592
 1566TIP3   OH2 4703   4.435   4.299   0.312 -0.3662  0.6611 -0.2375
 1566TIP3    H1 4704   4.341   4.313   0.329 -0.5568  0.4653 -1.0826
 1566TIP3    H2 4705   4.479   4.364   0.366 -0.8292 -1.1282  2.4854
 1567TIP3   OH2 4706   0.504   5.911   2.870 -0.0545  0.0420  0.2034
 1567TIP3    H1 4707   0.446   5.892   2.797  0.1664  1.1235 -0.2663
 1567TIP3    H2 4708   0.479   5.847   2.937 -0.8609 -0.3846 -0.4800
 1568TIP3   OH2 4709   3.534   2.071   1.926 -0.8416  0.0212  0.3040
 1568TIP3    H1 4710   3.565   2.051   2.014  0.4443 -1.1761 -0.3763
 1568TIP3    H2 4711   3.516   1.985   1.887  0.4990  0.3608 -1.2173
 1569TIP3   OH2 4712   1.789   3.599   2.129  0.3542  0.0498  0.3575
 1569TIP3    H1 4713   1.853   3.637   2.189  0.5632 -1.1879  0.9302
 1569TIP3    H2 4714   1.731   3.547   2.185  0.5559 -1.1269 -0.4970
 1570TIP3   OH2 4715   3.622   3.917   1.416  0.1458 -0.0565  0.8259
 1570TIP3    H1 4716   3.622   3.844   1.478  0.5421  0.9700  2.0862
 1570TIP3    H2 4717   3.705   3.962   1.432  0.1499  0.3684 -0.3010
 1571TIP3   OH2 4718   3.065   0.388   0.643  0.4321 -0.4920  0.3131
 1571TIP3    H1 4719   3.068   0.295   0.624  0.7312 -0.7506  1.5351
 1571TIP3    H2 4720   3.153   0.419   0.624  0.1024 -0.2799 -0.9059
 1572TIP3   OH2 4721   4.288   0.238   3.301  0.1090 -0.5557 -0.2071
 1572TIP3    H1 4722   4.313   0.308   3.363  0.0570 -0.4660 -0.2870
 1572TIP3    H2 4723   4.196   0.255   3.283  0.7780  1.1084 -2.4711
 1573TIP3   OH2 4724   0.173   3.867   0.633  0.2785 -0.4766 -0.6270
 1573TIP3    H1 4725   0.177   3.772   0.647  1.4124 -0.8438 -2.9454
 1573TIP3    H2 4726   0.257   3.899   0.667 -0.5069 -0.0891  1.0842
 1574TIP3   OH2 4727   2.995   3.779   1.270 -0.6560 -0.4242  0.1517
 1574TIP3    H1 4728   3.025   3.740   1.352  0.4888  1.5461  0.7436
 1574TIP3    H2 4729   2.902   3.797   1.284 -0.7588 -1.1943  0.5334
 1575TIP3   OH2 4730   1.815   5.867   4.374  0.6257  0.7168 -0.6264
 1575TIP3    H1 4731   1.809   5.949   4.423 -0.2193 -0.8241  2.0540
 1575TIP3    H2 4732   1.727   5.856   4.337 -0.1233 -0.2294  1.3055
 1576TIP3   OH2 4733   5.522   5.103   3.896 -0.6392  0.3249  0.1996
 1576TIP3    H1 4734   5.542   5.142   3.982 -1.0951  0.0522  0.4329
 1576TIP3    H2 4735   5.445   5.151   3.866 -0.2937  0.6313 -0.2021
 1577TIP3   OH2 4736   2.823   4.103   4.533 -0.2069  0.4728 -0.4175
 1577TIP3    H1 4737   2.844   4.195   4.519  0.2201  0.6817  1.3636
 1577TIP3    H2 4738   2.789   4.099   4.622  0.3367 -1.1865 -0.2452
 1578TIP3   OH2 4739   4.135   2.764   3.697 -0.1086  0.0099 -0.5306
 1578TIP3    H1 4740   4.146   2.751   3.791 -0.3523 -0.1716 -0.5267
 1578TIP3    H2 4741   4.051   2.808   3.689  0.6065  1.4319 -0.5603
 1579TIP3   OH2 4742   5.992   1.131   4.337 -0.4286 -0.4839 -0.0379
 1579TIP3    H1 4743   5.921   1.132   4.401 -0.4428 -0.8086 -0.0465
 1579TIP3    H2 4744   5.953   1.166   4.257 -0.5412 -0.5371 -0.0065
 1580TIP3   OH2 4745   1.748   1.481   5.076 -0.4530 -0.0481  0.4562
 1580TIP3    H1 4746   1.801   1.421   5.024 -0.2628  0.2732  0.2772
 1580TIP3    H2 4747   1.709   1.426   5.144 -0.4814 -0.4200  0.1435
 1581TIP3   OH2 4748   2.966   2.131   2.746  0.5182  0.0241  0.4269
 1581TIP3    H1 4749   2.901   2.080   2.793  2.0391 -2.0259  0.4117
 1581TIP3    H2 4750   3.038   2.141   2.807  0.6657  1.3634  0.0823
 1582TIP3   OH2 4751   5.564   1.040   1.722  0.2283  0.2649 -0.1392
 1582TIP3    H1 4752   5.642   1.025   1.669 -1.5284  0.4835 -3.0229
 1582TIP3    H2 4753   5.538   0.952   1.750  0.2784 -0.0754 -1.1054
 1583TIP3   OH2 4754   5.268   2.392   2.410 -0.6010 -0.0639  0.5178
 1583TIP3    H1 4755   5.246   2.448   2.336  0.8157 -1.4267 -1.0273
 1583TIP3    H2 4756   5.198   2.327   2.414 -0.5543 -0.1314  0.2222
 1584TIP3   OH2 4757   4.612   1.766   4.648  0.7635 -0.0965  0.6445
 1584TIP3    H1 4758   4.701   1.797   4.665  0.5352  0.4083  0.9691
 1584TIP3    H2 4759   4.588   1.807   4.564  0.9964 -0.5877  0.3385
 1585TIP3   OH2 4760   6.050   3.290   2.287  0.6063  0.1074  0.0732
 1585TIP3    H1 4761   6.144   3.281   2.271  0.3755  1.2535 -2.4439
 1585TIP3    H2 4762   6.040   3.374   2.331  0.8471 -0.7298  1.7847
 1586TIP3   OH2 4763   3.166   2.208   0.814 -0.2011 -0.6819  0.3175
 1586TIP3    H1 4764   3.103   2.269   0.854  0.1911 -0.3600  0.4536
 1586TIP3    H2 4765   3.251   2.238   0.846  0.0497 -0.9090 -0.1340
 1587TIP3   OH2 4766   2.999   3.069   1.405  0.0149  0.4538 -0.6054
 1587TIP3    H1 4767   2.919   3.121   1.409 -0.3869 -0.1651 -0.5818
 1587TIP3    H2 4768   3.064   3.122   1.452 -0.3380  1.0175 -0.7426
 1588TIP3   OH2 4769   1.355   1.879   1.606  0.7274  0.2617  0.0652
 1588TIP3    H1 4770   1.397   1.867   1.691  0.3187 -0.1823  0.2058
 1588TIP3    H2 4771   1.308   1.962   1.614  0.0971 -0.1361  0.5207
 1589TIP3   OH2 4772   4.966   4.254   3.508  0.0705 -0.2365  0.0397
 1589TIP3    H1 4773   4.914   4.198   3.567  0.0769 -0.2178  0.0634
 1589TIP3    H2 4774   4.991   4.196   3.436  0.3507 -0.3481  0.2249
 1590TIP3   OH2 4775   1.473   0.773   2.936  0.2055 -0.4331 -0.4260
 1590TIP3    H1 4776   1.496   0.856   2.978  1.4761  0.0725 -2.0272
 1590TIP3    H2 4777   1.450   0.715   3.009  0.5604  0.9242  0.8182
 1591TIP3   OH2 4778   4.544   2.074   3.930  0.0564 -0.0550  0.3955
 1591TIP3    H1 4779   4.569   1.982   3.924  0.1583 -0.0164  0.1991
 1591TIP3    H2 4780   4.477   2.085   3.863  1.1717  0.3740 -0.7011
 1592TIP3   OH2 4781   1.820   2.450   4.785 -0.2725 -0.0154  0.3404
 1592TIP3    H1 4782   1.882   2.467   4.856  0.9728  1.1845 -0.9845
 1592TIP3    H2 4783   1.755   2.519   4.792 -1.8924 -1.5855  2.0723
 1593TIP3   OH2 4784   2.137   2.407   3.101 -0.1908  0.2502  0.3595
 1593TIP3    H1 4785   2.063   2.354   3.131 -1.6311 -0.3351 -3.6928
 1593TIP3    H2 4786   2.198   2.344   3.064  0.4015  1.0464 -0.0499
 1594TIP3   OH2 4787   4.186   2.376   0.907 -0.2808 -0.4455  0.0441
 1594TIP3    H1 4788   4.092   2.391   0.891 -0.0430  0.7999 -0.2564
 1594TIP3    H2 4789   4.229   2.454   0.872  0.8054 -0.6192  0.9337
 1595TIP3   OH2 4790   5.441   4.527   5.022  0.4236  0.3396 -0.5645
 1595TIP3    H1 4791   5.424   4.599   4.961  0.6198 -0.5125 -1.6577
 1595TIP3    H2 4792   5.413   4.448   4.975 -1.0253 -0.2177  1.0975
 1596TIP3   OH2 4793   3.277   4.901   0.186  0.0455 -0.0479  0.0488
 1596TIP3    H1 4794   3.221   4.897   0.108  1.5718 -0.7613 -1.0474
 1596TIP3    H2 4795   3.365   4.915   0.152  0.5015  1.8082  1.7696
 1597TIP3   OH2 4796   2.690   5.431   1.019 -0.0996  0.3413 -0.4053
 1597TIP3    H1 4797   2.731   5.496   0.961 -2.1338  2.7872  0.7366
 1597TIP3    H2 4798   2.596   5.446   1.009 -0.6490 -2.3027  0.1512
 1598TIP3   OH2 4799   1.329   1.435   3.612  0.0077  0.3954 -0.0097
 1598TIP3    H1 4800   1.354   1.397   3.696  1.1121 -0.5983 -0.7484
 1598TIP3    H2 4801   1.261   1.499   3.633 -2.2255 -2.1958  1.2977
 1599TIP3   OH2 4802   4.351   1.043   4.567 -0.4415  0.2382 -0.4903
 1599TIP3    H1 4803   4.273   1.062   4.620 -0.6547 -0.5110 -0.5287
 1599TIP3    H2 4804   4.340   0.952   4.540  0.5672  0.0543 -0.3025
 1600TIP3   OH2 4805   1.563   2.852   3.611  0.4551 -0.5497  0.2764
 1600TIP3    H1 4806   1.562   2.939   3.651 -2.5963 -1.2108  1.9328
 1600TIP3    H2 4807   1.567   2.792   3.685  1.4894 -1.8883 -0.7995
 1601TIP3   OH2 4808   2.656   3.971   4.043  0.1306  0.1913  0.0374
 1601TIP3    H1 4809   2.668   4.000   4.133 -0.7148 -0.6592  0.4436
 1601TIP3    H2 4810   2.725   4.016   3.994  1.4199 -0.3042  1.3105
 1602TIP3   OH2 4811   0.287   1.896   1.041  0.0706  0.2685 -0.2423
 1602TIP3    H1 4812   0.200   1.880   1.077  0.9936 -3.1638  0.8661
 1602TIP3    H2 4813   0.288   1.847   0.959  1.1402 -0.3807  0.1324
 1603TIP3   OH2 4814   5.812   3.620   2.118 -0.2595 -0.2792  0.1523
 1603TIP3    H1 4815   5.794   3.601   2.210 -0.1628 -1.3613 -0.0377
 1603TIP3    H2 4816   5.818   3.534   2.076 -2.1742  0.1781 -1.2455
 1604TIP3   OH2 4817   1.438   3.095   4.124 -0.2466  0.3184 -0.1328
 1604TIP3    H1 4818   1.426   3.190   4.121 -2.1737  0.0920 -1.2285
 1604TIP3    H2 4819   1.413   3.065   4.037  1.7119 -1.1056 -0.2678
 1605TIP3   OH2 4820   4.687   5.676   1.064  0.1376 -0.0710  0.3276
 1605TIP3    H1 4821   4.641   5.759   1.059  1.0235  0.5220  1.5464
 1605TIP3    H2 4822   4.722   5.661   0.976 -1.0709  0.2157 -0.2110
 1606TIP3   OH2 4823   5.665   4.185   3.256  0.2995 -0.5049  0.3853
 1606TIP3    H1 4824   5.647   4.093   3.279  0.1541 -0.5892 -0.0627
 1606TIP3    H2 4825   5.757   4.186   3.230  0.1662 -0.6258 -0.1062
 1607TIP3   OH2 4826   0.445   4.817   1.921  0.3031 -0.7093  0.1617
 1607TIP3    H1 4827   0.433   4.795   2.013  0.4826 -5.1277 -0.6631
 1607TIP3    H2 4828   0.359   4.850   1.892 -1.4579 -4.2471  0.8575
 1608TIP3   OH2 4829   5.558   5.115   0.275  0.2607  0.0198 -0.2155
 1608TIP3    H1 4830   5.500   5.159   0.213  2.3490 -0.4833 -2.6898
 1608TIP3    H2 4831   5.597   5.186   0.325 -1.5460  0.4310  0.7117
 1609TIP3   OH2 4832   4.367   2.426   1.954 -0.1507  0.6216  0.8210
 1609TIP3    H1 4833   4.404   2.504   1.914  0.0482 -0.1572 -0.5992
 1609TIP3    H2 4834   4.433   2.358   1.941 -1.2547 -0.3350 -0.1007
 1610TIP3   OH2 4835   1.647   0.061   3.993  0.4870 -0.4543  0.2383
 1610TIP3    H1 4836   1.665  -0.003   3.924 -0.2161 -2.2595  1.6366
 1610TIP3    H2 4837   1.575   0.113   3.959  1.8813  0.4930 -1.4478
 1611TIP3   OH2 4838   3.825   0.540   3.228  0.6737 -0.0441  0.5360
 1611TIP3    H1 4839   3.847   0.555   3.136  0.5413  1.5464  0.7397
 1611TIP3    H2 4840   3.805   0.446   3.233  0.0084 -0.0274 -1.1897
 1612TIP3   OH2 4841   0.834  -0.003   4.183 -0.3418 -0.7285  0.2422
 1612TIP3    H1 4842   0.757   0.052   4.191  0.2126 -0.1762  2.1110
 1612TIP3    H2 4843   0.901   0.054   4.144 -0.7894 -1.1811 -1.2895
 1613TIP3   OH2 4844   4.647   1.041   1.804 -0.1762 -0.6435  0.2133
 1613TIP3    H1 4845   4.711   1.055   1.874  1.4863  0.1099 -1.3745
 1613TIP3    H2 4846   4.674   0.959   1.762 -0.4183 -0.4790 -0.2797
 1614TIP3   OH2 4847   5.424   4.005   2.302 -0.0488  0.2113  0.5822
 1614TIP3    H1 4848   5.335   3.970   2.290  0.4254 -0.3689 -1.6568
 1614TIP3    H2 4849   5.411   4.100   2.312 -0.9207  0.1750 -0.0361
 1615TIP3   OH2 4850   5.275   2.094   2.098  0.8396  0.2301 -0.0243
 1615TIP3    H1 4851   5.272   2.053   2.011  0.0944  1.5789 -0.6585
 1615TIP3    H2 4852   5.285   2.187   2.080 -1.4930  0.7954  1.2606
 1616TIP3   OH2 4853   6.185   1.381   1.165 -0.0925 -0.5326  0.0413
 1616TIP3    H1 4854   6.116   1.340   1.113  1.1323 -0.0251 -2.0545
 1616TIP3    H2 4855   6.233   1.436   1.104  0.8379  0.8723  1.9243
 1617TIP3   OH2 4856   0.914   0.587   1.123  0.5508 -0.3333  0.4881
 1617TIP3    H1 4857   0.864   0.667   1.138  0.5980 -0.1445 -0.3560
 1617TIP3    H2 4858   0.858   0.534   1.066  1.3959 -0.0310 -0.6446
 1618TIP3   OH2 4859   1.418   5.603   1.328  0.0882  0.4204 -0.3268
 1618TIP3    H1 4860   1.512   5.593   1.344  0.2817  1.4677 -0.6944
 1618TIP3    H2 4861   1.397   5.534   1.265  0.8428  0.7810 -1.0059
 1619TIP3   OH2 4862   5.445   3.753   3.163 -0.2123 -0.2364 -0.1374
 1619TIP3    H1 4863   5.456   3.658   3.172 -0.4109 -0.1961  0.5749
 1619TIP3    H2 4864   5.350   3.766   3.165 -0.1562  0.0564  0.6269
 1620TIP3   OH2 4865   1.590   5.582   0.577 -0.4073  0.4733 -0.4692
 1620TIP3    H1 4866   1.518   5.646   0.579 -0.9752 -0.0289  3.7585
 1620TIP3    H2 4867   1.668   5.633   0.599 -0.6610  0.0085  1.6721
 1621TIP3   OH2 4868   3.001   2.252   1.311  0.2036 -0.3680 -0.3625
 1621TIP3    H1 4869   2.911   2.264   1.341 -0.4421  1.8453 -2.8495
 1621TIP3    H2 4870   3.001   2.166   1.269  0.0376 -1.5857  1.9747
 1622TIP3   OH2 4871   1.194   1.200   0.423  0.4389 -0.6767 -0.3097
 1622TIP3    H1 4872   1.148   1.278   0.391  2.5170  0.8560  0.1798
 1622TIP3    H2 4873   1.220   1.154   0.344 -1.0912 -1.0913 -0.6045
 1623TIP3   OH2 4874   3.211   5.461   4.222  1.1526 -0.1751 -0.0665
 1623TIP3    H1 4875   3.182   5.518   4.293  0.9410 -0.7942  0.3559
 1623TIP3    H2 4876   3.182   5.373   4.248 -0.5237 -0.1763 -1.7951
 1624TIP3   OH2 4877   2.306   3.305   4.613 -0.0098  0.4439  0.1252
 1624TIP3    H1 4878   2.389   3.302   4.662  0.7838  0.8153 -1.1596
 1624TIP3    H2 4879   2.261   3.382   4.647  0.4424  0.5908  0.4059
 1625TIP3   OH2 4880   6.103   4.575   1.990  0.2935 -0.3288 -0.2119
 1625TIP3    H1 4881   6.158   4.536   2.058 -0.9927 -0.0127  1.0564
 1625TIP3    H2 4882   6.026   4.518   1.986  0.5623 -0.6475 -1.8137
 1626TIP3   OH2 4883   1.837   0.385   1.977 -0.2446 -0.4036 -0.5541
 1626TIP3    H1 4884   1.928   0.408   1.962 -0.5077  0.8744 -0.2636
 1626TIP3    H2 4885   1.826   0.389   2.072 -0.9051  0.7088 -0.6613
 1627TIP3   OH2 4886   1.570   1.922   4.277  0.2439  0.0001 -0.3199
 1627TIP3    H1 4887   1.564   1.978   4.199 -0.5838  0.9276  0.3851
 1627TIP3    H2 4888   1.640   1.962   4.329  0.0563  0.0240 -0.0883
 1628TIP3   OH2 4889   3.619   4.023   0.160  0.1618  0.0040 -0.4491
 1628TIP3    H1 4890   3.534   4.063   0.179  0.1315 -0.7878  1.3113
 1628TIP3    H2 4891   3.614   3.997   0.069 -0.7347  1.7262 -0.9333
 1629TIP3   OH2 4892   4.270   2.324   3.247 -0.9851  0.4086  0.1279
 1629TIP3    H1 4893   4.221   2.278   3.179  0.2429  0.5056 -0.8543
 1629TIP3    H2 4894   4.353   2.277   3.253 -1.0163  0.4893  1.4733
 1630TIP3   OH2 4895   1.116   3.501   1.491 -0.0275 -0.3878 -0.7162
 1630TIP3    H1 4896   1.182   3.445   1.450  0.2492 -1.3975  1.0067
 1630TIP3    H2 4897   1.041   3.496   1.432  0.7026 -0.9430 -1.6323
 1631TIP3   OH2 4898   2.009   0.122   0.523 -0.2636 -0.1647 -0.0081
 1631TIP3    H1 4899   1.920   0.103   0.492  0.4621 -1.1591 -1.6177
 1631TIP3    H2 4900   2.014   0.218   0.522 -0.5659 -0.0959 -2.3624
 1632TIP3   OH2 4901   2.517   3.461   0.622 -0.1390  0.1980  0.3665
 1632TIP3    H1 4902   2.450   3.490   0.560  0.8181  0.8133 -0.4096
 1632TIP3    H2 4903   2.482   3.380   0.658 -1.5783  0.8275  0.4513
 1633TIP3   OH2 4904   1.709   4.853   4.338 -0.1506 -0.0919  0.2618
 1633TIP3    H1 4905   1.698   4.928   4.397  0.2097 -0.2787  0.5661
 1633TIP3    H2 4906   1.783   4.804   4.374 -0.8400 -0.9991  0.4875
 1634TIP3   OH2 4907   4.933   1.542   0.511 -0.0168 -0.0468 -0.4216
 1634TIP3    H1 4908   4.936   1.636   0.527  0.3359 -0.1778  0.3235
 1634TIP3    H2 4909   4.841   1.518   0.526  0.1515 -0.0357  0.7530
 1635TIP3   OH2 4910   5.812   1.411   1.292  0.2105 -0.4072  0.0528
 1635TIP3    H1 4911   5.877   1.480   1.275 -0.2252  0.0952  0.4065
 1635TIP3    H2 4912   5.738   1.433   1.236  0.6344 -1.4187 -0.9390
 1636TIP3   OH2 4913   4.098   0.627   2.924 -0.0192 -0.1646  0.3495
 1636TIP3    H1 4914   4.040   0.572   2.871 -1.2058  1.1759  0.2040
 1636TIP3    H2 4915   4.038   0.677   2.979  1.0462  0.8956  0.5662
 1637TIP3   OH2 4916   3.180   0.155   0.427 -0.2962  0.8571 -0.0587
 1637TIP3    H1 4917   3.137   0.104   0.495  1.8456 -2.0392 -0.6693
 1637TIP3    H2 4918   3.263   0.183   0.467  0.5536 -0.0647 -1.1082
 1638TIP3   OH2 4919   0.392   3.083   3.535  0.4832  0.2211  0.8271
 1638TIP3    H1 4920   0.458   3.043   3.480  0.4070 -0.4466  1.2165
 1638TIP3    H2 4921   0.442   3.130   3.603  0.5583 -0.1553  1.0319
 1639TIP3   OH2 4922   5.139   4.013   1.127  0.3103 -0.3454  0.1271
 1639TIP3    H1 4923   5.117   4.008   1.034  1.6457 -0.8945 -0.1809
 1639TIP3    H2 4924   5.201   4.087   1.133 -0.6612  0.4386  0.7778
 1640TIP3   OH2 4925   3.085   2.982   1.150 -0.0213 -0.2463  0.2135
 1640TIP3    H1 4926   3.064   2.889   1.152  2.2720 -0.8056  1.8243
 1640TIP3    H2 4927   3.066   3.013   1.239  2.2166  0.0317  0.6576
 1641TIP3   OH2 4928   1.027   2.600   4.106 -0.8698 -0.2667  0.3371
 1641TIP3    H1 4929   0.933   2.596   4.124 -0.5881 -3.8257  2.1086
 1641TIP3    H2 4930   1.066   2.617   4.192  0.1378 -0.5313 -0.0600
 1642TIP3   OH2 4931   1.271   2.773   0.389  0.1193  0.2980 -0.4299
 1642TIP3    H1 4932   1.337   2.840   0.373 -1.1677  1.6656 -0.2424
 1642TIP3    H2 4933   1.313   2.714   0.453  1.5284  0.5009 -1.1223
 1643TIP3   OH2 4934   4.130   5.533   0.943  0.2451 -1.0795 -0.1036
 1643TIP3    H1 4935   4.193   5.504   1.009  0.7080 -2.2591 -1.0225
 1643TIP3    H2 4936   4.179   5.596   0.890  0.4446 -1.4803 -0.4009
 1644TIP3   OH2 4937   3.228   2.509   4.286 -0.0920  0.4755  0.0848
 1644TIP3    H1 4938   3.317   2.527   4.255 -0.2491 -0.5197 -0.9774
 1644TIP3    H2 4939   3.182   2.592   4.275  0.6557  0.9612  0.5175
 1645TIP3   OH2 4940   1.280   1.129   2.381  0.3534 -0.0653  0.2914
 1645TIP3    H1 4941   1.272   1.102   2.290  0.9574 -0.8604  0.4664
 1645TIP3    H2 4942   1.237   1.215   2.384 -0.3674 -0.3807 -0.5666
 1646TIP3   OH2 4943   5.341   1.180   2.225 -0.2928 -0.2270  0.1116
 1646TIP3    H1 4944   5.286   1.184   2.147 -3.0987  3.3614  1.9383
 1646TIP3    H2 4945   5.420   1.228   2.201 -1.6998  2.0300 -0.3001
 1647TIP3   OH2 4946   4.196   4.442   2.668  0.4093 -0.0011  0.0991
 1647TIP3    H1 4947   4.262   4.467   2.603 -0.1167  1.1882 -0.0038
 1647TIP3    H2 4948   4.134   4.388   2.618 -0.4965  1.6644 -0.6738
 1648TIP3   OH2 4949   3.342   1.745   3.968 -0.3293 -0.4673 -0.2548
 1648TIP3    H1 4950   3.268   1.774   3.915 -1.1494  0.7759  1.4766
 1648TIP3    H2 4951   3.321   1.654   3.991 -0.8924 -0.3998 -0.4799
 1649TIP3   OH2 4952   2.045   2.368   2.619 -0.0761 -0.0663 -0.0268
 1649TIP3    H1 4953   2.059   2.427   2.693  0.3735  0.7192 -0.7146
 1649TIP3    H2 4954   2.054   2.424   2.542 -0.8397 -0.8055 -0.6738
 1650TIP3   OH2 4955   4.276   2.720   3.085  0.4528 -0.3500 -0.2797
 1650TIP3    H1 4956   4.334   2.645   3.076  1.7457  0.4921  0.7467
 1650TIP3    H2 4957   4.211   2.693   3.150  0.3624 -0.8904 -0.5899
 1651TIP3   OH2 4958   3.404   2.018   2.240 -0.1582  0.7168  0.1037
 1651TIP3    H1 4959   3.313   2.031   2.212  0.0075  2.3811  0.2425
 1651TIP3    H2 4960   3.425   2.096   2.290  1.2065  0.1207  0.5155
 1652TIP3   OH2 4961   5.609   1.944   2.238  0.5095 -0.0864  0.4008
 1652TIP3    H1 4962   5.599   1.913   2.328 -1.3968 -1.8241 -0.3361
 1652TIP3    H2 4963   5.610   1.864   2.185  0.4085  0.9397 -1.2235
 1653TIP3   OH2 4964   1.157   2.981   3.379  0.4070  1.1234  0.8610
 1653TIP3    H1 4965   1.237   2.991   3.327  0.0680  0.1026  0.1164
 1653TIP3    H2 4966   1.086   2.989   3.315  0.0046 -1.1449  0.9576
 1654TIP3   OH2 4967   4.383   4.223   4.642  0.7819 -0.5412 -1.0466
 1654TIP3    H1 4968   4.343   4.167   4.576 -3.6952  0.0313  0.8442
 1654TIP3    H2 4969   4.430   4.162   4.699 -0.3803 -1.8384 -1.4175
 1655TIP3   OH2 4970   6.297   3.412   1.640  0.0699 -0.0060  0.2177
 1655TIP3    H1 4971   6.314   3.336   1.696  0.4297  1.0644  1.6167
 1655TIP3    H2 4972   6.357   3.479   1.672 -0.5954  1.0274 -0.6539
 1656TIP3   OH2 4973   5.641   0.668   2.964 -0.1758 -0.0458 -0.6281
 1656TIP3    H1 4974   5.548   0.674   2.941 -0.3712  0.2377  0.2263
 1656TIP3    H2 4975   5.681   0.745   2.924 -0.3526 -0.0372 -0.7880
 1657TIP3   OH2 4976   5.288   5.657   0.191 -0.0830  0.1229  0.2549
 1657TIP3    H1 4977   5.271   5.750   0.178 -0.3240  0.0138 -0.2626
 1657TIP3    H2 4978   5.246   5.615   0.116 -1.3319 -0.5314  1.2757
 1658TIP3   OH2 4979   5.335   5.865   3.155 -0.6028 -0.3624  0.2322
 1658TIP3    H1 4980   5.348   5.771   3.160  0.5908 -0.2662 -0.6395
 1658TIP3    H2 4981   5.288   5.887   3.236  2.0805 -1.2416  2.1995
 1659TIP3   OH2 4982   1.628   2.210   4.983 -0.3644  0.2875 -0.0291
 1659TIP3    H1 4983   1.541   2.201   5.023 -0.5849  1.0893 -0.3264
 1659TIP3    H2 4984   1.664   2.121   4.987 -0.3786  0.3189  1.9432
 1660TIP3   OH2 4985   1.926   0.328   2.364 -0.2032  0.1956  0.9716
 1660TIP3    H1 4986   1.890   0.416   2.355 -0.2261  0.3085  2.0473
 1660TIP3    H2 4987   1.869   0.284   2.427  1.3852  0.3369  2.6129
 1661TIP3   OH2 4988   2.046   2.034   5.109  0.0817  0.1365 -0.4531
 1661TIP3    H1 4989   2.039   2.109   5.050  1.5900  0.4154 -0.3230
 1661TIP3    H2 4990   2.026   2.069   5.196 -1.0777 -0.0444 -0.6276
 1662TIP3   OH2 4991   0.327   0.213   4.664  0.3255 -0.1968  0.2172
 1662TIP3    H1 4992   0.279   0.286   4.702 -1.5626 -1.1453 -0.2467
 1662TIP3    H2 4993   0.344   0.239   4.574 -0.1743 -0.2573  0.1068
 1663TIP3   OH2 4994   0.607   5.020   2.635 -0.3846  0.0313 -0.1573
 1663TIP3    H1 4995   0.593   5.053   2.724  1.4623 -0.8905  0.5227
 1663TIP3    H2 4996   0.592   4.926   2.642  0.0836 -0.0896 -0.7395
 1664TIP3   OH2 4997   2.875   3.152   2.986  0.6086 -0.3901  0.6091
 1664TIP3    H1 4998   2.797   3.158   2.931  2.5496 -1.9986 -2.6488
 1664TIP3    H2 4999   2.881   3.059   3.009  1.9453 -0.4758  0.0484
 1665TIP3   OH2 5000   4.235   1.880   3.568 -0.1183  0.4506 -0.7047
 1665TIP3    H1 5001   4.208   1.792   3.595  0.6936  0.7246  1.1951
 1665TIP3    H2 5002   4.180   1.901   3.494 -2.2293 -0.6070  0.4832
 1666TIP3   OH2 5003   2.493   2.639   2.948  0.1262  0.0336 -0.2717
 1666TIP3    H1 5004   2.522   2.675   2.864 -0.5938  0.8758 -0.1751
 1666TIP3    H2 5005   2.546   2.685   3.013 -0.3732  0.5153 -0.1878
 1667TIP3   OH2 5006   0.478   4.172   0.006 -0.4813 -0.1810 -0.4102
 1667TIP3    H1 5007   0.405   4.119  -0.026 -1.2420  1.1402 -0.9671
 1667TIP3    H2 5008   0.436   4.248   0.047  0.5085  1.7508 -2.7091
 1668TIP3   OH2 5009   2.462   1.477   2.436  0.4989  0.4972  0.3756
 1668TIP3    H1 5010   2.488   1.477   2.528 -1.3732  2.3969  1.0021
 1668TIP3    H2 5011   2.543   1.460   2.388  1.6343  0.0478  2.3373
 1669TIP3   OH2 5012   1.547   5.231   0.719  0.0866  0.1949 -0.0799
 1669TIP3    H1 5013   1.463   5.274   0.737  1.3162  2.2047  1.3783
 1669TIP3    H2 5014   1.581   5.277   0.642  0.6118  0.6517  0.4113
 1670TIP3   OH2 5015   0.356   0.780   2.572 -0.0172 -0.1604  0.0237
 1670TIP3    H1 5016   0.264   0.772   2.546 -0.8979 -0.0267  2.7167
 1670TIP3    H2 5017   0.363   0.726   2.651  1.2155  2.7017  2.0434
 1671TIP3   OH2 5018   1.828   3.961   3.378  0.2172 -0.9095 -0.2951
 1671TIP3    H1 5019   1.743   3.993   3.408 -0.1510 -1.2111 -0.9917
 1671TIP3    H2 5020   1.829   3.978   3.284  0.8160 -1.1547 -0.3393
 1672TIP3   OH2 5021   2.372   5.928   3.752  0.2853  0.4398  0.0982
 1672TIP3    H1 5022   2.313   5.984   3.802  0.8337  1.0420  0.0846
 1672TIP3    H2 5023   2.346   5.839   3.775 -0.5321  0.6967  0.1972
 1673TIP3   OH2 5024   4.416   3.502   5.169 -0.0888  0.1933  0.4194
 1673TIP3    H1 5025   4.321   3.511   5.160 -0.0568  0.2803  0.1591
 1673TIP3    H2 5026   4.435   3.413   5.138 -0.2831 -0.4539  2.0488
 1674TIP3   OH2 5027   4.038   0.205   3.512  0.1495  0.3040 -0.1864
 1674TIP3    H1 5028   3.975   0.140   3.480 -0.4492  0.7668  0.0336
 1674TIP3    H2 5029   4.110   0.153   3.549 -0.2519 -0.2296 -0.1529
 1675TIP3   OH2 5030   0.643   4.259   3.142 -0.1782  0.2325 -0.0388
 1675TIP3    H1 5031   0.667   4.170   3.167 -1.4726  0.2296  1.3512
 1675TIP3    H2 5032   0.706   4.314   3.188  1.0356  0.0524 -1.4161
 1676TIP3   OH2 5033   5.334   3.669   4.475  0.4814  0.3269  0.5756
 1676TIP3    H1 5034   5.350   3.576   4.489  0.1334  0.2736  0.6389
 1676TIP3    H2 5035   5.328   3.678   4.379  0.3408  0.2524  0.5765
 1677TIP3   OH2 5036   3.423   0.904   4.279 -0.0681 -0.1930  0.2918
 1677TIP3    H1 5037   3.386   0.979   4.325 -0.5021 -1.1004  1.4708
 1677TIP3    H2 5038   3.511   0.932   4.252 -0.4970  0.9705  0.0511
 1678TIP3   OH2 5039   4.785   1.468   0.307  0.7901  0.3901  0.1500
 1678TIP3    H1 5040   4.868   1.482   0.352 -0.6569 -1.3137  3.8370
 1678TIP3    H2 5041   4.729   1.540   0.337  0.5727  0.8746 -1.3542
 1679TIP3   OH2 5042   2.129   3.431   1.823 -0.0180 -0.2775  0.0200
 1679TIP3    H1 5043   2.043   3.399   1.850  0.3095 -1.5869 -0.4175
 1679TIP3    H2 5044   2.112   3.517   1.785 -1.0204 -0.1885  0.6220
 1680TIP3   OH2 5045   0.509   1.124   1.968 -0.4133  0.2196  0.6973
 1680TIP3    H1 5046   0.465   1.204   1.995 -1.3432 -0.8238  2.5275
 1680TIP3    H2 5047   0.438   1.067   1.938  0.2210  0.0326 -0.4920
 1681TIP3   OH2 5048   1.700   3.102   0.385  0.4149  0.2834 -0.2405
 1681TIP3    H1 5049   1.668   3.191   0.400  0.5319  0.4960 -1.2040
 1681TIP3    H2 5050   1.742   3.105   0.299  2.7356 -0.0694  0.7879
 1682TIP3   OH2 5051   0.924   3.517   1.809 -0.4740  0.6028  0.0953
 1682TIP3    H1 5052   0.959   3.428   1.805  1.9596  1.5135 -0.5243
 1682TIP3    H2 5053   0.934   3.543   1.901  1.0829  1.0245 -0.1599
 1683TIP3   OH2 5054   3.566   4.650   0.156  0.2693  0.0740  0.0299
 1683TIP3    H1 5055   3.655   4.683   0.167  0.2640 -0.0110  0.3579
 1683TIP3    H2 5056   3.522   4.672   0.239  1.0525 -3.2240  1.4990
 1684TIP3   OH2 5057   0.091   5.213   4.884  0.9203 -0.9425  0.2788
 1684TIP3    H1 5058   0.145   5.292   4.890 -1.9018  1.1639  0.1598
 1684TIP3    H2 5059   0.034   5.217   4.961 -2.2984 -0.2861 -1.8953
 1685TIP3   OH2 5060   0.391   3.332   0.119 -0.5385  0.1239  0.0245
 1685TIP3    H1 5061   0.461   3.359   0.060 -0.1832  1.0559  0.8517
 1685TIP3    H2 5062   0.361   3.248   0.083  1.7508 -0.8857  0.2505
 1686TIP3   OH2 5063   2.696   5.133   0.990  0.1715 -0.3327 -0.3370
 1686TIP3    H1 5064   2.641   5.122   1.067  0.8738 -0.9167  0.0936
 1686TIP3    H2 5065   2.669   5.218   0.953 -0.9493 -0.5758 -0.1036
 1687TIP3   OH2 5066   0.992   1.933   5.142  0.1599 -0.0882 -0.0476
 1687TIP3    H1 5067   0.956   1.974   5.063  0.6000 -0.1158 -0.2702
 1687TIP3    H2 5068   0.935   1.962   5.213  0.7775  1.3761 -0.1132
 1688TIP3   OH2 5069   3.538   4.178   0.970  0.4187 -0.0239 -0.3288
 1688TIP3    H1 5070   3.445   4.153   0.977  0.5260 -0.3352  0.0345
 1688TIP3    H2 5071   3.570   4.174   1.060  0.4317  1.4812 -0.2327
 1689TIP3   OH2 5072   1.464   5.528   4.499 -0.2691 -0.2668 -0.5021
 1689TIP3    H1 5073   1.451   5.571   4.583  0.3009 -0.1243 -0.4825
 1689TIP3    H2 5074   1.391   5.559   4.445 -1.1131 -0.9953  0.1802
 1690TIP3   OH2 5075   4.042   1.398   3.849 -0.1310 -0.6441 -0.6966
 1690TIP3    H1 5076   4.062   1.393   3.942  0.1166 -1.0701 -0.7682
 1690TIP3    H2 5077   4.008   1.311   3.827  2.7040 -1.6528 -1.6581
 1691TIP3   OH2 5078   4.437   5.514   3.585 -0.3784 -0.0162 -0.0935
 1691TIP3    H1 5079   4.399   5.443   3.637  1.8897 -1.9975 -1.0042
 1691TIP3    H2 5080   4.508   5.548   3.640 -0.8005  0.9303 -0.0996
 1692TIP3   OH2 5081   5.508   0.224   2.046 -0.0507 -0.0147 -0.4372
 1692TIP3    H1 5082   5.463   0.148   2.009 -1.9153  0.2748  1.0487
 1692TIP3    H2 5083   5.438   0.287   2.062  0.9680  0.7222  1.4255
 1693TIP3   OH2 5084   4.943   1.680   1.633  0.0037  0.2028  0.0576
 1693TIP3    H1 5085   4.991   1.722   1.562 -0.2959 -0.0306 -0.2829
 1693TIP3    H2 5086   5.007   1.675   1.705  0.0600  1.1774  0.0889
 1694TIP3   OH2 5087   3.663   5.793   3.780 -0.1027 -0.1369 -0.3305
 1694TIP3    H1 5088   3.596   5.781   3.847 -0.0483 -0.2589 -0.2984
 1694TIP3    H2 5089   3.617   5.837   3.708  0.3083  1.9380  0.6124
 1695TIP3   OH2 5090   0.198   0.710   4.683  0.7451 -0.2107 -0.6158
 1695TIP3    H1 5091   0.179   0.766   4.758  1.1390  0.6146 -1.1087
 1695TIP3    H2 5092   0.291   0.689   4.691  0.3595 -1.7140  0.1501
 1696TIP3   OH2 5093   3.736   1.320   4.144 -0.1772  0.0766  0.1420
 1696TIP3    H1 5094   3.701   1.396   4.097  1.6193  1.8060  1.4153
 1696TIP3    H2 5095   3.825   1.345   4.166  0.3679 -2.3107  0.9322
 1697TIP3   OH2 5096   1.655   5.061   2.407  0.2028 -0.5044  0.3267
 1697TIP3    H1 5097   1.603   4.983   2.427 -2.2187  0.8276 -0.3208
 1697TIP3    H2 5098   1.679   5.097   2.493 -0.6771 -0.7210  0.6722
 1698TIP3   OH2 5099   6.210   5.803   3.474  0.0478 -0.0808  0.4116
 1698TIP3    H1 5100   6.233   5.896   3.463 -0.6213 -0.0687 -1.1591
 1698TIP3    H2 5101   6.190   5.794   3.567  3.3823  0.5609  1.3373
 1699TIP3   OH2 5102   0.362   2.306   4.911  0.3122 -0.0607 -0.0400
 1699TIP3    H1 5103   0.295   2.344   4.853  0.5547  0.7791  0.2190
 1699TIP3    H2 5104   0.325   2.313   4.999  0.1645 -0.8655 -0.0262
 1700TIP3   OH2 5105   0.631   2.519   1.741  0.4498 -0.0034 -0.1509
 1700TIP3    H1 5106   0.581   2.439   1.758 -0.2891  0.8663  2.1720
 1700TIP3    H2 5107   0.704   2.490   1.687  1.0089 -2.5854  1.7671
 1701TIP3   OH2 5108   5.451   2.454   4.925 -0.2623 -0.7062 -0.3415
 1701TIP3    H1 5109   5.419   2.399   4.853 -0.2180  0.7945 -1.5528
 1701TIP3    H2 5110   5.372   2.476   4.975 -0.2680 -1.9157  0.2412
 1702TIP3   OH2 5111   3.160   2.019   1.018  0.3143  0.4107 -0.0292
 1702TIP3    H1 5112   3.187   2.070   0.942  0.7478 -0.0894 -0.2164
 1702TIP3    H2 5113   3.187   2.072   1.093  0.4910  0.5942 -0.2223
 1703TIP3   OH2 5114   6.092   0.693   3.307  0.5130 -0.1010  0.0599
 1703TIP3    H1 5115   6.186   0.680   3.296  0.7276  1.1940  0.1261
 1703TIP3    H2 5116   6.072   0.651   3.391  0.9790 -0.6142 -0.0794
 1704TIP3   OH2 5117   0.262   1.050   0.253 -0.6849 -0.1106  0.0992
 1704TIP3    H1 5118   0.208   1.124   0.279  2.0682  2.5933 -1.1701
 1704TIP3    H2 5119   0.336   1.052   0.314 -0.4381 -1.7135 -0.0965
 1705TIP3   OH2 5120   2.023   0.767   4.338 -0.2887  0.2202  0.7497
 1705TIP3    H1 5121   2.092   0.819   4.380 -0.2776  2.1032 -1.4388
 1705TIP3    H2 5122   2.067   0.685   4.314  0.9818  1.0583  0.1175
 1706TIP3   OH2 5123   3.987   3.991   1.737 -0.8277  0.1663 -0.3230
 1706TIP3    H1 5124   3.976   3.971   1.831  2.5479  0.3431  0.2423
 1706TIP3    H2 5125   4.070   3.948   1.714  1.9455  5.3335 -1.4673
 1707TIP3   OH2 5126   5.552   1.751   0.131 -0.6907  0.2110  0.1232
 1707TIP3    H1 5127   5.574   1.691   0.202 -1.7682  0.2291  0.4857
 1707TIP3    H2 5128   5.492   1.702   0.076 -0.1369  0.3231 -0.5981
 1708TIP3   OH2 5129   4.425   2.606   4.152  0.4152  0.2166 -0.7982
 1708TIP3    H1 5130   4.476   2.593   4.232  0.4341  1.0151 -0.6717
 1708TIP3    H2 5131   4.336   2.581   4.175  0.0803  2.0145 -0.0241
 1709TIP3   OH2 5132   1.102   5.915   3.459  0.5487  0.0983 -0.7703
 1709TIP3    H1 5133   1.187   5.891   3.425  1.0256 -0.3534  0.6561
 1709TIP3    H2 5134   1.042   5.906   3.385  1.5090 -0.9272 -1.4402
 1710TIP3   OH2 5135   3.477   1.504   4.255 -0.0615 -0.4135 -0.1972
 1710TIP3    H1 5136   3.391   1.546   4.254 -1.8699 -3.7490 -1.0185
 1710TIP3    H2 5137   3.480   1.456   4.338  1.2355 -0.0173  0.0150
 1711TIP3   OH2 5138   4.523   3.769   0.116  0.2962  0.2421  0.5996
 1711TIP3    H1 5139   4.596   3.740   0.172  0.7329 -0.8416 -0.4809
 1711TIP3    H2 5140   4.563   3.828   0.053  0.2312 -0.2579  0.0817
 1712TIP3   OH2 5141   2.048   0.436   1.317  0.1018 -0.3968  0.3883
 1712TIP3    H1 5142   1.977   0.474   1.266  1.9778  0.6599 -1.6010
 1712TIP3    H2 5143   2.023   0.450   1.408 -2.1851 -0.0643 -0.2249
 1713TIP3   OH2 5144   5.346   2.479   0.177 -0.0038 -0.2394  0.1322
 1713TIP3    H1 5145   5.426   2.439   0.211  0.4827  0.7214  0.1671
 1713TIP3    H2 5146   5.373   2.525   0.098 -0.6189 -0.2850 -0.1157
 1714TIP3   OH2 5147   1.953   1.573   3.961 -0.1796 -0.3198 -0.3318
 1714TIP3    H1 5148   1.982   1.643   4.019 -0.7171 -0.6834  0.3977
 1714TIP3    H2 5149   1.905   1.618   3.891  0.9099  0.1653 -0.7926
 1715TIP3   OH2 5150   4.037   4.605   0.553 -0.1827 -0.1080  0.2441
 1715TIP3    H1 5151   3.995   4.542   0.611  0.1907 -1.0576 -0.4747
 1715TIP3    H2 5152   4.123   4.566   0.534 -0.3728  0.0775 -1.0844
 1716TIP3   OH2 5153   0.261   5.881   1.730 -0.3512  0.2086  0.4279
 1716TIP3    H1 5154   0.188   5.860   1.789 -1.7180 -0.6402 -1.4730
 1716TIP3    H2 5155   0.240   5.969   1.697 -0.7752 -0.2077 -0.4464
 1717TIP3   OH2 5156   1.997   5.953   1.745  0.0949 -0.9654 -0.4344
 1717TIP3    H1 5157   2.071   6.012   1.756 -1.3738  0.6349  1.7000
 1717TIP3    H2 5158   2.032   5.866   1.764  1.5464 -0.3364 -0.1399
 1718TIP3   OH2 5159   4.945   3.995   1.640 -0.1646 -0.6875  0.4433
 1718TIP3    H1 5160   5.011   3.965   1.577 -0.7245 -2.6480  0.7304
 1718TIP3    H2 5161   4.893   3.917   1.659 -1.1230  0.2781  1.9876
 1719TIP3   OH2 5162   1.834   2.123   3.702  0.2399 -0.1209  0.2008
 1719TIP3    H1 5163   1.768   2.074   3.653  0.7656 -0.6510  0.0113
 1719TIP3    H2 5164   1.845   2.204   3.653 -0.6389  0.2033  0.5197
 1720TIP3   OH2 5165   2.983   2.827   3.658  0.1185 -0.5783 -0.4189
 1720TIP3    H1 5166   3.002   2.903   3.602 -0.6357  0.7048  0.9873
 1720TIP3    H2 5167   3.048   2.762   3.632  1.7065  1.0301 -0.7264
 1721TIP3   OH2 5168   3.314   3.863   1.433 -0.3154 -0.2983  0.2642
 1721TIP3    H1 5169   3.317   3.919   1.355 -0.4882  1.7675  1.6664
 1721TIP3    H2 5170   3.381   3.797   1.417 -0.5821 -0.1602 -1.7726
 1722TIP3   OH2 5171   0.600   4.714   4.483  0.0198 -0.2496 -0.6303
 1722TIP3    H1 5172   0.599   4.787   4.543  2.6733 -0.6979  0.1150
 1722TIP3    H2 5173   0.551   4.744   4.407  1.3118  2.4675 -0.5038
 1723TIP3   OH2 5174   3.773   3.423   1.997 -0.1631 -0.2773  0.3637
 1723TIP3    H1 5175   3.711   3.443   1.927  0.4479 -0.2390 -0.1757
 1723TIP3    H2 5176   3.833   3.359   1.959  0.5962  0.2684  0.6169
 1724TIP3   OH2 5177   5.923   3.775   2.541 -0.3394  0.0236 -0.1889
 1724TIP3    H1 5178   5.962   3.741   2.622  2.5540 -0.3925 -1.6023
 1724TIP3    H2 5179   5.930   3.870   2.549  0.7039 -0.0353 -0.2461
 1725TIP3   OH2 5180   6.117   3.326   2.941  0.0849  0.5530  0.0539
 1725TIP3    H1 5181   6.032   3.300   2.978  0.5067 -0.8939  0.0938
 1725TIP3    H2 5182   6.136   3.410   2.981  0.0575 -0.4913  2.4330
 1726TIP3   OH2 5183   5.241   2.562   2.197  0.1437 -0.4056 -0.0580
 1726TIP3    H1 5184   5.173   2.626   2.216  1.6835  1.8006 -1.5180
 1726TIP3    H2 5185   5.255   2.569   2.102  0.5178 -2.8080 -0.2474
 1727TIP3   OH2 5186   4.138   5.823   4.131  0.0930 -0.0285 -0.4685
 1727TIP3    H1 5187   4.184   5.742   4.106  0.7263  0.2761 -0.3019
 1727TIP3    H2 5188   4.065   5.829   4.068  0.4198 -0.3926 -0.8893
 1728TIP3   OH2 5189   4.229   4.939   4.535  0.1115  0.3980 -0.3438
 1728TIP3    H1 5190   4.281   4.899   4.465 -0.8500 -0.0278 -0.8237
 1728TIP3    H2 5191   4.261   4.898   4.615 -0.5766 -1.0595 -0.7879
 1729TIP3   OH2 5192   4.839   1.853   1.886  0.0148 -0.3938 -0.6189
 1729TIP3    H1 5193   4.815   1.760   1.885 -1.2069 -0.1026 -0.0034
 1729TIP3    H2 5194   4.767   1.896   1.931  0.2398  0.9569 -1.4823
 1730TIP3   OH2 5195   5.972   3.869   1.332 -0.2389 -0.2726  0.0750
 1730TIP3    H1 5196   6.016   3.870   1.418  0.9063 -1.1945 -0.4740
 1730TIP3    H2 5197   5.903   3.804   1.341 -1.3131  0.9023  0.8197
 1731TIP3   OH2 5198   2.499   0.519   0.864  0.3887  0.5024 -0.2545
 1731TIP3    H1 5199   2.471   0.610   0.876  0.7754  0.8765 -1.9900
 1731TIP3    H2 5200   2.586   0.516   0.905 -0.2292  0.4934  1.1281
 1732TIP3   OH2 5201   2.374   3.125   1.817  0.0230 -0.4663  0.0291
 1732TIP3    H1 5202   2.464   3.151   1.799 -0.5489  0.7120 -1.3364
 1732TIP3    H2 5203   2.382   3.043   1.866  1.8180 -0.7102 -0.5939
 1733TIP3   OH2 5204   5.518   5.185   3.558  0.4648  0.2215 -0.1361
 1733TIP3    H1 5205   5.466   5.237   3.619  1.4047  2.0848 -0.8653
 1733TIP3    H2 5206   5.609   5.200   3.585  0.7624 -1.2118 -0.2552
 1734TIP3   OH2 5207   0.907   2.276   0.577  0.2070 -0.1138  0.6212
 1734TIP3    H1 5208   0.909   2.244   0.667  2.1920  0.0731  0.7015
 1734TIP3    H2 5209   0.942   2.365   0.584  0.1076 -0.0008 -0.3020
 1735TIP3   OH2 5210   1.273   3.447   4.558 -0.5213 -0.5277 -0.0597
 1735TIP3    H1 5211   1.368   3.446   4.561 -0.4590  0.5511 -0.9965
 1735TIP3    H2 5212   1.249   3.366   4.514  0.0121 -0.4257 -0.5471
 1736TIP3   OH2 5213   3.977   5.454   1.858  0.3406 -0.3119 -0.1496
 1736TIP3    H1 5214   4.051   5.395   1.844  0.7874  0.4712 -1.2270
 1736TIP3    H2 5215   3.904   5.411   1.813  0.8672  0.3256 -1.6981
 1737TIP3   OH2 5216   0.586   1.746   0.152 -0.2228  0.3689  0.3608
 1737TIP3    H1 5217   0.548   1.660   0.168  0.6300 -0.2043 -0.6032
 1737TIP3    H2 5218   0.521   1.792   0.098  0.7727 -0.9585 -2.1397
 1738TIP3   OH2 5219   4.463   4.154   2.591 -0.1296  0.0399 -0.3772
 1738TIP3    H1 5220   4.484   4.221   2.526 -0.2479  0.6013  0.1430
 1738TIP3    H2 5221   4.547   4.127   2.627 -0.1030  0.1706 -0.3411
 1739TIP3   OH2 5222   3.094   3.173   2.729 -0.5185 -0.7584  0.1568
 1739TIP3    H1 5223   3.090   3.218   2.645 -1.0347  0.3806  0.7614
 1739TIP3    H2 5224   3.060   3.085   2.711  0.3544 -0.8848 -1.0163
 1740TIP3   OH2 5225   3.501   5.531   3.927  0.0519 -0.1124 -0.0187
 1740TIP3    H1 5226   3.438   5.573   3.984 -1.5765 -1.3327 -0.8327
 1740TIP3    H2 5227   3.483   5.437   3.937  0.8398 -0.4199 -1.2660
 1741TIP3   OH2 5228   5.040   2.283   3.312  0.6383  0.9969  0.3264
 1741TIP3    H1 5229   4.962   2.238   3.281  0.8478 -0.1647  1.3995
 1741TIP3    H2 5230   5.095   2.292   3.234  1.3415 -2.2246  0.2918
 1742TIP3   OH2 5231   5.069   2.290   4.362 -0.3902  0.1584  0.4071
 1742TIP3    H1 5232   5.069   2.194   4.356 -1.2596  0.0925  1.2444
 1742TIP3    H2 5233   5.161   2.314   4.352 -0.1907 -0.7447 -0.0502
 1743TIP3   OH2 5234   0.435   3.433   1.601  0.4452 -0.5842 -0.2408
 1743TIP3    H1 5235   0.520   3.475   1.591  0.2699 -0.0087  0.6118
 1743TIP3    H2 5236   0.430   3.408   1.693  0.8257 -3.1345 -0.8586
 1744TIP3   OH2 5237   3.788   4.960   2.061 -0.4658 -0.1956 -0.2893
 1744TIP3    H1 5238   3.743   4.943   1.978 -0.0531 -0.4666 -0.4638
 1744TIP3    H2 5239   3.851   5.029   2.040 -0.4439 -0.1803 -0.1725
 1745TIP3   OH2 5240   0.242   0.890   3.320 -0.4587  0.4305 -0.4793
 1745TIP3    H1 5241   0.260   0.976   3.283  1.1808  0.3967  0.1624
 1745TIP3    H2 5242   0.238   0.904   3.414 -0.0660 -0.2118 -0.3569
 1746TIP3   OH2 5243   1.721   1.130   3.008 -0.4869  0.1390 -0.5408
 1746TIP3    H1 5244   1.628   1.115   3.028 -0.8817  0.0069 -2.3233
 1746TIP3    H2 5245   1.721   1.163   2.918  1.2249 -0.1160 -0.6581
 1747TIP3   OH2 5246   1.068   3.228   4.882  0.4759  0.5382 -0.6323
 1747TIP3    H1 5247   1.063   3.155   4.820 -0.8854  0.3492 -0.3384
 1747TIP3    H2 5248   1.161   3.245   4.892  0.9205 -1.8524  0.0607
 1748TIP3   OH2 5249   2.284   2.864   3.301  0.0662 -0.0671 -0.4998
 1748TIP3    H1 5250   2.324   2.889   3.384  0.3088  0.8031 -0.8727
 1748TIP3    H2 5251   2.218   2.931   3.284 -0.6270 -0.7417 -0.5691
 1749TIP3   OH2 5252   3.272   0.207   4.145  0.4704  0.0359  0.2541
 1749TIP3    H1 5253   3.333   0.275   4.173  1.2921 -1.0656  1.2603
 1749TIP3    H2 5254   3.292   0.194   4.052  0.2741  1.1784  0.0407
 1750TIP3   OH2 5255   5.338   0.959   2.879 -0.1501 -0.4385 -0.0304
 1750TIP3    H1 5256   5.416   1.014   2.867 -0.0029 -0.3872  1.0698
 1750TIP3    H2 5257   5.269   1.019   2.904 -0.0399 -0.7040  0.9723
 1751TIP3   OH2 5258   4.388   5.099   0.583  0.0993 -0.1029  0.0675
 1751TIP3    H1 5259   4.304   5.145   0.595  0.6919  1.5281 -1.4619
 1751TIP3    H2 5260   4.449   5.168   0.556  1.3586 -1.6046 -1.1381
 1752TIP3   OH2 5261   0.805   3.051   3.656 -0.0002  0.0251 -0.0700
 1752TIP3    H1 5262   0.767   3.059   3.743  1.6225 -1.1052  0.7868
 1752TIP3    H2 5263   0.853   3.133   3.642 -1.6268  0.9265 -0.6468
 1753TIP3   OH2 5264   1.357   3.097   3.179  0.3731  0.0693  0.2874
 1753TIP3    H1 5265   1.291   3.123   3.115 -0.5454  0.4675  1.3483
 1753TIP3    H2 5266   1.438   3.090   3.129 -0.2390  0.7182 -0.8423
 1754TIP3   OH2 5267   5.616   3.271   3.430  0.2088  0.4436  0.6593
 1754TIP3    H1 5268   5.632   3.194   3.375 -2.4922 -0.3997  0.9118
 1754TIP3    H2 5269   5.642   3.244   3.518  1.6585  0.7440  0.3472
 1755TIP3   OH2 5270   0.453   1.335   0.315 -0.2923  0.0681  0.1771
 1755TIP3    H1 5271   0.461   1.341   0.220  0.4226  2.2358  0.3139
 1755TIP3    H2 5272   0.453   1.241   0.334 -1.5018 -0.4457 -2.0143
 1756TIP3   OH2 5273   3.047   1.760   4.096 -0.9610  0.6385  0.0156
 1756TIP3    H1 5274   3.038   1.850   4.127  1.2761  0.8894  0.1436
 1756TIP3    H2 5275   3.067   1.769   4.002 -1.8364  0.2039 -0.2187
 1757TIP3   OH2 5276   0.809   4.020   2.956  0.3841  0.3245  0.1170
 1757TIP3    H1 5277   0.862   4.078   2.902 -0.6022  0.0107 -1.2528
 1757TIP3    H2 5278   0.803   3.939   2.905  0.7182 -0.5526  1.4297
 1758TIP3   OH2 5279   5.191   4.214   0.198 -0.1620  0.1637 -0.3617
 1758TIP3    H1 5280   5.232   4.257   0.122  1.8688  1.4497  1.3591
 1758TIP3    H2 5281   5.150   4.286   0.247 -1.5034 -0.6600 -0.2239
 1759TIP3   OH2 5282   0.545   4.880   2.414  0.1559  0.0841 -0.2084
 1759TIP3    H1 5283   0.573   4.835   2.494 -3.1499 -1.3007  0.3639
 1759TIP3    H2 5284   0.534   4.971   2.440  0.1569 -0.1508  0.6483
 1760TIP3   OH2 5285   5.138   5.379   1.442 -0.1671 -0.8272  0.2442
 1760TIP3    H1 5286   5.164   5.319   1.372  0.4919 -1.5578  1.0979
 1760TIP3    H2 5287   5.091   5.324   1.505  1.3109 -0.7071  1.5292
 1761TIP3   OH2 5288   4.411   5.928   4.253  0.0881 -0.0833 -0.4422
 1761TIP3    H1 5289   4.378   6.016   4.267  3.0501  0.8502  1.7075
 1761TIP3    H2 5290   4.409   5.888   4.340 -1.5417 -2.3698 -1.4228
 1762TIP3   OH2 5291   3.257   4.488   1.356  0.2510 -0.1387 -0.7229
 1762TIP3    H1 5292   3.273   4.487   1.450  0.5854 -0.4696 -0.7788
 1762TIP3    H2 5293   3.306   4.412   1.323 -0.3271 -0.3584 -1.0861
 1763TIP3   OH2 5294   0.653   1.170   0.986 -0.4170  0.0227  0.1167
 1763TIP3    H1 5295   0.673   1.218   1.067  3.0911 -0.8822 -0.0599
 1763TIP3    H2 5296   0.605   1.092   1.016  1.4013 -0.6398  1.4975
 1764TIP3   OH2 5297   2.567   2.879   0.169  0.3327  0.1511  0.2769
 1764TIP3    H1 5298   2.638   2.870   0.106  0.8634  1.5398  0.6591
 1764TIP3    H2 5299   2.608   2.866   0.255 -0.0505  0.0750  0.4532
 1765TIP3   OH2 5300   3.943   4.813   2.717 -0.5875 -0.0162 -0.0117
 1765TIP3    H1 5301   3.938   4.894   2.768  1.8804 -0.0811  0.4507
 1765TIP3    H2 5302   3.878   4.824   2.648 -1.2487  1.7742  0.8379
 1766TIP3   OH2 5303   1.810   4.950   3.801 -0.2371 -0.3324 -0.7715
 1766TIP3    H1 5304   1.817   4.925   3.893 -0.6877 -1.4992 -1.0368
 1766TIP3    H2 5305   1.883   5.010   3.787 -0.2629 -0.0144  0.3849
 1767TIP3   OH2 5306   3.124   4.510   4.014 -0.3173 -0.0216  0.3378
 1767TIP3    H1 5307   3.048   4.458   3.989 -0.2091 -0.4642  0.8940
 1767TIP3    H2 5308   3.088   4.577   4.073 -0.6854  1.4702 -1.5023
 1768TIP3   OH2 5309   3.452   4.738   3.335  0.3472  0.3625  0.6612
 1768TIP3    H1 5310   3.377   4.718   3.391  0.7688 -1.4205  0.6702
 1768TIP3    H2 5311   3.415   4.761   3.250 -0.2206 -0.0623  0.7918
 1769TIP3   OH2 5312   2.175   5.486   0.983 -0.4410 -0.1976 -0.1963
 1769TIP3    H1 5313   2.116   5.411   0.985 -0.7992  0.0970  0.3788
 1769TIP3    H2 5314   2.121   5.559   0.955 -0.6449  0.3201  1.4707
 1770TIP3   OH2 5315   5.888   2.286   3.344  0.0678 -0.0870 -0.0364
 1770TIP3    H1 5316   5.910   2.365   3.393 -0.7893  1.2367 -1.6714
 1770TIP3    H2 5317   5.916   2.214   3.400  2.6013  1.3790  0.7326
 1771TIP3   OH2 5318   0.660   4.878   0.403 -0.3080  0.6032  0.4330
 1771TIP3    H1 5319   0.702   4.964   0.395  1.0585 -0.1190 -0.8174
 1771TIP3    H2 5320   0.712   4.832   0.469  2.2858 -0.9427 -2.3927
 1772TIP3   OH2 5321   1.834   3.519   5.162  0.2847  0.4562 -0.2223
 1772TIP3    H1 5322   1.927   3.504   5.177  0.0833  1.6091  3.2886
 1772TIP3    H2 5323   1.825   3.615   5.166 -1.0719  0.3502 -0.2788
 1773TIP3   OH2 5324   5.551   5.100   0.642 -0.4726  0.2453 -0.3876
 1773TIP3    H1 5325   5.584   5.114   0.731  1.4887 -0.7748 -0.8803
 1773TIP3    H2 5326   5.575   5.009   0.622  0.2878  0.8329 -2.3997
 1774TIP3   OH2 5327   1.490   3.974   5.085 -0.1211 -0.3062  0.3980
 1774TIP3    H1 5328   1.409   3.941   5.125 -0.6081  1.4343  0.9468
 1774TIP3    H2 5329   1.528   4.030   5.153  1.7108 -1.3011  0.2439
 1775TIP3   OH2 5330   5.691   2.087   3.972 -0.4326 -0.1099 -0.2142
 1775TIP3    H1 5331   5.706   2.121   3.883 -0.7656 -0.3859 -0.3778
 1775TIP3    H2 5332   5.707   1.993   3.964  2.1169  0.1776  0.5926
 1776TIP3   OH2 5333   0.044   4.412   2.676  0.3162 -0.0463  0.1793
 1776TIP3    H1 5334  -0.021   4.352   2.640  1.1394 -2.1970  2.0067
 1776TIP3    H2 5335   0.128   4.367   2.663  1.1460  1.4382  0.2372
 1777TIP3   OH2 5336   2.158   4.342   3.961  0.4555 -0.1784  0.0160
 1777TIP3    H1 5337   2.160   4.352   4.056 -0.9414 -1.3868  0.1968
 1777TIP3    H2 5338   2.077   4.385   3.934  0.2029 -0.9399 -0.4741
 1778TIP3   OH2 5339   1.054   1.744   0.015  0.4530  0.0206  0.2780
 1778TIP3    H1 5340   1.061   1.770   0.107 -0.5392 -0.1890  0.4269
 1778TIP3    H2 5341   0.966   1.771  -0.011  0.7668  0.1899 -0.6510
 1779TIP3   OH2 5342   0.143   3.099   1.178 -0.2414 -0.2017 -0.1037
 1779TIP3    H1 5343   0.196   3.162   1.130 -0.3886 -0.8364 -1.1363
 1779TIP3    H2 5344   0.097   3.151   1.243 -0.7888  0.8494 -1.2886
 1780TIP3   OH2 5345   0.688   5.877   4.517 -0.2783 -0.3186 -0.2512
 1780TIP3    H1 5346   0.676   5.937   4.444  1.2409 -0.0936 -0.3556
 1780TIP3    H2 5347   0.670   5.791   4.480  0.6887 -0.2313 -0.9840
 1781TIP3   OH2 5348   2.798   5.425   0.042  0.8204 -0.0114 -0.2922
 1781TIP3    H1 5349   2.757   5.431   0.128 -0.5947 -1.6210 -0.7988
 1781TIP3    H2 5350   2.732   5.458  -0.019  0.5843 -1.7244 -1.0240
 1782TIP3   OH2 5351   3.923   4.515   2.155  0.0426 -0.1957 -0.3603
 1782TIP3    H1 5352   3.872   4.435   2.139  1.0747 -0.9142 -0.1918
 1782TIP3    H2 5353   3.872   4.563   2.219 -0.6134 -0.7128 -0.4775
 1783TIP3   OH2 5354   1.966   3.935   2.381  0.7824  0.0611 -0.0214
 1783TIP3    H1 5355   1.886   3.918   2.331  0.5640 -0.3408  0.4524
 1783TIP3    H2 5356   1.995   4.021   2.351  0.8251 -0.3009 -1.0529
 1784TIP3   OH2 5357   4.247   3.135   4.726 -0.2024 -0.3457  0.0488
 1784TIP3    H1 5358   4.189   3.182   4.665  0.3676 -0.5627 -0.6817
 1784TIP3    H2 5359   4.313   3.200   4.750 -1.0917  0.0997  1.3990
 1785TIP3   OH2 5360   5.098   0.639   1.247  0.0333 -0.4870  0.4788
 1785TIP3    H1 5361   5.028   0.580   1.220 -2.1005  1.3552  1.6573
 1785TIP3    H2 5362   5.099   0.633   1.342 -0.5942  1.6584  0.6736
 1786TIP3   OH2 5363   6.291   0.120   4.046  0.0522 -0.0963 -1.1252
 1786TIP3    H1 5364   6.355   0.138   4.114  1.7722 -0.0953 -2.6845
 1786TIP3    H2 5365   6.215   0.087   4.094  1.3632 -0.5663  0.7547
 1787TIP3   OH2 5366   2.698   1.163   3.221  0.4234  0.5245 -0.1466
 1787TIP3    H1 5367   2.676   1.256   3.223  1.5252  0.8040  1.0154
 1787TIP3    H2 5368   2.618   1.119   3.249  0.6026  1.3306  1.8198
 1788TIP3   OH2 5369   3.295   1.453   1.004  0.0555 -0.0478 -0.5247
 1788TIP3    H1 5370   3.242   1.530   1.023  0.3936 -0.1337  0.8457
 1788TIP3    H2 5371   3.360   1.484   0.940 -0.3691  0.5692 -0.6664
 1789TIP3   OH2 5372   4.251   1.001   2.263  0.8850 -0.1700 -0.0611
 1789TIP3    H1 5373   4.293   1.044   2.188 -0.6502  0.6421 -0.4963
 1789TIP3    H2 5374   4.165   1.042   2.270 -0.0345 -2.0556  0.5309
 1790TIP3   OH2 5375   6.023   2.071   3.493  0.1536  0.3704  0.3041
 1790TIP3    H1 5376   6.112   2.108   3.493  0.2084  0.2459  0.8907
 1790TIP3    H2 5377   6.013   2.034   3.581 -0.1524 -0.4149 -0.0601
 1791TIP3   OH2 5378   4.683   3.513   1.652  0.1564 -0.0704  0.7771
 1791TIP3    H1 5379   4.683   3.464   1.734  0.4318 -0.5223  0.5142
 1791TIP3    H2 5380   4.705   3.447   1.585 -1.6570 -0.0793  0.1336
 1792TIP3   OH2 5381   2.618   5.035   4.283 -0.0455 -0.3330 -0.1870
 1792TIP3    H1 5382   2.703   5.075   4.265 -0.0631 -0.4978 -0.6639
 1792TIP3    H2 5383   2.627   4.995   4.369  0.1298  0.2676  0.0765
 1793TIP3   OH2 5384   4.948   5.684   4.643  0.5158  0.0635  0.2909
 1793TIP3    H1 5385   4.870   5.634   4.668  0.5834 -0.2277 -0.0691
 1793TIP3    H2 5386   4.914   5.753   4.585  0.6449 -0.7435 -0.7901
 1794TIP3   OH2 5387   3.725   1.880   2.088 -0.5256 -0.4464  0.4118
 1794TIP3    H1 5388   3.750   1.857   1.999  1.1520 -0.7612  0.9273
 1794TIP3    H2 5389   3.645   1.829   2.104  0.7235 -2.6767  0.0277
 1795TIP3   OH2 5390   1.070   0.272   0.326 -0.1341 -0.1214 -0.2311
 1795TIP3    H1 5391   1.029   0.354   0.354 -0.9235 -0.8421  0.8137
 1795TIP3    H2 5392   1.047   0.210   0.395 -1.1337 -1.6800 -1.8789
 1796TIP3   OH2 5393   1.630   3.546   0.588 -0.4728 -0.1000 -0.6904
 1796TIP3    H1 5394   1.725   3.554   0.576 -0.3799  0.1740  0.1381
 1796TIP3    H2 5395   1.609   3.615   0.651 -1.5392  1.1217 -2.2962
 1797TIP3   OH2 5396   5.815   1.966   1.728 -0.0626 -0.0818  0.1306
 1797TIP3    H1 5397   5.825   1.890   1.786  0.5866 -0.2900 -0.2430
 1797TIP3    H2 5398   5.753   2.023   1.773 -0.9589 -1.0685  0.1780
 1798TIP3   OH2 5399   5.867   1.302   2.135  0.3308  0.7323 -0.9415
 1798TIP3    H1 5400   5.929   1.336   2.070  1.6059  0.4900  0.1138
 1798TIP3    H2 5401   5.856   1.375   2.196  1.2251  0.0851  0.0207
 1799TIP3   OH2 5402   0.746   0.479   4.806 -0.7308  0.7700 -0.4222
 1799TIP3    H1 5403   0.774   0.387   4.804 -1.1654  0.6434 -0.8326
 1799TIP3    H2 5404   0.803   0.523   4.743 -2.6450  0.1527 -2.7449
 1800TIP3   OH2 5405   3.736   2.266   3.405  0.5534  0.3534 -0.4118
 1800TIP3    H1 5406   3.724   2.240   3.314  0.0965  0.5632 -0.4167
 1800TIP3    H2 5407   3.651   2.249   3.447  0.8398  0.0067  0.0376
 1801TIP3   OH2 5408   2.361   6.002   0.349 -0.3938  0.4459 -0.6725
 1801TIP3    H1 5409   2.277   6.007   0.303 -1.3958  0.5533  1.0808
 1801TIP3    H2 5410   2.361   5.916   0.390 -0.0003  0.7299 -0.0501
 1802TIP3   OH2 5411   5.398   0.621   0.361  0.3770  0.1429  0.1878
 1802TIP3    H1 5412   5.420   0.537   0.400 -0.8535 -1.8830 -3.0691
 1802TIP3    H2 5413   5.362   0.672   0.433  1.9879 -1.7089  2.4758
 1803TIP3   OH2 5414   2.348   4.759   0.621 -0.0319 -0.4348  0.5357
 1803TIP3    H1 5415   2.408   4.811   0.567  0.7503 -0.0497  1.7225
 1803TIP3    H2 5416   2.369   4.668   0.601 -1.7530 -0.3894 -1.9444
 1804TIP3   OH2 5417   5.381   3.717   4.848 -0.1324  0.2153  0.3487
 1804TIP3    H1 5418   5.344   3.676   4.926  1.1750  0.7700  1.2913
 1804TIP3    H2 5419   5.458   3.765   4.879  2.1601 -1.8508 -1.6131
 1805TIP3   OH2 5420   6.255   3.258   2.094  0.5080  0.1652  0.1514
 1805TIP3    H1 5421   6.270   3.347   2.062  2.3245 -0.3169 -0.4875
 1805TIP3    H2 5422   6.340   3.232   2.130  0.9717 -2.3466 -2.4005
 1806TIP3   OH2 5423   1.568   0.103   4.443 -0.4422 -0.6330 -0.6901
 1806TIP3    H1 5424   1.518   0.171   4.488 -0.3686 -0.2211 -1.2271
 1806TIP3    H2 5425   1.624   0.065   4.511  0.9510  1.1510 -0.7823
 1807TIP3   OH2 5426   1.972   3.295   0.834  0.7862 -0.1079 -0.6893
 1807TIP3    H1 5427   1.954   3.389   0.840 -1.4149 -0.4909 -0.4646
 1807TIP3    H2 5428   1.922   3.256   0.905  2.0527 -1.4479 -0.4704
 1808TIP3   OH2 5429   3.605   4.214   4.022 -0.0724 -0.2325  0.3097
 1808TIP3    H1 5430   3.618   4.250   3.935  0.2598 -2.2511 -0.5356
 1808TIP3    H2 5431   3.513   4.233   4.043 -0.6029 -1.0438 -1.1650
 1809TIP3   OH2 5432   5.481   5.483   4.202 -0.1904 -0.3501  0.1196
 1809TIP3    H1 5433   5.512   5.441   4.282 -1.0712 -2.0066 -0.3744
 1809TIP3    H2 5434   5.486   5.415   4.135 -2.5467 -0.0111 -0.5066
 1810TIP3   OH2 5435   1.263   2.468   4.465  0.0568  0.2072 -0.6361
 1810TIP3    H1 5436   1.215   2.541   4.427  1.2515  1.7311  0.6919
 1810TIP3    H2 5437   1.351   2.502   4.481  0.6292 -1.4995  0.0717
 1811TIP3   OH2 5438   1.174   5.133   4.372  0.4966 -0.2888  0.0162
 1811TIP3    H1 5439   1.265   5.158   4.388  1.1300 -0.5381 -2.6978
 1811TIP3    H2 5440   1.172   5.039   4.389  1.5933 -0.9013 -2.6886
 1812TIP3   OH2 5441   3.936   2.489   0.889  0.2388 -0.3604  0.4573
 1812TIP3    H1 5442   3.928   2.524   0.800  1.4783  1.0321  0.8460
 1812TIP3    H2 5443   3.847   2.463   0.913 -0.4800  1.1291 -0.4581
 1813TIP3   OH2 5444   4.537   0.699   2.421  0.2878 -0.1594 -0.1643
 1813TIP3    H1 5445   4.603   0.768   2.418  1.0426 -0.8242  0.6220
 1813TIP3    H2 5446   4.582   0.621   2.389 -0.3415 -0.4564 -0.3426
 1814TIP3   OH2 5447   3.189   0.931   0.965  0.3581  0.0663  0.0848
 1814TIP3    H1 5448   3.177   0.921   1.059 -0.6007 -1.6083 -0.1603
 1814TIP3    H2 5449   3.111   0.978   0.935 -0.5150 -1.4063 -0.1128
 1815TIP3   OH2 5450   5.949   4.364   0.541 -0.0376  0.8581  0.5178
 1815TIP3    H1 5451   6.040   4.369   0.511  0.1332  0.6437  0.9942
 1815TIP3    H2 5452   5.908   4.301   0.481  0.6784 -0.7255  1.6074
 1816TIP3   OH2 5453   4.049   2.074   0.818  0.0431  0.5249  0.1222
 1816TIP3    H1 5454   4.117   2.074   0.751 -0.4602 -1.1369 -0.4448
 1816TIP3    H2 5455   4.076   2.004   0.878 -1.8519 -1.2127 -0.9173
 1817TIP3   OH2 5456   0.421   2.925   5.138 -0.2441  0.2833 -0.3881
 1817TIP3    H1 5457   0.510   2.939   5.106  0.4182 -0.4087  1.0477
 1817TIP3    H2 5458   0.412   2.830   5.144 -0.7140  0.3638  0.4276
 1818TIP3   OH2 5459   5.701   2.560   3.681 -0.0263  0.5177 -0.0480
 1818TIP3    H1 5460   5.619   2.512   3.693  0.7809 -1.7425 -2.6468
 1818TIP3    H2 5461   5.692   2.637   3.738 -2.5382 -1.2863  2.2504
 1819TIP3   OH2 5462   1.741   4.331   3.234  0.7283  0.1936  0.0078
 1819TIP3    H1 5463   1.669   4.276   3.264  1.9087 -1.6296 -0.3148
 1819TIP3    H2 5464   1.817   4.300   3.283  2.0646 -0.6735 -2.4344
 1820TIP3   OH2 5465   2.657   0.548   3.395 -0.0575 -0.1715  0.2567
 1820TIP3    H1 5466   2.691   0.629   3.356  0.1467  0.0154  0.8112
 1820TIP3    H2 5467   2.617   0.576   3.478 -1.6027 -0.3885 -0.3949
 1821TIP3   OH2 5468   3.930   0.947   0.466 -0.0230  0.3449 -0.5119
 1821TIP3    H1 5469   3.919   0.948   0.561 -1.6361 -2.1939 -0.5870
 1821TIP3    H2 5470   3.842   0.930   0.431  0.9474 -1.4357 -2.2980
 1822TIP3   OH2 5471   4.791   2.707   3.894  0.1179  0.1373 -0.5471
 1822TIP3    H1 5472   4.697   2.704   3.912  0.5238 -1.1634  1.7589
 1822TIP3    H2 5473   4.813   2.800   3.893 -0.8274  0.4245  1.2780
 1823TIP3   OH2 5474   2.301   4.476   4.654 -0.1340  0.5343  0.5718
 1823TIP3    H1 5475   2.210   4.505   4.646  0.1784  1.1871 -0.9858
 1823TIP3    H2 5476   2.349   4.530   4.591  1.4030  0.4522  1.6107
 1824TIP3   OH2 5477   0.773   2.294   2.207 -0.4742  0.2711 -0.3084
 1824TIP3    H1 5478   0.801   2.300   2.116 -1.3654 -2.2451 -0.8348
 1824TIP3    H2 5479   0.854   2.278   2.256  0.0833  2.1890 -0.5305
 1825TIP3   OH2 5480   0.835   2.457   3.421  0.1486 -0.2044  0.0844
 1825TIP3    H1 5481   0.851   2.533   3.477  0.9392 -0.0550 -0.3219
 1825TIP3    H2 5482   0.743   2.435   3.436 -0.8175  2.2787 -1.5437
 1826TIP3   OH2 5483   0.861   4.526   5.061 -0.0571 -0.2977 -0.5035
 1826TIP3    H1 5484   0.936   4.585   5.048 -0.6397  0.7932  0.8416
 1826TIP3    H2 5485   0.842   4.493   4.974 -0.1055  2.0045 -1.4458
 1827TIP3   OH2 5486   6.273   5.278   4.393 -0.0926  0.8438 -0.7207
 1827TIP3    H1 5487   6.309   5.240   4.473  1.1108  1.2796 -1.0413
 1827TIP3    H2 5488   6.204   5.217   4.367  0.8207 -0.3472 -0.4267
 1828TIP3   OH2 5489   0.998   5.209   3.679 -0.0622 -0.2004 -0.1337
 1828TIP3    H1 5490   0.925   5.158   3.715 -0.2487 -0.3211 -0.6765
 1828TIP3    H2 5491   0.965   5.299   3.677  0.1238 -0.1138  0.4472
 1829TIP3   OH2 5492   1.170   0.974   0.589 -0.4918  0.4583  0.3164
 1829TIP3    H1 5493   1.189   1.044   0.526  0.5095  0.0008  0.0909
 1829TIP3    H2 5494   1.130   0.904   0.536 -0.7217  0.5253  0.3984
 1830TIP3   OH2 5495   2.431   4.513   0.562 -0.0858 -0.5430  0.4293
 1830TIP3    H1 5496   2.488   4.437   0.573 -0.2150 -0.6853  0.1103
 1830TIP3    H2 5497   2.367   4.487   0.496  1.7774  0.9170 -2.1092
 1831TIP3   OH2 5498   4.269   4.672   0.296 -0.7025  0.1219 -0.0351
 1831TIP3    H1 5499   4.283   4.640   0.385 -2.3590 -1.8897 -0.4426
 1831TIP3    H2 5500   4.278   4.595   0.240  2.1294  1.6099 -1.9293
 1832TIP3   OH2 5501   1.645   0.289   0.604  0.2023  0.5461 -0.2745
 1832TIP3    H1 5502   1.636   0.292   0.508  0.5365  2.5462 -0.3041
 1832TIP3    H2 5503   1.556   0.274   0.636  0.1036 -0.2504 -0.8884
 1833TIP3   OH2 5504   1.865   2.884   5.124  0.0163 -0.1381  0.6153
 1833TIP3    H1 5505   1.840   2.925   5.042  2.7140  1.5634  0.5057
 1833TIP3    H2 5506   1.791   2.899   5.183 -0.8216  1.1035 -0.7086
 1834TIP3   OH2 5507   2.989   1.850   1.853 -0.4934  0.5640 -0.2493
 1834TIP3    H1 5508   2.910   1.904   1.846  0.2001  1.8135  1.0390
 1834TIP3    H2 5509   2.962   1.774   1.905 -0.3705  2.1463  2.3114
 1835TIP3   OH2 5510   4.144   1.698   4.236 -0.4223 -0.2853  0.3168
 1835TIP3    H1 5511   4.218   1.645   4.207 -0.4084 -1.6194  2.6033
 1835TIP3    H2 5512   4.101   1.725   4.155  2.0915 -0.1053 -1.0435
 1836TIP3   OH2 5513   4.891   4.250   0.998 -0.3194  0.1993  0.6521
 1836TIP3    H1 5514   4.943   4.279   1.073 -0.4076 -0.2248  0.8806
 1836TIP3    H2 5515   4.900   4.320   0.934  0.5820  0.1035  0.6628
 1837TIP3   OH2 5516   4.382   2.074   2.498 -0.1135  0.0446 -0.3521
 1837TIP3    H1 5517   4.408   2.015   2.427  0.0513 -0.1536 -0.1282
 1837TIP3    H2 5518   4.287   2.080   2.492 -0.0083  1.2095 -1.5366
 1838TIP3   OH2 5519   0.654   5.492   3.850 -0.6191 -0.0639 -0.3449
 1838TIP3    H1 5520   0.663   5.398   3.834  0.1028 -0.3894  1.6730
 1838TIP3    H2 5521   0.666   5.532   3.764 -0.0087 -1.7578 -1.0923
 1839TIP3   OH2 5522   4.514   2.081   0.634 -0.2165  0.7571  0.4934
 1839TIP3    H1 5523   4.542   2.128   0.712 -1.3360  0.7038  0.9356
 1839TIP3    H2 5524   4.418   2.086   0.635 -0.2596  1.7621 -1.4757
 1840TIP3   OH2 5525   3.824   5.072   0.504 -0.8384 -0.1648  0.2138
 1840TIP3    H1 5526   3.846   5.165   0.496  0.5434 -0.4141  0.7834
 1840TIP3    H2 5527   3.827   5.038   0.414 -2.0402  0.4593 -0.0859
 1841TIP3   OH2 5528   0.252   1.601   0.487  0.1718 -0.4421  0.0242
 1841TIP3    H1 5529   0.179   1.596   0.548  0.5425 -0.7379  0.4516
 1841TIP3    H2 5530   0.237   1.682   0.439 -0.0240 -0.0915  0.6539
 1842TIP3   OH2 5531   3.449   0.371   1.619  0.2387  0.3684  0.2165
 1842TIP3    H1 5532   3.361   0.384   1.652  0.9245  0.7728  1.9632
 1842TIP3    H2 5533   3.442   0.386   1.524 -1.8672 -1.2573  0.0427
 1843TIP3   OH2 5534   3.590   0.817   1.692 -0.3514 -0.2694  0.5818
 1843TIP3    H1 5535   3.508   0.793   1.734 -0.7325 -0.7463 -0.3877
 1843TIP3    H2 5536   3.579   0.909   1.667 -0.5956 -0.3377  0.4399
 1844TIP3   OH2 5537   1.072   2.029   2.328  0.1509  0.4639 -0.0468
 1844TIP3    H1 5538   1.125   2.107   2.313  0.4253  0.7648  2.1467
 1844TIP3    H2 5539   1.128   1.956   2.301  0.9773  0.8880  0.4883
 1845TIP3   OH2 5540   0.532   0.905   3.781 -0.2004  0.2161  0.2712
 1845TIP3    H1 5541   0.445   0.875   3.756  0.5981 -0.1216 -2.4675
 1845TIP3    H2 5542   0.590   0.833   3.756  1.1477  1.6447 -0.9077
 1846TIP3   OH2 5543   0.389   2.038   2.888  0.4550 -0.2247  0.3403
 1846TIP3    H1 5544   0.370   2.127   2.859 -2.6452 -0.6351  0.8022
 1846TIP3    H2 5545   0.471   2.016   2.844  0.9460  2.5862 -0.3398
 1847TIP3   OH2 5546   4.253   3.696   4.937 -0.0933 -0.4767  0.3673
 1847TIP3    H1 5547   4.183   3.736   4.988 -0.1425  0.7110 -0.5708
 1847TIP3    H2 5548   4.306   3.771   4.908 -0.1727 -1.0733 -1.4324
 1848TIP3   OH2 5549   5.652   5.393   4.374 -0.2485  0.3817 -0.4159
 1848TIP3    H1 5550   5.647   5.453   4.448  0.7275  1.4141 -1.1497
 1848TIP3    H2 5551   5.727   5.336   4.393  0.6409  1.3074 -1.0503
 1849TIP3   OH2 5552   1.290   4.347   3.000 -0.1461 -0.7033 -0.0271
 1849TIP3    H1 5553   1.384   4.328   2.994  0.0954  0.5711 -0.7239
 1849TIP3    H2 5554   1.248   4.276   2.952  0.4977 -1.0084 -0.1557
 1850TIP3   OH2 5555   2.724   1.931   4.761  0.0916 -0.2470  0.9928
 1850TIP3    H1 5556   2.673   1.851   4.773  1.0138 -0.5542  3.5359
 1850TIP3    H2 5557   2.664   1.991   4.716 -1.9422 -1.1322  2.3733
 1851TIP3   OH2 5558   2.011   0.980   4.735  0.4743  0.7586  0.1247
 1851TIP3    H1 5559   1.918   0.985   4.757  0.4230  0.6354 -0.0679
 1851TIP3    H2 5560   2.052   0.945   4.814  0.1789 -0.4893 -0.2606
 1852TIP3   OH2 5561   0.985   3.876   2.053 -0.0826  0.4121  0.3129
 1852TIP3    H1 5562   0.992   3.905   1.962  0.4162  2.1287  0.8667
 1852TIP3    H2 5563   0.931   3.943   2.095 -0.6771 -0.5918  1.1963
 1853TIP3   OH2 5564   0.064   1.212   1.731 -0.2563 -0.0020  0.1578
 1853TIP3    H1 5565  -0.004   1.155   1.694 -0.0926 -0.0944 -0.0008
 1853TIP3    H2 5566   0.064   1.289   1.675  0.3641 -0.3746 -0.3669
 1854TIP3   OH2 5567   3.802   3.176   2.468 -0.2959  1.0645  0.0560
 1854TIP3    H1 5568   3.833   3.151   2.555  1.8005  0.7831 -0.7118
 1854TIP3    H2 5569   3.870   3.234   2.433 -1.7432  2.2697 -0.9003
 1855TIP3   OH2 5570   5.051   2.565   3.068  0.5650  0.9069 -0.1469
 1855TIP3    H1 5571   5.089   2.478   3.055  2.1862  1.4497  0.7460
 1855TIP3    H2 5572   4.983   2.571   3.001 -1.6431 -2.1631  1.5329
 1856TIP3   OH2 5573   2.956   5.679   3.120 -0.7329 -0.5258  0.0564
 1856TIP3    H1 5574   2.926   5.770   3.124  0.5304 -0.0601 -0.6565
 1856TIP3    H2 5575   2.933   5.643   3.206 -0.8361  0.6020  0.5237
 1857TIP3   OH2 5576   3.153   3.459   3.410 -0.0240  0.1496  0.6388
 1857TIP3    H1 5577   3.077   3.507   3.443  0.4109  0.9896  0.4499
 1857TIP3    H2 5578   3.170   3.497   3.324  1.1392  0.5965  1.0382
 1858TIP3   OH2 5579   2.994   0.468   5.152 -0.0704  0.1216 -0.0178
 1858TIP3    H1 5580   2.915   0.414   5.148  1.0189 -1.4570 -1.8725
 1858TIP3    H2 5581   3.034   0.459   5.066  1.2634  2.2945  0.2796
 1859TIP3   OH2 5582   3.740   0.385   1.699 -0.0955 -0.1993  0.0198
 1859TIP3    H1 5583   3.651   0.350   1.695  0.0542 -0.5381 -0.4168
 1859TIP3    H2 5584   3.765   0.377   1.791 -0.9865  1.0985  0.3970
 1860TIP3   OH2 5585   3.206   2.691   1.157 -0.6841 -0.6529  0.4896
 1860TIP3    H1 5586   3.219   2.758   1.225 -1.8676  1.4080 -1.1743
 1860TIP3    H2 5587   3.111   2.685   1.147 -0.5393 -1.2907 -0.6164
 1861TIP3   OH2 5588   3.184   5.355   4.979  0.1933 -0.0597  0.5748
 1861TIP3    H1 5589   3.209   5.447   4.984 -0.2128  0.1825 -1.3943
 1861TIP3    H2 5590   3.234   5.313   5.050  0.0810  1.7101  1.7587
 1862TIP3   OH2 5591   4.243   4.996   3.568 -0.0620  0.1982  0.0333
 1862TIP3    H1 5592   4.294   5.065   3.526 -0.7998  0.0768 -1.1116
 1862TIP3    H2 5593   4.241   5.021   3.660 -0.7893  2.0280 -0.4308
 1863TIP3   OH2 5594   2.673   3.747   4.662  0.0516 -0.2828  0.0959
 1863TIP3    H1 5595   2.625   3.830   4.667  0.1176 -0.0283 -2.3634
 1863TIP3    H2 5596   2.753   3.768   4.614  0.4260 -1.6356  0.0806
 1864TIP3   OH2 5597   2.712   2.903   2.008 -0.6295 -0.2601  0.0393
 1864TIP3    H1 5598   2.686   2.841   1.939  0.7193  0.6040 -1.3136
 1864TIP3    H2 5599   2.762   2.850   2.070 -0.3355 -0.7317 -0.5890
 1865TIP3   OH2 5600   6.228   0.436   0.292 -0.1861  0.2786  0.0023
 1865TIP3    H1 5601   6.213   0.343   0.275 -1.0967  0.5119 -0.5500
 1865TIP3    H2 5602   6.312   0.455   0.250 -1.0941  0.2077 -1.9666
 1866TIP3   OH2 5603   3.799   4.712   4.107  0.0033 -0.4156  0.3023
 1866TIP3    H1 5604   3.893   4.725   4.108 -0.1251  0.6170  0.5128
 1866TIP3    H2 5605   3.784   4.641   4.169  0.6820 -0.9244 -0.1131
 1867TIP3   OH2 5606   1.013   0.703   2.857 -0.2485  0.1222  0.0341
 1867TIP3    H1 5607   1.097   0.744   2.836  1.4479 -2.6178  1.0030
 1867TIP3    H2 5608   1.004   0.716   2.951 -1.6449  1.5340 -0.2501
 1868TIP3   OH2 5609   1.921   5.746   3.990 -0.0328 -0.2295  0.4254
 1868TIP3    H1 5610   1.933   5.662   4.034  0.6320  0.5722  1.8375
 1868TIP3    H2 5611   1.838   5.737   3.944 -0.2387 -1.4743  0.9941
 1869TIP3   OH2 5612   4.196   5.879   3.350 -0.2454 -0.3382  0.5210
 1869TIP3    H1 5613   4.107   5.894   3.319  0.3377  2.4844 -0.1396
 1869TIP3    H2 5614   4.190   5.887   3.446 -0.6903 -0.0974  0.4755
 1870TIP3   OH2 5615   5.859   0.967   3.892  0.2298  0.0948 -0.0484
 1870TIP3    H1 5616   5.803   1.044   3.884 -0.8970 -0.6502  0.4028
 1870TIP3    H2 5617   5.935   0.987   3.837  0.0599  1.5995  0.2207
 1871TIP3   OH2 5618   1.940   4.719   3.023  0.1164  0.1686  0.5505
 1871TIP3    H1 5619   1.877   4.752   3.086  0.2236 -0.3609  0.9369
 1871TIP3    H2 5620   1.951   4.627   3.045  2.3371  0.6229  1.6218
 1872TIP3   OH2 5621   1.333   1.216   4.458 -0.9875  0.0313  0.5860
 1872TIP3    H1 5622   1.384   1.135   4.451  0.6205  1.0624 -0.1535
 1872TIP3    H2 5623   1.294   1.213   4.545 -1.5458 -1.8450  0.3228
 1873TIP3   OH2 5624   4.201   5.273   1.863 -0.4113  0.0525 -0.1975
 1873TIP3    H1 5625   4.296   5.286   1.864 -0.6042  1.5908  0.3248
 1873TIP3    H2 5626   4.188   5.195   1.808  1.1273 -0.0689 -0.4272
 1874TIP3   OH2 5627   4.825   1.838   3.020  0.0382  0.5998  0.3184
 1874TIP3    H1 5628   4.837   1.785   2.941  0.5518  0.0140  0.7730
 1874TIP3    H2 5629   4.810   1.773   3.089 -1.2578  1.1388  0.5623
 1875TIP3   OH2 5630   1.230   4.473   3.659  0.5492 -0.4804 -0.5584
 1875TIP3    H1 5631   1.244   4.456   3.566 -1.6668  2.1723 -1.5075
 1875TIP3    H2 5632   1.135   4.473   3.670  0.7469 -0.5863  1.7104
 1876TIP3   OH2 5633   0.284   2.277   0.542 -0.1679 -0.1711 -0.0145
 1876TIP3    H1 5634   0.195   2.293   0.509 -0.9449 -2.2834  0.8832
 1876TIP3    H2 5635   0.276   2.283   0.637  0.1756 -2.1797  0.1981
 1877TIP3   OH2 5636   4.298   1.571   0.995  1.1200 -0.4133  0.0162
 1877TIP3    H1 5637   4.394   1.568   1.005  1.0889  0.2090  0.5670
 1877TIP3    H2 5638   4.282   1.530   0.910  1.7871 -1.5161  0.4004
 1878TIP3   OH2 5639   1.725   4.984   0.958 -0.2297 -0.3527 -0.3337
 1878TIP3    H1 5640   1.683   4.958   1.040  0.8695  1.0030  0.7026
 1878TIP3    H2 5641   1.657   4.973   0.892 -1.4400 -0.5569  0.9058
 1879TIP3   OH2 5642   2.826   5.521   4.701  0.0957 -0.2409  0.2431
 1879TIP3    H1 5643   2.855   5.612   4.694  2.0718 -0.7979  0.4812
 1879TIP3    H2 5644   2.867   5.478   4.626 -1.9257 -0.7169 -0.6483
 1880TIP3   OH2 5645   2.992   5.431   0.944  0.0439  0.4145  0.1736
 1880TIP3    H1 5646   2.923   5.383   0.990  1.3429 -1.3701  0.3916
 1880TIP3    H2 5647   2.950   5.512   0.915 -1.4639  0.5534  2.4444
 1881TIP3   OH2 5648   2.962   5.715   3.938 -0.1575 -0.5388  0.1980
 1881TIP3    H1 5649   3.018   5.753   4.006 -0.7584 -0.3609  0.5994
 1881TIP3    H2 5650   2.962   5.780   3.868 -0.2758 -0.3042  0.4146
 1882TIP3   OH2 5651   4.476   1.888   0.876  0.3985  0.0461 -0.3617
 1882TIP3    H1 5652   4.480   1.925   0.964  0.8624  1.0581 -0.7900
 1882TIP3    H2 5653   4.383   1.880   0.857  0.1537  3.0546 -1.0354
 1883TIP3   OH2 5654   2.532   1.647   4.516  0.2316  0.3751  0.6744
 1883TIP3    H1 5655   2.612   1.633   4.566  0.4210  1.0020  0.5494
 1883TIP3    H2 5656   2.559   1.698   4.440 -0.4246  1.2778  1.0347
 1884TIP3   OH2 5657   1.028   2.911   4.948  0.6273 -0.5959 -0.2532
 1884TIP3    H1 5658   1.108   2.873   4.985  0.6861 -0.4251 -0.2031
 1884TIP3    H2 5659   1.056   2.953   4.867  0.4469 -1.2192 -0.6475
 1885TIP3   OH2 5660   4.515   4.434   0.751 -0.4833  0.8128 -0.0130
 1885TIP3    H1 5661   4.552   4.356   0.792  3.0703  2.1347 -0.3611
 1885TIP3    H2 5662   4.517   4.501   0.819 -1.3024  1.2444 -0.3839
 1886TIP3   OH2 5663   5.684   2.189   2.506 -0.4726  0.0335 -0.1263
 1886TIP3    H1 5664   5.660   2.279   2.486 -0.6268 -0.2197 -1.1173
 1886TIP3    H2 5665   5.690   2.145   2.421 -0.4681 -0.9125  0.3414
 1887TIP3   OH2 5666   3.649   3.300   4.467 -0.5042 -0.1582  0.1106
 1887TIP3    H1 5667   3.631   3.393   4.454 -0.6851 -0.2499 -0.3056
 1887TIP3    H2 5668   3.607   3.280   4.551 -1.1339 -0.0435 -0.1728
 1888TIP3   OH2 5669   0.169   1.280   3.854  0.1721  0.6705 -0.2784
 1888TIP3    H1 5670   0.230   1.284   3.780 -0.4523  0.3136 -0.8289
 1888TIP3    H2 5671   0.224   1.265   3.930  0.7516  0.1101 -0.7987
 1889TIP3   OH2 5672   2.569   5.126   3.694  0.2555 -0.1609  0.7035
 1889TIP3    H1 5673   2.625   5.191   3.735  0.0246  0.6077 -0.1758
 1889TIP3    H2 5674   2.579   5.048   3.748  2.8235 -0.3215  0.1248
 1890TIP3   OH2 5675   5.672   2.995   0.523 -0.0543 -0.2936  0.5953
 1890TIP3    H1 5676   5.668   2.983   0.618  1.2295 -0.4767  0.6446
 1890TIP3    H2 5677   5.705   3.083   0.511  2.4712 -1.1871  0.3899
 1891TIP3   OH2 5678   3.877   0.134   4.493  0.1974  0.5124 -0.3239
 1891TIP3    H1 5679   3.917   0.197   4.432  2.6097 -0.7078 -0.1572
 1891TIP3    H2 5680   3.873   0.181   4.576  0.3795  0.9983 -0.5829
 1892TIP3   OH2 5681   5.140   3.005   5.015 -0.4285 -0.0937 -0.3477
 1892TIP3    H1 5682   5.152   3.017   4.921 -1.4683 -0.3062 -0.5164
 1892TIP3    H2 5683   5.196   3.071   5.055 -0.9010  0.7970 -1.1389
 1893TIP3   OH2 5684   5.106   3.143   0.566 -0.0898  0.7399  0.1325
 1893TIP3    H1 5685   5.158   3.148   0.486  0.8563  0.5021  0.7100
 1893TIP3    H2 5686   5.150   3.202   0.627 -1.4251  1.7584  0.1641
 1894TIP3   OH2 5687   2.301   1.686   2.803 -0.5916 -0.3790  0.6169
 1894TIP3    H1 5688   2.367   1.633   2.760  0.2628  0.8176  0.3911
 1894TIP3    H2 5689   2.241   1.711   2.733 -0.0569  0.3073  0.3916
 1895TIP3   OH2 5690   3.754   5.265   1.452  0.2353 -0.4179 -0.1988
 1895TIP3    H1 5691   3.758   5.353   1.489 -1.0940 -1.2098  2.0463
 1895TIP3    H2 5692   3.730   5.279   1.361  1.3058  1.5622 -0.2473
 1896TIP3   OH2 5693   1.180   4.111   4.382  0.0618 -0.0277  0.4875
 1896TIP3    H1 5694   1.268   4.108   4.420 -0.0710  0.6537  0.8758
 1896TIP3    H2 5695   1.179   4.194   4.333 -0.4261  0.0653  0.6523
 1897TIP3   OH2 5696   3.007   2.863   2.011 -0.6037 -0.2835  0.5917
 1897TIP3    H1 5697   3.071   2.802   1.972  1.5003 -0.0752  3.3989
 1897TIP3    H2 5698   2.947   2.806   2.060 -0.0833 -0.2754  1.2551
 1898TIP3   OH2 5699   0.190   3.126   3.888 -0.0402  0.2090 -0.5354
 1898TIP3    H1 5700   0.271   3.176   3.879  0.2426 -0.3234 -0.9509
 1898TIP3    H2 5701   0.175   3.122   3.982  0.8504 -0.3831 -0.4132
 1899TIP3   OH2 5702   4.737  -0.016   3.224  0.0535  0.4024  0.0744
 1899TIP3    H1 5703   4.645   0.007   3.211 -0.5752 -1.0020  1.6095
 1899TIP3    H2 5704   4.785   0.062   3.198 -1.6562  1.7309  0.6736
 1900TIP3   OH2 5705   6.285   3.382   1.137  0.4890 -0.2549 -0.1399
 1900TIP3    H1 5706   6.284   3.462   1.191 -1.2956  1.2337 -2.1914
 1900TIP3    H2 5707   6.377   3.370   1.113  0.6875  1.8453 -0.6253
 1901TIP3   OH2 5708   2.983   2.981   2.263  0.0595 -0.1906  0.1747
 1901TIP3    H1 5709   2.960   2.974   2.171  0.4084  0.4903  0.0255
 1901TIP3    H2 5710   2.954   3.069   2.288  0.5346 -0.1308  0.5382
 1902TIP3   OH2 5711   3.789   1.030   4.830 -0.0525  0.2723  0.1150
 1902TIP3    H1 5712   3.854   1.013   4.898 -1.8019 -0.1818  1.7372
 1902TIP3    H2 5713   3.794   0.952   4.773  1.5145  0.7207 -0.4251
 1903TIP3   OH2 5714   4.504   3.206   0.022 -0.1135  0.2653  0.1064
 1903TIP3    H1 5715   4.498   3.243  -0.067  2.1731  0.8038  0.1148
 1903TIP3    H2 5716   4.472   3.276   0.079  1.1635  1.0551 -0.1144
 1904TIP3   OH2 5717   2.807   1.503   3.928  0.2030 -0.0281  0.1902
 1904TIP3    H1 5718   2.782   1.444   3.857  2.4429  0.5457 -1.1878
 1904TIP3    H2 5719   2.742   1.488   3.996 -3.4543  1.0206 -2.7737
 1905TIP3   OH2 5720   4.708   2.256   5.112 -0.7654  0.0298 -0.7658
 1905TIP3    H1 5721   4.758   2.268   5.193  1.8715  1.2005 -2.4453
 1905TIP3    H2 5722   4.633   2.315   5.121 -1.1609 -0.7077  1.2433
 1906TIP3   OH2 5723   3.594   5.482   3.644  0.1531  0.4743  0.1769
 1906TIP3    H1 5724   3.671   5.432   3.616 -0.4549 -0.1112 -0.4715
 1906TIP3    H2 5725   3.590   5.467   3.739  1.5543  1.5330  0.4314
 1907TIP3   OH2 5726   3.185   1.256   5.142 -0.4602  0.1775  0.3590
 1907TIP3    H1 5727   3.275   1.238   5.170  0.3013  0.1702 -1.9069
 1907TIP3    H2 5728   3.188   1.344   5.105 -1.4280  0.2214  0.3499
 1908TIP3   OH2 5729   5.749   1.278   3.573  0.2084  0.0348 -0.3936
 1908TIP3    H1 5730   5.771   1.258   3.482  1.0923  0.5295 -0.3029
 1908TIP3    H2 5731   5.834   1.286   3.617 -0.1609 -2.7671  1.0830
 1909TIP3   OH2 5732   5.800   3.251   2.944 -0.6335 -0.1690  0.3587
 1909TIP3    H1 5733   5.807   3.155   2.943 -0.0352 -0.1308  0.6312
 1909TIP3    H2 5734   5.708   3.268   2.921 -0.3879 -0.7609 -1.1990
 1910TIP3   OH2 5735   5.767   2.911   1.150  0.4147  0.0814  0.6079
 1910TIP3    H1 5736   5.763   2.962   1.231  0.3243 -0.0702  0.6990
 1910TIP3    H2 5737   5.836   2.953   1.098 -0.1634  0.7497  0.3704
 1911TIP3   OH2 5738   5.909   0.116   1.934 -0.0568 -0.7606  0.1106
 1911TIP3    H1 5739   5.842   0.048   1.927 -0.7564  0.0202 -1.2010
 1911TIP3    H2 5740   5.968   0.100   1.861  0.6250 -0.8175  0.6578
 1912TIP3   OH2 5741   6.009   5.565   3.557 -0.5911 -0.0167 -0.3435
 1912TIP3    H1 5742   6.047   5.618   3.627 -0.5499  0.0602 -0.4239
 1912TIP3    H2 5743   6.004   5.477   3.593  0.4857 -0.2069 -0.6436
 1913TIP3   OH2 5744   5.163   5.356   4.112  0.6085  0.1558  0.1495
 1913TIP3    H1 5745   5.207   5.275   4.139  0.2530  0.1784  0.8212
 1913TIP3    H2 5746   5.096   5.370   4.179  0.4811  0.8566 -0.1186
 1914TIP3   OH2 5747   1.353   2.164   5.030  0.2607  0.3337  0.4426
 1914TIP3    H1 5748   1.282   2.154   4.966  1.2613  1.8297 -1.0100
 1914TIP3    H2 5749   1.310   2.199   5.108 -0.6711  1.0150 -0.3446
 1915TIP3   OH2 5750   4.496   1.891   0.162 -0.0725  0.3163 -0.2044
 1915TIP3    H1 5751   4.541   1.817   0.120  0.4447  0.5281 -0.0312
 1915TIP3    H2 5752   4.555   1.917   0.233 -0.2199  0.9345 -0.3091
 1916TIP3   OH2 5753   2.933   4.249   4.950 -0.0073  0.1704 -0.4760
 1916TIP3    H1 5754   2.917   4.314   5.019 -0.0794 -0.4095  0.0654
 1916TIP3    H2 5755   2.928   4.164   4.996  0.2463 -0.2076 -1.1396
 1917TIP3   OH2 5756   1.061   0.114   1.790 -0.2969 -0.0797  0.2045
 1917TIP3    H1 5757   1.155   0.118   1.804 -0.1483  2.2308 -0.9576
 1917TIP3    H2 5758   1.051   0.110   1.695 -1.3579  0.3661  0.2733
 1918TIP3   OH2 5759   4.460   0.991   0.654  0.0798  0.1534 -0.3089
 1918TIP3    H1 5760   4.491   1.078   0.627 -1.4393  0.9931  0.5089
 1918TIP3    H2 5761   4.540   0.944   0.678  0.8383  1.9370  0.8995
 1919TIP3   OH2 5762   2.232   0.181   3.909  0.4222  0.2897  0.0113
 1919TIP3    H1 5763   2.267   0.092   3.920  0.0709  0.2105  0.5539
 1919TIP3    H2 5764   2.268   0.230   3.984  1.3854  0.8635 -0.8000
 1920TIP3   OH2 5765   1.779   4.892   4.085  0.0193  0.3672 -0.5037
 1920TIP3    H1 5766   1.854   4.908   4.142  0.6448  0.2255 -1.2791
 1920TIP3    H2 5767   1.704   4.885   4.145  0.8327 -0.9572  0.4031
 1921TIP3   OH2 5768   3.821   4.596   3.039  0.3034  0.2049  0.1459
 1921TIP3    H1 5769   3.745   4.582   2.983  1.2035 -1.2491 -0.7848
 1921TIP3    H2 5770   3.896   4.590   2.980  1.2556 -0.7792  1.3921
 1922TIP3   OH2 5771   4.729   3.514   4.497  0.0031  0.0263 -0.1107
 1922TIP3    H1 5772   4.672   3.582   4.532  0.7265  0.4750  0.2176
 1922TIP3    H2 5773   4.670   3.442   4.474 -0.5946  0.1154  1.0834
 1923TIP3   OH2 5774   1.041   1.866   1.896  0.0520  0.6365  0.0068
 1923TIP3    H1 5775   0.972   1.846   1.833 -0.5252 -0.6048  0.9968
 1923TIP3    H2 5776   0.996   1.906   1.970  0.6247  1.3697 -0.0267
 1924TIP3   OH2 5777   5.685   0.244   4.489  0.3324 -0.4265  0.6637
 1924TIP3    H1 5778   5.762   0.238   4.433  0.1733  0.3721  0.3490
 1924TIP3    H2 5779   5.616   0.276   4.431 -0.6373 -2.5507  0.5626
 1925TIP3   OH2 5780   3.097   1.572   4.730 -0.3268  0.3207 -0.1242
 1925TIP3    H1 5781   3.048   1.537   4.656 -0.6433 -0.8609  0.6100
 1925TIP3    H2 5782   3.049   1.652   4.755  1.7376  2.7787 -3.2893
 1926TIP3   OH2 5783   5.418   4.036   4.847  0.1905  0.1389 -0.9438
 1926TIP3    H1 5784   5.418   3.970   4.916 -1.4035  0.1055 -0.9324
 1926TIP3    H2 5785   5.352   4.005   4.785 -1.8504  2.5051 -0.1108
 1927TIP3   OH2 5786   4.812   0.654   1.938 -0.0048 -0.1548  0.3186
 1927TIP3    H1 5787   4.717   0.654   1.948 -0.1264 -0.6084 -0.6250
 1927TIP3    H2 5788   4.845   0.619   2.021 -0.7636 -1.5688  0.0677
 1928TIP3   OH2 5789   4.642   3.901   4.550  0.4524  0.2253  0.1389
 1928TIP3    H1 5790   4.617   3.909   4.457  1.6403 -2.6009 -0.5404
 1928TIP3    H2 5791   4.618   3.985   4.588 -2.0609  0.7742 -2.2590
 1929TIP3   OH2 5792   4.455   2.455   2.430 -0.2362 -0.0837 -0.0660
 1929TIP3    H1 5793   4.439   2.393   2.502 -0.4417  0.2311  0.1592
 1929TIP3    H2 5794   4.488   2.400   2.359  2.6715 -0.0824  1.1352
 1930TIP3   OH2 5795   5.062   3.604   1.688 -0.1601 -0.2482  0.3397
 1930TIP3    H1 5796   5.137   3.548   1.708  0.3695  0.3954  0.1913
 1930TIP3    H2 5797   5.064   3.613   1.592 -0.6068 -0.4773  0.3096
 1931TIP3   OH2 5798   3.898   2.746   4.327  0.3255  0.0635 -0.0530
 1931TIP3    H1 5799   3.831   2.777   4.266  0.0415  0.3323  0.3939
 1931TIP3    H2 5800   3.861   2.761   4.414  0.7026 -0.3808  0.1879
 1932TIP3   OH2 5801   4.115   2.159   3.858 -0.2509  0.4262  0.0889
 1932TIP3    H1 5802   4.193   2.135   3.809 -0.9703  0.8023 -1.3162
 1932TIP3    H2 5803   4.105   2.253   3.843  0.9604  1.1791  3.1868
 1933TIP3   OH2 5804   4.289   0.765   0.813 -0.2868 -0.2405  0.0420
 1933TIP3    H1 5805   4.211   0.767   0.758 -0.4340 -1.2030  0.2000
 1933TIP3    H2 5806   4.357   0.805   0.759 -0.9741  1.0033  0.0660
 1934TIP3   OH2 5807   2.707   1.938   4.033  0.3827 -0.2765  0.1216
 1934TIP3    H1 5808   2.744   2.022   4.006  0.7730  0.5951  3.0278
 1934TIP3    H2 5809   2.745   1.875   3.973  0.6088  1.5257 -1.7209
 1935TIP3   OH2 5810   4.580   1.309   2.161 -0.3414 -1.0901  0.2471
 1935TIP3    H1 5811   4.517   1.238   2.150  0.8527 -2.0969 -0.4288
 1935TIP3    H2 5812   4.541   1.383   2.116 -2.8995 -0.3843  3.2590
 1936TIP3   OH2 5813   0.140   1.456   0.752  0.0766  0.3184  0.3178
 1936TIP3    H1 5814   0.134   1.385   0.689  1.3837  0.8927 -0.4904
 1936TIP3    H2 5815   0.233   1.464   0.771  0.0803  2.4514 -0.3683
 1937TIP3   OH2 5816   3.026   1.447   3.107  0.1141  0.0862  0.5923
 1937TIP3    H1 5817   2.935   1.445   3.078  0.0736 -0.4616  0.7440
 1937TIP3    H2 5818   3.060   1.531   3.075 -0.1393 -0.1695 -0.3816
 1938TIP3   OH2 5819   1.019   5.013   3.345 -0.0568 -0.1117 -0.4616
 1938TIP3    H1 5820   0.958   5.024   3.418  1.5484 -1.6583  1.2308
 1938TIP3    H2 5821   1.050   4.923   3.353  1.1644  0.0869 -2.3057
 1939TIP3   OH2 5822   5.846   5.756   4.809  0.3743  0.7030  0.0878
 1939TIP3    H1 5823   5.932   5.717   4.824  0.3370  1.2230  1.8577
 1939TIP3    H2 5824   5.785   5.699   4.855 -0.5141 -0.6162 -2.5238
 1940TIP3   OH2 5825   3.683   4.178   0.681 -0.4727 -0.7210 -0.4018
 1940TIP3    H1 5826   3.773   4.149   0.696 -0.6661 -1.1460 -0.0446
 1940TIP3    H2 5827   3.638   4.159   0.763 -0.7480  0.0582 -0.3616
 1941TIP3   OH2 5828   0.226   3.804   2.479  0.1775  0.3467 -0.3000
 1941TIP3    H1 5829   0.184   3.771   2.558 -0.9403 -0.0337 -1.0328
 1941TIP3    H2 5830   0.316   3.822   2.506 -0.2438  0.4651  1.1139
 1942TIP3   OH2 5831   5.241   1.312   1.809  0.2526  0.4402 -0.5576
 1942TIP3    H1 5832   5.258   1.365   1.887  1.6706 -1.6307  0.6507
 1942TIP3    H2 5833   5.306   1.342   1.745  0.5761  0.6492 -0.1368
 1943TIP3   OH2 5834   2.036   0.428   0.527  0.2892  0.1424 -0.0906
 1943TIP3    H1 5835   1.994   0.514   0.519 -0.8934 -0.4219 -0.1819
 1943TIP3    H2 5836   2.098   0.439   0.598 -1.0424  0.6385  1.0572
 1944TIP3   OH2 5837   3.355   1.738   0.592 -0.0031 -0.0100  0.1523
 1944TIP3    H1 5838   3.338   1.667   0.654  0.3826  0.6536  1.0498
 1944TIP3    H2 5839   3.375   1.814   0.648 -0.8618  0.9286 -0.7520
 1945TIP3   OH2 5840   5.065   2.575   2.530  0.0491 -0.2114  0.1933
 1945TIP3    H1 5841   5.085   2.606   2.441  0.4120 -2.4730 -0.5935
 1945TIP3    H2 5842   4.970   2.562   2.530  0.1387 -0.9291 -0.1479
 1946TIP3   OH2 5843   1.716   3.930   2.245  0.1733  0.4248  0.5399
 1946TIP3    H1 5844   1.667   3.997   2.198  0.5337 -0.6594 -1.4935
 1946TIP3    H2 5845   1.661   3.852   2.242  1.3271 -0.4041 -0.4951
 1947TIP3   OH2 5846   4.625   4.125   4.741 -0.1448 -0.0133  0.1275
 1947TIP3    H1 5847   4.672   4.104   4.822  0.5704 -1.1316 -0.5568
 1947TIP3    H2 5848   4.642   4.218   4.727 -0.6413  0.3047  1.4878
 1948TIP3   OH2 5849   5.074   2.761   2.313  0.4752 -0.3722 -0.8983
 1948TIP3    H1 5850   5.126   2.798   2.384  0.2419  0.2316 -1.0400
 1948TIP3    H2 5851   4.998   2.819   2.305 -0.5974 -1.6403 -0.2264
 1949TIP3   OH2 5852   0.219   0.284   3.902 -0.0750 -0.2796  0.0235
 1949TIP3    H1 5853   0.149   0.341   3.935  1.2055  1.7794 -0.6311
 1949TIP3    H2 5854   0.177   0.232   3.833 -1.0815  0.5409 -0.0039
 1950TIP3   OH2 5855   4.159   0.354   1.602  0.4146 -0.5597  0.2112
 1950TIP3    H1 5856   4.151   0.364   1.507 -1.3729 -0.7132  0.3119
 1950TIP3    H2 5857   4.103   0.423   1.638  0.3612 -1.0809  1.1405
 1951TIP3   OH2 5858   3.485   5.516   4.681 -0.2149 -0.7053  0.2613
 1951TIP3    H1 5859   3.531   5.541   4.601 -1.4746  1.2425  0.0666
 1951TIP3    H2 5860   3.408   5.468   4.650 -1.4370  1.2096  0.1114
 1952TIP3   OH2 5861   4.236   1.561   1.702 -0.1618 -0.1301 -0.6276
 1952TIP3    H1 5862   4.209   1.470   1.713 -2.2218  0.2164 -2.1154
 1952TIP3    H2 5863   4.239   1.574   1.607  0.9821  1.1313 -0.4626
 1953TIP3   OH2 5864   0.324   1.089   4.732  0.2852 -0.0424 -0.0235
 1953TIP3    H1 5865   0.378   1.009   4.738 -0.3242 -0.4242  0.4980
 1953TIP3    H2 5866   0.316   1.104   4.638  2.4612  0.8380 -0.1362
 1954TIP3   OH2 5867   1.813   4.961   0.543  0.1421 -0.2920 -0.3924
 1954TIP3    H1 5868   1.818   5.041   0.490 -1.6919  0.0679 -0.0944
 1954TIP3    H2 5869   1.835   4.890   0.482 -0.9398  0.1986 -1.3891
 1955TIP3   OH2 5870   1.738   1.836   0.731  0.4020 -0.2166 -0.1066
 1955TIP3    H1 5871   1.816   1.855   0.783 -0.2152  0.3528  0.6450
 1955TIP3    H2 5872   1.720   1.918   0.685 -0.2064 -0.0927  0.3463
 1956TIP3   OH2 5873   2.684   5.620   1.476  0.4660 -0.1789 -0.2575
 1956TIP3    H1 5874   2.689   5.555   1.407 -0.9691 -1.3862  0.7147
 1956TIP3    H2 5875   2.709   5.702   1.434  0.6859 -1.0549 -1.9169
 1957TIP3   OH2 5876   0.105   4.701   1.936  0.3772 -0.5347  0.0871
 1957TIP3    H1 5877   0.140   4.613   1.921  0.4493 -0.5199  0.1676
 1957TIP3    H2 5878   0.152   4.757   1.874 -1.7442 -1.0008 -2.1160
 1958TIP3   OH2 5879   4.627   1.563   4.305 -0.0920 -0.1423 -0.0410
 1958TIP3    H1 5880   4.585   1.520   4.380  0.7039 -1.3266 -0.2574
 1958TIP3    H2 5881   4.701   1.507   4.283  0.3834  0.8184 -0.9827
 1959TIP3   OH2 5882   5.505   3.868   5.074  0.1440 -0.1565 -0.9494
 1959TIP3    H1 5883   5.560   3.800   5.112 -1.5562 -0.2468  1.5491
 1959TIP3    H2 5884   5.495   3.933   5.143 -0.7429  1.1343 -2.2413
 1960TIP3   OH2 5885   4.366   5.725   2.152 -0.7832  0.2257 -0.4483
 1960TIP3    H1 5886   4.455   5.694   2.134 -0.5373  0.6183  0.0862
 1960TIP3    H2 5887   4.312   5.678   2.089  0.0847  1.7989 -2.4601
 1961TIP3   OH2 5888   0.757   3.221   1.077  0.2933  0.2476 -0.3746
 1961TIP3    H1 5889   0.818   3.149   1.094  1.3211  0.1474 -3.6760
 1961TIP3    H2 5890   0.809   3.283   1.025 -1.7779  1.3153 -1.2642
 1962TIP3   OH2 5891   5.904   1.638   0.968 -0.2551 -0.0068 -0.3387
 1962TIP3    H1 5892   5.987   1.636   0.919 -0.0267 -0.5193  0.0555
 1962TIP3    H2 5893   5.928   1.613   1.057 -1.1018 -2.1675 -0.6479
 1963TIP3   OH2 5894   3.744   0.224   3.551 -0.6078 -0.1725  0.1809
 1963TIP3    H1 5895   3.778   0.151   3.499  0.0456  0.6837 -0.6196
 1963TIP3    H2 5896   3.712   0.287   3.487 -0.2532  0.6808  0.8261
 1964TIP3   OH2 5897   0.820   2.083   3.979  0.0233  0.3684  0.3487
 1964TIP3    H1 5898   0.770   2.007   4.009  1.5254 -0.6627  0.3641
 1964TIP3    H2 5899   0.864   2.115   4.057  0.3004  0.5493  0.1161
 1965TIP3   OH2 5900   5.498   3.250   5.215 -0.3273 -0.0358 -0.3128
 1965TIP3    H1 5901   5.422   3.257   5.157  0.2657 -0.1706 -1.1290
 1965TIP3    H2 5902   5.557   3.190   5.169  0.4944  0.4809  0.0554
 1966TIP3   OH2 5903   4.115   2.070   2.438  0.6200 -0.0537  0.5181
 1966TIP3    H1 5904   4.107   2.037   2.349 -0.3445 -1.0860  0.9641
 1966TIP3    H2 5905   4.133   2.163   2.428 -1.1898  0.2116 -0.7593
 1967TIP3   OH2 5906   4.285   1.641   2.515 -0.8690  0.0062  0.3459
 1967TIP3    H1 5907   4.341   1.604   2.583  0.2305  0.8390 -0.0776
 1967TIP3    H2 5908   4.273   1.570   2.452  1.1247  0.2622 -0.4052
 1968TIP3   OH2 5909   4.464   1.145   1.650 -0.1860 -0.3654 -0.0855
 1968TIP3    H1 5910   4.483   1.239   1.643 -0.8774 -0.2746 -0.8514
 1968TIP3    H2 5911   4.534   1.111   1.705 -0.7432  0.8574  1.4581
 1969TIP3   OH2 5912   2.541   4.430   0.982 -0.3276  0.6563  0.3881
 1969TIP3    H1 5913   2.575   4.513   1.015 -1.6903  1.4463 -0.1162
 1969TIP3    H2 5914   2.578   4.364   1.041  0.5748  1.6345  0.9535
 1970TIP3   OH2 5915   3.474   0.034   2.296 -0.0339 -0.1577  0.2788
 1970TIP3    H1 5916   3.503   0.124   2.312  1.8061 -0.7800  0.7680
 1970TIP3    H2 5917   3.447   0.033   2.204 -0.6156  1.0071  0.4171
 1971TIP3   OH2 5918   6.139   5.846   2.655 -0.2582 -0.3724  0.4701
 1971TIP3    H1 5919   6.160   5.807   2.570  1.4587 -0.9188  1.1028
 1971TIP3    H2 5920   6.219   5.891   2.681 -0.0983 -1.7216  2.5910
 1972TIP3   OH2 5921   2.985   1.276   1.306 -0.2164  0.1926  0.2076
 1972TIP3    H1 5922   3.070   1.265   1.263 -0.4305  0.9263 -0.4247
 1972TIP3    H2 5923   2.924   1.293   1.235 -1.0625 -1.1845  0.5844
 1973TIP3   OH2 5924   2.187   1.784   1.899 -0.1110 -0.3210  0.2791
 1973TIP3    H1 5925   2.201   1.699   1.858 -0.2529 -0.2766  0.1407
 1973TIP3    H2 5926   2.179   1.845   1.826  1.0369 -0.0232  0.3835
 1974TIP3   OH2 5927   0.097   0.219   4.269  0.8524 -0.3847  0.4455
 1974TIP3    H1 5928   0.022   0.238   4.326  0.7121  0.1150  0.1012
 1974TIP3    H2 5929   0.137   0.304   4.253  1.5840 -0.6663  0.7407
 1975TIP3   OH2 5930   1.238   4.095   2.940 -0.5907 -0.0012  0.0738
 1975TIP3    H1 5931   1.208   4.009   2.910 -2.1531  0.9509 -1.2338
 1975TIP3    H2 5932   1.328   4.100   2.908 -0.6205 -0.9715 -0.2099
 1976TIP3   OH2 5933   0.932   0.658   0.643 -0.1264 -0.2876  0.3212
 1976TIP3    H1 5934   0.866   0.714   0.684  1.2989 -0.4711  3.0875
 1976TIP3    H2 5935   0.966   0.710   0.570 -1.8249  0.6394  0.1450
 1977TIP3   OH2 5936   0.319   5.200   4.425  0.1533 -0.1392 -0.6177
 1977TIP3    H1 5937   0.296   5.288   4.395 -2.5348 -0.7832 -0.6864
 1977TIP3    H2 5938   0.334   5.211   4.519  0.0192  0.4222 -0.6555
 1978TIP3   OH2 5939   2.317   2.300   4.556 -0.1326  0.0387  0.0710
 1978TIP3    H1 5940   2.295   2.366   4.490 -2.5923  0.5215  1.2697
 1978TIP3    H2 5941   2.237   2.289   4.607  1.4933 -0.7062  2.6699
 1979TIP3   OH2 5942   2.247   1.318   3.081  0.3509  0.3115  0.3751
 1979TIP3    H1 5943   2.334   1.335   3.046  0.1965  0.7698  0.1919
 1979TIP3    H2 5944   2.188   1.345   3.010  0.0804 -1.4466 -0.1142
 1980TIP3   OH2 5945   3.292   2.100   1.517 -0.1253 -0.5385 -0.0835
 1980TIP3    H1 5946   3.378   2.060   1.525 -0.8709 -2.2206 -0.0762
 1980TIP3    H2 5947   3.308   2.194   1.523  1.6256 -0.8512  0.5346
 1981TIP3   OH2 5948   6.017   0.444   0.736 -0.3269 -0.2496  0.0279
 1981TIP3    H1 5949   5.960   0.374   0.703 -1.4135 -0.1360  1.5474
 1981TIP3    H2 5950   6.034   0.420   0.827 -1.5284  1.9069  0.9021
 1982TIP3   OH2 5951   3.435   0.607   1.941  0.2633  0.7417 -0.2950
 1982TIP3    H1 5952   3.415   0.514   1.948  0.1723  0.7142 -0.9337
 1982TIP3    H2 5953   3.447   0.635   2.032  0.0293  0.1679 -0.0818
 1983TIP3   OH2 5954   5.204   1.958   2.540  0.0368  0.1716  0.1202
 1983TIP3    H1 5955   5.199   1.949   2.444 -1.0108  2.0827 -0.0323
 1983TIP3    H2 5956   5.272   2.024   2.554  0.6538 -0.5743  0.7600
 1984TIP3   OH2 5957   3.706   3.781   3.831 -0.1614  0.0695 -0.2615
 1984TIP3    H1 5958   3.745   3.864   3.856  1.6980 -0.8127 -0.0837
 1984TIP3    H2 5959   3.613   3.790   3.853  0.4214  1.2326  1.9947
 1985TIP3   OH2 5960   2.278   0.900   4.044  0.2760  0.0514  0.0742
 1985TIP3    H1 5961   2.221   0.912   3.968  1.8692  0.7647 -1.0790
 1985TIP3    H2 5962   2.260   0.975   4.100 -1.4231 -0.8504  0.7959
 1986TIP3   OH2 5963   4.987   0.584   3.252  0.1880 -0.0745 -0.1009
 1986TIP3    H1 5964   4.912   0.643   3.249  0.1870 -0.0124  0.7588
 1986TIP3    H2 5965   4.992   0.556   3.344  0.9795 -0.3739 -0.2225
 1987TIP3   OH2 5966   4.399   2.318   2.678 -0.1861  0.3538  0.2001
 1987TIP3    H1 5967   4.418   2.326   2.772  0.3817  1.5503 -0.0019
 1987TIP3    H2 5968   4.432   2.232   2.654 -1.2755 -0.4047  1.3148
 1988TIP3   OH2 5969   5.070   0.564   3.528  0.2026 -0.6852  0.4281
 1988TIP3    H1 5970   5.117   0.582   3.609  0.7231  0.6613 -0.1435
 1988TIP3    H2 5971   5.084   0.642   3.474 -3.0234  0.0045  0.3702
 1989TIP3   OH2 5972   4.870   3.308   0.858 -0.1365 -0.3012  0.5877
 1989TIP3    H1 5973   4.895   3.312   0.951  3.1400 -0.1524 -0.1622
 1989TIP3    H2 5974   4.805   3.238   0.853  0.0423 -0.7049  2.9028
 1990TIP3   OH2 5975   4.447   1.909   4.869 -0.1305 -0.6194  0.3745
 1990TIP3    H1 5976   4.531   1.955   4.866 -0.6995  0.4028 -0.5395
 1990TIP3    H2 5977   4.387   1.973   4.908 -0.3636 -1.5698  1.6323
 1991TIP3   OH2 5978   4.984   5.793   0.527  0.1024 -0.3157  0.4042
 1991TIP3    H1 5979   5.005   5.711   0.483 -0.7885 -0.5375  0.3659
 1991TIP3    H2 5980   4.888   5.796   0.527  0.0569 -0.3099  2.2808
 1992TIP3   OH2 5981   3.916   3.554   4.013  0.2336 -0.5209 -0.3225
 1992TIP3    H1 5982   3.916   3.632   3.957  1.9490  0.2914  0.7498
 1992TIP3    H2 5983   4.008   3.534   4.026 -0.0773 -0.3623  2.6309
 1993TIP3   OH2 5984   2.229   5.033   1.262 -0.1215  0.1916  0.1174
 1993TIP3    H1 5985   2.238   5.126   1.243  0.5438  0.0197 -0.4085
 1993TIP3    H2 5986   2.141   5.011   1.230 -0.0920  0.5233 -0.1977
 1994TIP3   OH2 5987   4.314   4.864   5.102  0.3437  0.5286  0.2705
 1994TIP3    H1 5988   4.295   4.913   5.182 -1.6831  0.9134 -0.3978
 1994TIP3    H2 5989   4.231   4.824   5.077  0.9830  0.2055 -1.5062
 1995TIP3   OH2 5990   3.096   0.219   3.203  0.1811 -0.0025  0.2626
 1995TIP3    H1 5991   3.078   0.129   3.230 -0.9585  0.2436  0.3571
 1995TIP3    H2 5992   3.026   0.271   3.242 -0.9950  0.5091 -2.3387
 1996TIP3   OH2 5993   4.902   2.837   2.813 -0.3220  0.4859  0.0649
 1996TIP3    H1 5994   4.988   2.851   2.772  0.8960 -0.8261  1.9872
 1996TIP3    H2 5995   4.856   2.919   2.800  1.6625  1.6486 -0.0414
 1997TIP3   OH2 5996   0.088   2.958   2.513  0.3321 -0.1288 -0.2978
 1997TIP3    H1 5997   0.136   2.898   2.570 -1.7587 -1.7111 -0.0434
 1997TIP3    H2 5998   0.002   2.966   2.555 -0.1518  1.3472 -1.4974
 1998TIP3   OH2 5999   1.112   2.639   3.360  0.4632 -0.6416  0.0494
 1998TIP3    H1 6000   1.184   2.628   3.298  1.2921 -0.1019  0.8873
 1998TIP3    H2 6001   1.130   2.575   3.429 -0.2197 -0.9478 -0.0493
 1999TIP3   OH2 6002   0.598   2.143   1.059 -0.6708  0.4496 -0.1405
 1999TIP3    H1 6003   0.592   2.170   1.151 -1.5625 -2.9933  0.9481
 1999TIP3    H2 6004   0.514   2.167   1.021 -1.9056 -1.5668  1.1108
 2000TIP3   OH2 6005   2.659   2.379   1.908  0.1278 -0.2007 -0.0920
 2000TIP3    H1 6006   2.739   2.364   1.858 -0.4756 -1.7806 -0.6466
 2000TIP3    H2 6007   2.667   2.323   1.985 -0.2724 -0.0562  0.0606
 2001TIP3   OH2 6008   6.062   2.798   0.368 -0.1373 -0.4245 -0.3421
 2001TIP3    H1 6009   6.042   2.707   0.392  2.1179 -0.7898  0.4666
 2001TIP3    H2 6010   6.048   2.847   0.449 -0.7552 -0.1544 -0.6119
 2002TIP3   OH2 6011   2.633   5.699   1.168  0.2039  0.2847  0.1523
 2002TIP3    H1 6012   2.679   5.783   1.165  0.6428  0.0322 -0.7031
 2002TIP3    H2 6013   2.671   5.649   1.095 -0.6085 -0.3642  0.1612
 2003TIP3   OH2 6014   0.342   1.565   2.547 -0.1228 -0.1377  0.0029
 2003TIP3    H1 6015   0.427   1.600   2.522 -0.5837  0.9779 -0.0941
 2003TIP3    H2 6016   0.313   1.622   2.618 -1.7296  0.9247 -1.4071
 2004TIP3   OH2 6017   0.075   1.336   2.729  0.5990 -0.7808 -0.3551
 2004TIP3    H1 6018   0.119   1.418   2.752 -2.3424  0.8650 -0.1504
 2004TIP3    H2 6019   0.069   1.337   2.633  2.0702 -1.6924 -0.5027
 2005TIP3   OH2 6020   2.173   0.020   4.236 -0.4734  0.9044  0.5492
 2005TIP3    H1 6021   2.107   0.046   4.173 -1.5006 -0.5572  0.9575
 2005TIP3    H2 6022   2.126  -0.033   4.300  1.3629 -1.9766 -0.2442
 2006TIP3   OH2 6023   3.396   4.736   0.894 -0.3015  0.3097 -0.0935
 2006TIP3    H1 6024   3.394   4.643   0.915  0.1560  0.5735  1.2483
 2006TIP3    H2 6025   3.357   4.778   0.971 -0.0630  1.2639 -0.4799
 2007TIP3   OH2 6026   3.270   4.695   4.929  0.0624 -0.3617 -0.3141
 2007TIP3    H1 6027   3.257   4.601   4.916  0.7737 -0.6622  0.9682
 2007TIP3    H2 6028   3.241   4.711   5.019 -0.0910  0.6632 -0.5270
 2008TIP3   OH2 6029   3.014   2.204   3.163 -0.0070 -0.0128  0.8208
 2008TIP3    H1 6030   3.057   2.289   3.162 -0.1635  0.0725  1.3439
 2008TIP3    H2 6031   2.934   2.217   3.214  0.6280 -0.7870  2.0504
 2009TIP3   OH2 6032   4.275   3.607   1.888 -0.0509  0.0700 -0.7751
 2009TIP3    H1 6033   4.306   3.520   1.915 -1.7716 -0.4861 -0.4250
 2009TIP3    H2 6034   4.348   3.666   1.908  0.3360 -0.9575  1.1318
 2010TIP3   OH2 6035   4.750   4.026   4.989 -0.1178 -0.3139 -0.3694
 2010TIP3    H1 6036   4.739   4.029   5.084  0.2853 -0.2580 -0.3238
 2010TIP3    H2 6037   4.844   4.017   4.975 -0.2204 -0.8685 -0.7579
 2011TIP3   OH2 6038   1.481   1.303   2.548 -0.1609 -0.1703  0.2761
 2011TIP3    H1 6039   1.439   1.267   2.469 -0.8262 -1.4664  1.1670
 2011TIP3    H2 6040   1.573   1.312   2.524 -0.6022  1.0097 -1.1569
 2012TIP3   OH2 6041   2.865   2.456   0.658  0.0075 -0.1454 -0.0843
 2012TIP3    H1 6042   2.950   2.498   0.666  0.5605 -1.0754 -0.8931
 2012TIP3    H2 6043   2.881   2.377   0.606 -1.0850 -1.1209  0.9817
 2013TIP3   OH2 6044   0.930   2.216   2.714  0.2636 -0.0295 -0.2061
 2013TIP3    H1 6045   1.009   2.191   2.762 -0.5679 -1.5077  0.4999
 2013TIP3    H2 6046   0.861   2.161   2.752 -1.0926  1.1405 -0.8561
 2014TIP3   OH2 6047   5.349   0.011   1.930 -0.2058 -0.4896 -0.0857
 2014TIP3    H1 6048   5.282  -0.027   1.987  0.9083 -1.1368  0.8401
 2014TIP3    H2 6049   5.299   0.057   1.862 -1.5740 -0.4786  0.8809
 2015TIP3   OH2 6050   4.882   4.887   2.320 -0.2190  0.2059  0.0923
 2015TIP3    H1 6051   4.842   4.847   2.397 -0.3866  0.5958  0.2132
 2015TIP3    H2 6052   4.817   4.876   2.250  0.1903 -0.7023 -0.1615
 2016TIP3   OH2 6053   3.281   4.101   0.896  0.3099  0.2263 -0.4224
 2016TIP3    H1 6054   3.194   4.093   0.934  0.6419  2.0868  0.8586
 2016TIP3    H2 6055   3.272   4.165   0.826  0.5270 -0.0672 -0.7224
 2017TIP3   OH2 6056   1.348   4.452   0.254 -0.6759 -0.0131  0.0398
 2017TIP3    H1 6057   1.393   4.523   0.299 -2.3161  0.1000  1.6132
 2017TIP3    H2 6058   1.283   4.496   0.199 -1.1140 -0.2709  0.3479
 2018TIP3   OH2 6059   0.977   4.364   0.116 -0.3551 -0.2693 -0.0966
 2018TIP3    H1 6060   0.924   4.326   0.046  1.2771 -0.1510 -1.4418
 2018TIP3    H2 6061   0.998   4.452   0.085  0.4806 -0.2528  0.4850
 2019TIP3   OH2 6062   4.614   5.039   1.036  0.6793  0.1593  0.5147
 2019TIP3    H1 6063   4.672   5.112   1.058 -0.3726  1.5170 -1.0377
 2019TIP3    H2 6064   4.533   5.080   1.007  0.4978 -1.5588 -1.6845
 2020TIP3   OH2 6065   2.201   5.260   4.326 -0.2725 -0.2970 -0.2704
 2020TIP3    H1 6066   2.242   5.191   4.274 -0.8227 -0.0173 -1.0991
 2020TIP3    H2 6067   2.140   5.214   4.383 -1.4890 -0.4395 -1.6272
 2021TIP3   OH2 6068   1.721   0.999   3.485  0.4504 -0.0134 -0.2424
 2021TIP3    H1 6069   1.777   1.070   3.515 -0.2445  1.0279 -1.3379
 2021TIP3    H2 6070   1.673   0.971   3.563  0.6204  0.8259  0.1690
 2022TIP3   OH2 6071   4.288   4.240   2.040  0.0805  0.1693 -0.6149
 2022TIP3    H1 6072   4.199   4.238   2.076 -0.0547  1.3733 -0.8260
 2022TIP3    H2 6073   4.308   4.333   2.031  0.6061 -0.0813 -2.4611
 2023TIP3   OH2 6074   0.756   4.991   3.209 -0.1172 -0.4972  0.3477
 2023TIP3    H1 6075   0.710   5.061   3.162 -2.0850 -0.6739  1.8488
 2023TIP3    H2 6076   0.845   4.993   3.175 -0.5860  1.5576 -0.9297
 2024TIP3   OH2 6077   0.914   4.705   4.547  0.5512 -0.4430 -0.0857
 2024TIP3    H1 6078   0.901   4.723   4.455 -0.1945  0.0504  0.1110
 2024TIP3    H2 6079   0.827   4.709   4.586  0.6446 -2.1667  0.3864
 2025TIP3   OH2 6080   5.110   3.927   2.434 -0.0916  0.2818  0.8599
 2025TIP3    H1 6081   5.137   4.011   2.471  0.5898  0.7073 -0.5537
 2025TIP3    H2 6082   5.086   3.874   2.510  2.6574  0.6034  2.0459
 2026TIP3   OH2 6083   6.016   3.741   1.800 -0.9191  0.0566 -0.4641
 2026TIP3    H1 6084   5.949   3.676   1.779 -0.8073 -0.1397 -0.2156
 2026TIP3    H2 6085   5.978   3.792   1.871 -1.4668  0.9874 -1.4121
 2027TIP3   OH2 6086   1.297   2.545   3.099  0.1968  0.1141  0.1732
 2027TIP3    H1 6087   1.325   2.518   3.011  1.1541  0.5296  0.3368
 2027TIP3    H2 6088   1.355   2.618   3.121 -0.0467  0.0241  1.1430
 2028TIP3   OH2 6089   1.394   2.586   0.730  0.2397  0.7703  0.3732
 2028TIP3    H1 6090   1.487   2.608   0.726  0.8073 -1.5162 -0.0198
 2028TIP3    H2 6091   1.382   2.550   0.818  0.3589 -1.3916 -0.4479
 2029TIP3   OH2 6092   5.934   4.540   3.803 -0.1771 -0.1812  0.6033
 2029TIP3    H1 6093   5.880   4.491   3.742  0.6285 -0.3238 -0.0101
 2029TIP3    H2 6094   5.996   4.476   3.838 -1.3228 -0.3570  2.4321
 2030TIP3   OH2 6095   1.304   2.725   2.842  0.0127 -0.1999 -0.1033
 2030TIP3    H1 6096   1.345   2.646   2.878  1.6620  0.4881 -0.3726
 2030TIP3    H2 6097   1.325   2.794   2.904  0.6089  0.4734 -1.0267
 2031TIP3   OH2 6098   2.774   0.085   0.711 -0.0827 -0.1308  0.0897
 2031TIP3    H1 6099   2.698   0.039   0.675 -0.9148  2.0843 -1.1371
 2031TIP3    H2 6100   2.738   0.164   0.751  1.5496  1.1179 -0.7646
 2032TIP3   OH2 6101   2.481   0.957   3.583 -0.4854  0.2113 -0.1847
 2032TIP3    H1 6102   2.480   0.968   3.488 -1.6057 -1.1759 -0.3778
 2032TIP3    H2 6103   2.567   0.988   3.610 -0.3316  1.1016 -1.5831
 2033TIP3   OH2 6104   4.917   5.499   0.103 -0.1172  0.7376 -0.3642
 2033TIP3    H1 6105   4.858   5.532   0.036  0.5441  1.3087 -0.6744
 2033TIP3    H2 6106   4.897   5.405   0.109 -2.3153  1.2286  0.8390
 2034TIP3   OH2 6107   4.676   2.085   4.922  0.6177 -0.2850  0.3176
 2034TIP3    H1 6108   4.685   2.141   4.999  1.2214  0.3974 -0.2328
 2034TIP3    H2 6109   4.697   2.142   4.848 -0.8367 -0.6780 -0.4451
 2035TIP3   OH2 6110   1.889   4.957   4.571 -0.2835 -0.1967  0.1317
 2035TIP3    H1 6111   1.971   4.912   4.549  1.2841  0.4914  3.8656
 2035TIP3    H2 6112   1.857   4.911   4.648 -2.8340  0.3483 -0.5138
 2036TIP3   OH2 6113   1.905   2.660   4.362 -0.0996  0.5079  0.1334
 2036TIP3    H1 6114   1.886   2.753   4.350  0.1351  0.3953 -1.4263
 2036TIP3    H2 6115   1.923   2.650   4.455  0.9632  2.2497  0.1567
 2037TIP3   OH2 6116   6.313   3.763   1.103  0.6377 -0.0852 -0.1129
 2037TIP3    H1 6117   6.254   3.759   1.028 -1.1758  0.1743  1.2318
 2037TIP3    H2 6118   6.364   3.843   1.089  0.1976  0.0565 -0.9659
 2038TIP3   OH2 6119   2.567   3.917   0.792  0.4810 -0.3367 -0.8647
 2038TIP3    H1 6120   2.610   3.844   0.836 -1.5979 -0.9437  0.3291
 2038TIP3    H2 6121   2.487   3.879   0.755 -0.7792  1.3271 -0.0002
 2039TIP3   OH2 6122   6.266   3.197   3.829  0.3200  0.5110  0.0497
 2039TIP3    H1 6123   6.351   3.161   3.854  0.9347  1.8514 -0.0033
 2039TIP3    H2 6124   6.281   3.237   3.743 -0.1293  1.4998  0.4155
 2040TIP3   OH2 6125   1.677   1.240   2.068  0.3475 -0.6499  0.3286
 2040TIP3    H1 6126   1.657   1.233   1.974  0.1494 -2.4323  0.4752
 2040TIP3    H2 6127   1.604   1.291   2.103  0.4790  0.1358 -0.4859
 2041TIP3   OH2 6128   1.567   2.918   5.138 -0.2547  0.3945 -0.4001
 2041TIP3    H1 6129   1.531   2.985   5.196  0.3457  0.9309 -0.6263
 2041TIP3    H2 6130   1.519   2.930   5.056 -1.9338 -1.1259  0.2806
 2042TIP3   OH2 6131   3.048   4.015   4.746 -0.2495  0.5232  0.2950
 2042TIP3    H1 6132   3.026   4.107   4.728 -0.0116  0.6451  0.6238
 2042TIP3    H2 6133   3.112   4.019   4.818  0.0083  0.1184  0.0932
 2043TIP3   OH2 6134   5.577   5.861   2.996  0.2772 -0.4393 -0.0331
 2043TIP3    H1 6135   5.486   5.885   2.980  0.2671  0.7779  1.5868
 2043TIP3    H2 6136   5.583   5.769   2.969 -1.8959 -1.1177  1.4968
 2044TIP3   OH2 6137   5.960   5.304   4.984 -0.0835 -0.4339 -0.3802
 2044TIP3    H1 6138   6.029   5.362   5.015 -1.6761  0.6661  1.2590
 2044TIP3    H2 6139   5.996   5.216   4.997  2.0395  0.0791 -2.1329
 2045TIP3   OH2 6140   3.511   1.902   1.506 -0.0556 -0.2248  0.2103
 2045TIP3    H1 6141   3.602   1.880   1.486 -1.2652 -4.7511 -1.4103
 2045TIP3    H2 6142   3.476   1.936   1.424 -0.1403  0.5108  0.5413
 2046TIP3   OH2 6143   0.895   3.604   2.600 -0.1273 -0.8253  0.0570
 2046TIP3    H1 6144   0.823   3.542   2.585  0.2585 -0.9972 -1.2542
 2046TIP3    H2 6145   0.938   3.610   2.515 -0.0469  1.1158  0.2002
 2047TIP3   OH2 6146   4.718   5.505   4.223  0.0071 -0.4178 -0.0658
 2047TIP3    H1 6147   4.660   5.477   4.153 -0.1982  0.2187 -0.1579
 2047TIP3    H2 6148   4.661   5.515   4.299 -0.1594  0.9270 -0.3383
 2048TIP3   OH2 6149   3.722   3.218   3.000 -0.1390  0.4878  0.0391
 2048TIP3    H1 6150   3.637   3.250   2.969 -0.3646  0.9640  1.1140
 2048TIP3    H2 6151   3.763   3.294   3.040  0.3326 -0.0018  0.5030
 2049TIP3   OH2 6152   5.752   3.147   3.977  0.5766 -0.2462  0.4127
 2049TIP3    H1 6153   5.759   3.097   4.059 -0.5340 -0.7239  0.2262
 2049TIP3    H2 6154   5.816   3.218   3.987  0.2523 -0.1215  1.8274
 2050TIP3   OH2 6155   5.955   4.029   4.929  0.3727  0.2753  0.0544
 2050TIP3    H1 6156   5.919   3.963   4.870 -0.4849 -0.0359  0.8993
 2050TIP3    H2 6157   5.878   4.074   4.965  0.6798 -1.1241  2.7618
 2051TIP3   OH2 6158   0.940   2.739   2.254 -0.3442 -0.3420  0.6470
 2051TIP3    H1 6159   0.856   2.700   2.278 -0.0699 -1.2077  0.2577
 2051TIP3    H2 6160   0.992   2.735   2.334 -0.3882 -0.6049  0.6655
 2052TIP3   OH2 6161   5.199   1.688   0.452 -0.7446  0.2385  0.0858
 2052TIP3    H1 6162   5.275   1.738   0.482 -0.7987  0.4629 -0.1476
 2052TIP3    H2 6163   5.126   1.750   0.456 -1.0892 -0.2103  1.1267
 2053TIP3   OH2 6164   2.617   3.869   1.884  0.0653  0.3721  0.2292
 2053TIP3    H1 6165   2.523   3.866   1.905 -0.3658  0.5289 -1.5799
 2053TIP3    H2 6166   2.659   3.834   1.962 -1.3667  1.9735  1.8394
 2054TIP3   OH2 6167   5.637   0.244   5.163  0.2507 -0.9363  0.1328
 2054TIP3    H1 6168   5.669   0.234   5.073  0.5369 -1.6073  0.3012
 2054TIP3    H2 6169   5.716   0.261   5.215  0.1673 -1.1662  0.3401
 2055TIP3   OH2 6170   1.067   5.533   1.459 -0.6406  0.5446  0.0856
 2055TIP3    H1 6171   1.101   5.621   1.440  1.7760 -0.1932  0.6104
 2055TIP3    H2 6172   1.037   5.500   1.374 -0.1993  1.3266 -0.3871
 2056TIP3   OH2 6173   4.365   4.173   1.335 -0.4729 -0.0519 -0.2902
 2056TIP3    H1 6174   4.384   4.083   1.362 -1.5528 -0.6976 -1.5982
 2056TIP3    H2 6175   4.335   4.215   1.416  1.6872 -0.3294  0.7435
 2057TIP3   OH2 6176   4.934   4.863   0.501  0.0622  0.2079  0.4263
 2057TIP3    H1 6177   4.883   4.812   0.564 -0.8444  0.2952 -0.2174
 2057TIP3    H2 6178   4.963   4.799   0.436  2.2386 -0.1570  1.6390
 2058TIP3   OH2 6179   6.213   1.840   0.085 -0.4513  0.1661  0.0876
 2058TIP3    H1 6180   6.244   1.895   0.157  0.4505  0.2832 -0.3744
 2058TIP3    H2 6181   6.277   1.854   0.015 -0.1378 -1.5360 -0.0169
 2059TIP3   OH2 6182   2.559   3.315   2.260  0.0992  0.2928  0.1032
 2059TIP3    H1 6183   2.479   3.298   2.211  1.6742 -1.2721 -2.1639
 2059TIP3    H2 6184   2.555   3.257   2.336 -1.7129  1.6325  1.0920
 2060TIP3   OH2 6185   4.762   1.829   4.265 -0.0672  0.3282  0.1405
 2060TIP3    H1 6186   4.710   1.750   4.280  0.2715  0.2187  0.7799
 2060TIP3    H2 6187   4.697   1.898   4.251 -0.3766  0.0826  0.3536
 2061TIP3   OH2 6188   5.882   5.424   3.347  0.5831 -0.0576  0.3523
 2061TIP3    H1 6189   5.972   5.395   3.333  0.5727  0.0808 -0.0054
 2061TIP3    H2 6190   5.888   5.480   3.425  0.4691 -1.5923  1.4933
 2062TIP3   OH2 6191   1.401   3.639   0.447  0.4900 -0.3120 -0.1065
 2062TIP3    H1 6192   1.428   3.701   0.379 -0.4521 -0.6906 -0.8445
 2062TIP3    H2 6193   1.475   3.578   0.454  0.2110 -0.8443 -1.5057
 2063TIP3   OH2 6194   5.840   1.787   0.308 -0.1730 -0.0039  0.6521
 2063TIP3    H1 6195   5.768   1.839   0.271 -1.0914 -2.0290 -0.5945
 2063TIP3    H2 6196   5.874   1.841   0.379 -1.6053  1.9092 -0.0101
 2064TIP3   OH2 6197   3.414   1.305   2.933  0.7052  0.3597 -0.5622
 2064TIP3    H1 6198   3.462   1.223   2.924  1.5088  1.0036 -2.8670
 2064TIP3    H2 6199   3.471   1.360   2.987  1.1487  0.0928 -0.7516
 2065TIP3   OH2 6200   5.823   4.092   0.049 -0.4772  0.8581  0.2431
 2065TIP3    H1 6201   5.908   4.071   0.011  0.4729  2.2969  1.4826
 2065TIP3    H2 6202   5.792   4.167  -0.002 -0.2729  1.2999  0.7502
 2066TIP3   OH2 6203   3.359   5.972   0.289  0.2830  0.0750 -0.0670
 2066TIP3    H1 6204   3.266   5.946   0.284  0.3614 -0.0195 -2.0638
 2066TIP3    H2 6205   3.394   5.920   0.361 -0.7603 -1.5225 -0.6336
 2067TIP3   OH2 6206   4.313   4.921   0.768 -0.0258 -0.3770 -0.1409
 2067TIP3    H1 6207   4.371   4.942   0.695  0.4718 -0.1566  0.3129
 2067TIP3    H2 6208   4.225   4.934   0.732  0.1827 -0.9768 -0.9160
 2068TIP3   OH2 6209   3.711   3.111   4.912  0.3325  0.1069 -0.1103
 2068TIP3    H1 6210   3.643   3.070   4.965 -0.0984  0.9579  0.0202
 2068TIP3    H2 6211   3.736   3.189   4.961  1.4406 -0.2177 -0.1395
 2069TIP3   OH2 6212   1.104   2.325   4.266  0.0796 -0.1856 -0.3269
 2069TIP3    H1 6213   1.125   2.406   4.219  1.2179 -0.9562 -1.2155
 2069TIP3    H2 6214   1.162   2.326   4.343 -0.4462  0.1902  0.0695
 2070TIP3   OH2 6215   3.401   0.115   0.634 -0.4086 -0.8694  0.0898
 2070TIP3    H1 6216   3.407   0.209   0.652 -0.3030 -0.6709 -0.9073
 2070TIP3    H2 6217   3.448   0.074   0.706  1.9113 -0.0141 -0.8263
 2071TIP3   OH2 6218   4.573   1.478   2.448  0.0147  0.5527 -0.0057
 2071TIP3    H1 6219   4.514   1.459   2.520  1.7267 -1.2139  1.0300
 2071TIP3    H2 6220   4.547   1.418   2.378  0.3617 -0.0208  0.3466
 2072TIP3   OH2 6221   3.113   1.150   4.140  0.1428  0.3845  0.0134
 2072TIP3    H1 6222   3.091   1.153   4.233  0.1587 -0.0354  0.0342
 2072TIP3    H2 6223   3.081   1.233   4.105  1.3959  1.1809  0.6675
 2073TIP3   OH2 6224   1.324   4.726   0.415 -0.1632  0.1843 -0.1415
 2073TIP3    H1 6225   1.364   4.786   0.352 -0.2554  1.4038  0.9357
 2073TIP3    H2 6226   1.397   4.698   0.471 -0.0760 -0.9203 -0.7604
 2074TIP3   OH2 6227   1.561   4.264   3.032 -0.1828 -0.1409  0.3831
 2074TIP3    H1 6228   1.572   4.169   3.043 -1.7121 -0.1899  1.8908
 2074TIP3    H2 6229   1.631   4.302   3.086  1.3975 -0.3436 -1.4044
 2075TIP3   OH2 6230   3.579   5.698   4.215  0.1173  0.3722 -0.0756
 2075TIP3    H1 6231   3.592   5.678   4.123  1.0761 -0.5924  0.2600
 2075TIP3    H2 6232   3.662   5.676   4.257 -0.7269 -0.4834  1.2186
 2076TIP3   OH2 6233   4.454   5.791   3.320 -0.0971  0.4999 -0.5054
 2076TIP3    H1 6234   4.367   5.831   3.328 -0.1724  0.0795  1.0402
 2076TIP3    H2 6235   4.449   5.741   3.238 -1.0109  1.1894 -0.8973
 2077TIP3   OH2 6236   5.843   1.301   4.083 -0.2297  0.2440 -0.1773
 2077TIP3    H1 6237   5.914   1.348   4.038 -0.6531  1.8588  0.7372
 2077TIP3    H2 6238   5.807   1.243   4.017  1.9343 -0.6414 -0.6674
 2078TIP3   OH2 6239   0.943   2.071   4.565  0.0769  0.8043  0.0417
 2078TIP3    H1 6240   1.018   2.126   4.585  1.2795 -0.8733  0.3791
 2078TIP3    H2 6241   0.957   2.043   4.475 -1.1707  1.9955 -0.5506
 2079TIP3   OH2 6242   0.725   3.547   1.324 -0.1812  0.0960  0.0506
 2079TIP3    H1 6243   0.769   3.629   1.301 -1.2461  0.1800 -1.8934
 2079TIP3    H2 6244   0.788   3.479   1.301 -0.3349  0.2831 -0.9817
 2080TIP3   OH2 6245   5.056   1.834   4.287 -0.1241 -0.0294 -0.0355
 2080TIP3    H1 6246   4.964   1.860   4.278  0.0944  0.5868 -0.5984
 2080TIP3    H2 6247   5.054   1.757   4.344 -1.0560 -0.4976 -0.6760
 2081TIP3   OH2 6248   4.736   5.112   0.025 -0.2491  0.3817  0.0222
 2081TIP3    H1 6249   4.676   5.185   0.038 -0.1592  0.4471  0.0678
 2081TIP3    H2 6250   4.714   5.077  -0.061  0.9552  1.6253 -0.8293
 2082TIP3   OH2 6251   3.774   0.982   1.954 -0.3818  0.7645 -0.5204
 2082TIP3    H1 6252   3.771   0.895   1.915  0.4996  0.2172  0.5671
 2082TIP3    H2 6253   3.836   1.031   1.900  2.0245 -0.4458  0.9778
 2083TIP3   OH2 6254   1.971   4.064   2.764  0.1155 -0.2551 -0.5183
 2083TIP3    H1 6255   1.934   3.977   2.747 -0.1166 -0.2893  0.1306
 2083TIP3    H2 6256   1.896   4.118   2.787  0.4535 -0.3280  0.8146
 2084TIP3   OH2 6257   2.646   1.938   2.363  0.2617 -0.2166  0.1399
 2084TIP3    H1 6258   2.689   1.874   2.306  0.7125  0.7121 -0.5931
 2084TIP3    H2 6259   2.570   1.967   2.312  0.2020  0.0251  0.3657
 2085TIP3   OH2 6260   3.311   3.294   0.248 -0.5908  0.0152  0.3309
 2085TIP3    H1 6261   3.341   3.289   0.339  1.2758  0.7906 -0.1967
 2085TIP3    H2 6262   3.263   3.212   0.234  0.8188 -1.0504  1.4299
 2086TIP3   OH2 6263   2.904   0.141   2.253 -0.1560  0.3695  0.0040
 2086TIP3    H1 6264   2.823   0.190   2.269  0.0239  0.6410  0.0862
 2086TIP3    H2 6265   2.904   0.123   2.159  1.7789  4.1466 -0.9241
 2087TIP3   OH2 6266   1.902   1.457   2.733  0.0414  0.4790  0.1967
 2087TIP3    H1 6267   1.824   1.434   2.682  0.7986  0.2724 -0.8877
 2087TIP3    H2 6268   1.880   1.432   2.822 -0.7498 -0.5582 -0.2714
 2088TIP3   OH2 6269   1.402   4.619   1.276  0.6077  0.4428  0.1346
 2088TIP3    H1 6270   1.320   4.570   1.269  1.5072 -0.8835 -2.2560
 2088TIP3    H2 6271   1.388   4.697   1.222  0.8795  0.2376 -0.2386
 2089TIP3   OH2 6272   5.669   2.435   0.434 -0.2536  0.5700  0.3793
 2089TIP3    H1 6273   5.627   2.505   0.483  0.9137  0.8317  1.0229
 2089TIP3    H2 6274   5.713   2.479   0.362 -0.9768  0.3010 -0.2485
 2090TIP3   OH2 6275   3.087   3.157   0.715  0.4046  0.4279  0.1501
 2090TIP3    H1 6276   3.110   3.141   0.624 -1.4614 -2.6919  0.0846
 2090TIP3    H2 6277   3.165   3.129   0.765  0.5194 -0.2901 -0.4145
 2091TIP3   OH2 6278   2.822   5.276   4.234 -0.3110 -0.5628  0.8540
 2091TIP3    H1 6279   2.780   5.362   4.239  0.0182 -0.3805  0.5295
 2091TIP3    H2 6280   2.864   5.275   4.148 -1.8012 -1.7531  0.0927
 2092TIP3   OH2 6281   5.160   3.576   3.886  0.0480  0.3722 -0.1262
 2092TIP3    H1 6282   5.119   3.490   3.886 -2.3039  1.4182 -0.8999
 2092TIP3    H2 6283   5.205   3.580   3.802 -0.5750  0.2186 -0.4733
 2093TIP3   OH2 6284   0.207   5.664   3.358 -0.2644 -0.1912 -0.1129
 2093TIP3    H1 6285   0.199   5.659   3.454  1.1186  1.0358  0.1099
 2093TIP3    H2 6286   0.283   5.610   3.338 -1.6690 -1.9999 -0.7775
 2094TIP3   OH2 6287   5.884   3.766   4.348 -0.0320 -0.2601  0.0147
 2094TIP3    H1 6288   5.944   3.823   4.300 -1.7371  0.5468 -1.2707
 2094TIP3    H2 6289   5.798   3.786   4.311 -0.7475 -3.6121 -0.3852
 2095TIP3   OH2 6290   2.450   1.449  -0.015  0.4325 -0.6786 -0.2397
 2095TIP3    H1 6291   2.422   1.408   0.067  0.6071 -2.7241 -1.1609
 2095TIP3    H2 6292   2.471   1.539   0.010  1.2196 -1.4389  2.1280
 2096TIP3   OH2 6293   5.423   0.424   3.452 -0.4915 -0.2861 -0.1116
 2096TIP3    H1 6294   5.404   0.511   3.417 -0.8230  0.6684  2.2578
 2096TIP3    H2 6295   5.343   0.398   3.498  0.0203 -1.3022  0.2320
 2097TIP3   OH2 6296   5.705   2.414   3.951  0.0473 -0.2696 -0.6250
 2097TIP3    H1 6297   5.699   2.373   3.865 -0.3389 -1.4736 -0.0585
 2097TIP3    H2 6298   5.781   2.472   3.945  0.2268 -0.5936 -1.6722
 2098TIP3   OH2 6299   1.628   4.237   0.230 -0.2562 -0.1107  0.1969
 2098TIP3    H1 6300   1.651   4.148   0.256 -0.2916  0.3080  1.7815
 2098TIP3    H2 6301   1.586   4.275   0.308 -0.1842  1.3029 -0.4126
 2099TIP3   OH2 6302   5.367   3.762   3.599  0.3519  0.1198  0.1100
 2099TIP3    H1 6303   5.303   3.703   3.559  1.2220  0.0508 -1.2305
 2099TIP3    H2 6304   5.385   3.724   3.685 -1.1068 -0.0658  0.3569
 2100TIP3   OH2 6305   5.479   4.672   3.076 -0.2737 -0.1462  0.0178
 2100TIP3    H1 6306   5.540   4.731   3.121 -0.7892  0.6043 -0.2514
 2100TIP3    H2 6307   5.446   4.723   3.002 -1.4667 -0.4227  0.3342
 2101TIP3   OH2 6308   0.978   0.390   4.531  0.5717 -0.0022  0.4025
 2101TIP3    H1 6309   0.955   0.384   4.438  0.3801 -3.1452  0.5256
 2101TIP3    H2 6310   0.931   0.317   4.571  1.7338  0.4450  2.7484
 2102TIP3   OH2 6311   1.746   5.676   0.349 -0.2006  0.0521  0.0413
 2102TIP3    H1 6312   1.674   5.631   0.393 -1.9933  1.4939 -1.2114
 2102TIP3    H2 6313   1.738   5.650   0.258  1.1036 -0.0335 -0.0556
 2103TIP3   OH2 6314   0.512   2.840   0.989  0.6024 -0.3058  0.0662
 2103TIP3    H1 6315   0.489   2.903   1.057 -0.2678 -0.6063  0.0704
 2103TIP3    H2 6316   0.503   2.889   0.907  2.2977  0.2438  0.1783
 2104TIP3   OH2 6317   2.753   2.185   2.945  0.4294  0.3133 -0.3217
 2104TIP3    H1 6318   2.790   2.119   3.005 -0.2093 -1.6409 -1.9816
 2104TIP3    H2 6319   2.820   2.253   2.942  0.3207  0.7585  2.8955
 2105TIP3   OH2 6320   3.800   4.765   4.671 -0.6986  0.7801 -0.0047
 2105TIP3    H1 6321   3.843   4.833   4.619 -1.3367  1.2117  0.0296
 2105TIP3    H2 6322   3.718   4.747   4.625  0.2490 -1.2386 -1.0041
 2106TIP3   OH2 6323   5.699   4.992   2.798 -0.5025  0.0355  0.3151
 2106TIP3    H1 6324   5.693   5.017   2.890 -0.1828 -2.1139  0.9684
 2106TIP3    H2 6325   5.612   5.007   2.763 -0.2935  2.1534  0.5704
 2107TIP3   OH2 6326   2.788   4.723   0.039  0.3521  0.3298  0.3595
 2107TIP3    H1 6327   2.717   4.788   0.041  0.4587  0.4963 -0.5147
 2107TIP3    H2 6328   2.746   4.642   0.010  0.4415  0.3298  0.2270
 2108TIP3   OH2 6329   1.498   2.264   0.394  0.3551 -0.6148  0.2173
 2108TIP3    H1 6330   1.556   2.204   0.440  0.4467  0.0179  0.9411
 2108TIP3    H2 6331   1.509   2.348   0.439 -2.5715 -0.8775  1.7163
 2109TIP3   OH2 6332   1.616   1.178   4.979  0.0323  0.4762  0.0147
 2109TIP3    H1 6333   1.607   1.250   4.917 -0.2221 -0.0448 -0.5536
 2109TIP3    H2 6334   1.615   1.221   5.065  0.3196  1.1895 -0.3330
 2110TIP3   OH2 6335   4.641   5.573   3.825 -0.1675  0.2526  0.1135
 2110TIP3    H1 6336   4.714   5.514   3.805  1.2479  1.2169  2.0929
 2110TIP3    H2 6337   4.600   5.534   3.902 -0.6924  0.6156  0.0201
 2111TIP3   OH2 6338   5.570   1.759   1.856 -0.2500 -0.2096 -0.0917
 2111TIP3    H1 6339   5.665   1.764   1.858 -0.1891 -1.1079 -0.2907
 2111TIP3    H2 6340   5.546   1.725   1.943 -0.3507 -0.4857 -0.2266
 2112TIP3   OH2 6341   0.566   5.052   2.890 -0.2809 -0.8629 -0.0282
 2112TIP3    H1 6342   0.640   5.104   2.920 -1.0976  0.2550  0.1413
 2112TIP3    H2 6343   0.505   5.053   2.964 -1.1842 -0.3003 -0.7486
 2113TIP3   OH2 6344   5.838   1.531   2.595 -0.2647 -0.2579 -0.3170
 2113TIP3    H1 6345   5.869   1.484   2.673 -0.0633 -0.7779 -0.7052
 2113TIP3    H2 6346   5.789   1.466   2.546 -1.3099  0.3582 -0.1058
 2114TIP3   OH2 6347   2.278   3.039   3.584 -0.1253  0.9355  0.1259
 2114TIP3    H1 6348   2.294   3.130   3.559 -0.3920  1.0301  0.3014
 2114TIP3    H2 6349   2.192   3.040   3.626 -0.5492  0.4473 -0.7024
 2115TIP3   OH2 6350   3.482   4.382   4.427 -0.3827  0.3436 -0.0079
 2115TIP3    H1 6351   3.479   4.327   4.505  0.5677 -0.7484 -0.7141
 2115TIP3    H2 6352   3.441   4.329   4.358  0.6985  0.4113 -0.7394
 2116TIP3   OH2 6353   5.242   2.983   3.859  0.0754 -0.1511 -0.4054
 2116TIP3    H1 6354   5.197   2.994   3.943 -0.1235 -0.5071 -0.4601
 2116TIP3    H2 6355   5.335   2.980   3.882 -0.0111 -0.9394 -0.1114
 2117TIP3   OH2 6356   4.038   0.683   5.044  0.6085 -0.2071  0.2549
 2117TIP3    H1 6357   3.945   0.678   5.068 -0.2835 -0.1453 -2.7868
 2117TIP3    H2 6358   4.061   0.593   5.020  0.5419  0.1859 -1.4250
 2118TIP3   OH2 6359   0.676   2.267   0.393  0.4670 -0.3959 -1.0682
 2118TIP3    H1 6360   0.637   2.210   0.327 -0.7197  1.0926 -1.7327
 2118TIP3    H2 6361   0.752   2.219   0.426  0.0877 -1.8956 -2.2866
 2119TIP3   OH2 6362   5.024   5.352   1.172  0.5082 -0.3083  0.0503
 2119TIP3    H1 6363   5.009   5.285   1.240 -0.1513 -1.0348 -0.7833
 2119TIP3    H2 6364   4.990   5.433   1.210 -0.3173 -0.8087  0.4005
 2120TIP3   OH2 6365   6.281   3.822   3.357 -0.9884  0.2060  0.3782
 2120TIP3    H1 6366   6.260   3.736   3.392 -0.7144  0.2802  0.7278
 2120TIP3    H2 6367   6.376   3.820   3.344 -1.0720  0.2153 -0.2660
 2121TIP3   OH2 6368   1.517   0.270   3.746 -0.0680 -0.1076 -0.3418
 2121TIP3    H1 6369   1.469   0.201   3.700 -0.0556 -0.7783  0.5975
 2121TIP3    H2 6370   1.469   0.281   3.828 -1.2788  2.4646 -1.2880
 2122TIP3   OH2 6371   2.900   1.571   5.080 -0.8393  0.0304  0.0153
 2122TIP3    H1 6372   2.853   1.501   5.126 -0.3532 -0.8169 -0.7368
 2122TIP3    H2 6373   2.992   1.545   5.086 -0.2854  2.1569  2.3205
 2123TIP3   OH2 6374   2.359   0.616   1.739 -0.0571 -0.0772  0.5457
 2123TIP3    H1 6375   2.391   0.562   1.667 -0.0261 -0.8457  1.1182
 2123TIP3    H2 6376   2.394   0.703   1.722 -0.3909 -0.1496 -0.5815
 2124TIP3   OH2 6377   3.396   0.552   4.432  1.3180  0.9636 -0.0461
 2124TIP3    H1 6378   3.392   0.510   4.518 -0.1551  1.5409  0.2052
 2124TIP3    H2 6379   3.320   0.516   4.385  2.2916  0.4028 -1.2345
 2125TIP3   OH2 6380   4.511   5.313   2.137 -0.1180  0.0490  0.0354
 2125TIP3    H1 6381   4.596   5.310   2.180 -0.5864 -0.1111  0.9791
 2125TIP3    H2 6382   4.488   5.406   2.135  0.4198  0.1755 -0.9401
 2126TIP3   OH2 6383   0.455   4.604   4.229 -0.7211 -0.4992  0.1941
 2126TIP3    H1 6384   0.524   4.582   4.167 -0.4574 -0.8819  0.6176
 2126TIP3    H2 6385   0.391   4.534   4.221 -0.3593 -0.9137  0.8327
 2127TIP3   OH2 6386   3.995   5.621   2.345  0.3670  0.5136 -0.0865
 2127TIP3    H1 6387   3.934   5.653   2.412  0.5969  0.8171 -0.0177
 2127TIP3    H2 6388   4.050   5.559   2.391 -0.0971 -0.0064 -0.2259
 2128TIP3   OH2 6389   1.367   4.308   1.585  0.0087  0.1134  0.0015
 2128TIP3    H1 6390   1.435   4.366   1.552 -1.7771  1.4261 -1.6151
 2128TIP3    H2 6391   1.305   4.299   1.512 -1.2450 -1.5061  1.1812
 2129TIP3   OH2 6392   5.561   2.847   2.586 -0.4633 -0.2819  0.2358
 2129TIP3    H1 6393   5.500   2.812   2.522 -0.0556 -0.1734 -0.2212
 2129TIP3    H2 6394   5.525   2.933   2.608 -0.0841  0.0986 -0.5952
 2130TIP3   OH2 6395   3.874   2.230   0.452  0.3894 -0.5397  0.5312
 2130TIP3    H1 6396   3.780   2.231   0.470  0.3974  0.1197  0.5245
 2130TIP3    H2 6397   3.883   2.165   0.382 -0.2577  0.4684 -0.5323
 2131TIP3   OH2 6398   1.950   4.329   0.414  0.5910 -0.4379  0.2363
 2131TIP3    H1 6399   1.924   4.402   0.358 -0.3787  0.0668  1.3054
 2131TIP3    H2 6400   1.953   4.254   0.354 -1.3827 -0.1065 -0.3701
 2132TIP3   OH2 6401   6.048   0.358   3.081 -0.1789 -0.5839 -0.0205
 2132TIP3    H1 6402   5.972   0.373   3.025  0.3756  0.4515 -0.5223
 2132TIP3    H2 6403   6.091   0.444   3.087  0.9515 -1.1513  0.2474
 2133TIP3   OH2 6404   5.323   4.233   4.316  0.5389 -0.5923  0.5773
 2133TIP3    H1 6405   5.311   4.145   4.280  1.4988 -0.2974 -0.5399
 2133TIP3    H2 6406   5.417   4.249   4.309  0.2382  0.9857 -0.4147
 2134TIP3   OH2 6407   1.870   4.641   0.854  0.0005 -0.3092  0.4149
 2134TIP3    H1 6408   1.814   4.597   0.790 -1.0502  1.4395  0.0615
 2134TIP3    H2 6409   1.895   4.723   0.812 -0.1092  0.5529  1.9416
 2135TIP3   OH2 6410   1.717   2.670   1.885 -0.6306  0.0552 -0.2981
 2135TIP3    H1 6411   1.773   2.706   1.954 -1.4646 -0.7730  0.8431
 2135TIP3    H2 6412   1.694   2.746   1.832  0.4993  0.6199 -0.0150
 2136TIP3   OH2 6413   4.781   0.046   2.547 -0.0009 -0.5514  0.3934
 2136TIP3    H1 6414   4.686   0.040   2.536 -0.1447  0.3639  0.9966
 2136TIP3    H2 6415   4.799   0.140   2.545  0.7274 -0.6514  1.4613
 2137TIP3   OH2 6416   2.693   1.460   2.272  0.4222 -0.1054  0.4165
 2137TIP3    H1 6417   2.660   1.428   2.188 -1.2309  0.0274  0.9859
 2137TIP3    H2 6418   2.777   1.415   2.283  1.5400  1.1737 -2.0717
 2138TIP3   OH2 6419   5.227   4.618   0.597  0.3212  0.2941 -0.0617
 2138TIP3    H1 6420   5.191   4.643   0.682  0.2223 -0.8828  0.2667
 2138TIP3    H2 6421   5.322   4.622   0.609  0.3318 -1.1174  0.5275
 2139TIP3   OH2 6422   3.124   3.661   4.731  0.0562  0.3021  0.4160
 2139TIP3    H1 6423   3.168   3.585   4.769  0.3833  1.0402  1.5882
 2139TIP3    H2 6424   3.053   3.681   4.793 -0.0074  0.9703  0.1361
 2140TIP3   OH2 6425   2.201   1.947   1.031  0.0135  0.7809  0.1024
 2140TIP3    H1 6426   2.112   1.911   1.023  1.0211 -1.5465 -1.7922
 2140TIP3    H2 6427   2.247   1.886   1.089  1.4665 -0.5755 -2.3262
 2141TIP3   OH2 6428   1.535   5.946   3.155 -0.1666  0.3807 -0.0542
 2141TIP3    H1 6429   1.570   5.883   3.091 -2.5554  1.0740 -2.2330
 2141TIP3    H2 6430   1.501   6.018   3.101 -1.9047  1.2284  2.0270
 2142TIP3   OH2 6431   2.510   0.926   5.075  0.2097 -0.6037  0.3702
 2142TIP3    H1 6432   2.561   0.857   5.032  1.0411 -1.2642  2.3137
 2142TIP3    H2 6433   2.573   0.997   5.089 -0.2915 -0.0094 -0.3457
 2143TIP3   OH2 6434   0.495   1.858   1.231 -0.1627  0.0806 -0.2263
 2143TIP3    H1 6435   0.444   1.849   1.312  0.4628  0.3511  0.2122
 2143TIP3    H2 6436   0.431   1.885   1.165 -0.1288  4.0285  1.0650
 2144TIP3   OH2 6437   4.410   3.351   3.236  0.1093  0.5563  0.6634
 2144TIP3    H1 6438   4.470   3.426   3.242  0.8426  0.1311 -0.7873
 2144TIP3    H2 6439   4.467   3.274   3.245 -0.0153  0.1241 -1.6358
 2145TIP3   OH2 6440   1.915   5.228   2.385 -0.0702  0.0643  0.3838
 2145TIP3    H1 6441   1.872   5.301   2.341 -0.8344 -1.3744 -1.3563
 2145TIP3    H2 6442   1.844   5.176   2.422  0.2821 -1.0868 -0.5002
 2146TIP3   OH2 6443   4.139   4.277   0.108  0.2802 -0.1067  0.2874
 2146TIP3    H1 6444   4.157   4.216   0.036 -1.7823  1.2209 -1.4809
 2146TIP3    H2 6445   4.204   4.346   0.098 -1.0255  0.9533 -1.4768
 2147TIP3   OH2 6446   3.151   3.592   0.869  0.6247  0.4747 -0.1598
 2147TIP3    H1 6447   3.106   3.666   0.909  1.0242  1.6163 -1.7248
 2147TIP3    H2 6448   3.082   3.530   0.847  0.3890 -0.1886  2.1741
 2148TIP3   OH2 6449   2.867   0.299   4.685 -0.0527  0.6874  0.3952
 2148TIP3    H1 6450   2.928   0.372   4.676  1.0299 -0.2679 -0.2516
 2148TIP3    H2 6451   2.826   0.291   4.599  0.4964 -0.0237  0.1911
 2149TIP3   OH2 6452   5.530   1.211   1.070 -0.0300  0.0067 -0.7959
 2149TIP3    H1 6453   5.507   1.244   0.983  0.4607 -2.3869 -1.9245
 2149TIP3    H2 6454   5.576   1.128   1.053 -0.5509 -0.9035  1.7610
 2150TIP3   OH2 6455   1.947   4.057   0.935 -0.4542  0.0971 -0.0445
 2150TIP3    H1 6456   1.974   4.064   1.027 -0.4197  2.1473 -0.1650
 2150TIP3    H2 6457   1.852   4.062   0.937 -0.4392  0.5066 -0.1196
 2151TIP3   OH2 6458   2.712   3.977   0.380  0.2395 -0.2357  0.0751
 2151TIP3    H1 6459   2.654   4.017   0.444 -1.2143 -0.9709 -0.7315
 2151TIP3    H2 6460   2.790   3.952   0.430  0.8385  2.7332  0.7698
 2152TIP3   OH2 6461   1.203   3.911   0.183 -0.1035  0.0450 -0.4655
 2152TIP3    H1 6462   1.107   3.908   0.185 -0.0894 -0.6567 -0.6590
 2152TIP3    H2 6463   1.224   4.004   0.186 -0.7748  0.1835  0.3170
 2153TIP3   OH2 6464   4.260   3.420   4.397  0.0722  0.0756 -0.0530
 2153TIP3    H1 6465   4.202   3.414   4.473  0.1839  0.7906  0.0919
 2153TIP3    H2 6466   4.202   3.417   4.321 -0.1108  0.2165  0.0809
 2154TIP3   OH2 6467   3.687   3.729   0.684  0.4596 -0.1697 -0.0347
 2154TIP3    H1 6468   3.658   3.761   0.770 -0.4498 -2.6185  0.6310
 2154TIP3    H2 6469   3.684   3.807   0.628 -1.6144  0.9235  1.4657
 2155TIP3   OH2 6470   5.689   4.179   1.195 -0.8730  0.3207  0.2287
 2155TIP3    H1 6471   5.610   4.206   1.242  0.6027  0.3290  2.8738
 2155TIP3    H2 6472   5.760   4.231   1.234  0.7714 -1.2241 -0.5532
 2156TIP3   OH2 6473   3.097   5.848   4.169 -0.2497  0.0418 -0.0174
 2156TIP3    H1 6474   3.014   5.883   4.202 -0.6204 -1.7113  1.0713
 2156TIP3    H2 6475   3.164   5.884   4.226 -0.7405 -1.7880  1.8355
 2157TIP3   OH2 6476   1.255   3.083   1.383  0.3204  0.0973  0.1376
 2157TIP3    H1 6477   1.230   2.992   1.394  1.1215 -0.3664 -1.4445
 2157TIP3    H2 6478   1.296   3.108   1.466 -0.8312 -0.6305  0.9559
 2158TIP3   OH2 6479   2.318   2.754   2.390 -0.2528 -0.3483 -0.1440
 2158TIP3    H1 6480   2.242   2.738   2.334 -1.3204  0.2951  1.0673
 2158TIP3    H2 6481   2.305   2.698   2.466  0.1384  0.2560  0.3846
 2159TIP3   OH2 6482   5.196   5.149  -0.024 -0.3581 -0.3107 -1.1195
 2159TIP3    H1 6483   5.213   5.104   0.059  0.9024 -0.6793 -1.5503
 2159TIP3    H2 6484   5.214   5.241  -0.007 -2.4108  0.0052 -0.3797
 2160TIP3   OH2 6485   4.082   5.634   3.136 -0.0586  0.2236  0.1257
 2160TIP3    H1 6486   4.039   5.645   3.220 -0.2025  0.3484  0.0351
 2160TIP3    H2 6487   4.050   5.706   3.082  0.5214  0.5201  0.1649
 2161TIP3   OH2 6488   6.359   2.678   0.543  0.6553  0.3926 -0.0165
 2161TIP3    H1 6489   6.278   2.730   0.538 -1.3066 -2.2409  1.5295
 2161TIP3    H2 6490   6.387   2.687   0.634  1.1953  0.0381 -0.1448
 2162TIP3   OH2 6491   3.820   4.080   4.100 -0.2786 -0.4274 -0.4281
 2162TIP3    H1 6492   3.776   4.154   4.058  1.2536  0.6918 -0.1211
 2162TIP3    H2 6493   3.909   4.110   4.117  0.1686 -2.0771  0.4285
 2163TIP3   OH2 6494   2.989   3.273   4.790 -0.1517 -0.0441 -0.2801
 2163TIP3    H1 6495   2.944   3.336   4.847 -2.7485 -0.9100 -1.2655
 2163TIP3    H2 6496   2.979   3.309   4.702 -2.1877 -2.0355 -0.9308
 2164TIP3   OH2 6497   3.596   1.824   3.882  0.4978  0.8144 -0.4056
 2164TIP3    H1 6498   3.540   1.796   3.810  0.6310 -0.4313 -0.0404
 2164TIP3    H2 6499   3.544   1.810   3.960  1.2603 -0.2596 -0.0681
 2165TIP3   OH2 6500   4.925   1.362   3.840 -0.2097 -0.0088  0.7047
 2165TIP3    H1 6501   4.881   1.367   3.755  1.0350  2.0472  0.1066
 2165TIP3    H2 6502   5.002   1.306   3.824  0.1461  0.5585  0.3883
 2166TIP3   OH2 6503   6.294   2.818   0.204 -1.0090 -0.3600  0.2530
 2166TIP3    H1 6504   6.274   2.742   0.149  0.8069 -1.4013  0.9380
 2166TIP3    H2 6505   6.213   2.837   0.250 -2.3268 -0.0369 -2.0279
 2167TIP3   OH2 6506   3.498   1.378   2.631  0.9392 -0.4065  0.0036
 2167TIP3    H1 6507   3.472   1.327   2.708  2.0224 -1.9527 -0.6155
 2167TIP3    H2 6508   3.416   1.392   2.583  0.5015 -0.8410  0.6081
 2168TIP3   OH2 6509   6.320   0.304   3.565 -0.1763 -0.4869  0.0450
 2168TIP3    H1 6510   6.295   0.393   3.540  0.5756 -0.7667 -1.8904
 2168TIP3    H2 6511   6.245   0.270   3.612 -0.9291  0.7905 -0.1875
 2169TIP3   OH2 6512   3.423   1.702   3.470  0.3039  0.2191  0.3596
 2169TIP3    H1 6513   3.518   1.710   3.472  0.3727 -0.3729 -0.2779
 2169TIP3    H2 6514   3.403   1.644   3.544  0.7005 -1.8537 -1.0612
 2170TIP3   OH2 6515   2.179   1.393   2.769  0.5462 -0.0785  1.1154
 2170TIP3    H1 6516   2.157   1.301   2.786  0.7547  0.2439  3.3877
 2170TIP3    H2 6517   2.105   1.442   2.804  0.7345  0.6732  0.4931
 2171TIP3   OH2 6518   2.185   3.525   1.396 -0.5286  0.0487 -0.4296
 2171TIP3    H1 6519   2.224   3.460   1.455 -1.8017 -1.7000 -1.4158
 2171TIP3    H2 6520   2.257   3.585   1.376  0.3889 -0.3301  1.4507
 2172TIP3   OH2 6521   0.851   1.329   0.313  0.3930 -0.5562  0.9116
 2172TIP3    H1 6522   0.781   1.366   0.366  1.2156  0.2565  1.4723
 2172TIP3    H2 6523   0.930   1.377   0.341  0.7131  0.6242 -1.7608
 2173TIP3   OH2 6524   2.228   2.676   0.037 -0.3863 -0.0032  0.1806
 2173TIP3    H1 6525   2.220   2.640   0.125 -1.6423  2.3611  1.1151
 2173TIP3    H2 6526   2.148   2.649  -0.008 -0.2920 -0.2280  0.1475
 2174TIP3   OH2 6527   3.660   2.913   1.442  0.0081  0.3246  0.6363
 2174TIP3    H1 6528   3.597   2.945   1.377  0.2581 -0.4220  0.0047
 2174TIP3    H2 6529   3.614   2.843   1.488  0.0617  0.4007  0.8076
 2175TIP3   OH2 6530   2.161   3.121   1.325  0.1944  0.2091  0.0641
 2175TIP3    H1 6531   2.200   3.136   1.411  2.9905 -0.7652 -0.9103
 2175TIP3    H2 6532   2.162   3.026   1.314 -1.3075  0.2426 -0.5597
 2176TIP3   OH2 6533   0.609   1.316   1.217  0.3950  0.3005 -0.0775
 2176TIP3    H1 6534   0.520   1.331   1.251  0.6227  3.0453 -0.4436
 2176TIP3    H2 6535   0.666   1.334   1.292  0.6889  0.1024 -0.2542
 2177TIP3   OH2 6536   1.471   4.900   1.788  0.0800 -0.2158 -0.4784
 2177TIP3    H1 6537   1.561   4.913   1.817 -0.2519  0.4777  0.2552
 2177TIP3    H2 6538   1.430   4.849   1.857 -0.4099  0.4810 -0.2487
 2178TIP3   OH2 6539   1.711   0.014   0.640  0.7402 -0.4577 -0.3974
 2178TIP3    H1 6540   1.753  -0.043   0.575  1.7192 -0.1457 -0.0479
 2178TIP3    H2 6541   1.693   0.095   0.593  1.8133 -0.0871 -0.1870
 2179TIP3   OH2 6542   1.311   4.110   3.221 -0.5194  0.0701  0.1060
 2179TIP3    H1 6543   1.296   4.120   3.127 -3.2553 -1.3230  0.3114
 2179TIP3    H2 6544   1.239   4.159   3.262 -0.7503 -1.2938  1.4122
 2180TIP3   OH2 6545   5.912   4.347   0.835 -0.5162  0.0474  0.9232
 2180TIP3    H1 6546   5.854   4.272   0.842  1.1763 -1.3753  0.3570
 2180TIP3    H2 6547   5.975   4.323   0.767  0.2525  1.8638  0.9260
 2181TIP3   OH2 6548   1.402   4.964   5.143 -0.0533 -0.0280  0.1655
 2181TIP3    H1 6549   1.402   4.885   5.198  0.3871 -1.9097 -2.3897
 2181TIP3    H2 6550   1.310   4.976   5.118 -0.2645  0.8706  1.2884
 2182TIP3   OH2 6551   1.087   2.299   3.386  0.3736 -0.1898 -0.2260
 2182TIP3    H1 6552   1.012   2.358   3.393  0.0133 -0.8593  3.3389
 2182TIP3    H2 6553   1.050   2.212   3.398  1.4919 -0.7081 -0.4579
 2183TIP3   OH2 6554   6.300   5.601   3.299  0.1057 -0.4227 -0.0184
 2183TIP3    H1 6555   6.256   5.640   3.375  0.0519 -1.1057  0.3017
 2183TIP3    H2 6556   6.383   5.648   3.293  0.6251 -1.1432  1.1680
 2184TIP3   OH2 6557   0.981   2.061   0.128 -0.7300  0.3788 -0.1462
 2184TIP3    H1 6558   1.050   2.068   0.063  1.3473 -2.2182  1.5745
 2184TIP3    H2 6559   0.910   2.015   0.084  1.5845 -3.6486 -0.1733
 2185TIP3   OH2 6560   6.084   5.065   5.005  0.5298 -0.4944 -0.0851
 2185TIP3    H1 6561   6.121   5.018   5.080 -1.9466 -0.9339  0.9312
 2185TIP3    H2 6562   6.117   5.018   4.929  2.9747 -0.1289  0.6632
 2186TIP3   OH2 6563   3.412   3.075   4.748  0.1090 -0.7226 -0.1222
 2186TIP3    H1 6564   3.403   3.103   4.657  1.2840 -1.3043 -0.4342
 2186TIP3    H2 6565   3.322   3.062   4.777 -0.5513  3.0296  0.0081
 2187TIP3   OH2 6566   2.203   1.848   3.912 -0.2454  0.0099  0.1568
 2187TIP3    H1 6567   2.133   1.909   3.887 -1.4586 -2.0844 -2.0805
 2187TIP3    H2 6568   2.261   1.899   3.968 -0.8229  3.3736 -2.0107
 2188TIP3   OH2 6569   0.204   4.890   4.047 -0.6163 -0.0457 -0.1195
 2188TIP3    H1 6570   0.274   4.936   4.094 -1.3338  1.0121 -0.0433
 2188TIP3    H2 6571   0.205   4.802   4.084  0.5050  0.0183  0.0612
 2189TIP3   OH2 6572   4.529   2.212   0.131  0.4175 -0.3777  0.1774
 2189TIP3    H1 6573   4.531   2.226   0.226  1.7459  1.0217 -0.0172
 2189TIP3    H2 6574   4.615   2.174   0.111  0.1312 -0.6898 -0.4609
 2190TIP3   OH2 6575   4.323   0.693   2.191 -0.1694 -0.2248  0.4792
 2190TIP3    H1 6576   4.358   0.720   2.276  3.6962 -0.8491 -0.7294
 2190TIP3    H2 6577   4.310   0.599   2.199 -3.3202  0.1726  1.3596
 2191TIP3   OH2 6578   2.328   4.135   1.427 -0.3544 -0.0896  0.0476
 2191TIP3    H1 6579   2.329   4.074   1.500  0.4203 -1.2595 -0.8894
 2191TIP3    H2 6580   2.295   4.217   1.464  0.3213 -0.5502  1.7586
 2192TIP3   OH2 6581   5.571   2.702   1.678  0.1169 -0.6528  0.5774
 2192TIP3    H1 6582   5.600   2.670   1.593 -2.1367 -2.8126  0.5101
 2192TIP3    H2 6583   5.528   2.786   1.659  3.6804  1.3459  0.3714
 2193TIP3   OH2 6584   4.660   1.696   0.076 -0.1054  0.4550  0.3073
 2193TIP3    H1 6585   4.754   1.681   0.086  0.0947  0.2216 -1.6079
 2193TIP3    H2 6586   4.621   1.610   0.083  0.1542  0.1140 -1.7321
 2194TIP3   OH2 6587   2.838   0.865   1.625 -0.4303 -0.0189  0.1678
 2194TIP3    H1 6588   2.832   0.951   1.584  1.3678 -0.5690 -1.4026
 2194TIP3    H2 6589   2.917   0.870   1.679  0.4196 -0.9966 -0.9084
 2195TIP3   OH2 6590   4.445   5.683   4.084 -0.3687  0.0294 -0.2480
 2195TIP3    H1 6591   4.433   5.771   4.119 -0.8931  0.1135 -0.6405
 2195TIP3    H2 6592   4.431   5.691   3.990 -0.5899 -0.5028 -0.2687
 2196TIP3   OH2 6593   6.326   3.892   2.959  0.6766 -0.3287 -0.3042
 2196TIP3    H1 6594   6.232   3.884   2.977  0.5102 -0.8603 -1.3581
 2196TIP3    H2 6595   6.337   3.983   2.934  0.1605 -0.5917 -1.6038
 2197TIP3   OH2 6596   5.326   0.195   2.974  0.1256  0.2148 -0.5759
 2197TIP3    H1 6597   5.262   0.263   2.951 -1.2481 -0.2844  1.4792
 2197TIP3    H2 6598   5.305   0.122   2.915  1.1040  1.2321 -2.2635
 2198TIP3   OH2 6599   2.546   2.438  -0.017  0.0025  0.5640 -0.1737
 2198TIP3    H1 6600   2.489   2.367   0.010 -0.5726  1.4565  1.0692
 2198TIP3    H2 6601   2.632   2.415   0.020  0.2257 -0.2555 -1.1522
 2199TIP3   OH2 6602   4.528   1.775   3.255  0.2329  0.6639 -0.0844
 2199TIP3    H1 6603   4.614   1.816   3.263  1.2191 -0.7818 -2.4690
 2199TIP3    H2 6604   4.536   1.693   3.303  0.8246 -0.3081 -1.7694
 2200TIP3   OH2 6605   0.098   3.898   4.648  0.1710  0.1351 -0.0589
 2200TIP3    H1 6606   0.174   3.911   4.705 -0.5651 -0.7725  1.1730
 2200TIP3    H2 6607   0.034   3.963   4.679 -0.0129  0.0471 -0.2541
 2201TIP3   OH2 6608   0.585   2.587   0.472  0.5346 -0.2791  0.1213
 2201TIP3    H1 6609   0.666   2.587   0.524 -0.4767  1.1718  1.8240
 2201TIP3    H2 6610   0.575   2.678   0.443 -1.8462  0.3045  2.3467
 2202TIP3   OH2 6611   5.217   0.112   4.712  0.6292  0.3652 -0.1461
 2202TIP3    H1 6612   5.127   0.135   4.689  0.1885 -0.9941  0.1280
 2202TIP3    H2 6613   5.209   0.028   4.759  2.1254 -0.3307 -1.0692
 2203TIP3   OH2 6614   6.214   1.939   1.804  0.8496 -0.0837 -0.2286
 2203TIP3    H1 6615   6.172   1.853   1.798  1.3583 -0.3665  0.2306
 2203TIP3    H2 6616   6.272   1.932   1.879  0.1914  0.9743  0.4018
 2204TIP3   OH2 6617   4.301   3.932   0.076  0.2993 -0.1137 -0.1246
 2204TIP3    H1 6618   4.229   3.915   0.136 -0.0382  1.4327 -0.0660
 2204TIP3    H2 6619   4.373   3.877   0.109 -0.0000  0.4051  1.4569
 2205TIP3   OH2 6620   2.564   1.727   4.847  0.1502  0.3782  0.1516
 2205TIP3    H1 6621   2.471   1.716   4.827  0.2973 -0.3128 -0.1861
 2205TIP3    H2 6622   2.583   1.656   4.908  0.6466 -0.0179 -0.4486
 2206TIP3   OH2 6623   3.560   3.927   4.524 -0.2793  0.1981  0.3143
 2206TIP3    H1 6624   3.611   3.995   4.481  0.6518  0.6772  2.1086
 2206TIP3    H2 6625   3.474   3.966   4.539 -0.7983 -0.1572 -1.5169
 2207TIP3   OH2 6626   2.547   2.739   2.709  0.3875  0.1958  0.1536
 2207TIP3    H1 6627   2.483   2.794   2.664  0.1951  0.4375  0.7147
 2207TIP3    H2 6628   2.608   2.712   2.641  0.9388  1.7349  0.0139
 2208TIP3   OH2 6629   2.539   1.967   3.728 -0.3092  0.4810 -0.6681
 2208TIP3    H1 6630   2.635   1.960   3.724 -0.3347  0.3746 -1.1670
 2208TIP3    H2 6631   2.521   2.059   3.707 -0.3651  0.2547 -1.6987
 2209TIP3   OH2 6632   0.144   4.984   0.410  0.0997  0.3045  0.1591
 2209TIP3    H1 6633   0.069   4.981   0.351 -1.0491  0.7553  1.5479
 2209TIP3    H2 6634   0.137   5.069   0.454  0.9202 -0.0115  0.9403
 2210TIP3   OH2 6635   2.007   3.994   4.080 -0.3738 -0.4490 -0.5567
 2210TIP3    H1 6636   2.026   4.041   3.999  2.1133 -0.8346 -0.2922
 2210TIP3    H2 6637   1.973   3.910   4.051 -0.1527 -0.3289 -1.1882
 2211TIP3   OH2 6638   1.178   5.966   0.176  0.5907 -0.7674 -0.6539
 2211TIP3    H1 6639   1.241   5.988   0.108  1.0942  0.1549  0.0858
 2211TIP3    H2 6640   1.230   5.960   0.256 -0.3151  0.5002  0.0647
 2212TIP3   OH2 6641   2.284   2.179   0.538 -0.2465 -0.2539 -0.4764
 2212TIP3    H1 6642   2.257   2.208   0.625  0.6478 -0.2521 -0.1857
 2212TIP3    H2 6643   2.251   2.089   0.532  0.3678 -0.5326  0.1864
 2213TIP3   OH2 6644   4.731   4.902   0.207  0.5962  0.5416 -0.4017
 2213TIP3    H1 6645   4.771   4.989   0.197  1.1777  0.0820 -2.4387
 2213TIP3    H2 6646   4.791   4.843   0.161 -0.9159 -0.6141 -0.9650
 2214TIP3   OH2 6647   5.806   1.379   0.941  0.0521 -0.0882 -0.2854
 2214TIP3    H1 6648   5.719   1.396   0.906  0.1174  1.1921  0.0889
 2214TIP3    H2 6649   5.853   1.461   0.927  1.0792 -0.6404 -0.1381
 2215TIP3   OH2 6650   6.082   3.076   4.127 -0.6203  0.0824 -0.1510
 2215TIP3    H1 6651   6.118   3.118   4.205 -0.4376 -0.2289 -0.0646
 2215TIP3    H2 6652   5.988   3.088   4.135 -0.5376  1.0277 -0.4517
 2216TIP3   OH2 6653   3.846   2.035   4.766 -0.0292 -0.0253 -0.2516
 2216TIP3    H1 6654   3.910   2.019   4.835  0.9742  1.6578 -0.7306
 2216TIP3    H2 6655   3.763   2.047   4.812  0.0214 -1.9013  0.4050
 2217TIP3   OH2 6656   0.733   4.949   4.304 -0.1197 -0.4853  0.6276
 2217TIP3    H1 6657   0.801   4.889   4.275 -0.7978 -1.2804  0.6592
 2217TIP3    H2 6658   0.755   4.968   4.395  0.0137 -0.8125  0.6633
 2218TIP3   OH2 6659   3.766   5.380   2.254 -0.6802  0.1637 -0.8917
 2218TIP3    H1 6660   3.776   5.346   2.342 -1.1990  0.2863 -0.7820
 2218TIP3    H2 6661   3.847   5.355   2.209  0.5821  1.9905  0.2302
 2219TIP3   OH2 6662   2.108   0.972   2.154 -0.2970  0.3663 -0.4272
 2219TIP3    H1 6663   2.137   0.896   2.203  0.0714  0.4592 -0.4963
 2219TIP3    H2 6664   2.167   1.043   2.182 -1.0803  0.7976  0.1669
 2220TIP3   OH2 6665   2.454   0.010   0.694  0.4678 -0.2430 -0.1331
 2220TIP3    H1 6666   2.392  -0.053   0.656 -0.4640 -0.3127  1.4359
 2220TIP3    H2 6667   2.412   0.095   0.682  1.6049  0.1185 -2.0060
 2221TIP3   OH2 6668   5.049   4.310   2.057 -0.4153 -0.4798  0.3931
 2221TIP3    H1 6669   5.005   4.225   2.058 -0.1513 -0.6366  2.5030
 2221TIP3    H2 6670   4.989   4.368   2.103 -1.0142  0.7795 -1.8110
 2222TIP3   OH2 6671   2.154   1.410   0.973 -0.0981 -0.4118  0.0910
 2222TIP3    H1 6672   2.215   1.478   0.947  0.5760 -0.9885  0.1298
 2222TIP3    H2 6673   2.130   1.433   1.063 -0.9243  0.5067 -0.3522
 2223TIP3   OH2 6674   0.038   0.742   0.366  0.3301 -0.7238 -0.1771
 2223TIP3    H1 6675   0.026   0.801   0.291  0.5271 -3.2646 -2.3142
 2223TIP3    H2 6676  -0.050   0.708   0.383  0.7693 -2.7389 -1.5815
 2224TIP3   OH2 6677   2.125   0.190   1.189  0.2246 -0.6540  0.3758
 2224TIP3    H1 6678   2.128   0.229   1.102 -0.3252 -0.2062  0.5559
 2224TIP3    H2 6679   2.122   0.265   1.249  1.3364 -0.9374  0.8215
 2225TIP3   OH2 6680   5.805   2.842   0.298  0.2281 -0.4587  0.0141
 2225TIP3    H1 6681   5.900   2.847   0.293  0.2281  0.5186  0.6872
 2225TIP3    H2 6682   5.782   2.898   0.372 -0.8526 -0.9169  0.0419
 2226TIP3   OH2 6683   2.488   4.855   0.420  0.2469 -0.6268  0.3259
 2226TIP3    H1 6684   2.471   4.787   0.355 -0.3840 -0.5204  0.3810
 2226TIP3    H2 6685   2.584   4.854   0.430  0.7814  1.4696 -2.9168
 2227TIP3   OH2 6686   1.716   2.353   2.371 -0.3629 -0.2412  0.1903
 2227TIP3    H1 6687   1.783   2.419   2.355 -1.3041  0.6875 -0.0206
 2227TIP3    H2 6688   1.765   2.275   2.397  0.8168  0.2924 -0.3438
 2228TIP3   OH2 6689   0.575   4.016   3.990 -0.4513 -0.0658  0.4841
 2228TIP3    H1 6690   0.483   3.995   3.976 -0.8178  1.5291  0.2574
 2228TIP3    H2 6691   0.575   4.080   4.061  0.1443  2.1796 -1.3902
 2229TIP3   OH2 6692   3.965   3.016   3.404  0.2542  0.3661  0.3091
 2229TIP3    H1 6693   3.959   2.923   3.382  0.0704  0.6101 -0.7672
 2229TIP3    H2 6694   3.911   3.026   3.482 -1.0193 -0.1789 -0.4568
 2230TIP3   OH2 6695   4.142   1.841   2.666 -0.2689 -0.8447  0.2403
 2230TIP3    H1 6696   4.160   1.910   2.603 -0.4987 -1.4082 -0.4583
 2230TIP3    H2 6697   4.186   1.764   2.632  0.8704 -0.8192  1.5555
 2231TIP3   OH2 6698   0.126   1.350   5.121  0.0607 -0.6052 -0.5937
 2231TIP3    H1 6699   0.144   1.264   5.085 -2.0819 -1.0253 -0.7724
 2231TIP3    H2 6700   0.031   1.354   5.129  0.1621  1.3790  0.3267
 2232TIP3   OH2 6701   2.263   5.520   2.947  0.4350 -0.3450  0.0928
 2232TIP3    H1 6702   2.225   5.450   2.894  0.0690  1.2625 -1.8859
 2232TIP3    H2 6703   2.346   5.541   2.904 -0.5234  1.9579 -0.7911
 2233TIP3   OH2 6704   3.067   2.455   0.915  0.5902 -1.1727 -0.0707
 2233TIP3    H1 6705   3.013   2.475   0.991 -0.6126 -0.1912 -1.1270
 2233TIP3    H2 6706   3.107   2.539   0.892  0.7001 -1.3835 -0.6781
 2234TIP3   OH2 6707   3.879   0.713   2.351 -0.0914  0.0449 -0.2077
 2234TIP3    H1 6708   3.852   0.730   2.442  1.9954 -2.8840  1.1116
 2234TIP3    H2 6709   3.829   0.777   2.299 -2.8681  0.5600  2.7613
 2235TIP3   OH2 6710   0.675   4.819   3.946 -0.0009 -0.0055 -0.0659
 2235TIP3    H1 6711   0.620   4.891   3.975 -0.4151 -0.6063  0.6882
 2235TIP3    H2 6712   0.634   4.790   3.864 -0.8565 -0.4758  0.5105
 2236TIP3   OH2 6713   3.783   2.952   2.968 -0.1571  0.4938  0.4753
 2236TIP3    H1 6714   3.731   3.032   2.978 -0.3283  0.3124  1.0856
 2236TIP3    H2 6715   3.727   2.894   2.916  0.2366  0.9985 -0.5474
 2237TIP3   OH2 6716   6.166   1.338   5.076 -0.6271 -0.0292  0.1165
 2237TIP3    H1 6717   6.185   1.429   5.100 -1.1861  0.2032 -0.2990
 2237TIP3    H2 6718   6.070   1.332   5.081 -0.6757 -0.2894 -0.9426
 2238TIP3   OH2 6719   0.648   2.256   4.348 -0.0838  0.3338 -0.5421
 2238TIP3    H1 6720   0.725   2.252   4.293 -0.6835 -0.0010 -1.3764
 2238TIP3    H2 6721   0.682   2.260   4.438  0.9054 -1.7526 -0.7679
 2239TIP3   OH2 6722   4.574   3.786   2.600  0.4571  0.3279  0.3344
 2239TIP3    H1 6723   4.486   3.772   2.565  0.8944 -0.0835 -0.6363
 2239TIP3    H2 6724   4.560   3.818   2.689 -0.6964  1.6161 -0.2860
 2240TIP3   OH2 6725   0.659   5.191   1.020  0.0879 -0.4527 -0.9075
 2240TIP3    H1 6726   0.731   5.254   1.009 -0.6890  0.5721 -0.2656
 2240TIP3    H2 6727   0.596   5.215   0.952 -0.8136  0.3393  0.1755
 2241TIP3   OH2 6728   4.277   4.771   2.594 -0.4667  0.1028 -0.3158
 2241TIP3    H1 6729   4.219   4.746   2.522  0.0519  0.0763 -0.7336
 2241TIP3    H2 6730   4.262   4.865   2.605 -1.2878 -0.0827  0.2250
 2242TIP3   OH2 6731   2.092   3.061   5.189  0.1641 -0.3552  0.1476
 2242TIP3    H1 6732   2.021   3.049   5.126 -0.6233 -2.5714  1.3668
 2242TIP3    H2 6733   2.170   3.074   5.135 -0.6071 -1.4030 -1.2777
 2243TIP3   OH2 6734   3.084   4.592   3.707  0.1590  0.5819  0.0073
 2243TIP3    H1 6735   2.989   4.595   3.694  0.3092  0.8228 -1.1897
 2243TIP3    H2 6736   3.095   4.567   3.798 -1.0607  1.0609  0.3120
 2244TIP3   OH2 6737   1.543   1.099   1.508 -0.4685  0.1553 -0.0797
 2244TIP3    H1 6738   1.467   1.111   1.451 -0.8027  0.0190  0.3280
 2244TIP3    H2 6739   1.615   1.082   1.449 -0.9010 -0.4344 -0.4502
 2245TIP3   OH2 6740   1.331   1.851   3.357 -1.4517 -0.4623  0.8923
 2245TIP3    H1 6741   1.330   1.761   3.324 -0.7217 -0.9132  2.0736
 2245TIP3    H2 6742   1.244   1.863   3.396 -1.3369 -0.8432  1.2589
 2246TIP3   OH2 6743   1.317   0.386   0.321 -0.1486  0.3766  0.7568
 2246TIP3    H1 6744   1.242   0.336   0.289  0.8577 -0.6975 -0.0174
 2246TIP3    H2 6745   1.279   0.454   0.377 -1.6709 -0.2506  0.5244
 2247TIP3   OH2 6746   0.890   4.934   2.601 -0.1237  0.2663 -0.0782
 2247TIP3    H1 6747   0.803   4.972   2.612 -0.1362  0.1525  0.2331
 2247TIP3    H2 6748   0.917   4.960   2.513  0.1404  1.5782  0.3559
 2248TIP3   OH2 6749   1.287   0.760   0.235  1.2106 -0.1699  0.2828
 2248TIP3    H1 6750   1.291   0.730   0.145 -0.8441 -0.6947  0.3205
 2248TIP3    H2 6751   1.345   0.701   0.283 -0.7207 -2.4782 -0.0896
 2249TIP3   OH2 6752   4.763   4.302   3.054 -0.2302 -0.6792  0.5415
 2249TIP3    H1 6753   4.855   4.281   3.038 -0.7601 -2.8943  0.0328
 2249TIP3    H2 6754   4.744   4.373   2.994  1.1446 -0.1801  0.6575
 2250TIP3   OH2 6755   5.937   4.337   1.245 -0.1666  0.8122  0.2921
 2250TIP3    H1 6756   6.006   4.278   1.213  0.0064  1.0816  0.1645
 2250TIP3    H2 6757   5.983   4.402   1.297 -0.5284 -0.0420  1.7196
 2251TIP3   OH2 6758   3.601   4.999   1.200 -0.5248  0.1933  0.2393
 2251TIP3    H1 6759   3.650   4.917   1.191  2.6025  1.8141  1.1325
 2251TIP3    H2 6760   3.644   5.059   1.140 -1.0001  1.9041  1.5406
 2252TIP3   OH2 6761   6.097   4.590   4.203 -0.6200 -0.0501 -0.1225
 2252TIP3    H1 6762   6.144   4.578   4.286 -1.0360  0.7427  0.2380
 2252TIP3    H2 6763   6.084   4.684   4.197 -0.0245 -0.0367 -1.4154
 2253TIP3   OH2 6764   4.414   4.674   1.663  0.1176  0.3534  0.1467
 2253TIP3    H1 6765   4.502   4.711   1.671  0.5905 -0.6489 -0.2207
 2253TIP3    H2 6766   4.420   4.615   1.588 -0.9311  0.4387 -0.0145
 2254TIP3   OH2 6767   3.006   1.059   5.025  0.4965  0.1924  0.0226
 2254TIP3    H1 6768   3.079   1.105   5.067 -1.0403  2.1443  0.7148
 2254TIP3    H2 6769   2.944   1.128   5.002 -1.1426 -1.3825 -0.5474
 2255TIP3   OH2 6770   5.666   3.425   4.291 -0.2759  0.4446 -0.1225
 2255TIP3    H1 6771   5.600   3.371   4.247  1.5535 -1.3955 -0.8062
 2255TIP3    H2 6772   5.712   3.470   4.219  2.3211 -2.0907 -0.2354
 2256TIP3   OH2 6773   6.157   0.848   3.700  0.3944 -0.0496  0.1712
 2256TIP3    H1 6774   6.176   0.812   3.787  2.2266  2.3338  0.8709
 2256TIP3    H2 6775   6.154   0.943   3.714 -0.5488  0.3361 -2.1895
 2257TIP3   OH2 6776   4.303   0.945   3.490 -0.3402 -0.6428  0.5970
 2257TIP3    H1 6777   4.306   0.979   3.579 -0.6759 -0.6288  0.6039
 2257TIP3    H2 6778   4.327   0.853   3.499 -2.1818 -1.1355  0.9661
 2258TIP3   OH2 6779   0.458   2.938   3.991 -0.4233 -0.1838 -0.0148
 2258TIP3    H1 6780   0.457   2.941   4.087  1.5840  0.6976  0.0273
 2258TIP3    H2 6781   0.509   2.860   3.970  0.8658  0.6953 -0.2904
 2259TIP3   OH2 6782   0.817   4.008   1.109 -0.1865 -0.1176 -0.4354
 2259TIP3    H1 6783   0.864   3.989   1.028 -0.5309 -0.5305 -0.5431
 2259TIP3    H2 6784   0.741   4.060   1.081 -1.4377 -1.9814 -0.6606
 2260TIP3   OH2 6785   5.647   2.655   1.092  0.2740  0.4533  0.3842
 2260TIP3    H1 6786   5.706   2.726   1.121  1.4228  0.2602 -1.3298
 2260TIP3    H2 6787   5.625   2.679   1.002 -0.4434 -0.6707  0.2565
 2261TIP3   OH2 6788   3.961   4.465   4.467 -0.0202  0.1728  0.3631
 2261TIP3    H1 6789   4.043   4.479   4.515  1.0273  1.7090 -1.7293
 2261TIP3    H2 6790   3.950   4.370   4.465  1.6055 -0.0541  0.8458
 2262TIP3   OH2 6791   4.277   4.147   3.002 -0.3765  0.3103 -0.0056
 2262TIP3    H1 6792   4.261   4.097   2.922 -0.1554  0.0462  0.1154
 2262TIP3    H2 6793   4.371   4.163   3.003 -0.8230  4.1413 -2.0750
 2263TIP3   OH2 6794   5.804   1.387   4.505 -0.5654 -0.2923 -0.1857
 2263TIP3    H1 6795   5.865   1.435   4.448  0.3409 -0.0954  0.9172
 2263TIP3    H2 6796   5.771   1.454   4.565 -0.0483 -0.8429  0.7293
 2264TIP3   OH2 6797   0.604   2.850   2.545 -0.4001 -0.1076 -0.6285
 2264TIP3    H1 6798   0.643   2.830   2.630  0.0675 -1.3751 -1.1252
 2264TIP3    H2 6799   0.518   2.809   2.547 -0.2126 -0.5121 -0.9350
 2265TIP3   OH2 6800   4.337   4.404   3.656  0.0043  0.3337 -0.2828
 2265TIP3    H1 6801   4.404   4.344   3.623 -0.5822 -0.0512 -0.8000
 2265TIP3    H2 6802   4.276   4.414   3.583  0.7134  2.5178 -0.6673
 2266TIP3   OH2 6803   6.096   4.294   2.749  0.0645 -0.0784  0.4308
 2266TIP3    H1 6804   6.022   4.302   2.810  1.0683  1.2240  1.5357
 2266TIP3    H2 6805   6.086   4.368   2.690 -0.0812 -0.5070 -0.0937
 2267TIP3   OH2 6806   1.249   1.869   2.138  0.3845 -0.1293 -0.3319
 2267TIP3    H1 6807   1.216   1.892   2.051  1.0034 -1.9814 -1.0938
 2267TIP3    H2 6808   1.302   1.944   2.164 -0.9517  1.0677 -0.9082
 2268TIP3   OH2 6809   2.836   1.149   4.180  0.0188  0.0229 -0.7802
 2268TIP3    H1 6810   2.925   1.122   4.156  1.0307  2.1796  0.2189
 2268TIP3    H2 6811   2.793   1.069   4.208  2.1613 -0.8767  0.1775
 2269TIP3   OH2 6812   3.120   2.016   4.142  0.3575  0.4440  0.1174
 2269TIP3    H1 6813   3.040   2.067   4.136 -0.5541 -0.9439  0.0121
 2269TIP3    H2 6814   3.176   2.050   4.072  0.2299  2.0098  0.7447
 2270TIP3   OH2 6815   4.057   2.975   0.937  0.1592  0.4036 -0.1016
 2270TIP3    H1 6816   4.038   2.885   0.964  1.7239 -0.2997 -1.1822
 2270TIP3    H2 6817   4.102   2.966   0.853  2.0308  2.0607  0.6379
 2271TIP3   OH2 6818   5.017   4.247   4.084  0.0592 -0.2811  0.1852
 2271TIP3    H1 6819   4.969   4.186   4.139  1.5251 -1.3423  0.3529
 2271TIP3    H2 6820   5.040   4.319   4.143 -0.5510 -0.1897  0.3162
 2272TIP3   OH2 6821   4.976   2.142   3.703  0.1438  0.0529 -0.3615
 2272TIP3    H1 6822   4.926   2.104   3.775  0.9295 -0.3192  0.0056
 2272TIP3    H2 6823   4.998   2.068   3.647 -1.0478  0.4365 -1.3735
 2273TIP3   OH2 6824   4.106   1.382   4.119  0.2070  0.0751  0.1759
 2273TIP3    H1 6825   4.047   1.454   4.141  0.3294 -0.2011  1.5245
 2273TIP3    H2 6826   4.172   1.383   4.189 -0.1544 -1.7276  0.5859
 2274TIP3   OH2 6827   3.787   3.078   3.607  0.4202 -0.0382 -0.5542
 2274TIP3    H1 6828   3.728   3.028   3.551  0.7201 -0.1686 -0.7567
 2274TIP3    H2 6829   3.748   3.165   3.612  0.3035 -0.0742 -0.8301
 2275TIP3   OH2 6830   1.719   0.949   1.318  0.3835  0.1554 -0.0131
 2275TIP3    H1 6831   1.704   0.859   1.287  2.9461 -0.0372 -0.9414
 2275TIP3    H2 6832   1.794   0.941   1.377  2.1833  1.9064 -1.9024
 2276TIP3   OH2 6833   1.734   2.326   2.886 -0.3170 -0.1574 -0.2689
 2276TIP3    H1 6834   1.729   2.272   2.806  0.6307 -1.3152  0.4234
 2276TIP3    H2 6835   1.797   2.395   2.864  0.8875 -1.1820 -0.1548
 2277TIP3   OH2 6836   1.936   2.590   1.657  0.4435  0.4755 -0.0599
 2277TIP3    H1 6837   1.875   2.576   1.729  0.8077  0.2499  0.2101
 2277TIP3    H2 6838   2.023   2.579   1.697  0.7111  1.8826 -0.1819
 2278TIP3   OH2 6839   3.870   5.539   2.824  0.0156 -0.5675 -0.0634
 2278TIP3    H1 6840   3.934   5.477   2.859  1.4678  0.3641 -0.9674
 2278TIP3    H2 6841   3.792   5.525   2.878  0.7212 -2.2435  0.6083
 2279TIP3   OH2 6842   2.277   1.323   1.456  0.5592 -0.0817  0.2388
 2279TIP3    H1 6843   2.212   1.255   1.474  1.1099 -0.9517 -0.9222
 2279TIP3    H2 6844   2.356   1.275   1.434  0.6436  0.8895 -1.8177
 2280TIP3   OH2 6845   3.306   5.265   1.661 -0.5522 -0.1998 -0.5091
 2280TIP3    H1 6846   3.254   5.318   1.722 -1.0331 -0.4769 -0.6698
 2280TIP3    H2 6847   3.288   5.175   1.687 -0.1951 -0.2994 -0.6068
 2281TIP3   OH2 6848   3.765   3.631   3.336 -0.7545 -0.0625 -0.2324
 2281TIP3    H1 6849   3.789   3.609   3.426 -0.2394 -1.2595 -0.6479
 2281TIP3    H2 6850   3.837   3.687   3.306 -0.5620 -0.2524 -0.1315
 2282TIP3   OH2 6851   4.440   4.525   3.369  0.1454  0.1382  0.4183
 2282TIP3    H1 6852   4.399   4.595   3.420  0.3745 -0.0802  0.9090
 2282TIP3    H2 6853   4.457   4.564   3.284 -2.6160 -0.2462 -0.3952
 2283TIP3   OH2 6854   3.289   0.075   4.954  0.2128  0.1647  0.4330
 2283TIP3    H1 6855   3.318   0.094   4.865  0.6743  0.1750  0.5804
 2283TIP3    H2 6856   3.367   0.089   5.008  0.5990 -2.0838  0.5553
 2284TIP3   OH2 6857   3.470   3.373   2.333  0.2206  0.4403 -0.2447
 2284TIP3    H1 6858   3.561   3.372   2.303 -0.1875 -0.1106 -1.5127
 2284TIP3    H2 6859   3.443   3.282   2.329 -0.3358  0.5771  0.3222
 2285TIP3   OH2 6860   0.344   4.432   0.118 -0.2613  0.4183  0.0672
 2285TIP3    H1 6861   0.437   4.451   0.108 -0.0563 -0.6365 -0.1562
 2285TIP3    H2 6862   0.307   4.447   0.032  0.0526 -0.9276 -0.3291
 2286TIP3   OH2 6863   0.169   4.180   5.179 -0.5063  0.0803 -0.4650
 2286TIP3    H1 6864   0.244   4.120   5.187 -1.6698 -1.4087 -0.3876
 2286TIP3    H2 6865   0.092   4.123   5.177 -1.6620  1.5762 -0.5298
 2287TIP3   OH2 6866   2.014   3.376   4.143 -0.0926 -0.1443  0.4621
 2287TIP3    H1 6867   1.977   3.462   4.125  2.3005  0.6560 -1.1491
 2287TIP3    H2 6868   1.945   3.315   4.116 -1.7827  1.1880  1.4847
 2288TIP3   OH2 6869   6.330   1.784   0.503 -0.2896  0.6151  0.0350
 2288TIP3    H1 6870   6.364   1.826   0.583  1.5675  1.6875 -1.2323
 2288TIP3    H2 6871   6.297   1.857   0.451  1.9265  0.4700 -1.7115
 2289TIP3   OH2 6872   4.962   1.692   0.097  0.8007 -0.4108  0.0122
 2289TIP3    H1 6873   4.980   1.632   0.170  1.1869 -2.1215 -1.4174
 2289TIP3    H2 6874   4.996   1.647   0.020 -0.7303  0.7557 -1.4289
 2290TIP3   OH2 6875   1.160   0.455   3.303 -0.2222  0.0458 -0.0788
 2290TIP3    H1 6876   1.243   0.434   3.346 -0.5719 -0.7554  0.2307
 2290TIP3    H2 6877   1.094   0.443   3.372 -0.5174  1.5373 -0.0798
 2291TIP3   OH2 6878   1.237   5.109   4.035 -0.2215  0.4686 -0.4723
 2291TIP3    H1 6879   1.158   5.066   4.069 -0.6043  0.0648 -1.8439
 2291TIP3    H2 6880   1.213   5.201   4.025  0.3541  0.9198  1.7030
 2292TIP3   OH2 6881   2.496   1.403   5.088  0.1038 -0.1317  0.0719
 2292TIP3    H1 6882   2.530   1.482   5.130  0.7554  0.0039 -0.6860
 2292TIP3    H2 6883   2.456   1.353   5.160  0.3132  0.5509  0.6774
 2293TIP3   OH2 6884   4.858   1.303   2.170 -0.6807  0.0510  0.0759
 2293TIP3    H1 6885   4.764   1.314   2.162 -0.9098 -0.4464  1.7880
 2293TIP3    H2 6886   4.889   1.385   2.208 -0.7033 -0.4742  1.2724
 2294TIP3   OH2 6887   5.011   2.258   1.843  0.6771  0.3620  0.0574
 2294TIP3    H1 6888   5.049   2.209   1.915  1.2965 -1.1155 -1.2083
 2294TIP3    H2 6889   4.969   2.191   1.788  0.3586  1.4063 -1.0218
 2295TIP3   OH2 6890   0.415   3.004   1.163 -0.1096 -0.2068 -0.5248
 2295TIP3    H1 6891   0.449   3.087   1.195  0.6174 -0.5464 -0.3776
 2295TIP3    H2 6892   0.320   3.015   1.159 -0.0292  0.5566 -0.3214
 2296TIP3   OH2 6893   5.390   2.165   2.573 -0.4166  0.1617  0.3328
 2296TIP3    H1 6894   5.375   2.253   2.537  2.1517  0.1808 -1.0141
 2296TIP3    H2 6895   5.477   2.141   2.540 -0.4263 -2.3225  1.8460
 2297TIP3   OH2 6896   3.163   3.184   1.990  0.0998  0.0637  0.0030
 2297TIP3    H1 6897   3.079   3.167   2.032 -0.6154 -0.5430 -1.5868
 2297TIP3    H2 6898   3.177   3.108   1.933  0.7105  1.1014 -1.2856
 2298TIP3   OH2 6899   4.467   2.306   4.951 -0.2073 -0.0766 -0.0543
 2298TIP3    H1 6900   4.463   2.401   4.962 -0.3111 -0.0955  0.0700
 2298TIP3    H2 6901   4.519   2.293   4.872  0.9064  0.0437  0.6395
 2299TIP3   OH2 6902   2.110   0.718   2.562  0.2585 -0.4171  0.1071
 2299TIP3    H1 6903   2.045   0.655   2.593  0.1654 -1.5870 -2.1767
 2299TIP3    H2 6904   2.188   0.664   2.543  0.6874  0.3869 -0.4939
 2300TIP3   OH2 6905   2.347  -0.019   4.983  0.7152  0.3540 -0.1124
 2300TIP3    H1 6906   2.287   0.031   5.038  1.4222  0.3991  0.6372
 2300TIP3    H2 6907   2.433   0.015   5.004  1.1550 -0.7342 -0.0573
 2301TIP3   OH2 6908   4.852   5.043   4.447  0.4587  0.1264  0.5042
 2301TIP3    H1 6909   4.822   5.134   4.442  1.7502  0.5973  1.0767
 2301TIP3    H2 6910   4.774   4.991   4.424  0.1084  1.4054 -1.3834
 2302TIP3   OH2 6911   1.037   3.020   4.705 -0.6208  0.2338 -0.0008
 2302TIP3    H1 6912   0.953   2.978   4.685 -0.4724  0.2971 -0.7697
 2302TIP3    H2 6913   1.101   2.970   4.655 -0.2737  0.5687  0.1077
 2303TIP3   OH2 6914   0.433   0.377   3.692 -0.0005 -0.1170 -0.1410
 2303TIP3    H1 6915   0.364   0.379   3.626 -0.5078 -0.3452  0.3745
 2303TIP3    H2 6916   0.390   0.345   3.771  0.5733  0.2639  0.3348
 2304TIP3   OH2 6917   6.318   0.440   0.971  0.2272  0.0643 -0.2408
 2304TIP3    H1 6918   6.310   0.369   1.035  0.9020 -1.2127 -1.5161
 2304TIP3    H2 6919   6.246   0.499   0.992 -0.2709 -0.9146  0.9587
 2305TIP3   OH2 6920   2.393   0.498   2.284 -0.5056  0.1589  0.6366
 2305TIP3    H1 6921   2.385   0.408   2.254 -1.3248  0.4155  0.0198
 2305TIP3    H2 6922   2.385   0.550   2.203  1.9222  0.7413  0.6746
 2306TIP3   OH2 6923   2.143   0.033   2.736  0.2043  0.2705  0.2237
 2306TIP3    H1 6924   2.194   0.061   2.812  0.7911  1.0024 -0.4232
 2306TIP3    H2 6925   2.196   0.058   2.661  0.2889 -1.7232 -0.4212
 2307TIP3   OH2 6926   3.459   2.520   1.960 -0.2846  0.2409 -0.2251
 2307TIP3    H1 6927   3.438   2.461   1.888  1.4669  0.5434 -1.0223
 2307TIP3    H2 6928   3.516   2.469   2.017 -1.8364 -0.0743  1.1277
 2308TIP3   OH2 6929   6.007   3.858   4.117  0.3944 -0.4712 -0.0204
 2308TIP3    H1 6930   6.010   3.924   4.048 -2.6587  0.5800  0.6958
 2308TIP3    H2 6931   6.012   3.774   4.071  1.6354  0.2006 -1.1750
 2309TIP3   OH2 6932   0.581   0.626   1.567 -0.4334 -0.4579 -0.3363
 2309TIP3    H1 6933   0.609   0.667   1.650 -2.2985 -0.2290  0.2157
 2309TIP3    H2 6934   0.547   0.699   1.515  0.8659 -0.5776 -1.4157
 2310TIP3   OH2 6935   2.676   0.303   4.056 -0.2539 -0.4914 -0.7144
 2310TIP3    H1 6936   2.749   0.317   3.996  1.2242  0.8792  1.2517
 2310TIP3    H2 6937   2.644   0.391   4.075 -0.1050 -0.7859  1.0898
 2311TIP3   OH2 6938   0.228   2.131   3.406 -0.7240 -0.7101 -0.0911
 2311TIP3    H1 6939   0.264   2.117   3.319 -0.5507  0.6341 -0.2513
 2311TIP3    H2 6940   0.255   2.054   3.456 -0.1344 -1.1008 -1.0050
 2312TIP3   OH2 6941   4.855   0.910   3.742 -0.4906 -0.3316  0.0128
 2312TIP3    H1 6942   4.859   0.945   3.831 -1.6069  1.2138 -0.4993
 2312TIP3    H2 6943   4.805   0.829   3.750 -1.4704  0.3138  0.6792
 2313TIP3   OH2 6944   2.251   2.611   1.184 -0.5250 -0.5264 -0.0849
 2313TIP3    H1 6945   2.243   2.572   1.271  0.1829  0.6073  0.5187
 2313TIP3    H2 6946   2.342   2.594   1.159 -0.6366 -0.5623 -0.4702
 2314TIP3   OH2 6947   6.162   2.036   4.841 -0.0304  0.4483 -0.0532
 2314TIP3    H1 6948   6.201   1.951   4.819 -0.8168  0.1306 -0.2772
 2314TIP3    H2 6949   6.138   2.028   4.933 -2.2276 -0.4646 -0.6418
 2315TIP3   OH2 6950   0.491   4.871   4.185  0.0966  0.4903  0.8506
 2315TIP3    H1 6951   0.579   4.889   4.218  0.7056  0.7351 -0.8305
 2315TIP3    H2 6952   0.478   4.777   4.199  1.2607  0.1370 -0.3111
 2316TIP3   OH2 6953   2.020   1.096   1.732 -0.4408 -0.1255 -0.0990
 2316TIP3    H1 6954   2.059   1.016   1.766 -0.6119 -0.9465 -1.7478
 2316TIP3    H2 6955   2.000   1.148   1.810  0.1103 -1.4694  0.9745
 2317TIP3   OH2 6956   3.378   2.202   3.309 -0.4988 -0.6314  0.3261
 2317TIP3    H1 6957   3.343   2.188   3.221 -0.2323 -0.8163  0.2461
 2317TIP3    H2 6958   3.445   2.134   3.319  0.9171  0.6367 -0.1130
 2318TIP3   OH2 6959   3.706   3.313   1.564 -0.3125 -0.3103  0.1951
 2318TIP3    H1 6960   3.791   3.340   1.527  0.0402 -2.0849 -0.3959
 2318TIP3    H2 6961   3.648   3.309   1.488 -1.1152  1.4808  0.6838
 2319TIP3   OH2 6962   0.618   1.740   3.300  0.1098 -0.2117  0.0963
 2319TIP3    H1 6963   0.576   1.823   3.323 -0.4869 -0.6046  0.4584
 2319TIP3    H2 6964   0.633   1.746   3.206  1.0159  0.7218  0.2783
 2320TIP3   OH2 6965   5.620   1.534   0.760 -0.1172  0.1850 -0.5837
 2320TIP3    H1 6966   5.622   1.611   0.816  2.0892 -3.3769  5.1104
 2320TIP3    H2 6967   5.699   1.541   0.706  0.2621  1.7056  0.1121
 2321TIP3   OH2 6968   4.968   5.179   0.295 -0.4722 -0.5224  0.1765
 2321TIP3    H1 6969   5.051   5.208   0.332 -1.3129  0.7969  1.1321
 2321TIP3    H2 6970   4.990   5.149   0.207  1.0548 -0.5241  0.5334
 2322TIP3   OH2 6971   6.200   2.915   5.058 -0.3109 -0.5217 -0.1815
 2322TIP3    H1 6972   6.278   2.966   5.038  0.4901 -1.0418  1.4226
 2322TIP3    H2 6973   6.128   2.965   5.020  0.5843  1.1033  0.1693
 2323TIP3   OH2 6974   0.403   5.683   0.715  0.0292 -0.5050  0.0241
 2323TIP3    H1 6975   0.485   5.717   0.751 -0.3131  0.3477  0.0072
 2323TIP3    H2 6976   0.334   5.729   0.762 -0.4321  0.4672 -1.5098
 2324TIP3   OH2 6977   0.801   1.127   4.869 -0.0293  0.5397  0.7199
 2324TIP3    H1 6978   0.875   1.186   4.851 -1.1061  1.6878 -0.1097
 2324TIP3    H2 6979   0.785   1.139   4.963 -0.8295  2.3501  0.3996
 2325TIP3   OH2 6980   3.070   4.531   3.296  0.2294 -0.0368  0.7967
 2325TIP3    H1 6981   3.121   4.596   3.344 -1.4556  0.7285  1.6673
 2325TIP3    H2 6982   3.010   4.495   3.362 -0.1174 -1.1416 -0.0924
 2326TIP3   OH2 6983   0.500   3.275   1.235  0.0194 -0.4011 -0.0959
 2326TIP3    H1 6984   0.570   3.301   1.176  0.0609  0.1231  0.1732
 2326TIP3    H2 6985   0.543   3.259   1.319 -0.1555 -0.2596  0.0229
 2327TIP3   OH2 6986   3.387   0.841   1.472  0.3272 -0.2066  0.4452
 2327TIP3    H1 6987   3.317   0.786   1.507 -1.2406  1.2853 -0.1908
 2327TIP3    H2 6988   3.374   0.926   1.515  1.0684  0.3993 -0.4929
 2328TIP3   OH2 6989   1.890   0.616   2.260  0.2552 -0.3792 -0.0916
 2328TIP3    H1 6990   1.824   0.636   2.193  1.3126 -0.4070 -1.1905
 2328TIP3    H2 6991   1.854   0.652   2.341 -1.8011 -1.7855 -0.3280
 2329TIP3   OH2 6992   1.769   1.159   0.855 -0.4455  0.3749 -0.2007
 2329TIP3    H1 6993   1.842   1.101   0.877  0.0994  0.8469 -0.7338
 2329TIP3    H2 6994   1.751   1.140   0.763 -0.9172  0.3499 -0.1051
 2330TIP3   OH2 6995   1.179   4.151   3.595  0.1016  0.3408 -0.1365
 2330TIP3    H1 6996   1.203   4.191   3.512 -0.4972 -0.5140 -0.7457
 2330TIP3    H2 6997   1.083   4.154   3.597  0.1068  0.3497  0.5201
 2331TIP3   OH2 6998   6.157   2.418   2.125 -0.1538  0.1700  0.1814
 2331TIP3    H1 6999   6.153   2.509   2.096 -0.0638  0.0232 -0.2931
 2331TIP3    H2 7000   6.084   2.375   2.080  0.1541 -0.1188 -0.0432
 2332TIP3   OH2 7001   1.275   2.007   3.135 -0.8339 -0.3763  0.1250
 2332TIP3    H1 7002   1.329   1.951   3.190  0.7093 -0.0607 -0.9638
 2332TIP3    H2 7003   1.300   1.984   3.045 -0.7299  1.4475 -0.3703
 2333TIP3   OH2 7004   0.372   0.502   0.885  0.3537  0.0587  0.0650
 2333TIP3    H1 7005   0.354   0.511   0.791 -5.8415  1.3838  0.9133
 2333TIP3    H2 7006   0.344   0.413   0.906 -0.1834  0.4063  0.8794
 2334TIP3   OH2 7007   0.592   4.997   5.036 -0.3392  0.0699  0.4537
 2334TIP3    H1 7008   0.559   5.045   5.112  0.8459  0.2937  0.8549
 2334TIP3    H2 7009   0.532   4.923   5.026 -2.8013  2.1060 -0.7803
 2335TIP3   OH2 7010   5.232   4.044   1.424 -0.0317  0.2592  0.3259
 2335TIP3    H1 7011   5.223   3.969   1.483 -1.8317 -0.9487 -1.3418
 2335TIP3    H2 7012   5.187   4.016   1.344  1.0257  2.3767 -1.0865
 2336TIP3   OH2 7013   4.172   4.468   3.185  0.0760  0.3226  0.0328
 2336TIP3    H1 7014   4.154   4.456   3.092 -0.5271  0.4053  0.1359
 2336TIP3    H2 7015   4.265   4.491   3.189  0.1341  0.1871 -0.5362
 2337TIP3   OH2 7016   5.462   5.337   2.397 -0.1756  0.2286 -0.0239
 2337TIP3    H1 7017   5.534   5.298   2.347 -0.9964  1.0907 -1.9742
 2337TIP3    H2 7018   5.490   5.331   2.488  3.2221  2.2282 -0.7973
 2338TIP3   OH2 7019   0.590   2.453   0.113 -0.3345 -0.5139 -0.0831
 2338TIP3    H1 7020   0.649   2.522   0.146 -0.5468  0.4283 -1.5920
 2338TIP3    H2 7021   0.516   2.454   0.174  0.9946 -1.4730  1.6279
 2339TIP3   OH2 7022   5.320   2.336   4.007  0.3810 -0.0410  0.3597
 2339TIP3    H1 7023   5.236   2.382   4.013 -0.1214 -1.0784  1.6392
 2339TIP3    H2 7024   5.308   2.277   3.933  0.3827  0.5730 -0.1426
 2340TIP3   OH2 7025   1.689   2.298   1.230 -0.3710  0.0342  0.2621
 2340TIP3    H1 7026   1.656   2.239   1.163  1.6385 -1.3850  0.4073
 2340TIP3    H2 7027   1.760   2.248   1.272  1.5918  2.6120  0.2579
 2341TIP3   OH2 7028   5.249   5.642   1.473  0.6097  0.0291 -0.3045
 2341TIP3    H1 7029   5.176   5.699   1.500  0.4329 -0.7987  1.0609
 2341TIP3    H2 7030   5.209   5.556   1.460  1.1455 -0.1533 -0.7738
 2342TIP3   OH2 7031   5.991   1.486   0.187  0.2493  0.4399  0.1572
 2342TIP3    H1 7032   5.909   1.512   0.145  0.2604  1.2634  0.6268
 2342TIP3    H2 7033   5.973   1.494   0.280  1.1581  1.6163  0.2574
 2343TIP3   OH2 7034   2.805   2.186   4.384  0.0108  0.2458 -0.2536
 2343TIP3    H1 7035   2.734   2.228   4.336 -1.1006  1.2061  2.0722
 2343TIP3    H2 7036   2.777   2.096   4.395 -1.1216  0.7331  1.0538
 2344TIP3   OH2 7037   6.067   3.780   3.101 -0.3814  0.2086  0.2734
 2344TIP3    H1 7038   6.012   3.710   3.067 -1.0171  0.9625 -0.2828
 2344TIP3    H2 7039   6.022   3.809   3.180 -0.7247  0.7393 -0.1118
 2345TIP3   OH2 7040   0.256   2.366   1.520 -0.1808 -0.4955 -0.2914
 2345TIP3    H1 7041   0.246   2.277   1.553 -1.3141 -0.1876  0.2383
 2345TIP3    H2 7042   0.237   2.359   1.426 -0.8464 -0.7201 -0.1438
 2346TIP3   OH2 7043   1.758   0.974   4.847 -0.3321  0.6470 -0.4833
 2346TIP3    H1 7044   1.709   1.047   4.884  1.1560  0.3622  2.3070
 2346TIP3    H2 7045   1.724   0.897   4.893  2.3587  0.4086  1.3485
 2347TIP3   OH2 7046   1.719   5.538   3.403 -0.0491  0.2854  0.6357
 2347TIP3    H1 7047   1.801   5.585   3.392 -1.1489  2.8324  2.2464
 2347TIP3    H2 7048   1.718   5.513   3.495 -0.6431 -0.6075  0.3980
 2348TIP3   OH2 7049   4.112   3.499   0.952  0.4533  0.6240  0.1369
 2348TIP3    H1 7050   4.027   3.460   0.931  1.2973 -2.8238  2.3919
 2348TIP3    H2 7051   4.098   3.543   1.036  0.4417  2.0750 -0.5854
 2349TIP3   OH2 7052   1.523   3.470   1.885  0.4892  0.0789  0.1580
 2349TIP3    H1 7053   1.546   3.438   1.797 -0.7386  1.2335 -0.6268
 2349TIP3    H2 7054   1.513   3.391   1.938  2.5213 -0.6001 -0.3905
 2350TIP3   OH2 7055   3.670   1.560   3.977  0.2800  0.6766 -0.6839
 2350TIP3    H1 7056   3.641   1.645   3.943  2.3475  0.8717 -2.1385
 2350TIP3    H2 7057   3.712   1.517   3.902  0.5990 -1.0055  0.4054
 2351TIP3   OH2 7058   1.318   5.664   3.173  0.0356  0.2479 -0.1374
 2351TIP3    H1 7059   1.361   5.633   3.093 -2.9578  0.4378 -1.9957
 2351TIP3    H2 7060   1.250   5.598   3.190  0.4526  0.3333  2.1756
 2352TIP3   OH2 7061   3.006   1.092   0.867  0.4501 -0.3181  0.3854
 2352TIP3    H1 7062   2.925   1.087   0.917  1.3623  0.8424  2.1029
 2352TIP3    H2 7063   2.994   1.166   0.808  0.4754  0.2366  1.0689
 2353TIP3   OH2 7064   4.809   1.169   4.562 -0.0789 -0.3949 -0.2603
 2353TIP3    H1 7065   4.800   1.178   4.657  0.9389  0.5904 -0.2462
 2353TIP3    H2 7066   4.836   1.255   4.532  0.6427 -0.9767 -1.3208
 2354TIP3   OH2 7067   5.916   2.358   2.416  0.0856  0.4281  0.0805
 2354TIP3    H1 7068   5.924   2.405   2.499  0.8475 -1.5425  1.1878
 2354TIP3    H2 7069   5.824   2.329   2.414  0.1418  0.2255  0.3883
 2355TIP3   OH2 7070   6.238   0.871   0.721 -0.2243  0.2391  0.3406
 2355TIP3    H1 7071   6.327   0.894   0.694 -1.2654  3.4954 -0.7546
 2355TIP3    H2 7072   6.207   0.812   0.652  1.1673 -1.3824  1.0106
 2356TIP3   OH2 7073   1.839   0.185   5.025  0.3011  0.0201 -0.2282
 2356TIP3    H1 7074   1.781   0.221   4.958 -1.0740  1.0382  1.4139
 2356TIP3    H2 7075   1.901   0.255   5.045 -0.0914  0.1956  0.4205
 2357TIP3   OH2 7076   4.377   5.871   2.900 -0.3595  0.0952  0.6115
 2357TIP3    H1 7077   4.329   5.818   2.837 -1.7064 -0.4150  1.9898
 2357TIP3    H2 7078   4.418   5.807   2.958  1.8735  0.5282 -0.3886
 2358TIP3   OH2 7079   2.409   1.534   3.458 -0.2505  0.3710  0.1340
 2358TIP3    H1 7080   2.420   1.610   3.515  0.1564  0.8997 -0.6223
 2358TIP3    H2 7081   2.321   1.543   3.422 -0.9796 -0.6091  1.5604
 2359TIP3   OH2 7082   5.100   4.146   0.562 -0.2079  0.1038  0.4546
 2359TIP3    H1 7083   5.033   4.140   0.494  0.1216 -3.0253  0.2768
 2359TIP3    H2 7084   5.149   4.225   0.541 -1.6765  0.5700 -1.4507
 2360TIP3   OH2 7085   0.460   1.056   2.661 -0.7716  0.4524 -0.1688
 2360TIP3    H1 7086   0.388   1.046   2.724 -1.8405 -0.3660 -1.4541
 2360TIP3    H2 7087   0.479   1.150   2.661 -1.0927  0.5272  0.9896
 2361TIP3   OH2 7088   4.573   0.102   4.095  0.0714  0.1616  0.0286
 2361TIP3    H1 7089   4.640   0.123   4.030 -0.7273  0.5997 -0.6814
 2361TIP3    H2 7090   4.622   0.081   4.174  1.1923 -2.2947 -1.1829
 2362TIP3   OH2 7091   2.114   2.145   2.754 -0.2603  0.0746 -0.0626
 2362TIP3    H1 7092   2.171   2.118   2.682  1.4217  0.6821  0.9842
 2362TIP3    H2 7093   2.079   2.229   2.726 -1.2603 -0.6404 -1.0298
 2363TIP3   OH2 7094   3.180   2.199   3.512  0.0433 -0.1798  0.2403
 2363TIP3    H1 7095   3.206   2.196   3.419  1.3742 -0.7115  0.5972
 2363TIP3    H2 7096   3.184   2.108   3.541  0.1677  0.0448  0.9512
 2364TIP3   OH2 7097   4.501   4.914   0.026 -0.0483  0.8070 -0.8630
 2364TIP3    H1 7098   4.580   4.889   0.075 -0.1628  0.0337 -1.0659
 2364TIP3    H2 7099   4.535   4.964  -0.049  0.2478  0.4800 -0.9489
 2365TIP3   OH2 7100   5.843   1.507   2.295  0.3379 -0.1617  0.0518
 2365TIP3    H1 7101   5.938   1.501   2.283  0.6310 -0.4177  2.1693
 2365TIP3    H2 7102   5.831   1.588   2.345 -0.4700 -0.6539  0.6542
 2366TIP3   OH2 7103   4.735   1.538   3.930  0.0531 -0.3984  0.2655
 2366TIP3    H1 7104   4.820   1.494   3.932 -0.4432 -1.4713 -1.1135
 2366TIP3    H2 7105   4.673   1.471   3.956 -0.5040  0.0473  0.1052
 2367TIP3   OH2 7106   0.979   5.254   4.201 -0.3050 -0.0327  0.5667
 2367TIP3    H1 7107   1.051   5.233   4.260  0.0076  0.6880  0.4458
 2367TIP3    H2 7108   1.021   5.278   4.119 -0.7131 -0.3056  0.2740
 2368TIP3   OH2 7109   1.801   2.983   0.158 -0.3083  0.1573 -0.0199
 2368TIP3    H1 7110   1.775   2.965   0.068 -0.1150 -1.2283  0.1736
 2368TIP3    H2 7111   1.775   2.905   0.207  2.4141 -0.5157  0.5283
 2369TIP3   OH2 7112   2.231   3.402   2.891 -0.0029  0.1880 -0.1897
 2369TIP3    H1 7113   2.183   3.441   2.964  1.5011 -0.3189  1.1282
 2369TIP3    H2 7114   2.259   3.476   2.838 -0.9451  0.5822 -0.1420
 2370TIP3   OH2 7115   5.585   2.686   0.483  0.2234 -0.4978 -0.6016
 2370TIP3    H1 7116   5.583   2.781   0.480 -0.3693 -0.4948 -0.1840
 2370TIP3    H2 7117   5.493   2.659   0.477 -0.1082 -0.8927  3.6787
 2371TIP3   OH2 7118   2.452   5.821   5.179 -0.4744  0.0230 -0.1958
 2371TIP3    H1 7119   2.465   5.736   5.220  0.7029  0.8472  1.2281
 2371TIP3    H2 7120   2.433   5.801   5.088  0.7079 -1.7359 -0.1017
 2372TIP3   OH2 7121   5.604   5.382   2.669  0.3617  0.2930 -0.1007
 2372TIP3    H1 7122   5.633   5.296   2.639  0.3999  0.4247 -0.4484
 2372TIP3    H2 7123   5.597   5.374   2.764  1.1985  0.1535 -0.0429
 2373TIP3   OH2 7124   0.411   3.751   1.680 -0.1962 -0.2025  0.5979
 2373TIP3    H1 7125   0.461   3.700   1.743 -1.3526  0.0994  1.8130
 2373TIP3    H2 7126   0.327   3.705   1.673  0.3015 -0.8563 -1.6020
 2374TIP3   OH2 7127   1.862   3.258   1.672  0.2233 -0.5765 -0.2446
 2374TIP3    H1 7128   1.896   3.280   1.759 -1.3469 -0.8829  0.4709
 2374TIP3    H2 7129   1.908   3.178   1.648  0.4095 -0.6908  0.4654
 2375TIP3   OH2 7130   4.601   2.795   3.535 -0.3607  0.6189  0.7143
 2375TIP3    H1 7131   4.561   2.776   3.620  1.4785 -1.6123  1.1708
 2375TIP3    H2 7132   4.548   2.746   3.472  1.0304 -1.7172  1.2299
 2376TIP3   OH2 7133  -0.006   3.538   4.782 -0.2277 -1.3963  0.3508
 2376TIP3    H1 7134   0.052   3.607   4.814 -0.7581 -1.2023  0.9370
 2376TIP3    H2 7135   0.000   3.543   4.687  1.1012 -1.7308  0.4074
 2377TIP3   OH2 7136   6.048   5.883   1.722 -0.1592 -0.0059  0.4261
 2377TIP3    H1 7137   6.115   5.847   1.664  0.8012  1.0251  0.8686
 2377TIP3    H2 7138   6.014   5.806   1.769  1.5555 -0.4187  1.0632
 2378TIP3   OH2 7139   3.947   1.032   2.225  0.1102  0.0256 -0.0652
 2378TIP3    H1 7140   3.868   1.069   2.186  0.2074 -0.6368 -0.9385
 2378TIP3    H2 7141   4.014   1.042   2.157  0.3650 -0.8722  0.0357
 2379TIP3   OH2 7142   3.874   5.467   0.200  0.2561 -0.2703  0.4953
 2379TIP3    H1 7143   3.903   5.558   0.199  0.6418 -0.3984 -0.6313
 2379TIP3    H2 7144   3.832   5.454   0.115 -0.4195 -0.9481  0.9243
 2380TIP3   OH2 7145   1.545   3.871   1.508 -0.0617  0.0064  0.0016
 2380TIP3    H1 7146   1.526   3.914   1.424 -0.4136 -0.3386 -0.1009
 2380TIP3    H2 7147   1.610   3.927   1.550  1.6211 -0.8274 -1.3556
 2381TIP3   OH2 7148   3.645   0.076   1.916 -0.2376 -0.4943 -0.0375
 2381TIP3    H1 7149   3.708   0.008   1.891  0.3994 -0.3272  1.0165
 2381TIP3    H2 7150   3.675   0.105   2.003 -1.0512  0.4649 -0.0589
 2382TIP3   OH2 7151   3.555   0.436   0.501 -0.1907 -1.0475 -0.7293
 2382TIP3    H1 7152   3.528   0.373   0.433  0.2406 -2.3150  0.2303
 2382TIP3    H2 7153   3.638   0.401   0.534 -0.4357 -0.4960  0.5055
 2383TIP3   OH2 7154   3.278   0.725   2.563  0.3666  0.1843  0.3299
 2383TIP3    H1 7155   3.250   0.660   2.499 -0.9938  0.2486  0.8116
 2383TIP3    H2 7156   3.243   0.808   2.530 -0.4837  0.1932  1.2071
 2384TIP3   OH2 7157   1.505   4.090   4.475 -0.1889 -0.5169 -0.6300
 2384TIP3    H1 7158   1.512   4.156   4.544  1.3994 -0.1818 -1.0722
 2384TIP3    H2 7159   1.441   4.027   4.508 -1.7577  1.2209 -0.1960
 2385TIP3   OH2 7160   2.336   5.036   3.884 -0.1958 -0.5633  0.1397
 2385TIP3    H1 7161   2.313   5.129   3.882 -1.9562 -0.8994  1.8955
 2385TIP3    H2 7162   2.337   5.009   3.792  0.8037  1.2615 -0.4278
 2386TIP3   OH2 7163   6.140   4.138   0.743 -0.2650  0.8473  0.1958
 2386TIP3    H1 7164   6.203   4.186   0.688 -0.2098 -0.7661 -1.2550
 2386TIP3    H2 7165   6.193   4.072   0.788 -0.9030 -1.1193 -1.7175
 2387TIP3   OH2 7166   1.083   5.328   4.592  0.1265 -1.0226 -0.0588
 2387TIP3    H1 7167   1.099   5.256   4.530  0.6191  0.9415 -2.3489
 2387TIP3    H2 7168   0.996   5.360   4.569  0.0928 -0.6064  0.6370
 2388TIP3   OH2 7169   4.297   4.808   1.013  0.2483  0.0488 -0.0702
 2388TIP3    H1 7170   4.320   4.843   0.927  1.1383  0.2049  0.2161
 2388TIP3    H2 7171   4.226   4.746   0.996  0.8643 -0.4209 -1.0071
 2389TIP3   OH2 7172   4.775   0.002   4.327 -0.0223  0.3314 -0.0392
 2389TIP3    H1 7173   4.751   0.076   4.384  0.6793 -1.1832  2.3528
 2389TIP3    H2 7174   4.871   0.007   4.321  0.1293 -0.9451  1.0059
 2390TIP3   OH2 7175   3.169   1.519   5.018  0.0497  0.1981  0.4363
 2390TIP3    H1 7176   3.260   1.531   4.989  0.3126 -0.6128  0.8774
 2390TIP3    H2 7177   3.116   1.548   4.944  0.6885 -0.4538 -0.2946
 2391TIP3   OH2 7178   0.466   1.226   4.524 -0.0215  0.5555  0.7736
 2391TIP3    H1 7179   0.532   1.159   4.538 -1.0346 -1.0221 -1.3867
 2391TIP3    H2 7180   0.468   1.243   4.430 -1.6097  1.6000  0.8774
 2392TIP3   OH2 7181   3.695   3.750   1.646  0.6988 -0.0760 -0.8466
 2392TIP3    H1 7182   3.775   3.704   1.673  0.6724  0.5377  0.3651
 2392TIP3    H2 7183   3.628   3.681   1.641  0.9252 -0.3528 -0.1982
 2393TIP3   OH2 7184   5.714   1.740   1.328  0.3048  0.2890  0.3674
 2393TIP3    H1 7185   5.637   1.752   1.273 -0.2467 -1.1508  0.7978
 2393TIP3    H2 7186   5.680   1.710   1.412  1.3785 -1.9812  0.0688
 2394TIP3   OH2 7187   4.221   5.664   0.350 -0.1328 -0.4559 -0.5605
 2394TIP3    H1 7188   4.178   5.664   0.265 -0.2120 -2.6505 -0.5889
 2394TIP3    H2 7189   4.228   5.571   0.373  1.4606 -0.0036  1.0297
 2395TIP3   OH2 7190   3.468   5.007   4.072 -0.1394 -0.2746  0.4497
 2395TIP3    H1 7191   3.423   4.938   4.022  1.4900 -0.1174 -1.3272
 2395TIP3    H2 7192   3.560   4.998   4.048  0.1335  2.5396  0.1513
 2396TIP3   OH2 7193   0.289   2.672   5.053 -0.1665  0.6305 -0.1181
 2396TIP3    H1 7194   0.227   2.614   5.009 -2.4106  2.5773  0.3309
 2396TIP3    H2 7195   0.237   2.721   5.116  1.7042  2.7453 -0.0658
 2397TIP3   OH2 7196   2.546   4.978   3.318  0.0277  0.5919 -0.3129
 2397TIP3    H1 7197   2.620   5.034   3.338 -0.7319  1.0789  1.2579
 2397TIP3    H2 7198   2.556   4.903   3.377  0.9283 -0.9030 -2.2456
 2398TIP3   OH2 7199   0.474   3.136   2.361 -0.8450 -0.0327 -0.2257
 2398TIP3    H1 7200   0.439   3.156   2.448 -1.3795 -0.4354 -0.3411
 2398TIP3    H2 7201   0.398   3.103   2.312 -0.9811  1.9731 -1.4517
 2399TIP3   OH2 7202   3.663   1.762   2.850 -0.5222  0.4436  0.3667
 2399TIP3    H1 7203   3.721   1.805   2.913 -0.3440  0.5494  0.1327
 2399TIP3    H2 7204   3.722   1.709   2.796 -0.7710 -0.3281  0.8411
 2400TIP3   OH2 7205   0.209   5.772   0.146  0.4887 -0.5972  0.7543
 2400TIP3    H1 7206   0.181   5.721   0.222  0.6711 -0.2076  1.0881
 2400TIP3    H2 7207   0.132   5.776   0.089  0.4509 -1.1758  0.7611
 2401TIP3   OH2 7208   1.233   3.036   0.128 -0.4539 -0.4205 -0.2005
 2401TIP3    H1 7209   1.232   3.081   0.044 -2.3584 -0.5857 -0.3225
 2401TIP3    H2 7210   1.287   2.959   0.114  0.6459  0.4249 -0.7592
 2402TIP3   OH2 7211   5.189   3.293   1.408  0.1489 -0.0896  0.0573
 2402TIP3    H1 7212   5.252   3.301   1.336  0.4398 -1.5298  0.1314
 2402TIP3    H2 7213   5.145   3.378   1.411  0.9862  0.3980 -1.0254
 2403TIP3   OH2 7214   5.067   5.831   1.578 -0.2457 -0.3979  0.3277
 2403TIP3    H1 7215   4.990   5.887   1.587 -0.7475 -0.4011 -2.8830
 2403TIP3    H2 7216   5.140   5.891   1.567 -0.2647 -0.3792  0.3036
 2404TIP3   OH2 7217   0.451   3.930   2.602 -0.0131 -0.3428  0.2213
 2404TIP3    H1 7218   0.543   3.932   2.629 -0.1857  0.2246  0.8089
 2404TIP3    H2 7219   0.430   4.021   2.581 -0.7446 -0.2674  1.1980
 2405TIP3   OH2 7220   1.606   5.768   2.925  0.2479 -0.2863 -0.4975
 2405TIP3    H1 7221   1.515   5.740   2.909  0.0273  0.9805 -1.6528
 2405TIP3    H2 7222   1.642   5.780   2.837  1.7953 -1.4738 -0.0643
 2406TIP3   OH2 7223   1.799   3.366   2.981 -0.0533  0.5263 -0.5603
 2406TIP3    H1 7224   1.806   3.395   3.072  0.1900 -4.0692  1.1598
 2406TIP3    H2 7225   1.716   3.401   2.951 -0.5468  1.5214  1.7234
 2407TIP3   OH2 7226   2.160   2.149   2.229 -0.2559  0.0315  0.2319
 2407TIP3    H1 7227   2.182   2.199   2.151 -0.4232  0.3347  0.3782
 2407TIP3    H2 7228   2.244   2.130   2.271  0.0452 -1.9492 -1.1152
 2408TIP3   OH2 7229   4.748   3.144   2.835  0.2549  0.4540 -0.6036
 2408TIP3    H1 7230   4.665   3.162   2.793 -0.6229 -1.1013  0.3427
 2408TIP3    H2 7231   4.745   3.192   2.918  0.8980  1.4703 -1.1481
 2409TIP3   OH2 7232   1.399   0.283   2.748 -0.6699  0.5830 -0.0453
 2409TIP3    H1 7233   1.378   0.208   2.692 -0.1701  0.6742 -0.3644
 2409TIP3    H2 7234   1.455   0.247   2.817  0.5976  0.8601 -0.8882
 2410TIP3   OH2 7235   2.153   0.871   1.843 -0.5086  0.0816  0.2492
 2410TIP3    H1 7236   2.061   0.867   1.871 -0.6401  0.2624 -0.1404
 2410TIP3    H2 7237   2.168   0.787   1.799 -1.4575  1.2608 -2.5340
 2411TIP3   OH2 7238   5.588   1.977   0.270 -0.2985  0.1137  0.0868
 2411TIP3    H1 7239   5.512   2.018   0.311  0.1638  0.7012  0.3766
 2411TIP3    H2 7240   5.551   1.915   0.207 -1.0123  0.6732 -0.0595
 2412TIP3   OH2 7241   0.919   5.741   1.005 -0.4852  0.5472 -0.0717
 2412TIP3    H1 7242   0.918   5.821   0.952 -3.6411  0.0948 -0.8809
 2412TIP3    H2 7243   1.012   5.728   1.027  0.3861  3.2050 -1.7127
 2413TIP3   OH2 7244   6.061   2.416   4.525 -0.5326 -0.5148 -0.5918
 2413TIP3    H1 7245   6.045   2.329   4.561  0.0827 -0.7950 -0.9664
 2413TIP3    H2 7246   6.021   2.414   4.438  0.7409 -0.9435 -1.2019
 2414TIP3   OH2 7247   5.030   2.215   4.782  0.3768  0.2273  0.2439
 2414TIP3    H1 7248   5.043   2.167   4.700  0.0693 -0.2445  0.4703
 2414TIP3    H2 7249   5.032   2.308   4.756 -0.8599  0.0727 -0.4639
 2415TIP3   OH2 7250   2.183   2.621   4.157  0.0303 -0.4138  0.3393
 2415TIP3    H1 7251   2.257   2.653   4.104 -0.2816 -0.6110 -0.2180
 2415TIP3    H2 7252   2.105   2.644   4.106 -0.2346 -1.4485  0.2592
 2416TIP3   OH2 7253   1.709   5.414   2.544 -0.6102 -0.3833 -0.3394
 2416TIP3    H1 7254   1.794   5.454   2.564  0.0757 -0.9420 -1.9858
 2416TIP3    H2 7255   1.652   5.488   2.524 -1.1265  0.1550  2.6460
 2417TIP3   OH2 7256   0.812   0.205   4.694  0.1368  0.0317  0.2906
 2417TIP3    H1 7257   0.768   0.188   4.611 -1.5312 -0.2229  1.1963
 2417TIP3    H2 7258   0.844   0.120   4.723 -0.3573 -0.0916  0.4855
 2418TIP3   OH2 7259   5.759   1.883   3.404  0.3861 -0.2801 -0.1274
 2418TIP3    H1 7260   5.748   1.918   3.315 -0.8118 -1.0884 -0.3197
 2418TIP3    H2 7261   5.749   1.788   3.393 -0.8170 -0.3007  1.0190
 2419TIP3   OH2 7262   1.126   4.662   2.264  1.1141  0.0785  0.3671
 2419TIP3    H1 7263   1.080   4.630   2.186  0.8997 -1.8129  1.2166
 2419TIP3    H2 7264   1.062   4.653   2.334  2.3754 -1.5427  1.3749
 2420TIP3   OH2 7265   3.011   4.719   4.139 -0.3325 -0.4096 -0.5093
 2420TIP3    H1 7266   2.923   4.697   4.168 -0.7622  1.2697 -0.4697
 2420TIP3    H2 7267   3.009   4.813   4.124  1.6394 -0.2214  0.1095
 2421TIP3   OH2 7268   1.109   4.634   1.285 -0.1552  0.3052 -0.0445
 2421TIP3    H1 7269   1.035   4.628   1.344  0.0758 -0.8697  0.1415
 2421TIP3    H2 7270   1.070   4.652   1.199 -0.6396 -0.0442  0.1005
 2422TIP3   OH2 7271   5.875   5.030   2.058 -0.5283  0.2800  0.9380
 2422TIP3    H1 7272   5.939   5.099   2.072 -0.7240  0.4108  1.1866
 2422TIP3    H2 7273   5.927   4.955   2.029 -0.5323  1.2110 -1.7221
 2423TIP3   OH2 7274   1.331   1.515   4.667  0.0453 -0.1973 -0.1649
 2423TIP3    H1 7275   1.348   1.558   4.751 -1.0241  1.2788 -0.6552
 2423TIP3    H2 7276   1.412   1.527   4.617 -0.0743  0.9045 -0.1222
 2424TIP3   OH2 7277   0.986   3.807   1.774  0.0261  0.1578 -0.0581
 2424TIP3    H1 7278   0.974   3.725   1.823 -0.6402  1.8609  2.8456
 2424TIP3    H2 7279   0.906   3.816   1.722 -0.4915 -0.3709  0.6366
 2425TIP3   OH2 7280   2.637   4.537   4.002  0.1912 -0.0199 -0.0182
 2425TIP3    H1 7281   2.589   4.464   3.962  0.5444 -0.6819  0.7277
 2425TIP3    H2 7282   2.579   4.567   4.073  0.5999 -0.4398  0.5083
 2426TIP3   OH2 7283   0.139   3.704   3.648 -0.2478 -0.7690  0.0878
 2426TIP3    H1 7284   0.219   3.757   3.643 -1.3841  1.0282  0.1179
 2426TIP3    H2 7285   0.143   3.663   3.735 -0.6862  1.6165  1.3229
 2427TIP3   OH2 7286   3.985   2.304   2.770  0.3037 -0.0900 -0.0296
 2427TIP3    H1 7287   3.970   2.213   2.794  0.0698 -0.2036 -0.6186
 2427TIP3    H2 7288   3.927   2.321   2.696  0.5160  0.4683 -0.0790
 2428TIP3   OH2 7289   4.514   4.883   2.837 -0.3220  0.5102 -0.1451
 2428TIP3    H1 7290   4.607   4.861   2.830 -0.2991  0.5375  0.0726
 2428TIP3    H2 7291   4.503   4.957   2.777 -0.4828 -0.3298 -1.1725
 2429TIP3   OH2 7292   5.116   0.971   0.605  0.1973 -0.1539 -0.2076
 2429TIP3    H1 7293   5.038   0.921   0.584  0.8511 -1.2756 -0.0510
 2429TIP3    H2 7294   5.089   1.030   0.675 -0.4932 -0.5723 -0.1200
 2430TIP3   OH2 7295   0.048   5.476   3.710 -0.0902 -0.1614 -0.2852
 2430TIP3    H1 7296   0.134   5.519   3.717 -0.2710  0.0962  0.5617
 2430TIP3    H2 7297   0.045   5.441   3.621  0.8107  0.0069 -0.3918
 2431TIP3   OH2 7298   4.866   0.909   4.433 -0.0538  0.4400 -0.1319
 2431TIP3    H1 7299   4.780   0.869   4.425 -0.1644  0.4303  1.0509
 2431TIP3    H2 7300   4.849   1.002   4.449  0.1491  0.4418  0.0915
 2432TIP3   OH2 7301   4.448   4.573   2.152 -0.1583  0.2742  0.2537
 2432TIP3    H1 7302   4.481   4.508   2.090 -0.0571 -0.7497  1.3533
 2432TIP3    H2 7303   4.356   4.586   2.128  0.1174  0.5690 -0.6675
 2433TIP3   OH2 7304   4.228   5.240   1.310  0.3474  0.0520  0.3248
 2433TIP3    H1 7305   4.195   5.195   1.232  0.9528 -1.3378  0.8353
 2433TIP3    H2 7306   4.301   5.186   1.340 -0.2931  0.1639  2.2436
 2434TIP3   OH2 7307   2.776   2.378   1.479 -0.0169 -0.4342  0.5719
 2434TIP3    H1 7308   2.827   2.392   1.558 -0.2126 -1.4325  0.8800
 2434TIP3    H2 7309   2.703   2.323   1.506 -0.4454 -0.2477 -0.1681
 2435TIP3   OH2 7310   1.496   2.593   3.302  0.7468 -0.0041 -0.1460
 2435TIP3    H1 7311   1.472   2.545   3.381 -1.6301  0.6270 -0.4184
 2435TIP3    H2 7312   1.559   2.537   3.258  0.1883 -1.5463  0.9285
 2436TIP3   OH2 7313   3.992   3.200   0.264  0.2427 -0.0489 -0.2223
 2436TIP3    H1 7314   3.958   3.113   0.244  0.9482 -0.0583 -1.5399
 2436TIP3    H2 7315   4.087   3.191   0.254  0.3266  0.8609 -0.3571
 2437TIP3   OH2 7316   3.732   5.899   4.963  0.0680  0.9045  0.8272
 2437TIP3    H1 7317   3.738   5.812   5.003  1.7130  1.0897  1.0445
 2437TIP3    H2 7318   3.801   5.950   5.006  0.3489  1.7878 -0.6220
 2438TIP3   OH2 7319   2.824   3.781   4.303 -0.6699  0.6636 -0.7963
 2438TIP3    H1 7320   2.731   3.801   4.289 -1.0517  0.4187  1.0513
 2438TIP3    H2 7321   2.846   3.831   4.382  0.5976  0.1886 -0.8375
 2439TIP3   OH2 7322   0.751   2.067   1.762 -0.9315  0.1643  0.5964
 2439TIP3    H1 7323   0.773   1.974   1.760 -1.9108 -0.1865  3.0632
 2439TIP3    H2 7324   0.693   2.079   1.686 -0.3543 -1.0850 -0.0871
 2440TIP3   OH2 7325   2.989   5.947   2.124 -0.2023  0.5178  0.3564
 2440TIP3    H1 7326   2.973   5.998   2.203 -0.3005  1.0709 -0.0108
 2440TIP3    H2 7327   2.930   5.986   2.058 -0.7871 -0.5143  0.2429
 2441TIP3   OH2 7328   4.639   2.062   3.002  0.2736  0.2843 -0.5903
 2441TIP3    H1 7329   4.685   1.979   2.998 -1.1278 -0.5765  0.3386
 2441TIP3    H2 7330   4.627   2.088   2.911  1.5130 -0.0679 -0.8582
 2442TIP3   OH2 7331   1.540   2.907   4.543 -0.3319 -0.2756 -0.4334
 2442TIP3    H1 7332   1.624   2.879   4.506 -0.0027 -0.0542  0.1316
 2442TIP3    H2 7333   1.546   3.003   4.545  0.8171 -0.2994  2.7501
 2443TIP3   OH2 7334   1.877   3.724   0.569 -0.1823  0.2964  0.3526
 2443TIP3    H1 7335   1.889   3.733   0.475  1.6167 -0.0586  0.5087
 2443TIP3    H2 7336   1.875   3.813   0.602 -0.0881  0.4146  0.0431
 2444TIP3   OH2 7337   5.395   4.275   2.352 -0.2378 -0.0099  0.5256
 2444TIP3    H1 7338   5.447   4.281   2.432  0.0311  0.3599  0.3257
 2444TIP3    H2 7339   5.338   4.352   2.355 -0.8498 -0.4691  0.7949
 2445TIP3   OH2 7340   1.414   1.605   4.911  0.6146 -0.5355 -0.1449
 2445TIP3    H1 7341   1.376   1.614   4.999 -1.1232 -0.0025 -0.9104
 2445TIP3    H2 7342   1.471   1.681   4.902  0.5289 -0.4017  0.4012
 2446TIP3   OH2 7343   5.916   4.172   4.599  0.2112 -0.3849 -0.5653
 2446TIP3    H1 7344   5.841   4.116   4.578 -0.4358  0.3799 -0.3548
 2446TIP3    H2 7345   5.894   4.209   4.684  1.5296 -1.3043  0.2039
 2447TIP3   OH2 7346  -0.022   2.925   0.790 -0.0568 -0.7023 -0.6884
 2447TIP3    H1 7347   0.069   2.910   0.765  0.0151 -1.0984 -0.1750
 2447TIP3    H2 7348  -0.044   2.852   0.848  0.1927  0.8937  1.5410
 2448TIP3   OH2 7349   4.360   5.001   1.526  0.1609 -0.0450 -0.0437
 2448TIP3    H1 7350   4.437   4.962   1.485  0.4397 -0.4548  0.8536
 2448TIP3    H2 7351   4.288   4.977   1.468  0.7060  0.4240 -0.9455
 2449TIP3   OH2 7352   5.186   0.894   2.547 -0.2203 -0.0222 -0.4512
 2449TIP3    H1 7353   5.154   0.970   2.596 -0.2892  0.3191 -1.0061
 2449TIP3    H2 7354   5.253   0.855   2.603 -1.5271 -0.6912  0.6890
 2450TIP3   OH2 7355   5.119   3.385   2.708 -0.1872 -0.0494 -0.8008
 2450TIP3    H1 7356   5.175   3.409   2.782  0.1388  1.8004 -1.6010
 2450TIP3    H2 7357   5.177   3.336   2.650 -0.7125 -2.5042  0.5781
 2451TIP3   OH2 7358   0.652   2.702   2.319 -0.1538  0.2849 -0.9025
 2451TIP3    H1 7359   0.662   2.769   2.387  0.1436  1.3490 -1.9804
 2451TIP3    H2 7360   0.689   2.623   2.358  0.1889  0.9246  0.1040
 2452TIP3   OH2 7361   4.982   1.173   0.773 -0.0995 -1.0586 -0.0151
 2452TIP3    H1 7362   4.925   1.152   0.847 -2.5507  1.0245 -1.1469
 2452TIP3    H2 7363   5.031   1.250   0.802 -1.0344 -0.2639 -0.4773
 2453TIP3   OH2 7364   5.309   2.107   3.340 -0.6454  0.4015 -0.2473
 2453TIP3    H1 7365   5.325   2.083   3.248 -0.3839 -1.1376  0.1770
 2453TIP3    H2 7366   5.216   2.129   3.343 -0.8866 -0.5190 -0.6811
 2454TIP3   OH2 7367   3.900   3.198   0.978 -0.2002 -0.4051  0.0090
 2454TIP3    H1 7368   3.863   3.193   1.066 -1.7454 -0.4552 -0.6027
 2454TIP3    H2 7369   3.941   3.113   0.963 -1.8596 -1.2275 -0.1031
 2455TIP3   OH2 7370   4.284   5.458   2.679  0.1989  0.2700 -0.3047
 2455TIP3    H1 7371   4.356   5.400   2.653  0.3247 -0.0439  0.6904
 2455TIP3    H2 7372   4.280   5.449   2.774  0.9219  2.7172  0.0366
 2456TIP3   OH2 7373   3.913   1.148   3.236  0.1073 -0.2426  0.5863
 2456TIP3    H1 7374   3.932   1.063   3.276  0.4533 -0.3623  0.1746
 2456TIP3    H2 7375   3.980   1.159   3.169 -0.0935  0.2394  0.4564
 2457TIP3   OH2 7376   4.289   2.271   0.049 -0.3578  0.4686  0.0395
 2457TIP3    H1 7377   4.378   2.237   0.043 -0.1189  0.9083  0.8941
 2457TIP3    H2 7378   4.296   2.347   0.107 -0.9090  1.8829 -1.6599
 2458TIP3   OH2 7379   1.515   5.487   5.048  0.8748 -0.0262  0.0606
 2458TIP3    H1 7380   1.535   5.400   5.083  0.9027  0.3396  0.9741
 2458TIP3    H2 7381   1.422   5.485   5.029  1.2084 -0.8618 -1.7041
 2459TIP3   OH2 7382   0.618   4.747   2.644  0.0060  0.4100  0.6179
 2459TIP3    H1 7383   0.672   4.668   2.639  0.1193  0.3599  2.2130
 2459TIP3    H2 7384   0.595   4.754   2.737  0.5796  2.6368  0.6338
 2460TIP3   OH2 7385   4.597   4.227   0.933  0.2224  0.4049 -0.6010
 2460TIP3    H1 7386   4.578   4.174   1.011  0.4801 -0.4263 -1.0970
 2460TIP3    H2 7387   4.690   4.246   0.940  0.2842  0.1749 -0.8023
 2461TIP3   OH2 7388   5.677   0.823   1.118 -0.0911 -0.3259 -0.3013
 2461TIP3    H1 7389   5.709   0.912   1.102 -0.4652  0.0875  1.1493
 2461TIP3    H2 7390   5.584   0.826   1.094 -0.2781 -0.1238  0.4355
 2462TIP3   OH2 7391   1.975   2.504   1.386 -0.0304 -0.3096  0.2916
 2462TIP3    H1 7392   1.922   2.574   1.347  0.9230  0.1375 -0.2269
 2462TIP3    H2 7393   1.967   2.519   1.481  2.3551  2.2751  0.2221
 2463TIP3   OH2 7394   5.908   0.217   0.194 -0.3978  0.6747  0.0544
 2463TIP3    H1 7395   5.910   0.127   0.228 -1.3342  0.5290 -0.2488
 2463TIP3    H2 7396   5.976   0.218   0.126 -0.7627  0.0149 -0.3417
 2464TIP3   OH2 7397   4.558   0.885   3.715 -0.3573 -0.0053 -0.3392
 2464TIP3    H1 7398   4.466   0.890   3.742  0.0568  1.1542  0.9934
 2464TIP3    H2 7399   4.597   0.821   3.775 -0.0873  0.2438 -0.2481
 2465TIP3   OH2 7400   1.219   3.759   0.596 -0.4972  0.3734 -0.1547
 2465TIP3    H1 7401   1.240   3.851   0.611 -3.1197  1.6899 -3.1606
 2465TIP3    H2 7402   1.296   3.724   0.551  0.6695  0.9490  1.3156
 2466TIP3   OH2 7403   0.396   2.730   3.082  0.0994  0.1708  0.1126
 2466TIP3    H1 7404   0.473   2.700   3.130 -0.7764 -0.1379  1.3844
 2466TIP3    H2 7405   0.383   2.664   3.014 -0.9101 -1.6106  1.9239
 2467TIP3   OH2 7406   2.301   2.763   3.682  0.2460 -0.0514 -0.4320
 2467TIP3    H1 7407   2.318   2.856   3.663  1.1208 -0.0256  0.4232
 2467TIP3    H2 7408   2.206   2.755   3.680  0.1386  0.9941  0.1032
 2468TIP3   OH2 7409   2.986   4.059   2.100  0.1579 -0.3091 -0.4278
 2468TIP3    H1 7410   3.074   4.088   2.126 -0.2553  0.6762 -0.1102
 2468TIP3    H2 7411   2.999   4.021   2.013  0.7708  0.5901 -0.7415
 2469TIP3   OH2 7412   0.589   3.967   4.654 -0.1342  0.1791  0.2093
 2469TIP3    H1 7413   0.557   4.021   4.726 -0.8413  0.0256  0.0220
 2469TIP3    H2 7414   0.644   3.901   4.696 -0.4524  0.1588  0.5953
 2470TIP3   OH2 7415   5.048   3.038   0.915  0.0135  0.2231 -0.1077
 2470TIP3    H1 7416   5.020   3.107   0.975  2.6330  2.0474 -0.7922
 2470TIP3    H2 7417   5.140   3.023   0.937  0.4380 -0.6143 -2.1977
 2471TIP3   OH2 7418   2.904   2.042   1.568  0.0053  0.0697 -0.6360
 2471TIP3    H1 7419   2.917   2.057   1.662 -0.4725 -0.3599 -0.5017
 2471TIP3    H2 7420   2.980   1.990   1.542  0.9083  1.4189 -0.8014
 2472TIP3   OH2 7421   5.124   3.936   0.142 -0.6698 -0.0087  0.2559
 2472TIP3    H1 7422   5.134   4.029   0.164 -0.9526  0.5583 -1.7649
 2472TIP3    H2 7423   5.181   3.924   0.066 -2.0048 -1.0419 -0.6106
 2473TIP3   OH2 7424   3.831   2.242   4.310 -0.3244 -0.2911 -0.1435
 2473TIP3    H1 7425   3.847   2.152   4.282 -0.0710  0.0741 -1.2257
 2473TIP3    H2 7426   3.917   2.282   4.317 -0.4248 -0.1905  0.5320
 2474TIP3   OH2 7427   3.669   1.250   0.077  0.1439 -0.2378  0.5518
 2474TIP3    H1 7428   3.637   1.330   0.037 -0.5315 -1.3059 -1.1525
 2474TIP3    H2 7429   3.648   1.260   0.170  2.4460  2.6440  0.9134
 2475TIP3   OH2 7430   1.768   2.173   2.639  0.3837 -0.5594  0.1231
 2475TIP3    H1 7431   1.848   2.203   2.596  0.5575 -0.4611  0.5070
 2475TIP3    H2 7432   1.794   2.092   2.683  0.4643 -0.1435  0.8544
 2476TIP3   OH2 7433   3.106   2.723   0.813  0.5416 -0.2076 -0.2669
 2476TIP3    H1 7434   3.053   2.792   0.852 -0.2299 -0.4980 -0.7831
 2476TIP3    H2 7435   3.092   2.732   0.719  0.0315 -1.3803 -0.3173
 2477TIP3   OH2 7436   0.731   1.531   4.300 -0.0022 -0.2944 -0.0642
 2477TIP3    H1 7437   0.700   1.478   4.226  0.8601  0.9640 -1.3741
 2477TIP3    H2 7438   0.657   1.534   4.360 -1.0040 -0.6925 -1.2371
 2478TIP3   OH2 7439   3.427   2.814   4.260  0.5033  0.0291 -0.0566
 2478TIP3    H1 7440   3.425   2.738   4.203 -1.5860  0.5827 -0.8355
 2478TIP3    H2 7441   3.408   2.779   4.347 -1.0999 -0.3361 -0.5053
 2479TIP3   OH2 7442   5.051   5.452   2.004  0.9506  0.4111  0.0321
 2479TIP3    H1 7443   5.122   5.451   1.940  0.7287 -3.7993 -0.3952
 2479TIP3    H2 7444   4.978   5.408   1.959  0.2610 -1.1968  2.5566
 2480TIP3   OH2 7445   4.270   1.760   3.985 -0.1889 -0.1896  0.4233
 2480TIP3    H1 7446   4.354   1.796   3.957  0.0036 -1.5838 -0.9387
 2480TIP3    H2 7447   4.293   1.684   4.037 -0.5854 -0.8812 -0.3890
 2481TIP3   OH2 7448   4.479   3.768   1.868 -0.1803  0.0884 -0.0436
 2481TIP3    H1 7449   4.563   3.723   1.864  0.8386  1.8540  0.3182
 2481TIP3    H2 7450   4.489   3.840   1.806 -1.3986  0.3789  0.0879
 2482TIP3   OH2 7451   2.864   4.340   3.223  0.0763 -0.5914 -0.0912
 2482TIP3    H1 7452   2.771   4.341   3.201  0.0314 -1.2911  0.0374
 2482TIP3    H2 7453   2.908   4.318   3.141  0.0434 -1.3437  0.0853
 2483TIP3   OH2 7454   4.154   4.685   2.364 -0.5490  0.0310  0.2282
 2483TIP3    H1 7455   4.143   4.594   2.337  0.4255  0.3832 -1.5093
 2483TIP3    H2 7456   4.249   4.698   2.368 -0.6110  1.4249 -1.3576
 2484TIP3   OH2 7457   0.668   0.471   2.719 -0.5576 -0.1006  0.4859
 2484TIP3    H1 7458   0.592   0.476   2.777 -1.2508  1.8408 -0.4938
 2484TIP3    H2 7459   0.743   0.483   2.778 -1.2077  1.1690  1.1230
 2485TIP3   OH2 7460   6.087   4.391   4.012 -0.3633  0.5523  0.2375
 2485TIP3    H1 7461   6.166   4.378   3.959 -0.1876 -0.7228  0.7667
 2485TIP3    H2 7462   6.096   4.480   4.047  0.2422  0.8653 -0.6781
 2486TIP3   OH2 7463   1.706   4.561   1.672  0.6133  0.1779 -0.5744
 2486TIP3    H1 7464   1.631   4.535   1.727  0.6089  1.5070  0.0974
 2486TIP3    H2 7465   1.779   4.508   1.704  1.2447  2.5999  2.5574
 2487TIP3   OH2 7466   0.111   0.979   3.795  0.6445  0.1783  0.2734
 2487TIP3    H1 7467   0.089   1.072   3.799  2.0614  0.5203  0.6416
 2487TIP3    H2 7468   0.051   0.937   3.857 -1.2609  0.5459 -1.2187
 2488TIP3   OH2 7469   5.014   1.168   4.279 -0.2317  0.6088  0.2095
 2488TIP3    H1 7470   5.073   1.179   4.204  0.1374  0.7274  0.5105
 2488TIP3    H2 7471   5.073   1.159   4.354 -0.5842 -0.1938  0.4007
 2489TIP3   OH2 7472   3.663   5.018   3.229  0.6715  0.5132  0.3347
 2489TIP3    H1 7473   3.754   4.991   3.242 -0.0520 -1.7744  1.2576
 2489TIP3    H2 7474   3.629   5.027   3.318 -0.6008 -1.0521  0.0523
 2490TIP3   OH2 7475   3.332   0.864   1.824  0.3220 -0.0169 -0.1123
 2490TIP3    H1 7476   3.339   0.791   1.886  1.4219  2.6710  3.1839
 2490TIP3    H2 7477   3.238   0.879   1.816  0.1598 -0.1652  1.2620
 2491TIP3   OH2 7478   5.000   2.992   2.002  0.3242  0.0271  0.3760
 2491TIP3    H1 7479   4.947   2.912   2.003  0.9702 -0.4495  2.8363
 2491TIP3    H2 7480   4.998   3.024   2.092 -0.1526  3.0081 -0.5876
 2492TIP3   OH2 7481   0.764   0.260   1.049 -0.1316 -0.3407  0.1084
 2492TIP3    H1 7482   0.747   0.310   0.969  1.8329  1.9447  0.9782
 2492TIP3    H2 7483   0.831   0.196   1.023 -1.7766 -1.7996 -0.7306
 2493TIP3   OH2 7484   2.204   4.451   0.351 -0.3262 -0.4471 -0.2949
 2493TIP3    H1 7485   2.211   4.357   0.363 -0.1691 -0.3844  0.1034
 2493TIP3    H2 7486   2.214   4.463   0.256  0.3917 -0.7695 -0.2675
 2494TIP3   OH2 7487   3.966   3.123   1.648  0.4136 -0.2940  0.5596
 2494TIP3    H1 7488   4.032   3.054   1.648 -0.5407 -1.2595 -0.1346
 2494TIP3    H2 7489   3.911   3.103   1.572 -1.0547  0.0766  1.4663
 2495TIP3   OH2 7490   2.163   3.119   3.819 -0.0283 -0.2422 -0.3319
 2495TIP3    H1 7491   2.125   3.112   3.906 -0.4111 -1.8690 -0.6106
 2495TIP3    H2 7492   2.256   3.133   3.835 -0.1205 -0.3358  0.3370
 2496TIP3   OH2 7493   1.162   2.225   0.712 -0.3111 -1.0162 -0.4465
 2496TIP3    H1 7494   1.123   2.173   0.641 -1.4232 -0.9887  0.1146
 2496TIP3    H2 7495   1.160   2.315   0.680  2.2624 -1.3246 -1.7076
 2497TIP3   OH2 7496   5.448   3.998   1.102  0.4974  0.6152  0.1143
 2497TIP3    H1 7497   5.510   4.018   1.171 -1.4543  1.5053  1.7226
 2497TIP3    H2 7498   5.375   3.955   1.146 -1.0107  1.5931 -1.2914
 2498TIP3   OH2 7499   0.476   1.322   2.629  0.0438 -0.4094 -0.3631
 2498TIP3    H1 7500   0.527   1.370   2.695  0.7447 -1.5864 -0.0285
 2498TIP3    H2 7501   0.397   1.375   2.617  1.1074  1.2096 -0.5398
 2499TIP3   OH2 7502   5.912   2.491   3.507  0.6338 -0.0931  0.6297
 2499TIP3    H1 7503   5.972   2.565   3.506  2.1500 -1.1887 -2.5098
 2499TIP3    H2 7504   5.841   2.518   3.565  1.0564  3.8504 -0.4346
 2500TIP3   OH2 7505   0.077   1.138   2.918 -0.3893  0.0853 -0.6756
 2500TIP3    H1 7506   0.080   1.164   2.825  0.6909  1.3862 -0.3130
 2500TIP3    H2 7507  -0.016   1.125   2.936 -0.6577  0.2723 -1.8234
 2501TIP3   OH2 7508   2.344   5.040   4.164 -0.3184 -0.3723 -0.0805
 2501TIP3    H1 7509   2.340   5.034   4.068  1.5199 -1.6851 -0.1147
 2501TIP3    H2 7510   2.418   5.098   4.182 -0.0090 -0.9464  0.5458
 2502TIP3   OH2 7511   6.248   5.590   2.805 -0.0193  0.2263  0.1987
 2502TIP3    H1 7512   6.249   5.684   2.786 -0.5259  0.0690 -0.6858
 2502TIP3    H2 7513   6.218   5.584   2.895 -1.4871  0.8551 -0.2198
 2503TIP3   OH2 7514   3.871   5.232   5.111 -0.2036  0.1659  0.1816
 2503TIP3    H1 7515   3.829   5.225   5.025  0.8120  0.1687 -0.3331
 2503TIP3    H2 7516   3.806   5.275   5.166 -1.3926 -1.0795 -0.2052
 2504TIP3   OH2 7517   3.586   5.659   4.892  0.4918  0.0795  0.2889
 2504TIP3    H1 7518   3.671   5.614   4.891 -0.4873 -2.0443  2.3027
 2504TIP3    H2 7519   3.539   5.623   4.816  0.0135 -1.8431  1.4251
 2505TIP3   OH2 7520   3.960   0.062   2.444  0.4945 -0.2688 -0.0378
 2505TIP3    H1 7521   4.012   0.021   2.513  0.0066 -1.2399 -0.2350
 2505TIP3    H2 7522   3.930  -0.010   2.389  1.1125  0.4931 -1.4548
 2506TIP3   OH2 7523   4.975   0.802   4.195 -0.2230 -0.0299  0.0798
 2506TIP3    H1 7524   4.948   0.872   4.255  0.0665 -1.8266  2.4628
 2506TIP3    H2 7525   4.900   0.792   4.136 -1.6468  0.2092  1.7297
 2507TIP3   OH2 7526   1.578   1.982   3.463 -0.4398  0.5921 -0.8965
 2507TIP3    H1 7527   1.528   2.011   3.540  0.6831 -0.6312  0.3596
 2507TIP3    H2 7528   1.514   1.936   3.409 -0.8188 -0.5703  0.4734
 2508TIP3   OH2 7529   3.385   1.635   1.514 -0.5087 -0.3038  0.2591
 2508TIP3    H1 7530   3.404   1.601   1.426  1.0938 -0.3964  0.6088
 2508TIP3    H2 7531   3.428   1.720   1.516 -3.3928  1.3119 -0.1580
 2509TIP3   OH2 7532   3.686   1.733   3.427 -0.0910  0.7319 -0.1620
 2509TIP3    H1 7533   3.732   1.694   3.354 -1.1668 -2.1202  0.5527
 2509TIP3    H2 7534   3.736   1.707   3.504 -3.0357 -3.2442  0.7255
 2510TIP3   OH2 7535   2.971   5.266   0.260 -0.0067  0.1704  0.1582
 2510TIP3    H1 7536   2.890   5.317   0.261  0.0461  0.2489  0.8397
 2510TIP3    H2 7537   2.961   5.207   0.185  0.0589  1.3584 -0.8094
 2511TIP3   OH2 7538   4.989   0.358   0.663 -0.7125  0.1283  0.1384
 2511TIP3    H1 7539   5.005   0.395   0.576 -0.8343  0.0775  0.0948
 2511TIP3    H2 7540   5.040   0.276   0.664  2.2827  1.8073  1.3781
 2512TIP3   OH2 7541   4.466   4.131   5.057  0.0980 -0.3925 -0.0259
 2512TIP3    H1 7542   4.507   4.217   5.044 -1.1738  0.2189 -0.2084
 2512TIP3    H2 7543   4.517   4.090   5.127  0.6794  0.5505  0.1163
 2513TIP3   OH2 7544   2.204   2.821   1.642  0.2077  0.5553 -0.2752
 2513TIP3    H1 7545   2.194   2.765   1.719 -0.2764  0.5071 -0.3703
 2513TIP3    H2 7546   2.116   2.827   1.605  0.6421 -0.3828 -1.5000
 2514TIP3   OH2 7547   3.539   2.189   1.389  0.4839  0.5149 -0.5548
 2514TIP3    H1 7548   3.458   2.144   1.364 -0.3695  1.0478  1.0532
 2514TIP3    H2 7549   3.541   2.267   1.334 -0.0871  0.4818 -0.6373
 2515TIP3   OH2 7550   2.420   5.354   0.004  1.0070  0.0990  0.1376
 2515TIP3    H1 7551   2.387   5.320   0.087  1.2313  0.7724  0.5105
 2515TIP3    H2 7552   2.371   5.435  -0.010  0.3345 -0.4541 -0.8423
 2516TIP3   OH2 7553   2.352   4.190   1.083  0.0809 -0.1616 -0.4276
 2516TIP3    H1 7554   2.434   4.191   1.132  0.6412 -1.9186 -1.2261
 2516TIP3    H2 7555   2.378   4.206   0.992 -0.0375 -3.2296 -1.1101
 2517TIP3   OH2 7556   5.814   0.369   3.839  0.0501  0.3041  0.1276
 2517TIP3    H1 7557   5.841   0.315   3.914 -2.5229  0.6173  1.3990
 2517TIP3    H2 7558   5.761   0.310   3.785  2.2224 -0.0388 -1.7959
 2518TIP3   OH2 7559   2.253   0.068   3.201  0.0589  0.3912 -0.5802
 2518TIP3    H1 7560   2.285   0.036   3.117 -0.2819 -1.1191 -0.1569
 2518TIP3    H2 7561   2.299   0.017   3.267  0.1127  1.3617  0.1714
 2519TIP3   OH2 7562   0.170   5.892   3.923 -0.2559  0.0146  0.2366
 2519TIP3    H1 7563   0.141   5.805   3.948  1.3114  0.0159  2.3692
 2519TIP3    H2 7564   0.260   5.881   3.894 -0.5990  0.7094 -1.1886
 2520TIP3   OH2 7565   4.995   3.820   2.658  0.5584 -0.6613 -0.4461
 2520TIP3    H1 7566   4.917   3.797   2.707 -0.3095  0.4375 -1.2577
 2520TIP3    H2 7567   5.067   3.780   2.707 -0.5174 -1.9029  0.1704
 2521TIP3   OH2 7568   5.515   3.479   3.163  0.2085  0.0167  0.3453
 2521TIP3    H1 7569   5.452   3.412   3.189 -1.4482  1.4520  0.2369
 2521TIP3    H2 7570   5.599   3.434   3.163 -0.7450 -1.8882  0.8797
 2522TIP3   OH2 7571   3.801   4.458   3.605 -1.1398 -0.0382  0.0660
 2522TIP3    H1 7572   3.743   4.518   3.558 -0.0456  0.5617 -0.5447
 2522TIP3    H2 7573   3.880   4.509   3.621 -0.0626 -1.4112 -0.7392
 2523TIP3   OH2 7574   1.937   4.449   5.136  0.7149 -0.2637  0.1372
 2523TIP3    H1 7575   1.941   4.539   5.104  1.3911 -0.4095 -0.2039
 2523TIP3    H2 7576   1.897   4.456   5.223  1.2269  0.4175  0.3262
 2524TIP3   OH2 7577   3.115   0.237   1.586 -0.1758  0.4157 -0.0194
 2524TIP3    H1 7578   3.154   0.185   1.516  0.1264 -0.4872  0.8084
 2524TIP3    H2 7579   3.071   0.173   1.642 -1.5009  1.2484 -0.0605
 2525TIP3   OH2 7580   3.782   4.636   0.460  1.0274 -0.0415  0.2087
 2525TIP3    H1 7581   3.798   4.556   0.410  1.5972  0.1778  0.0349
 2525TIP3    H2 7582   3.857   4.642   0.519  1.9120  1.2984 -0.9959
 2526TIP3   OH2 7583   4.606   3.963   0.678 -0.1106 -0.1109 -0.1304
 2526TIP3    H1 7584   4.653   3.880   0.669 -0.0329 -0.2449  1.3637
 2526TIP3    H2 7585   4.513   3.939   0.673 -0.2256 -0.7558  3.1727
 2527TIP3   OH2 7586   0.785   3.473   3.739 -0.1993  0.4976 -0.2046
 2527TIP3    H1 7587   0.715   3.518   3.690  0.0619 -0.2728 -1.3057
 2527TIP3    H2 7588   0.748   3.462   3.827 -1.0919  0.9690 -0.5011
 2528TIP3   OH2 7589   4.482   0.823   4.870  0.4205  0.7189  0.1763
 2528TIP3    H1 7590   4.566   0.836   4.826 -0.4119  0.4426 -1.5327
 2528TIP3    H2 7591   4.472   0.727   4.876 -1.7976  0.5116 -3.8233
 2529TIP3   OH2 7592   5.263   0.229   3.247  0.0960 -0.1726 -0.0095
 2529TIP3    H1 7593   5.278   0.236   3.152 -0.6806 -0.0962 -0.1276
 2529TIP3    H2 7594   5.327   0.163   3.275  1.3630  0.8838 -0.3268
 2530TIP3   OH2 7595   2.384   2.874   1.945  0.1458  0.1009  0.4922
 2530TIP3    H1 7596   2.417   2.889   2.033  0.3475 -1.4840  0.7056
 2530TIP3    H2 7597   2.439   2.804   1.910  2.4693  3.0016 -2.2657
 2531TIP3   OH2 7598   3.354   1.515   3.690  0.9660 -0.0246  0.8869
 2531TIP3    H1 7599   3.274   1.498   3.740 -0.2715 -2.0027 -1.5417
 2531TIP3    H2 7600   3.420   1.458   3.731  0.1571 -1.1018  0.7423
 2532TIP3   OH2 7601   0.168   3.770   2.194  0.1573  0.3424  0.0248
 2532TIP3    H1 7602   0.195   3.791   2.284 -1.6339 -2.2246  1.3130
 2532TIP3    H2 7603   0.158   3.855   2.151  1.7517  1.6290  2.0142
 2533TIP3   OH2 7604   1.042   3.941   1.472 -0.4026  0.6725 -0.1740
 2533TIP3    H1 7605   1.089   3.986   1.542  0.8188 -0.5691 -0.1590
 2533TIP3    H2 7606   1.108   3.886   1.430 -1.5351 -0.0427 -1.0788
 2534TIP3   OH2 7607   2.593   1.445   3.235  0.0651  0.0063 -0.2326
 2534TIP3    H1 7608   2.529   1.420   3.302 -0.4859  0.7715 -0.4593
 2534TIP3    H2 7609   2.540   1.484   3.165  0.7319  0.1460 -0.6649
 2535TIP3   OH2 7610   0.434   5.587   2.776 -0.0480  0.1731 -0.1775
 2535TIP3    H1 7611   0.486   5.625   2.705  0.8252  0.0259  0.3739
 2535TIP3    H2 7612   0.495   5.530   2.823 -0.6089  0.2728  0.6973
 2536TIP3   OH2 7613   4.720   5.740   0.803 -0.4590 -0.3776  0.4472
 2536TIP3    H1 7614   4.718   5.833   0.781  0.7844 -0.8064 -1.6491
 2536TIP3    H2 7615   4.659   5.699   0.741  0.5644 -1.2050 -0.0402
 2537TIP3   OH2 7616   1.667   5.358   0.283  0.3116  0.5738  0.0514
 2537TIP3    H1 7617   1.709   5.422   0.225  0.3098 -1.4410 -2.3647
 2537TIP3    H2 7618   1.573   5.376   0.275  0.3527  0.8048  0.0766
 2538TIP3   OH2 7619   3.015   3.823   3.452 -0.1944  0.2214  0.3177
 2538TIP3    H1 7620   3.021   3.789   3.541 -0.2654  1.0647  0.6598
 2538TIP3    H2 7621   3.105   3.823   3.420 -0.2025 -0.3296  0.2904
 2539TIP3   OH2 7622   4.840   1.507   2.415 -0.1724 -0.4852 -0.1189
 2539TIP3    H1 7623   4.879   1.448   2.478 -0.1419 -1.7568 -1.2768
 2539TIP3    H2 7624   4.745   1.495   2.425 -0.1747 -0.4743 -0.1278
 2540TIP3   OH2 7625   5.486   1.335   5.092 -0.2743  0.5257  0.1304
 2540TIP3    H1 7626   5.391   1.332   5.093 -0.3360 -2.9741  2.8068
 2540TIP3    H2 7627   5.507   1.428   5.101 -3.5086  1.2376  1.9310
 2541TIP3   OH2 7628   0.526   0.197   0.639  0.4040  0.5324 -0.0543
 2541TIP3    H1 7629   0.570   0.140   0.703 -0.2459 -1.0445 -0.9390
 2541TIP3    H2 7630   0.433   0.188   0.659  0.0481 -1.2483 -2.1117
 2542TIP3   OH2 7631   4.336   5.930   1.163  0.2494 -0.0956  0.1732
 2542TIP3    H1 7632   4.404   5.997   1.158  0.4168 -0.1672  1.2984
 2542TIP3    H2 7633   4.384   5.847   1.170  0.0465 -0.1977  0.3674
 2543TIP3   OH2 7634   3.493   4.077   2.555  0.1183 -0.0480  0.3656
 2543TIP3    H1 7635   3.413   4.116   2.518 -0.4844 -0.4802  1.1658
 2543TIP3    H2 7636   3.524   4.017   2.487  0.6148  1.2232 -0.5606
 2544TIP3   OH2 7637   1.663   5.932   0.095 -0.2114 -0.3602  0.1614
 2544TIP3    H1 7638   1.612   5.908   0.017  1.4594 -0.6340 -0.8845
 2544TIP3    H2 7639   1.702   6.016   0.073  0.7166 -0.7002  0.4870
 2545TIP3   OH2 7640   0.898   3.157   0.694  0.3228 -0.3097 -0.5919
 2545TIP3    H1 7641   0.844   3.224   0.737  0.8560 -0.3738  0.1993
 2545TIP3    H2 7642   0.835   3.091   0.664 -0.0019 -0.7374  0.9483
 2546TIP3   OH2 7643   4.325   1.183   4.026 -0.2741  0.2444  0.0882
 2546TIP3    H1 7644   4.340   1.149   4.114  0.2692  2.3179  0.8600
 2546TIP3    H2 7645   4.253   1.246   4.037  0.8186  1.6659 -0.6058
 2547TIP3   OH2 7646   4.339   2.805   1.091 -0.0491  0.3498 -0.1105
 2547TIP3    H1 7647   4.262   2.765   1.050  0.6535 -0.0694 -1.0504
 2547TIP3    H2 7648   4.358   2.748   1.166 -0.8290  0.6346  0.3215
 2548TIP3   OH2 7649   1.847   2.810   4.642 -0.5215  0.2607 -0.1214
 2548TIP3    H1 7650   1.918   2.745   4.644  0.2509  1.0022 -1.6064
 2548TIP3    H2 7651   1.774   2.766   4.685  0.0170 -1.5545 -0.9359
 2549TIP3   OH2 7652   4.952   2.122   2.760  0.4011 -0.1481  0.3712
 2549TIP3    H1 7653   4.975   2.204   2.715 -1.7161  0.9038  1.0515
 2549TIP3    H2 7654   4.955   2.056   2.691 -0.5457  1.0210 -0.8489
 2550TIP3   OH2 7655   3.659   0.431   0.992  0.1067 -0.0994  0.1138
 2550TIP3    H1 7656   3.651   0.467   1.080  0.4033  0.1351  0.0428
 2550TIP3    H2 7657   3.570   0.437   0.955  0.0744  0.1990  0.2399
 2551TIP3   OH2 7658   0.908   3.945   2.408 -0.4121 -0.6856  0.1865
 2551TIP3    H1 7659   0.858   4.018   2.444  0.5029  0.7976 -1.3507
 2551TIP3    H2 7660   0.842   3.882   2.379 -1.3331  0.4546 -0.2705
 2552TIP3   OH2 7661   3.229   5.875   0.943 -0.2173  0.1847  0.2214
 2552TIP3    H1 7662   3.178   5.842   1.017  0.3254  0.9130  0.9408
 2552TIP3    H2 7663   3.310   5.823   0.944 -0.0983  0.3672  0.3122
 2553TIP3   OH2 7664   3.922   5.939   2.547  0.0279  0.6461 -0.4115
 2553TIP3    H1 7665   3.887   5.852   2.565 -1.6337  1.5686  1.2288
 2553TIP3    H2 7666   3.942   5.939   2.453 -0.1783 -1.3932 -0.4861
 2554TIP3   OH2 7667   3.955   2.113   4.058  0.1727 -0.8556  0.3807
 2554TIP3    H1 7668   3.876   2.164   4.042 -0.4078 -1.1755  2.0335
 2554TIP3    H2 7669   4.019   2.148   3.996 -1.0522 -0.1285 -0.5187
 2555TIP3   OH2 7670   6.007   3.292   1.126 -0.0630 -1.1917 -0.4050
 2555TIP3    H1 7671   5.990   3.337   1.043 -1.8300 -1.5043 -0.2409
 2555TIP3    H2 7672   6.084   3.337   1.161 -1.8954  2.0394 -0.0750
 2556TIP3   OH2 7673   0.594   0.910   0.050  0.7810  0.0032 -0.2060
 2556TIP3    H1 7674   0.592   0.814   0.051 -1.7440  0.0037  1.1197
 2556TIP3    H2 7675   0.602   0.934   0.142 -0.7769  1.0588 -0.3244
 2557TIP3   OH2 7676   1.602   0.592   0.641  0.1614  0.0756  0.1056
 2557TIP3    H1 7677   1.659   0.630   0.708  3.0990  0.1721 -2.2239
 2557TIP3    H2 7678   1.605   0.497   0.657  0.1590  0.1639  0.6164
 2558TIP3   OH2 7679  -0.038   5.009   2.522 -0.1651 -0.2287 -0.4897
 2558TIP3    H1 7680   0.005   4.999   2.437 -0.2705 -2.1626 -0.3744
 2558TIP3    H2 7681   0.034   5.024   2.584  0.0572 -0.3386 -0.7181
 2559TIP3   OH2 7682   4.246   5.065   1.097 -0.3438  0.4009 -0.3631
 2559TIP3    H1 7683   4.153   5.066   1.076 -1.0652 -1.5891  2.2016
 2559TIP3    H2 7684   4.271   4.973   1.092  0.6529  0.4793  1.9529
 2560TIP3   OH2 7685   0.179   1.975   2.264  0.1503  0.5380 -0.4202
 2560TIP3    H1 7686   0.092   1.987   2.225  0.2656  2.7645 -0.0786
 2560TIP3    H2 7687   0.240   1.984   2.190  0.2946  3.4807 -0.0330
 2561TIP3   OH2 7688   3.586   4.632   5.023 -0.0754 -0.1297  0.2786
 2561TIP3    H1 7689   3.552   4.708   4.977  0.1339  0.4394  1.0555
 2561TIP3    H2 7690   3.611   4.571   4.953  1.0508  1.0680 -0.3843
 2562TIP3   OH2 7691   3.559   3.958   3.041  0.1141  0.3391 -0.1372
 2562TIP3    H1 7692   3.599   3.941   3.126 -1.0125  1.2420  0.6067
 2562TIP3    H2 7693   3.476   3.911   3.044 -0.6167  1.5849 -0.1137
 2563TIP3   OH2 7694   5.875   5.559   0.255  0.2086  0.4702  0.2614
 2563TIP3    H1 7695   5.945   5.607   0.210  0.3067  0.9626  0.9230
 2563TIP3    H2 7696   5.812   5.539   0.186 -0.1274  2.0756  0.0615
 2564TIP3   OH2 7697   5.337   5.136   4.220 -0.5544  0.3283 -0.0371
 2564TIP3    H1 7698   5.328   5.053   4.173  0.9183  0.5270 -0.7536
 2564TIP3    H2 7699   5.420   5.172   4.188 -0.3895  1.3274  1.4274
 2565TIP3   OH2 7700   5.731   1.668   3.070  0.8010  0.2071 -0.4395
 2565TIP3    H1 7701   5.743   1.762   3.056 -0.9007  0.3615 -1.0789
 2565TIP3    H2 7702   5.672   1.662   3.145 -0.3768 -0.2771 -1.3710
 2566TIP3   OH2 7703   4.220   5.712   3.607 -0.1038 -0.4279 -0.3931
 2566TIP3    H1 7704   4.166   5.636   3.630  1.1948 -1.6365 -1.2544
 2566TIP3    H2 7705   4.305   5.676   3.583  0.5954  1.3166 -0.7034
 2567TIP3   OH2 7706   6.027   0.262   1.566 -0.4342 -0.1943  0.6534
 2567TIP3    H1 7707   5.954   0.251   1.505 -0.0038 -0.0123  0.0891
 2567TIP3    H2 7708   6.046   0.174   1.597 -0.6444 -0.2924  0.5060
 2568TIP3   OH2 7709   2.289   4.336   2.922 -0.1635  0.7496 -0.0970
 2568TIP3    H1 7710   2.353   4.265   2.914 -1.3785 -0.3494 -0.3937
 2568TIP3    H2 7711   2.272   4.364   2.833 -0.2405  0.9119 -0.0321
 2569TIP3   OH2 7712   4.793   1.470   0.854 -0.6488  0.2086 -0.1499
 2569TIP3    H1 7713   4.875   1.433   0.887 -1.4311 -1.3305  0.1391
 2569TIP3    H2 7714   4.807   1.565   0.857  0.4657  0.0404  1.6223
 2570TIP3   OH2 7715   1.830   1.863   2.990  0.5839  0.1186 -0.3261
 2570TIP3    H1 7716   1.836   1.914   3.071  3.7140 -2.2386  1.0967
 2570TIP3    H2 7717   1.867   1.921   2.923  1.5468  0.7279  0.7011
 2571TIP3   OH2 7718   0.063   2.057   4.988 -0.2738  0.1116 -0.0850
 2571TIP3    H1 7719   0.044   2.130   5.048 -0.9942  0.2395 -0.4592
 2571TIP3    H2 7720   0.012   2.077   4.909 -0.4642 -0.7894 -0.1993
 2572TIP3   OH2 7721   0.603   1.965   2.736  0.0817  0.2226  0.1128
 2572TIP3    H1 7722   0.664   2.000   2.800 -1.7818  1.0887  1.5160
 2572TIP3    H2 7723   0.600   2.031   2.667 -0.0851  0.7149  0.5817
 2573TIP3   OH2 7724   3.917   4.738   1.049 -0.9963  0.0008 -0.1912
 2573TIP3    H1 7725   3.875   4.770   1.129 -0.4482  0.0654  0.0720
 2573TIP3    H2 7726   3.846   4.734   0.985 -1.5240 -0.4227  0.4055
 2574TIP3   OH2 7727   5.849   4.333   2.375 -0.0907  0.4293  0.7812
 2574TIP3    H1 7728   5.936   4.347   2.413  0.7138 -2.2682  0.1720
 2574TIP3    H2 7729   5.788   4.363   2.442  1.2765  2.4036  1.2215
 2575TIP3   OH2 7730   5.049   0.162   0.260  0.0367 -0.3008 -0.5037
 2575TIP3    H1 7731   5.058   0.160   0.356  0.4209  0.0345 -0.5302
 2575TIP3    H2 7732   5.102   0.090   0.229 -2.7272 -2.6007 -0.2978
 2576TIP3   OH2 7733   3.689   1.963   0.041 -0.1660  0.0596  0.3484
 2576TIP3    H1 7734   3.666   2.043  -0.008 -2.0168 -0.3106  0.5126
 2576TIP3    H2 7735   3.627   1.897   0.010 -0.7497 -0.4613  2.4227
 2577TIP3   OH2 7736   2.592   4.296   1.426  0.2143 -0.7171 -0.3781
 2577TIP3    H1 7737   2.561   4.385   1.418  2.5767  0.1126 -1.2082
 2577TIP3    H2 7738   2.513   4.244   1.441 -1.0882  1.6704  2.0455
 2578TIP3   OH2 7739   4.866   1.411   4.304  0.4893  0.0871 -0.3658
 2578TIP3    H1 7740   4.895   1.438   4.217  1.8693  0.3240  0.1428
 2578TIP3    H2 7741   4.923   1.338   4.326  0.2261  0.1072  0.3866
 2579TIP3   OH2 7742   1.155   4.109   3.915  0.3304 -0.7578  0.1310
 2579TIP3    H1 7743   1.147   4.033   3.858  0.2604  0.0090 -0.9083
 2579TIP3    H2 7744   1.075   4.109   3.968  0.2574 -1.3073  0.0209
 2580TIP3   OH2 7745   5.434   1.421   3.798  0.4002  0.3857 -0.1855
 2580TIP3    H1 7746   5.415   1.492   3.860  0.3772  1.6245 -1.5451
 2580TIP3    H2 7747   5.481   1.356   3.849  0.2522  1.3068  1.1662
 2581TIP3   OH2 7748   4.914   3.412   4.687  0.0440 -0.4371 -0.2288
 2581TIP3    H1 7749   4.862   3.371   4.756  0.3307  0.0929  0.3099
 2581TIP3    H2 7750   4.850   3.454   4.630 -0.2262 -1.2652 -0.5490
 2582TIP3   OH2 7751   0.228   4.619   1.098  0.1289  0.1774 -0.3469
 2582TIP3    H1 7752   0.288   4.638   1.026  0.7412  0.8416  0.3175
 2582TIP3    H2 7753   0.282   4.572   1.162 -0.1928  0.3211  0.0365
 2583TIP3   OH2 7754   1.895   4.617   3.414  0.0581  0.7853 -0.1807
 2583TIP3    H1 7755   1.839   4.694   3.426  0.0563  0.5669  1.5427
 2583TIP3    H2 7756   1.845   4.545   3.452  1.1411  0.4483  0.6769
 2584TIP3   OH2 7757   5.373   4.348   2.058  0.1864  0.0429 -0.4409
 2584TIP3    H1 7758   5.450   4.405   2.052  0.1018  0.1284 -0.7627
 2584TIP3    H2 7759   5.376   4.312   2.146  1.2866 -0.9261 -0.8397
 2585TIP3   OH2 7760   3.741   5.032   3.649 -0.8394  0.9532  0.6169
 2585TIP3    H1 7761   3.814   5.035   3.586  0.1006  0.5935  1.6655
 2585TIP3    H2 7762   3.664   5.048   3.595 -0.1760 -0.2954 -0.8150
 2586TIP3   OH2 7763   2.506   1.130   2.427 -0.1481  0.3007  0.6441
 2586TIP3    H1 7764   2.582   1.131   2.485 -0.3307  1.8536  0.8987
 2586TIP3    H2 7765   2.544   1.135   2.339  0.0787  1.5146  0.7824
 2587TIP3   OH2 7766   2.816   1.500   1.903 -0.8809 -0.0522 -0.2695
 2587TIP3    H1 7767   2.747   1.441   1.932  0.3066 -0.9572  0.8307
 2587TIP3    H2 7768   2.776   1.587   1.901 -1.3889 -0.1298  2.8917
 2588TIP3   OH2 7769   0.984   4.884   3.993  0.2956 -0.4189  0.4788
 2588TIP3    H1 7770   1.029   4.806   4.026  1.7022  0.0570 -0.2389
 2588TIP3    H2 7771   0.899   4.851   3.963  0.5396 -1.5294  0.9418
 2589TIP3   OH2 7772   1.828   4.009   4.486 -0.2943  0.7248 -0.3731
 2589TIP3    H1 7773   1.736   3.990   4.505  0.7386 -1.7381  3.2770
 2589TIP3    H2 7774   1.846   4.091   4.531 -0.4424  0.5751 -0.0396
 2590TIP3   OH2 7775   1.752   0.856   0.589  0.4722 -0.5372  0.1755
 2590TIP3    H1 7776   1.777   0.797   0.518  0.9135 -1.5504  1.1487
 2590TIP3    H2 7777   1.730   0.798   0.662  2.3024  0.4849  1.6379
 2591TIP3   OH2 7778   3.847   1.600   2.708  0.2715 -0.0218  0.7290
 2591TIP3    H1 7779   3.918   1.584   2.769  1.3753  0.7027 -0.3212
 2591TIP3    H2 7780   3.842   1.520   2.655  2.3378  0.9712 -1.1310
 2592TIP3   OH2 7781   3.953   3.975   4.529 -0.3634  0.3631  0.0175
 2592TIP3    H1 7782   4.002   4.017   4.599 -1.0471 -0.4344  0.9967
 2592TIP3    H2 7783   3.957   3.882   4.549 -1.8608  0.2435 -0.1475
 2593TIP3   OH2 7784   1.625   4.004   3.023  0.3566  0.3388  1.1704
 2593TIP3    H1 7785   1.616   3.919   3.065  2.7964 -0.8547 -0.4884
 2593TIP3    H2 7786   1.559   4.005   2.954  0.9492 -0.6728  0.5665
 2594TIP3   OH2 7787   0.698   0.235   2.883  0.1545  0.0767  0.7214
 2594TIP3    H1 7788   0.651   0.186   2.950 -0.7537  1.0391  0.8061
 2594TIP3    H2 7789   0.630   0.273   2.828  0.8847 -0.8627 -0.9028
 2595TIP3   OH2 7790   6.256   4.107   3.215  0.7159  0.4345 -0.0530
 2595TIP3    H1 7791   6.248   4.030   3.272  2.1566 -0.0393 -0.4446
 2595TIP3    H2 7792   6.258   4.070   3.127 -4.4204  1.2894 -0.8468
 2596TIP3   OH2 7793   2.885   2.553   3.899 -0.2496  0.9113 -0.1038
 2596TIP3    H1 7794   2.800   2.588   3.871 -1.1107 -1.1395 -0.2368
 2596TIP3    H2 7795   2.942   2.565   3.823 -1.0065  0.4688 -0.7574
 2597TIP3   OH2 7796   1.467   0.746   4.002  0.1745  0.2920 -0.3872
 2597TIP3    H1 7797   1.479   0.778   4.091 -0.6357  0.9072 -0.4928
 2597TIP3    H2 7798   1.555   0.724   3.972  0.4525  0.0971  0.5532
 2598TIP3   OH2 7799   1.527   4.689   4.094 -0.3270 -0.0063  0.4601
 2598TIP3    H1 7800   1.505   4.653   4.180  0.4833 -0.1593  0.6172
 2598TIP3    H2 7801   1.619   4.664   4.081 -0.1589  0.8286 -0.0279
 2599TIP3   OH2 7802   0.998   4.660   2.502  0.8834  0.5504 -0.4482
 2599TIP3    H1 7803   0.944   4.606   2.559  2.0381  1.7057  1.9047
 2599TIP3    H2 7804   0.937   4.721   2.460 -0.0399 -0.5922 -0.8027
 2600TIP3   OH2 7805   1.007   4.041   4.117 -0.1737 -0.3700  0.3238
 2600TIP3    H1 7806   0.932   4.001   4.159 -0.5435  0.0200  0.0502
 2600TIP3    H2 7807   1.073   4.049   4.186  0.5374 -2.8951  0.0434
 2601TIP3   OH2 7808   6.198   5.934   0.171  0.5013  0.4193  0.1920
 2601TIP3    H1 7809   6.283   5.963   0.204  0.7779 -1.0179  0.8269
 2601TIP3    H2 7810   6.189   5.976   0.086  2.3816 -0.2992 -0.4006
 2602TIP3   OH2 7811   4.655   3.262   1.436 -0.2589 -0.0823  0.3760
 2602TIP3    H1 7812   4.560   3.265   1.450 -0.2525  1.7215  0.3078
 2602TIP3    H2 7813   4.665   3.270   1.341 -0.0345  1.8635  0.5224
 2603TIP3   OH2 7814   1.487   1.389   2.222  0.0038 -0.8686  0.0646
 2603TIP3    H1 7815   1.537   1.470   2.215  2.4595 -2.2587  0.4831
 2603TIP3    H2 7816   1.396   1.416   2.212  0.8700  1.6509 -1.9624
 2604TIP3   OH2 7817   6.049   3.786   3.754 -0.2539 -0.3964  0.0914
 2604TIP3    H1 7818   6.116   3.734   3.710  1.5071  1.4084  0.4535
 2604TIP3    H2 7819   6.003   3.830   3.683 -1.3252 -1.8921 -0.1796
 2605TIP3   OH2 7820   3.590   4.529   4.776  0.4803 -0.4290 -0.4136
 2605TIP3    H1 7821   3.563   4.536   4.685 -0.1053 -1.3816 -0.3305
 2605TIP3    H2 7822   3.581   4.436   4.796 -0.5036 -0.0735  0.9474
 2606TIP3   OH2 7823   1.225   2.264   0.268  0.8526  0.5410 -0.5153
 2606TIP3    H1 7824   1.303   2.279   0.322  0.1294  1.2557  0.3733
 2606TIP3    H2 7825   1.174   2.200   0.317  1.0113 -0.1606 -1.2472
 2607TIP3   OH2 7826   6.014   1.045   0.774 -0.0731  0.2537 -0.5676
 2607TIP3    H1 7827   6.090   0.988   0.761  0.3101  0.8362 -0.9157
 2607TIP3    H2 7828   5.968   1.043   0.690 -1.3273 -1.3333  0.0904
 2608TIP3   OH2 7829   4.160   2.363   2.516 -0.3448  0.3442 -0.4287
 2608TIP3    H1 7830   4.216   2.355   2.593  1.6728  1.2232 -1.7048
 2608TIP3    H2 7831   4.076   2.393   2.550  0.2948  0.0815  1.4846
 2609TIP3   OH2 7832   4.351   4.159   2.293  0.5390 -0.5883  0.8346
 2609TIP3    H1 7833   4.343   4.179   2.200 -0.4009 -0.7750  0.8631
 2609TIP3    H2 7834   4.429   4.105   2.300  0.0216 -1.4729 -0.0016
 2610TIP3   OH2 7835   3.851   4.332   4.785  0.3928 -0.0707 -0.3285
 2610TIP3    H1 7836   3.783   4.396   4.764 -0.7659 -0.5797  1.6334
 2610TIP3    H2 7837   3.815   4.248   4.755  0.1548 -0.3300  0.6433
 2611TIP3   OH2 7838   0.215   4.871   1.766 -0.0040 -0.1406 -0.4457
 2611TIP3    H1 7839   0.138   4.917   1.733  0.0627 -1.0360 -1.9272
 2611TIP3    H2 7840   0.262   4.843   1.687  0.7269 -1.4496  0.4150
 2612TIP3   OH2 7841   5.109   2.940   2.539 -0.0146  0.1519  0.0656
 2612TIP3    H1 7842   5.159   2.889   2.603 -1.0721 -1.9600 -0.6985
 2612TIP3    H2 7843   5.068   3.009   2.590  3.0287  1.5863  0.8369
 2613TIP3   OH2 7844   2.901   0.040   3.543 -0.6611 -0.1719 -0.2304
 2613TIP3    H1 7845   2.985   0.085   3.550 -0.7534  0.6156 -2.9579
 2613TIP3    H2 7846   2.909  -0.036   3.602  1.0879  1.0655  1.2381
 2614TIP3   OH2 7847   3.391   3.010   2.094  0.2746 -0.3601  0.1243
 2614TIP3    H1 7848   3.481   3.002   2.062 -0.5602 -1.3510 -2.2459
 2614TIP3    H2 7849   3.340   3.034   2.016 -1.3103  1.9194  1.7373
 2615TIP3   OH2 7850   3.352   5.716   1.714  0.3233 -0.0926  0.7822
 2615TIP3    H1 7851   3.273   5.693   1.763  1.2306 -0.0372  2.3442
 2615TIP3    H2 7852   3.337   5.806   1.685  0.4945  0.5832  2.6185
 2616TIP3   OH2 7853   3.658   3.545   2.755 -0.3038  0.4784 -0.4628
 2616TIP3    H1 7854   3.663   3.607   2.827 -2.6906  0.3093 -0.0557
 2616TIP3    H2 7855   3.622   3.466   2.794 -0.5938  0.0125 -1.6361
 2617TIP3   OH2 7856   3.311   4.777   4.033  0.2458  0.4674 -0.0118
 2617TIP3    H1 7857   3.363   4.734   4.101 -0.6304 -2.1599 -0.8618
 2617TIP3    H2 7858   3.220   4.755   4.056 -0.1997  1.4375 -0.8070
 2618TIP3   OH2 7859   3.518   3.331   2.865  0.4445  0.0780  0.7004
 2618TIP3    H1 7860   3.493   3.321   2.773  0.3648 -1.1713  0.8404
 2618TIP3    H2 7861   3.445   3.295   2.915  0.9353 -0.2509  1.2099
 2619TIP3   OH2 7862   1.459   3.254   2.064 -0.0023 -0.4700  0.3766
 2619TIP3    H1 7863   1.513   3.179   2.039 -0.2616  0.1367 -2.2861
 2619TIP3    H2 7864   1.388   3.217   2.116  1.9048 -1.5067  2.4119
 2620TIP3   OH2 7865   4.070   2.339   4.393  0.0875  0.2935 -0.4819
 2620TIP3    H1 7866   4.071   2.253   4.434 -0.0157  0.5671  0.1190
 2620TIP3    H2 7867   4.085   2.400   4.466  1.0528  0.7372 -1.0284
 2621TIP3   OH2 7868   5.214   0.286   2.360  0.2471 -0.1500  0.0571
 2621TIP3    H1 7869   5.171   0.202   2.347  0.3156 -0.1049 -0.4940
 2621TIP3    H2 7870   5.200   0.306   2.452  0.2432 -0.7704  0.1961
 2622TIP3   OH2 7871   2.155   4.999   0.658 -0.2299  0.1076 -0.0798
 2622TIP3    H1 7872   2.064   4.994   0.689 -0.7918  0.2738 -1.6036
 2622TIP3    H2 7873   2.177   4.910   0.632 -0.3470  0.2589 -0.7195
 2623TIP3   OH2 7874   1.954   1.969   1.643  0.0950  0.0759 -0.3159
 2623TIP3    H1 7875   1.943   1.989   1.550  1.2565 -0.4405 -0.5783
 2623TIP3    H2 7876   2.043   1.935   1.650  0.1297  0.4032  1.0419
 2624TIP3   OH2 7877   3.440   1.952   0.762 -0.6443 -0.1091 -0.2846
 2624TIP3    H1 7878   3.445   1.915   0.850 -0.6094 -2.0457 -1.0450
 2624TIP3    H2 7879   3.528   1.984   0.744 -0.5758  0.0140  0.2556
 2625TIP3   OH2 7880   0.776   3.726   2.820  0.5370  0.6469  0.0296
 2625TIP3    H1 7881   0.808   3.675   2.745 -0.8167 -1.3419  0.7328
 2625TIP3    H2 7882   0.794   3.671   2.896 -2.2029  0.5544  0.6947
 2626TIP3   OH2 7883   1.108   2.449   4.720  0.3638 -0.3348 -0.1002
 2626TIP3    H1 7884   1.021   2.489   4.727  0.0330 -1.0468 -0.1289
 2626TIP3    H2 7885   1.127   2.450   4.626  1.2518  1.6211  0.0408
 2627TIP3   OH2 7886   4.111   0.219   2.811 -0.3438 -0.1434 -0.0502
 2627TIP3    H1 7887   4.179   0.281   2.783 -2.0346  1.4181 -0.9024
 2627TIP3    H2 7888   4.138   0.194   2.899  0.2953  2.0649  0.4683
 2628TIP3   OH2 7889   0.848   3.537   0.017  0.1646  0.3607 -0.9180
 2628TIP3    H1 7890   0.842   3.497   0.104  0.4489  1.7224 -0.2574
 2628TIP3    H2 7891   0.942   3.543  -0.001  0.0988 -0.8366 -1.7772
 2629TIP3   OH2 7892   5.678   5.657   2.205 -0.2952 -0.0300  0.2931
 2629TIP3    H1 7893   5.701   5.723   2.139  1.7928 -1.6644 -0.7466
 2629TIP3    H2 7894   5.705   5.697   2.288  0.9554  0.4509 -0.3085
 2630TIP3   OH2 7895   5.841   3.080   4.243  0.3411  0.1452 -0.3988
 2630TIP3    H1 7896   5.845   2.986   4.259  1.4577  0.2051 -0.2096
 2630TIP3    H2 7897   5.778   3.113   4.307  1.8202 -0.1482  1.2668
 2631TIP3   OH2 7898   2.458   1.105   1.458 -0.1251  0.0337 -0.3785
 2631TIP3    H1 7899   2.434   1.025   1.503 -0.0570 -0.7522 -1.6951
 2631TIP3    H2 7900   2.523   1.146   1.514  0.2813 -1.1368  0.0192
 2632TIP3   OH2 7901   5.665   0.839   0.758 -0.3179 -0.2742 -0.2231
 2632TIP3    H1 7902   5.572   0.853   0.778 -0.2573  0.3673 -0.3491
 2632TIP3    H2 7903   5.667   0.825   0.663 -0.2532  0.0932 -0.2799
 2633TIP3   OH2 7904   5.334   2.362   4.306 -1.0326 -0.8413 -0.3257
 2633TIP3    H1 7905   5.336   2.374   4.211 -0.2640 -0.1350 -0.2285
 2633TIP3    H2 7906   5.417   2.320   4.327  0.6748  2.5802  0.4547
 2634TIP3   OH2 7907   3.984   4.527   0.183 -0.4742  0.5521 -0.2143
 2634TIP3    H1 7908   3.960   4.528   0.090 -2.5422 -0.3380  0.2787
 2634TIP3    H2 7909   4.009   4.437   0.201 -0.0199  0.7344  0.1129
 2635TIP3   OH2 7910   1.737   4.926   1.996  0.1836  0.0375 -0.0949
 2635TIP3    H1 7911   1.796   4.972   2.055  0.3963  1.3958 -1.3001
 2635TIP3    H2 7912   1.665   4.896   2.051  0.9551  0.2142  1.0260
 2636TIP3   OH2 7913   3.338   4.062   3.299  0.0302  0.0396  0.2915
 2636TIP3    H1 7914   3.381   4.096   3.378  1.1866  1.4083 -0.8806
 2636TIP3    H2 7915   3.273   4.129   3.276 -1.3692 -1.0502  0.8721
 2637TIP3   OH2 7916   5.729   4.689   0.159  0.7531 -0.4763 -0.7387
 2637TIP3    H1 7917   5.699   4.767   0.113  1.0717 -0.1571 -0.4073
 2637TIP3    H2 7918   5.669   4.681   0.233  0.5398 -0.7152 -0.9347
 2638TIP3   OH2 7919   5.643   5.818   1.637 -0.0081  0.2698  0.5028
 2638TIP3    H1 7920   5.666   5.791   1.726  1.6638  0.5983  0.2181
 2638TIP3    H2 7921   5.715   5.784   1.583 -0.3584  1.1274 -0.5366
 2639TIP3   OH2 7922   3.698   4.579   4.459  0.6988  0.3308  0.0382
 2639TIP3    H1 7923   3.670   4.518   4.390 -0.0525  0.4689  0.2173
 2639TIP3    H2 7924   3.793   4.572   4.459  0.7708  0.8832 -1.5413
 2640TIP3   OH2 7925   2.550   4.808   3.098  0.0426  0.1841 -0.5189
 2640TIP3    H1 7926   2.541   4.877   3.163  2.6273  0.1681 -0.0482
 2640TIP3    H2 7927   2.486   4.741   3.125  0.9804  0.2142  2.0075
 2641TIP3   OH2 7928   5.005   2.925   0.675 -0.5380  0.4629  0.2667
 2641TIP3    H1 7929   4.995   2.960   0.763 -0.3971  0.2035  0.3866
 2641TIP3    H2 7930   5.032   3.000   0.622  1.4845  0.2090  0.8618
 2642TIP3   OH2 7931   3.193   4.361   2.288 -0.0051  0.1794  0.0541
 2642TIP3    H1 7932   3.217   4.286   2.342  0.0938  0.8351  0.9416
 2642TIP3    H2 7933   3.189   4.326   2.199  2.3366 -0.3820  0.1109
 2643TIP3   OH2 7934   3.636   5.239   3.871  0.1556 -0.3614 -0.0051
 2643TIP3    H1 7935   3.689   5.178   3.922  2.2021  1.3206  0.0326
 2643TIP3    H2 7936   3.611   5.191   3.792  2.9073 -0.8532 -0.6634
 2644TIP3   OH2 7937   3.739   1.970   1.200  0.0250 -0.0538  0.2569
 2644TIP3    H1 7938   3.770   1.921   1.276 -1.0371  1.7320  1.9447
 2644TIP3    H2 7939   3.817   2.014   1.166  0.3958 -0.3488  0.7195
 2645TIP3   OH2 7940   3.620   3.078   2.721 -0.0199  0.2230  0.3821
 2645TIP3    H1 7941   3.573   3.048   2.799 -1.9761  0.5661 -0.5787
 2645TIP3    H2 7942   3.705   3.107   2.753 -0.6645  0.1049  2.3309
 2646TIP3   OH2 7943   1.985   5.956   3.371 -0.1165 -0.1517  0.3444
 2646TIP3    H1 7944   2.068   5.956   3.418  0.1022  1.9216  0.0222
 2646TIP3    H2 7945   1.929   5.896   3.422  0.7022  0.5224  2.1248
 2647TIP3   OH2 7946   2.558   2.968   4.304  0.2124 -0.2282  0.2389
 2647TIP3    H1 7947   2.631   2.906   4.307  1.0692  0.7438 -0.0225
 2647TIP3    H2 7948   2.569   3.022   4.382  0.0377  0.2270 -0.0517
 2648TIP3   OH2 7949   2.087   5.479   4.836 -0.0231 -0.4364 -0.0457
 2648TIP3    H1 7950   2.093   5.399   4.783  0.3616  0.1709 -0.9437
 2648TIP3    H2 7951   2.018   5.460   4.900 -1.8156 -0.5711 -1.8857
 2649TIP3   OH2 7952   1.897   2.798   0.785 -0.0207 -0.1680  0.5222
 2649TIP3    H1 7953   1.854   2.761   0.862 -1.8931  1.7947  0.5387
 2649TIP3    H2 7954   1.886   2.893   0.795 -2.2318  0.1550 -3.1009
 2650TIP3   OH2 7955   6.255   2.077   1.209  0.0348  0.3705 -0.1167
 2650TIP3    H1 7956   6.197   2.086   1.133  0.5780 -0.3774 -0.6437
 2650TIP3    H2 7957   6.201   2.102   1.284  0.1276  3.3645 -0.9331
 2651TIP3   OH2 7958   0.649   1.959   2.099 -0.0535  0.8038  0.7036
 2651TIP3    H1 7959   0.643   1.977   2.193 -0.0087  2.1642  0.4669
 2651TIP3    H2 7960   0.739   1.982   2.076 -0.3809  1.5793  0.1314
 2652TIP3   OH2 7961   3.072   2.608   2.279 -0.7733 -0.0453  0.0422
 2652TIP3    H1 7962   3.122   2.690   2.283 -1.9273  0.6832  0.1624
 2652TIP3    H2 7963   3.123   2.546   2.332  1.4557 -0.2037 -2.1427
 2653TIP3   OH2 7964   6.192   3.808   1.578 -0.9394  0.0143  0.2237
 2653TIP3    H1 7965   6.142   3.770   1.650 -2.6072  0.8764 -0.4253
 2653TIP3    H2 7966   6.206   3.899   1.602  0.9949 -0.3643  0.7062
 2654TIP3   OH2 7967   4.441   5.234   4.272 -0.0338 -0.1167  0.0687
 2654TIP3    H1 7968   4.397   5.178   4.337 -1.2661 -0.0038 -0.6411
 2654TIP3    H2 7969   4.426   5.323   4.303 -0.1995 -0.0826 -0.1077
 2655TIP3   OH2 7970   0.058   3.270   1.399 -0.3397  0.1713  0.3204
 2655TIP3    H1 7971   0.106   3.336   1.449 -0.3365 -0.5652  1.3139
 2655TIP3    H2 7972  -0.029   3.307   1.388  0.2220  1.2192 -0.9026
 2656TIP3   OH2 7973   0.338   0.084   0.071 -0.7078  0.2473  0.6536
 2656TIP3    H1 7974   0.353   0.177   0.058  1.0614  0.1126  1.4608
 2656TIP3    H2 7975   0.277   0.079   0.145 -0.5536  0.7466  0.8148
 2657TIP3   OH2 7976   4.661   2.364   1.930 -0.0725 -0.4052 -0.1590
 2657TIP3    H1 7977   4.630   2.293   1.874 -0.8858  0.1011 -0.3671
 2657TIP3    H2 7978   4.697   2.429   1.870 -0.8942  0.1148 -0.0940
 2658TIP3   OH2 7979   0.910   5.645   4.747  0.1484 -0.7158  0.1714
 2658TIP3    H1 7980   0.843   5.577   4.754  1.2650 -1.8516  0.0235
 2658TIP3    H2 7981   0.879   5.715   4.804 -2.4259 -0.1257 -1.7415
 2659TIP3   OH2 7982   2.601   2.092   0.430  0.6733 -0.6746  0.4151
 2659TIP3    H1 7983   2.522   2.072   0.480  0.6641 -0.0583  0.6475
 2659TIP3    H2 7984   2.582   2.057   0.342  1.2417 -3.0615  1.1568
 2660TIP3   OH2 7985   4.805   5.697   2.223 -0.2697 -0.0011  0.2637
 2660TIP3    H1 7986   4.822   5.789   2.202 -1.7809  0.2364 -0.0011
 2660TIP3    H2 7987   4.887   5.653   2.203  0.6245  1.3434  0.7906
 2661TIP3   OH2 7988   0.612   2.351   0.665  0.4255  0.0759 -0.6763
 2661TIP3    H1 7989   0.669   2.336   0.590  0.8091 -1.9227 -0.0620
 2661TIP3    H2 7990   0.649   2.427   0.710  1.6448 -0.2001 -1.1807
 2662TIP3   OH2 7991   3.685   1.868   5.032  0.2515 -0.0746  0.4418
 2662TIP3    H1 7992   3.696   1.824   4.947  1.0948 -0.2860  0.6538
 2662TIP3    H2 7993   3.757   1.834   5.086 -0.7113 -0.5130  1.4871
 2663TIP3   OH2 7994   4.786   5.120   2.773  0.0618  1.0654 -0.0563
 2663TIP3    H1 7995   4.877   5.118   2.802  0.0608 -1.0003 -0.0204
 2663TIP3    H2 7996   4.738   5.156   2.848  0.5727 -0.2766  0.9670
 2664TIP3   OH2 7997   3.241   4.308   0.674 -0.1012  0.0405  0.3791
 2664TIP3    H1 7998   3.155   4.350   0.669 -0.8629 -1.3988  0.8426
 2664TIP3    H2 7999   3.254   4.271   0.587 -0.2877 -0.3697  0.5249
 2665TIP3   OH2 8000   3.530   4.932   0.038  0.4287  0.7033 -0.3747
 2665TIP3    H1 8001   3.530   4.988  -0.040 -0.1237  0.5648 -0.4735
 2665TIP3    H2 8002   3.542   4.843   0.004 -3.0106  0.2007 -0.6424
 2666TIP3   OH2 8003   5.963   2.803   1.748 -0.0793 -0.0597  0.2030
 2666TIP3    H1 8004   6.019   2.875   1.777  0.0164  0.1963 -0.5953
 2666TIP3    H2 8005   5.960   2.811   1.653 -1.3442 -0.1700  0.2143
 2667TIP3   OH2 8006   5.178   4.960   0.166 -0.0756  0.0618  0.2673
 2667TIP3    H1 8007   5.229   4.890   0.126 -0.4603  0.2405 -0.5508
 2667TIP3    H2 8008   5.169   4.934   0.258  0.5152 -0.5283  0.1633
 2668TIP3   OH2 8009   3.478   0.360   3.858  0.2324  0.3520  0.7630
 2668TIP3    H1 8010   3.538   0.386   3.928  0.4087 -1.2511  1.2375
 2668TIP3    H2 8011   3.515   0.280   3.823 -0.3476  0.6459 -0.5864
 2669TIP3   OH2 8012   5.240   2.726   0.911 -0.1127 -0.2740 -0.1232
 2669TIP3    H1 8013   5.310   2.767   0.860 -0.3559  0.8810  0.4369
 2669TIP3    H2 8014   5.164   2.725   0.852  0.2151 -0.9953 -0.5340
 2670TIP3   OH2 8015   1.733   3.966   0.315 -0.2036  0.5003 -0.1036
 2670TIP3    H1 8016   1.814   3.917   0.330 -0.6055  0.3887  2.0577
 2670TIP3    H2 8017   1.704   3.990   0.403 -2.7346  0.1774 -0.7926
 2671TIP3   OH2 8018   3.318   2.323   2.704 -0.3278  0.0381 -0.0109
 2671TIP3    H1 8019   3.351   2.299   2.791 -0.0540 -1.1664 -0.4267
 2671TIP3    H2 8020   3.384   2.384   2.670 -0.1040  0.0199  0.3788
 2672TIP3   OH2 8021   0.193   4.954   5.059 -0.2436 -0.0349  0.6487
 2672TIP3    H1 8022   0.253   4.898   5.109 -0.0515 -0.8798 -0.4779
 2672TIP3    H2 8023   0.245   4.983   4.984 -1.3229 -1.0750 -0.5467
 2673TIP3   OH2 8024   1.606   2.137   1.021 -0.3446  0.0072 -0.1588
 2673TIP3    H1 8025   1.550   2.112   0.947 -1.3480  3.0320 -0.5736
 2673TIP3    H2 8026   1.605   2.061   1.079 -2.1892 -1.2629 -1.7108
 2674TIP3   OH2 8027   4.722   3.100   1.649 -0.3505  0.2368 -0.2531
 2674TIP3    H1 8028   4.672   3.134   1.575 -0.6748 -0.4821 -0.3812
 2674TIP3    H2 8029   4.789   3.166   1.666 -0.2439  0.3953 -1.2137
 2675TIP3   OH2 8030   4.732   2.297   2.522 -0.1091  0.0647 -0.0891
 2675TIP3    H1 8031   4.766   2.383   2.547  0.2852 -0.3445  0.8245
 2675TIP3    H2 8032   4.673   2.315   2.448  0.0498  1.1012  0.0244
 2676TIP3   OH2 8033   5.364   2.420   3.267 -0.6197  0.5200 -0.2947
 2676TIP3    H1 8034   5.404   2.473   3.198  0.4540 -1.0363 -0.9164
 2676TIP3    H2 8035   5.350   2.335   3.227 -1.3900  0.0248  0.9718
 2677TIP3   OH2 8036   3.526   1.999   0.295 -0.0749  0.4831  0.1311
 2677TIP3    H1 8037   3.594   2.004   0.228  0.8877 -1.2811  0.9178
 2677TIP3    H2 8038   3.544   2.073   0.353 -0.0239  1.1613 -0.7355
 2678TIP3   OH2 8039   0.838   5.261   2.887  0.6493 -0.1852  0.0904
 2678TIP3    H1 8040   0.921   5.276   2.932  0.5063  3.0541 -0.4851
 2678TIP3    H2 8041   0.862   5.255   2.794  0.3338 -0.3235  0.0162
 2679TIP3   OH2 8042   1.469   2.108   3.690  0.0793 -0.1058 -0.1037
 2679TIP3    H1 8043   1.389   2.083   3.737  0.0103  1.2977  0.5844
 2679TIP3    H2 8044   1.480   2.201   3.710  0.7840  0.2152 -1.8206
 2680TIP3   OH2 8045   0.989   5.192   4.921 -0.5518  0.1258  0.3855
 2680TIP3    H1 8046   0.943   5.268   4.956  0.4267  0.5891  0.6966
 2680TIP3    H2 8047   0.921   5.125   4.913 -1.5573  1.1851 -0.4307
 2681TIP3   OH2 8048   4.033   4.210   3.752 -1.0198  0.1677  0.0617
 2681TIP3    H1 8049   4.027   4.247   3.664 -3.5468 -2.5120 -1.0342
 2681TIP3    H2 8050   4.069   4.122   3.739  0.9905  0.5805  2.0965
 2682TIP3   OH2 8051   2.604   3.602   2.004  0.5689 -0.0919  0.0397
 2682TIP3    H1 8052   2.531   3.658   1.978  0.6900 -0.1907 -0.5267
 2682TIP3    H2 8053   2.607   3.609   2.099 -1.1463 -1.2548  0.2354
 2683TIP3   OH2 8054  -0.015   4.961   1.995  0.7662  0.3556  0.1977
 2683TIP3    H1 8055   0.004   5.000   1.909  0.9024 -0.3168 -0.0797
 2683TIP3    H2 8056   0.034   4.879   1.996  1.6033  0.8383  1.3342
 2684TIP3   OH2 8057   4.765   1.558   3.168 -0.0066 -0.1554 -0.5753
 2684TIP3    H1 8058   4.684   1.581   3.214 -0.5201  0.2967 -1.6725
 2684TIP3    H2 8059   4.773   1.464   3.178  0.2316  0.0042  0.9701
 2685TIP3   OH2 8060   0.205   2.513   3.939 -0.1009 -0.2958  0.3963
 2685TIP3    H1 8061   0.219   2.602   3.971 -0.3423 -0.5736  1.3044
 2685TIP3    H2 8062   0.260   2.459   3.995 -1.2210 -0.8934  0.9671
 2686TIP3   OH2 8063   4.425   2.942   2.268  0.0259  0.3389 -0.3515
 2686TIP3    H1 8064   4.462   2.980   2.348 -0.4548 -0.1426  0.1092
 2686TIP3    H2 8065   4.345   2.993   2.253 -0.4316 -0.2416  0.0666
 2687TIP3   OH2 8066   0.947   5.713   4.156 -0.1241  0.6134  0.0455
 2687TIP3    H1 8067   0.971   5.724   4.248 -1.1564  0.9064  0.2936
 2687TIP3    H2 8068   0.888   5.786   4.137 -0.2766  0.3083 -0.7221
 2688TIP3   OH2 8069   3.825   4.226   4.452  0.1187 -0.4123 -0.1288
 2688TIP3    H1 8070   3.757   4.186   4.399 -1.9958 -1.0975  2.8810
 2688TIP3    H2 8071   3.857   4.156   4.509  0.4058  0.8182  1.3122
 2689TIP3   OH2 8072   1.734   2.681   1.333  0.0144 -0.0680 -0.1159
 2689TIP3    H1 8073   1.728   2.713   1.243  0.2728 -2.0359 -0.8768
 2689TIP3    H2 8074   1.658   2.718   1.377 -1.3886 -0.8913 -1.7471
 2690TIP3   OH2 8075   5.597   0.066   0.746  0.0281 -0.5203  0.2857
 2690TIP3    H1 8076   5.617  -0.025   0.765  2.1311 -0.8057 -2.7465
 2690TIP3    H2 8077   5.540   0.063   0.670  0.1485  0.7024  0.1247
 2691TIP3   OH2 8078   1.220   3.482   2.151  0.2822  0.0546 -0.0909
 2691TIP3    H1 8079   1.283   3.543   2.113 -0.3506  1.9028  1.6629
 2691TIP3    H2 8080   1.135   3.507   2.113  0.0347  0.2140  0.5477
 2692TIP3   OH2 8081   4.902   5.690   2.884 -0.3156 -0.4520  0.1987
 2692TIP3    H1 8082   4.937   5.606   2.916 -0.9678 -0.0386  2.1284
 2692TIP3    H2 8083   4.979   5.737   2.851  0.7245 -0.2835  2.6914
 2693TIP3   OH2 8084   1.499   1.671   4.435 -0.0494  0.5331 -0.0231
 2693TIP3    H1 8085   1.554   1.740   4.398  1.5407 -0.4645  0.3784
 2693TIP3    H2 8086   1.560   1.601   4.457 -1.3812 -0.2461  1.3590
 2694TIP3   OH2 8087   6.182   1.612   5.100  0.1024 -0.2498 -0.3751
 2694TIP3    H1 8088   6.257   1.659   5.061  0.0097  0.6005  0.4287
 2694TIP3    H2 8089   6.139   1.678   5.155 -0.6403 -1.0179 -0.0197
 2695TIP3   OH2 8090   6.092   4.138   1.135  0.2223 -0.1940 -0.2702
 2695TIP3    H1 8091   6.154   4.119   1.205  0.9485  1.2257 -0.5003
 2695TIP3    H2 8092   6.133   4.208   1.085 -2.4369  2.2377  0.7437
 2696TIP3   OH2 8093   3.558   3.035   4.259 -0.5048 -0.0477 -0.0176
 2696TIP3    H1 8094   3.527   2.945   4.266  1.1191 -0.6078  0.3562
 2696TIP3    H2 8095   3.629   3.042   4.323 -1.4815  1.9048  0.9238
 2697TIP3   OH2 8096   0.973   3.297   2.263  0.2343 -0.0115  0.2478
 2697TIP3    H1 8097   0.884   3.260   2.264 -1.0222  2.5480 -2.0002
 2697TIP3    H2 8098   0.962   3.387   2.295  1.7225  0.7900 -1.3067
 2698TIP3   OH2 8099   3.060   3.331   5.145  0.1029 -0.6074 -0.0177
 2698TIP3    H1 8100   3.002   3.255   5.140  0.0925 -0.6911  1.1435
 2698TIP3    H2 8101   3.145   3.299   5.113 -0.6272 -0.2884 -2.4720
 2699TIP3   OH2 8102   0.518   3.735   0.850  0.2260 -0.3142  0.3055
 2699TIP3    H1 8103   0.480   3.803   0.906  1.4082  0.0803  0.6725
 2699TIP3    H2 8104   0.558   3.784   0.778  2.2069 -0.4769  1.2370
 2700TIP3   OH2 8105   1.180   5.839   3.023 -0.3478 -0.3665 -0.1388
 2700TIP3    H1 8106   1.156   5.758   2.979  0.9065 -1.6079  1.3171
 2700TIP3    H2 8107   1.238   5.811   3.094  0.2085  1.8281  0.3481
 2701TIP3   OH2 8108   2.753   3.459   4.215 -0.2280 -0.0791  0.6557
 2701TIP3    H1 8109   2.692   3.528   4.241  0.7478  1.0545  0.0600
 2701TIP3    H2 8110   2.835   3.506   4.196 -0.1546 -1.1020 -1.9395
 2702TIP3   OH2 8111   3.012   4.035   2.942  0.4724 -0.0905  0.0016
 2702TIP3    H1 8112   2.972   4.051   2.857 -0.5257  0.4728  0.5656
 2702TIP3    H2 8113   3.003   4.117   2.990  2.4837  0.1103  0.0928
 2703TIP3   OH2 8114   1.027   3.278   0.132 -0.2369 -0.2180  0.1717
 2703TIP3    H1 8115   1.046   3.231   0.051 -0.3273 -0.5887  0.3621
 2703TIP3    H2 8116   1.084   3.355   0.129  0.3825 -0.6688  0.1490
 2704TIP3   OH2 8117   0.375   3.421   2.332 -1.0907 -0.1189  0.1631
 2704TIP3    H1 8118   0.382   3.476   2.410 -2.5611  0.2406  0.0755
 2704TIP3    H2 8119   0.413   3.338   2.358  2.7931  1.3511 -0.2231
 2705TIP3   OH2 8120   4.535   2.920   2.007  0.2929 -0.3185  0.0232
 2705TIP3    H1 8121   4.498   2.923   2.095  1.2360  0.4534  0.4091
 2705TIP3    H2 8122   4.538   3.012   1.979 -1.9177 -0.6609 -1.6725
 2706TIP3   OH2 8123   0.350   0.659   3.708 -0.2017 -0.1788  0.2079
 2706TIP3    H1 8124   0.289   0.680   3.779 -0.7414 -1.3413  0.1024
 2706TIP3    H2 8125   0.412   0.597   3.747 -1.9804 -2.8563 -0.9122
 2707TIP3   OH2 8126   1.940   5.523   2.724  0.4708  0.5731 -0.3777
 2707TIP3    H1 8127   2.001   5.450   2.732 -0.4072 -0.0434  1.1038
 2707TIP3    H2 8128   1.990   5.591   2.680  1.0758 -1.1596 -2.5584
 2708TIP3   OH2 8129   4.720   3.744   0.584  0.4084  0.0377  0.3294
 2708TIP3    H1 8130   4.808   3.761   0.620  2.0236 -0.5617 -2.9980
 2708TIP3    H2 8131   4.716   3.649   0.574 -0.7863  0.0327  0.6759
 2709TIP3   OH2 8132   2.016   5.961   3.690 -0.0052 -0.6501  0.6893
 2709TIP3    H1 8133   2.101   5.928   3.664 -0.7834 -2.7664  0.6555
 2709TIP3    H2 8134   1.953   5.896   3.658 -1.8601  1.7556 -1.0093
 2710TIP3   OH2 8135   3.770   0.153   4.047  0.3679 -0.3071 -0.2579
 2710TIP3    H1 8136   3.863   0.176   4.038  0.7049 -2.2226 -3.1557
 2710TIP3    H2 8137   3.739   0.143   3.957 -1.9964 -2.1047  0.6486
 2711TIP3   OH2 8138   0.192   3.236   4.878 -0.4183 -0.8151  0.0769
 2711TIP3    H1 8139   0.259   3.170   4.897 -0.5121 -0.5533  1.4224
 2711TIP3    H2 8140   0.109   3.188   4.885 -0.4506 -0.7383  0.2208
 2712TIP3   OH2 8141   1.226   0.883   1.462  0.3661  0.7095 -0.4208
 2712TIP3    H1 8142   1.202   0.929   1.542  2.0423  3.2501 -1.2654
 2712TIP3    H2 8143   1.143   0.847   1.429 -0.6142  1.1322  1.4923
 2713TIP3   OH2 8144   1.190   3.711   1.358 -0.1823  0.3221 -0.3645
 2713TIP3    H1 8145   1.150   3.663   1.286 -0.7142 -0.4687  0.4372
 2713TIP3    H2 8146   1.201   3.646   1.427  0.3591  1.0514  0.2530
 2714TIP3   OH2 8147   5.885   1.011   0.526 -0.1855  0.5904  0.6224
 2714TIP3    H1 8148   5.877   1.052   0.440  2.7893 -0.1510 -0.1380
 2714TIP3    H2 8149   5.847   0.924   0.515 -0.2370  0.6672  0.1988
 2715TIP3   OH2 8150   3.316   5.102   2.626 -0.2693  0.2875  0.0210
 2715TIP3    H1 8151   3.349   5.163   2.692 -1.4945  2.4355 -1.2167
 2715TIP3    H2 8152   3.348   5.017   2.653  3.1143  1.6847  0.8666
 2716TIP3   OH2 8153   0.096   4.004   1.133  1.2242  0.0010  0.7252
 2716TIP3    H1 8154   0.064   4.082   1.178  0.5764 -0.2621  0.7327
 2716TIP3    H2 8155   0.133   4.038   1.051 -2.8283  0.0610 -1.3788
 2717TIP3   OH2 8156   4.417   5.511   4.318  0.3951 -0.1875 -0.1058
 2717TIP3    H1 8157   4.351   5.553   4.373 -1.2961 -1.5085 -1.0146
 2717TIP3    H2 8158   4.447   5.580   4.260  0.9457  0.8018  1.2908
 2718TIP3   OH2 8159   5.567   4.953   1.120 -0.0559  0.2631 -0.2811
 2718TIP3    H1 8160   5.501   4.907   1.172 -1.8236  1.0301 -1.7617
 2718TIP3    H2 8161   5.623   4.996   1.185  0.3791 -2.1630  1.0759
 2719TIP3   OH2 8162   1.710   5.605   0.089  0.4791  0.7458  0.3235
 2719TIP3    H1 8163   1.625   5.616   0.048  0.9562  0.1356 -0.8687
 2719TIP3    H2 8164   1.773   5.609   0.017  1.3127 -0.7188  0.9258
 2720TIP3   OH2 8165   3.487   1.345   2.227  0.1518  0.7397 -0.2401
 2720TIP3    H1 8166   3.570   1.317   2.188 -0.0301  0.4119 -0.3944
 2720TIP3    H2 8167   3.494   1.441   2.231  0.0425  0.8093 -1.3803
 2721TIP3   OH2 8168   4.071   4.892   0.637 -0.5644  0.2592 -0.0688
 2721TIP3    H1 8169   4.074   4.797   0.638  2.5036  0.2034 -2.4133
 2721TIP3    H2 8170   4.073   4.916   0.545  0.9916  2.5567  0.4618
 2722TIP3   OH2 8171   6.281   4.633   4.740 -0.0490 -0.1846  0.2723
 2722TIP3    H1 8172   6.259   4.601   4.652  1.3491 -0.0158 -0.1530
 2722TIP3    H2 8173   6.343   4.568   4.774 -0.4657 -0.1652  1.0849
 2723TIP3   OH2 8174   4.388   2.498   0.228 -0.4072  0.1320  0.6685
 2723TIP3    H1 8175   4.480   2.476   0.220 -0.4751 -0.6908  1.9048
 2723TIP3    H2 8176   4.386   2.582   0.273 -0.2570  0.7065 -0.3546
 2724TIP3   OH2 8177   2.475   2.167   0.938 -0.0668  0.1265  0.2475
 2724TIP3    H1 8178   2.552   2.154   0.882 -1.7953 -0.3798 -2.1153
 2724TIP3    H2 8179   2.511   2.165   1.027  2.7322  0.5009 -0.7610
 2725TIP3   OH2 8180   5.489   3.022   3.965 -0.1772  0.1005 -0.1471
 2725TIP3    H1 8181   5.474   3.021   4.059  0.6945 -1.0149  0.0044
 2725TIP3    H2 8182   5.572   3.068   3.954 -0.8021  1.1761 -0.4746
 2726TIP3   OH2 8183   1.515   5.698   1.855  0.2108  0.0594 -0.0452
 2726TIP3    H1 8184   1.588   5.759   1.848  0.4238 -0.2141 -0.2524
 2726TIP3    H2 8185   1.508   5.661   1.767  3.0215 -3.5906  1.0152
 2727TIP3   OH2 8186   0.883   2.180   4.222 -0.6766  0.1604 -0.9196
 2727TIP3    H1 8187   0.917   2.111   4.279 -0.9543  0.6420 -0.1528
 2727TIP3    H2 8188   0.947   2.251   4.231 -0.6348  0.1778 -1.3451
 2728TIP3   OH2 8189   2.890   4.252   3.719 -0.5929  0.3141 -0.2171
 2728TIP3    H1 8190   2.868   4.159   3.720  0.1732  0.0830 -1.7414
 2728TIP3    H2 8191   2.910   4.271   3.627  4.7087  0.6310  0.6752
 2729TIP3   OH2 8192   2.901   1.879   4.495  0.3658 -0.5589 -0.0912
 2729TIP3    H1 8193   2.815   1.900   4.531  0.0173 -1.1432 -0.5742
 2729TIP3    H2 8194   2.961   1.936   4.543 -0.4830  1.1201 -0.9458
 2730TIP3   OH2 8195   3.948   1.338   4.430  0.3703 -0.1642 -0.0582
 2730TIP3    H1 8196   3.895   1.276   4.479  0.6905  0.0615  0.5958
 2730TIP3    H2 8197   3.921   1.424   4.464 -0.0703  0.0656 -0.9498
 2731TIP3   OH2 8198   2.471   1.158   3.949 -0.2203 -0.0288 -0.3173
 2731TIP3    H1 8199   2.483   1.172   4.043  2.0918 -0.2783 -0.5022
 2731TIP3    H2 8200   2.473   1.247   3.911 -0.6420  0.0406 -0.1779
 2732TIP3   OH2 8201   5.709   5.286   3.784  0.4458 -0.4895 -0.1590
 2732TIP3    H1 8202   5.644   5.226   3.822  0.4938  0.1401  0.9739
 2732TIP3    H2 8203   5.657   5.360   3.753  0.5091 -0.5082 -0.3076
 2733TIP3   OH2 8204   0.797   0.193   1.350 -0.3987 -0.7786 -0.1383
 2733TIP3    H1 8205   0.803   0.207   1.255  1.3374  0.5636  0.0993
 2733TIP3    H2 8206   0.802   0.282   1.387  0.1242 -1.3552  1.2353
 2734TIP3   OH2 8207   0.221   4.682   1.530  0.1533  0.3505  0.1061
 2734TIP3    H1 8208   0.309   4.674   1.567  0.8335 -0.4334 -1.5617
 2734TIP3    H2 8209   0.226   4.761   1.476 -0.2490  0.4446  0.2089
 2735TIP3   OH2 8210   3.763   1.559   0.378  0.2940  0.0537 -0.1702
 2735TIP3    H1 8211   3.751   1.475   0.422  0.5142  1.2840  2.4390
 2735TIP3    H2 8212   3.676   1.598   0.375 -0.0391 -0.7608 -2.5860
 2736TIP3   OH2 8213   3.416   2.810   0.203 -0.1404  0.2961  0.5103
 2736TIP3    H1 8214   3.437   2.903   0.213  1.1028  0.2005 -0.8026
 2736TIP3    H2 8215   3.498   2.766   0.224 -0.5513 -0.4665  0.5172
 2737TIP3   OH2 8216   4.918   1.393   1.267  0.3105  0.3493  0.0837
 2737TIP3    H1 8217   4.991   1.441   1.306  0.7070 -0.5575  0.4780
 2737TIP3    H2 8218   4.932   1.302   1.293 -0.1879 -0.0610 -1.0173
 2738TIP3   OH2 8219   0.982   3.240   1.795 -0.1932  0.2930 -0.3884
 2738TIP3    H1 8220   0.962   3.182   1.721  0.8061  2.3175 -2.3893
 2738TIP3    H2 8221   1.077   3.235   1.804  0.2268  3.0973 -2.0774
 2739TIP3   OH2 8222   4.916   5.463   3.042  0.0841  0.0384  0.5630
 2739TIP3    H1 8223   4.919   5.368   3.058  0.7842  0.1184  0.9637
 2739TIP3    H2 8224   4.985   5.498   3.099 -2.0012  1.1134  2.5617
 2740TIP3   OH2 8225   4.607   0.639   2.785 -0.4217 -0.0449 -0.2497
 2740TIP3    H1 8226   4.636   0.725   2.753  2.2463 -0.7474 -0.0227
 2740TIP3    H2 8227   4.520   0.628   2.749 -0.3496  2.2296 -1.3160
 2741TIP3   OH2 8228   1.033   3.875   0.994  0.4643  0.1156  0.3686
 2741TIP3    H1 8229   0.971   3.805   1.012 -0.3116  0.7497  0.1784
 2741TIP3    H2 8230   1.119   3.836   1.012  0.1971 -1.4629 -1.5019
 2742TIP3   OH2 8231   0.930   3.865   0.707 -0.0159 -0.1031 -0.5108
 2742TIP3    H1 8232   1.019   3.858   0.672  0.0928  0.8316 -0.4533
 2742TIP3    H2 8233   0.934   3.939   0.768 -0.9198  0.1742 -0.7734
 2743TIP3   OH2 8234   4.549   1.389   1.782 -0.0952  0.1015  0.1091
 2743TIP3    H1 8235   4.610   1.354   1.848 -0.6791  0.0516  0.6271
 2743TIP3    H2 8236   4.604   1.445   1.727  0.5813 -0.5467  0.0973
 2744TIP3   OH2 8237   4.881   1.107   2.339 -0.5140  0.4286 -0.6939
 2744TIP3    H1 8238   4.876   1.191   2.294  0.0427  2.2206  2.3479
 2744TIP3    H2 8239   4.974   1.087   2.344 -0.1719  2.1809  2.6933
 2745TIP3   OH2 8240   0.247   3.090   0.869  0.2541  0.1710  0.6581
 2745TIP3    H1 8241   0.258   3.169   0.922  0.3758  0.1324  0.6890
 2745TIP3    H2 8242   0.315   3.097   0.802  0.3814 -0.0001  0.7713
 2746TIP3   OH2 8243   0.506   2.774   1.321  0.6363  0.0141  0.2309
 2746TIP3    H1 8244   0.493   2.769   1.416  1.5888 -0.9810  0.3307
 2746TIP3    H2 8245   0.445   2.842   1.292  1.1325  1.1566  1.7126
 2747TIP3   OH2 8246   5.487   3.767   0.441  0.6245  0.7287  0.1261
 2747TIP3    H1 8247   5.569   3.799   0.480  0.4192  1.1638  0.2050
 2747TIP3    H2 8248   5.456   3.840   0.388  0.4694  0.4347 -0.1861
 2748TIP3   OH2 8249   2.776   0.750   2.971 -0.2625 -0.6281 -0.0061
 2748TIP3    H1 8250   2.768   0.683   3.039  0.7788 -1.9286 -1.1051
 2748TIP3    H2 8251   2.804   0.702   2.893  0.5538  1.1019 -0.8369
 2749TIP3   OH2 8252   6.141   2.612   5.079 -0.1610 -0.3680 -0.0962
 2749TIP3    H1 8253   6.148   2.548   5.008  1.1297 -0.9256  0.4981
 2749TIP3    H2 8254   6.109   2.691   5.037 -2.2529 -1.4918 -0.7827
 2750TIP3   OH2 8255   0.194   4.148   3.260 -0.3575 -0.4487 -0.3696
 2750TIP3    H1 8256   0.100   4.128   3.251 -0.3404 -0.4830 -0.4754
 2750TIP3    H2 8257   0.210   4.214   3.192 -0.6095  0.5909  0.5539
 2751TIP3   OH2 8258   0.952   2.349   1.083 -0.4102 -0.5858 -0.7495
 2751TIP3    H1 8259   0.978   2.370   1.173 -0.6271  1.4616 -1.1167
 2751TIP3    H2 8260   0.979   2.258   1.071 -1.2382 -1.2254  1.6932
 2752TIP3   OH2 8261   1.673   3.688   1.875 -0.0127 -0.1229 -0.3888
 2752TIP3    H1 8262   1.623   3.607   1.865  2.0302 -1.5480  0.1046
 2752TIP3    H2 8263   1.651   3.718   1.964  1.5330 -1.9361  0.6914
 2753TIP3   OH2 8264   3.896   0.879   3.594  0.4290 -0.1758  0.0712
 2753TIP3    H1 8265   3.954   0.953   3.611  0.2762 -0.2599  1.0454
 2753TIP3    H2 8266   3.845   0.869   3.675  0.2523 -1.1708 -0.1419
 2754TIP3   OH2 8267   0.754   0.963   3.136 -0.2924  0.2029  0.1049
 2754TIP3    H1 8268   0.751   0.958   3.232  0.0179  0.8285  0.1515
 2754TIP3    H2 8269   0.672   1.004   3.112 -1.1164 -1.4277 -0.0226
 2755TIP3   OH2 8270   5.653   1.734   0.945  0.4342  0.5609  0.3523
 2755TIP3    H1 8271   5.617   1.739   1.034 -0.2366 -2.5234  0.3666
 2755TIP3    H2 8272   5.748   1.731   0.957  0.3367 -0.3461  1.0595
 2756TIP3   OH2 8273   2.664   0.078   3.667 -0.0244 -0.0510 -0.3772
 2756TIP3    H1 8274   2.746   0.067   3.617 -0.0565  2.7832 -1.1995
 2756TIP3    H2 8275   2.598   0.036   3.613  0.6965 -1.5451 -0.1593
 2757TIP3   OH2 8276   3.056   3.264   2.480 -0.4118  0.0277  0.7605
 2757TIP3    H1 8277   2.995   3.313   2.425  0.7410  0.5270 -0.1106
 2757TIP3    H2 8278   3.123   3.232   2.419  0.1483 -0.6012  1.6761
 2758TIP3   OH2 8279   0.649   1.897   4.102 -0.0334 -0.1321  0.0393
 2758TIP3    H1 8280   0.593   1.828   4.066 -1.0955  0.7628 -0.0777
 2758TIP3    H2 8281   0.606   1.924   4.183  0.1760  0.6322 -0.0921
 2759TIP3   OH2 8282   6.151   4.105   1.627 -0.4376  0.4819  0.0319
 2759TIP3    H1 8283   6.097   4.176   1.662 -0.1817  0.3313  0.7531
 2759TIP3    H2 8284   6.241   4.134   1.642 -0.2939  0.7589 -1.2150
 2760TIP3   OH2 8285   0.864   2.640   5.128  0.5846  0.7237  0.3649
 2760TIP3    H1 8286   0.843   2.679   5.043  0.8985 -0.1294 -0.1096
 2760TIP3    H2 8287   0.790   2.582   5.147  0.5650  0.8317  0.6293
 2761TIP3   OH2 8288   0.520   3.723   1.431  0.1868 -0.0881 -0.2302
 2761TIP3    H1 8289   0.575   3.648   1.408 -0.0326 -0.4747  0.4931
 2761TIP3    H2 8290   0.506   3.715   1.525  0.4137  1.0346 -0.0813
 2762TIP3   OH2 8291   3.112   1.423   2.067  0.5398  0.4365  0.4154
 2762TIP3    H1 8292   3.076   1.376   2.142 -3.5269  1.2334 -0.7909
 2762TIP3    H2 8293   3.086   1.371   1.991 -0.1197  2.2583 -0.6856
 2763TIP3   OH2 8294   5.965   1.865   0.797  0.5843  0.3031 -0.2027
 2763TIP3    H1 8295   6.041   1.860   0.854 -0.2892 -1.3833  0.8748
 2763TIP3    H2 8296   5.900   1.809   0.838 -0.5680  0.1328 -2.1423
 2764TIP3   OH2 8297   2.621   5.276   2.160  0.3793 -0.0468  0.2416
 2764TIP3    H1 8298   2.607   5.362   2.198 -0.9460  0.2694 -0.8661
 2764TIP3    H2 8299   2.563   5.218   2.209 -1.0997  0.3059 -1.0007
 2765TIP3   OH2 8300   1.373   0.810   4.835 -0.2075 -0.1494 -0.0551
 2765TIP3    H1 8301   1.282   0.807   4.806 -0.1468  1.0907 -0.4440
 2765TIP3    H2 8302   1.424   0.789   4.756 -0.1663 -2.7291  0.5852
 2766TIP3   OH2 8303   2.616   1.973   4.488  0.2131 -0.1031 -0.2482
 2766TIP3    H1 8304   2.530   2.012   4.498  0.5608  1.4611 -2.6330
 2766TIP3    H2 8305   2.601   1.892   4.440 -0.0866 -0.9286  1.1752
 2767TIP3   OH2 8306   2.575   1.397   2.027 -0.3366  0.5574 -0.5245
 2767TIP3    H1 8307   2.489   1.430   2.001 -0.2138  1.6135  0.3485
 2767TIP3    H2 8308   2.570   1.303   2.011 -1.8381  0.5234  0.0092
 2768TIP3   OH2 8309   6.184   0.850   5.152  0.7569 -0.4209  0.6546
 2768TIP3    H1 8310   6.199   0.900   5.072  1.3646  0.3484  1.2354
 2768TIP3    H2 8311   6.191   0.758   5.124  0.6554 -0.1732 -0.2225
 2769TIP3   OH2 8312   4.937   5.095   4.145 -0.0990 -0.6980  0.2047
 2769TIP3    H1 8313   5.018   5.045   4.140  1.3789  1.6623 -1.0170
 2769TIP3    H2 8314   4.954   5.163   4.210 -1.0113 -0.0241 -0.2309
 2770TIP3   OH2 8315   4.455   2.694   1.824 -0.3065  0.5291 -0.3661
 2770TIP3    H1 8316   4.377   2.697   1.769 -1.9156 -0.3424  1.7206
 2770TIP3    H2 8317   4.437   2.756   1.895 -1.4026 -3.0375  2.8042
 2771TIP3   OH2 8318   5.332   1.648  -0.007 -0.0711  0.3356  0.5316
 2771TIP3    H1 8319   5.319   1.589   0.067  2.0506 -0.2765  0.5022
 2771TIP3    H2 8320   5.313   1.735   0.027 -0.7779 -0.1048  1.2945
 2772TIP3   OH2 8321   0.062   1.905   2.615 -0.3643 -0.6293 -0.2467
 2772TIP3    H1 8322  -0.030   1.930   2.611 -0.8243 -2.0556  0.7122
 2772TIP3    H2 8323   0.063   1.812   2.592  0.6895 -0.9314  0.9079
 2773TIP3   OH2 8324   1.072   1.467   5.141  0.2157 -0.3776  0.2215
 2773TIP3    H1 8325   1.013   1.490   5.213  3.0552  0.8779  2.3911
 2773TIP3    H2 8326   1.107   1.381   5.166  1.9217  0.4791  0.9533
 2774TIP3   OH2 8327   1.533   5.857   4.391  0.4413 -0.0562 -0.3816
 2774TIP3    H1 8328   1.492   5.916   4.328 -0.9930 -0.7845 -0.1726
 2774TIP3    H2 8329   1.507   5.769   4.363  0.4561 -0.4397  0.7466
 2775TIP3   OH2 8330   3.542   3.582   4.475 -0.0371 -0.4277  0.1432
 2775TIP3    H1 8331   3.455   3.562   4.507 -0.5514  2.2612  0.6944
 2775TIP3    H2 8332   3.530   3.661   4.421  1.8094 -1.0047 -1.2392
 2776TIP3   OH2 8333   0.642   1.935   4.818  0.3741  0.4347  0.8229
 2776TIP3    H1 8334   0.666   1.906   4.730 -1.2797  1.8344 -0.1761
 2776TIP3    H2 8335   0.713   1.993   4.845  0.9298 -0.0597  0.4370
 2777TIP3   OH2 8336   1.941   1.223   1.965 -0.1319 -0.2181 -0.5915
 2777TIP3    H1 8337   1.852   1.219   2.000 -0.2792  1.7056 -0.6452
 2777TIP3    H2 8338   1.996   1.245   2.041  0.1702 -0.4383 -0.7434
 2778TIP3   OH2 8339   4.867   2.968   1.383  0.2945 -0.4052  0.2427
 2778TIP3    H1 8340   4.861   2.953   1.477 -1.4773  0.8647  0.3652
 2778TIP3    H2 8341   4.800   3.034   1.364 -1.0991 -2.3702 -2.2990
 2779TIP3   OH2 8342   4.771   2.398   1.483  0.5112 -0.3604  0.6372
 2779TIP3    H1 8343   4.846   2.455   1.467 -0.1729  0.3678 -0.0708
 2779TIP3    H2 8344   4.726   2.392   1.398  0.0078 -1.1370  0.9380
 2780TIP3   OH2 8345   3.170   0.431   4.336  0.1411  0.5951 -0.3365
 2780TIP3    H1 8346   3.197   0.339   4.334  1.4089  0.8754  1.3288
 2780TIP3    H2 8347   3.141   0.450   4.247  1.0703 -1.0744 -1.0349
 2781TIP3   OH2 8348   4.018   5.302   2.120 -0.0096  0.6024  0.6140
 2781TIP3    H1 8349   4.104   5.265   2.144 -0.5717 -0.0204  1.7796
 2781TIP3    H2 8350   3.993   5.254   2.041  0.6420  0.6913  0.3409
 2782TIP3   OH2 8351   3.311   3.056   3.253  0.2029  0.0507  0.2169
 2782TIP3    H1 8352   3.379   2.993   3.228 -0.7011 -1.1884  0.7762
 2782TIP3    H2 8353   3.348   3.141   3.231  1.8934 -0.5980  0.3925
 2783TIP3   OH2 8354   4.214   1.446   4.733 -0.0404 -0.3600 -0.4425
 2783TIP3    H1 8355   4.271   1.372   4.713 -0.0231 -0.9958  1.7108
 2783TIP3    H2 8356   4.209   1.495   4.651  2.9776 -0.6833 -0.9547
 2784TIP3   OH2 8357   2.894   4.761   5.131  0.2174  0.8585  0.1875
 2784TIP3    H1 8358   2.840   4.766   5.210 -0.4109 -0.6042 -0.1328
 2784TIP3    H2 8359   2.844   4.809   5.065 -1.5655 -1.7685 -0.5390
 2785TIP3   OH2 8360   1.256   4.303   0.778 -0.2085 -0.1813 -0.4666
 2785TIP3    H1 8361   1.310   4.382   0.774  0.8750 -0.9243 -0.7788
 2785TIP3    H2 8362   1.223   4.301   0.868 -0.5157  0.7908 -0.5453
 2786TIP3   OH2 8363   4.736   2.241   1.074 -0.3629  0.1567  0.5144
 2786TIP3    H1 8364   4.787   2.315   1.039  0.9506  0.0957  2.1228
 2786TIP3    H2 8365   4.798   2.168   1.074 -1.8972 -1.2870 -1.8949
 2787TIP3   OH2 8366   5.032   5.072   3.876 -0.0673 -0.2686 -0.2120
 2787TIP3    H1 8367   4.970   5.066   3.803  0.2732  0.8450 -0.6181
 2787TIP3    H2 8368   4.980   5.108   3.948 -0.4376 -1.4973  0.1584
 2788TIP3   OH2 8369   4.099   1.057   4.681 -0.0291 -0.4520 -0.1337
 2788TIP3    H1 8370   4.039   1.012   4.740  0.6218 -1.0314  0.1035
 2788TIP3    H2 8371   4.067   1.037   4.593 -0.6360 -0.1085  0.0110
 2789TIP3   OH2 8372   5.157   2.804   3.068  0.4358 -0.1655  0.2741
 2789TIP3    H1 8373   5.112   2.720   3.059  0.1583 -0.1856  1.6620
 2789TIP3    H2 8374   5.091   2.870   3.046  0.7434 -0.2977 -1.1340
 2790TIP3   OH2 8375   4.175   4.369   1.775 -0.5417 -0.2220 -0.0069
 2790TIP3    H1 8376   4.184   4.441   1.838 -1.5359 -0.0689 -0.0126
 2790TIP3    H2 8377   4.123   4.303   1.821  1.1011 -1.3410  0.3073
 2791TIP3   OH2 8378   2.426   5.972   2.392 -0.0447  0.1466  0.2064
 2791TIP3    H1 8379   2.420   6.045   2.329 -0.7768  0.3510  0.4983
 2791TIP3    H2 8380   2.348   5.920   2.374  0.5991 -0.7140 -0.1628
 2792TIP3   OH2 8381   6.251   0.547   2.477 -0.2924  0.5045  0.2034
 2792TIP3    H1 8382   6.170   0.515   2.438 -1.4873  0.2012  2.7815
 2792TIP3    H2 8383   6.224   0.593   2.556  1.9747  1.5634  0.4447
 2793TIP3   OH2 8384   2.350  -0.008   1.238  0.0621 -0.7714  0.3961
 2793TIP3    H1 8385   2.267   0.038   1.228  0.6664  0.2557 -0.0763
 2793TIP3    H2 8386   2.388  -0.008   1.150  1.5427  0.7130  0.9912
 2794TIP3   OH2 8387   2.196   4.381   1.433 -0.5747  0.6291  0.2779
 2794TIP3    H1 8388   2.203   4.473   1.458 -0.3173  0.5036  0.6708
 2794TIP3    H2 8389   2.183   4.383   1.338  1.6527  1.0090 -0.0823
 2795TIP3   OH2 8390   0.545   0.682   4.403 -0.3286 -0.1133 -0.6587
 2795TIP3    H1 8391   0.525   0.663   4.495  0.9498 -0.5155 -0.4384
 2795TIP3    H2 8392   0.578   0.772   4.404  1.0206 -0.5871 -0.4821
 2796TIP3   OH2 8393   0.947   5.853   1.863  0.7061  0.2580 -0.0122
 2796TIP3    H1 8394   0.863   5.836   1.820 -0.4747  0.1675  2.1671
 2796TIP3    H2 8395   0.970   5.770   1.905  0.5220  0.9411  1.5380
 2797TIP3   OH2 8396   4.755   4.429   3.291 -0.3189 -0.3674 -0.0395
 2797TIP3    H1 8397   4.762   4.358   3.228 -0.5294 -1.2065  0.8514
 2797TIP3    H2 8398   4.828   4.488   3.270 -0.1680 -0.8260 -0.8136
 2798TIP3   OH2 8399   3.917   3.151   2.711  0.1496  0.1260  0.1336
 2798TIP3    H1 8400   4.005   3.114   2.713 -0.6342 -1.9110 -0.1873
 2798TIP3    H2 8401   3.923   3.231   2.763  2.1219 -0.1041  0.3284
 2799TIP3   OH2 8402   4.743   5.016   1.707  0.1620 -0.5416  0.1739
 2799TIP3    H1 8403   4.672   5.079   1.723 -0.5785 -1.1558 -0.6540
 2799TIP3    H2 8404   4.818   5.071   1.684  0.0567  0.1347  1.3459
 2800TIP3   OH2 8405   3.101   0.327   4.946  0.2107 -0.8245  0.0039
 2800TIP3    H1 8406   3.075   0.352   4.857 -2.1846 -2.1626  0.2502
 2800TIP3    H2 8407   3.148   0.245   4.935  1.4320 -0.1300 -0.1370
 2801TIP3   OH2 8408   0.356   4.584   2.534 -0.0293  0.2739  0.4688
 2801TIP3    H1 8409   0.349   4.664   2.587  1.7669 -0.3269  1.7411
 2801TIP3    H2 8410   0.267   4.564   2.508 -0.6462  2.1018  1.0350
 2802TIP3   OH2 8411   3.690   5.329   1.209 -0.4776 -0.0614 -0.4499
 2802TIP3    H1 8412   3.771   5.347   1.160  0.2895 -0.9957  0.4266
 2802TIP3    H2 8413   3.635   5.406   1.194  0.9702  1.0510 -0.2523
 2803TIP3   OH2 8414   1.875   4.185   5.060  0.4086  0.4302 -0.5408
 2803TIP3    H1 8415   1.917   4.268   5.082  1.1598 -0.0269 -0.2150
 2803TIP3    H2 8416   1.793   4.210   5.017  1.6556  1.3504 -2.4876
 2804TIP3   OH2 8417   0.391   2.423   2.505  0.0927 -0.3484 -0.3203
 2804TIP3    H1 8418   0.356   2.390   2.423 -0.3126  1.4208 -0.9035
 2804TIP3    H2 8419   0.337   2.382   2.573 -0.5597 -0.6644 -1.0157
 2805TIP3   OH2 8420   1.882   3.038   3.498 -0.0811 -0.2026  0.1782
 2805TIP3    H1 8421   1.907   2.965   3.442  1.3098 -0.8509  1.5525
 2805TIP3    H2 8422   1.787   3.045   3.488  0.1200 -0.1954 -2.2999
 2806TIP3   OH2 8423   2.710   5.641   2.836 -0.7834 -0.2783  0.4894
 2806TIP3    H1 8424   2.695   5.696   2.912 -0.9326  1.7028 -0.8947
 2806TIP3    H2 8425   2.797   5.602   2.851 -0.5966  0.4722  1.4191
 2807TIP3   OH2 8426   6.211   4.748   2.572 -0.4303  0.1444  0.8949
 2807TIP3    H1 8427   6.163   4.739   2.489 -2.6129  1.5819  1.8869
 2807TIP3    H2 8428   6.247   4.836   2.569  1.1890 -0.4987  0.6885
 2808TIP3   OH2 8429   5.982   2.814   2.936 -0.2237 -0.3172 -0.1244
 2808TIP3    H1 8430   5.910   2.752   2.948 -0.7249  0.4876  1.1650
 2808TIP3    H2 8431   5.996   2.852   3.023  0.7850  0.6000 -0.6687
 2809TIP3   OH2 8432   3.270   2.192   1.236  0.4357  0.3908  0.0742
 2809TIP3    H1 8433   3.294   2.279   1.204 -0.2129  1.0880  1.3777
 2809TIP3    H2 8434   3.200   2.209   1.299 -0.0914 -1.1403 -0.0726
 2810TIP3   OH2 8435   5.293   5.228   3.833 -0.1295  0.1421  0.3107
 2810TIP3    H1 8436   5.210   5.182   3.820 -0.3089  0.3572  0.6787
 2810TIP3    H2 8437   5.268   5.321   3.833 -0.0012  0.1871  1.1728
 2811TIP3   OH2 8438   3.275   3.002   1.814  0.2617 -0.4182 -0.8053
 2811TIP3    H1 8439   3.206   2.940   1.795  0.6425 -0.7756 -1.0401
 2811TIP3    H2 8440   3.280   3.058   1.736  0.5174 -0.6599 -0.9657
 2812TIP3   OH2 8441   4.150   1.871   0.979 -0.2274  0.3311  0.7809
 2812TIP3    H1 8442   4.206   1.933   1.027 -0.3109 -0.1871  1.5725
 2812TIP3    H2 8443   4.135   1.800   1.041 -0.5644 -0.2359  0.0624
 2813TIP3   OH2 8444   3.201   4.033   4.967  0.2132  0.0929 -0.0149
 2813TIP3    H1 8445   3.123   4.083   4.992 -1.2954 -1.7471 -0.8188
 2813TIP3    H2 8446   3.191   3.949   5.010  1.3689 -0.4552 -0.7535
 2814TIP3   OH2 8447   0.461   3.010   3.189 -0.4305 -0.7247  0.1870
 2814TIP3    H1 8448   0.520   3.023   3.263  1.8586  1.4095 -1.8303
 2814TIP3    H2 8449   0.485   2.924   3.154 -0.2552 -0.9394  0.8266
 2815TIP3   OH2 8450   4.955   4.880   0.869 -0.2737 -0.3602 -0.2571
 2815TIP3    H1 8451   4.953   4.833   0.786 -1.5481  0.2717 -0.6218
 2815TIP3    H2 8452   4.934   4.971   0.845 -0.9953 -0.2357  0.7835
 2816TIP3   OH2 8453   1.231   2.735   0.956  0.3320  0.1793 -0.0062
 2816TIP3    H1 8454   1.226   2.781   0.872 -0.5901  0.6982  0.3255
 2816TIP3    H2 8455   1.316   2.692   0.954 -0.5875 -1.7285 -2.1961
 2817TIP3   OH2 8456   0.380   0.366   0.041  0.7129 -0.0681 -0.4447
 2817TIP3    H1 8457   0.363   0.450  -0.002  1.2866 -1.0467 -2.7651
 2817TIP3    H2 8458   0.474   0.366   0.057  0.4414  0.4685  1.3153
 2818TIP3   OH2 8459   6.223   1.880   0.902  0.4599 -0.3752 -0.2828
 2818TIP3    H1 8460   6.299   1.878   0.845  0.6741  1.8472 -0.1436
 2818TIP3    H2 8461   6.256   1.915   0.985 -0.5285 -0.2815  0.0882
 2819TIP3   OH2 8462   1.361   0.088   1.603  0.2304 -0.1933  0.1505
 2819TIP3    H1 8463   1.359  -0.008   1.604  0.8562 -0.2606 -1.5313
 2819TIP3    H2 8464   1.422   0.111   1.673  2.4763 -1.1894 -1.3517
 2820TIP3   OH2 8465   1.015   1.312   0.957  0.5516  0.3391  0.0134
 2820TIP3    H1 8466   1.096   1.263   0.970  1.0246  1.1213  0.0665
 2820TIP3    H2 8467   1.008   1.321   0.862 -0.1328 -0.7883 -0.0667
 2821TIP3   OH2 8468   4.949   4.696   4.036 -0.2783  0.3187  0.2313
 2821TIP3    H1 8469   4.982   4.700   3.946  0.6640  1.8147  0.6088
 2821TIP3    H2 8470   4.896   4.775   4.045  0.2700  0.5870  1.2142
 2822TIP3   OH2 8471   5.618   0.948   0.263 -0.1067 -0.0802  0.2139
 2822TIP3    H1 8472   5.687   0.900   0.217 -0.4377 -0.9518  0.6072
 2822TIP3    H2 8473   5.537   0.922   0.220 -0.2209  0.7945 -0.1230
 2823TIP3   OH2 8474   2.311   3.032   4.229  0.0376  0.1305 -0.2840
 2823TIP3    H1 8475   2.329   3.031   4.135 -0.4457 -0.4302 -0.3767
 2823TIP3    H2 8476   2.397   3.032   4.270  0.2518  0.1482 -0.7258
 2824TIP3   OH2 8477   1.410   5.407   1.757 -0.7086 -0.2942  0.2499
 2824TIP3    H1 8478   1.407   5.322   1.800  0.4231  0.0357  1.0281
 2824TIP3    H2 8479   1.448   5.466   1.823 -0.1335  0.5046 -0.7653
 2825TIP3   OH2 8480   4.828   4.680   0.688  0.2614  0.4923  0.3329
 2825TIP3    H1 8481   4.759   4.686   0.753  1.5337  0.0829  1.7922
 2825TIP3    H2 8482   4.857   4.589   0.691  3.7866  1.4284  3.1054
 2826TIP3   OH2 8483   0.741   4.458   1.667  0.0782 -0.0555  0.0993
 2826TIP3    H1 8484   0.762   4.365   1.658 -1.3097 -0.2054 -2.2296
 2826TIP3    H2 8485   0.773   4.498   1.586 -0.3793  1.3076  0.5708
 2827TIP3   OH2 8486   4.615   1.856   1.671  0.2758  0.1715  0.5662
 2827TIP3    H1 8487   4.571   1.795   1.731 -0.5402  0.4797  0.2978
 2827TIP3    H2 8488   4.700   1.872   1.711  1.0499 -2.1254  0.0316
 2828TIP3   OH2 8489   2.302   0.136   1.629 -0.1132 -0.2691 -1.0738
 2828TIP3    H1 8490   2.210   0.113   1.621  0.3874 -3.8263  1.2710
 2828TIP3    H2 8491   2.306   0.194   1.705 -0.3282 -1.3646 -0.1992
 2829TIP3   OH2 8492   0.506   1.655   3.961 -1.0163  0.7737  0.0489
 2829TIP3    H1 8493   0.551   1.578   3.926  0.5297  1.7135 -0.1746
 2829TIP3    H2 8494   0.520   1.722   3.894 -0.2497  1.8840  1.2772
 2830TIP3   OH2 8495   5.576   4.545   2.098 -0.7464  0.1120 -0.1757
 2830TIP3    H1 8496   5.555   4.630   2.059  0.1444  0.7786  0.7428
 2830TIP3    H2 8497   5.587   4.564   2.192 -1.5630 -1.2079  0.2164
 2831TIP3   OH2 8498   5.948   2.759   0.755 -0.2606  0.3267 -0.6781
 2831TIP3    H1 8499   5.999   2.798   0.826 -0.4776 -2.5882  1.2169
 2831TIP3    H2 8500   5.873   2.819   0.745  0.4055  1.4526  0.6738
 2832TIP3   OH2 8501   2.666   0.464   0.011  0.2759  0.1198  0.2109
 2832TIP3    H1 8502   2.683   0.544  -0.040 -3.3133  1.1404  0.3368
 2832TIP3    H2 8503   2.626   0.496   0.092 -1.3898 -1.7601  0.2031
 2833TIP3   OH2 8504   2.459   0.397   4.646 -0.2797  0.3740 -0.1466
 2833TIP3    H1 8505   2.393   0.443   4.594 -1.5242 -0.4037  0.7064
 2833TIP3    H2 8506   2.490   0.327   4.588 -0.4296  0.5427 -0.4367
 2834TIP3   OH2 8507   2.365   5.505   4.738  0.0377  0.2649  0.3638
 2834TIP3    H1 8508   2.271   5.493   4.731 -0.2712  1.3207  2.1288
 2834TIP3    H2 8509   2.390   5.548   4.656 -0.6651 -1.6431 -0.9196
 2835TIP3   OH2 8510   4.583   0.284   4.953 -1.0144 -0.0488 -0.3652
 2835TIP3    H1 8511   4.562   0.211   5.011 -0.6365 -1.4106 -1.8689
 2835TIP3    H2 8512   4.677   0.279   4.941 -1.2973 -1.1173 -2.6933
 2836TIP3   OH2 8513   3.081   2.804   1.666 -0.3928 -0.1286 -0.1471
 2836TIP3    H1 8514   3.028   2.735   1.706 -0.0385  0.9271  2.3675
 2836TIP3    H2 8515   3.034   2.885   1.686  1.1226  0.6523  0.4101
 2837TIP3   OH2 8516   4.724   4.465   4.031  0.4368  0.0180  0.2150
 2837TIP3    H1 8517   4.808   4.508   4.044 -0.5955  1.8173  1.4431
 2837TIP3    H2 8518   4.690   4.501   3.949  0.7813 -0.5567 -0.1783
 2838TIP3   OH2 8519   2.020   0.715   5.146  0.2962 -0.0734  0.8522
 2838TIP3    H1 8520   2.058   0.803   5.148 -1.0083  0.5022  3.3345
 2838TIP3    H2 8521   2.085   0.660   5.189  0.7270 -0.1999  0.0697
 2839TIP3   OH2 8522   6.167   3.246   4.331  0.0646 -0.3007 -0.4050
 2839TIP3    H1 8523   6.249   3.229   4.378 -0.6419  0.0404  0.9627
 2839TIP3    H2 8524   6.159   3.341   4.330  0.3474 -0.2628 -1.7482
 2840TIP3   OH2 8525   5.043   0.555   1.576  0.7906  0.5077 -0.2200
 2840TIP3    H1 8526   5.087   0.470   1.579 -1.7613 -0.8946  0.1734
 2840TIP3    H2 8527   5.103   0.615   1.621  2.6656 -1.0639 -0.5357
 2841TIP3   OH2 8528   4.169   0.726   3.799  0.1290  0.1928  0.5571
 2841TIP3    H1 8529   4.232   0.670   3.844  1.5147  0.1888 -1.2521
 2841TIP3    H2 8530   4.106   0.665   3.760  0.9092 -0.0654 -0.3463
 2842TIP3   OH2 8531   4.743   5.551   3.469  0.2984  0.0157 -0.0609
 2842TIP3    H1 8532   4.671   5.602   3.506  0.3452  0.1439 -0.1459
 2842TIP3    H2 8533   4.702   5.471   3.436 -0.0289  0.7158 -1.4098
 2843TIP3   OH2 8534   1.619   3.332   0.136 -0.2014 -0.0996 -1.0019
 2843TIP3    H1 8535   1.624   3.330   0.231 -1.3337 -0.7670 -0.9383
 2843TIP3    H2 8536   1.604   3.424   0.114 -1.7791 -0.1816 -0.3997
 2844TIP3   OH2 8537   3.288   0.752   3.014  0.3492 -0.2414  0.4317
 2844TIP3    H1 8538   3.348   0.733   2.943 -0.3333 -0.1510 -0.1846
 2844TIP3    H2 8539   3.210   0.787   2.971 -0.3618 -0.8826  1.1685
 2845TIP3   OH2 8540   5.639   0.525   1.868  0.4397  0.6937  0.1298
 2845TIP3    H1 8541   5.593   0.453   1.825 -2.0948  1.3243  1.5499
 2845TIP3    H2 8542   5.715   0.485   1.909 -0.3057 -0.9827 -0.0515
 2846TIP3   OH2 8543   3.103   5.389   1.810  0.1366 -0.2517  0.5333
 2846TIP3    H1 8544   3.049   5.313   1.791  0.2929 -0.1085 -0.5233
 2846TIP3    H2 8545   3.056   5.463   1.771  1.2146 -0.1640 -0.6698
 2847TIP3   OH2 8546   4.059   0.253   2.246 -0.4100 -0.2142 -0.4023
 2847TIP3    H1 8547   3.987   0.299   2.288 -1.2080  0.5571 -2.4728
 2847TIP3    H2 8548   4.017   0.181   2.198  0.7525 -2.8923  2.2847
 2848TIP3   OH2 8549   3.256   5.203   1.185 -0.0225 -0.5028  0.3904
 2848TIP3    H1 8550   3.308   5.202   1.105 -2.1401 -2.6325 -1.1089
 2848TIP3    H2 8551   3.231   5.295   1.197  4.2833  0.7157  1.5093
 2849TIP3   OH2 8552   1.433   5.558   3.947  0.2171 -0.2318  0.2294
 2849TIP3    H1 8553   1.365   5.501   3.911  0.5261 -1.7863  1.9344
 2849TIP3    H2 8554   1.492   5.497   3.993  2.6956  1.0499 -1.0759
 2850TIP3   OH2 8555   3.921   3.972   0.803 -0.1314  0.3277  0.1617
 2850TIP3    H1 8556   3.993   3.909   0.817  0.1321  0.4590 -0.5447
 2850TIP3    H2 8557   3.846   3.932   0.846  0.4637  0.4062  1.3337
 2851TIP3   OH2 8558   5.672   0.623   2.319  0.0963  0.4192 -0.0301
 2851TIP3    H1 8559   5.678   0.538   2.274 -1.5365  0.5410 -0.5280
 2851TIP3    H2 8560   5.682   0.688   2.250 -1.0339  0.6070 -0.0413
 2852TIP3   OH2 8561   3.501   0.634   3.220  0.6628  0.5141  0.1710
 2852TIP3    H1 8562   3.475   0.722   3.191  0.9212  0.2766 -0.8459
 2852TIP3    H2 8563   3.542   0.595   3.142  0.7725 -0.4191  0.6837
 2853TIP3   OH2 8564   1.242   2.800   2.144 -0.1739  0.8968  0.1918
 2853TIP3    H1 8565   1.266   2.838   2.228 -2.2646 -0.1075  1.3389
 2853TIP3    H2 8566   1.231   2.707   2.162 -1.4721  0.7826 -0.9577
 2854TIP3   OH2 8567   1.930   4.070   2.016  0.0002 -0.0790 -0.1175
 2854TIP3    H1 8568   1.961   4.159   2.001 -0.1640 -0.2626 -1.7489
 2854TIP3    H2 8569   1.893   4.072   2.105  1.2577  1.0959  0.4207
 2855TIP3   OH2 8570   3.776   1.122   4.491  0.4679 -0.1858  0.1119
 2855TIP3    H1 8571   3.774   1.027   4.476  0.5219 -0.0518 -0.7898
 2855TIP3    H2 8572   3.757   1.132   4.584  0.1011 -1.0622  0.1385
 2856TIP3   OH2 8573   3.543   1.535   1.748  0.2962 -0.4029  0.4744
 2856TIP3    H1 8574   3.491   1.597   1.697 -0.0032 -0.6981  0.4210
 2856TIP3    H2 8575   3.484   1.507   1.819  1.3146  1.5206  2.1954
 2857TIP3   OH2 8576   6.277   1.647   4.296 -0.0126  0.1048  0.2926
 2857TIP3    H1 8577   6.270   1.606   4.383  2.1240  0.2692  0.6105
 2857TIP3    H2 8578   6.326   1.728   4.312 -0.5769  0.7071 -0.9261
 2858TIP3   OH2 8579   2.636   5.465   4.287 -0.7000 -0.1751  0.0697
 2858TIP3    H1 8580   2.659   5.542   4.339 -2.0500  2.1940 -2.5217
 2858TIP3    H2 8581   2.577   5.415   4.343 -1.4809  1.8211  1.1417
 2859TIP3   OH2 8582   1.094   1.647   2.315 -0.3913 -0.1480  0.2929
 2859TIP3    H1 8583   1.133   1.724   2.356  2.0010 -1.4636  0.6682
 2859TIP3    H2 8584   1.139   1.640   2.230 -1.1464 -0.7132 -0.0761
 2860TIP3   OH2 8585   1.082   0.228   1.023  0.2844  0.3201 -0.6773
 2860TIP3    H1 8586   1.094   0.286   1.098 -1.7169  0.3561 -0.3380
 2860TIP3    H2 8587   1.145   0.157   1.038  2.0172  1.8009 -0.5463
 2861TIP3   OH2 8588   3.193   4.868   3.089  0.1661  0.0170  0.3467
 2861TIP3    H1 8589   3.159   4.949   3.049  0.9207  0.2105  0.0741
 2861TIP3    H2 8590   3.286   4.869   3.067  0.0631 -1.2617 -0.2293
 2862TIP3   OH2 8591   1.121   0.758   1.053 -0.1383 -0.6750  0.2628
 2862TIP3    H1 8592   1.061   0.832   1.047 -0.8001 -1.2773 -3.5390
 2862TIP3    H2 8593   1.065   0.682   1.066 -0.2240 -1.0887 -2.0139
 2863TIP3   OH2 8594   0.895   3.589   4.106 -0.3242 -0.3996  0.1962
 2863TIP3    H1 8595   0.867   3.505   4.069 -1.4151 -0.3697  0.9126
 2863TIP3    H2 8596   0.815   3.641   4.113 -0.6368 -1.0873  4.3093
 2864TIP3   OH2 8597   2.951   5.454   2.442 -0.6894  0.0302  0.2761
 2864TIP3    H1 8598   2.946   5.382   2.380 -1.8597 -1.9722  2.5426
 2864TIP3    H2 8599   3.037   5.446   2.482 -1.0597 -0.5394  0.9778
 2865TIP3   OH2 8600   0.155   4.976   4.343 -0.0217  0.1894 -0.4883
 2865TIP3    H1 8601   0.197   5.017   4.419  0.1915  0.0986 -0.5562
 2865TIP3    H2 8602   0.066   4.959   4.372  0.1001  0.0153 -0.2022
 2866TIP3   OH2 8603   4.135   0.422   3.636  0.1229 -0.2267 -0.0131
 2866TIP3    H1 8604   4.088   0.353   3.589  0.1138 -0.0284 -0.3011
 2866TIP3    H2 8605   4.070   0.491   3.649  0.4742  0.3076 -0.9578
 2867TIP3   OH2 8606   0.057   5.785   2.581 -0.1096  0.2494 -0.5337
 2867TIP3    H1 8607   0.049   5.867   2.533  1.4150  0.2315 -0.8705
 2867TIP3    H2 8608   0.084   5.812   2.669 -0.7532  0.1585 -0.3019
 2868TIP3   OH2 8609   0.615   4.473   0.081  0.4723  0.1015 -0.1321
 2868TIP3    H1 8610   0.673   4.405   0.046  2.4154  0.9145  1.4059
 2868TIP3    H2 8611   0.671   4.549   0.095 -1.0535  1.0814  0.9767
 2869TIP3   OH2 8612   4.511   3.236   2.722 -0.1437  0.3445  0.3131
 2869TIP3    H1 8613   4.474   3.186   2.795  1.3037  0.6534  1.2999
 2869TIP3    H2 8614   4.522   3.324   2.756  1.1909  0.3316 -0.0337
 2870TIP3   OH2 8615   6.207   3.167   0.897 -0.0275 -0.6818  0.0521
 2870TIP3    H1 8616   6.262   3.089   0.890 -0.6427 -1.2825  1.5853
 2870TIP3    H2 8617   6.260   3.230   0.945  0.2979 -0.2949 -0.7922
 2871TIP3   OH2 8618   2.280   0.624   1.364 -0.1427 -0.0808  0.2765
 2871TIP3    H1 8619   2.339   0.553   1.339 -0.9944 -1.5730  2.2013
 2871TIP3    H2 8620   2.193   0.588   1.351 -0.6028  0.0154  2.5968
 2872TIP3   OH2 8621   3.373   5.300   4.025  0.2955 -0.0903 -0.6873
 2872TIP3    H1 8622   3.315   5.264   4.093 -1.4067 -1.2684 -2.6569
 2872TIP3    H2 8623   3.441   5.233   4.014  0.9862  0.4172  0.2645
 2873TIP3   OH2 8624   4.747   0.743   4.064  0.4593 -0.2227 -0.3477
 2873TIP3    H1 8625   4.685   0.815   4.068  1.7318  0.8441  2.6280
 2873TIP3    H2 8626   4.698   0.667   4.095 -0.1550 -0.1027 -0.9948
 2874TIP3   OH2 8627   4.491   0.406   2.421  0.0892  0.2180  0.6302
 2874TIP3    H1 8628   4.441   0.338   2.376  0.0219 -0.3046  1.4882
 2874TIP3    H2 8629   4.424   0.465   2.457  0.1519  1.1469 -0.6888
 2875TIP3   OH2 8630   1.905   5.925   4.806  0.0751  0.8340  0.0280
 2875TIP3    H1 8631   1.986   5.976   4.806 -1.0304  2.6757 -0.1054
 2875TIP3    H2 8632   1.912   5.867   4.730  1.5712  0.3897  0.4650
 2876TIP3   OH2 8633   1.750   0.148   2.507 -0.6652  0.5338  0.2963
 2876TIP3    H1 8634   1.800   0.098   2.572 -1.8567 -0.2409  0.6526
 2876TIP3    H2 8635   1.704   0.082   2.456 -0.5807  1.1907 -0.6465
 2877TIP3   OH2 8636   3.871   5.656   2.093 -0.5615  0.3491  0.5714
 2877TIP3    H1 8637   3.924   5.647   2.172 -1.3475  2.4715  1.4010
 2877TIP3    H2 8638   3.790   5.609   2.113 -0.6591  0.6708  0.9458
 2878TIP3   OH2 8639   0.036   0.806   1.707 -0.3870 -0.2580  0.7941
 2878TIP3    H1 8640  -0.026   0.878   1.691 -0.8468 -0.9692 -0.8927
 2878TIP3    H2 8641   0.107   0.822   1.645  0.4818 -0.1900  1.7938
 2879TIP3   OH2 8642   0.300   0.474   1.512  0.1774  0.2406 -0.0252
 2879TIP3    H1 8643   0.284   0.528   1.435 -0.2325  0.6798  0.3535
 2879TIP3    H2 8644   0.299   0.537   1.585 -0.4391 -0.2889  0.4390
 2880TIP3   OH2 8645   5.845   0.397   2.676  0.6140 -1.0168  0.0682
 2880TIP3    H1 8646   5.813   0.316   2.714  0.6482 -1.0059  0.1206
 2880TIP3    H2 8647   5.892   0.370   2.597 -0.2910 -0.9555 -0.4980
 2881TIP3   OH2 8648   5.287   5.266   2.641  0.2445 -0.1828 -0.0045
 2881TIP3    H1 8649   5.350   5.317   2.691  0.4651  0.7224 -1.1483
 2881TIP3    H2 8650   5.205   5.275   2.689  0.6393 -0.0797  0.6619
 2882TIP3   OH2 8651   5.859   3.361   3.203  0.0554 -0.2941  0.3292
 2882TIP3    H1 8652   5.866   3.325   3.114 -0.0516  0.6456 -0.0701
 2882TIP3    H2 8653   5.870   3.285   3.260  1.5887 -0.7115 -0.4517
 2883TIP3   OH2 8654   0.035   0.464   0.675  0.1771  0.5501  0.3825
 2883TIP3    H1 8655   0.028   0.470   0.771  1.2822  1.7057  0.4298
 2883TIP3    H2 8656  -0.050   0.494   0.643 -0.7471 -1.2723  0.9901
 2884TIP3   OH2 8657   3.131   0.488   2.020 -0.3025  0.1593  0.1979
 2884TIP3    H1 8658   3.060   0.455   2.075 -0.5265  3.0108  1.7846
 2884TIP3    H2 8659   3.094   0.490   1.932 -0.0418 -4.1897 -0.2596
 2885TIP3   OH2 8660   6.237   0.135   0.887 -0.3527  0.2733 -0.3233
 2885TIP3    H1 8661   6.186   0.094   0.817  0.0700 -2.1656  0.6956
 2885TIP3    H2 8662   6.175   0.192   0.932 -1.3254 -0.1854 -1.0432
 2886TIP3   OH2 8663   1.405   0.187   4.052 -0.5334 -0.3895  0.0720
 2886TIP3    H1 8664   1.400   0.271   4.097  2.0679  0.1982 -0.5556
 2886TIP3    H2 8665   1.395   0.122   4.121 -4.8235  0.2333  0.3158
 2887TIP3   OH2 8666   0.291   0.547   2.369 -0.3335 -0.2408  0.3107
 2887TIP3    H1 8667   0.310   0.619   2.430  0.5367  0.9155 -1.2459
 2887TIP3    H2 8668   0.279   0.470   2.425  0.7212  0.7065  1.9106
 2888TIP3   OH2 8669   3.594   4.513   0.755 -0.2015  0.1284 -0.0301
 2888TIP3    H1 8670   3.653   4.584   0.779 -0.9519  0.7941 -0.1200
 2888TIP3    H2 8671   3.635   4.434   0.792  0.5340  0.6277  0.2412
 2889TIP3   OH2 8672   2.608   1.333   1.268  0.1583 -0.1181 -0.2224
 2889TIP3    H1 8673   2.678   1.373   1.217 -0.1505  0.2512 -0.3609
 2889TIP3    H2 8674   2.620   1.239   1.256  0.2030 -0.0392 -0.8184
 2890TIP3   OH2 8675   1.725   5.360   0.543  0.8396  0.0625  0.3986
 2890TIP3    H1 8676   1.709   5.345   0.450 -1.9650 -2.3046  1.1010
 2890TIP3    H2 8677   1.678   5.442   0.562 -1.3118 -1.0488  0.2195
 2891TIP3   OH2 8678   5.824   5.792   2.407 -0.3167 -0.1260  0.3395
 2891TIP3    H1 8679   5.917   5.802   2.427 -0.5122  1.4099  0.6836
 2891TIP3    H2 8680   5.789   5.739   2.479  0.1808 -0.1828  0.5415
 2892TIP3   OH2 8681   3.203   3.399   2.211  0.1101  0.9857 -0.2293
 2892TIP3    H1 8682   3.141   3.403   2.138  1.0647  1.0780 -1.0580
 2892TIP3    H2 8683   3.231   3.308   2.213  0.8705  1.2065 -0.6573
 2893TIP3   OH2 8684   3.629   5.865   1.887 -0.1819  0.2088  0.2416
 2893TIP3    H1 8685   3.601   5.797   1.826 -3.0005  0.6758  0.8569
 2893TIP3    H2 8686   3.666   5.816   1.961  0.3738 -0.5093 -0.4969
 2894TIP3   OH2 8687   5.233   0.367   4.136  0.3954 -0.1088  0.5214
 2894TIP3    H1 8688   5.233   0.462   4.121  0.6102  0.1039  1.7734
 2894TIP3    H2 8689   5.213   0.330   4.050 -0.1207  1.0787  0.1001
 2895TIP3   OH2 8690   2.767   3.576   1.366  0.2368 -0.2818  0.5872
 2895TIP3    H1 8691   2.732   3.540   1.447 -0.3262 -1.7198 -0.2604
 2895TIP3    H2 8692   2.714   3.536   1.296 -0.3325  2.1078 -0.4455
 2896TIP3   OH2 8693   5.217   0.370   0.109  0.4665 -0.1695 -0.6123
 2896TIP3    H1 8694   5.147   0.322   0.153  0.5738  0.5682  0.4119
 2896TIP3    H2 8695   5.171   0.435   0.055  0.3526 -0.3585 -0.7460
 2897TIP3   OH2 8696   0.325   1.929   3.619  0.2996  0.1950 -0.5853
 2897TIP3    H1 8697   0.351   1.992   3.686 -3.3431  1.6926 -0.3184
 2897TIP3    H2 8698   0.395   1.932   3.555  2.2768  1.2929  1.4746
 2898TIP3   OH2 8699   6.206   4.424   0.423  0.3928 -0.2677  0.2908
 2898TIP3    H1 8700   6.194   4.511   0.386 -0.0938 -1.1673 -1.8413
 2898TIP3    H2 8701   6.301   4.409   0.419  0.3936 -0.1555 -0.1380
 2899TIP3   OH2 8702   0.196   5.233   3.269 -0.4971  0.1030  0.5353
 2899TIP3    H1 8703   0.149   5.163   3.224  1.9918 -2.0752  1.0770
 2899TIP3    H2 8704   0.131   5.273   3.326 -1.4754 -3.7462  2.4076
 2900TIP3   OH2 8705   3.069   1.431   1.783  0.4367 -0.3158  0.2357
 2900TIP3    H1 8706   2.988   1.471   1.816 -0.0100 -1.0352  0.0490
 2900TIP3    H2 8707   3.045   1.399   1.696  1.3086  0.6334 -0.3682
 2901TIP3   OH2 8708   4.396   5.944   0.718 -0.0871  0.1588 -0.0707
 2901TIP3    H1 8709   4.457   5.949   0.644 -2.6623 -0.8336 -2.4391
 2901TIP3    H2 8710   4.386   6.035   0.747  1.6901  0.4549 -0.2777
 2902TIP3   OH2 8711   2.578   5.531   2.233 -0.4850 -0.1553 -0.0179
 2902TIP3    H1 8712   2.656   5.563   2.189  0.9021 -0.3479  2.1489
 2902TIP3    H2 8713   2.589   5.557   2.324 -2.1697 -1.6139  0.6669
 2903TIP3   OH2 8714   5.073   3.808   4.365  0.9170  0.0489 -0.1401
 2903TIP3    H1 8715   5.134   3.743   4.401 -0.0745 -0.2990  0.9567
 2903TIP3    H2 8716   5.046   3.860   4.440 -0.4013 -0.0285 -0.5402
 2904TIP3   OH2 8717   5.026   0.905   1.150 -1.1603 -0.1146  0.0720
 2904TIP3    H1 8718   5.020   0.865   1.064  1.5011  0.8248 -0.6394
 2904TIP3    H2 8719   5.076   0.842   1.202  1.8910  1.4972 -0.6813
 2905TIP3   OH2 8720   3.285   3.034   5.075  0.3661 -0.0261 -0.4722
 2905TIP3    H1 8721   3.309   2.941   5.079 -2.2575 -0.7196  1.7001
 2905TIP3    H2 8722   3.228   3.040   4.999 -0.8212 -0.6010  0.3486
 2906TIP3   OH2 8723   5.136   1.473   2.299  0.1539  0.5566 -0.2256
 2906TIP3    H1 8724   5.165   1.397   2.349  1.5734  0.9635 -0.3999
 2906TIP3    H2 8725   5.100   1.532   2.365  0.6349  0.4556  0.1317
 2907TIP3   OH2 8726   2.325   3.370   0.968 -0.0342 -0.1801 -0.6694
 2907TIP3    H1 8727   2.250   3.415   0.930 -0.9971 -0.4419  0.8858
 2907TIP3    H2 8728   2.295   3.280   0.982  0.2043 -0.0298  0.9371
 2908TIP3   OH2 8729   0.197   0.776   2.086 -0.4453 -0.3754 -0.0344
 2908TIP3    H1 8730   0.272   0.803   2.140  1.2107  0.3728 -2.5631
 2908TIP3    H2 8731   0.133   0.847   2.098  0.3442  0.3353  0.0873
 2909TIP3   OH2 8732   0.567   0.924   4.524 -0.2200 -0.7183  0.2191
 2909TIP3    H1 8733   0.613   0.902   4.605  0.6968  2.4345  0.7098
 2909TIP3    H2 8734   0.633   0.965   4.469 -0.9169 -2.4296 -2.0662
 2910TIP3   OH2 8735   6.261   3.460   0.664  0.3758 -0.1545 -0.2107
 2910TIP3    H1 8736   6.312   3.527   0.708 -1.5405  1.6482 -0.6027
 2910TIP3    H2 8737   6.326   3.395   0.636  2.2770  1.4185  0.3532
 2911TIP3   OH2 8738   3.660   2.339   2.068  0.1038 -0.2930 -0.4059
 2911TIP3    H1 8739   3.600   2.350   2.142  0.5019 -0.2241 -0.0905
 2911TIP3    H2 8740   3.720   2.270   2.095  2.4155  1.9947  0.7930
 2912TIP3   OH2 8741   5.280   3.418   1.806 -0.5724 -0.2060  0.4384
 2912TIP3    H1 8742   5.356   3.363   1.786 -1.2750 -0.3900 -2.0508
 2912TIP3    H2 8743   5.221   3.361   1.854 -0.3642 -1.0076 -0.2236
 2913TIP3   OH2 8744   5.235   1.101   1.329  0.0102  0.0352 -0.0160
 2913TIP3    H1 8745   5.219   1.020   1.281 -1.8661  0.4670 -0.2004
 2913TIP3    H2 8746   5.176   1.097   1.404  1.8064  0.0669  1.4687
 2914TIP3   OH2 8747   2.248   0.729   0.203 -0.2387 -0.1658  0.0734
 2914TIP3    H1 8748   2.254   0.805   0.261 -1.1153 -0.7573  0.9710
 2914TIP3    H2 8749   2.226   0.766   0.117  0.2978  0.6650  0.2861
 2915TIP3   OH2 8750   0.816   5.007   3.741 -0.3599 -0.0442  0.0088
 2915TIP3    H1 8751   0.796   4.964   3.658  0.2069  0.2867 -0.3115
 2915TIP3    H2 8752   0.885   4.952   3.780  1.0912  1.0576 -0.8669
 2916TIP3   OH2 8753   4.521   5.741   2.583  0.4437  0.2430  0.2642
 2916TIP3    H1 8754   4.590   5.778   2.638  0.9909 -0.7064  0.2254
 2916TIP3    H2 8755   4.440   5.770   2.625  0.8308  1.9887 -0.1030
 2917TIP3   OH2 8756   1.808   2.785   2.658  0.1413  0.0651 -0.0744
 2917TIP3    H1 8757   1.807   2.881   2.652  0.1767  0.0233 -0.8100
 2917TIP3    H2 8758   1.803   2.755   2.567  3.9712 -0.6085 -0.1889
 2918TIP3   OH2 8759   0.739   4.067   2.633 -0.4246 -0.4994 -0.0293
 2918TIP3    H1 8760   0.815   4.098   2.682 -0.4313 -1.1012  0.3652
 2918TIP3    H2 8761   0.674   4.137   2.644 -0.0762 -0.1694 -0.0275
 2919TIP3   OH2 8762   5.450   0.338   0.768  0.5128  0.7330  0.9595
 2919TIP3    H1 8763   5.489   0.263   0.813  0.4771  1.4197  2.1897
 2919TIP3    H2 8764   5.521   0.403   0.764  0.4468  0.7687  0.2178
 2920TIP3   OH2 8765   3.918   5.999   1.722 -0.0283  0.1735  0.2279
 2920TIP3    H1 8766   3.864   5.919   1.720  0.7382 -0.3789  1.0205
 2920TIP3    H2 8767   4.008   5.967   1.728  0.2381  1.1008  1.3763
 2921TIP3   OH2 8768   6.051   4.024   2.630 -0.4265 -0.5221  0.0282
 2921TIP3    H1 8769   6.123   3.976   2.589 -0.5687 -0.8356  0.1415
 2921TIP3    H2 8770   6.087   4.111   2.648  0.0370 -0.7831  0.4021
 2922TIP3   OH2 8771   2.671   5.618   2.530  0.6904 -0.2049  0.0188
 2922TIP3    H1 8772   2.739   5.665   2.483  1.5718 -1.1432  0.3279
 2922TIP3    H2 8773   2.688   5.637   2.623  0.4915 -0.3795  0.0937
 2923TIP3   OH2 8774   4.099   3.983   4.770 -0.3467 -0.1740 -0.1366
 2923TIP3    H1 8775   4.168   3.932   4.727 -0.0527  0.0915  0.0125
 2923TIP3    H2 8776   4.146   4.049   4.821 -0.6257 -1.1964  1.5384
 2924TIP3   OH2 8777   3.642   4.089   4.296 -0.2855  0.2169  0.4112
 2924TIP3    H1 8778   3.698   4.070   4.220  0.6898  2.6721  0.4149
 2924TIP3    H2 8779   3.568   4.137   4.260  0.0421  1.1520  0.9576
 2925TIP3   OH2 8780   2.033   4.755   4.393  0.0786  0.0868  0.2048
 2925TIP3    H1 8781   2.003   4.664   4.401  1.0544 -0.2524  0.2540
 2925TIP3    H2 8782   2.066   4.762   4.304 -0.0586  0.4152  0.1784
 2926TIP3   OH2 8783   3.227   2.560   3.452  0.0725  0.7438  0.1538
 2926TIP3    H1 8784   3.191   2.635   3.404 -3.3004  0.2040  1.5258
 2926TIP3    H2 8785   3.241   2.494   3.385 -1.0473  1.2112 -0.5779
 2927TIP3   OH2 8786   0.023   5.227   1.473 -0.2277  0.3756  0.1070
 2927TIP3    H1 8787  -0.022   5.143   1.481  0.8577 -0.1455  0.9829
 2927TIP3    H2 8788   0.112   5.210   1.502  0.3070  1.5950 -0.7138
 2928TIP3   OH2 8789   6.039   5.799   0.417  0.1508 -0.0258 -0.1599
 2928TIP3    H1 8790   5.998   5.716   0.395 -0.0506  0.5736 -2.2732
 2928TIP3    H2 8791   6.094   5.819   0.341  2.3141  0.4962  1.4441
 2929TIP3   OH2 8792   0.457   2.332   2.908  0.2977  1.1039 -0.2741
 2929TIP3    H1 8793   0.464   2.425   2.887 -0.5570  1.0696 -0.7683
 2929TIP3    H2 8794   0.395   2.328   2.981 -1.0178  0.8173 -1.3622
 2930TIP3   OH2 8795   0.661   4.563   4.037 -0.0824  0.1072 -0.1176
 2930TIP3    H1 8796   0.660   4.658   4.023  0.3250  0.2588  0.7877
 2930TIP3    H2 8797   0.650   4.525   3.950 -0.3854  0.9872 -0.4724
 2931TIP3   OH2 8798   4.245   1.204   5.058 -0.0704 -0.4988 -0.1367
 2931TIP3    H1 8799   4.243   1.152   4.977 -1.8557 -0.1814 -0.3372
 2931TIP3    H2 8800   4.215   1.144   5.126 -1.5977  0.0657 -0.2736
 2932TIP3   OH2 8801   4.810   2.124   3.920  0.5904  0.1181  0.5247
 2932TIP3    H1 8802   4.715   2.119   3.915  0.6631  0.0636 -1.4694
 2932TIP3    H2 8803   4.827   2.215   3.945  0.0434  0.3213  0.1719
 2933TIP3   OH2 8804   2.829   4.426   1.994  0.0880 -0.0730 -0.2818
 2933TIP3    H1 8805   2.798   4.450   2.081 -0.9888 -0.3605 -0.5713
 2933TIP3    H2 8806   2.920   4.399   2.007 -0.1963 -0.5377  0.8230
 2934TIP3   OH2 8807   4.926   4.255   4.467 -0.2728 -0.0785 -0.2364
 2934TIP3    H1 8808   5.004   4.225   4.514 -1.1036 -1.6519  0.2205
 2934TIP3    H2 8809   4.897   4.179   4.416 -0.6348  0.9439 -1.6359
 2935TIP3   OH2 8810   2.070   4.780   1.053  0.0041  0.0793  0.0498
 2935TIP3    H1 8811   2.143   4.770   0.991 -1.3392 -3.6070 -1.2274
 2935TIP3    H2 8812   1.992   4.759   1.002 -1.7543  1.6121  1.9297
 2936TIP3   OH2 8813   1.666   1.637   2.413  0.0386  0.0741  0.3683
 2936TIP3    H1 8814   1.751   1.652   2.372  1.1434 -1.8352  1.8024
 2936TIP3    H2 8815   1.661   1.701   2.483  0.3636  0.0925  0.3747
 2937TIP3   OH2 8816   4.541   4.676   0.554  0.2299 -0.3697  0.1508
 2937TIP3    H1 8817   4.583   4.708   0.634  0.2110  0.1053 -0.0260
 2937TIP3    H2 8818   4.504   4.592   0.579  1.5318 -0.9411  0.2305
 2938TIP3   OH2 8819   1.815   4.272   0.722  0.1110 -0.6588  0.5000
 2938TIP3    H1 8820   1.891   4.329   0.734 -0.0113 -0.3576 -0.1163
 2938TIP3    H2 8821   1.796   4.239   0.810 -0.8718  1.5718  1.1927
 2939TIP3   OH2 8822   5.055   3.790   3.659  0.3497  0.1871  0.1631
 2939TIP3    H1 8823   5.091   3.778   3.571  0.5684 -0.9326  0.4001
 2939TIP3    H2 8824   5.120   3.843   3.704 -0.7105  2.6083 -0.9463
 2940TIP3   OH2 8825   5.662   5.739   0.284  0.1804  0.5376  0.1910
 2940TIP3    H1 8826   5.726   5.668   0.277 -1.0155 -0.5195 -0.2388
 2940TIP3    H2 8827   5.700   5.810   0.232  0.7621 -0.2621 -0.5047
 2941TIP3   OH2 8828   5.853   3.508   0.839  0.0880 -0.1818  0.0217
 2941TIP3    H1 8829   5.906   3.433   0.811  2.3666  1.6900 -1.0540
 2941TIP3    H2 8830   5.902   3.546   0.912  0.2926  1.6085 -0.9878
 2942TIP3   OH2 8831   3.182   2.018   2.023  0.2826 -0.1545 -0.3006
 2942TIP3    H1 8832   3.105   1.974   2.059  1.1761 -0.7811  0.9387
 2942TIP3    H2 8833   3.245   1.947   2.009  1.5648  0.6011  1.2238
 2943TIP3   OH2 8834   4.004   4.195   2.921 -0.3193 -0.7937  0.0726
 2943TIP3    H1 8835   3.977   4.280   2.954 -0.2365  0.0347 -1.8664
 2943TIP3    H2 8836   4.100   4.198   2.923 -0.3206 -0.9721  0.3423
 2944TIP3   OH2 8837   1.849   5.875   3.026  0.3530 -0.4017  0.5356
 2944TIP3    H1 8838   1.759   5.879   2.995  1.1185  2.4433 -1.6696
 2944TIP3    H2 8839   1.893   5.815   2.965  0.2255 -0.8969  0.9217
 2945TIP3   OH2 8840   3.797   1.558   1.316  0.0231  0.5387  0.0523
 2945TIP3    H1 8841   3.816   1.481   1.263 -1.7495  0.0890  0.0138
 2945TIP3    H2 8842   3.845   1.543   1.398 -1.5119 -1.4295  0.6820
 2946TIP3   OH2 8843   2.547   4.507   5.182  0.0615 -0.3801  0.6498
 2946TIP3    H1 8844   2.453   4.509   5.203 -0.2037 -0.8062 -0.4425
 2946TIP3    H2 8845   2.552   4.455   5.102  1.3994 -1.7149  1.5449
 2947TIP3   OH2 8846   2.047   5.626   3.671  0.2361 -0.2388 -0.0553
 2947TIP3    H1 8847   2.062   5.632   3.766  1.2054 -1.5870 -0.0963
 2947TIP3    H2 8848   1.958   5.592   3.663  0.4583 -0.9393  0.3908
 2948TIP3   OH2 8849   0.498   1.933   5.170  1.0449  0.6733  0.4743
 2948TIP3    H1 8850   0.402   1.931   5.177  1.0937  0.1969  1.1431
 2948TIP3    H2 8851   0.520   2.026   5.164  0.5307  0.7787  0.2077
 2949TIP3   OH2 8852   3.362   2.544   4.974 -0.1603 -0.2756  0.2867
 2949TIP3    H1 8853   3.378   2.468   4.918 -0.7529  1.8030 -3.0413
 2949TIP3    H2 8854   3.268   2.558   4.969 -0.2477 -0.0561  1.9787
 2950TIP3   OH2 8855   3.639   0.095   1.634 -0.2611 -0.1390 -0.0931
 2950TIP3    H1 8856   3.724   0.075   1.595 -0.2318  1.2566 -0.8108
 2950TIP3    H2 8857   3.658   0.109   1.726  0.2151 -0.2755 -0.1672
 2951TIP3   OH2 8858   0.989   2.915   2.929  0.2317  0.2390  0.0632
 2951TIP3    H1 8859   1.022   2.839   2.881  0.8964  0.5833 -0.0267
 2951TIP3    H2 8860   0.912   2.942   2.879  0.6672  0.3286 -0.5667
 2952TIP3   OH2 8861   5.211   3.036   4.514 -0.6552  0.0068  0.2553
 2952TIP3    H1 8862   5.130   2.999   4.479 -0.2442 -1.9570  1.1798
 2952TIP3    H2 8863   5.248   3.087   4.442 -2.3872  0.4387 -0.3759
 2953TIP3   OH2 8864   6.069   4.609   0.872  0.6047 -0.3364  0.2048
 2953TIP3    H1 8865   6.078   4.515   0.883  0.1804 -0.3682  0.3053
 2953TIP3    H2 8866   5.986   4.620   0.825  0.8546 -0.0371 -0.1660
 2954TIP3   OH2 8867   4.595   1.267   3.980  0.2043 -0.1839  0.4604
 2954TIP3    H1 8868   4.633   1.193   4.028  0.1371 -0.1672  0.5390
 2954TIP3    H2 8869   4.501   1.258   3.993  0.2874  1.2929  2.5307
 2955TIP3   OH2 8870   4.964   0.083   0.696 -0.3369 -0.3875 -0.4855
 2955TIP3    H1 8871   4.967  -0.006   0.661 -0.0954 -0.2060 -0.9340
 2955TIP3    H2 8872   5.055   0.102   0.719 -0.3336 -0.1212 -0.7261
 2956TIP3   OH2 8873   1.269   2.987   4.296  0.2092 -0.4302  0.6662
 2956TIP3    H1 8874   1.330   3.048   4.254 -0.8787 -0.3703 -0.8945
 2956TIP3    H2 8875   1.261   2.915   4.234 -0.6327 -0.8497  1.2483
 2957TIP3   OH2 8876   0.423   0.522   3.335 -0.4667 -0.2682  0.1077
 2957TIP3    H1 8877   0.382   0.485   3.414 -0.5143 -0.9475 -0.2220
 2957TIP3    H2 8878   0.351   0.526   3.272 -0.0410 -1.4572 -0.4719
 2958TIP3   OH2 8879   5.068   3.542   2.408 -0.4627  0.3948 -0.0012
 2958TIP3    H1 8880   5.117   3.596   2.470 -1.6171 -1.2260  2.5195
 2958TIP3    H2 8881   4.988   3.517   2.456 -0.5936 -2.4052 -1.4575
 2959TIP3   OH2 8882   5.126   5.935   4.706  0.3447  0.3344 -0.2860
 2959TIP3    H1 8883   5.210   5.910   4.745  0.5382  0.0287 -0.8760
 2959TIP3    H2 8884   5.107   5.864   4.643 -0.0287  0.7362 -0.6330
 2960TIP3   OH2 8885   5.364   4.224   2.826 -0.7045  0.0533 -0.1381
 2960TIP3    H1 8886   5.343   4.296   2.885  1.0633  0.2274  0.3568
 2960TIP3    H2 8887   5.345   4.145   2.878 -1.1553  0.1763 -0.1121
 2961TIP3   OH2 8888   4.639   1.802   1.348 -0.0063  0.1422  0.5163
 2961TIP3    H1 8889   4.693   1.742   1.296  0.3396 -0.6625  1.7502
 2961TIP3    H2 8890   4.585   1.744   1.403  0.1101  0.9535  1.5156
 2962TIP3   OH2 8891   0.794   2.752   4.893  0.3596  0.5653 -0.2108
 2962TIP3    H1 8892   0.866   2.813   4.908  1.2709  0.0168 -2.0063
 2962TIP3    H2 8893   0.716   2.807   4.891  1.0735  1.6161 -1.0888
 2963TIP3   OH2 8894   3.576   0.602   1.502  0.1677  0.1594  0.1256
 2963TIP3    H1 8895   3.588   0.680   1.557  3.8310 -0.8512  0.9992
 2963TIP3    H2 8896   3.555   0.533   1.565 -0.6407 -0.0547 -0.3730
 2964TIP3   OH2 8897   2.236   4.279   2.193  0.1717  0.2290 -0.1566
 2964TIP3    H1 8898   2.279   4.289   2.109 -0.0016  2.5626 -0.0365
 2964TIP3    H2 8899   2.258   4.359   2.241 -1.1842 -0.2345  1.3401
 2965TIP3   OH2 8900   2.002   4.464   2.387 -0.3303 -1.1647 -0.4536
 2965TIP3    H1 8901   2.029   4.509   2.307  0.2733  0.2363  0.4973
 2965TIP3    H2 8902   2.043   4.514   2.458 -2.6760 -0.9861  0.8778
 2966TIP3   OH2 8903   1.236   4.362   2.524  0.1418 -0.0094 -1.0510
 2966TIP3    H1 8904   1.250   4.277   2.567 -1.2511  0.4788  0.4906
 2966TIP3    H2 8905   1.141   4.366   2.510  0.0903  1.5970 -0.4075
 2967TIP3   OH2 8906   3.023   4.224   4.133  0.0074 -0.3365  0.6683
 2967TIP3    H1 8907   2.969   4.261   4.063 -2.2466  1.9090  3.3948
 2967TIP3    H2 8908   3.075   4.299   4.165  1.8928 -1.5884  0.7039
 2968TIP3   OH2 8909   3.468   4.270   2.151 -0.0103 -0.0255 -0.1023
 2968TIP3    H1 8910   3.412   4.347   2.149 -1.5745 -1.0428  1.4932
 2968TIP3    H2 8911   3.442   4.220   2.073  0.2068  0.5075 -0.5217
 2969TIP3   OH2 8912   0.290   4.945   0.732 -0.1206 -0.0290 -0.1953
 2969TIP3    H1 8913   0.238   4.996   0.671 -0.0720  1.7139  1.1322
 2969TIP3    H2 8914   0.361   5.004   0.759  0.3222 -1.0102  0.9223
 2970TIP3   OH2 8915   0.904   2.385   3.747  0.0061 -0.0937 -0.4774
 2970TIP3    H1 8916   0.883   2.323   3.677 -1.7799  2.1088 -2.0626
 2970TIP3    H2 8917   0.820   2.428   3.766  1.2099  2.1214  0.1934
 2971TIP3   OH2 8918   5.362   5.354   0.142 -0.8155  0.4000  0.6424
 2971TIP3    H1 8919   5.448   5.338   0.104 -1.8523  0.8373 -2.1178
 2971TIP3    H2 8920   5.357   5.448   0.154 -1.3894  0.5463 -0.5838
 2972TIP3   OH2 8921   6.353   2.165   1.733 -0.1791  0.4395  0.2125
 2972TIP3    H1 8922   6.326   2.237   1.790 -0.2900 -0.2081  0.9992
 2972TIP3    H2 8923   6.297   2.092   1.759  0.2539 -0.0659 -0.2464
 2973TIP3   OH2 8924   2.953   1.400   1.556 -0.0971 -0.4809  0.3802
 2973TIP3    H1 8925   2.867   1.443   1.557  0.3465  0.5307 -1.3948
 2973TIP3    H2 8926   2.953   1.348   1.476  0.6714 -1.0887  0.7653
 2974TIP3   OH2 8927   4.686   0.388   0.729 -0.1815 -0.1153  0.9608
 2974TIP3    H1 8928   4.776   0.413   0.752 -0.6374  1.4851  1.0708
 2974TIP3    H2 8929   4.656   0.457   0.670 -1.5342 -0.3403  1.3593
 2975TIP3   OH2 8930   5.658   4.128   4.949 -0.2331 -0.1619 -0.0531
 2975TIP3    H1 8931   5.570   4.105   4.919 -0.7232 -1.5535  2.2020
 2975TIP3    H2 8932   5.653   4.121   5.044  2.6675 -1.5963  0.0876
 2976TIP3   OH2 8933   0.833   1.340   2.533  0.9616 -0.8739 -0.1431
 2976TIP3    H1 8934   0.828   1.364   2.626 -0.5688  0.1951 -0.4602
 2976TIP3    H2 8935   0.847   1.423   2.488 -0.1542 -1.1298 -0.9909
 2977TIP3   OH2 8936   5.753   4.423   3.634  0.4970 -0.2007 -0.6973
 2977TIP3    H1 8937   5.797   4.375   3.564  0.8554  1.5658 -1.7487
 2977TIP3    H2 8938   5.662   4.430   3.606 -0.0379 -1.9396  0.4274
 2978TIP3   OH2 8939   4.716   4.688   4.283  0.1917  0.2905  0.4126
 2978TIP3    H1 8940   4.782   4.620   4.276 -0.5760 -0.4053 -0.3016
 2978TIP3    H2 8941   4.715   4.712   4.375  0.8842 -0.2459  0.5649
 2979TIP3   OH2 8942   3.265   3.152   2.309  0.1779 -0.2979 -0.5000
 2979TIP3    H1 8943   3.291   3.105   2.230 -0.3997 -0.9168 -0.3314
 2979TIP3    H2 8944   3.298   3.098   2.381 -1.3667 -0.9970 -0.2867
 2980TIP3   OH2 8945   1.779   0.826   4.499  0.1492 -0.4942 -0.4400
 2980TIP3    H1 8946   1.860   0.857   4.458  0.9714 -0.5109  1.0662
 2980TIP3    H2 8947   1.809   0.780   4.578 -1.3419 -0.2224  0.3260
 2981TIP3   OH2 8948   4.982   5.323   4.306  0.1621  0.0944 -0.1304
 2981TIP3    H1 8949   5.040   5.356   4.374  1.3840  0.5662 -1.3436
 2981TIP3    H2 8950   4.898   5.365   4.323  0.4639  0.2743  1.0074
 2982TIP3   OH2 8951   2.173   1.019   1.524  0.2440 -0.0677 -0.1816
 2982TIP3    H1 8952   2.236   0.946   1.530  0.9077  0.6194  2.7549
 2982TIP3    H2 8953   2.161   1.047   1.615 -1.3887  2.3369 -1.0588
 2983TIP3   OH2 8954   3.568   1.281   4.395  0.0342 -0.0907 -0.8196
 2983TIP3    H1 8955   3.590   1.310   4.307 -2.3208  0.0750 -1.4139
 2983TIP3    H2 8956   3.650   1.244   4.429  1.2777  0.8528 -2.6308
 2984TIP3   OH2 8957   5.219   0.643   3.114  0.1480  0.5061  0.0741
 2984TIP3    H1 8958   5.134   0.623   3.154 -1.3937 -1.3999 -3.6434
 2984TIP3    H2 8959   5.272   0.565   3.130  0.0330  0.3354 -0.3744
 2985TIP3   OH2 8960   0.612   4.118   0.941  0.4780  0.0967  0.0187
 2985TIP3    H1 8961   0.570   4.197   0.906  1.4676  1.6186  2.0453
 2985TIP3    H2 8962   0.541   4.055   0.949 -1.1949  2.0623  1.8585
 2986TIP3   OH2 8963   4.440   0.313   4.430  0.3667  0.1171 -0.1006
 2986TIP3    H1 8964   4.418   0.226   4.395  0.5856 -0.6369  1.5368
 2986TIP3    H2 8965   4.392   0.374   4.374 -0.4505 -1.1102 -0.7841
 2987TIP3   OH2 8966   1.897   5.156   1.355  0.4960  0.2974  0.0034
 2987TIP3    H1 8967   1.914   5.120   1.267 -0.5147  1.5883 -0.7454
 2987TIP3    H2 8968   1.817   5.207   1.345 -1.5062 -2.0655  2.4141
 2988TIP3   OH2 8969   2.927   3.837   4.577 -0.5862 -0.6745  0.3547
 2988TIP3    H1 8970   2.955   3.926   4.599 -1.9769  0.7003 -2.8635
 2988TIP3    H2 8971   3.004   3.783   4.594  0.3226  1.0881  2.3239
 2989TIP3   OH2 8972   5.559   1.353   2.380 -0.1611 -0.4113 -0.2977
 2989TIP3    H1 8973   5.624   1.417   2.408 -2.0223  1.0328  0.9540
 2989TIP3    H2 8974   5.571   1.347   2.285 -0.6216  2.6840 -0.6582
 2990TIP3   OH2 8975   2.350   3.973   1.672  0.1634  0.1664 -0.4000
 2990TIP3    H1 8976   2.409   4.025   1.725  0.4730 -2.0761  1.5975
 2990TIP3    H2 8977   2.321   3.902   1.729 -1.0283 -1.2994 -2.6395
 2991TIP3   OH2 8978   4.852   0.572   2.486 -0.4340 -0.6621 -0.3556
 2991TIP3    H1 8979   4.946   0.586   2.503  0.1804  0.0367 -3.6199
 2991TIP3    H2 8980   4.838   0.480   2.508  1.2194 -0.9822 -0.4620
 2992TIP3   OH2 8981   1.839   3.379   2.682  0.1567 -0.0215 -0.0111
 2992TIP3    H1 8982   1.752   3.409   2.711  0.3601  0.1918  0.3968
 2992TIP3    H2 8983   1.892   3.382   2.762  0.3029 -1.0470 -0.0589
 2993TIP3   OH2 8984   2.609   3.407   0.125  0.0058 -0.6903  0.3826
 2993TIP3    H1 8985   2.549   3.334   0.111  1.1997 -1.5007 -0.7759
 2993TIP3    H2 8986   2.638   3.431   0.037  0.2201  0.6793  0.8084
 2994TIP3   OH2 8987   0.608   0.227   5.120 -0.1553  0.4361  0.0422
 2994TIP3    H1 8988   0.582   0.173   5.045 -0.6861  1.4785 -0.5438
 2994TIP3    H2 8989   0.558   0.308   5.111 -0.4519  0.4765  1.7035
 2995TIP3   OH2 8990   1.014   0.127   0.586 -0.1892  0.5200  0.2829
 2995TIP3    H1 8991   1.096   0.080   0.595 -1.1034 -0.8773  2.1308
 2995TIP3    H2 8992   1.013   0.189   0.658 -0.4083  1.1000 -0.2086
 2996TIP3   OH2 8993   5.901   3.881   2.016 -0.4089 -0.0690 -0.0788
 2996TIP3    H1 8994   5.841   3.945   2.053 -0.1540  0.4817 -0.6141
 2996TIP3    H2 8995   5.876   3.798   2.058 -0.1890  0.5161  1.2569
 2997TIP3   OH2 8996   6.065   2.888   3.223  0.1129 -0.1302 -0.1755
 2997TIP3    H1 8997   6.129   2.831   3.265 -0.0486 -1.0979 -1.1947
 2997TIP3    H2 8998   6.110   2.972   3.214  0.7455 -0.4004  0.3668
 2998TIP3   OH2 8999   6.238   1.016   4.261 -0.1722 -0.0171 -0.2229
 2998TIP3    H1 9000   6.147   1.029   4.287 -0.5066 -1.5839 -0.4712
 2998TIP3    H2 9001   6.276   0.964   4.332  0.4802  0.4820 -0.2007
 2999TIP3   OH2 9002   5.770   1.257   0.022 -0.2073 -0.0425  0.0822
 2999TIP3    H1 9003   5.791   1.350   0.017 -0.1523  0.0681  1.7725
 2999TIP3    H2 9004   5.674   1.254   0.024 -0.1971  0.0315  0.7500
 3000TIP3   OH2 9005   4.760   2.918   0.552 -0.2538 -0.2966  0.2282
 3000TIP3    H1 9006   4.742   3.010   0.533  0.3386 -0.3369 -0.5890
 3000TIP3    H2 9007   4.841   2.920   0.603 -0.9017 -0.2998  1.2805
 3001TIP3   OH2 9008   0.418   4.037   4.389  0.3688  0.0343 -0.3364
 3001TIP3    H1 9009   0.435   4.125   4.355  1.1127 -0.5383 -1.5373
 3001TIP3    H2 9010   0.494   4.017   4.443  1.5014 -0.8092 -2.1239
 3002TIP3   OH2 9011   1.432   2.468   2.870 -0.2886 -0.1606 -0.5019
 3002TIP3    H1 9012   1.401   2.423   2.791 -1.0736  0.4607 -0.5606
 3002TIP3    H2 9013   1.525   2.483   2.854 -0.3830 -0.2824 -1.1928
 3003TIP3   OH2 9014   2.112   3.349   1.179  0.9022  0.4637  0.0848
 3003TIP3    H1 9015   2.142   3.395   1.257 -2.1711  1.2530  0.9579
 3003TIP3    H2 9016   2.101   3.258   1.207  0.6004  0.5829  0.3698
 3004TIP3   OH2 9017   0.131   3.645   0.394  0.0900  0.0901  0.0081
 3004TIP3    H1 9018   0.081   3.631   0.474 -1.4626 -0.2769 -0.9790
 3004TIP3    H2 9019   0.193   3.715   0.416 -1.3736  1.1085  1.1018
 3005TIP3   OH2 9020   5.373   0.663   2.891 -0.1318 -0.2198  0.5569
 3005TIP3    H1 9021   5.370   0.754   2.862 -2.1494 -0.3508  0.2202
 3005TIP3    H2 9022   5.300   0.655   2.953 -0.8177 -1.9164 -0.4108
 3006TIP3   OH2 9023   2.636   5.111   0.377 -0.1813 -0.3020 -0.0319
 3006TIP3    H1 9024   2.587   5.108   0.460  1.2087  1.7849  0.9599
 3006TIP3    H2 9025   2.681   5.028   0.373 -0.3207 -0.4642  1.2977
 3007TIP3   OH2 9026   2.522   0.833   2.355  0.3333 -0.2112  0.2004
 3007TIP3    H1 9027   2.582   0.783   2.301 -0.8816  0.8538 -2.3014
 3007TIP3    H2 9028   2.556   0.923   2.351 -0.1206 -0.0112  0.6969
 3008TIP3   OH2 9029   5.271   5.573   4.383 -0.0774 -0.2571  0.0665
 3008TIP3    H1 9030   5.323   5.550   4.305  0.3883  0.7714  0.0566
 3008TIP3    H2 9031   5.330   5.627   4.435 -0.7715 -0.0116  0.5971
 3009TIP3   OH2 9032   4.164   0.946   2.732  0.1783  0.0091  0.2380
 3009TIP3    H1 9033   4.143   1.037   2.753  1.0669  0.1500  0.5919
 3009TIP3    H2 9034   4.085   0.897   2.754 -0.5414  0.7683 -0.5693
 3010TIP3   OH2 9035   5.661   5.697   3.630  0.2790  0.4682 -0.4696
 3010TIP3    H1 9036   5.603   5.767   3.599  1.4684  0.6959 -2.3280
 3010TIP3    H2 9037   5.691   5.654   3.550  1.5673 -0.5511  0.5202
 3011TIP3   OH2 9038   0.976   0.679   4.616 -0.2297  0.1235 -0.4134
 3011TIP3    H1 9039   0.945   0.592   4.594 -0.4096  0.2128 -0.5151
 3011TIP3    H2 9040   1.061   0.687   4.573  0.2603 -0.3765  0.4275
 3012TIP3   OH2 9041   5.165   3.091   1.795  0.0565 -0.2516 -0.4180
 3012TIP3    H1 9042   5.124   3.019   1.746  0.0778  0.3646 -1.3654
 3012TIP3    H2 9043   5.115   3.095   1.877  0.8614 -2.1543  0.2193
 3013TIP3   OH2 9044   0.221   0.186   3.305  0.1957 -0.0491 -0.3500
 3013TIP3    H1 9045   0.141   0.133   3.292  0.6551 -0.4671 -1.6864
 3013TIP3    H2 9046   0.275   0.133   3.363 -0.2962  0.0113  0.1707
 3014TIP3   OH2 9047   6.288   3.921   3.699  0.0868  0.0598  0.4696
 3014TIP3    H1 9048   6.347   3.847   3.690  0.4094  0.4449 -0.6809
 3014TIP3    H2 9049   6.229   3.896   3.771 -1.1079 -2.1917 -1.1736
 3015TIP3   OH2 9050   3.794   4.198   3.508  0.3904  0.0445 -0.5543
 3015TIP3    H1 9051   3.709   4.172   3.543 -0.0552 -0.6995 -2.1081
 3015TIP3    H2 9052   3.803   4.290   3.535 -1.9739  0.8829 -2.2630
 3016TIP3   OH2 9053   0.972   0.988   0.990 -0.2918  0.0445  0.0000
 3016TIP3    H1 9054   0.938   0.980   0.901 -0.3712 -1.9185  0.1651
 3016TIP3    H2 9055   1.057   1.031   0.980  0.6417 -1.9791 -1.2882
 3017TIP3   OH2 9056   1.814   5.112   0.320 -0.0330 -0.0685 -0.1327
 3017TIP3    H1 9057   1.729   5.076   0.295 -0.1377  1.3492 -2.0494
 3017TIP3    H2 9058   1.809   5.204   0.294  1.4923  0.4623  1.2879
 3018TIP3   OH2 9059   1.744   1.813   0.183 -0.8839 -0.3356 -0.2868
 3018TIP3    H1 9060   1.757   1.768   0.100 -0.8966  0.8524 -0.9596
 3018TIP3    H2 9061   1.729   1.905   0.159  1.5708  0.5334  1.1053
 3019TIP3   OH2 9062   1.026   4.437   1.638 -0.3854  0.3387 -0.1124
 3019TIP3    H1 9063   0.976   4.456   1.559  1.4828  0.1360 -1.4202
 3019TIP3    H2 9064   1.038   4.523   1.680 -0.1311  0.6829 -0.8635
 3020TIP3   OH2 9065   5.689   1.022   3.630 -0.3749  0.4063 -0.0514
 3020TIP3    H1 9066   5.656   1.011   3.719  2.8623 -0.3991  1.1845
 3020TIP3    H2 9067   5.703   1.116   3.620  0.2444  0.4001  0.7189
 3021TIP3   OH2 9068   5.889   5.450   0.517 -0.1813  0.1209 -0.6378
 3021TIP3    H1 9069   5.834   5.373   0.508  0.3513 -0.3581  0.1372
 3021TIP3    H2 9070   5.888   5.491   0.430 -0.2855 -0.8734 -1.1113
 3022TIP3   OH2 9071   3.782   1.832   1.822 -0.4527  0.3180 -0.0949
 3022TIP3    H1 9072   3.697   1.804   1.786 -0.2237 -0.3231 -0.1504
 3022TIP3    H2 9073   3.806   1.908   1.769 -1.7182  1.4757  0.9322
 3023TIP3   OH2 9074   5.008   5.573   0.381 -0.1201 -0.0798 -0.0616
 3023TIP3    H1 9075   4.944   5.530   0.324  1.1298 -0.2675 -1.3858
 3023TIP3    H2 9076   5.090   5.526   0.365  0.8131  1.4309  0.0615
 3024TIP3   OH2 9077   1.184   1.297   4.730  0.5796  0.0374 -0.4921
 3024TIP3    H1 9078   1.135   1.323   4.809  0.2921 -0.0663 -0.6330
 3024TIP3    H2 9079   1.231   1.376   4.704  0.2799  0.2170 -0.5013
 3025TIP3   OH2 9080   3.442   3.442   3.457  0.6111  0.0464 -0.0933
 3025TIP3    H1 9081   3.347   3.449   3.448  0.5424 -1.2499 -0.5593
 3025TIP3    H2 9082   3.474   3.531   3.446 -0.7548  1.0348  2.8266
 3026TIP3   OH2 9083   1.653   5.304   4.637  0.9938 -0.0173  0.2084
 3026TIP3    H1 9084   1.675   5.327   4.547  0.8208 -0.2632  0.1017
 3026TIP3    H2 9085   1.573   5.353   4.655  0.1327 -1.1837 -0.3152
 3027TIP3   OH2 9086   5.090   2.164   2.333  0.5525  0.0598  0.1918
 3027TIP3    H1 9087   5.024   2.095   2.332 -1.2688  1.7303 -0.1065
 3027TIP3    H2 9088   5.152   2.138   2.264 -1.3251 -0.1586 -1.5013
 3028TIP3   OH2 9089   6.101   2.987   1.888  0.2272 -0.6075 -0.2599
 3028TIP3    H1 9090   6.192   2.989   1.859  0.6659 -2.3059  0.8505
 3028TIP3    H2 9091   6.106   2.970   1.982 -1.2276  1.0197  0.1645
 3029TIP3   OH2 9092   4.151   1.625   1.423  0.7353 -0.4472  0.6132
 3029TIP3    H1 9093   4.127   1.535   1.401 -1.7262  0.0788  0.8465
 3029TIP3    H2 9094   4.221   1.647   1.362 -1.0010 -1.3940 -1.8775
 3030TIP3   OH2 9095   1.812   0.500   5.132  0.1512 -0.2413 -0.4244
 3030TIP3    H1 9096   1.861   0.579   5.110 -0.5889 -0.2989 -2.6174
 3030TIP3    H2 9097   1.875   0.428   5.123  0.1366 -0.1470 -1.4735
 3031TIP3   OH2 9098   5.464   0.101   4.854 -0.0244 -0.3092 -0.3529
 3031TIP3    H1 9099   5.387   0.130   4.805 -0.4848 -0.0523  0.5163
 3031TIP3    H2 9100   5.535   0.105   4.790 -0.2970  1.5965 -0.5850
 3032TIP3   OH2 9101   0.930   1.650   2.012  0.3148 -0.1799  0.1415
 3032TIP3    H1 9102   0.992   1.700   1.959  0.7402 -0.7867  0.0591
 3032TIP3    H2 9103   0.975   1.568   2.031 -0.7951 -1.0050 -0.6766
 3033TIP3   OH2 9104   5.559   2.224   4.197 -0.2363  0.1537 -0.1772
 3033TIP3    H1 9105   5.533   2.248   4.108  0.2104  0.0282 -0.3417
 3033TIP3    H2 9106   5.646   2.186   4.188  0.8826  2.3223  0.5810
 3034TIP3   OH2 9107   3.988   0.504   2.709  0.0494 -0.0124 -0.2122
 3034TIP3    H1 9108   3.957   0.414   2.715  0.3181 -0.0424  1.0120
 3034TIP3    H2 9109   4.024   0.511   2.620 -2.1927 -0.3527 -1.1991
 3035TIP3   OH2 9110   6.075   2.120   0.016  0.3229  0.3304 -0.2422
 3035TIP3    H1 9111   6.100   2.028   0.029  0.7401  0.4630 -0.0715
 3035TIP3    H2 9112   6.005   2.135   0.081 -1.5705 -0.5577 -1.9740
 3036TIP3   OH2 9113   2.720   3.643   3.715 -0.2678 -0.6297 -0.0797
 3036TIP3    H1 9114   2.652   3.651   3.649  0.1970  1.1168 -0.4012
 3036TIP3    H2 9115   2.676   3.662   3.798 -0.1492  0.7796 -0.3184
 3037TIP3   OH2 9116   2.049   4.613   0.542 -0.1200  0.1520 -0.6016
 3037TIP3    H1 9117   2.092   4.552   0.482 -1.4826 -2.1145  0.6210
 3037TIP3    H2 9118   2.072   4.581   0.629 -1.6254  0.8341  0.0740
 3038TIP3   OH2 9119   0.839   3.390   0.843 -0.1961  0.3217  0.2910
 3038TIP3    H1 9120   0.917   3.414   0.794  0.3845 -0.3175  0.8803
 3038TIP3    H2 9121   0.799   3.474   0.867  0.5828  0.6625  0.4213
 3039TIP3   OH2 9122   1.585   1.739   2.975  0.1429 -0.3612  0.0487
 3039TIP3    H1 9123   1.589   1.679   3.049 -0.7995 -0.4658  0.0320
 3039TIP3    H2 9124   1.673   1.776   2.968  0.9505 -2.2655 -0.3932
 3040TIP3   OH2 9125   4.671   3.495   2.369  0.0679  0.3036 -1.0155
 3040TIP3    H1 9126   4.698   3.584   2.345 -1.0190  0.9712  0.1189
 3040TIP3    H2 9127   4.687   3.490   2.463  1.1768 -1.1093 -1.2583
 3041TIP3   OH2 9128   1.412   1.869   0.702  0.4521 -0.1278  0.4733
 3041TIP3    H1 9129   1.413   1.962   0.723  0.0869  0.3052 -1.2636
 3041TIP3    H2 9130   1.473   1.859   0.629  0.1035 -1.1437  0.2893
 3042TIP3   OH2 9131   5.179   1.586   5.151  0.0858 -0.3638 -0.6801
 3042TIP3    H1 9132   5.259   1.578   5.099  0.3555  0.0166 -0.3265
 3042TIP3    H2 9133   5.163   1.680   5.157  2.5685  0.0648  3.6421
 3043TIP3   OH2 9134   3.393   5.232   2.847 -0.4560 -0.0137 -0.6017
 3043TIP3    H1 9135   3.405   5.321   2.816  1.2467  0.1373  0.3646
 3043TIP3    H2 9136   3.457   5.222   2.917 -1.6059 -1.5274  0.3115
 3044TIP3   OH2 9137   2.314   1.784   3.651 -0.7607 -0.6678  0.2253
 3044TIP3    H1 9138   2.371   1.860   3.663 -1.1335 -0.3151 -0.2360
 3044TIP3    H2 9139   2.291   1.757   3.740  1.8863 -2.1750  0.5943
 3045TIP3   OH2 9140   5.170   4.672   0.837  0.2451  0.0562 -0.3862
 3045TIP3    H1 9141   5.236   4.637   0.897 -0.4977  0.4596  0.7012
 3045TIP3    H2 9142   5.089   4.627   0.863  0.0062 -0.1215 -1.4148
 3046TIP3   OH2 9143   4.009   3.582   2.745 -0.7579  0.1502  0.6874
 3046TIP3    H1 9144   3.959   3.519   2.693  1.0327 -0.6830 -0.1152
 3046TIP3    H2 9145   4.014   3.542   2.832 -3.9216  1.6375  1.6859
 3047TIP3   OH2 9146   4.998   4.064   4.850  0.0773 -0.0817 -0.5978
 3047TIP3    H1 9147   5.036   4.033   4.767  0.9797 -0.9409  0.1132
 3047TIP3    H2 9148   5.052   4.139   4.874 -0.2586  0.2398 -0.8436
 3048TIP3   OH2 9149   3.943   3.697   0.561  0.1574  0.1745  0.5045
 3048TIP3    H1 9150   3.881   3.698   0.488  1.3194 -0.8202 -0.5330
 3048TIP3    H2 9151   3.890   3.669   0.636 -0.6499 -0.7557 -0.3704
 3049TIP3   OH2 9152   4.646   4.336   1.349 -0.6180  0.6052  0.0886
 3049TIP3    H1 9153   4.560   4.308   1.381 -0.6275  0.9503  0.3725
 3049TIP3    H2 9154   4.627   4.387   1.271 -0.5590 -0.7143 -0.8145
 3050TIP3   OH2 9155   0.423   4.142   0.674 -0.5592 -0.1205 -0.5490
 3050TIP3    H1 9156   0.509   4.168   0.641  0.1433  0.8243  1.7564
 3050TIP3    H2 9157   0.360   4.181   0.614  0.6155  1.0355 -1.0603
 3051TIP3   OH2 9158   0.103   4.005   2.115 -0.1758  0.4889 -0.3129
 3051TIP3    H1 9159   0.113   4.034   2.025 -3.6492 -1.1251 -1.3678
 3051TIP3    H2 9160   0.039   4.065   2.153  0.3158  0.3875  0.7077
 3052TIP3   OH2 9161   2.011   5.219   4.035 -0.5830 -0.4485 -0.3762
 3052TIP3    H1 9162   1.978   5.155   4.098 -0.6875 -0.8647 -0.8466
 3052TIP3    H2 9163   2.098   5.242   4.068 -1.4060  0.8572  1.0142
 3053TIP3   OH2 9164   1.580   4.805   2.735  0.1714  0.5197 -0.2982
 3053TIP3    H1 9165   1.584   4.899   2.751  1.9784  0.5352 -0.6760
 3053TIP3    H2 9166   1.614   4.766   2.815  0.8790  0.2722 -0.7048
 3054TIP3   OH2 9167   2.433   5.710   0.838 -0.0360  0.3591  0.3115
 3054TIP3    H1 9168   2.462   5.619   0.838  0.7350  0.5891 -0.6817
 3054TIP3    H2 9169   2.510   5.761   0.813 -0.0455  1.4508  2.3148
 3055TIP3   OH2 9170   0.228   4.901   1.369 -0.1262 -0.0647  0.0793
 3055TIP3    H1 9171   0.254   4.883   1.279 -0.4257  1.0607 -0.2524
 3055TIP3    H2 9172   0.293   4.965   1.400  0.9120 -1.5955  1.2033
 3056TIP3   OH2 9173   3.851   0.412   2.348  0.5762 -0.0065  0.2281
 3056TIP3    H1 9174   3.770   0.424   2.298  0.3584  1.5725  0.8889
 3056TIP3    H2 9175   3.896   0.497   2.341  2.1187 -0.8079 -0.0071
 3057TIP3   OH2 9176   5.097   3.792   0.373 -0.3126  0.1510  0.1171
 3057TIP3    H1 9177   5.125   3.839   0.294  0.4331  0.6766  0.6934
 3057TIP3    H2 9178   5.136   3.705   0.364  0.2593  0.3973  0.1858
 3058TIP3   OH2 9179   2.593   0.727   1.603  0.2529 -0.4917 -0.2582
 3058TIP3    H1 9180   2.679   0.769   1.597  0.2322 -0.5520 -4.9057
 3058TIP3    H2 9181   2.610   0.634   1.584 -0.6636 -0.8851  0.7339
 3059TIP3   OH2 9182   1.097   2.672   4.363  0.6288 -0.0326 -0.1441
 3059TIP3    H1 9183   1.026   2.735   4.376  1.4231  1.6210 -3.1401
 3059TIP3    H2 9184   1.177   2.719   4.386  1.0833 -0.6074 -0.5023
 3060TIP3   OH2 9185   2.795   0.745   3.265 -0.4067 -0.3130 -0.2709
 3060TIP3    H1 9186   2.874   0.796   3.245 -0.3975 -0.5793 -0.9352
 3060TIP3    H2 9187   2.723   0.795   3.226 -0.4015 -0.7766 -0.8961
 3061TIP3   OH2 9188   0.492   0.058   0.363 -0.0525  0.2421 -0.3270
 3061TIP3    H1 9189   0.436   0.080   0.437  0.1771  1.4060 -0.4777
 3061TIP3    H2 9190   0.505  -0.037   0.370 -0.1180  0.3188  1.0479
 3062TIP3   OH2 9191   4.784   2.735   4.255  0.0271  0.2094  0.3926
 3062TIP3    H1 9192   4.726   2.734   4.331 -1.3933 -0.7754 -0.6451
 3062TIP3    H2 9193   4.806   2.644   4.240 -0.4446  0.2854 -0.8922
 3063TIP3   OH2 9194   1.184   3.178   2.982  0.1664  0.2349  0.2965
 3063TIP3    H1 9195   1.194   3.198   2.889  0.6908  1.1398  0.5307
 3063TIP3    H2 9196   1.125   3.103   2.985 -1.0751  1.1242 -0.7094
 3064TIP3   OH2 9197   1.503   3.765   4.422  0.0122 -0.5353 -0.2786
 3064TIP3    H1 9198   1.409   3.779   4.406  0.2418  0.4907 -0.7223
 3064TIP3    H2 9199   1.534   3.717   4.345  0.3087  1.0610 -1.1784
 3065TIP3   OH2 9200   1.598   0.059   2.295 -0.0409 -0.2368  0.1571
 3065TIP3    H1 9201   1.515   0.047   2.341  0.1154 -0.2533  0.4371
 3065TIP3    H2 9202   1.598  -0.007   2.226 -0.2183 -0.2988  0.2171
 3066TIP3   OH2 9203   3.600   3.874   0.425  0.2074  0.2037 -0.5420
 3066TIP3    H1 9204   3.588   3.893   0.331 -0.7021 -1.3025 -0.7632
 3066TIP3    H2 9205   3.514   3.844   0.454  1.2724 -2.6883 -0.0771
 3067TIP3   OH2 9206   3.338   0.625   1.113 -0.7000 -0.0028 -0.4075
 3067TIP3    H1 9207   3.319   0.532   1.108 -0.4853 -0.0291 -0.7543
 3067TIP3    H2 9208   3.418   0.631   1.164 -0.1129 -0.0910 -1.2899
 3068TIP3   OH2 9209   2.375   0.840   1.546 -0.3981  0.0521 -0.3852
 3068TIP3    H1 9210   2.459   0.806   1.575 -0.6099 -0.4191 -0.3285
 3068TIP3    H2 9211   2.331   0.766   1.505 -0.6848  0.3575 -0.6434
 3069TIP3   OH2 9212   2.571   0.356   3.659  0.0419  0.2817 -0.4304
 3069TIP3    H1 9213   2.581   0.268   3.697  0.6428  0.3203 -0.4849
 3069TIP3    H2 9214   2.660   0.380   3.633 -0.6027 -0.8063 -4.2742
 3070TIP3   OH2 9215   3.456   0.769   4.981 -0.3472 -0.0063 -0.1562
 3070TIP3    H1 9216   3.480   0.859   4.959 -0.4788 -0.2924 -1.5608
 3070TIP3    H2 9217   3.466   0.764   5.076  0.1242  1.3496 -0.1145
 3071TIP3   OH2 9218   3.178   4.472   4.603 -0.1290 -0.1409 -0.2231
 3071TIP3    H1 9219   3.149   4.472   4.694 -0.1871  2.4282 -0.1576
 3071TIP3    H2 9220   3.257   4.418   4.602  0.5071  0.6682  1.6131
 3072TIP3   OH2 9221   2.025   5.691   4.651 -0.0629 -0.0991  0.2156
 3072TIP3    H1 9222   2.014   5.622   4.717  3.6785 -1.1861 -0.0356
 3072TIP3    H2 9223   1.994   5.652   4.570 -1.7267  0.0749  0.7338
 3073TIP3   OH2 9224   5.694   2.574   4.887  0.0812 -0.3868  0.2553
 3073TIP3    H1 9225   5.705   2.626   4.807  1.1056  0.9431  1.2318
 3073TIP3    H2 9226   5.600   2.556   4.890  0.1718 -1.6608 -1.9451
 3074TIP3   OH2 9227   2.897   5.093   1.177 -0.1887 -0.7237  0.0634
 3074TIP3    H1 9228   2.977   5.061   1.135  0.3808 -0.6243  1.0365
 3074TIP3    H2 9229   2.831   5.093   1.108  0.4895 -1.4410 -0.5942
 3075TIP3   OH2 9230   5.971   1.874   2.127 -0.5932 -0.5438 -0.0045
 3075TIP3    H1 9231   5.988   1.968   2.128  1.2511 -0.8309  0.7139
 3075TIP3    H2 9232   5.915   1.859   2.204  0.1582 -0.1728  0.6336
 3076TIP3   OH2 9233   2.725   1.104   2.580  0.2933  0.2020  0.5825
 3076TIP3    H1 9234   2.744   1.075   2.670  1.0678 -0.8309  0.1066
 3076TIP3    H2 9235   2.808   1.095   2.534 -0.6095 -1.6416 -0.8398
 3077TIP3   OH2 9236   3.193   0.511   2.410  0.7133  0.3917  0.1268
 3077TIP3    H1 9237   3.211   0.425   2.372  0.6111  0.3655  0.1366
 3077TIP3    H2 9238   3.104   0.503   2.445  1.9226 -0.6595  3.3350
 3078TIP3   OH2 9239   3.468   3.288   4.193 -0.1733  0.0424 -0.2455
 3078TIP3    H1 9240   3.497   3.197   4.207  1.7141  0.7080  0.5097
 3078TIP3    H2 9241   3.548   3.334   4.167 -1.1865  1.4295 -1.0000
 3079TIP3   OH2 9242   0.420   4.346   5.007  0.5207  0.2450 -0.2069
 3079TIP3    H1 9243   0.482   4.346   5.080 -0.4097  1.6193  0.6437
 3079TIP3    H2 9244   0.455   4.410   4.945  0.9855 -0.4614 -0.6810
 3080TIP3   OH2 9245   4.013   5.126   0.127  0.3937 -0.1591  0.0715
 3080TIP3    H1 9246   3.922   5.115   0.156 -0.6487  2.2231 -2.0232
 3080TIP3    H2 9247   4.040   5.210   0.163  1.1251  0.0350 -0.8935
 3081TIP3   OH2 9248   5.470   4.659   0.676  0.3555 -0.0590  0.1407
 3081TIP3    H1 9249   5.454   4.730   0.738 -0.5598 -0.4074  0.3199
 3081TIP3    H2 9250   5.497   4.585   0.731 -0.5002 -0.3812  0.1396
 3082TIP3   OH2 9251   4.906   4.080   4.260 -0.2506  0.1624 -0.3390
 3082TIP3    H1 9252   4.950   3.997   4.279 -1.3404 -0.1003  1.3186
 3082TIP3    H2 9253   4.813   4.058   4.262 -0.5447  0.8352 -3.0656
 3083TIP3   OH2 9254   5.691   4.075   0.663 -0.4065 -0.3241 -0.5391
 3083TIP3    H1 9255   5.761   4.015   0.637 -0.4249  0.2211 -1.9463
 3083TIP3    H2 9256   5.722   4.116   0.743 -0.3942 -2.1899  0.4734
 3084TIP3   OH2 9257   0.634   5.172   4.747 -0.0134  0.1358  0.4419
 3084TIP3    H1 9258   0.675   5.163   4.834  3.3616  1.3198 -0.8470
 3084TIP3    H2 9259   0.579   5.250   4.754  1.7192  1.3542  1.0761
 3085TIP3   OH2 9260   3.477   1.134   2.412 -0.0129  0.8123  0.0737
 3085TIP3    H1 9261   3.453   1.226   2.401  1.8345  1.3962  0.6123
 3085TIP3    H2 9262   3.565   1.127   2.375  0.7658 -0.2222  1.9855
 3086TIP3   OH2 9263   5.448   5.001   2.712 -0.5402 -0.0097 -0.2779
 3086TIP3    H1 9264   5.389   5.065   2.670 -0.4087 -0.6321 -1.4544
 3086TIP3    H2 9265   5.391   4.952   2.771 -1.2411 -0.6559 -1.4594
 3087TIP3   OH2 9266   5.575   4.489   0.863 -0.5596 -0.1127  0.0978
 3087TIP3    H1 9267   5.525   4.407   0.859 -0.5026 -0.1821  0.6673
 3087TIP3    H2 9268   5.649   4.469   0.921 -0.7206  0.4302  0.4980
 3088TIP3   OH2 9269   5.473   2.047   1.170  0.2896  0.0992  0.6817
 3088TIP3    H1 9270   5.423   2.078   1.246 -2.1203  0.3940 -0.9271
 3088TIP3    H2 9271   5.476   2.121   1.111  0.3735 -0.7114 -0.3536
 3089TIP3   OH2 9272   0.469   4.568   4.829  0.0359  0.0136  0.0993
 3089TIP3    H1 9273   0.425   4.534   4.751 -1.7420 -1.7589  1.7584
 3089TIP3    H2 9274   0.561   4.547   4.815 -0.2440 -0.3122 -1.4791
 3090TIP3   OH2 9275   2.400   3.904   4.350 -0.0139 -0.1017 -0.6085
 3090TIP3    H1 9276   2.333   3.858   4.299 -1.2783  0.7220  0.2504
 3090TIP3    H2 9277   2.355   3.929   4.431  1.7988 -0.9582  0.7296
 3091TIP3   OH2 9278   3.380   1.040   3.646  0.0335 -0.5402  0.2023
 3091TIP3    H1 9279   3.334   0.966   3.606 -1.5203  1.2321 -1.4780
 3091TIP3    H2 9280   3.341   1.117   3.606  0.7762  1.2779  2.7441
 3092TIP3   OH2 9281   3.198   0.467   1.714  0.3093 -0.3308 -0.2903
 3092TIP3    H1 9282   3.138   0.411   1.664  1.1397 -1.2186 -0.3234
 3092TIP3    H2 9283   3.166   0.556   1.699 -1.6407 -0.8350  0.5548
 3093TIP3   OH2 9284   5.019   1.131   0.169  0.0779  0.4881  0.7389
 3093TIP3    H1 9285   4.927   1.121   0.193  0.6015 -4.2457  1.8346
 3093TIP3    H2 9286   5.060   1.169   0.246 -0.8579  2.8431  0.1638
 3094TIP3   OH2 9287   2.090   3.987   5.055  0.4361 -0.5774  0.3874
 3094TIP3    H1 9288   2.044   4.068   5.077  0.1529 -0.4964 -0.4815
 3094TIP3    H2 9289   2.119   3.999   4.964  1.2460 -1.0563  0.5667
 3095TIP3   OH2 9290   1.527   2.656   1.037 -0.2700  0.1044 -0.2588
 3095TIP3    H1 9291   1.593   2.615   0.982 -0.0022 -2.9272  2.0401
 3095TIP3    H2 9292   1.573   2.727   1.082  0.4890  0.1929 -1.1581
 3096TIP3   OH2 9293   3.793   2.127   2.238 -0.7397  0.3159  0.0319
 3096TIP3    H1 9294   3.888   2.114   2.240 -0.6548  0.9870  1.1311
 3096TIP3    H2 9295   3.758   2.042   2.210  0.1908  0.1471 -0.6506
 3097TIP3   OH2 9296   3.293   4.709   0.619 -0.0026  0.0276 -0.4547
 3097TIP3    H1 9297   3.338   4.726   0.702 -2.0630  0.4451  0.6251
 3097TIP3    H2 9298   3.290   4.794   0.576  1.5578 -0.2888 -1.2721
 3098TIP3   OH2 9299   0.241   4.375   2.118  0.0304  0.1627 -0.4466
 3098TIP3    H1 9300   0.149   4.384   2.144 -0.7289 -3.9706 -0.9876
 3098TIP3    H2 9301   0.241   4.396   2.024 -0.1588  1.0222 -0.2616
 3099TIP3   OH2 9302   5.499   4.761   1.974  1.1740 -0.1128  0.3791
 3099TIP3    H1 9303   5.500   4.725   1.886  0.7797 -1.3517  0.8592
 3099TIP3    H2 9304   5.527   4.852   1.963 -0.9319  0.4261 -1.3080
 3100TIP3   OH2 9305   4.810   1.066   2.007 -0.0045 -0.3057 -0.0882
 3100TIP3    H1 9306   4.804   1.130   2.078 -0.3207 -0.2604 -0.1507
 3100TIP3    H2 9307   4.863   0.995   2.043 -1.2280 -0.8806  0.6656
 3101TIP3   OH2 9308   0.285   5.697   1.108 -0.4534 -0.1317  0.2081
 3101TIP3    H1 9309   0.274   5.764   1.175  1.0880 -0.4439  0.8222
 3101TIP3    H2 9310   0.363   5.648   1.135  1.9474  1.4091 -3.0976
 3102TIP3   OH2 9311   3.979   3.018   4.866  0.0742 -0.1947 -0.5129
 3102TIP3    H1 9312   4.022   3.077   4.804 -0.8972 -0.1763 -1.1929
 3102TIP3    H2 9313   3.887   3.044   4.864  0.2052  0.6852  1.9647
 3103TIP3   OH2 9314   0.214   1.185   0.645  0.2530  0.3194  0.2270
 3103TIP3    H1 9315   0.198   1.199   0.552  1.4380  0.8907  0.0956
 3103TIP3    H2 9316   0.309   1.187   0.654  0.2054 -0.8519  1.2858
 3104TIP3   OH2 9317   4.942   1.424   2.982 -0.0560 -0.0804  0.2137
 3104TIP3    H1 9318   4.867   1.449   3.036 -1.3189  0.0921 -1.5096
 3104TIP3    H2 9319   4.954   1.331   2.997 -0.5569 -0.0827  0.6036
 3105TIP3   OH2 9320   2.858   0.516   1.878  0.1590 -0.3487  0.1394
 3105TIP3    H1 9321   2.859   0.523   1.973 -0.0657 -0.5973  0.1594
 3105TIP3    H2 9322   2.868   0.423   1.860  1.8515 -0.1494 -0.1161
 3106TIP3   OH2 9323   3.966   4.692   1.402 -0.5980  0.2153 -0.1036
 3106TIP3    H1 9324   3.882   4.730   1.428 -0.1918  0.4871  0.8718
 3106TIP3    H2 9325   3.995   4.642   1.478  0.2593  0.3560 -0.3223
 3107TIP3   OH2 9326   3.736   5.056   4.414  0.3776  0.7605  0.3268
 3107TIP3    H1 9327   3.686   4.983   4.378 -0.5277  1.2186  0.6087
 3107TIP3    H2 9328   3.810   5.015   4.460 -0.0630  0.0275  0.3946
 3108TIP3   OH2 9329   4.473   0.740   3.463  0.6124 -0.2691 -0.0979
 3108TIP3    H1 9330   4.537   0.756   3.531  0.7049 -0.8605 -0.0381
 3108TIP3    H2 9331   4.515   0.677   3.404 -0.4152 -1.7657  0.6963
 3109TIP3   OH2 9332   0.521   0.538   1.130  0.2112  0.2408 -0.9340
 3109TIP3    H1 9333   0.504   0.551   1.036 -1.3616  1.6772 -0.5006
 3109TIP3    H2 9334   0.451   0.587   1.174 -0.1489 -1.8785  1.0019
 3110TIP3   OH2 9335   1.378   0.609   2.385  0.3945  0.1375 -0.0176
 3110TIP3    H1 9336   1.469   0.608   2.415  0.6940  0.1270 -0.8878
 3110TIP3    H2 9337   1.366   0.696   2.347 -0.5428  0.8219  1.7689
 3111TIP3   OH2 9338   0.649   5.730   1.107  0.1430  0.5361  0.0906
 3111TIP3    H1 9339   0.675   5.775   1.187 -0.8882 -1.6895  1.7896
 3111TIP3    H2 9340   0.731   5.700   1.069  0.7190  2.3815 -0.2349
 3112TIP3   OH2 9341   1.366   0.972   1.094  0.2876 -0.0640 -0.4040
 3112TIP3    H1 9342   1.343   1.022   1.172  0.0673 -0.6727 -0.0659
 3112TIP3    H2 9343   1.460   0.984   1.084  0.8194 -2.0491  1.4834
 3113TIP3   OH2 9344   5.625   5.912   3.281  0.5065  0.7740  0.4027
 3113TIP3    H1 9345   5.709   5.956   3.272  1.6911 -1.5275 -0.8184
 3113TIP3    H2 9346   5.580   5.926   3.198 -0.3790  2.0007  1.0521
 3114TIP3   OH2 9347   2.139   2.902   2.865  0.1159  0.2277 -0.2277
 3114TIP3    H1 9348   2.212   2.847   2.895 -0.7365 -1.0001 -0.3251
 3114TIP3    H2 9349   2.083   2.910   2.942 -1.4121 -1.8264 -1.0430
 3115TIP3   OH2 9350   6.240   4.150   1.354 -0.3089 -0.1474  0.1822
 3115TIP3    H1 9351   6.234   4.107   1.440  0.9029 -0.8722 -0.0737
 3115TIP3    H2 9352   6.284   4.233   1.371  1.1147 -0.8563  0.1079
 3116TIP3   OH2 9353   5.331   0.787   1.376 -0.8400 -0.5190  0.7085
 3116TIP3    H1 9354   5.399   0.735   1.419  0.5023  1.0366  0.5632
 3116TIP3    H2 9355   5.306   0.852   1.442 -0.7214  0.1873  0.0615
 3117TIP3   OH2 9356   0.157   0.266   1.196 -0.3146 -0.1244  0.1315
 3117TIP3    H1 9357   0.243   0.224   1.195 -0.6111 -0.7273 -0.7735
 3117TIP3    H2 9358   0.176   0.358   1.212  0.4625 -0.3334  0.4798
 3118TIP3   OH2 9359   0.977   5.323   1.612 -0.4897  0.3597 -0.0926
 3118TIP3    H1 9360   1.059   5.276   1.597 -2.1729 -2.0452 -2.7181
 3118TIP3    H2 9361   0.986   5.403   1.558 -0.2794 -0.4656 -1.3313
 3119TIP3   OH2 9362   4.766   5.247   2.218 -0.4926  0.5119  0.3044
 3119TIP3    H1 9363   4.814   5.295   2.150  0.4650 -0.8296 -0.0117
 3119TIP3    H2 9364   4.835   5.215   2.277 -1.1211 -0.3167  0.6034
 3120TIP3   OH2 9365   1.660   4.148   1.555  0.3631  0.4114  0.3469
 3120TIP3    H1 9366   1.624   4.147   1.467  1.8890 -0.8850 -0.3282
 3120TIP3    H2 9367   1.731   4.212   1.552  1.0501 -0.3250  0.3161
 3121TIP3   OH2 9368   6.124   5.275   3.420  0.2517  0.2472  0.0812
 3121TIP3    H1 9369   6.062   5.233   3.479  1.4539 -0.3795  0.9373
 3121TIP3    H2 9370   6.102   5.240   3.333 -0.4477 -0.1233  0.4059
 3122TIP3   OH2 9371   4.052   0.133   1.318 -0.4085 -0.5086 -0.2698
 3122TIP3    H1 9372   4.000   0.098   1.390 -0.6493 -0.8508 -0.6005
 3122TIP3    H2 9373   4.059   0.227   1.335  0.2524 -0.7180  0.6395
 3123TIP3   OH2 9374   3.969   1.110   4.118  0.2853  0.2552  0.6032
 3123TIP3    H1 9375   4.021   1.051   4.062 -1.2598  0.0145 -0.6555
 3123TIP3    H2 9376   4.033   1.171   4.154  1.3293  0.6430 -1.7450
 3124TIP3   OH2 9377   1.795   0.116   0.351 -0.0710  0.2945  0.3887
 3124TIP3    H1 9378   1.857   0.117   0.279  0.3638 -1.6699  0.6753
 3124TIP3    H2 9379   1.754   0.030   0.346 -1.8236  1.0399  1.0246
 3125TIP3   OH2 9380   1.764   5.271   3.762  0.0240 -0.3435  0.1045
 3125TIP3    H1 9381   1.845   5.222   3.752 -0.0214 -0.6001  0.9266
 3125TIP3    H2 9382   1.725   5.237   3.842 -1.2877 -0.7757 -0.6992
 3126TIP3   OH2 9383   4.462   3.237   5.111 -0.3360  0.2613 -0.2380
 3126TIP3    H1 9384   4.526   3.166   5.112  0.7981  1.0995 -2.9037
 3126TIP3    H2 9385   4.432   3.244   5.202  1.7530 -1.5922  0.6943
 3127TIP3   OH2 9386   5.769   5.891   2.019 -0.6860 -0.3018 -0.0721
 3127TIP3    H1 9387   5.818   5.937   1.951  0.4825 -1.7663 -0.2906
 3127TIP3    H2 9388   5.677   5.903   1.996 -0.3308  0.0311 -1.3718
 3128TIP3   OH2 9389   1.276   4.372   3.393  1.2641  0.4465 -0.0787
 3128TIP3    H1 9390   1.197   4.362   3.340  0.6909 -3.3043  1.1628
 3128TIP3    H2 9391   1.344   4.395   3.330  0.3342 -2.2932 -2.3232
 3129TIP3   OH2 9392   3.325   2.145   0.565  0.2518 -0.0623  0.0294
 3129TIP3    H1 9393   3.308   2.148   0.659 -0.2044 -0.1362 -0.0494
 3129TIP3    H2 9394   3.375   2.064   0.552 -1.0080 -0.8766  0.0102
 3130TIP3   OH2 9395   0.939   4.755   1.506 -0.6800  0.0316 -0.4067
 3130TIP3    H1 9396   0.983   4.819   1.450 -0.4241 -1.5443 -2.0770
 3130TIP3    H2 9397   1.007   4.728   1.569 -0.5818  0.8494 -0.1547
 3131TIP3   OH2 9398   1.820   5.220   4.257 -0.3923 -0.1275 -0.5501
 3131TIP3    H1 9399   1.807   5.314   4.270  0.2830  0.3568 -2.8594
 3131TIP3    H2 9400   1.743   5.192   4.208 -0.0207 -0.5027 -0.9301
 3132TIP3   OH2 9401   2.712   3.969   3.655 -0.3440 -1.0512 -0.4552
 3132TIP3    H1 9402   2.738   3.887   3.697  1.4387 -0.3027  0.0088
 3132TIP3    H2 9403   2.718   3.952   3.562  0.3797 -1.3450 -0.3550
 3133TIP3   OH2 9404   2.478   5.324   3.032  0.1221 -0.3137 -0.0492
 3133TIP3    H1 9405   2.471   5.412   2.996 -1.4115 -1.1106 -1.8853
 3133TIP3    H2 9406   2.463   5.334   3.125 -0.3624  1.3144 -0.2842
 3134TIP3   OH2 9407   0.942   5.867   2.673  0.3195 -0.5043  0.3358
 3134TIP3    H1 9408   0.865   5.922   2.661 -0.1894 -1.1388  0.6598
 3134TIP3    H2 9409   0.989   5.872   2.590 -0.6078 -0.9265 -0.2247
 3135TIP3   OH2 9410   5.734   0.831   1.412 -0.3525 -0.3119  0.0426
 3135TIP3    H1 9411   5.693   0.848   1.328 -0.0369 -0.8115 -0.2207
 3135TIP3    H2 9412   5.739   0.917   1.455  0.2798  0.1007 -0.8162
 3136TIP3   OH2 9413   1.840   2.035   4.103 -0.8604 -0.0362 -0.1131
 3136TIP3    H1 9414   1.897   1.964   4.074 -0.3857  0.4233 -0.3084
 3136TIP3    H2 9415   1.800   2.002   4.184  1.5050  0.5550  1.3646
 3137TIP3   OH2 9416   5.615   5.321   0.015  0.2361  0.4184  0.0835
 3137TIP3    H1 9417   5.686   5.320   0.079 -0.5371  0.9951  0.9792
 3137TIP3    H2 9418   5.641   5.257  -0.051  0.9093 -0.4307  1.1421
 3138TIP3   OH2 9419   6.021   3.987   3.491 -0.0733  0.6306  0.3561
 3138TIP3    H1 9420   6.023   3.973   3.396 -0.8296 -0.0517  0.4317
 3138TIP3    H2 9421   6.090   3.930   3.525 -1.6286 -1.2910  0.4479
 3139TIP3   OH2 9422   5.343   5.832   3.789 -0.2318  0.1369 -0.3521
 3139TIP3    H1 9423   5.431   5.862   3.765  0.1886  0.4973  1.4531
 3139TIP3    H2 9424   5.356   5.778   3.867 -1.6824  0.8713  0.4501
 3140TIP3   OH2 9425   0.650   5.817   0.143 -0.3347  0.2842  0.2068
 3140TIP3    H1 9426   0.718   5.872   0.183  0.7303 -0.6161 -0.3059
 3140TIP3    H2 9427   0.640   5.852   0.055  1.1043 -0.9189 -0.4897
 3141TIP3   OH2 9428   1.616   1.046   3.921  0.1104  0.7570 -0.2699
 3141TIP3    H1 9429   1.644   0.980   3.858 -2.8164 -0.8544 -0.0450
 3141TIP3    H2 9430   1.695   1.067   3.970  1.9015  0.1136 -2.7053
 3142TIP3   OH2 9431   1.567   4.751   4.945 -0.3549 -0.1139 -0.8832
 3142TIP3    H1 9432   1.618   4.797   5.012 -0.3621  0.3355 -1.1891
 3142TIP3    H2 9433   1.476   4.763   4.971 -0.3924  0.6710 -1.3683
 3143TIP3   OH2 9434   4.669   2.159   2.743  0.7322 -0.3986  0.2765
 3143TIP3    H1 9435   4.705   2.181   2.657  0.9075  0.5722  0.5948
 3143TIP3    H2 9436   4.745   2.142   2.798  0.8295  2.4531  1.1693
 3144TIP3   OH2 9437   2.579   4.796   3.536 -0.1133 -0.1678  0.2778
 3144TIP3    H1 9438   2.647   4.833   3.591  1.1672 -0.2587 -1.1776
 3144TIP3    H2 9439   2.532   4.735   3.593  0.6586  0.3192  1.4586
 3145TIP3   OH2 9440   5.210   2.757   2.739  0.1090 -0.5638  0.0611
 3145TIP3    H1 9441   5.183   2.680   2.789  0.9515 -0.3318  0.8970
 3145TIP3    H2 9442   5.251   2.721   2.660  3.8339 -1.2120  2.0551
 3146TIP3   OH2 9443   4.177   3.979   3.999 -0.3965 -0.4629  0.2249
 3146TIP3    H1 9444   4.171   3.900   4.053  0.8716 -0.2682  0.6993
 3146TIP3    H2 9445   4.099   3.977   3.944 -0.6081 -1.8182  0.5368
 3147TIP3   OH2 9446   1.206   4.916   3.159 -0.1754 -0.3395  0.0757
 3147TIP3    H1 9447   1.115   4.935   3.136 -0.2529 -0.5181  0.2338
 3147TIP3    H2 9448   1.232   4.988   3.216  0.1468  0.3262 -0.8921
 3148TIP3   OH2 9449   2.603   2.800   3.513 -0.5325 -0.1650 -0.2662
 3148TIP3    H1 9450   2.657   2.822   3.437 -1.1468  2.9890  0.0413
 3148TIP3    H2 9451   2.666   2.774   3.580  0.4703  1.3362 -0.5694
 3149TIP3   OH2 9452   1.608   2.446   2.040  0.7289 -0.2741 -0.6289
 3149TIP3    H1 9453   1.523   2.447   1.996 -1.1825  2.8482  2.6057
 3149TIP3    H2 9454   1.665   2.496   1.982 -0.6446  0.5789 -1.3021
 3150TIP3   OH2 9455   0.322   2.189   1.043  0.5769 -0.5284  0.3701
 3150TIP3    H1 9456   0.293   2.105   1.077 -1.3571 -0.1513 -0.2225
 3150TIP3    H2 9457   0.325   2.177   0.948 -3.5716  1.0146 -0.1646
 3151TIP3   OH2 9458   3.077   1.030   1.710 -0.0209 -0.2058 -0.0921
 3151TIP3    H1 9459   3.158   1.051   1.664 -0.2219  0.4026 -0.1770
 3151TIP3    H2 9460   3.100   1.037   1.803 -0.0807  0.3624 -0.1213
 3152TIP3   OH2 9461   4.322   2.366   3.561 -0.2915  0.0399 -0.0536
 3152TIP3    H1 9462   4.233   2.366   3.594 -0.0809 -0.4021  0.5314
 3152TIP3    H2 9463   4.313   2.356   3.466 -0.9445  2.4780 -0.3085
 3153TIP3   OH2 9464   4.331   5.204   5.068  0.0126  0.2771  0.9558
 3153TIP3    H1 9465   4.252   5.254   5.089  0.8177  1.7717  0.5818
 3153TIP3    H2 9466   4.383   5.207   5.148  1.0991  2.1378  0.2572
 3154TIP3   OH2 9467   2.319   0.526   2.548  0.0624 -0.4243  0.5224
 3154TIP3    H1 9468   2.321   0.505   2.455 -0.1551 -0.9702  0.6417
 3154TIP3    H2 9469   2.408   0.557   2.567  0.9429 -2.9002  0.7231
 3155TIP3   OH2 9470   3.921   0.827   0.775 -0.5838 -0.0176 -0.5470
 3155TIP3    H1 9471   3.953   0.740   0.796  0.3461  0.1711 -1.1315
 3155TIP3    H2 9472   3.827   0.816   0.760 -0.7071 -0.6906  0.5881
 3156TIP3   OH2 9473   2.151   5.238   5.169  0.5377  0.1520 -0.6960
 3156TIP3    H1 9474   2.156   5.331   5.149 -0.2389  0.1648 -0.8655
 3156TIP3    H2 9475   2.076   5.206   5.118 -0.2551 -0.2143  0.6362
 3157TIP3   OH2 9476   3.030   0.669   3.695 -0.3112  0.0301  0.4850
 3157TIP3    H1 9477   3.010   0.578   3.715 -1.6453  0.3748  0.8009
 3157TIP3    H2 9478   2.953   0.718   3.724 -0.3268  1.0778 -1.1468
 3158TIP3   OH2 9479   4.707   5.283   4.884 -0.2828  0.7134 -0.3527
 3158TIP3    H1 9480   4.632   5.291   4.942 -0.2305  0.0987 -0.1908
 3158TIP3    H2 9481   4.781   5.265   4.942 -0.3347 -0.5104 -0.6376
 3159TIP3   OH2 9482   5.931   3.028   0.936  0.2708 -0.2683  0.1072
 3159TIP3    H1 9483   5.956   3.108   0.888  1.3703 -1.9243 -2.2774
 3159TIP3    H2 9484   5.999   3.017   1.002  0.0648  0.7786  0.5147
 3160TIP3   OH2 9485   1.821   2.579   2.832 -0.1469 -0.0534  0.3565
 3160TIP3    H1 9486   1.801   2.657   2.780 -1.8857 -0.0890  0.9216
 3160TIP3    H2 9487   1.884   2.610   2.897  1.6950  0.0922 -1.4009
 3161TIP3   OH2 9488   3.965   3.285   1.871 -0.1759  0.0857 -0.3356
 3161TIP3    H1 9489   3.988   3.231   1.795 -1.3467 -2.3781  0.9423
 3161TIP3    H2 9490   4.001   3.238   1.946 -1.5404  0.8962  0.8836
 3162TIP3   OH2 9491   1.454   1.758   3.773 -0.1341 -0.2737 -0.5343
 3162TIP3    H1 9492   1.490   1.825   3.832 -0.2358 -0.5710 -0.1268
 3162TIP3    H2 9493   1.369   1.793   3.746 -0.2892 -0.3346 -0.1391
 3163TIP3   OH2 9494   0.550   2.120   2.488  0.1087 -0.1608 -0.1831
 3163TIP3    H1 9495   0.459   2.091   2.500  0.0048 -0.7709 -2.0993
 3163TIP3    H2 9496   0.545   2.188   2.422  0.7919  1.8049  1.6906
 3164TIP3   OH2 9497   3.217   2.699   2.840 -0.5602 -0.0776 -0.0647
 3164TIP3    H1 9498   3.301   2.674   2.879  1.0361  0.5018 -2.8677
 3164TIP3    H2 9499   3.180   2.763   2.901  0.8133 -0.6745  1.4573
 3165TIP3   OH2 9500   0.712   2.174   4.673  0.2338  0.1466 -0.1267
 3165TIP3    H1 9501   0.756   2.202   4.753  0.8931  0.1626 -0.4867
 3165TIP3    H2 9502   0.777   2.121   4.627 -0.2799 -0.2073 -0.4583
 3166TIP3   OH2 9503   6.232   3.563   3.038 -0.7597  0.0912 -0.0904
 3166TIP3    H1 9504   6.322   3.593   3.025  0.2439 -2.5415  0.0253
 3166TIP3    H2 9505   6.181   3.643   3.049  1.2978  1.7469 -1.6772
 3167TIP3   OH2 9506   6.032   0.301   0.985  0.4436 -0.4306  0.0860
 3167TIP3    H1 9507   5.937   0.292   0.991  0.0450  1.9266 -1.3059
 3167TIP3    H2 9508   6.060   0.328   1.072 -0.3215 -0.1107  0.2383
 3168TIP3   OH2 9509   5.684   1.815   2.765  0.4939 -0.0427  1.1180
 3168TIP3    H1 9510   5.660   1.742   2.822  1.0679 -2.3303 -1.3515
 3168TIP3    H2 9511   5.775   1.796   2.740 -0.0749  0.2191 -1.3485
 3169TIP3   OH2 9512   0.697   3.176   0.256  0.7762 -0.2667  0.1560
 3169TIP3    H1 9513   0.631   3.107   0.252  2.4687 -1.9400 -0.4858
 3169TIP3    H2 9514   0.780   3.129   0.258  1.9859  1.7740  0.2082
 3170TIP3   OH2 9515   4.299   1.043   4.281 -0.0287 -0.4239 -0.1775
 3170TIP3    H1 9516   4.289   1.131   4.317  2.2334 -0.7936  1.5412
 3170TIP3    H2 9517   4.245   0.988   4.338  1.0206 -0.5657  0.6898
 3171TIP3   OH2 9518   1.691   2.494   3.118  0.1686 -0.2996 -0.3209
 3171TIP3    H1 9519   1.774   2.536   3.095  0.3683 -0.6051 -0.1549
 3171TIP3    H2 9520   1.678   2.429   3.049 -0.1124 -0.0071 -0.5461
 3172TIP3   OH2 9521   1.960   5.149   3.434 -0.1622 -0.2792 -0.6853
 3172TIP3    H1 9522   2.021   5.203   3.484 -0.6978  0.7502 -1.1115
 3172TIP3    H2 9523   1.919   5.210   3.372 -0.2985 -1.3065 -1.6463
 3173TIP3   OH2 9524   2.077   2.908   2.486 -0.3310  0.4233  0.1478
 3173TIP3    H1 9525   2.064   2.885   2.577 -0.8117  0.2585  0.0378
 3173TIP3    H2 9526   1.989   2.922   2.451 -0.4253 -2.3850 -1.0532
 3174TIP3   OH2 9527   1.092   5.462   3.223 -0.1891 -0.2997  0.3110
 3174TIP3    H1 9528   1.129   5.389   3.273 -0.1136 -0.8058 -0.4637
 3174TIP3    H2 9529   1.057   5.421   3.144 -1.2252  0.3498  0.4175
 3175TIP3   OH2 9530   2.857   3.220   2.258 -0.7135 -0.5030  0.7026
 3175TIP3    H1 9531   2.794   3.213   2.329 -1.3506 -1.6329  0.0546
 3175TIP3    H2 9532   2.817   3.280   2.195 -0.0530  0.6715  1.3610
 3176TIP3   OH2 9533   3.381   1.035   0.774 -0.4139 -0.0068  0.1599
 3176TIP3    H1 9534   3.318   0.993   0.832 -0.0420  0.6411  1.0569
 3176TIP3    H2 9535   3.416   1.108   0.825 -0.4192  0.8796 -1.0387
 3177TIP3   OH2 9536   1.819   5.939   0.443 -0.1853  0.3925 -0.1992
 3177TIP3    H1 9537   1.909   5.910   0.456 -0.8874 -1.1822  1.5192
 3177TIP3    H2 9538   1.773   5.861   0.413 -1.5393  0.3621  1.7627
 3178TIP3   OH2 9539   1.935   0.837   4.082 -0.1067 -0.1307 -0.5608
 3178TIP3    H1 9540   1.926   0.932   4.087  1.5350  0.0254 -0.1523
 3178TIP3    H2 9541   1.955   0.809   4.172 -0.9797 -0.9347 -0.5893
 3179TIP3   OH2 9542   5.752   2.949   3.280  0.5385  1.1181  0.0431
 3179TIP3    H1 9543   5.813   3.021   3.263  1.2948  0.6751  0.8165
 3179TIP3    H2 9544   5.808   2.872   3.289 -0.2381  0.4973 -0.4090
 3180TIP3   OH2 9545   2.844   3.071   3.517 -0.0622 -0.0535  0.4247
 3180TIP3    H1 9546   2.886   3.112   3.592 -0.0838  2.3223 -0.7555
 3180TIP3    H2 9547   2.753   3.102   3.521 -0.1071 -0.0376 -0.4698
 3181TIP3   OH2 9548   0.541   4.447   0.385 -0.2602 -0.4867  0.2849
 3181TIP3    H1 9549   0.549   4.460   0.291 -2.0361 -4.1801 -0.5366
 3181TIP3    H2 9550   0.631   4.438   0.416  0.3026 -0.2236 -1.2022
 3182TIP3   OH2 9551   1.172   2.442   2.439 -0.3670  0.4143 -0.8544
 3182TIP3    H1 9552   1.156   2.372   2.376 -1.3189 -1.1659  1.0417
 3182TIP3    H2 9553   1.096   2.500   2.430  0.0789  0.8669 -1.9342
 3183TIP3   OH2 9554   1.625   1.634   3.957  0.3043 -0.0059  0.6183
 3183TIP3    H1 9555   1.602   1.543   3.977  1.2460 -0.0667  1.5016
 3183TIP3    H2 9556   1.582   1.652   3.874  0.8793 -1.5817 -0.0586
 3184TIP3   OH2 9557   2.538   3.611   2.272 -0.5215 -0.7531  0.5439
 3184TIP3    H1 9558   2.525   3.523   2.238  0.2532 -1.0874  1.0946
 3184TIP3    H2 9559   2.532   3.601   2.367 -0.4275 -0.2140  0.6093
 3185TIP3   OH2 9560   2.743   3.806   2.697 -0.0320 -0.0679 -0.6718
 3185TIP3    H1 9561   2.737   3.850   2.612  0.0173  0.1917 -0.5413
 3185TIP3    H2 9562   2.837   3.807   2.718  0.1030 -1.2112 -1.1809
 3186TIP3   OH2 9563   3.700   3.865   5.041 -0.1882  0.2147 -0.1255
 3186TIP3    H1 9564   3.743   3.785   5.009 -0.8670  0.7421 -2.6420
 3186TIP3    H2 9565   3.698   3.922   4.964  0.3631  2.7304  1.6068
 3187TIP3   OH2 9566   5.314   1.835   3.714 -0.0973  0.2702 -0.0375
 3187TIP3    H1 9567   5.287   1.808   3.802 -2.3460  1.1229 -0.3866
 3187TIP3    H2 9568   5.319   1.930   3.718  1.1071  0.2480 -0.5178
 3188TIP3   OH2 9569   6.197   0.264   3.837  0.5087  0.8366 -0.3118
 3188TIP3    H1 9570   6.230   0.199   3.775 -2.0705  0.1117 -1.0318
 3188TIP3    H2 9571   6.242   0.243   3.919  1.6312 -0.2035 -1.1545
 3189TIP3   OH2 9572   0.772   0.945   3.416 -0.0339 -0.4805  0.6858
 3189TIP3    H1 9573   0.826   0.867   3.430  1.3901  0.3564  0.0120
 3189TIP3    H2 9574   0.791   1.001   3.492  1.0234  0.3371 -0.1537
 3190TIP3   OH2 9575   0.590   5.476   1.751  1.0063  0.3111  0.1842
 3190TIP3    H1 9576   0.625   5.390   1.775 -3.2126 -2.0919 -1.2231
 3190TIP3    H2 9577   0.603   5.481   1.656  0.0814  0.5942  0.0617
 3191TIP3   OH2 9578   4.532   0.071   1.129 -0.1322  0.0157  1.0020
 3191TIP3    H1 9579   4.515   0.093   1.221  1.0277  2.3354  0.7396
 3191TIP3    H2 9580   4.479  -0.007   1.113 -0.0724 -0.6837  3.7284
 3192TIP3   OH2 9581   2.421   3.114   3.998  0.0750  0.0417 -0.9068
 3192TIP3    H1 9582   2.474   3.053   3.947  1.5911 -0.4389  1.1067
 3192TIP3    H2 9583   2.482   3.185   4.022 -0.1911 -0.3759  1.2078
 3193TIP3   OH2 9584   3.583   3.374   1.136 -0.3723  0.8326  0.1154
 3193TIP3    H1 9585   3.501   3.366   1.086  0.4438  1.2251 -1.3599
 3193TIP3    H2 9586   3.575   3.458   1.181 -0.7410  0.9171 -0.1018
 3194TIP3   OH2 9587   5.716   1.200   3.867  0.0319 -0.4889  0.2594
 3194TIP3    H1 9588   5.640   1.213   3.925 -1.1713 -2.8862 -0.6555
 3194TIP3    H2 9589   5.710   1.272   3.804 -0.9763 -0.1452  0.7277
 3195TIP3   OH2 9590   6.075   3.380   0.491  0.0607 -0.0344  0.1033
 3195TIP3    H1 9591   6.081   3.394   0.396 -1.7808  0.4850  0.0208
 3195TIP3    H2 9592   6.155   3.419   0.526  0.9288 -0.5110 -1.2462
 3196TIP3   OH2 9593   5.861   0.489   0.209  0.2090  0.0273  0.0158
 3196TIP3    H1 9594   5.887   0.399   0.190 -1.5665 -0.3057 -1.0810
 3196TIP3    H2 9595   5.824   0.485   0.297  2.5266  0.2679  1.0772
 3197TIP3   OH2 9596   0.614   3.212   3.033 -0.1961 -0.0280  0.1955
 3197TIP3    H1 9597   0.632   3.306   3.031 -1.2725  0.1762 -0.8423
 3197TIP3    H2 9598   0.519   3.205   3.045 -0.2291 -0.9548 -0.4245
 3198TIP3   OH2 9599   0.051   5.706   1.913  0.1391 -0.0354 -0.0357
 3198TIP3    H1 9600   0.118   5.757   1.958  0.1781 -0.2911  0.2009
 3198TIP3    H2 9601   0.005   5.659   1.983 -0.3917  0.2536 -0.1803
 3199TIP3   OH2 9602   1.985   3.192   2.109  0.3348 -0.7287 -0.3224
 3199TIP3    H1 9603   2.049   3.122   2.098  1.6568  0.2541  0.7004
 3199TIP3    H2 9604   2.030   3.257   2.164 -0.6552  1.1399 -1.5942
 3200TIP3   OH2 9605   4.422   2.282   3.016 -0.4622  0.0738  0.4628
 3200TIP3    H1 9606   4.496   2.224   3.031 -0.3415  0.0330 -0.2703
 3200TIP3    H2 9607   4.452   2.368   3.048  0.1799  0.2220 -0.4894
 3201TIP3   OH2 9608   2.890   3.504   3.477  0.0815 -0.1585  0.3580
 3201TIP3    H1 9609   2.871   3.596   3.463  2.2953  0.3168  0.0767
 3201TIP3    H2 9610   2.807   3.466   3.506 -1.2153  1.6199 -0.8139
 3202TIP3   OH2 9611   0.146   4.999   3.471  0.4301 -0.4839 -0.5862
 3202TIP3    H1 9612   0.145   5.074   3.530  1.4783 -0.6590 -0.3220
 3202TIP3    H2 9613   0.099   5.029   3.392  1.8874  0.8762 -0.9849
 3203TIP3   OH2 9614   5.634   0.349  -0.000  0.5384  0.6549 -0.4959
 3203TIP3    H1 9615   5.690   0.355   0.077  1.8430 -1.3801 -1.1992
 3203TIP3    H2 9616   5.647   0.433  -0.045  1.6403  0.9237  0.2740
 3204TIP3   OH2 9617   0.499   4.242   3.451  0.7654  0.1888 -0.7617
 3204TIP3    H1 9618   0.446   4.317   3.478 -1.0167 -1.4131  0.5260
 3204TIP3    H2 9619   0.495   4.243   3.356 -1.0559  0.5411 -0.7263
 3205TIP3   OH2 9620   5.890   4.591   4.422 -0.1467 -0.6603 -0.1368
 3205TIP3    H1 9621   5.848   4.626   4.500 -2.6947 -1.7385 -0.9157
 3205TIP3    H2 9622   5.950   4.524   4.455 -1.3261 -1.2382  0.9296
 3206TIP3   OH2 9623   1.523   2.308   4.251  0.5463 -0.2036  0.0252
 3206TIP3    H1 9624   1.614   2.333   4.239  0.9353 -1.3565  0.5096
 3206TIP3    H2 9625   1.476   2.355   4.182  1.5307  0.2350 -0.3565
 3207TIP3   OH2 9626   5.936   3.904   1.057  0.0455  0.3117  0.7803
 3207TIP3    H1 9627   5.878   3.862   1.120 -0.4669  2.0999  1.5700
 3207TIP3    H2 9628   5.997   3.955   1.111  0.8732  0.2737 -0.1083
 3208TIP3   OH2 9629   0.823   2.977   1.199  0.0042 -0.5553 -0.4366
 3208TIP3    H1 9630   0.763   2.949   1.130  1.1095  2.2230 -2.7367
 3208TIP3    H2 9631   0.910   2.950   1.168  0.4908  0.4306  0.0168
 3209TIP3   OH2 9632   0.733   2.570   4.496  0.2373  0.6529  0.0949
 3209TIP3    H1 9633   0.680   2.642   4.532 -0.3660 -1.1815  3.2486
 3209TIP3    H2 9634   0.789   2.542   4.569  2.3003 -0.4660 -1.7965
 3210TIP3   OH2 9635   2.024   2.811   3.678  0.0862 -0.4860 -0.4296
 3210TIP3    H1 9636   1.950   2.768   3.635  1.0966 -1.0081 -1.7331
 3210TIP3    H2 9637   1.984   2.878   3.734 -1.4595 -2.2838  0.7237
 3211TIP3   OH2 9638   5.209   3.872   1.982 -0.3336  0.1810  0.3153
 3211TIP3    H1 9639   5.242   3.822   1.907 -0.2976 -0.5829  0.8265
 3211TIP3    H2 9640   5.253   3.833   2.058 -0.3498  0.9642  0.7348
 3212TIP3   OH2 9641   1.732   4.302   3.780  0.1058 -0.5528 -0.2069
 3212TIP3    H1 9642   1.654   4.358   3.781  1.9600  2.3212  3.0769
 3212TIP3    H2 9643   1.711   4.231   3.840 -0.3225 -0.3495 -0.1111
 3213TIP3   OH2 9644   2.678   3.638   0.390  0.1018  0.2586  0.0589
 3213TIP3    H1 9645   2.712   3.571   0.449  0.6453  0.4011 -0.0870
 3213TIP3    H2 9646   2.587   3.647   0.415  0.1171 -0.2649  0.3348
 3214TIP3   OH2 9647   1.744   1.731   4.181 -0.5106 -0.4300 -0.5523
 3214TIP3    H1 9648   1.670   1.786   4.205  0.9108  1.5565 -0.4692
 3214TIP3    H2 9649   1.714   1.683   4.104 -2.4850 -1.1095  0.5802
 3215TIP3   OH2 9650   3.485   3.007   0.533 -0.3535  0.5507 -0.3959
 3215TIP3    H1 9651   3.549   2.936   0.538 -1.8978 -0.8888 -0.1524
 3215TIP3    H2 9652   3.536   3.087   0.542  1.5302 -0.4909 -1.2915
 3216TIP3   OH2 9653   1.487   3.976   4.222  0.0945  0.6285  0.1742
 3216TIP3    H1 9654   1.485   4.021   4.307  3.0297  1.5363 -0.1125
 3216TIP3    H2 9655   1.534   3.894   4.240 -0.7514  0.0394 -0.2724
 3217TIP3   OH2 9656   1.757   0.401   0.277 -0.1310 -0.4689 -0.4550
 3217TIP3    H1 9657   1.830   0.342   0.260 -1.4810 -1.7989 -2.0115
 3217TIP3    H2 9658   1.683   0.343   0.295 -0.8308  0.8350  1.1510
 3218TIP3   OH2 9659   1.493   2.414   3.616  0.1718  0.4185  0.0848
 3218TIP3    H1 9660   1.433   2.468   3.667 -0.0358 -0.9325  1.3638
 3218TIP3    H2 9661   1.440   2.379   3.545 -0.3676 -0.0872  0.7181
 3219TIP3   OH2 9662   4.876   0.571   4.338 -0.4339  0.3126 -0.3247
 3219TIP3    H1 9663   4.892   0.659   4.303  1.7506 -0.7760 -2.3040
 3219TIP3    H2 9664   4.792   0.545   4.300 -0.9426  1.3712  0.0209
 3220TIP3   OH2 9665   3.815   1.358   1.118 -0.4332 -0.8270  0.1660
 3220TIP3    H1 9666   3.807   1.269   1.084  1.0961  0.4309 -4.1238
 3220TIP3    H2 9667   3.742   1.405   1.078 -0.2435  0.2117  1.0063
 3221TIP3   OH2 9668   2.995   0.951   3.313 -0.5859 -0.0931  0.4599
 3221TIP3    H1 9669   3.021   0.976   3.224 -2.1963  0.5126  0.1331
 3221TIP3    H2 9670   3.049   0.874   3.332 -1.3794 -1.2926 -1.7166
 3222TIP3   OH2 9671   6.095   5.574   1.385 -0.6487 -0.1711 -0.1566
 3222TIP3    H1 9672   6.147   5.533   1.454 -0.1949 -1.9792 -1.4970
 3222TIP3    H2 9673   6.160   5.615   1.328 -0.8005 -1.0174 -0.9504
 3223TIP3   OH2 9674   1.547   0.250   0.354  0.3295 -0.2784  0.2785
 3223TIP3    H1 9675   1.458   0.276   0.330  0.3744 -0.7220 -0.4158
 3223TIP3    H2 9676   1.545   0.154   0.352  0.8191 -0.2880  0.2402
 3224TIP3   OH2 9677   1.230   2.690   0.057 -0.0935 -0.0716  0.4799
 3224TIP3    H1 9678   1.259   2.708  -0.032 -0.5518  1.2497  0.5696
 3224TIP3    H2 9679   1.142   2.654   0.047 -0.2860  0.4123  0.4026
 3225TIP3   OH2 9680   1.914   2.394   4.469  0.1069 -0.4051 -0.1689
 3225TIP3    H1 9681   1.852   2.403   4.540  1.1240  4.2214  0.4745
 3225TIP3    H2 9682   1.860   2.376   4.392 -1.5772 -0.4249  0.9662
 3226TIP3   OH2 9683   1.531   2.681   3.815  0.3646  0.0164  0.0839
 3226TIP3    H1 9684   1.602   2.626   3.848  1.1848  0.9460 -0.0609
 3226TIP3    H2 9685   1.455   2.623   3.811  0.8813 -0.7728  1.1305
 3227TIP3   OH2 9686   6.144   1.088   3.285  0.1588 -0.0001 -0.3860
 3227TIP3    H1 9687   6.055   1.057   3.266  0.4337 -0.0415 -1.7160
 3227TIP3    H2 9688   6.131   1.172   3.328 -0.5343 -0.4443  0.3197
 3228TIP3   OH2 9689   3.946   0.010   1.081 -0.1876  0.1720 -0.3167
 3228TIP3    H1 9690   4.003   0.049   1.147 -1.5662  1.2864  0.2815
 3228TIP3    H2 9691   3.863   0.057   1.091 -0.8696 -0.6297 -1.8904
 3229TIP3   OH2 9692   5.024   5.077   4.901  0.1187  0.1278 -0.2536
 3229TIP3    H1 9693   5.064   5.010   4.956  2.5614 -0.4396 -2.5374
 3229TIP3    H2 9694   5.011   5.151   4.960  1.0238 -1.0125  1.4656
 3230TIP3   OH2 9695   1.972   0.171   3.420 -0.3278  0.3734 -0.4053
 3230TIP3    H1 9696   1.942   0.115   3.348 -0.3451  0.2765 -0.3233
 3230TIP3    H2 9697   1.894   0.183   3.474 -0.2441  0.2138 -0.2514
 3231TIP3   OH2 9698   4.997   4.744   1.724  0.0370 -0.8468  0.8915
 3231TIP3    H1 9699   5.050   4.723   1.801 -0.3731 -1.3640  1.0386
 3231TIP3    H2 9700   5.062   4.758   1.654  0.3659 -1.8861  0.9671
 3232TIP3   OH2 9701   2.499   0.619   0.480  0.7779  0.6690 -0.3452
 3232TIP3    H1 9702   2.541   0.542   0.518 -1.7616 -0.0736  1.2292
 3232TIP3    H2 9703   2.491   0.600   0.387  0.5582 -0.8151 -0.0445
 3233TIP3   OH2 9704   2.047   0.907   1.209 -0.1049  0.0190 -0.7303
 3233TIP3    H1 9705   2.043   0.880   1.301  0.7029  1.6399 -0.1803
 3233TIP3    H2 9706   2.118   0.970   1.206 -0.2643  0.1578 -2.4461
 3234TIP3   OH2 9707   4.789   5.925   1.273 -0.1807 -0.0680  0.5579
 3234TIP3    H1 9708   4.772   5.842   1.230  0.7150  0.3113 -0.5746
 3234TIP3    H2 9709   4.735   5.923   1.352  0.2061 -1.9239  0.8078
 3235TIP3   OH2 9710   6.014   0.726   3.031 -0.1059 -0.2100  0.2405
 3235TIP3    H1 9711   5.977   0.647   2.990  0.4391 -0.6686  0.6136
 3235TIP3    H2 9712   6.049   0.695   3.114 -1.1874  0.7017  1.0756
 3236TIP3   OH2 9713   6.077   4.554   1.357  0.1810 -0.1172 -0.2519
 3236TIP3    H1 9714   6.158   4.551   1.407  0.6229 -1.6457 -0.9887
 3236TIP3    H2 9715   6.098   4.607   1.280  0.6463 -0.8938 -0.6751
 3237TIP3   OH2 9716   0.410   4.826   2.844  0.6623 -0.5214  0.0690
 3237TIP3    H1 9717   0.453   4.907   2.871  1.4563 -0.4561 -1.2698
 3237TIP3    H2 9718   0.319   4.836   2.871  0.6563  1.0000 -0.4452
 3238TIP3   OH2 9719   4.767   4.777   2.583 -0.4098  0.5237 -0.5906
 3238TIP3    H1 9720   4.685   4.735   2.554  0.5262 -0.3478 -2.1120
 3238TIP3    H2 9721   4.754   4.791   2.677 -1.1001 -2.5457 -0.1128
 3239TIP3   OH2 9722   1.427   5.641   4.248  0.5380 -0.4986 -0.2116
 3239TIP3    H1 9723   1.357   5.693   4.208  0.6735 -0.0837  0.0855
 3239TIP3    H2 9724   1.419   5.555   4.208  0.7876 -0.0427 -1.2831
 3240TIP3   OH2 9725   4.966   0.843   1.736  0.0124 -0.2377 -0.5853
 3240TIP3    H1 9726   4.920   0.798   1.807 -1.1770 -0.0988 -1.2474
 3240TIP3    H2 9727   4.916   0.820   1.658 -1.1686  2.8776 -0.8744
 3241TIP3   OH2 9728   5.929   1.951   0.514  0.2990 -0.1775 -0.1135
 3241TIP3    H1 9729   5.899   1.918   0.599  0.8051  1.5794  0.7946
 3241TIP3    H2 9730   5.871   2.024   0.495  0.4690 -0.2841 -1.0934
 3242TIP3   OH2 9731   4.592   4.191   2.019 -0.0484  0.6905  0.0573
 3242TIP3    H1 9732   4.673   4.155   1.984 -0.8423 -0.7250 -0.4191
 3242TIP3    H2 9733   4.567   4.130   2.089 -1.2364  0.4796 -0.5122
 3243TIP3   OH2 9734   5.637   5.236   4.131 -0.5267  0.0845  0.1200
 3243TIP3    H1 9735   5.642   5.316   4.184 -1.6115  0.1555  0.1363
 3243TIP3    H2 9736   5.727   5.220   4.104 -0.0533  0.4425  1.4057
 3244TIP3   OH2 9737   5.773   1.834   3.919  0.0834  0.3476  0.0521
 3244TIP3    H1 9738   5.704   1.769   3.930  0.3108  0.0931 -0.0126
 3244TIP3    H2 9739   5.830   1.822   3.994 -0.9564  1.8361  1.1394
 3245TIP3   OH2 9740   5.132   5.949   0.939  0.3620  0.3374  0.3004
 3245TIP3    H1 9741   5.120   5.878   0.876  0.7226  0.2222  0.3603
 3245TIP3    H2 9742   5.103   5.911   1.022  2.4528 -0.4235  0.7247
 3246TIP3   OH2 9743   3.616   4.355   3.755  0.1427  0.0180  0.3966
 3246TIP3    H1 9744   3.584   4.443   3.775  0.0053  0.7180 -2.4294
 3246TIP3    H2 9745   3.670   4.367   3.677  1.2454 -2.2315  0.7510
 3247TIP3   OH2 9746   5.225   5.465   1.800  2.1040 -0.5692 -0.3591
 3247TIP3    H1 9747   5.241   5.548   1.755 -0.0182 -0.5971 -1.3286
 3247TIP3    H2 9748   5.268   5.399   1.745  0.0332 -0.5342 -2.1464
 3248TIP3   OH2 9749   1.501   0.659   0.402 -0.3354 -0.5020  0.0598
 3248TIP3    H1 9750   1.477   0.567   0.391 -1.3100 -0.3672  0.8975
 3248TIP3    H2 9751   1.542   0.663   0.488  1.1050 -0.3984 -0.6015
 3249TIP3   OH2 9752   0.359   2.360   1.265 -0.0560  0.0203  0.1073
 3249TIP3    H1 9753   0.372   2.288   1.203  0.1843  0.6685 -0.6087
 3249TIP3    H2 9754   0.372   2.439   1.213 -0.7834  0.5957  0.7823
 3250TIP3   OH2 9755   3.670   3.917   0.930 -0.0732 -0.0762 -0.2563
 3250TIP3    H1 9756   3.671   3.853   1.001 -0.2387  1.2358  0.9846
 3250TIP3    H2 9757   3.578   3.944   0.924  0.2390  1.2760  0.4553
 3251TIP3   OH2 9758   5.322   3.550   0.406  0.1245 -0.2686 -0.1531
 3251TIP3    H1 9759   5.384   3.610   0.447  0.2224  0.3693 -1.1940
 3251TIP3    H2 9760   5.303   3.590   0.321 -2.9458  0.3934  0.7251
 3252TIP3   OH2 9761   1.861   2.459   1.076 -0.7409 -0.0630  0.1145
 3252TIP3    H1 9762   1.786   2.421   1.122 -0.5367 -0.8783 -0.2098
 3252TIP3    H2 9763   1.934   2.401   1.097 -0.8652 -1.1276 -2.1038
 3253TIP3   OH2 9764   4.981   3.711   4.728 -0.4917  0.9100 -0.0897
 3253TIP3    H1 9765   4.932   3.741   4.805  0.1989  1.8143  0.0143
 3253TIP3    H2 9766   4.964   3.617   4.724 -0.4016  0.8073  1.2842
 3254TIP3   OH2 9767   5.884   5.377   1.349  0.0181 -0.0296  0.0427
 3254TIP3    H1 9768   5.936   5.448   1.386  1.0076 -0.2331 -0.8962
 3254TIP3    H2 9769   5.805   5.373   1.404  0.9696  0.3036  1.4949
 3255TIP3   OH2 9770   4.207   0.934   0.393 -0.1313  0.3701  0.0108
 3255TIP3    H1 9771   4.236   0.863   0.451  0.7515  1.1481  0.5364
 3255TIP3    H2 9772   4.111   0.932   0.400 -0.1843 -1.2789 -0.6076
 3256TIP3   OH2 9773   4.481   3.747   2.165  0.0441 -0.0320 -0.1025
 3256TIP3    H1 9774   4.424   3.678   2.198  1.5493 -1.1540  0.2774
 3256TIP3    H2 9775   4.484   3.732   2.070 -0.2301  0.0022 -0.1183
 3257TIP3   OH2 9776   4.002   4.657   3.552  0.3976 -0.0724  0.0297
 3257TIP3    H1 9777   4.072   4.597   3.526  0.5766 -0.2830  0.9384
 3257TIP3    H2 9778   3.953   4.674   3.472  1.3596 -0.0995 -0.5723
 3258TIP3   OH2 9779   4.518   0.131   3.161  0.4189 -0.0945  0.1892
 3258TIP3    H1 9780   4.431   0.152   3.195  1.0880  2.1658  0.6569
 3258TIP3    H2 9781   4.508   0.133   3.066 -0.3289 -1.3427  0.2160
 3259TIP3   OH2 9782   0.255   1.606   1.558  0.3449  0.7173  0.5521
 3259TIP3    H1 9783   0.308   1.599   1.479 -1.1436  0.8977 -0.5106
 3259TIP3    H2 9784   0.276   1.528   1.608 -2.4491 -2.2881 -2.4820
 3260TIP3   OH2 9785   1.670   5.743   4.711 -0.3907 -0.3436  0.0939
 3260TIP3    H1 9786   1.582   5.712   4.728 -0.9928  1.8737  1.4830
 3260TIP3    H2 9787   1.668   5.836   4.734  2.8450 -0.6683  2.5227
 3261TIP3   OH2 9788   4.717   4.810   4.550  0.2549 -0.0855  0.2326
 3261TIP3    H1 9789   4.802   4.806   4.595 -0.0016 -0.0799  0.7235
 3261TIP3    H2 9790   4.677   4.891   4.582 -0.3059 -0.5315  0.6744
 3262TIP3   OH2 9791   6.234   4.612   1.771  0.1268 -0.3089 -0.1231
 3262TIP3    H1 9792   6.305   4.640   1.829 -0.6158  0.0476  0.6402
 3262TIP3    H2 9793   6.159   4.598   1.830 -0.6173 -0.0458 -0.9801
 3263TIP3   OH2 9794   0.423   3.096   4.887  0.4327 -0.2836 -0.2216
 3263TIP3    H1 9795   0.505   3.141   4.869  0.7960 -0.5838  0.6178
 3263TIP3    H2 9796   0.447   3.003   4.891  0.6332 -0.1941  2.7754
 3264TIP3   OH2 9797   4.712   3.628   0.888 -0.0127  0.4694  0.3941
 3264TIP3    H1 9798   4.717   3.593   0.799 -0.8975  3.3905 -0.9406
 3264TIP3    H2 9799   4.802   3.647   0.912  0.2343 -0.3549  0.1410
 3265TIP3   OH2 9800   2.758   2.681   2.559  0.4427 -0.2240  0.0159
 3265TIP3    H1 9801   2.744   2.604   2.504 -0.3352  0.6084 -0.9703
 3265TIP3    H2 9802   2.853   2.685   2.571  0.6917 -0.0814 -1.7781
 3266TIP3   OH2 9803   1.583   4.781   3.754 -0.4217 -0.5998  0.2125
 3266TIP3    H1 9804   1.509   4.834   3.726 -0.6281  0.2529  2.2160
 3266TIP3    H2 9805   1.660   4.836   3.738 -0.3752 -0.7782 -0.1969
 3267TIP3   OH2 9806   4.356   3.271   1.459  0.2724  0.4646 -0.3354
 3267TIP3    H1 9807   4.353   3.200   1.523 -1.1472  0.8097 -0.0059
 3267TIP3    H2 9808   4.303   3.239   1.386  0.8078  0.6177 -0.7985
 3268TIP3   OH2 9809   5.435   0.860   4.368  0.2754  0.0892  0.0702
 3268TIP3    H1 9810   5.374   0.929   4.343  1.1177  0.3568 -1.4035
 3268TIP3    H2 9811   5.507   0.906   4.411  1.2965  0.3234 -1.7640
 3269TIP3   OH2 9812   0.760   3.802   3.632 -0.4136 -0.2968 -0.1972
 3269TIP3    H1 9813   0.698   3.805   3.705 -0.0114  0.3582  0.1207
 3269TIP3    H2 9814   0.716   3.849   3.561 -1.4629 -2.2419 -0.9133
 3270TIP3   OH2 9815   2.424   5.059   2.246 -0.2944  0.6425  0.2107
 3270TIP3    H1 9816   2.434   5.100   2.333 -1.4083 -1.2285  1.2895
 3270TIP3    H2 9817   2.347   5.103   2.209 -0.1451  1.0743  0.3967
 3271TIP3   OH2 9818   2.623   5.956   3.881  0.1723  0.4869  0.2911
 3271TIP3    H1 9819   2.637   5.899   3.956  1.8021 -0.2604 -0.5334
 3271TIP3    H2 9820   2.541   5.926   3.843  0.6846 -0.9092  0.2369
 3272TIP3   OH2 9821   5.264   5.418   3.534  0.4473  0.4707 -0.2041
 3272TIP3    H1 9822   5.238   5.327   3.531  1.1037  0.2923 -1.1594
 3272TIP3    H2 9823   5.182   5.467   3.542 -0.0275 -0.1449 -1.1462
 3273TIP3   OH2 9824   1.349   5.403   4.158 -0.4228  0.5016 -0.3565
 3273TIP3    H1 9825   1.376   5.311   4.166 -0.0733  0.6592  0.3560
 3273TIP3    H2 9826   1.272   5.400   4.102 -0.2791 -0.2058 -0.5337
 3274TIP3   OH2 9827   5.030   2.349   0.360 -0.1688  0.6580 -0.4083
 3274TIP3    H1 9828   4.987   2.264   0.373  0.9800  0.0050 -0.6918
 3274TIP3    H2 9829   5.113   2.341   0.408  0.3604  1.2822 -1.1993
 3275TIP3   OH2 9830   0.121   3.031   0.184  0.3909  0.1326 -0.2627
 3275TIP3    H1 9831   0.064   2.954   0.175 -1.2812  1.3591 -0.8260
 3275TIP3    H2 9832   0.186   3.005   0.249 -1.3611 -1.0602  1.1320
 3276TIP3   OH2 9833   1.627   4.082   3.977  0.1750  0.1453  0.3713
 3276TIP3    H1 9834   1.556   4.133   3.936  0.8188 -0.6624 -1.8643
 3276TIP3    H2 9835   1.605   4.083   4.071 -1.5522  1.8162  0.0269
 3277TIP3   OH2 9836   1.367   0.304   0.660 -0.1527  0.6988  0.2370
 3277TIP3    H1 9837   1.312   0.361   0.606  1.1507  0.7734 -1.0661
 3277TIP3    H2 9838   1.311   0.230   0.683 -0.5539  0.2940 -1.8641
 3278TIP3   OH2 9839   4.899   3.755   1.101 -0.6048 -0.0637 -0.7690
 3278TIP3    H1 9840   4.881   3.805   1.021 -1.2707 -1.6965 -1.6811
 3278TIP3    H2 9841   4.987   3.721   1.089 -0.7458 -0.4001 -0.8852
 3279TIP3   OH2 9842   5.172   0.943   5.065  0.3809 -0.9581 -0.0532
 3279TIP3    H1 9843   5.262   0.962   5.041 -0.2773  2.6815 -0.2423
 3279TIP3    H2 9844   5.176   0.922   5.158  1.5568 -2.8016 -0.4640
 3280TIP3   OH2 9845   3.534   0.751   3.908 -0.2802  0.0512 -0.0967
 3280TIP3    H1 9846   3.593   0.684   3.943  1.2545  0.3861 -1.8260
 3280TIP3    H2 9847   3.457   0.702   3.879 -0.2741 -0.6063  0.9448
 3281TIP3   OH2 9848   0.943   1.771   3.005  0.1575  0.5830 -0.2470
 3281TIP3    H1 9849   0.971   1.838   3.068  1.4847 -0.5770  0.4557
 3281TIP3    H2 9850   1.009   1.702   3.012 -0.5373 -0.2911 -1.7890
 3282TIP3   OH2 9851   2.618   2.105   2.718  0.0471 -0.6809 -0.7854
 3282TIP3    H1 9852   2.612   2.010   2.728 -0.6186 -0.4892  0.9614
 3282TIP3    H2 9853   2.680   2.132   2.786 -1.6503  0.3603  0.4053
 3283TIP3   OH2 9854  -0.014   3.395   2.454 -0.3379 -0.6028  0.4124
 3283TIP3    H1 9855   0.053   3.327   2.450 -0.3586 -0.5857 -0.3135
 3283TIP3    H2 9856   0.028   3.472   2.417 -0.2611 -0.1699  1.3818
 3284TIP3   OH2 9857   0.147   1.791   3.194  0.3191  0.3579  0.8221
 3284TIP3    H1 9858   0.122   1.742   3.273  0.0757  0.7838  1.0100
 3284TIP3    H2 9859   0.157   1.724   3.126 -0.4610  0.0918  0.9637
 3285TIP3   OH2 9860   4.109   0.585   2.442  0.2712 -0.3576 -0.2078
 3285TIP3    H1 9861   4.103   0.517   2.375  1.7799 -0.0917 -0.6467
 3285TIP3    H2 9862   4.057   0.657   2.407  0.7213 -0.3672 -0.9238
 3286TIP3   OH2 9863   4.163   2.963   2.745 -0.3271  0.0918  0.0792
 3286TIP3    H1 9864   4.165   2.869   2.764  1.0088  0.2113  0.6447
 3286TIP3    H2 9865   4.146   3.004   2.830 -0.5076  0.3806 -0.0962
 3287TIP3   OH2 9866   0.485   5.629   0.253 -0.4294  0.5699  0.2529
 3287TIP3    H1 9867   0.563   5.582   0.281 -0.8198  0.4557  1.1639
 3287TIP3    H2 9868   0.518   5.712   0.219  0.2350 -0.1782 -1.0400
 3288TIP3   OH2 9869   6.274   0.500   1.475 -0.1533 -0.1389 -0.1691
 3288TIP3    H1 9870   6.257   0.582   1.428 -0.3084  0.4905  0.9443
 3288TIP3    H2 9871   6.280   0.527   1.567 -0.3552 -1.4070  0.2232
 3289TIP3   OH2 9872   5.269   4.237   3.362  0.1744 -0.0926  0.6281
 3289TIP3    H1 9873   5.234   4.200   3.281 -0.5351 -0.7233  1.2032
 3289TIP3    H2 9874   5.204   4.302   3.388  0.7619  0.6354  0.3212
 3290TIP3   OH2 9875   5.045   2.728   4.001 -0.5194 -0.0339 -0.0844
 3290TIP3    H1 9876   4.974   2.677   3.961  0.9902 -1.9950 -0.4293
 3290TIP3    H2 9877   5.000   2.792   4.056 -2.5703 -0.3433 -1.2983
 3291TIP3   OH2 9878   2.721   3.202   1.457 -0.1201  0.3918 -0.0934
 3291TIP3    H1 9879   2.697   3.144   1.528 -1.1476  2.3472  1.2476
 3291TIP3    H2 9880   2.728   3.288   1.497 -0.6056  1.5590 -2.3052
 3292TIP3   OH2 9881   5.906   1.527   3.297  0.4316 -0.0844 -0.1026
 3292TIP3    H1 9882   5.889   1.571   3.381  0.1040 -1.3997  0.5530
 3292TIP3    H2 9883   5.891   1.594   3.231  1.3215  1.1806  0.9108
 3293TIP3   OH2 9884   1.209   0.364   4.717  0.0870  0.8359  0.1142
 3293TIP3    H1 9885   1.157   0.386   4.640 -2.1632 -0.7351  1.0903
 3293TIP3    H2 9886   1.195   0.437   4.778 -2.5710 -0.3744  1.0732
 3294TIP3   OH2 9887   1.401   3.601   5.049 -0.1280 -0.0014  0.0195
 3294TIP3    H1 9888   1.475   3.657   5.026  0.4378 -0.1838  1.3093
 3294TIP3    H2 9889   1.333   3.663   5.078 -0.9188  0.2467 -2.1390
 3295TIP3   OH2 9890   2.109   0.599   3.955 -0.2254  0.1325  0.0782
 3295TIP3    H1 9891   2.204   0.599   3.968 -0.1441  0.0158 -0.5196
 3295TIP3    H2 9892   2.096   0.623   3.864 -0.5674 -4.0474 -1.1739
 3296TIP3   OH2 9893   3.941   5.912   3.240 -0.0745 -0.0133  0.1833
 3296TIP3    H1 9894   3.940   5.840   3.304 -0.7481 -0.7776 -0.6617
 3296TIP3    H2 9895   3.898   5.876   3.163  1.0978  0.7579 -0.8640
 3297TIP3   OH2 9896   5.041   5.378   2.778  0.1345 -0.2317  0.6114
 3297TIP3    H1 9897   5.010   5.443   2.715  0.2137  0.8520  1.6438
 3297TIP3    H2 9898   4.980   5.385   2.852 -0.0836 -1.6197  0.5953
 3298TIP3   OH2 9899   3.746   1.276   1.415  0.2142  0.0279 -0.1612
 3298TIP3    H1 9900   3.812   1.336   1.450  0.5098  0.5836 -1.5931
 3298TIP3    H2 9901   3.665   1.301   1.460  0.6216  0.5097  0.3290
 3299TIP3   OH2 9902   6.051   3.069   0.077 -0.4603  0.3960  0.0877
 3299TIP3    H1 9903   6.056   3.103   0.167 -1.0631  0.8051 -0.0229
 3299TIP3    H2 9904   6.118   3.118   0.029 -0.8784  0.9727  0.0773
 3300TIP3   OH2 9905   0.423   3.919   1.020  0.0923 -0.7079  0.3410
 3300TIP3    H1 9906   0.329   3.905   1.022  0.0174 -0.1920  0.6686
 3300TIP3    H2 9907   0.446   3.946   1.109  0.2748  0.8066 -0.1209
 3301TIP3   OH2 9908   3.698   2.185   3.112  0.3127  0.1142  0.1692
 3301TIP3    H1 9909   3.607   2.216   3.116  0.3209  0.1470  0.1139
 3301TIP3    H2 9910   3.717   2.182   3.018  0.5401  0.6112  0.1977
 3302TIP3   OH2 9911   1.605   4.094   4.783  0.0170 -0.3215  0.0485
 3302TIP3    H1 9912   1.682   4.038   4.787 -0.3624 -0.7951  1.1682
 3302TIP3    H2 9913   1.534   4.041   4.820 -0.5597  0.5589  0.2537
 3303TIP3   OH2 9914   0.716   4.938   3.469  0.4278 -0.3419  0.3333
 3303TIP3    H1 9915   0.620   4.936   3.480  0.3385 -2.7896 -0.3184
 3303TIP3    H2 9916   0.729   4.950   3.375  0.6872 -1.4451  0.2113
 3304TIP3   OH2 9917   5.626   5.343   3.319  0.2611  1.0560 -0.1674
 3304TIP3    H1 9918   5.705   5.393   3.301  1.2058 -0.6252 -0.8672
 3304TIP3    H2 9919   5.628   5.328   3.414  2.3292 -1.3185 -0.4801
 3305TIP3   OH2 9920   5.431   4.951   1.675  0.5824 -0.2915 -0.1991
 3305TIP3    H1 9921   5.422   5.023   1.736  2.9990  1.1635 -1.3883
 3305TIP3    H2 9922   5.348   4.949   1.627  0.7346  2.3291 -0.7303
 3306TIP3   OH2 9923   1.688   0.937   1.687 -0.1139 -0.2892 -0.1977
 3306TIP3    H1 9924   1.624   0.901   1.749 -1.8659  0.1355 -1.6813
 3306TIP3    H2 9925   1.636   0.963   1.611  1.9432 -0.6171 -1.7998
 3307TIP3   OH2 9926   2.919   4.394   0.152 -0.1520 -0.6398 -0.0031
 3307TIP3    H1 9927   2.844   4.403   0.212 -1.7016  0.6291 -2.0077
 3307TIP3    H2 9928   2.970   4.473   0.166  0.5063 -1.2064  0.9067
 3308TIP3   OH2 9929   2.698   0.555   4.148  0.0398  0.3901  0.1356
 3308TIP3    H1 9930   2.648   0.550   4.229  2.0720  1.0003  1.4967
 3308TIP3    H2 9931   2.787   0.575   4.176  0.8672  0.3242 -2.2444
 3309TIP3   OH2 9932   5.812   4.015   3.686  0.0339  0.4098  0.6897
 3309TIP3    H1 9933   5.738   3.960   3.660  0.9067 -0.9962  1.0171
 3309TIP3    H2 9934   5.864   4.024   3.606 -0.2751  1.0355  0.5599
 3310TIP3   OH2 9935   5.468   0.329   1.751 -0.3433  0.3252  0.6867
 3310TIP3    H1 9936   5.518   0.252   1.776 -0.6647 -0.3439 -0.6643
 3310TIP3    H2 9937   5.384   0.295   1.719 -0.5632  1.2369  0.2502
 3311TIP3   OH2 9938   1.891   3.694   0.262 -0.4596  0.1202 -0.2952
 3311TIP3    H1 9939   1.954   3.763   0.239 -0.0377  0.5646  1.9591
 3311TIP3    H2 9940   1.944   3.614   0.266  0.0320  0.4822  1.5338
 3312TIP3   OH2 9941   1.314   2.958   4.978  0.1945 -0.6200 -0.1908
 3312TIP3    H1 9942   1.346   3.003   4.900  0.5332 -0.0955  0.2416
 3312TIP3    H2 9943   1.315   3.025   5.047 -2.8364 -0.2648 -0.3676
 3313TIP3   OH2 9944   1.559   0.799   0.941  0.3230 -0.1472 -0.6211
 3313TIP3    H1 9945   1.631   0.740   0.917  0.1093 -0.1762 -1.2156
 3313TIP3    H2 9946   1.601   0.884   0.955  0.4851 -0.1860 -0.8690
 3314TIP3   OH2 9947   3.704   4.738   0.849  0.0275 -0.1451  0.0987
 3314TIP3    H1 9948   3.613   4.760   0.832 -0.3973 -0.0284  2.2278
 3314TIP3    H2 9949   3.754   4.804   0.801 -1.0298  0.5185 -0.1318
 3315TIP3   OH2 9950   2.349   1.355   0.705 -0.0253 -0.0144  0.2144
 3315TIP3    H1 9951   2.366   1.397   0.620 -1.0579 -0.4914 -0.2527
 3315TIP3    H2 9952   2.253   1.347   0.708 -0.0002  0.0055  1.4380
 3316TIP3   OH2 9953   0.792   1.509   3.207 -0.1970  0.0721  0.7542
 3316TIP3    H1 9954   0.757   1.432   3.251 -1.1475 -0.1847 -0.3787
 3316TIP3    H2 9955   0.875   1.479   3.169  0.7437  0.3636  2.5027
 3317TIP3   OH2 9956   4.945   5.185   3.106  0.2726 -0.0082  0.3142
 3317TIP3    H1 9957   4.884   5.111   3.113  0.0445  0.2175  0.8143
 3317TIP3    H2 9958   5.030   5.149   3.130  0.0851 -0.0211  0.9846
 3318TIP3   OH2 9959   0.900   5.869   4.898 -0.3570  0.2611 -0.3118
 3318TIP3    H1 9960   0.893   5.928   4.823  0.0207 -0.3811 -0.8654
 3318TIP3    H2 9961   0.943   5.920   4.966 -2.3936  1.4795  0.1522
 3319TIP3   OH2 9962   5.416   5.197   2.118 -0.2318 -0.2954  0.2580
 3319TIP3    H1 9963   5.450   5.127   2.061 -1.6280 -0.8092  0.0167
 3319TIP3    H2 9964   5.485   5.209   2.184  0.5674 -1.0516 -0.4068
 3320TIP3   OH2 9965   5.160   1.401   3.350 -0.3031  0.5254  0.1057
 3320TIP3    H1 9966   5.231   1.378   3.410  0.4690  1.3422 -0.4618
 3320TIP3    H2 9967   5.204   1.416   3.266 -1.1944  0.7200 -0.3344
 3321TIP3   OH2 9968   4.571   5.394   0.820 -0.6099  0.7393  0.5219
 3321TIP3    H1 9969   4.511   5.321   0.835  1.0141 -0.8215 -0.2053
 3321TIP3    H2 9970   4.648   5.373   0.873  1.1071  0.3134 -1.9401
 3322TIP3   OH2 9971   4.784   2.832   2.010  0.1337 -0.3853 -0.3454
 3322TIP3    H1 9972   4.703   2.881   2.001  0.1447 -0.6336 -2.1917
 3322TIP3    H2 9973   4.761   2.757   2.065 -1.4848 -1.5763 -2.4942
 3323TIP3   OH2 9974   6.336   1.416   0.247 -0.0707 -0.5068  0.1067
 3323TIP3    H1 9975   6.247   1.451   0.254 -0.1854 -0.7899  0.0704
 3323TIP3    H2 9976   6.352   1.409   0.153 -0.5489 -1.8090  0.1083
 3324TIP3   OH2 9977   3.397   0.411   5.073  0.2314  0.3035  0.0580
 3324TIP3    H1 9978   3.387   0.437   4.981  2.0498  2.2097  0.3078
 3324TIP3    H2 9979   3.475   0.356   5.074  1.3688  1.8667  0.6711
 3325TIP3   OH2 9980   4.580   5.252   2.939 -0.1743 -0.4577 -0.1137
 3325TIP3    H1 9981   4.553   5.219   3.025 -1.3234  0.8672  0.0652
 3325TIP3    H2 9982   4.586   5.347   2.951 -1.6143 -0.1145 -1.8281
 3326TIP3   OH2 9983   0.892   5.036   2.334  0.0863  0.3460  0.2960
 3326TIP3    H1 9984   0.818   4.981   2.311  0.4649  0.3503 -0.9881
 3326TIP3    H2 9985   0.941   5.046   2.253  0.8200  1.3670  0.8389
 3327TIP3   OH2 9986   2.418   5.669   3.866  0.0773  0.3866 -0.2634
 3327TIP3    H1 9987   2.425   5.642   3.957  1.6726  1.9022  0.1169
 3327TIP3    H2 9988   2.497   5.635   3.824 -0.0256  0.7696 -0.7889
 3328TIP3   OH2 9989   1.115   5.908   2.432  0.0985 -0.4485 -0.4747
 3328TIP3    H1 9990   1.164   5.980   2.393 -0.1467  1.0331  1.8157
 3328TIP3    H2 9991   1.074   5.864   2.357  1.5936  0.7357 -2.0686
 3329TIP3   OH2 9992   1.510   3.001   2.258 -0.1975  0.3908  0.0567
 3329TIP3    H1 9993   1.564   2.930   2.294  0.4028  0.9429  0.2569
 3329TIP3    H2 9994   1.526   2.999   2.164 -1.5007 -0.8298 -0.1814
 3330TIP3   OH2 9995   6.304   4.895   0.192  0.4690 -0.3197 -0.0518
 3330TIP3    H1 9996   6.374   4.896   0.126  0.6939  0.7280  0.1848
 3330TIP3    H2 9997   6.282   4.988   0.204 -0.7661 -0.6201  0.0846
 3331TIP3   OH2 9998   5.020   2.394   0.721 -0.2456 -0.0015  0.2952
 3331TIP3    H1 9999   4.982   2.468   0.768  1.2923  0.6484  0.5784
 3331TIP3    H210000   4.994   2.318   0.773 -0.7577  0.4649  0.7390
 3332TIP3   OH210001   0.287   2.239   0.088 -0.2277  0.1907 -0.2765
 3332TIP3    H110002   0.203   2.266   0.051  0.2770  2.0736 -0.1528
 3332TIP3    H210003   0.265   2.163   0.143 -1.9133  0.8747  0.0698
 3333TIP3   OH210004   1.151   1.348   2.695  0.5286 -0.1598 -0.1509
 3333TIP3    H110005   1.061   1.348   2.727  0.7699 -1.6699  0.6016
 3333TIP3    H210006   1.203   1.317   2.768  1.5275 -0.4173 -0.9465
 3334TIP3   OH210007   2.426   3.787   0.401 -0.2395  0.4078 -0.0380
 3334TIP3    H110008   2.380   3.704   0.384 -2.3140  1.5061 -0.0784
 3334TIP3    H210009   2.405   3.807   0.492  3.1272 -0.7682  1.1469
 3335TIP3   OH210010   1.439   4.762   4.664  0.5253 -0.2636 -0.4384
 3335TIP3    H110011   1.404   4.673   4.661 -2.2225  0.6861 -0.0287
 3335TIP3    H210012   1.415   4.795   4.751  0.2389  1.2934 -1.0596
 3336TIP3   OH210013   1.848   0.638   4.718 -0.1178  0.3370 -0.7715
 3336TIP3    H110014   1.806   0.645   4.804 -0.7813 -0.3851 -1.0326
 3336TIP3    H210015   1.937   0.607   4.737  0.8797  3.2818 -0.0907
 3337TIP3   OH210016   5.540   3.898   1.786  0.2553 -0.6654 -0.0813
 3337TIP3    H110017   5.589   3.944   1.854  3.0164 -0.8222 -1.8293
 3337TIP3    H210018   5.514   3.816   1.827  0.8539 -0.2885  1.1084
 3338TIP3   OH210019   3.480   2.652   2.971 -0.0500  0.0576 -0.3154
 3338TIP3    H110020   3.456   2.562   2.950 -0.0239  0.0729 -0.4110
 3338TIP3    H210021   3.543   2.677   2.904  2.2835 -0.8689  1.4052
 3339TIP3   OH210022   2.747   1.802   1.088 -0.0857 -0.9718 -0.3894
 3339TIP3    H110023   2.682   1.781   1.021  0.1349 -3.0368 -0.0173
 3339TIP3    H210024   2.831   1.786   1.045  0.1296 -0.4648 -0.1750
 3340TIP3   OH210025   2.592   5.515   5.062  0.4444 -0.2175 -0.2036
 3340TIP3    H110026   2.637   5.586   5.017 -0.5742 -0.0700 -1.0218
 3340TIP3    H210027   2.644   5.500   5.141  2.4052 -0.6475 -1.5185
 3341TIP3   OH210028   5.408   3.543   1.536  0.4094 -0.6361  1.0838
 3341TIP3    H110029   5.463   3.471   1.567 -0.5714 -1.4311  1.0557
 3341TIP3    H210030   5.459   3.622   1.553  1.6395 -1.3514  0.8472
 3342TIP3   OH210031   5.038   4.595   0.394  0.0673  0.4329  0.5312
 3342TIP3    H110032   5.088   4.577   0.474  0.1873 -0.8155  0.1952
 3342TIP3    H210033   5.101   4.581   0.324  0.2048  2.3663  0.2138
 3343TIP3   OH210034   3.372   1.756   4.900  0.1516 -0.0541 -0.2698
 3343TIP3    H110035   3.321   1.836   4.904 -1.3864 -0.9975 -0.3800
 3343TIP3    H210036   3.446   1.777   4.843 -1.4483  0.6349 -2.1800
 3344TIP3   OH210037   3.358   0.221   3.271 -0.2571  0.0858 -0.1959
 3344TIP3    H110038   3.348   0.290   3.337  1.5027  1.2598 -1.0676
 3344TIP3    H210039   3.279   0.227   3.218  0.0103  1.6965 -0.4668
 3345TIP3   OH210040   0.608   4.445   3.770  0.3973 -0.3693  0.0135
 3345TIP3    H110041   0.648   4.358   3.759  0.9872 -0.0357 -0.5970
 3345TIP3    H210042   0.612   4.484   3.683  2.2450  1.1504  0.7064
 3346TIP3   OH210043   1.097   0.817   4.814  0.0655  0.0234  0.3142
 3346TIP3    H110044   1.094   0.899   4.765 -2.0821  1.3543  2.4366
 3346TIP3    H210045   1.058   0.753   4.754 -1.0732  1.2488 -0.3270
 3347TIP3   OH210046   1.058   1.068   4.173 -0.0662 -0.2156  0.6607
 3347TIP3    H110047   1.004   0.991   4.153  0.1327 -0.1764 -0.0597
 3347TIP3    H210048   1.095   1.093   4.088  0.8856 -0.0919  1.1077
 3348TIP3   OH210049   4.889   4.855   3.342  0.0605 -0.1881  0.1252
 3348TIP3    H110050   4.929   4.919   3.400  0.8451 -0.7077  0.1726
 3348TIP3    H210051   4.895   4.772   3.391  0.8103 -0.6457 -0.7240
 3349TIP3   OH210052   2.714   0.110   1.293 -0.0234  0.3209 -0.3362
 3349TIP3    H110053   2.713   0.142   1.203  3.0035  0.6339 -0.3777
 3349TIP3    H210054   2.668   0.177   1.343 -2.5010 -0.2744 -1.6891
 3350TIP3   OH210055   5.382   5.855   4.778 -0.0563 -0.3471 -0.0689
 3350TIP3    H110056   5.468   5.857   4.736 -0.0777  0.0837 -0.0900
 3350TIP3    H210057   5.400   5.877   4.870  0.0807 -1.9097  0.3202
 3351TIP3   OH210058   3.366   1.119   4.509 -0.0592  0.0914  0.2719
 3351TIP3    H110059   3.409   1.061   4.572 -0.5656 -0.2531  0.3090
 3351TIP3    H210060   3.435   1.177   4.478  0.1758  0.3191  1.2108
 3352TIP3   OH210061   2.981   4.923   4.378  0.5676  0.1896 -0.0303
 3352TIP3    H110062   3.073   4.947   4.369  0.7281 -0.0549  0.7935
 3352TIP3    H210063   2.939   5.001   4.413  1.1015 -0.6394  2.7103
 3353TIP3   OH210064   4.724   2.384   3.627 -0.0573 -0.1385 -0.0608
 3353TIP3    H110065   4.796   2.446   3.616  1.5358 -1.9953 -0.6800
 3353TIP3    H210066   4.663   2.406   3.556  0.6166  0.5183 -0.4576
 3354TIP3   OH210067   0.562   5.442   4.109  0.1871  0.6133 -0.0028
 3354TIP3    H110068   0.611   5.360   4.117 -0.9687 -0.0405  0.7648
 3354TIP3    H210069   0.543   5.450   4.016  0.5235  0.1262 -0.1173
 3355TIP3   OH210070   4.792   0.564   1.419  0.1609  0.0292 -0.6539
 3355TIP3    H110071   4.824   0.535   1.334 -0.9812 -0.7948 -0.8270
 3355TIP3    H210072   4.870   0.566   1.475  0.6067 -1.4490 -1.1763
 3356TIP3   OH210073   3.250   2.730   1.972  0.3538  0.6823 -0.0318
 3356TIP3    H110074   3.325   2.672   1.977 -0.1048  0.0383 -0.4648
 3356TIP3    H210075   3.277   2.809   2.019  0.2167 -0.6797  2.4950
 3357TIP3   OH210076   3.018   1.296   0.672  0.5843  0.0428  0.0043
 3357TIP3    H110077   3.100   1.313   0.626 -0.6625  0.3628 -2.2535
 3357TIP3    H210078   2.950   1.313   0.606 -1.3376  0.5670  2.0137
 3358TIP3   OH210079   3.397   0.395   4.652  0.1721  0.5870  0.4154
 3358TIP3    H110080   3.338   0.322   4.671  2.1382 -0.9560  0.8954
 3358TIP3    H210081   3.379   0.459   4.721 -1.7645  0.7506 -0.1698
 3359TIP3   OH210082   5.449   2.658   1.986  0.0353 -0.5212  0.3130
 3359TIP3    H110083   5.377   2.614   1.941 -1.6326  2.3175 -0.0243
 3359TIP3    H210084   5.512   2.678   1.917  0.0465 -0.9285  0.2013
 3360TIP3   OH210085   4.461   1.965   2.261 -0.2458 -0.0100  0.4039
 3360TIP3    H110086   4.377   1.924   2.242 -0.0042 -1.0241  1.4103
 3360TIP3    H210087   4.526   1.900   2.233  0.1810  0.3041  0.6622
 3361TIP3   OH210088   4.098   2.057   1.840 -0.1194  0.2301  0.6699
 3361TIP3    H110089   4.017   2.047   1.790  0.0237  1.3104  0.1843
 3361TIP3    H210090   4.079   2.126   1.904  0.5928  0.9479  0.1350
 3362TIP3   OH210091   2.059   4.394   0.746 -0.3430  0.1053  0.1230
 3362TIP3    H110092   2.151   4.402   0.773  0.2452 -1.0945 -1.3788
 3362TIP3    H210093   2.059   4.321   0.685 -2.4980 -0.5497  0.8402
 3363TIP3   OH210094   4.930   2.606   0.850 -0.7776  0.4021 -0.0563
 3363TIP3    H110095   4.907   2.698   0.865 -0.5837  0.2452  1.2667
 3363TIP3    H210096   4.884   2.558   0.918 -0.5198 -0.4472 -0.4667
 3364TIP3   OH210097   5.300   3.136   0.964 -0.2145 -0.3110 -0.1446
 3364TIP3    H110098   5.380   3.128   0.911  0.3052  0.1364  0.5527
 3364TIP3    H210099   5.248   3.203   0.920 -1.3335 -2.2423 -1.9663
 3365TIP3   OH210100   1.803   3.636   3.786 -0.0047 -0.0803 -0.0908
 3365TIP3    H110101   1.723   3.583   3.789  0.1498 -0.3611 -0.7499
 3365TIP3    H210102   1.855   3.605   3.861 -0.8604  0.6854  0.8381
 3366TIP3   OH210103   0.898   0.468   2.873 -0.0616  0.4167 -0.1648
 3366TIP3    H110104   0.964   0.403   2.850  0.8804  0.8011  1.3260
 3366TIP3    H210105   0.942   0.552   2.859 -0.2318  0.6769  0.8236
 3367TIP3   OH210106   2.356   1.800   4.267  0.4690  0.5715 -0.2809
 3367TIP3    H110107   2.325   1.730   4.210 -0.6069 -0.6289  1.6662
 3367TIP3    H210108   2.451   1.799   4.258  0.5498 -1.7202  0.3106
 3368TIP3   OH210109   4.507   3.310   4.404 -0.4837 -0.1597 -0.1202
 3368TIP3    H110110   4.424   3.357   4.412 -1.0226 -1.1791  0.5211
 3368TIP3    H210111   4.482   3.219   4.389  0.5338 -0.3022 -1.0912
 3369TIP3   OH210112   5.388   3.816   1.294  0.2642  1.1190  0.2482
 3369TIP3    H110113   5.446   3.763   1.239  0.5705  0.3851  1.2405
 3369TIP3    H210114   5.423   3.805   1.382 -0.7254  1.5683  0.7087
 3370TIP3   OH210115   5.848   1.300   0.406  0.2322 -0.0271  0.3923
 3370TIP3    H110116   5.794   1.347   0.343  0.2227 -0.3378  0.1712
 3370TIP3    H210117   5.787   1.274   0.476  0.1676 -0.0446  0.3291
 3371TIP3   OH210118   2.900   1.218   0.053  0.5331 -0.0235 -0.3152
 3371TIP3    H110119   2.870   1.291  -0.001 -0.6459 -0.8791 -0.8680
 3371TIP3    H210120   2.840   1.146   0.032  1.4678 -1.0648  0.4414
 3372TIP3   OH210121   2.904   1.118   3.031  0.3076 -0.3811 -0.0166
 3372TIP3    H110122   2.836   1.119   3.099  1.3483  0.6887  1.0428
 3372TIP3    H210123   2.959   1.194   3.049  0.7383 -0.1551 -1.9661
 3373TIP3   OH210124   1.603   2.742   0.679  0.2509 -0.4632 -0.3710
 3373TIP3    H110125   1.675   2.699   0.726 -1.0750 -2.1543  0.2142
 3373TIP3    H210126   1.576   2.813   0.738  1.3229  0.1172 -0.5427
 3374TIP3   OH210127   2.771   1.850   1.397  0.2033  0.2071  0.0191
 3374TIP3    H110128   2.818   1.923   1.436 -0.9650  0.4104  1.1134
 3374TIP3    H210129   2.775   1.866   1.303  2.6030  0.0041  0.0199
 3375TIP3   OH210130   3.200   1.440   2.800  0.7146 -0.5894 -0.5593
 3375TIP3    H110131   3.266   1.396   2.853 -0.3971 -0.9868  0.5328
 3375TIP3    H210132   3.164   1.508   2.857  1.1045  0.5303 -1.6037
 3376TIP3   OH210133   0.051   2.264   2.074 -0.0938 -0.2574 -0.3610
 3376TIP3    H110134   0.115   2.267   2.003  0.2118  0.9175 -0.0577
 3376TIP3    H210135  -0.016   2.328   2.048  0.3757  0.7008  0.7266
 3377TIP3   OH210136   1.478   1.656   0.107 -0.2516 -0.0034  0.1674
 3377TIP3    H110137   1.450   1.744   0.133  0.7608  0.2881  0.3142
 3377TIP3    H210138   1.470   1.657   0.011 -2.4318 -0.5429  0.2857
 3378TIP3   OH210139   5.500   2.808   2.246  0.1277  0.4335  0.2458
 3378TIP3    H110140   5.561   2.880   2.230 -1.9926  2.3429  0.3798
 3378TIP3    H210141   5.470   2.782   2.158  0.4225  0.1093  0.2375
 3379TIP3   OH210142   1.184   1.444   3.973  0.3271  0.5183  0.6383
 3379TIP3    H110143   1.242   1.421   4.046  1.0713 -1.1336 -0.4134
 3379TIP3    H210144   1.192   1.539   3.965  0.2071  0.7460  2.6991
 3380TIP3   OH210145   5.115   0.848   4.514 -0.4336  0.7048 -0.2473
 3380TIP3    H110146   5.174   0.887   4.449  0.7345  0.9088  0.8863
 3380TIP3    H210147   5.028   0.877   4.487  0.2518  3.0608 -0.2174
 3381TIP3   OH210148   4.593   5.144   3.856 -0.1372  0.5568  0.0931
 3381TIP3    H110149   4.653   5.076   3.826 -0.8834 -0.0777  0.0069
 3381TIP3    H210150   4.527   5.150   3.787  0.0249  1.5182  0.0065
 3382TIP3   OH210151   5.741   4.419   0.267  0.1179 -0.2279 -0.1545
 3382TIP3    H110152   5.791   4.499   0.253 -1.0863  0.8827  1.4665
 3382TIP3    H210153   5.805   4.349   0.260  1.9258  1.1071  1.7189
 3383TIP3   OH210154   0.526   4.233   4.232 -0.5437 -0.1081 -0.2400
 3383TIP3    H110155   0.613   4.264   4.206 -0.7871  0.2627 -0.6340
 3383TIP3    H210156   0.466   4.299   4.197 -0.8042  1.7063  3.2746
 3384TIP3   OH210157   6.283   2.464   1.850  0.7640  0.3329  0.0217
 3384TIP3    H110158   6.278   2.466   1.754 -1.6961 -1.4377  0.0239
 3384TIP3    H210159   6.202   2.506   1.879  0.2258 -1.4067  1.2243
 3385TIP3   OH210160   4.504   3.903   3.891 -0.2260 -0.1023  0.4272
 3385TIP3    H110161   4.511   3.940   3.803  0.1528 -2.6581 -0.6932
 3385TIP3    H210162   4.442   3.961   3.936 -0.9926  0.8631 -1.7409
 3386TIP3   OH210163   4.231   1.389   2.384 -0.1823  0.0606 -0.4932
 3386TIP3    H110164   4.302   1.329   2.408 -1.1657 -0.9887 -0.1297
 3386TIP3    H210165   4.220   1.376   2.290 -0.0250  0.0664 -0.5128
 3387TIP3   OH210166   6.194   5.543   4.479 -0.6882 -0.4752  0.2198
 3387TIP3    H110167   6.105   5.527   4.511 -0.1874 -1.4296  1.2038
 3387TIP3    H210168   6.223   5.458   4.445 -0.5709  0.1073 -1.2342
 3388TIP3   OH210169   4.832   3.347   0.032 -0.2265  0.3730 -0.2996
 3388TIP3    H110170   4.828   3.344  -0.063  2.8961 -1.2450 -0.5298
 3388TIP3    H210171   4.836   3.255   0.059  1.5174  0.7938  1.1149
 3389TIP3   OH210172   0.197   2.787   4.029  0.2413  0.0172  0.3638
 3389TIP3    H110173   0.103   2.779   4.015  0.4419 -1.5660 -0.3119
 3389TIP3    H210174   0.224   2.859   3.972 -0.2459 -0.9430 -1.1344
 3390TIP3   OH210175   0.398   5.444   5.105  0.1272 -0.5462  0.1698
 3390TIP3    H110176   0.416   5.529   5.145 -0.3134 -0.5488  0.3894
 3390TIP3    H210177   0.353   5.394   5.174 -0.4105 -0.6435 -0.2382
 3391TIP3   OH210178   1.964   3.646   4.212  0.1876 -0.5074  0.0582
 3391TIP3    H110179   1.918   3.711   4.160 -1.4506 -1.0203  0.7967
 3391TIP3    H210180   2.015   3.697   4.275 -1.7360  0.1047  1.1812
 3392TIP3   OH210181   4.788   3.702   5.035 -0.0095  0.0177 -0.7551
 3392TIP3    H110182   4.850   3.774   5.048 -0.2980  0.0175  0.8580
 3392TIP3    H210183   4.710   3.728   5.084 -0.8485 -0.5355 -1.7511
 3393TIP3   OH210184   1.883   4.006   1.752 -0.1797 -0.4672  0.6498
 3393TIP3    H110185   1.953   4.061   1.717  1.8383 -3.3230 -0.1876
 3393TIP3    H210186   1.890   4.016   1.847  0.3939  0.3986  0.5292
 3394TIP3   OH210187   4.551   4.119   3.019 -0.1465  0.0697  0.0679
 3394TIP3    H110188   4.605   4.060   2.965 -0.1096  0.2748 -0.1212
 3394TIP3    H210189   4.609   4.192   3.039  0.2028 -0.5395  1.3434
 3395TIP3   OH210190   1.678   2.935   4.155 -0.1864 -0.4398 -0.2917
 3395TIP3    H110191   1.694   2.932   4.250 -2.3026 -0.2528  0.1181
 3395TIP3    H210192   1.614   3.005   4.144 -0.2590 -0.7166 -1.8442
 3396TIP3   OH210193   2.335   2.389   2.335  0.4548 -0.1608  0.5336
 3396TIP3    H110194   2.326   2.410   2.428  0.8505 -0.6938  0.6944
 3396TIP3    H210195   2.276   2.451   2.291 -0.6032 -0.6495  1.2220
 3397TIP3   OH210196   5.916   5.812   3.765 -0.5209  0.1007 -0.2707
 3397TIP3    H110197   5.974   5.757   3.816 -0.5443  0.0006 -0.3506
 3397TIP3    H210198   5.837   5.759   3.752 -0.4916  0.1015 -0.4611
 3398TIP3   OH210199   0.211   5.751   2.821  0.1501 -0.6010 -0.1491
 3398TIP3    H110200   0.167   5.686   2.876 -1.1515 -1.2546 -1.8683
 3398TIP3    H210201   0.282   5.702   2.779 -0.3640 -0.7500 -0.8674
 3399TIP3   OH210202   1.522   1.384   4.005  0.0312  0.7722  0.2124
 3399TIP3    H110203   1.494   1.339   3.926 -2.5692  1.7687  0.4932
 3399TIP3    H210204   1.461   1.355   4.073 -0.2850  2.8854  0.9220
 3400TIP3   OH210205   5.101   1.731   4.028 -0.2824 -0.2969 -0.1074
 3400TIP3    H110206   5.103   1.825   4.007  0.0179 -0.5025 -1.0290
 3400TIP3    H210207   5.056   1.727   4.112  2.2255  0.9454  1.4387
 3401TIP3   OH210208   1.013   0.889   2.503  0.7743  0.1816  0.0952
 3401TIP3    H110209   1.063   0.903   2.423 -2.1602  0.8434 -1.7759
 3401TIP3    H210210   1.006   0.976   2.543  1.7913 -0.0597  0.8395
 3402TIP3   OH210211   5.175   5.374   0.332  0.0471  0.0615 -0.1402
 3402TIP3    H110212   5.226   5.381   0.252 -1.1568  0.0221 -0.9286
 3402TIP3    H210213   5.230   5.323   0.391  1.4339  1.0460 -0.5233
 3403TIP3   OH210214   0.141   3.677   3.057  0.2353  0.2685 -0.7321
 3403TIP3    H110215   0.098   3.756   3.025  1.9080  1.2911 -0.5997
 3403TIP3    H210216   0.190   3.706   3.134 -1.7724 -1.6339  1.4272
 3404TIP3   OH210217   0.392   5.360   2.052 -0.1055  0.7940  0.8400
 3404TIP3    H110218   0.300   5.349   2.074 -0.3260 -0.1686 -0.4830
 3404TIP3    H210219   0.394   5.435   1.993 -0.3124 -0.2869 -0.5939
 3405TIP3   OH210220   1.990   3.259   3.623  0.4822  0.4308 -0.5745
 3405TIP3    H110221   2.034   3.214   3.696  0.1934  1.2480  0.1295
 3405TIP3    H210222   1.924   3.198   3.593 -0.6129  0.7494  1.0635
 3406TIP3   OH210223   2.941   3.849   2.266  0.4927  0.2417  0.5559
 3406TIP3    H110224   2.991   3.838   2.347 -0.0154  0.2707  0.8814
 3406TIP3    H210225   2.988   3.917   2.218  0.0400  1.2396  1.4651
 3407TIP3   OH210226   4.257   1.913   1.424 -0.1969 -0.6927 -0.2581
 3407TIP3    H110227   4.166   1.936   1.441  0.1519  1.1481 -0.7045
 3407TIP3    H210228   4.257   1.876   1.336 -0.9699 -3.9494  0.9551
 3408TIP3   OH210229   4.581   4.249   1.729 -0.0659 -0.1442 -1.1916
 3408TIP3    H110230   4.658   4.265   1.675  1.4511 -4.0900 -0.5441
 3408TIP3    H210231   4.612   4.258   1.819 -0.1627 -2.1084 -0.9104
 3409TIP3   OH210232   4.182   3.816   2.579 -0.2401  0.0574  0.0278
 3409TIP3    H110233   4.188   3.843   2.487 -0.9074  0.3149  0.0548
 3409TIP3    H210234   4.089   3.799   2.593 -0.2351  0.6327  0.8241
 3410TIP3   OH210235   2.198   1.807   5.018 -0.9641  0.4268 -0.1245
 3410TIP3    H110236   2.271   1.810   5.081 -0.7032 -1.7665 -0.2365
 3410TIP3    H210237   2.139   1.876   5.047  2.2901  4.2510 -1.6036
 3411TIP3   OH210238   3.193   5.241   3.575  0.0821  0.3527 -0.6444
 3411TIP3    H110239   3.232   5.328   3.571 -1.8721  1.2916 -0.1447
 3411TIP3    H210240   3.141   5.234   3.495 -0.6833  0.1106 -0.1371
 3412TIP3   OH210241   0.736   2.461   2.940 -0.5720  0.5444 -0.2144
 3412TIP3    H110242   0.693   2.377   2.953 -0.9030  0.7802  0.2794
 3412TIP3    H210243   0.703   2.492   2.856  0.9516 -0.6332 -1.2985
 3413TIP3   OH210244   2.982   1.032   2.731 -0.2296  0.0253 -0.6137
 3413TIP3    H110245   3.040   1.078   2.670 -0.2487  0.0421 -0.6194
 3413TIP3    H210246   3.039   1.001   2.801 -0.3262  0.7186 -0.2164
 3414TIP3   OH210247   1.536   3.546   3.787 -0.0923 -0.2571 -0.3216
 3414TIP3    H110248   1.539   3.492   3.866  0.5661  1.4783  0.9165
 3414TIP3    H210249   1.443   3.564   3.774 -0.2178 -0.6674 -0.0261
 3415TIP3   OH210250   0.495   1.524   3.405 -0.4580  0.2897 -0.5190
 3415TIP3    H110251   0.542   1.589   3.352  1.2545 -0.1699  0.3596
 3415TIP3    H210252   0.540   1.442   3.388 -1.4308 -0.3327 -0.1841
 3416TIP3   OH210253   2.710   4.021   3.379  0.2634  0.4375 -0.1213
 3416TIP3    H110254   2.748   3.935   3.363 -0.6671 -0.0323  0.1232
 3416TIP3    H210255   2.616   4.007   3.371  0.1205  1.5376 -0.5592
 3417TIP3   OH210256   0.314   0.902   3.611  0.8224  0.2071 -0.2869
 3417TIP3    H110257   0.337   0.810   3.628 -0.2479 -0.1068 -0.5084
 3417TIP3    H210258   0.254   0.925   3.681 -1.6242 -0.3331 -2.0680
 3418TIP3   OH210259   2.092   5.132   0.217  0.4667  0.6437 -0.3406
 3418TIP3    H110260   2.170   5.123   0.271 -0.7564  0.0948  1.4106
 3418TIP3    H210261   2.020   5.104   0.273 -1.0164  1.2021 -1.8702
 3419TIP3   OH210262   2.225   2.452   1.430 -0.3852  0.1810  0.2197
 3419TIP3    H110263   2.140   2.493   1.415 -0.8846 -0.9606 -0.1764
 3419TIP3    H210264   2.208   2.388   1.500  0.2529  0.2588  0.4508
 3420TIP3   OH210265   4.828   4.893   1.123 -0.1712  0.4682 -0.2513
 3420TIP3    H110266   4.884   4.838   1.068  2.6620  3.2100 -0.4330
 3420TIP3    H210267   4.766   4.933   1.062 -0.6042 -0.5621 -0.5083
 3421TIP3   OH210268   0.337   0.274   3.076  0.4027 -0.0574 -0.4244
 3421TIP3    H110269   0.307   0.250   3.164 -2.4424 -1.4620 -1.6518
 3421TIP3    H210270   0.258   0.301   3.030  1.4946 -1.0579 -3.0748
 3422TIP3   OH210271   4.332   2.072   0.318 -0.6576 -0.0843  0.0621
 3422TIP3    H110272   4.259   2.010   0.324  0.2000 -1.1931 -0.5051
 3422TIP3    H210273   4.389   2.035   0.250  0.3726  0.8195  0.4087
 3423TIP3   OH210274   5.416   0.997   4.964 -0.3852 -0.4992  0.0629
 3423TIP3    H110275   5.434   0.927   4.900 -0.8487 -1.4640  0.9530
 3423TIP3    H210276   5.493   1.053   4.960 -0.2253 -0.7605 -1.0473
 3424TIP3   OH210277   2.879   0.623   2.727 -0.7724  0.6055 -0.7008
 3424TIP3    H110278   2.858   0.541   2.772 -1.5235  1.0798 -0.1786
 3424TIP3    H210279   2.965   0.607   2.689 -0.2271  0.1089  0.6851
 3425TIP3   OH210280   0.977   1.147   0.158  0.0439  0.1203 -0.6577
 3425TIP3    H110281   0.918   1.111   0.092 -1.0957  0.0951  0.3429
 3425TIP3    H210282   0.923   1.209   0.208  0.8640  0.1280  0.2623
 3426TIP3   OH210283   3.614   0.345   3.317 -0.3149  0.5130  0.9320
 3426TIP3    H110284   3.614   0.406   3.243  3.0122 -0.1597  0.1971
 3426TIP3    H210285   3.536   0.291   3.304 -1.1094  1.9540 -0.7102
 3427TIP3   OH210286   2.404   1.881   2.064  0.4081 -0.8195 -0.1086
 3427TIP3    H110287   2.351   1.829   2.003 -0.0850 -0.7577  0.2591
 3427TIP3    H210288   2.353   1.881   2.145  0.7044 -0.2846  0.0794
 3428TIP3   OH210289   1.194   3.328   2.725 -0.0223 -0.3855 -0.2113
 3428TIP3    H110290   1.218   3.274   2.650 -3.2538  0.4482 -2.0657
 3428TIP3    H210291   1.182   3.416   2.688  1.9589  0.9375  2.0899
 3429TIP3   OH210292   0.879   5.987   0.288 -0.4169 -0.5054 -0.4349
 3429TIP3    H110293   0.865   5.923   0.358  0.9969  0.6538  0.9891
 3429TIP3    H210294   0.962   6.029   0.311 -1.9787  2.8830 -0.4856
 3430TIP3   OH210295   1.139   2.143   2.846 -0.0980  0.1948  0.4415
 3430TIP3    H110296   1.141   2.194   2.927  0.8869 -0.0228  0.5662
 3430TIP3    H210297   1.225   2.158   2.806 -0.5617  0.2821 -0.5588
 3431TIP3   OH210298   4.485   4.710   4.934  0.4381  0.7669  0.3892
 3431TIP3    H110299   4.473   4.716   4.840 -1.3892 -2.6484  0.2487
 3431TIP3    H210300   4.406   4.749   4.972 -0.8476 -1.5224  0.2525
 3432TIP3   OH210301   5.939   4.907   0.988  0.0663 -0.2576  0.1259
 3432TIP3    H110302   5.880   4.855   0.933 -0.3045 -1.1291  1.2966
 3432TIP3    H210303   5.928   4.871   1.075  1.6343  0.2055  0.5531
 3433TIP3   OH210304   0.683   0.804   0.693  0.1960 -0.4155 -0.4121
 3433TIP3    H110305   0.596   0.774   0.669 -0.3435  0.2974  0.6083
 3433TIP3    H210306   0.677   0.899   0.695  1.1715 -0.3203 -0.9356
 3434TIP3   OH210307   1.980   4.467   4.414 -0.5292  0.0643 -0.3537
 3434TIP3    H110308   1.909   4.435   4.358 -0.5055  0.3011 -0.5240
 3434TIP3    H210309   1.981   4.408   4.489 -0.2044 -0.5842 -0.8660
 3435TIP3   OH210310   3.101   1.881   1.454 -0.3314  0.1243  0.1078
 3435TIP3    H110311   3.190   1.914   1.441 -0.4350  1.5611  2.3775
 3435TIP3    H210312   3.113   1.797   1.499 -0.0446  1.1673  2.1096
 3436TIP3   OH210313   2.929   2.743   1.168 -0.1919  0.3658  0.2811
 3436TIP3    H110314   2.878   2.820   1.194  0.5876  0.9844  0.0200
 3436TIP3    H210315   2.870   2.669   1.182 -0.3029  0.7848  2.4724
 3437TIP3   OH210316   1.745   4.666   2.176 -0.3646  0.2123 -0.2375
 3437TIP3    H110317   1.838   4.655   2.194 -0.0074  1.1780 -1.3684
 3437TIP3    H210318   1.742   4.707   2.089 -1.8013  1.3216  0.3019
 3438TIP3   OH210319   4.062   2.613   4.588 -0.1544 -0.7434  0.1390
 3438TIP3    H110320   4.116   2.692   4.584  2.0659 -2.1534  0.4644
 3438TIP3    H210321   4.010   2.615   4.508  0.7598  0.4493 -0.4496
 3439TIP3   OH210322   3.440   5.573   1.415  0.4154 -0.2639  0.7497
 3439TIP3    H110323   3.391   5.639   1.463 -0.2086 -0.6774  0.6902
 3439TIP3    H210324   3.448   5.610   1.327 -1.2444 -0.9027  0.2958
 3440TIP3   OH210325   2.107   0.333   0.931 -0.2031  0.3666 -0.0771
 3440TIP3    H110326   2.179   0.393   0.912 -0.1860 -0.4544 -3.1024
 3440TIP3    H210327   2.030   0.375   0.892 -0.0638 -1.7539 -2.9371
 3441TIP3   OH210328   3.454   1.034   3.993 -0.6402  0.2558 -0.1337
 3441TIP3    H110329   3.420   0.945   3.995 -0.1299  0.0445 -0.5793
 3441TIP3    H210330   3.400   1.079   3.927 -0.9308  0.2904  0.1281
 3442TIP3   OH210331   0.901   0.661   1.617  0.0705 -0.0410  0.0036
 3442TIP3    H110332   0.922   0.729   1.552 -0.2794 -0.4562 -0.5578
 3442TIP3    H210333   0.835   0.701   1.673  1.1785  0.7199  0.8119
 3443TIP3   OH210334   0.525   0.086   3.051  0.8355 -0.5317 -0.6011
 3443TIP3    H110335   0.463   0.155   3.071  0.0119 -1.2606 -0.5817
 3443TIP3    H210336   0.553   0.053   3.136  0.3144 -1.0182 -0.6157
 3444TIP3   OH210337   6.017   0.865   1.267  0.1355 -0.3027  0.6040
 3444TIP3    H110338   5.923   0.878   1.251  0.3706  0.3021 -0.4086
 3444TIP3    H210339   6.021   0.813   1.347 -1.0824 -0.9625  0.2629
 3445TIP3   OH210340   3.549   0.910   3.289 -0.1939  0.0184  0.2026
 3445TIP3    H110341   3.606   0.840   3.323  0.6382  0.3353 -0.4958
 3445TIP3    H210342   3.568   0.913   3.196 -1.0516  0.4356  0.0340
 3446TIP3   OH210343   5.029   4.035   2.113  0.6838  0.0193  0.1842
 3446TIP3    H110344   5.090   4.006   2.045  0.6013 -0.9994  0.5357
 3446TIP3    H210345   4.979   3.957   2.135  0.6384  0.3677  1.3539
 3447TIP3   OH210346   5.441   0.335   0.259  0.7982 -0.4113  0.1022
 3447TIP3    H110347   5.508   0.354   0.194 -0.2968 -0.6562 -1.1420
 3447TIP3    H210348   5.368   0.298   0.209  0.0056 -0.8299  1.4989
 3448TIP3   OH210349   1.784   3.831   4.039  0.3698 -0.1856 -0.2139
 3448TIP3    H110350   1.785   3.927   4.041  0.1019 -0.2037  0.9298
 3448TIP3    H210351   1.768   3.810   3.946  0.0614  0.8730 -0.4172
 3449TIP3   OH210352   5.671   4.060   4.591 -0.0903  0.3370  0.1951
 3449TIP3    H110353   5.620   4.025   4.517  0.5333 -0.0563 -0.0542
 3449TIP3    H210354   5.646   4.003   4.665  0.6895 -0.4616 -0.1414
 3450TIP3   OH210355   5.110   3.119   4.141  0.5639 -0.2728 -0.5733
 3450TIP3    H110356   5.172   3.091   4.207 -1.5616 -0.9607  1.2540
 3450TIP3    H210357   5.045   3.170   4.189 -1.3685 -1.2612 -1.9873
 3451TIP3   OH210358   4.104   4.255   1.376 -0.1662  0.0780  0.0449
 3451TIP3    H110359   4.169   4.187   1.359 -1.4443 -0.6848 -2.2189
 3451TIP3    H210360   4.124   4.324   1.312  1.8440  2.5600  3.0393
 3452TIP3   OH210361   0.307   0.737   1.040  0.2077 -0.0786 -0.2504
 3452TIP3    H110362   0.297   0.654   0.993  0.3139  0.2511 -0.8723
 3452TIP3    H210363   0.219   0.774   1.042  0.3096  0.2154 -0.7919
 3453TIP3   OH210364   1.254   3.373   2.386  0.2993 -0.2127  0.0749
 3453TIP3    H110365   1.217   3.402   2.304 -0.8473 -1.0804  0.2570
 3453TIP3    H210366   1.218   3.285   2.400 -0.3285  0.2889  1.9770
 3454TIP3   OH210367   4.254   5.731   2.706 -0.7705  0.0721  0.8432
 3454TIP3    H110368   4.244   5.766   2.617 -4.3771 -0.2782  0.9797
 3454TIP3    H210369   4.261   5.636   2.693 -1.2194  0.0273  0.9357
 3455TIP3   OH210370   1.370   5.116   2.589  0.0309 -0.6908 -0.0112
 3455TIP3    H110371   1.388   5.024   2.569 -2.1601 -1.4349  1.1389
 3455TIP3    H210372   1.375   5.121   2.685  2.0333  0.8849 -0.1298
 3456TIP3   OH210373   3.738   0.052   0.589 -0.6299 -0.6938 -0.2539
 3456TIP3    H110374   3.795   0.015   0.521 -1.2388 -1.4050 -0.3820
 3456TIP3    H210375   3.769   0.013   0.670 -1.2775 -1.5194 -0.3899
 3457TIP3   OH210376   6.074   3.122   1.493 -0.0283 -0.1443  0.3196
 3457TIP3    H110377   5.992   3.116   1.542 -0.4655 -0.3435 -0.4271
 3457TIP3    H210378   6.103   3.212   1.505 -0.5419  0.0251  0.2977
 3458TIP3   OH210379   1.797   5.802   3.593  0.0952  0.4146  0.2450
 3458TIP3    H110380   1.728   5.864   3.572 -0.5641 -0.9164 -1.8239
 3458TIP3    H210381   1.752   5.720   3.612  1.0473 -0.2444 -0.2164
 3459TIP3   OH210382   4.151   3.381   5.081 -0.2663  0.3465 -1.3747
 3459TIP3    H110383   4.058   3.405   5.073 -0.1951  1.1878  0.0078
 3459TIP3    H210384   4.180   3.368   4.990 -1.7704 -0.1283 -1.8213
 3460TIP3   OH210385   2.894   1.731   4.847 -0.0439 -0.3779 -0.2789
 3460TIP3    H110386   2.816   1.787   4.842  1.0295  1.1455 -0.7129
 3460TIP3    H210387   2.888   1.691   4.934 -1.3873 -0.4352 -0.3671
 3461TIP3   OH210388   2.664   2.333   4.625 -0.3391  0.3703 -0.6751
 3461TIP3    H110389   2.692   2.308   4.537 -0.2993  0.9501 -0.8304
 3461TIP3    H210390   2.712   2.413   4.645  0.5668 -0.4033  0.3682
 3462TIP3   OH210391   4.884   0.507   1.175 -0.2270  0.9742 -0.2689
 3462TIP3    H110392   4.844   0.421   1.168  0.3619  0.6843 -0.1366
 3462TIP3    H210393   4.917   0.526   1.088  0.1417  0.8168 -0.1652
 3463TIP3   OH210394   6.052   3.545   2.423  0.3965  0.1880  0.1301
 3463TIP3    H110395   6.145   3.567   2.419 -0.1448  2.8991  0.6259
 3463TIP3    H210396   6.012   3.618   2.471 -2.1087 -0.4489 -0.8373
 3464TIP3   OH210397   1.797   1.131   0.575 -0.1661 -0.1764 -0.4317
 3464TIP3    H110398   1.770   1.040   0.581 -2.2240  0.4183 -0.1259
 3464TIP3    H210399   1.796   1.150   0.481  0.9121 -0.6053 -0.5552
 3465TIP3   OH210400   5.385   4.010   0.337 -0.1213 -0.2262 -0.2775
 3465TIP3    H110401   5.332   4.090   0.333  0.2407 -0.0221 -1.3089
 3465TIP3    H210402   5.465   4.032   0.290  1.1801 -0.3316  1.7789
 3466TIP3   OH210403   3.626   2.546   0.107 -0.1787  0.1588 -0.3126
 3466TIP3    H110404   3.705   2.543   0.053 -1.0325  1.9939 -1.7600
 3466TIP3    H210405   3.557   2.509   0.052 -0.2162 -2.5750  1.3654
 3467TIP3   OH210406  -0.024   3.254   0.186  0.4448 -0.2134 -0.6491
 3467TIP3    H110407   0.033   3.322   0.223 -0.4161  0.6872 -0.9150
 3467TIP3    H210408   0.023   3.172   0.199  2.4941  0.6401 -2.2179
 3468TIP3   OH210409   5.826   4.452   4.195 -0.4196  0.3445 -0.1314
 3468TIP3    H110410   5.912   4.429   4.159 -0.7703  1.7971 -1.9955
 3468TIP3    H210411   5.847   4.506   4.271  0.3130 -2.4544  1.8589
 3469TIP3   OH210412   0.603   4.296   2.033  0.0443 -0.4828  0.1768
 3469TIP3    H110413   0.690   4.270   2.002  0.6033 -0.4639  1.6604
 3469TIP3    H210414   0.582   4.234   2.102 -0.6623  0.1590  0.5572
 3470TIP3   OH210415   5.115   5.614   3.159 -0.0161 -0.0698  0.2964
 3470TIP3    H110416   5.172   5.629   3.083  0.8199  0.4839  1.0163
 3470TIP3    H210417   5.048   5.683   3.152 -0.9730 -1.0740 -0.8653
 3471TIP3   OH210418   2.195   4.399   4.251 -0.0982 -0.0393  0.3081
 3471TIP3    H110419   2.169   4.320   4.298  0.8126  0.7078  2.1735
 3471TIP3    H210420   2.177   4.470   4.313  0.8646  1.0326 -0.6093
 3472TIP3   OH210421   2.377   3.418   3.745  0.1307 -0.0073  0.2553
 3472TIP3    H110422   2.351   3.505   3.713  0.1476  0.7352  2.1377
 3472TIP3    H210423   2.352   3.359   3.674 -2.1286  1.2464 -0.1225
 3473TIP3   OH210424   5.551   4.286   0.069  0.1958 -0.1386 -0.4320
 3473TIP3    H110425   5.610   4.360   0.053  1.6479 -1.0025  0.6363
 3473TIP3    H210426   5.589   4.241   0.144 -1.4571 -1.1693 -0.1574
 3474TIP3   OH210427   5.328   1.770   2.671 -0.4100 -0.8503  0.0607
 3474TIP3    H110428   5.286   1.850   2.641  1.0834  0.5881  1.6052
 3474TIP3    H210429   5.318   1.771   2.766  1.2137 -1.5486  0.2764
 3475TIP3   OH210430   1.891   2.767   2.086 -0.0085  0.1663  0.6429
 3475TIP3    H110431   1.969   2.721   2.117  0.2747  0.4909  0.4178
 3475TIP3    H210432   1.857   2.811   2.164 -0.5128 -0.7321  0.9550
 3476TIP3   OH210433   5.416   0.932   0.773 -0.2452  0.5489 -0.5152
 3476TIP3    H110434   5.410   0.994   0.846 -0.4571 -1.8183  1.6067
 3476TIP3    H210435   5.330   0.892   0.767  0.3495 -0.7890 -0.6288
 3477TIP3   OH210436   3.662   3.330   3.572  0.2408  0.8398  0.5650
 3477TIP3    H110437   3.732   3.380   3.529 -0.6129  0.0466 -1.9557
 3477TIP3    H210438   3.582   3.364   3.533 -0.6309  0.1307  1.6824
 3478TIP3   OH210439   4.206   5.454   3.354  0.2501  0.1253  0.2492
 3478TIP3    H110440   4.150   5.495   3.288  0.7089 -1.2731 -1.0625
 3478TIP3    H210441   4.149   5.444   3.430 -0.3517  1.5920  0.0170
 3479TIP3   OH210442   5.584   0.657   4.293  0.0123  0.0745  0.2618
 3479TIP3    H110443   5.513   0.718   4.315 -1.3912 -1.5600  0.5189
 3479TIP3    H210444   5.654   0.678   4.355 -1.2612  0.0395  1.7811
 3480TIP3   OH210445   0.260   0.677   1.748 -0.0713 -0.1598  0.4300
 3480TIP3    H110446   0.280   0.677   1.841  0.7073  0.3725  0.2702
 3480TIP3    H210447   0.170   0.708   1.742 -0.2988 -0.6934  1.0354
 3481TIP3   OH210448   3.452   2.611   3.625 -0.5488 -0.5200  0.4538
 3481TIP3    H110449   3.387   2.565   3.572  0.4300 -1.1208 -0.2527
 3481TIP3    H210450   3.529   2.618   3.569 -0.3790  1.2745  0.8306
 3482TIP3   OH210451   3.848   3.199   4.679 -0.1874  0.3615  0.3541
 3482TIP3    H110452   3.845   3.295   4.681 -1.4842  0.3384  0.4804
 3482TIP3    H210453   3.785   3.172   4.746  0.1841 -0.5863  0.3334
 3483TIP3   OH210454   4.261   4.140   1.073  0.2865  0.2200 -0.9735
 3483TIP3    H110455   4.296   4.168   1.158  1.0175 -0.7443 -0.9439
 3483TIP3    H210456   4.334   4.095   1.031 -0.6387 -0.9863 -1.3188
 3484TIP3   OH210457   2.275   5.519   4.211  0.3599 -0.0293 -0.3770
 3484TIP3    H110458   2.243   5.462   4.281  1.4494 -0.4961 -0.2488
 3484TIP3    H210459   2.254   5.607   4.241 -2.0087 -0.3309 -0.8989
 3485TIP3   OH210460   1.766   2.204   1.975  0.2666  0.1432  0.3470
 3485TIP3    H110461   1.748   2.142   2.046 -0.7666 -0.7689 -0.6609
 3485TIP3    H210462   1.747   2.290   2.013 -0.1172 -0.3123  1.2194
 3486TIP3   OH210463   0.238   3.334   1.046 -0.3812 -0.3723  0.2735
 3486TIP3    H110464   0.232   3.423   1.014 -0.1675 -0.4704 -0.0406
 3486TIP3    H210465   0.311   3.335   1.108  0.0164 -0.4640 -0.1881
 3487TIP3   OH210466   1.300   4.167   0.141 -0.1846 -0.3575 -0.5065
 3487TIP3    H110467   1.283   4.230   0.071  1.3139 -0.8915 -1.3939
 3487TIP3    H210468   1.359   4.213   0.201 -1.1756 -0.0303  0.2512
 3488TIP3   OH210469   0.265   4.160   3.868 -0.0445  0.6165 -0.0465
 3488TIP3    H110470   0.291   4.252   3.859 -0.5536  0.8378  0.6296
 3488TIP3    H210471   0.185   4.163   3.921  0.4617 -0.2882  0.7921
 3489TIP3   OH210472   0.927   0.099   2.775 -0.0596 -0.0454  0.1433
 3489TIP3    H110473   0.858   0.161   2.799 -1.4169 -1.6216  0.5274
 3489TIP3    H210474   0.994   0.110   2.842 -0.1301  1.2038  0.0258
 3490TIP3   OH210475   0.421   4.490   3.551  0.0522 -0.4329 -0.1595
 3490TIP3    H110476   0.346   4.441   3.584  0.7318 -1.0207  0.5596
 3490TIP3    H210477   0.386   4.541   3.478 -1.8184  1.8706  2.1365
 3491TIP3   OH210478   1.587   1.400   4.827 -0.2997  0.1908  0.7992
 3491TIP3    H110479   1.537   1.465   4.877 -0.7344  1.2072 -0.8761
 3491TIP3    H210480   1.543   1.397   4.742  0.0026 -1.9795  0.6690
 3492TIP3   OH210481   1.573   1.797   2.689 -0.4663 -0.2043  0.3833
 3492TIP3    H110482   1.514   1.727   2.662 -1.6245  0.7199  0.4192
 3492TIP3    H210483   1.570   1.796   2.784  0.9507 -1.2652  0.4375
 3493TIP3   OH210484   3.832   0.059   3.338 -0.5855  0.1210  0.3448
 3493TIP3    H110485   3.907   0.024   3.291 -1.1279 -0.7727  0.1165
 3493TIP3    H210486   3.759   0.050   3.277 -1.1545 -0.3748  1.0749
 3494TIP3   OH210487   5.689   5.699   1.320 -0.9653 -0.3694 -0.7008
 3494TIP3    H110488   5.659   5.750   1.244 -0.2344 -0.4894 -1.0829
 3494TIP3    H210489   5.782   5.721   1.328 -0.7431 -1.2928 -0.5986
 3495TIP3   OH210490   3.018   4.861   1.497  0.1400 -0.0539  0.2220
 3495TIP3    H110491   3.063   4.927   1.444 -0.1219  1.4208  1.7321
 3495TIP3    H210492   2.980   4.800   1.433 -0.4212  1.7888 -1.2989
 3496TIP3   OH210493   5.496   4.729   2.769 -0.2350 -0.4703  0.0100
 3496TIP3    H110494   5.581   4.686   2.765 -0.6815 -1.4256  0.6192
 3496TIP3    H210495   5.515   4.820   2.746  0.4379 -1.3187 -3.4805
 3497TIP3   OH210496   4.032   2.608   5.094 -0.2986  0.1661  0.2301
 3497TIP3    H110497   4.073   2.526   5.068 -1.5922 -0.3989 -0.1440
 3497TIP3    H210498   4.008   2.650   5.011 -4.6942 -1.7685  0.2637
 3498TIP3   OH210499   0.379   0.260   1.632  0.1927 -0.3592 -0.5108
 3498TIP3    H110500   0.325   0.321   1.582  0.5267 -1.2042 -1.9586
 3498TIP3    H210501   0.455   0.311   1.658  0.2107 -0.0018 -1.2358
 3499TIP3   OH210502   1.517   1.852   2.022  0.1293 -0.2847 -0.0429
 3499TIP3    H110503   1.567   1.920   2.066 -1.5458  0.8122  0.2979
 3499TIP3    H210504   1.473   1.804   2.093 -2.9745  1.8044 -0.3116
 3500TIP3   OH210505   5.619   4.552   1.450 -0.5347 -0.1408 -0.5904
 3500TIP3    H110506   5.591   4.534   1.360 -0.2366  1.1498 -0.9604
 3500TIP3    H210507   5.590   4.476   1.500 -1.9201 -0.2564 -1.5263
 3501TIP3   OH210508   2.763   1.706   0.201  0.2142 -0.1416 -0.0760
 3501TIP3    H110509   2.809   1.780   0.240  1.1198  0.0313 -1.4080
 3501TIP3    H210510   2.812   1.687   0.121 -1.4082 -0.6633 -0.9838
 3502TIP3   OH210511   0.717   3.763   2.299 -0.0402  0.2570 -0.3370
 3502TIP3    H110512   0.660   3.763   2.222 -1.5597  1.1798  0.7278
 3502TIP3    H210513   0.703   3.676   2.338  1.7113 -0.7061 -1.7371
 3503TIP3   OH210514   2.137   5.962   4.625 -0.5659 -0.1251 -0.2955
 3503TIP3    H110515   2.166   5.991   4.711  3.1933  0.2767 -1.4683
 3503TIP3    H210516   2.127   5.867   4.634  1.0154 -0.2668  0.3845
 3504TIP3   OH210517   5.578   1.583   5.143 -0.2597  0.0701 -0.0332
 3504TIP3    H110518   5.659   1.610   5.185  0.5694 -2.1655 -0.0573
 3504TIP3    H210519   5.538   1.665   5.114 -0.4905  1.7403  4.2357
 3505TIP3   OH210520   2.073   0.608   4.889  0.0911 -0.5818 -0.0191
 3505TIP3    H110521   2.141   0.647   4.834  0.3749 -0.4499  0.4189
 3505TIP3    H210522   2.068   0.665   4.965 -0.2502 -0.8018  0.1266
 3506TIP3   OH210523   3.144   1.009   1.969  0.1574  0.1221  0.5892
 3506TIP3    H110524   3.183   1.065   2.037  1.0463 -2.0577  2.0042
 3506TIP3    H210525   3.074   0.963   2.014 -0.8839  0.4299 -0.6794
 3507TIP3   OH210526   0.587   5.166   2.093  0.2954 -0.1799  0.8321
 3507TIP3    H110527   0.637   5.213   2.159 -0.1109  0.9313  0.3672
 3507TIP3    H210528   0.512   5.222   2.074 -0.1556 -0.9698  0.1942
 3508TIP3   OH210529   6.152   5.843   4.012 -0.0567 -0.1508  0.2249
 3508TIP3    H110530   6.180   5.934   4.009 -0.3916  0.0249  1.6942
 3508TIP3    H210531   6.123   5.830   4.102  2.0958 -2.3043  0.7344
 3509TIP3   OH210532   6.250   4.696   0.346 -0.0554  0.4116  0.3891
 3509TIP3    H110533   6.324   4.636   0.361 -0.6306 -0.3687  0.1944
 3509TIP3    H210534   6.288   4.769   0.298  0.9292  0.8492  1.7641
 3510TIP3   OH210535   0.695   3.606   1.015 -0.1633  0.1748 -0.3439
 3510TIP3    H110536   0.666   3.606   1.107  0.7275 -0.3253 -0.0506
 3510TIP3    H210537   0.619   3.639   0.966 -0.6470  0.4644  0.5704
 3511TIP3   OH210538   0.334   4.315   0.492  0.2832  0.0134  0.6941
 3511TIP3    H110539   0.270   4.372   0.448 -0.0412 -1.8569 -1.4685
 3511TIP3    H210540   0.412   4.321   0.437  0.7934 -0.3583  1.3772
 3512TIP3   OH210541   2.413   3.182   0.124  0.6161  0.2514  0.2489
 3512TIP3    H110542   2.349   3.219   0.185 -1.3356 -0.2657 -1.3942
 3512TIP3    H210543   2.379   3.094   0.105  0.9818  0.5214 -1.8181
 3513TIP3   OH210544   2.277   0.708   0.879 -0.6107 -0.0715 -0.2309
 3513TIP3    H110545   2.196   0.677   0.919  0.0494 -0.3958  0.9110
 3513TIP3    H210546   2.327   0.744   0.952 -0.4961  1.8755 -1.1989
 3514TIP3   OH210547   3.507   2.125   4.445  0.4001  0.3684 -0.3182
 3514TIP3    H110548   3.516   2.195   4.509 -0.1342  0.1811 -0.0354
 3514TIP3    H210549   3.597   2.107   4.417  0.9135 -1.1444  2.0800
 3515TIP3   OH210550   0.728   5.782   3.391 -0.2385  0.0899  0.1135
 3515TIP3    H110551   0.812   5.741   3.407 -0.0874 -0.9794 -2.9151
 3515TIP3    H210552   0.743   5.875   3.408  1.1251 -0.2670  0.9796
 3516TIP3   OH210553   5.061   1.695   1.113  0.0912  0.2392 -0.2452
 3516TIP3    H110554   4.966   1.697   1.126  0.2559 -0.5249  1.2659
 3516TIP3    H210555   5.095   1.649   1.190  1.7415  0.9521 -0.5067
 3517TIP3   OH210556   3.795   4.385   2.399 -0.2259 -0.1691  0.3930
 3517TIP3    H110557   3.742   4.310   2.373  1.5947 -1.7136  0.8674
 3517TIP3    H210558   3.750   4.421   2.475 -1.3341 -0.5385 -0.0713
 3518TIP3   OH210559   2.875   4.958   2.393  0.2704 -0.2213 -0.4912
 3518TIP3    H110560   2.935   4.931   2.463  1.3482 -1.9434 -1.9665
 3518TIP3    H210561   2.933   4.987   2.323 -0.7899  1.5641 -0.6834
 3519TIP3   OH210562   6.180   1.304   4.223  0.0217 -0.3548  0.3718
 3519TIP3    H110563   6.155   1.254   4.301 -0.1964 -0.2716  0.3580
 3519TIP3    H210564   6.267   1.338   4.243 -0.0109 -0.3766  0.5597
 3520TIP3   OH210565   5.972   1.323   0.638  0.0740  0.1255 -0.3185
 3520TIP3    H110566   5.933   1.238   0.620  0.2965  0.1206 -0.8010
 3520TIP3    H210567   5.944   1.378   0.565  1.9741 -0.2130 -1.3757
 3521TIP3   OH210568   5.758   3.390   1.921  0.4941 -0.3232  0.3673
 3521TIP3    H110569   5.804   3.405   1.838 -0.1635 -2.2241 -0.3992
 3521TIP3    H210570   5.809   3.322   1.965  0.0362 -0.3728  0.8309
 3522TIP3   OH210571   2.392   5.772   0.479 -0.4319  0.1906  0.4542
 3522TIP3    H110572   2.401   5.693   0.426  2.1200  0.1907  0.7454
 3522TIP3    H210573   2.350   5.742   0.560  0.7462 -0.9602  0.6733
 3523TIP3   OH210574   5.114   0.719   0.331  0.3666 -0.8645 -0.2329
 3523TIP3    H110575   5.134   0.746   0.421 -1.1746 -0.4131 -0.0014
 3523TIP3    H210576   5.172   0.772   0.277 -1.1604  1.5068  0.3217
 3524TIP3   OH210577   2.029   1.283   0.622  0.0640 -0.0275  0.2983
 3524TIP3    H110578   1.948   1.247   0.587  0.9352 -2.1494  0.2858
 3524TIP3    H210579   2.003   1.360   0.671 -1.5877  1.1834 -2.2784
 3525TIP3   OH210580   0.747   4.191   3.848  0.1827 -0.4552  0.2060
 3525TIP3    H110581   0.773   4.225   3.934  2.0157 -1.6699  0.1889
 3525TIP3    H210582   0.695   4.113   3.868 -0.9624  0.2755  0.1950
 3526TIP3   OH210583   0.723   4.036   1.888 -0.0825 -0.2721  0.0847
 3526TIP3    H110584   0.648   4.036   1.946 -0.6520  1.5885 -0.5750
 3526TIP3    H210585   0.716   3.954   1.839 -2.0353  0.1255 -0.3667
 3527TIP3   OH210586   0.687   4.303   4.887 -0.3703  0.0870  0.3268
 3527TIP3    H110587   0.751   4.260   4.944 -0.7782  0.3322  0.9872
 3527TIP3    H210588   0.733   4.317   4.804  0.0020 -0.9302  0.3570
 3528TIP3   OH210589   0.352   2.134   3.807 -0.4273 -0.2604  0.6688
 3528TIP3    H110590   0.440   2.170   3.819  0.0661 -0.3050 -2.1184
 3528TIP3    H210591   0.309   2.147   3.891  1.1777  2.7683  1.1622
 3529TIP3   OH210592   5.803   3.160   0.165  0.7444 -0.0276  0.2773
 3529TIP3    H110593   5.720   3.123   0.133  0.6734  1.2981 -1.1547
 3529TIP3    H210594   5.870   3.102   0.129  0.7280  1.8345 -3.1417
 3530TIP3   OH210595   5.313   0.357   0.507  0.1424  0.0301 -0.1084
 3530TIP3    H110596   5.359   0.333   0.588 -0.3957 -1.7631 -0.2888
 3530TIP3    H210597   5.377   0.339   0.437 -0.3893 -1.3423 -0.2723
 3531TIP3   OH210598   0.318   4.364   4.120  0.7880 -0.1170 -0.7212
 3531TIP3    H110599   0.246   4.304   4.141  0.9467  0.0868  0.4849
 3531TIP3    H210600   0.303   4.387   4.028 -0.2441 -0.6824 -0.7179
 3532TIP3   OH210601   2.915   3.530   3.982  0.5545 -0.1147 -1.0344
 3532TIP3    H110602   3.000   3.488   3.977  0.9917 -0.2905  3.4840
 3532TIP3    H210603   2.931   3.611   4.030 -1.6321  0.5648 -1.3244
 3533TIP3   OH210604   1.770   2.783   0.324 -0.1836 -0.1999 -0.5520
 3533TIP3    H110605   1.695   2.740   0.363 -1.3962  0.2037 -2.3128
 3533TIP3    H210606   1.834   2.791   0.395 -1.3908 -1.4750  0.7214
 3534TIP3   OH210607   3.028   3.097   0.219  0.5336  0.2883 -1.0656
 3534TIP3    H110608   2.973   3.043   0.163  0.3198  0.5510 -1.1098
 3534TIP3    H210609   3.006   3.187   0.195 -0.8076  0.4535  0.6203
 3535TIP3   OH210610   5.700   5.651   3.323  0.0140 -0.1526  0.1589
 3535TIP3    H110611   5.790   5.683   3.336  0.0376 -0.7733  1.6556
 3535TIP3    H210612   5.650   5.729   3.302  1.0013  0.1228 -1.3781
 3536TIP3   OH210613   0.229   1.126   4.343  0.1168 -0.0527  0.4499
 3536TIP3    H110614   0.251   1.052   4.398 -0.7623 -0.2889  0.4982
 3536TIP3    H210615   0.148   1.100   4.298 -0.6918  1.1844  1.1101
 3537TIP3   OH210616   5.323   2.599   0.444  0.1949  0.2838  0.0524
 3537TIP3    H110617   5.320   2.551   0.361  0.0068  0.5645 -0.1028
 3537TIP3    H210618   5.233   2.623   0.461  0.1513 -0.2578  0.6287
 3538TIP3   OH210619   0.644   2.005   0.520 -0.0290  0.3459  0.2380
 3538TIP3    H110620   0.686   2.029   0.437  0.4883  0.9215  0.6594
 3538TIP3    H210621   0.550   2.014   0.502 -0.1095 -2.2442 -1.1133
 3539TIP3   OH210622   3.191   3.684   0.114 -0.0444 -0.4099  0.0492
 3539TIP3    H110623   3.232   3.716   0.033  0.1752 -1.6211 -0.3314
 3539TIP3    H210624   3.262   3.640   0.161 -0.3875 -0.5242  0.4613
 3540TIP3   OH210625   2.691   1.436   0.221 -0.6465  0.1137 -0.0152
 3540TIP3    H110626   2.687   1.531   0.226 -2.1723  0.1492 -1.3360
 3540TIP3    H210627   2.609   1.406   0.260 -0.1615 -0.6863  0.4238
 3541TIP3   OH210628   5.936   3.638   0.360  0.2193  0.5971 -0.4130
 3541TIP3    H110629   6.018   3.598   0.331  0.0215 -0.4212  0.4051
 3541TIP3    H210630   5.913   3.698   0.290  1.2598  0.3203 -1.0121
 3542TIP3   OH210631   1.900   4.784   1.796  0.3173  0.2998  0.1145
 3542TIP3    H110632   1.866   4.834   1.870 -0.8346  2.8197 -1.9518
 3542TIP3    H210633   1.924   4.851   1.731  0.1629 -1.7708 -2.2268
 3543TIP3   OH210634   4.436   1.756   5.097  0.7158  0.2973  0.6630
 3543TIP3    H110635   4.433   1.793   5.009 -1.6696 -0.1178  0.5036
 3543TIP3    H210636   4.438   1.662   5.083  0.8859  0.2421  1.0529
 3544TIP3   OH210637   3.834   5.145   4.838 -0.3063  0.2165  0.5495
 3544TIP3    H110638   3.915   5.177   4.798 -0.4173  1.4831  1.2821
 3544TIP3    H210639   3.854   5.054   4.863  0.2607 -0.0924 -0.9269
 3545TIP3   OH210640   3.595   5.496   3.207 -0.1334  0.5445  0.2728
 3545TIP3    H110641   3.601   5.565   3.273 -0.3405 -0.0851  0.9640
 3545TIP3    H210642   3.536   5.432   3.245 -0.2364  0.1571 -0.5220
 3546TIP3   OH210643   1.747   2.601   0.865  0.3351 -0.5586  0.1027
 3546TIP3    H110644   1.758   2.537   0.794 -0.3642  0.1654 -0.6878
 3546TIP3    H210645   1.786   2.559   0.941 -0.3534 -2.0591 -0.3211
 3547TIP3   OH210646   1.155   1.375   2.396 -0.3581 -0.3128  0.3057
 3547TIP3    H110647   1.141   1.467   2.375  0.4563 -0.2075  0.1871
 3547TIP3    H210648   1.138   1.368   2.490 -1.8189 -0.3377  0.0697
 3548TIP3   OH210649   3.667   5.838   2.324 -0.0311 -0.4642 -0.2788
 3548TIP3    H110650   3.659   5.872   2.412  1.1327  2.9077 -1.3339
 3548TIP3    H210651   3.589   5.870   2.278  0.4954 -0.2133 -1.0243
 3549TIP3   OH210652   2.783   0.778   4.711 -0.2830 -0.2634 -0.4030
 3549TIP3    H110653   2.832   0.808   4.635  0.9558 -1.7776 -0.2555
 3549TIP3    H210654   2.787   0.683   4.706 -0.4994 -0.4020  1.3579
 3550TIP3   OH210655   0.162   4.754   2.223 -0.3020 -0.3483  0.4202
 3550TIP3    H110656   0.164   4.708   2.139 -0.1316  1.4747 -0.6375
 3550TIP3    H210657   0.250   4.745   2.257 -0.1249 -0.3792 -0.0316
 3551TIP3   OH210658   2.362   5.314   4.044 -0.1148 -0.1879 -0.5964
 3551TIP3    H110659   2.316   5.383   4.092  0.9148 -0.2472  0.5243
 3551TIP3    H210660   2.455   5.328   4.064  0.1291 -1.8683 -0.3671
 3552TIP3   OH210661   3.277   3.475   4.211  0.1174 -0.2948  0.0627
 3552TIP3    H110662   3.307   3.544   4.152 -0.3182 -0.8524 -0.8262
 3552TIP3    H210663   3.338   3.403   4.196 -0.7377 -0.8842 -0.6318
 3553TIP3   OH210664   5.408   0.878   2.077  0.4096 -0.1137 -0.2718
 3553TIP3    H110665   5.344   0.910   2.014  0.1349  1.2570  0.6642
 3553TIP3    H210666   5.405   0.782   2.068  1.2739  0.0480 -3.1419
 3554TIP3   OH210667   3.683   2.232   2.846  0.6395 -0.0688 -0.7269
 3554TIP3    H110668   3.601   2.262   2.886  1.9964  3.1312 -0.0337
 3554TIP3    H210669   3.668   2.240   2.752  0.3918  1.3878 -0.5899
 3555TIP3   OH210670   6.304   0.867   3.239 -0.0884  0.0132  0.1533
 3555TIP3    H110671   6.380   0.881   3.295 -0.1918  3.3240 -0.3453
 3555TIP3    H210672   6.249   0.945   3.253  0.0577  1.2784 -4.6836
 3556TIP3   OH210673   3.414   4.872   2.167  0.0306  0.2016 -0.1178
 3556TIP3    H110674   3.379   4.831   2.088  1.0170  0.1881 -0.5618
 3556TIP3    H210675   3.415   4.965   2.147  0.1978  0.2068 -0.0847
 3557TIP3   OH210676   5.338   4.469   4.068 -0.2596  0.2152 -0.1526
 3557TIP3    H110677   5.393   4.393   4.088 -0.7818 -0.1313 -0.0212
 3557TIP3    H210678   5.272   4.469   4.136 -0.8692  0.1950 -0.7369
 3558TIP3   OH210679   4.610   1.676   2.200 -0.1085 -0.4042  0.0535
 3558TIP3    H110680   4.544   1.645   2.139  1.3329 -0.4575 -1.5768
 3558TIP3    H210681   4.594   1.628   2.281 -0.3197 -2.5324 -1.1995
 3559TIP3   OH210682   6.014   4.355   0.102  0.1168 -0.5332 -0.0263
 3559TIP3    H110683   6.018   4.443   0.139 -0.8795 -0.6704  0.4416
 3559TIP3    H210684   6.011   4.369   0.008  3.0097 -0.1884 -0.1578
 3560TIP3   OH210685   2.674   0.764   1.862 -0.3095  0.3096 -0.4547
 3560TIP3    H110686   2.762   0.732   1.844  0.1999  1.9444 -1.0896
 3560TIP3    H210687   2.628   0.755   1.779 -0.1809  1.1132 -0.6206
 3561TIP3   OH210688   5.822   4.110   4.219  0.1324  0.0709  0.1372
 3561TIP3    H110689   5.896   4.071   4.172 -1.0659 -1.1562 -0.7731
 3561TIP3    H210690   5.861   4.186   4.263  1.7747 -0.0538 -0.9711
 3562TIP3   OH210691   2.790   4.264   2.316  0.6346 -0.3125 -0.0102
 3562TIP3    H110692   2.738   4.185   2.307  1.4020 -0.6050 -3.7934
 3562TIP3    H210693   2.727   4.336   2.305 -0.0232 -0.2407  3.1991
 3563TIP3   OH210694   1.686   0.775   5.073  0.6247  0.5138  0.2635
 3563TIP3    H110695   1.746   0.788   5.146  0.4809  0.1422  0.4534
 3563TIP3    H210696   1.601   0.803   5.105  0.4868 -0.0216  0.3733
 3564TIP3   OH210697   3.596   1.320   0.615  0.3606 -0.5313  0.1351
 3564TIP3    H110698   3.686   1.343   0.638  0.1360 -0.8253  1.4146
 3564TIP3    H210699   3.597   1.225   0.604  0.2489 -0.5131 -0.0349
 3565TIP3   OH210700   6.190   2.681   1.378 -0.1395 -0.6852  0.2764
 3565TIP3    H110701   6.127   2.653   1.311  0.5375  1.7325 -1.5435
 3565TIP3    H210702   6.274   2.647   1.347  0.1251  0.1341  0.0731
 3566TIP3   OH210703   2.142   3.848   3.083 -0.0569 -0.0778 -0.2510
 3566TIP3    H110704   2.220   3.843   3.028  1.8646  2.1575  1.9810
 3566TIP3    H210705   2.101   3.930   3.057 -1.2795 -0.8791 -0.8958
 3567TIP3   OH210706   4.939   1.449   4.644  0.0479 -0.2074  0.0203
 3567TIP3    H110707   4.935   1.412   4.732  1.6455 -0.7883 -0.1092
 3567TIP3    H210708   5.005   1.396   4.599  0.6451  1.2902 -0.9421
 3568TIP3   OH210709   1.321   1.100   1.341 -0.3361  0.2630 -0.1106
 3568TIP3    H110710   1.287   1.014   1.366  1.3419 -0.0579  1.1713
 3568TIP3    H210711   1.243   1.156   1.338 -1.1134 -0.6359  1.8968
 3569TIP3   OH210712   4.221   2.947   1.641 -0.2535 -0.5426 -0.0300
 3569TIP3    H110713   4.198   2.920   1.552  0.5289 -1.0210 -0.0998
 3569TIP3    H210714   4.186   2.878   1.697 -0.2361 -0.5415 -0.0178
 3570TIP3   OH210715   5.785   3.159   2.597  0.1321  0.1161  0.0947
 3570TIP3    H110716   5.828   3.081   2.634 -0.6134  0.2083  1.2192
 3570TIP3    H210717   5.857   3.220   2.581  0.8164 -1.0138 -1.4373
 3571TIP3   OH210718   3.690   2.750   2.224  0.3898  0.0128  0.1445
 3571TIP3    H110719   3.773   2.794   2.245  1.1588 -1.7418  0.9642
 3571TIP3    H210720   3.679   2.764   2.130  1.2514  0.8532  0.1519
 3572TIP3   OH210721   2.585   2.920   2.923 -0.2772 -0.7529 -0.3618
 3572TIP3    H110722   2.571   2.873   2.840 -1.1430 -1.7205  0.3015
 3572TIP3    H210723   2.529   2.997   2.917 -0.0227 -0.6036 -0.8418
 3573TIP3   OH210724   0.557   4.421   2.468  0.0189  0.2470  0.5615
 3573TIP3    H110725   0.504   4.490   2.510  1.5406 -0.1690  3.3937
 3573TIP3    H210726   0.546   4.437   2.374 -4.6118  0.5259  0.8947
 3574TIP3   OH210727   2.546   3.608   1.113  0.4467  0.0084 -0.1602
 3574TIP3    H110728   2.635   3.640   1.096  0.3667  1.7816  2.1834
 3574TIP3    H210729   2.558   3.520   1.149  1.2237  0.0861 -0.2149
 3575TIP3   OH210730   3.145   4.974   1.070  0.2413 -0.5038 -0.2218
 3575TIP3    H110731   3.209   4.909   1.101 -1.3082 -1.8564  0.3227
 3575TIP3    H210732   3.175   5.057   1.105  1.2937 -1.2303  0.6409
 3576TIP3   OH210733   0.278   1.113   1.099  0.4819  0.1981 -0.5697
 3576TIP3    H110734   0.270   1.193   1.153  1.6139 -0.6035  0.8450
 3576TIP3    H210735   0.208   1.122   1.034  0.7791  2.4982 -0.6747
 3577TIP3   OH210736   5.751   0.491   0.462  0.1263 -1.0215 -0.2563
 3577TIP3    H110737   5.781   0.493   0.553 -0.6895 -0.0123  0.0211
 3577TIP3    H210738   5.684   0.423   0.461  0.1945 -1.0927 -0.1185
 3578TIP3   OH210739   3.684   2.380   4.119  0.2044 -0.0234 -0.0445
 3578TIP3    H110740   3.733   2.330   4.185  0.6370 -1.8187 -1.6197
 3578TIP3    H210741   3.603   2.330   4.107  0.2948  0.0728 -1.1116
 3579TIP3   OH210742   2.192   2.239   3.695  0.5563 -0.2663 -0.4158
 3579TIP3    H110743   2.160   2.315   3.743 -3.8524 -0.1803 -2.9350
 3579TIP3    H210744   2.156   2.164   3.742 -1.4362 -0.3031 -1.8700
 3580TIP3   OH210745   0.983   0.978   1.714 -0.0257  0.0839 -0.0536
 3580TIP3    H110746   0.904   1.017   1.752  1.2482  2.8154  0.0567
 3580TIP3    H210747   1.055   1.031   1.749  1.8015 -1.7440 -0.8411
 3581TIP3   OH210748   3.203   2.126   2.923 -0.2144  0.2492  0.3670
 3581TIP3    H110749   3.148   2.163   2.993  2.4567  1.2962  2.0579
 3581TIP3    H210750   3.282   2.179   2.924  0.0568  0.2130 -3.4430
 3582TIP3   OH210751   4.613   2.405   3.383 -0.2761  0.3238  0.3386
 3582TIP3    H110752   4.584   2.316   3.361 -0.1994  0.5376 -0.6274
 3582TIP3    H210753   4.664   2.433   3.308  2.5153 -0.0397  1.9557
 3583TIP3   OH210754   5.254   1.061   0.995  0.4168  0.2001  0.5368
 3583TIP3    H110755   5.166   1.033   1.017  0.5829  0.5717  1.7369
 3583TIP3    H210756   5.256   1.155   1.016  0.2274  0.9263 -2.2482
 3584TIP3   OH210757   0.249   0.150   0.530  0.1959  0.9519 -0.2228
 3584TIP3    H110758   0.154   0.147   0.544  0.2720  0.1331  0.2589
 3584TIP3    H210759   0.263   0.218   0.466 -0.6822  1.4183  0.0718
 3585TIP3   OH210760   1.614   5.189   4.016 -0.1713 -0.1018 -0.4964
 3585TIP3    H110761   1.543   5.191   3.953 -1.4143 -0.5156  0.8156
 3585TIP3    H210762   1.595   5.112   4.071  1.2804 -0.2134 -0.0866
 3586TIP3   OH210763   1.275   3.430   4.255  0.8498  0.7353  0.0267
 3586TIP3    H110764   1.243   3.399   4.171  1.3766 -0.9769  0.4264
 3586TIP3    H210765   1.251   3.523   4.257 -2.4309  0.0178 -0.4472
 3587TIP3   OH210766   4.947   4.575   1.035 -0.2341 -0.1180 -0.2062
 3587TIP3    H110767   4.941   4.514   1.109 -0.2113 -0.3256 -0.3759
 3587TIP3    H210768   4.856   4.598   1.016 -0.4561 -2.0181 -1.7339
 3588TIP3   OH210769   6.005   1.506   4.353 -0.4612  0.1939 -0.1011
 3588TIP3    H110770   6.061   1.529   4.427  0.6196  0.1394 -0.8752
 3588TIP3    H210771   6.065   1.467   4.289 -1.1092  1.5170 -1.5851
 3589TIP3   OH210772   2.884   2.732   0.311 -0.7708 -0.1148  0.2726
 3589TIP3    H110773   2.934   2.795   0.258  0.4214 -1.3657 -0.1357
 3589TIP3    H210774   2.822   2.787   0.360  0.7224  1.4642  0.5005
 3590TIP3   OH210775   4.139   4.421   3.458  0.3125 -0.3775 -0.7187
 3590TIP3    H110776   4.182   4.345   3.417 -0.0715 -0.5641 -0.7758
 3590TIP3    H210777   4.129   4.484   3.386  1.4971  0.1192 -0.4728
 3591TIP3   OH210778   5.071   0.007   4.355 -0.4771 -0.0622 -0.1254
 3591TIP3    H110779   5.037   0.075   4.296  2.4395  0.0965 -1.8541
 3591TIP3    H210780   5.088   0.053   4.437  0.3744  1.0936 -0.9112
 3592TIP3   OH210781   2.622   4.828   1.843 -0.5122 -0.8414  0.2944
 3592TIP3    H110782   2.700   4.832   1.787 -0.3290 -1.1775  0.5201
 3592TIP3    H210783   2.583   4.915   1.835 -0.8700 -1.0877 -0.8931
 3593TIP3   OH210784   4.808   1.479   3.593 -0.0043 -0.2949 -0.1395
 3593TIP3    H110785   4.738   1.441   3.647 -0.1146 -1.1680 -0.8743
 3593TIP3    H210786   4.814   1.570   3.622 -1.4499 -0.1963 -0.0651
 3594TIP3   OH210787   1.076   4.352   4.054  0.2407 -0.1534  0.0200
 3594TIP3    H110788   1.113   4.296   3.986  1.5335  0.1574  0.4399
 3594TIP3    H210789   1.139   4.349   4.126 -0.8781 -0.1282  1.0502
 3595TIP3   OH210790   5.469   4.197   1.349 -0.7815  0.3035  0.2704
 3595TIP3    H110791   5.537   4.171   1.412 -1.0376 -0.2950  0.3104
 3595TIP3    H210792   5.388   4.160   1.384 -0.9897  0.2862 -0.2157
 3596TIP3   OH210793   4.328   1.727   1.234 -0.6010 -0.7025  0.0629
 3596TIP3    H110794   4.423   1.740   1.224 -0.5519 -0.1737  1.1415
 3596TIP3    H210795   4.300   1.694   1.149  0.3148  0.5571 -0.7681
 3597TIP3   OH210796   5.260   2.605   4.497  0.0895 -0.7835  0.2026
 3597TIP3    H110797   5.286   2.517   4.470  3.4744 -0.3197  1.4609
 3597TIP3    H210798   5.168   2.596   4.523  0.0343 -3.6766 -0.6752
 3598TIP3   OH210799   1.161   2.094   1.779 -0.4295 -0.2612 -0.2442
 3598TIP3    H110800   1.114   2.017   1.812 -1.5964 -0.2869 -1.8463
 3598TIP3    H210801   1.250   2.084   1.812 -0.7556 -1.8998  0.2177
 3599TIP3   OH210802   6.137   1.668   1.770  0.5568  0.1057  0.6111
 3599TIP3    H110803   6.068   1.674   1.705 -0.1577  0.3579  1.3795
 3599TIP3    H210804   6.143   1.575   1.790 -0.1780  0.1723  1.1817
 3600TIP3   OH210805   4.861   5.866   4.927  0.1837  0.2057 -0.4506
 3600TIP3    H110806   4.804   5.943   4.917  0.2428  0.7765  2.5642
 3600TIP3    H210807   4.940   5.889   4.879 -0.5528  1.1825 -1.2430
 3601TIP3   OH210808   2.486   4.403   0.128  0.0794  0.0663  0.1093
 3601TIP3    H110809   2.550   4.337   0.152 -1.9488 -1.8318  0.6051
 3601TIP3    H210810   2.418   4.355   0.080 -2.3275  1.3700  1.9655
 3602TIP3   OH210811   3.519   3.345   4.732  0.2060 -0.2980  0.0568
 3602TIP3    H110812   3.470   3.264   4.752 -0.1937  0.2005  1.1748
 3602TIP3    H210813   3.462   3.415   4.763 -0.7590  0.6564 -3.4026
 3603TIP3   OH210814   6.225   4.157   0.366 -0.1433  0.7620 -0.4475
 3603TIP3    H110815   6.309   4.145   0.411 -0.8404 -0.5080  0.5814
 3603TIP3    H210816   6.190   4.239   0.400  0.6674  1.2959 -0.8785
 3604TIP3   OH210817   1.741   1.293   0.366  0.3958 -0.0473 -0.0321
 3604TIP3    H110818   1.720   1.371   0.314  1.0725  1.6006  2.0420
 3604TIP3    H210819   1.682   1.297   0.441  2.0151 -0.1851  1.3218
 3605TIP3   OH210820   5.448   0.356   4.351 -0.2177  0.1231 -0.3986
 3605TIP3    H110821   5.430   0.429   4.411  0.7521  0.4085 -0.4454
 3605TIP3    H210822   5.455   0.397   4.265 -0.5350 -0.1493 -0.5588
 3606TIP3   OH210823   5.139   3.125   4.765 -0.2294 -0.9091  0.2879
 3606TIP3    H110824   5.169   3.102   4.676 -1.3542 -0.3321 -0.2584
 3606TIP3    H210825   5.160   3.218   4.774  0.2527 -1.0641  0.7924
 3607TIP3   OH210826   3.461   0.148   2.680 -0.3624  0.1539  0.2259
 3607TIP3    H110827   3.453   0.155   2.585 -0.6853 -1.7357  0.0765
 3607TIP3    H210828   3.381   0.105   2.708  0.4484 -0.8400  1.1361
 3608TIP3   OH210829   5.055   1.232   5.136  0.2168 -0.2548  0.0316
 3608TIP3    H110830   5.057   1.160   5.198  1.0024 -0.6923 -0.4849
 3608TIP3    H210831   5.116   1.206   5.067 -0.0380  0.5762 -0.5240
 3609TIP3   OH210832   2.505   2.149   4.739  0.4968  0.0270 -0.3075
 3609TIP3    H110833   2.429   2.147   4.682 -0.1931 -0.3362  0.5963
 3609TIP3    H210834   2.571   2.198   4.690 -0.3906  0.5437 -1.0115
 3610TIP3   OH210835   3.379   3.276  -0.021  0.5706 -0.2108 -0.3924
 3610TIP3    H110836   3.378   3.257   0.073  0.4754 -0.1869 -0.3887
 3610TIP3    H210837   3.295   3.319  -0.038  0.3539 -0.7079 -0.5920
 3611TIP3   OH210838   4.743   0.710   0.179  0.0743  0.3984  0.4667
 3611TIP3    H110839   4.665   0.766   0.181 -0.2756 -0.0896  0.8631
 3611TIP3    H210840   4.725   0.646   0.109  0.5751  0.9137 -0.1463
 3612TIP3   OH210841   0.740   1.053   1.825 -0.0816  0.3615 -0.5905
 3612TIP3    H110842   0.717   1.124   1.764  0.4458  2.3158  1.3434
 3612TIP3    H210843   0.667   1.050   1.887 -0.5975 -1.5710 -1.2233
 3613TIP3   OH210844   6.054   5.118   4.360 -0.2785  0.3027  0.0377
 3613TIP3    H110845   5.981   5.158   4.406  2.5456  1.3440  4.2776
 3613TIP3    H210846   6.051   5.026   4.385  0.7441  0.6964  1.7776
 3614TIP3   OH210847   5.826   5.963   1.102 -0.5694 -0.5100 -0.3122
 3614TIP3    H110848   5.900   5.971   1.042 -0.6966  0.0909 -0.3973
 3614TIP3    H210849   5.798   5.872   1.094  0.0293 -0.6869 -0.4319
 3615TIP3   OH210850   4.033   5.304   0.792 -0.3367  0.2768  0.5546
 3615TIP3    H110851   4.077   5.373   0.842  1.0495 -0.5570  0.5042
 3615TIP3    H210852   4.028   5.230   0.852  1.8063 -0.9140 -0.6274
 3616TIP3   OH210853   0.873   4.338   4.686  0.0872 -0.0619 -0.0185
 3616TIP3    H110854   0.949   4.396   4.691 -0.2216  0.3355  0.1227
 3616TIP3    H210855   0.817   4.377   4.619 -0.0555 -0.2792 -0.0269
 3617TIP3   OH210856   2.215   1.603   1.539 -0.2526 -0.1562  0.2360
 3617TIP3    H110857   2.250   1.521   1.505 -0.0547  0.0146  0.0283
 3617TIP3    H210858   2.217   1.592   1.634  0.1201 -0.2439  0.2167
 3618TIP3   OH210859   2.938   0.417   2.450  0.0678 -0.2562 -0.2584
 3618TIP3    H110860   2.924   0.469   2.371 -0.5933 -0.7713 -0.4936
 3618TIP3    H210861   2.865   0.355   2.451  1.9248 -2.6098 -1.1413
 3619TIP3   OH210862   1.494   2.988   1.271  0.2951 -0.6069  0.6079
 3619TIP3    H110863   1.455   2.983   1.184  1.4754 -3.1846  0.1434
 3619TIP3    H210864   1.429   3.036   1.323 -1.1940 -0.4475 -1.2702
 3620TIP3   OH210865   5.400   0.810   3.218  0.2412  0.1408  0.6533
 3620TIP3    H110866   5.341   0.760   3.162 -0.3126  1.6517 -0.1504
 3620TIP3    H210867   5.353   0.891   3.237  1.8064  1.1261  0.4850
 3621TIP3   OH210868   0.463   5.502   1.245  0.0231  0.8068 -0.4485
 3621TIP3    H110869   0.525   5.568   1.215  0.8910 -0.6202 -1.9435
 3621TIP3    H210870   0.446   5.448   1.168 -2.5390  0.7051  0.1099
 3622TIP3   OH210871   0.154   1.794   0.291 -0.2273  0.2483 -0.3346
 3622TIP3    H110872   0.081   1.755   0.339 -0.6883  0.8495 -0.5449
 3622TIP3    H210873   0.176   1.730   0.224  0.5614 -0.7062  0.7912
 3623TIP3   OH210874   4.457   3.141   0.563 -0.8799 -0.2724 -0.0494
 3623TIP3    H110875   4.397   3.086   0.614 -0.7366  0.4306  0.8922
 3623TIP3    H210876   4.403   3.212   0.529 -0.8743 -0.4670 -0.4776
 3624TIP3   OH210877   6.240   4.367   1.106 -0.2493 -0.2909  0.6582
 3624TIP3    H110878   6.305   4.386   1.039 -0.3449 -2.1518 -0.0298
 3624TIP3    H210879   6.197   4.451   1.122  0.4834  0.4150 -0.8447
 3625TIP3   OH210880   1.052   2.696   2.767  0.3892  0.2774  0.3698
 3625TIP3    H110881   1.043   2.620   2.825  0.3260  0.0417  0.0489
 3625TIP3    H210882   1.145   2.720   2.774  0.3499  0.3507  0.6910
 3626TIP3   OH210883   4.633   3.669   3.056 -0.1194  0.0475  0.4960
 3626TIP3    H110884   4.704   3.712   3.105  1.2136 -1.9713  0.4356
 3626TIP3    H210885   4.558   3.672   3.114  0.3438  1.1293  1.0738
 3627TIP3   OH210886   3.015   2.402   2.755  0.0292 -0.3694 -0.4290
 3627TIP3    H110887   2.990   2.316   2.722 -0.1396 -0.4747 -0.0319
 3627TIP3    H210888   3.111   2.399   2.759  0.1322  0.0106 -1.8887
 3628TIP3   OH210889   3.579   0.177   5.063 -0.2981 -0.1319  0.1085
 3628TIP3    H110890   3.649   0.193   5.000 -1.2085 -0.3451 -0.9739
 3628TIP3    H210891   3.610   0.102   5.115 -0.3785 -1.2325 -1.3779
 3629TIP3   OH210892   1.402   1.929   0.104  0.2467 -0.2874 -0.7276
 3629TIP3    H110893   1.353   2.005   0.135 -0.0729 -0.0073 -1.8826
 3629TIP3    H210894   1.360   1.905   0.021  0.7554 -1.3244 -0.7005
 3630TIP3   OH210895   1.943   4.769   0.340 -0.2370  0.0423  0.1793
 3630TIP3    H110896   1.908   4.695   0.291  0.2013 -0.0037 -0.0733
 3630TIP3    H210897   2.000   4.729   0.406 -1.5325  0.0446  1.3517
 3631TIP3   OH210898   2.292   3.743   1.781 -0.0848 -0.6253 -0.3100
 3631TIP3    H110899   2.232   3.701   1.720 -0.1005 -0.8440 -0.1451
 3631TIP3    H210900   2.243   3.749   1.863 -0.6266  1.0735 -0.7182
 3632TIP3   OH210901   5.762   3.541   4.053  0.3747 -0.5042 -0.6371
 3632TIP3    H110902   5.851   3.506   4.061  1.2293  1.8053  0.8733
 3632TIP3    H210903   5.765   3.594   3.973  0.4966 -0.0879 -0.3595
 3633TIP3   OH210904   5.604   1.097   2.932 -0.1579 -0.0166 -0.9836
 3633TIP3    H110905   5.628   1.049   3.011 -1.0226  0.5439 -0.3567
 3633TIP3    H210906   5.633   1.041   2.860  0.4019 -0.6618 -0.2738
 3634TIP3   OH210907   2.947   4.187   0.569  0.3338  0.1174  0.3619
 3634TIP3    H110908   2.950   4.282   0.584  0.0419  0.3894 -1.1561
 3634TIP3    H210909   3.015   4.171   0.504 -1.1744 -0.3224 -1.1914
 3635TIP3   OH210910   5.798   2.042   1.149  0.4452 -0.2805  0.3559
 3635TIP3    H110911   5.721   2.048   1.205  1.7233  1.0341  2.0880
 3635TIP3    H210912   5.850   1.971   1.188  0.1713 -1.1143 -0.7537
 3636TIP3   OH210913   2.740   2.532   1.250  0.8474 -0.0860  0.4193
 3636TIP3    H110914   2.748   2.469   1.178  0.3186  0.5573 -0.2205
 3636TIP3    H210915   2.758   2.481   1.328  1.2099 -0.8578 -0.1523
 3637TIP3   OH210916   2.988   0.187   1.070  0.6300  0.2255  0.0634
 3637TIP3    H110917   2.967   0.253   1.005 -0.3730  0.4735  0.6140
 3637TIP3    H210918   3.032   0.117   1.021  0.4168  0.6636 -0.7619
 3638TIP3   OH210919   3.556   1.245   0.319  0.2251 -0.4521  0.3220
 3638TIP3    H110920   3.479   1.190   0.303 -1.2048  1.1609  1.3601
 3638TIP3    H210921   3.603   1.201   0.389  0.6560 -1.7984 -0.7609
 3639TIP3   OH210922   1.783   3.454   2.420  0.3145 -0.2620  0.3425
 3639TIP3    H110923   1.875   3.481   2.425  0.1647  0.0579  1.5388
 3639TIP3    H210924   1.766   3.411   2.503 -0.8951  0.5657  0.5403
 3640TIP3   OH210925   3.675   1.012   4.172  0.8424  0.6151 -0.2184
 3640TIP3    H110926   3.596   1.048   4.131  1.0478  0.6653 -0.5778
 3640TIP3    H210927   3.741   1.080   4.159  0.5722  1.2181  1.4023
 3641TIP3   OH210928   1.625   4.606   3.146  0.0436 -0.3558  0.0701
 3641TIP3    H110929   1.550   4.662   3.124 -0.8402 -1.1457  0.9456
 3641TIP3    H210930   1.589   4.543   3.209  1.5046 -0.6386  0.6456
 3642TIP3   OH210931   1.358   3.598   0.780 -0.3713  0.4437 -0.4927
 3642TIP3    H110932   1.302   3.611   0.704 -0.7561 -0.7442 -0.4329
 3642TIP3    H210933   1.330   3.514   0.817  0.2792  0.6607  0.5520
 3643TIP3   OH210934   4.733   0.086   0.915 -0.0876  0.4731 -0.2199
 3643TIP3    H110935   4.757  -0.001   0.882  0.2591 -0.0592  1.3396
 3643TIP3    H210936   4.658   0.070   0.972 -0.6740  1.3679 -0.7081
 3644TIP3   OH210937   5.399   4.716   4.833 -0.0979  0.0294 -0.2844
 3644TIP3    H110938   5.429   4.649   4.771  1.3346  1.4673 -1.2418
 3644TIP3    H210939   5.345   4.774   4.780 -0.0610  0.4796  0.1697
 3645TIP3   OH210940   6.213   4.621   4.459 -0.3067  0.5162 -1.0096
 3645TIP3    H110941   6.291   4.595   4.410 -0.9189 -2.0592 -0.7302
 3645TIP3    H210942   6.182   4.541   4.500 -1.9436  1.8764  0.5945
 3646TIP3   OH210943   4.333   0.346   2.704  0.1760 -0.7924  0.1440
 3646TIP3    H110944   4.306   0.437   2.719  0.1826 -0.8088  0.2539
 3646TIP3    H210945   4.320   0.333   2.610  1.8847 -0.1040 -0.2301
 3647TIP3   OH210946   2.512   0.844   4.771  0.1128 -0.5467  0.4616
 3647TIP3    H110947   2.600   0.806   4.761 -0.1168 -0.5635 -2.8104
 3647TIP3    H210948   2.519   0.930   4.730 -1.3791 -0.5284  0.1866
 3648TIP3   OH210949   5.635   0.542   0.796  0.4765  0.1486 -0.2910
 3648TIP3    H110950   5.672   0.519   0.881 -1.9469 -0.1793  0.7536
 3648TIP3    H210951   5.636   0.638   0.796 -0.8917  0.1885  0.8000
 3649TIP3   OH210952   5.955   3.960   0.615  0.1647 -0.2850 -0.0985
 3649TIP3    H110953   6.014   4.028   0.648 -1.7314  1.4002  0.0282
 3649TIP3    H210954   6.001   3.878   0.631  1.4478  0.7855  2.1615
 3650TIP3   OH210955   3.464   1.124   1.855 -0.4872  0.2376  0.1272
 3650TIP3    H110956   3.492   1.043   1.898 -0.7345  0.2697  0.3509
 3650TIP3    H210957   3.408   1.167   1.920 -0.0627  0.7648  0.1531
 3651TIP3   OH210958   1.586   5.033   2.867 -0.0836  0.3614 -0.1876
 3651TIP3    H110959   1.644   5.064   2.936 -0.6217  0.8151  0.0685
 3651TIP3    H210960   1.498   5.039   2.904 -0.3715  0.4926 -0.8666
 3652TIP3   OH210961   6.208   3.774   0.409 -0.1848  0.1562 -0.2450
 3652TIP3    H110962   6.225   3.868   0.409 -0.4558  0.2128  0.5125
 3652TIP3    H210963   6.260   3.740   0.337  0.9027  0.7115  0.2619
 3653TIP3   OH210964   6.252   2.323   3.208  0.0817  0.3415  0.0838
 3653TIP3    H110965   6.233   2.262   3.279 -0.5056  0.3767 -0.0419
 3653TIP3    H210966   6.298   2.395   3.251 -0.0727  0.2574  0.3943
 3654TIP3   OH210967   2.214   3.985   3.342 -0.5763 -0.3966 -0.6740
 3654TIP3    H110968   2.308   4.000   3.336 -0.3557 -0.5935  1.5235
 3654TIP3    H210969   2.190   3.949   3.257  1.9133 -3.4461 -0.2511
 3655TIP3   OH210970   0.041   4.773   2.976 -0.1198 -0.6937  0.8987
 3655TIP3    H110971  -0.054   4.774   2.982 -0.2455  0.1304 -0.7061
 3655TIP3    H210972   0.062   4.683   2.950 -0.2758 -1.3966  2.9983
 3656TIP3   OH210973   0.205   1.556   2.841 -0.3162 -0.1627  0.4763
 3656TIP3    H110974   0.272   1.613   2.879  0.7687 -0.2520 -1.2068
 3656TIP3    H210975   0.129   1.613   2.830  0.3707  0.6754 -0.0718
 3657TIP3   OH210976   2.024   2.359   0.541  0.1413  0.5324 -0.0122
 3657TIP3    H110977   2.066   2.272   0.545 -1.0179 -0.0737  4.3763
 3657TIP3    H210978   2.097   2.420   0.532  1.3452 -0.7718  0.4750
 3658TIP3   OH210979   3.210   0.807   5.169  0.1036  0.0297 -0.3352
 3658TIP3    H110980   3.294   0.850   5.184  0.4745 -0.6318 -0.4862
 3658TIP3    H210981   3.222   0.757   5.088 -0.7848  0.8034 -0.9670
 3659TIP3   OH210982   0.253   0.634   5.056 -0.4425  0.2780  0.4722
 3659TIP3    H110983   0.196   0.563   5.025 -1.3251  1.5016 -0.8138
 3659TIP3    H210984   0.342   0.602   5.040 -0.7234 -1.4886  2.1071
 3660TIP3   OH210985   1.939   2.515   5.036 -0.4152 -0.1506  0.0311
 3660TIP3    H110986   1.848   2.499   5.061 -0.6082 -1.3665 -1.3553
 3660TIP3    H210987   1.989   2.453   5.088 -0.7033 -1.7655 -1.5269
 3661TIP3   OH210988   5.176   4.463   3.506  0.1902  0.2849  0.3040
 3661TIP3    H110989   5.105   4.411   3.544 -0.5013  0.5757 -0.5541
 3661TIP3    H210990   5.246   4.459   3.571 -1.5751  2.2903  2.5459
 3662TIP3   OH210991   3.943   3.816   0.153  0.6938  0.3564 -0.0233
 3662TIP3    H110992   4.032   3.787   0.172  0.3972  0.6061  2.0422
 3662TIP3    H210993   3.889   3.769   0.217 -0.3269  2.1118  0.4758
 3663TIP3   OH210994   4.720   3.194   4.041  0.1338 -0.3980 -0.3823
 3663TIP3    H110995   4.750   3.279   4.008  0.5040 -1.1537 -2.0931
 3663TIP3    H210996   4.718   3.205   4.136  0.5130  1.4095 -0.5444
 3664TIP3   OH210997   5.193   1.356   0.055  0.1655  0.1935  0.5953
 3664TIP3    H110998   5.169   1.423  -0.009 -0.8690 -1.0590 -0.3662
 3664TIP3    H210999   5.117   1.299   0.061  1.5206 -1.7772  0.2643
 3665TIP3   OH211000   3.916  -0.005   0.791 -0.3976 -0.1195  0.1946
 3665TIP3    H111001   3.957   0.082   0.788  0.9352 -0.6991  0.6221
 3665TIP3    H211002   3.903  -0.022   0.885 -2.3201  0.3410  0.0381
 3666TIP3   OH211003   1.361   5.400   3.072 -0.1217  0.0108 -0.2957
 3666TIP3    H111004   1.430   5.379   3.009 -1.0335 -3.1567 -0.4333
 3666TIP3    H211005   1.404   5.394   3.157  0.1531 -0.3198 -0.4533
 3667TIP3   OH211006   3.540   1.568   3.004  0.5651  0.2461  0.4570
 3667TIP3    H111007   3.578   1.614   2.929  1.5144 -0.4524  0.4826
 3667TIP3    H211008   3.610   1.569   3.070 -0.1089  0.4809  1.1848
 3668TIP3   OH211009   2.033   5.950   2.062  0.3129  0.1378  0.2464
 3668TIP3    H111010   1.945   5.979   2.087  0.5725 -0.1186  1.4818
 3668TIP3    H211011   2.026   5.934   1.968 -1.0204 -0.0959  0.3664
 3669TIP3   OH211012   0.533   2.006   4.325 -0.3341 -0.6687 -0.6647
 3669TIP3    H111013   0.562   2.097   4.319 -2.0102  0.0528  1.0206
 3669TIP3    H211014   0.503   1.996   4.416 -0.2674 -2.8872 -0.8267
 3670TIP3   OH211015   0.893   5.599   2.752  0.0994  0.0470 -0.7375
 3670TIP3    H111016   0.800   5.620   2.759  0.6303  2.1217  0.6433
 3670TIP3    H211017   0.935   5.681   2.728  1.7084 -0.6363 -0.3966
 3671TIP3   OH211018   4.084   1.923   3.133  0.1756  0.0593 -0.0200
 3671TIP3    H111019   4.092   2.008   3.091 -3.7090  0.0185 -1.2013
 3671TIP3    H211020   4.134   1.863   3.078  0.1406  1.0318 -1.1321
 3672TIP3   OH211021   3.537   0.088   2.943 -0.3666 -0.1854  0.5557
 3672TIP3    H111022   3.574   0.133   2.868 -0.6156 -0.3045  0.3601
 3672TIP3    H211023   3.447   0.068   2.917 -0.0195 -1.5479  0.3113
 3673TIP3   OH211024   1.120   1.692   0.960 -0.4558 -0.1083 -0.3462
 3673TIP3    H111025   1.132   1.770   1.015 -1.8422  0.0487 -0.2273
 3673TIP3    H211026   1.062   1.636   1.011 -0.6435 -0.5698 -1.0626
 3674TIP3   OH211027   4.060   4.225   4.194 -0.2200  0.5271  0.4360
 3674TIP3    H111028   4.152   4.230   4.167 -0.7084  0.2750 -1.4470
 3674TIP3    H211029   4.040   4.313   4.227  0.3551  0.9983 -0.4186
 3675TIP3   OH211030   4.989   3.881   1.337  0.0621  0.3464  0.7493
 3675TIP3    H111031   4.923   3.846   1.277  0.5630  0.8619 -0.1299
 3675TIP3    H211032   5.052   3.925   1.280  2.2651 -1.8130  1.3244
 3676TIP3   OH211033   4.443   3.555   4.117 -0.0159 -0.5531 -0.1885
 3676TIP3    H111034   4.521   3.516   4.077  1.5614  1.2750  0.9708
 3676TIP3    H211035   4.403   3.482   4.164  1.0161 -1.5370 -0.7659
 3677TIP3   OH211036   5.617   1.168   4.921 -0.1344  0.6505 -0.0125
 3677TIP3    H111037   5.587   1.226   4.991  0.6122 -0.4887  1.2973
 3677TIP3    H211038   5.694   1.212   4.885  0.9679  0.0848  1.5773
 3678TIP3   OH211039   0.810   0.857   2.700 -0.1018  0.2897  0.0064
 3678TIP3    H111040   0.837   0.791   2.765  0.6297  0.5194 -0.0493
 3678TIP3    H211041   0.876   0.850   2.631 -2.4361 -1.9502 -2.1572
 3679TIP3   OH211042   4.559   5.071   2.314 -0.0377 -0.5602 -0.0758
 3679TIP3    H111043   4.620   5.124   2.261 -0.0365  0.8906  1.2941
 3679TIP3    H211044   4.588   4.981   2.300  1.8714  0.0101 -0.1942
 3680TIP3   OH211045   4.186   1.784   2.920 -0.0971 -0.4087  0.2019
 3680TIP3    H111046   4.179   1.829   2.836 -1.1393  0.9215  0.9536
 3680TIP3    H211047   4.279   1.760   2.927  0.4825  1.5393 -0.3026
 3681TIP3   OH211048   5.923   0.797   0.925 -0.8341 -0.7419 -0.1789
 3681TIP3    H111049   5.958   0.886   0.935 -0.0223 -0.9835 -0.8162
 3681TIP3    H211050   5.844   0.808   0.873 -1.2542 -0.2939  0.5268
 3682TIP3   OH211051   4.161   4.148   0.683 -0.0624 -0.4386 -0.3337
 3682TIP3    H111052   4.101   4.095   0.736  1.1051 -1.6043 -0.1309
 3682TIP3    H211053   4.110   4.173   0.606 -0.5676 -2.1406 -0.5873
 3683TIP3   OH211054   0.722   3.839   1.681 -0.1548 -0.0326  0.0988
 3683TIP3    H111055   0.752   3.858   1.592  0.4524  0.3453  0.3834
 3683TIP3    H211056   0.648   3.779   1.668 -1.1833  1.3439 -0.7542
 3684TIP3   OH211057   4.846   2.409   3.922  0.1000 -0.8950 -0.6128
 3684TIP3    H111058   4.815   2.398   3.832 -0.5936  0.5688 -0.5712
 3684TIP3    H211059   4.801   2.487   3.954  1.6585 -0.3740  0.4292
 3685TIP3   OH211060   4.554   2.603   4.458 -0.1373  0.1582  0.2022
 3685TIP3    H111061   4.569   2.588   4.551  1.6625  0.2382 -0.0374
 3685TIP3    H211062   4.549   2.515   4.420  1.0550  0.1042  0.1272
 3686TIP3   OH211063   0.401   0.826   4.904  0.7127 -0.5580  0.3511
 3686TIP3    H111064   0.446   0.897   4.951  0.6023 -0.4082  0.2333
 3686TIP3    H211065   0.329   0.801   4.961 -1.9574  2.3425 -1.3537
 3687TIP3   OH211066   6.062   0.411   3.634 -0.0626 -0.0251 -0.2249
 3687TIP3    H111067   6.111   0.375   3.709  2.3071  0.5600 -1.3781
 3687TIP3    H211068   6.034   0.498   3.663  1.3079  0.4169 -0.1360
 3688TIP3   OH211069   1.046   2.759   1.731  0.1903 -0.1327  0.1242
 3688TIP3    H111070   0.987   2.739   1.804  0.9080  0.3529  0.8504
 3688TIP3    H211071   1.059   2.853   1.735  1.0263 -0.2317 -0.0121
 3689TIP3   OH211072   5.785   2.684   3.209 -0.0666  0.3987 -0.0311
 3689TIP3    H111073   5.876   2.654   3.205 -0.0014  0.7446 -1.2542
 3689TIP3    H211074   5.740   2.633   3.142 -0.6938  0.5487  0.2674
 3690TIP3   OH211075   0.005   3.737   4.195 -0.2907 -0.0279 -0.4733
 3690TIP3    H111076  -0.072   3.792   4.209 -1.0999 -1.2766  0.2002
 3690TIP3    H211077   0.075   3.781   4.244 -0.9077  0.4226  0.0270
 3691TIP3   OH211078   0.710   3.776   0.035 -0.0986  0.1590 -0.2440
 3691TIP3    H111079   0.670   3.749  -0.048  1.5845  1.2781 -1.4863
 3691TIP3    H211080   0.782   3.713   0.048  0.4841  0.7861 -0.3659
 3692TIP3   OH211081   4.654   4.651   1.311  0.4613  0.5889  0.2601
 3692TIP3    H111082   4.647   4.588   1.383 -1.1963  0.8692  0.3773
 3692TIP3    H211083   4.578   4.708   1.322  0.3414  0.8136 -1.5468
 3693TIP3   OH211084   4.599   5.601   2.061  0.3212  0.3204  0.1259
 3693TIP3    H111085   4.611   5.661   1.988  0.5998  0.9454  0.6740
 3693TIP3    H211086   4.680   5.609   2.112  0.6124 -0.9465 -0.0904
 3694TIP3   OH211087   4.841   2.202   3.129  0.2698 -0.4312  0.2375
 3694TIP3    H111088   4.760   2.161   3.098 -0.7017  1.4950  0.0340
 3694TIP3    H211089   4.909   2.170   3.070 -0.8877  0.1776 -1.5063
 3695TIP3   OH211090   5.456   5.748   4.485 -0.5451  0.0484 -0.3577
 3695TIP3    H111091   5.429   5.839   4.486 -1.2130 -0.0438  2.9140
 3695TIP3    H211092   5.542   5.748   4.442  0.4758  2.6087  1.4414
 3696TIP3   OH211093   3.589   1.998   3.358  0.5261 -0.3970  0.5839
 3696TIP3    H111094   3.629   1.984   3.272 -1.2956  3.4660 -1.1126
 3696TIP3    H211095   3.588   1.911   3.398  2.2409 -2.2317 -2.9296
 3697TIP3   OH211096   6.209   3.302   4.809  0.3530  0.3545  0.1007
 3697TIP3    H111097   6.278   3.354   4.849  1.0558  0.4368 -1.1714
 3697TIP3    H211098   6.234   3.294   4.717 -0.2848 -1.3375  0.0262
 3698TIP3   OH211099   3.091   3.429   1.890  0.3594 -0.4209 -0.1974
 3698TIP3    H111100   3.130   3.341   1.894 -0.1160 -0.6100  1.3467
 3698TIP3    H211101   3.004   3.417   1.929 -0.1507  0.5313 -1.0139
 3699TIP3   OH211102   6.178   4.366   3.576 -0.2039 -0.1380  0.6210
 3699TIP3    H111103   6.224   4.301   3.523  1.0493  1.8363 -0.8958
 3699TIP3    H211104   6.086   4.358   3.549  0.0419 -0.8048 -0.0700
 3700TIP3   OH211105   3.527   2.707   1.567  0.2144 -0.4695  0.4965
 3700TIP3    H111106   3.517   2.629   1.513 -2.3932  0.1745 -0.1234
 3700TIP3    H211107   3.445   2.713   1.616  1.1927  0.7697  2.0764
 3701TIP3   OH211108   1.984   1.640   2.410 -0.0213  0.3097 -0.8924
 3701TIP3    H111109   2.054   1.581   2.438 -0.4970 -0.2882 -0.9671
 3701TIP3    H211110   2.005   1.660   2.319  1.0959  1.6391 -0.3875
 3702TIP3   OH211111   3.331   5.464   3.581  0.9516 -0.2066  0.1526
 3702TIP3    H111112   3.306   5.542   3.630 -1.1971 -1.1618  0.6902
 3702TIP3    H211113   3.425   5.456   3.595  0.9659  1.4324  1.3043
 3703TIP3   OH211114   3.405   1.250   4.812  0.2302  0.0111  0.5691
 3703TIP3    H111115   3.405   1.330   4.864  0.8321  1.1067 -1.0467
 3703TIP3    H211116   3.312   1.229   4.801 -0.0373  1.6682 -0.6833
 3704TIP3   OH211117   0.085   3.214   0.665  0.1335 -0.0226 -0.5557
 3704TIP3    H111118   0.167   3.263   0.657 -0.3630  0.7403 -1.0667
 3704TIP3    H211119   0.095   3.164   0.746  1.4478 -0.6180 -1.0611
 3705TIP3   OH211120   2.609  -0.002   5.078 -0.3606 -0.1018 -0.1164
 3705TIP3    H111121   2.675   0.048   5.029  2.8607 -3.4605  0.3387
 3705TIP3    H211122   2.647  -0.013   5.165 -1.5623 -2.1258  0.2005
 3706TIP3   OH211123   5.409   2.822   2.965 -0.0215 -0.1393  0.3100
 3706TIP3    H111124   5.347   2.833   3.037  0.3049  0.8938  0.4410
 3706TIP3    H211125   5.354   2.816   2.887 -0.4205 -1.9410  0.6783
 3707TIP3   OH211126   5.519   1.700   4.392 -0.3619  1.0956  0.0232
 3707TIP3    H111127   5.575   1.685   4.316 -0.9079  1.4363 -0.4533
 3707TIP3    H211128   5.554   1.641   4.459 -0.6169 -0.1032 -0.8644
 3708TIP3   OH211129   6.199   0.789   0.003 -0.2784  0.0640  1.1152
 3708TIP3    H111130   6.237   0.861  -0.048 -3.0976  0.9893  0.1177
 3708TIP3    H211131   6.229   0.804   0.093  0.3241  1.6466  0.6755
 3709TIP3   OH211132   0.357   3.928   3.052  0.4082  0.3892  0.2978
 3709TIP3    H111133   0.394   3.884   2.975  1.9088 -0.4741  1.4385
 3709TIP3    H211134   0.349   3.858   3.117 -4.0451  0.3361 -0.0283
 3710TIP3   OH211135   5.112   1.031   1.570 -0.1453  0.4631  0.9703
 3710TIP3    H111136   5.182   0.976   1.603 -0.5635 -0.8475 -0.2337
 3710TIP3    H211137   5.032   0.994   1.608 -0.2895  1.4203  1.6492
 3711TIP3   OH211138   2.800   0.127   2.803 -0.5672 -0.0131  0.6627
 3711TIP3    H111139   2.746   0.049   2.813 -0.4234 -0.1031  0.7492
 3711TIP3    H211140   2.819   0.133   2.709 -2.0702  0.9304  0.3872
 3712TIP3   OH211141   1.086   4.774   3.472  0.2099  0.8108  0.6399
 3712TIP3    H111142   1.166   4.722   3.463  0.4032  1.1964  0.0118
 3712TIP3    H211143   1.064   4.769   3.565 -0.3468 -1.2256  0.4346
 3713TIP3   OH211144  -0.015   0.539   3.419  0.0906 -0.5085 -0.6670
 3713TIP3    H111145   0.048   0.548   3.347  1.6373 -1.0822  0.5405
 3713TIP3    H211146   0.013   0.604   3.484  0.9693 -2.3180  0.8900
 3714TIP3   OH211147   2.169   5.728   4.363  0.1364  0.3241  0.0223
 3714TIP3    H111148   2.077   5.735   4.391  0.5620  0.5254  1.4842
 3714TIP3    H211149   2.215   5.694   4.440  1.2856  0.1898 -0.6978
 3715TIP3   OH211150   1.708   3.968   3.716  0.5379 -0.4758  0.3639
 3715TIP3    H111151   1.663   3.968   3.801 -1.9954  0.2893 -0.8618
 3715TIP3    H211152   1.797   3.998   3.735  0.1610 -0.6929  2.7762
 3716TIP3   OH211153   0.777   3.685   4.448  0.0671  0.3649 -0.0226
 3716TIP3    H111154   0.849   3.635   4.410  0.5028  1.2288 -0.3643
 3716TIP3    H211155   0.728   3.718   4.372  0.0993  0.9019  0.1852
 3717TIP3   OH211156   5.370   3.194   0.031 -0.0786 -0.7202  0.3894
 3717TIP3    H111157   5.449   3.232   0.071 -0.9995  0.5811  1.0268
 3717TIP3    H211158   5.338   3.263  -0.028 -0.1182 -1.6793 -0.7462
 3718TIP3   OH211159   3.101   1.453   4.065 -0.3847 -0.0362 -0.1299
 3718TIP3    H111160   3.099   1.456   4.161  0.8795  0.5507 -0.1037
 3718TIP3    H211161   3.191   1.429   4.044 -0.8289 -0.8526 -1.1718
 3719TIP3   OH211162   3.973   5.091   1.076  0.0184  0.1059  0.2616
 3719TIP3    H111163   3.927   5.095   1.159  0.7692 -0.0420  0.6979
 3719TIP3    H211164   3.908   5.057   1.014 -1.2286  2.3127  0.2770
 3720TIP3   OH211165   1.794   3.025   0.624 -0.6462 -0.0344  0.2429
 3720TIP3    H111166   1.754   3.040   0.539 -0.7351  0.2533  0.3341
 3720TIP3    H211167   1.878   2.983   0.605 -0.5843  0.1960  0.0029
 3721TIP3   OH211168   1.821   1.141   2.547 -0.0362  0.1772  0.2750
 3721TIP3    H111169   1.911   1.151   2.580  0.1851 -0.0708 -0.2431
 3721TIP3    H211170   1.797   1.229   2.518 -0.0997  0.3213  0.7646
 3722TIP3   OH211171   3.728   2.635   4.960  0.0646  0.3100 -0.3998
 3722TIP3    H111172   3.744   2.544   4.936 -0.2757  0.6853 -2.2112
 3722TIP3    H211173   3.806   2.682   4.931  0.9984  0.4173  2.0535
 3723TIP3   OH211174   2.829   4.764   1.666  0.0314 -0.3203 -0.3563
 3723TIP3    H111175   2.889   4.826   1.625 -1.4361  1.0800 -0.4808
 3723TIP3    H211176   2.789   4.716   1.593 -0.5986  0.2840 -0.4140
 3724TIP3   OH211177   4.293   0.643   4.702  0.3649  0.0503  0.0249
 3724TIP3    H111178   4.356   0.613   4.767  0.1330 -2.6597 -0.8566
 3724TIP3    H211179   4.222   0.578   4.705 -0.3451  0.6518 -1.8700
 3725TIP3   OH211180   1.661   4.262   4.285 -0.4575 -0.1471 -0.2973
 3725TIP3    H111181   1.661   4.341   4.339 -1.3813  0.3781 -1.0356
 3725TIP3    H211182   1.628   4.193   4.343  0.2150  0.0338  0.3070
 3726TIP3   OH211183   1.490   4.475   1.836  0.0894  0.0170  0.0247
 3726TIP3    H111184   1.522   4.386   1.851  0.6161  0.4764  1.7671
 3726TIP3    H211185   1.395   4.465   1.830  0.1153 -0.6190  0.5678
 3727TIP3   OH211186   4.803   0.831   3.301 -0.1870  0.3582 -0.1708
 3727TIP3    H111187   4.760   0.758   3.346  0.5471 -0.5202 -0.8610
 3727TIP3    H211188   4.784   0.907   3.357 -1.5087 -0.2237  0.2214
 3728TIP3   OH211189   1.132   1.251   1.595  0.4305  0.0739 -0.3655
 3728TIP3    H111190   1.137   1.287   1.506 -4.6864  0.8370 -0.6434
 3728TIP3    H211191   1.108   1.326   1.650 -1.5429 -1.1948  0.6344
 3729TIP3   OH211192   1.572   0.375   1.905 -0.2021 -0.6066  0.1612
 3729TIP3    H111193   1.661   0.402   1.927 -0.5119  0.0520  0.6387
 3729TIP3    H211194   1.526   0.377   1.989 -0.8785 -0.1433 -0.2212
 3730TIP3   OH211195   3.483   1.140   1.036  0.3911 -0.1370  0.1850
 3730TIP3    H111196   3.477   1.069   1.101  0.6424 -1.1866 -0.9034
 3730TIP3    H211197   3.576   1.160   1.031  0.4696 -0.6427 -0.4511
 3731TIP3   OH211198   4.067   5.012   2.948 -0.0727 -0.9721 -0.2388
 3731TIP3    H111199   4.135   5.013   2.881 -0.0419  0.2323 -0.2189
 3731TIP3    H211200   3.996   5.064   2.910  0.1273  0.1248  0.8175
 3732TIP3   OH211201   2.437   1.565   1.223  0.3829  0.7479  0.3411
 3732TIP3    H111202   2.498   1.494   1.241  0.0228 -0.0673 -1.4292
 3732TIP3    H211203   2.437   1.574   1.128 -3.2017 -0.2098  0.1014
 3733TIP3   OH211204   5.279   4.482   3.137 -0.3124  1.0316  0.3987
 3733TIP3    H111205   5.351   4.545   3.146 -0.1414  0.8395  0.3749
 3733TIP3    H211206   5.321   4.397   3.136 -0.4281  0.9681 -0.9419
 3734TIP3   OH211207   1.489   0.910   3.341  0.5379 -0.0192  0.0883
 3734TIP3    H111208   1.422   0.904   3.409  0.6874 -1.7544  0.1432
 3734TIP3    H211209   1.564   0.951   3.385  0.9860 -1.9998  1.3530
 3735TIP3   OH211210   3.296   3.516   4.900  0.3210 -0.2058 -0.2672
 3735TIP3    H111211   3.354   3.451   4.941  0.2787  1.1192  2.0665
 3735TIP3    H211212   3.273   3.575   4.971 -4.1419 -0.7492 -0.9821
 3736TIP3   OH211213   5.087   0.415   4.435  0.7454 -0.3737  0.3506
 3736TIP3    H111214   5.016   0.472   4.405  1.7811  0.8212  0.0910
 3736TIP3    H211215   5.123   0.377   4.355  0.1976 -1.2564  0.5081
 3737TIP3   OH211216   6.268   4.293   1.907 -0.0056 -0.3922  0.4295
 3737TIP3    H111217   6.269   4.337   1.992 -1.1841  2.3223 -0.8311
 3737TIP3    H211218   6.231   4.358   1.847  0.7646 -2.1997 -2.1770
 3738TIP3   OH211219   4.099   5.054   1.705  0.2007  0.1604  0.0449
 3738TIP3    H111220   4.039   4.995   1.660  0.8609 -0.5830  0.1209
 3738TIP3    H211221   4.185   5.038   1.665  0.2656  1.6917 -0.5330
 3739TIP3   OH211222   5.423   3.770   3.897 -0.4980  0.1658  0.0384
 3739TIP3    H111223   5.419   3.694   3.954 -0.7768  0.1226 -0.0357
 3739TIP3    H211224   5.501   3.757   3.843  0.1636  0.5410  0.8755
 3740TIP3   OH211225   2.382   3.075   2.478 -0.2460 -0.2390 -0.0940
 3740TIP3    H111226   2.432   3.049   2.400 -0.7176  2.6389 -1.4910
 3740TIP3    H211227   2.292   3.049   2.458 -0.3237  0.2596 -0.3951
 3741TIP3   OH211228   2.998   3.735   2.738  0.0982 -0.6041 -0.3531
 3741TIP3    H111229   3.011   3.646   2.771  0.9147 -0.7171 -0.9754
 3741TIP3    H211230   3.082   3.778   2.750 -0.8059  0.7421  1.8249
 3742TIP3   OH211231   4.573   0.942   4.069  0.3878 -0.3492  0.2384
 3742TIP3    H111232   4.585   1.001   4.144  2.2748  0.0759 -0.3493
 3742TIP3    H211233   4.484   0.908   4.079 -0.4947  1.9915  1.0460
 3743TIP3   OH211234   4.875   3.480   2.589  0.2900 -0.1097  0.0347
 3743TIP3    H111235   4.843   3.536   2.659  1.3170  2.5834 -1.5000
 3743TIP3    H211236   4.957   3.444   2.621 -0.0880 -0.3032  0.8137
 3744TIP3   OH211237   5.690   4.788   3.206 -0.1606  0.2046  0.4301
 3744TIP3    H111238   5.725   4.866   3.248 -0.0475 -0.1397  0.9824
 3744TIP3    H211239   5.653   4.736   3.278 -0.0045 -0.3679  0.1031
 3745TIP3   OH211240   1.137   4.635   4.028 -0.0645  0.5709  0.3739
 3745TIP3    H111241   1.130   4.542   4.010 -0.4188  0.3609  1.5152
 3745TIP3    H211242   1.203   4.667   3.967  0.0459 -0.4188 -0.0354
 3746TIP3   OH211243   4.802   0.239   2.303 -0.0461  0.4735 -0.1809
 3746TIP3    H111244   4.775   0.301   2.371 -0.6194  0.4171 -0.3560
 3746TIP3    H211245   4.726   0.230   2.246 -0.2115 -0.8951  0.2167
 3747TIP3   OH211246   5.522   4.178   1.687 -0.6428 -0.0239 -0.3627
 3747TIP3    H111247   5.501   4.088   1.713  0.8700 -0.4734 -0.5773
 3747TIP3    H211248   5.586   4.208   1.752 -2.2319  1.4754  0.5951
 3748TIP3   OH211249   5.105   4.670   4.523 -0.4129  0.0769  0.5607
 3748TIP3    H111250   5.098   4.725   4.445 -1.3576 -0.1999  0.4392
 3748TIP3    H211251   5.149   4.725   4.587 -0.7525  0.7442  0.2297
 3749TIP3   OH211252   2.837   2.692   2.173  0.7145  0.1342 -0.1273
 3749TIP3    H111253   2.925   2.663   2.198  0.2874 -2.1070 -0.9830
 3749TIP3    H211254   2.778   2.630   2.216 -0.5383  1.8974  0.8428
 3750TIP3   OH211255   0.875   5.913   3.778 -0.1188 -0.0004 -0.6096
 3750TIP3    H111256   0.908   5.959   3.855  1.1979 -2.1254  0.1808
 3750TIP3    H211257   0.786   5.887   3.802  0.0715 -0.1289 -0.0300
 3751TIP3   OH211258   2.860   5.923   3.042 -0.5559 -0.1679 -0.5093
 3751TIP3    H111259   2.825   5.940   2.955  0.0255 -0.5348 -0.8215
 3751TIP3    H211260   2.852   6.006   3.088 -0.7419  0.0653 -0.9554
 3752TIP3   OH211261   0.118   1.954   0.666 -0.3994 -0.3513 -0.1122
 3752TIP3    H111262   0.183   1.903   0.713 -1.0041  0.1553  1.3136
 3752TIP3    H211263   0.160   2.039   0.650 -0.0394 -0.6643 -0.9141
 3753TIP3   OH211264   1.809   3.349   3.946  0.2304  0.2128  0.6389
 3753TIP3    H111265   1.882   3.372   3.888 -1.6943  1.9013 -1.2905
 3753TIP3    H211266   1.778   3.264   3.913  0.2087  0.3563  0.2879
 3754TIP3   OH211267   3.639   3.692   1.128 -0.2165  0.3450 -0.0374
 3754TIP3    H111268   3.544   3.702   1.125 -0.1033  1.4109 -1.0428
 3754TIP3    H211269   3.667   3.749   1.200 -0.2081  1.5954 -0.9840
 3755TIP3   OH211270   0.660   5.497   2.925 -0.1301 -0.1015  0.8312
 3755TIP3    H111271   0.740   5.448   2.908  0.2210  1.1203 -1.4331
 3755TIP3    H211272   0.662   5.515   3.019  0.4714 -3.0082  1.4744
 3756TIP3   OH211273   3.080   3.284   3.103 -0.4276 -0.8850 -0.0290
 3756TIP3    H111274   3.039   3.265   3.187 -1.9934 -0.5842 -0.6938
 3756TIP3    H211275   3.027   3.238   3.039  1.1913 -1.7418 -0.8267
 3757TIP3   OH211276   2.671   4.844   2.263 -0.1413 -0.1670 -0.0200
 3757TIP3    H111277   2.741   4.876   2.320  0.5215 -0.1622 -0.8388
 3757TIP3    H211278   2.696   4.870   2.175 -0.4514 -1.4231 -0.5066
 3758TIP3   OH211279   1.772   0.807   3.305  0.3768 -0.3384 -0.1227
 3758TIP3    H111280   1.742   0.868   3.373  2.7042  0.9043 -0.1250
 3758TIP3    H211281   1.712   0.821   3.232 -1.3642 -0.7427  1.1684
 3759TIP3   OH211282   2.678   4.246   0.241 -0.2202 -0.3079 -0.0752
 3759TIP3    H111283   2.640   4.159   0.226  0.2937 -0.9386  1.9835
 3759TIP3    H211284   2.755   4.248   0.185 -0.6073 -0.9079 -0.6514
 3760TIP3   OH211285   1.303   2.306   1.225 -0.1513  0.7947  0.8146
 3760TIP3    H111286   1.356   2.227   1.217 -0.5907  0.5611  0.1335
 3760TIP3    H211287   1.246   2.290   1.300 -0.4215  0.3523  0.5164
 3761TIP3   OH211288   3.309   2.341   3.734 -0.7750 -0.2091  0.4294
 3761TIP3    H111289   3.251   2.299   3.671 -0.3776  0.0980 -0.1509
 3761TIP3    H211290   3.396   2.334   3.695 -0.7659  1.7196 -0.0175
 3762TIP3   OH211291   4.669   4.761   1.658 -0.0858  0.6781  0.2428
 3762TIP3    H111292   4.684   4.854   1.669 -0.1239  1.0371 -2.1657
 3762TIP3    H211293   4.755   4.721   1.671  0.0913  1.1385  0.4792
 3763TIP3   OH211294   0.618   5.232   3.169  0.8656  0.4111  0.5821
 3763TIP3    H111295   0.547   5.206   3.228  1.7643 -1.7746  0.7818
 3763TIP3    H211296   0.582   5.307   3.120 -0.9211  0.4636  1.8752
 3764TIP3   OH211297   2.691   1.079   1.223  0.0621 -0.4496 -0.0874
 3764TIP3    H111298   2.776   1.037   1.231 -0.1791 -0.8634  0.3096
 3764TIP3    H211299   2.628   1.013   1.254 -0.4350 -0.2881 -0.7305
 3765TIP3   OH211300   1.722   0.781   0.229 -0.5919  0.4458 -0.1034
 3765TIP3    H111301   1.749   0.872   0.218 -0.4262  0.2648 -1.2646
 3765TIP3    H211302   1.628   0.787   0.251 -0.5631  0.8918 -0.0814
 3766TIP3   OH211303   5.739   1.059   0.947 -0.2206  0.3749  0.2425
 3766TIP3    H111304   5.777   0.999   0.883  1.0752 -0.0220  1.3457
 3766TIP3    H211305   5.778   1.144   0.926 -0.8148  0.5226 -0.3030
 3767TIP3   OH211306   0.514   3.579   3.211 -0.6293 -0.5154 -0.2174
 3767TIP3    H111307   0.596   3.545   3.246 -0.5508 -0.6638 -0.5427
 3767TIP3    H211308   0.476   3.505   3.163 -1.0747 -0.5261  0.1389
 3768TIP3   OH211309   5.368   5.954   4.114 -0.0178 -0.2814  0.3433
 3768TIP3    H111310   5.453   5.972   4.154  0.6166 -0.4165 -0.9095
 3768TIP3    H211311   5.368   5.860   4.097 -0.0049 -0.1274 -0.5547
 3769TIP3   OH211312   5.731   3.741   3.857 -0.5384  0.1830 -0.7881
 3769TIP3    H111313   5.685   3.802   3.914  1.2190  0.0454  0.8998
 3769TIP3    H211314   5.777   3.797   3.794 -0.0715  0.5580 -0.1333
 3770TIP3   OH211315   0.690   3.496   2.346  0.7634  0.0954  0.4169
 3770TIP3    H111316   0.665   3.470   2.435 -1.3326  0.3453 -0.0268
 3770TIP3    H211317   0.691   3.415   2.296 -0.6946  0.2052  0.1444
 3771TIP3   OH211318   3.197   2.424   2.473 -0.3286 -0.4178 -0.0394
 3771TIP3    H111319   3.236   2.369   2.540 -0.0731 -0.5848 -0.3216
 3771TIP3    H211320   3.211   2.377   2.391  2.0095  1.1006 -0.6294
 3772TIP3   OH211321   0.031   1.605   2.467 -0.1347  0.1520 -0.8286
 3772TIP3    H111322   0.015   1.511   2.471 -0.0035  0.0780 -1.7627
 3772TIP3    H211323   0.111   1.614   2.415  0.8606  0.7087  0.7131
 3773TIP3   OH211324   4.877   2.952   5.069  0.4377 -0.0643  0.2531
 3773TIP3    H111325   4.854   2.991   4.985  1.8107  1.0929  0.3943
 3773TIP3    H211326   4.966   2.982   5.087  0.4326 -0.8651  1.7899
 3774TIP3   OH211327   0.158   4.220   4.850 -0.2757  0.3006  0.0674
 3774TIP3    H111328   0.207   4.249   4.927  0.0624  0.5525 -0.2356
 3774TIP3    H211329   0.193   4.134   4.829 -0.3850  0.2211  0.2070
 3775TIP3   OH211330   4.485   5.112   2.718  0.1785  0.1913  0.5620
 3775TIP3    H111331   4.518   5.169   2.787  0.5216  0.4806  0.1677
 3775TIP3    H211332   4.513   5.155   2.637 -0.9344  0.3030  0.2229
 3776TIP3   OH211333   0.703   1.890   1.016 -0.4747 -0.2259  0.0331
 3776TIP3    H111334   0.661   1.841   1.088 -0.1422 -0.8625 -0.1987
 3776TIP3    H211335   0.667   1.979   1.024 -2.8877 -1.0118 -0.9379
 3777TIP3   OH211336   4.849   4.425   0.302 -0.5275  0.3294  0.3971
 3777TIP3    H111337   4.763   4.463   0.320 -0.3457  0.6415  0.6185
 3777TIP3    H211338   4.911   4.493   0.330 -0.1308 -0.8313  2.4988
 3778TIP3   OH211339   4.561   4.006   2.223  0.6690  0.1425 -0.0489
 3778TIP3    H111340   4.540   3.914   2.207  2.0424 -0.4601  1.2773
 3778TIP3    H211341   4.626   4.003   2.294  0.0716  2.1867  0.6476
 3779TIP3   OH211342   1.497   0.001   0.168  0.1386  0.0428  0.5712
 3779TIP3    H111343   1.409   0.034   0.182  0.2111  0.6782 -0.4042
 3779TIP3    H211344   1.498  -0.026   0.076  0.2896 -2.0686  1.1354
 3780TIP3   OH211345   5.532   0.526   4.787 -0.4952  0.1949  0.3509
 3780TIP3    H111346   5.620   0.491   4.796  0.2052  1.3518 -1.5949
 3780TIP3    H211347   5.485   0.461   4.736 -0.4126  0.1511  0.3304
 3781TIP3   OH211348   2.104   5.858   0.499  0.5255 -0.2538  0.6691
 3781TIP3    H111349   2.110   5.774   0.454  1.6075 -0.0764  0.4388
 3781TIP3    H211350   2.145   5.841   0.585  1.5874  0.2430  0.2809
 3782TIP3   OH211351   5.018   2.121   0.836  0.0165 -0.3170 -0.0514
 3782TIP3    H111352   4.930   2.099   0.805  0.2965 -0.4237 -0.8117
 3782TIP3    H211353   5.076   2.067   0.782  0.5569 -0.0356  0.2433
 3783TIP3   OH211354   6.258   2.283   0.253 -0.1408 -0.1521 -0.0576
 3783TIP3    H111355   6.272   2.272   0.159  0.8767  0.7105 -0.0300
 3783TIP3    H211356   6.169   2.320   0.260 -0.6552 -1.2444 -0.5851
 3784TIP3   OH211357   2.603   4.811   4.111  0.3296  0.0088 -0.0771
 3784TIP3    H111358   2.577   4.891   4.156  3.1263  1.1057 -0.2112
 3784TIP3    H211359   2.634   4.753   4.180  0.4622 -0.0714 -0.2040
 3785TIP3   OH211360   0.927   2.070   3.433 -0.3560 -0.0241 -0.4243
 3785TIP3    H111361   0.974   2.063   3.516  1.4272 -0.9563 -1.4319
 3785TIP3    H211362   0.835   2.063   3.456  0.1327 -1.1491  1.3816
 3786TIP3   OH211363   1.319   5.848   3.789  0.1391 -0.5811 -0.2430
 3786TIP3    H111364   1.318   5.818   3.880  0.9215 -1.5615 -0.5378
 3786TIP3    H211365   1.242   5.807   3.749 -0.5797  0.3788  0.1193
 3787TIP3   OH211366   0.932   1.052   0.707 -0.0522 -0.1983  0.5965
 3787TIP3    H111367   0.964   1.142   0.720 -0.4083  0.4145 -2.0644
 3787TIP3    H211368   1.002   1.010   0.656  0.1725 -1.5333  1.9312
 3788TIP3   OH211369   5.126   2.841   4.290  0.6890 -0.2640 -0.0134
 3788TIP3    H111370   5.036   2.810   4.282  0.9445 -0.8588 -0.6747
 3788TIP3    H211371   5.176   2.784   4.231  1.6079 -0.3992  0.8730
 3789TIP3   OH211372   5.760   0.329   4.747  0.1736  0.2785  0.5734
 3789TIP3    H111373   5.851   0.348   4.724 -0.0604  0.2258 -0.4520
 3789TIP3    H211374   5.713   0.331   4.663 -0.8631  0.8019  1.1416
 3790TIP3   OH211375   1.599   5.660   2.468  0.1641  0.1562  0.1905
 3790TIP3    H111376   1.512   5.683   2.435 -0.0240 -0.5894  0.1358
 3790TIP3    H211377   1.597   5.680   2.561 -0.6239 -1.3478  0.5280
 3791TIP3   OH211378   1.902   4.893   0.784  0.1389  0.0829 -0.2362
 3791TIP3    H111379   1.859   4.937   0.711 -0.6292  0.6816  0.5609
 3791TIP3    H211380   1.846   4.910   0.859  1.3625  0.2188  0.6800
 3792TIP3   OH211381   3.169   2.848   1.389 -0.2538  0.1781  0.3678
 3792TIP3    H111382   3.106   2.920   1.397 -0.4509  0.2003 -1.1681
 3792TIP3    H211383   3.131   2.777   1.441 -1.4063  0.2887 -0.2860
 3793TIP3   OH211384   2.721   3.222   4.053  0.5179 -0.0512  0.6968
 3793TIP3    H111385   2.734   3.240   4.147  0.5930 -1.1258  0.9074
 3793TIP3    H211386   2.779   3.148   4.035 -1.3115 -1.4700  0.3959
 3794TIP3   OH211387   0.711   0.704   3.671  0.0020  0.2196 -0.4505
 3794TIP3    H111388   0.645   0.738   3.610 -2.1206 -0.0174  1.5704
 3794TIP3    H211389   0.737   0.620   3.633 -1.4505 -0.0485 -0.9232
 3795TIP3   OH211390   2.192   0.377   2.751 -0.6174 -0.3117  0.3740
 3795TIP3    H111391   2.177   0.454   2.806 -0.4956  0.4425 -0.6226
 3795TIP3    H211392   2.220   0.413   2.667  1.1255 -1.4858  0.3911
 3796TIP3   OH211393   1.521   4.500   3.804 -0.5919 -0.3128  0.3322
 3796TIP3    H111394   1.432   4.507   3.770 -0.3126  0.5268 -0.2687
 3796TIP3    H211395   1.559   4.587   3.789  0.1883 -0.5353  0.9738
 3797TIP3   OH211396   4.323   4.954   0.221 -0.2455 -0.8392  0.3048
 3797TIP3    H111397   4.403   4.929   0.175  0.4704  0.0656  1.0271
 3797TIP3    H211398   4.290   4.872   0.258 -0.6064 -1.5092 -1.4308
 3798TIP3   OH211399   0.870   4.664   3.026  0.4862 -0.3994  0.2981
 3798TIP3    H111400   0.907   4.705   2.947 -1.1619  1.1353  0.2604
 3798TIP3    H211401   0.901   4.718   3.098 -2.1079  1.3999  0.2100
 3799TIP3   OH211402   1.582   2.711   2.221 -0.1272  0.7170  0.4900
 3799TIP3    H111403   1.577   2.675   2.132  2.2298  2.1382 -0.2969
 3799TIP3    H211404   1.520   2.658   2.271  0.3425 -1.8638 -1.4217
 3800TIP3   OH211405   2.000   5.024   4.211 -0.7583  0.1071 -0.0840
 3800TIP3    H111406   1.930   5.076   4.251  0.3927  1.1700  0.6218
 3800TIP3    H211407   2.063   5.012   4.281 -0.5637 -1.4874 -0.5098
 3801TIP3   OH211408   2.408   5.551   1.258 -0.2928 -0.4716  0.3344
 3801TIP3    H111409   2.466   5.611   1.213 -0.5285 -2.1864 -2.5185
 3801TIP3    H211410   2.466   5.499   1.315  0.7043 -0.8511 -0.9812
 3802TIP3   OH211411   2.591   0.880   3.143  0.7389 -0.2176 -0.1805
 3802TIP3    H111412   2.645   0.926   3.079 -0.4198  0.4702 -0.6846
 3802TIP3    H211413   2.538   0.949   3.183 -0.9120 -1.0652 -0.8319
 3803TIP3   OH211414   2.897   1.449   0.862  0.4706 -0.3343 -0.2012
 3803TIP3    H111415   2.838   1.493   0.802  0.6370  1.4831  0.8917
 3803TIP3    H211416   2.958   1.401   0.806 -0.0349  0.4103 -1.4188
 3804TIP3   OH211417   2.272   0.050   2.511 -0.4079 -0.2230  0.0937
 3804TIP3    H111418   2.362   0.053   2.480  0.1435  2.4627  1.6899
 3804TIP3    H211419   2.221   0.091   2.441 -0.5010 -1.9386 -0.9046
 3805TIP3   OH211420   0.411   4.468   1.243  0.3570  0.5464 -1.0346
 3805TIP3    H111421   0.455   4.551   1.263 -0.0307  0.0822  2.4463
 3805TIP3    H211422   0.436   4.410   1.315 -2.4116 -1.1474 -1.2778
 3806TIP3   OH211423   0.612   1.735   1.530  0.3020 -0.5424  0.1672
 3806TIP3    H111424   0.540   1.711   1.470  1.8113 -2.6264 -0.9340
 3806TIP3    H211425   0.570   1.741   1.616 -1.5019  0.0815 -0.7033
 3807TIP3   OH211426   4.308   3.906   5.152 -0.2423 -0.5765  0.4223
 3807TIP3    H111427   4.213   3.911   5.160 -0.5654 -3.5865 -0.3779
 3807TIP3    H211428   4.337   3.997   5.157 -3.2406  0.5484 -0.3332
 3808TIP3   OH211429   0.070   2.162   2.751 -0.4622 -0.4673 -0.4774
 3808TIP3    H111430   0.085   2.087   2.694 -0.8191 -0.9324  0.0349
 3808TIP3    H211431   0.044   2.124   2.835  1.7113  0.1219  0.5342
 3809TIP3   OH211432   6.300   5.994   1.556 -0.2893  0.2690 -0.1293
 3809TIP3    H111433   6.297   5.907   1.596 -0.2693  0.4678  0.3197
 3809TIP3    H211434   6.342   5.981   1.471  0.6410 -0.0068  0.3570
 3810TIP3   OH211435   1.102   1.472   0.413 -0.0153 -0.0876  0.0345
 3810TIP3    H111436   1.191   1.490   0.386  0.3679 -1.1606  0.5135
 3810TIP3    H211437   1.059   1.557   0.414  0.7733  0.3332 -0.9891
 3811TIP3   OH211438   3.616   3.797   4.243  0.1698 -0.1751 -0.2129
 3811TIP3    H111439   3.688   3.794   4.179  0.0837  0.6572 -0.3561
 3811TIP3    H211440   3.616   3.887   4.274  0.2447 -0.5890  1.0209
 3812TIP3   OH211441   5.951   5.626   4.017 -0.2270 -0.5334 -0.1746
 3812TIP3    H111442   5.962   5.673   4.099  0.2928 -0.5544 -0.2328
 3812TIP3    H211443   6.023   5.564   4.014 -0.3669 -0.6850 -0.5443
 3813TIP3   OH211444   0.540   1.153   3.163 -0.1476  0.1962 -0.2060
 3813TIP3    H111445   0.447   1.172   3.174 -0.0210  0.3894  0.6282
 3813TIP3    H211446   0.584   1.210   3.226  0.7194  1.6654 -2.0424
 3814TIP3   OH211447   3.958   4.931   4.494 -0.3410 -0.0884  0.6765
 3814TIP3    H111448   3.952   4.857   4.433 -0.7959  2.2574 -2.3740
 3814TIP3    H211449   4.052   4.941   4.510 -0.2594 -1.1196  0.9251
 3815TIP3   OH211450   1.902   5.563   0.879 -0.2401 -0.3935  0.0272
 3815TIP3    H111451   1.889   5.616   0.957 -1.2202 -0.5750 -0.0021
 3815TIP3    H211452   1.861   5.613   0.809  0.3178 -0.4019 -0.3105
 3816TIP3   OH211453   3.391   3.669   2.774  0.0121  0.2676 -0.0175
 3816TIP3    H111454   3.485   3.671   2.756 -0.0399 -1.5424 -0.7650
 3816TIP3    H211455   3.355   3.742   2.724  0.8264 -0.0555 -1.1228
 3817TIP3   OH211456   1.188   2.072   0.963  0.4108 -0.1468 -0.1265
 3817TIP3    H111457   1.208   2.130   0.890  3.9298 -0.4379  0.4284
 3817TIP3    H211458   1.245   2.103   1.034  0.3186 -2.4909  1.0727
 3818TIP3   OH211459   3.226   2.768   3.832 -0.3648 -0.1302 -0.4503
 3818TIP3    H111460   3.289   2.828   3.794 -0.1076  0.5901  1.0413
 3818TIP3    H211461   3.142   2.792   3.793 -0.3947  1.7429  0.6722
 3819TIP3   OH211462   1.907   3.535   1.425  0.6338 -0.5247  0.5674
 3819TIP3    H111463   1.879   3.522   1.335 -0.1926  0.0626  0.7295
 3819TIP3    H211464   2.002   3.534   1.421  0.6036 -0.0770 -0.3691
 3820TIP3   OH211465   6.116   0.684   0.256  0.3500 -0.4072  0.2037
 3820TIP3    H111466   6.149   0.598   0.283 -1.9574 -1.0803  1.0328
 3820TIP3    H211467   6.035   0.665   0.208  0.2054  1.2790 -0.2735
 3821TIP3   OH211468   4.452   2.652   3.330  0.7653 -0.3148  0.2694
 3821TIP3    H111469   4.363   2.625   3.311  0.0607 -0.6574  3.4835
 3821TIP3    H211470   4.501   2.570   3.337  0.9085 -0.2289  0.2734
 3822TIP3   OH211471   2.531   5.028   1.203 -0.1276  0.0248 -0.2730
 3822TIP3    H111472   2.472   5.072   1.264  0.2711  0.1991 -0.0029
 3822TIP3    H211473   2.497   4.939   1.196  0.2112 -0.2102  0.7610
 3823TIP3   OH211474   2.702   0.996   2.886 -0.2378  0.0636  0.1888
 3823TIP3    H111475   2.728   0.904   2.889 -1.3411 -0.2703 -0.1266
 3823TIP3    H211476   2.777   1.043   2.924  0.4572 -0.9255  0.0866
 3824TIP3   OH211477   2.242   1.154   2.316  0.1185 -0.0278  0.0305
 3824TIP3    H111478   2.330   1.171   2.350 -0.3265  1.6379  0.3990
 3824TIP3    H211479   2.200   1.101   2.384  0.5222 -0.0398  0.2752
 3825TIP3   OH211480   2.272   3.783   2.341  0.2413  0.4763 -0.0848
 3825TIP3    H111481   2.340   3.803   2.405 -0.3489  1.2628  0.3034
 3825TIP3    H211482   2.244   3.868   2.308  0.5961  0.0845 -1.4694
 3826TIP3   OH211483   0.315   0.083   1.421 -0.0348  0.0662  0.3956
 3826TIP3    H111484   0.248   0.137   1.462  0.2530  0.1904  0.7078
 3826TIP3    H211485   0.396   0.131   1.434  0.6529 -1.5579  2.8674
 3827TIP3   OH211486   4.330   2.242   4.619  0.0604 -0.3368  0.4084
 3827TIP3    H111487   4.415   2.211   4.588  0.1128 -1.4160  1.5753
 3827TIP3    H211488   4.267   2.190   4.569  0.0484  0.8140 -0.8210
 3828TIP3   OH211489   1.947   2.648   3.073 -0.5179 -0.0169  0.1396
 3828TIP3    H111490   2.040   2.669   3.078 -0.6912  0.6205  0.7799
 3828TIP3    H211491   1.903   2.732   3.081 -1.1706 -0.4031  0.7080
 3829TIP3   OH211492   5.144   2.200   1.585 -0.3683 -0.2227 -0.3638
 3829TIP3    H111493   5.068   2.252   1.613 -0.5391 -1.4657  1.7337
 3829TIP3    H211494   5.148   2.212   1.490 -2.0915  1.3196 -0.2977
 3830TIP3   OH211495   4.998   3.609   1.980  0.4831  0.5070 -0.3183
 3830TIP3    H111496   5.045   3.669   2.038  0.5366  0.1328  0.0328
 3830TIP3    H211497   5.026   3.634   1.892 -0.3726  1.7481 -0.2627
 3831TIP3   OH211498   3.785   0.556   4.587 -0.1230 -0.7948  0.5221
 3831TIP3    H111499   3.754   0.560   4.496 -0.4336 -1.6068  0.5799
 3831TIP3    H211500   3.765   0.466   4.615 -0.0753 -0.5383  1.4106
 3832TIP3   OH211501   1.178   3.471   0.399  0.0916  0.1154  0.3954
 3832TIP3    H111502   1.202   3.407   0.332 -1.5206  0.8652 -0.9785
 3832TIP3    H211503   1.255   3.527   0.409  0.6997 -0.6238 -0.0950
 3833TIP3   OH211504   4.585   2.633   1.334  0.4332 -0.1318 -0.2735
 3833TIP3    H111505   4.672   2.612   1.302  0.3129  0.7555 -1.2329
 3833TIP3    H211506   4.536   2.551   1.327  0.3152  0.0758 -2.7593
 3834TIP3   OH211507   3.149   4.559   0.443  0.2805  0.1947 -0.5831
 3834TIP3    H111508   3.113   4.606   0.367  0.2012 -0.3065 -0.8574
 3834TIP3    H211509   3.186   4.628   0.498  0.3348  0.5662 -1.0772
 3835TIP3   OH211510   6.002   2.673   4.590 -0.6268  0.1963 -0.3151
 3835TIP3    H111511   6.080   2.727   4.602 -0.7719  0.8266 -1.9972
 3835TIP3    H211512   6.035   2.587   4.566 -0.4180 -0.2978  1.5812
 3836TIP3   OH211513   1.622   1.753   5.123  0.3434 -0.2529  0.1977
 3836TIP3    H111514   1.707   1.780   5.158  0.2880 -1.9660  1.8073
 3836TIP3    H211515   1.635   1.663   5.095 -0.4257  0.1345 -1.5474
 3837TIP3   OH211516   2.181   4.631   2.555  0.0417  0.1808 -0.0762
 3837TIP3    H111517   2.193   4.675   2.471 -0.1757  0.0792 -0.1638
 3837TIP3    H211518   2.174   4.702   2.619  0.2932  0.2561 -0.1334
 3838TIP3   OH211519   4.375   0.492   0.905  0.1958 -0.0310  0.0625
 3838TIP3    H111520   4.364   0.576   0.860  0.5464  0.6396  1.1821
 3838TIP3    H211521   4.407   0.433   0.838 -0.3744  0.6388 -0.8331
 3839TIP3   OH211522   5.912   4.751   3.588  0.2678  0.2040 -0.2963
 3839TIP3    H111523   5.971   4.761   3.662  1.5785  0.8597 -1.3757
 3839TIP3    H211524   5.829   4.725   3.627  1.6291 -2.4054  1.1816
 3840TIP3   OH211525   5.061   5.105   0.583  0.2474 -0.6454 -0.1113
 3840TIP3    H111526   5.012   5.038   0.535  2.1517 -1.3202 -1.2422
 3840TIP3    H211527   5.120   5.143   0.518 -0.9831  2.4434  0.4102
 3841TIP3   OH211528   2.383   2.357   0.337 -0.6682 -0.1017 -0.0037
 3841TIP3    H111529   2.358   2.296   0.407 -0.9635  0.6059  0.5095
 3841TIP3    H211530   2.426   2.429   0.382 -1.3936  0.6438 -0.4924
 3842TIP3   OH211531   6.162   3.803   4.423  0.1117 -0.2976  0.5304
 3842TIP3    H111532   6.067   3.814   4.432 -0.0549 -1.2512  0.0934
 3842TIP3    H211533   6.200   3.872   4.478 -0.8316 -0.2877  1.1892
 3843TIP3   OH211534   4.478   4.257   3.891  0.3970  0.1961  0.0321
 3843TIP3    H111535   4.471   4.201   3.814  1.0197 -0.0941  0.1859
 3843TIP3    H211536   4.558   4.307   3.877  1.0769 -0.6144  0.9891
 3844TIP3   OH211537   6.049   0.047   1.320 -0.0346  0.3338  0.1777
 3844TIP3    H111538   5.987   0.020   1.388 -0.4922  0.7357 -0.0746
 3844TIP3    H211539   5.998   0.045   1.239  0.9145 -1.7581 -0.4364
 3845TIP3   OH211540   0.484   1.494   4.448  0.7325 -0.4295 -0.2595
 3845TIP3    H111541   0.461   1.492   4.541  1.0672 -2.4792 -0.1651
 3845TIP3    H211542   0.403   1.471   4.403  0.8674 -0.6490 -0.3896
 3846TIP3   OH211543   5.082   0.781   0.918 -0.5918  0.1979 -0.2891
 3846TIP3    H111544   5.147   0.710   0.913 -0.9007 -0.2777  1.7241
 3846TIP3    H211545   5.025   0.767   0.842  0.2957 -0.7392 -0.8080
 3847TIP3   OH211546   1.553   4.516   3.482 -0.2893 -0.6886 -0.1555
 3847TIP3    H111547   1.617   4.449   3.461 -0.1134 -0.7821  0.6544
 3847TIP3    H211548   1.507   4.483   3.559  0.2495  0.4168  0.6634
 3848TIP3   OH211549   4.353   1.729   0.391  0.1695 -0.1114  0.0914
 3848TIP3    H111550   4.378   1.650   0.438  0.4254  0.6454  1.2786
 3848TIP3    H211551   4.436   1.775   0.377 -0.0743  0.3712  0.2229
 3849TIP3   OH211552   2.611   2.083   1.182 -0.9353  0.1024  0.3723
 3849TIP3    H111553   2.598   1.994   1.150 -1.5192  0.0043  0.8611
 3849TIP3    H211554   2.613   2.074   1.277  0.7024  0.3997  0.3914
 3850TIP3   OH211555   5.359   0.373   4.651 -0.3037  0.5179 -0.1125
 3850TIP3    H111556   5.310   0.291   4.662  0.8216  0.0354  1.6451
 3850TIP3    H211557   5.294   0.442   4.661 -0.9613 -0.1311  0.1670
 3851TIP3   OH211558   3.844   4.839   4.937 -0.1277  0.5367  0.1354
 3851TIP3    H111559   3.777   4.794   4.987 -0.1409  0.0666 -0.2956
 3851TIP3    H211560   3.839   4.801   4.849  0.9404  0.2353  0.1843
 3852TIP3   OH211561   3.245   5.365   4.533  0.2357  0.0496 -0.1162
 3852TIP3    H111562   3.215   5.311   4.606  1.3056  0.2219  0.4766
 3852TIP3    H211563   3.318   5.316   4.495 -1.2852 -0.7888 -2.0959
 3853TIP3   OH211564   5.615   3.311   1.605  0.1382 -0.2032 -0.4906
 3853TIP3    H111565   5.528   3.282   1.632 -0.6099  1.1811 -1.3297
 3853TIP3    H211566   5.637   3.256   1.530 -0.5107  0.1709 -0.9684
 3854TIP3   OH211567   3.250   1.085   3.204 -0.0612 -0.4159 -0.5629
 3854TIP3    H111568   3.297   1.145   3.261  0.4156 -0.0824 -1.2874
 3854TIP3    H211569   3.291   1.000   3.218 -0.7008 -0.5818  0.4254
 3855TIP3   OH211570   3.231   5.119   4.176  0.5163  0.3052  0.2129
 3855TIP3    H111571   3.294   5.059   4.137  1.7860  1.2104  0.7839
 3855TIP3    H211572   3.148   5.100   4.132  1.4481 -0.0749 -1.4408
 3856TIP3   OH211573   2.004   1.785   0.775  0.0900 -0.5312 -0.2675
 3856TIP3    H111574   2.042   1.803   0.689 -0.6132 -1.5217 -0.8034
 3856TIP3    H211575   2.018   1.692   0.788  3.1310  0.0965  2.1749
 3857TIP3   OH211576   2.860   0.099   1.607  0.5989  0.0828  0.0710
 3857TIP3    H111577   2.861   0.005   1.594 -1.2686  0.2277 -1.6653
 3857TIP3    H211578   2.836   0.135   1.522 -1.6820  1.9186  1.3640
 3858TIP3   OH211579   1.981   5.574   0.146 -0.2453  0.0744  0.0898
 3858TIP3    H111580   1.986   5.565   0.051  0.2924 -0.0193  0.1250
 3858TIP3    H211581   1.952   5.664   0.160  0.1572  0.2419 -0.1550
 3859TIP3   OH211582   0.635   1.365   4.884 -0.4175 -0.4014  0.7061
 3859TIP3    H111583   0.696   1.424   4.838  0.3618 -0.8337  1.1757
 3859TIP3    H211584   0.668   1.277   4.866 -1.2403 -0.6756  0.4963
 3860TIP3   OH211585   4.117   0.435   4.982 -0.0072 -0.5875  0.3109
 3860TIP3    H111586   4.116   0.430   4.887  1.8431 -1.1986  0.2798
 3860TIP3    H211587   4.125   0.344   5.011  2.1863 -0.2745  0.9051
 3861TIP3   OH211588   5.253   0.975   3.598 -0.4145  0.0165 -0.5262
 3861TIP3    H111589   5.241   0.892   3.551  1.1258 -1.2320  1.1229
 3861TIP3    H211590   5.222   0.956   3.687  1.7117  0.5672  0.3849
 3862TIP3   OH211591   2.113   4.386   4.910  0.5363 -0.3025  0.0825
 3862TIP3    H111592   2.062   4.395   4.990  0.9255 -1.2267  0.4505
 3862TIP3    H211593   2.069   4.443   4.847 -0.2157 -0.1411  0.7356
 3863TIP3   OH211594   4.898   1.054   3.495 -0.5278 -0.2475 -0.4057
 3863TIP3    H111595   4.987   1.087   3.488 -1.0156  1.1180 -0.4110
 3863TIP3    H211596   4.892   1.021   3.585 -0.3617  0.7395 -0.0226
 3864TIP3   OH211597   4.128   1.124   2.004 -0.5348 -0.0965  0.3378
 3864TIP3    H111598   4.213   1.085   1.981 -0.5900 -0.4782  0.7796
 3864TIP3    H211599   4.082   1.130   1.920 -0.8933 -1.8594  0.3688
 3865TIP3   OH211600   3.123   5.753   2.564 -0.1544 -0.0280  0.1969
 3865TIP3    H111601   3.208   5.736   2.525 -0.6830  1.3466 -1.6790
 3865TIP3    H211602   3.089   5.666   2.586  2.2519 -0.5427  2.3318
 3866TIP3   OH211603   5.567   1.839   2.489  0.3026 -0.4315 -0.3004
 3866TIP3    H111604   5.483   1.792   2.489 -0.0133  0.1103 -1.1856
 3866TIP3    H211605   5.587   1.851   2.582 -0.3127 -1.0714 -0.0716
 3867TIP3   OH211606   0.659   1.676   3.026  0.2438 -0.1585  0.1209
 3867TIP3    H111607   0.748   1.709   3.012  0.7500 -0.7528  1.7242
 3867TIP3    H211608   0.668   1.611   3.096 -1.4293 -0.3432  0.2040
 3868TIP3   OH211609   1.067   4.392   0.592  0.2226 -0.6572 -0.4568
 3868TIP3    H111610   1.126   4.371   0.664  1.1845  0.8089 -0.7596
 3868TIP3    H211611   1.108   4.352   0.515  1.6542  1.4565 -0.9043
 3869TIP3   OH211612   5.931   5.012   3.523 -0.2370 -0.1034  0.3423
 3869TIP3    H111613   5.943   5.015   3.618 -0.9029 -1.5382  0.5035
 3869TIP3    H211614   5.911   4.920   3.505 -3.8063  0.7524 -0.7460
 3870TIP3   OH211615   2.916   0.606   4.276 -0.4284 -0.0582  0.0796
 3870TIP3    H111616   2.975   0.677   4.254 -1.5100  0.4670 -1.2730
 3870TIP3    H211617   2.889   0.624   4.366 -0.8666  1.4043 -0.3104
 3871TIP3   OH211618   3.960   3.876   3.723 -0.2343 -0.0142  0.3662
 3871TIP3    H111619   3.990   3.788   3.701 -0.0016  0.0008  0.6213
 3871TIP3    H211620   3.864   3.870   3.721 -0.2189 -0.2926  0.4630
 3872TIP3   OH211621   4.112   5.387   5.068 -0.1592 -0.2594  0.4708
 3872TIP3    H111622   4.106   5.482   5.063  0.2989 -0.1195  2.0556
 3872TIP3    H211623   4.022   5.357   5.061 -0.2456  0.2088 -0.8461
 3873TIP3   OH211624   3.455   4.122   0.487 -0.8173  0.2509 -0.0285
 3873TIP3    H111625   3.494   4.194   0.536 -0.5811 -0.9360  1.6360
 3873TIP3    H211626   3.525   4.057   0.480 -1.8189 -1.0006  1.0758
 3874TIP3   OH211627   1.382   4.732   1.596  0.1000  0.6784 -0.0960
 3874TIP3    H111628   1.442   4.698   1.529  0.0668  0.2042  0.1085
 3874TIP3    H211629   1.438   4.783   1.655  0.2962  0.2744  0.0685
 3875TIP3   OH211630   3.913   1.805   5.161 -0.4899  0.9581 -0.0787
 3875TIP3    H111631   3.969   1.869   5.117  0.7924  0.0829  0.2291
 3875TIP3    H211632   3.974   1.748   5.208 -1.7395  0.9773  1.6388
 3876TIP3   OH211633   5.501   5.504   1.381  0.1204  0.2884  0.4187
 3876TIP3    H111634   5.424   5.553   1.410  0.3990  0.2667  1.2345
 3876TIP3    H211635   5.561   5.571   1.349 -0.4941  0.2493 -0.8705
 3877TIP3   OH211636   2.337   4.100   5.149  0.2200  0.0175 -0.2644
 3877TIP3    H111637   2.270   4.047   5.106  0.0786  0.4965 -0.6444
 3877TIP3    H211638   2.350   4.058   5.234  0.0222 -0.5485 -0.5102
 3878TIP3   OH211639   0.353   2.116   2.087  1.2648 -0.2982 -0.3000
 3878TIP3    H111640   0.411   2.129   2.163 -0.2107 -1.5627  1.1070
 3878TIP3    H211641   0.320   2.203   2.067  1.8801  0.0981  0.3475
 3879TIP3   OH211642   3.573   4.042   2.287 -0.5787 -0.2348 -0.2581
 3879TIP3    H111643   3.664   4.013   2.297 -0.4748  0.4350  0.8162
 3879TIP3    H211644   3.579   4.125   2.240 -0.4121  1.1528  2.0982
 3880TIP3   OH211645   6.195   0.622   4.718 -0.6552  0.2364  0.1527
 3880TIP3    H111646   6.117   0.636   4.772 -0.1158 -0.3253  1.0926
 3880TIP3    H211647   6.267   0.657   4.770 -0.2684  0.7619 -0.7160
 3881TIP3   OH211648   2.631   4.470   3.604  0.6151  0.2637 -0.2173
 3881TIP3    H111649   2.554   4.523   3.624  0.7874  0.5423 -0.2886
 3881TIP3    H211650   2.606   4.419   3.527  0.5209  0.3916 -0.2706
 3882TIP3   OH211651   4.761   5.703   1.461  0.3095 -0.1079 -0.2193
 3882TIP3    H111652   4.673   5.738   1.472  1.0413  1.4822  1.0750
 3882TIP3    H211653   4.798   5.702   1.549  1.1033 -2.1939 -0.5176
 3883TIP3   OH211654   5.854   4.540   3.154  0.9267  0.4007 -0.0922
 3883TIP3    H111655   5.803   4.604   3.203  3.5535  1.1824  1.8198
 3883TIP3    H211656   5.945   4.562   3.172  2.0041 -3.6688  0.4765
 3884TIP3   OH211657   1.732   3.258   1.387 -0.0026  0.0471 -0.3413
 3884TIP3    H111658   1.677   3.335   1.373 -1.4544 -1.0004 -0.6187
 3884TIP3    H211659   1.778   3.276   1.469 -3.2824 -0.3650  1.7749
 3885TIP3   OH211660   3.003   1.728   1.010  0.1602  0.5009  0.1010
 3885TIP3    H111661   2.994   1.712   0.916  0.6863 -0.2450  0.1660
 3885TIP3    H211662   3.094   1.706   1.029 -0.0507  0.2554  0.8513
 3886TIP3   OH211663   0.197   5.222   2.961 -0.2524 -0.5180 -0.8946
 3886TIP3    H111664   0.140   5.178   2.898 -0.4580  1.5852 -2.2707
 3886TIP3    H211665   0.150   5.302   2.984 -0.2318 -1.2403  2.0812
 3887TIP3   OH211666   5.566   5.629   2.870  0.0971  0.2846 -0.1517
 3887TIP3    H111667   5.583   5.541   2.902 -0.4754  0.6554  1.2419
 3887TIP3    H211668   5.582   5.624   2.776  2.2474 -0.7510  0.2069
 3888TIP3   OH211669   3.020   0.508   2.961  0.0842 -0.0367 -0.0240
 3888TIP3    H111670   3.081   0.447   2.922 -0.5076 -0.1494 -0.7919
 3888TIP3    H211671   2.965   0.453   3.018  1.2332  0.1930  1.3763
 3889TIP3   OH211672   0.258   5.381   2.568 -0.1494  0.1135 -0.1348
 3889TIP3    H111673   0.178   5.394   2.618 -0.2939 -0.6430 -0.1596
 3889TIP3    H211674   0.289   5.470   2.548 -0.2364  0.4268  1.0538
 3890TIP3   OH211675   5.756   4.942   3.861  0.3991 -0.1800 -0.2339
 3890TIP3    H111676   5.686   5.007   3.852  0.7537  0.4111  1.0935
 3890TIP3    H211677   5.724   4.866   3.812 -1.2553  0.0241  0.4522
 3891TIP3   OH211678   2.025   2.944   1.059  0.4008  0.1663 -0.2114
 3891TIP3    H111679   2.034   2.919   1.151  0.9029 -0.2674 -0.3750
 3891TIP3    H211680   2.056   2.868   1.011  0.7776  0.6479 -0.7333
 3892TIP3   OH211681   2.394   1.497   0.467  0.2999 -0.3207  0.5834
 3892TIP3    H111682   2.427   1.572   0.417  1.0064 -1.1621 -0.2704
 3892TIP3    H211683   2.299   1.507   0.466  0.1954 -0.8680 -1.9568
 3893TIP3   OH211684   0.310   4.945   1.043 -0.1005  0.0326  0.2556
 3893TIP3    H111685   0.261   4.863   1.052  0.4176 -0.2296  0.7302
 3893TIP3    H211686   0.398   4.918   1.019 -0.0427  0.4812 -0.0558
 3894TIP3   OH211687   1.947   0.079   4.531 -0.6500 -0.8217 -0.5937
 3894TIP3    H111688   1.877   0.050   4.589  1.5277 -2.9088  1.1974
 3894TIP3    H211689   1.998  -0.000   4.513  2.5863  0.9269  0.1151
 3895TIP3   OH211690   4.305   0.141   4.844 -0.0390 -0.2061 -0.1911
 3895TIP3    H111691   4.394   0.163   4.870 -0.4576 -2.4193  4.1014
 3895TIP3    H211692   4.273   0.218   4.797  3.4236  1.4756 -0.0873
 3896TIP3   OH211693   3.097   1.789   3.809  0.2361  0.2790  0.0466
 3896TIP3    H111694   3.144   1.851   3.754 -0.4027  0.7583  0.0346
 3896TIP3    H211695   3.110   1.704   3.765  0.6837  0.4742 -0.2119
 3897TIP3   OH211696   5.118   0.367   2.609 -0.2205  0.4306 -0.4615
 3897TIP3    H111697   5.050   0.333   2.667 -0.4516  1.3831 -0.1573
 3897TIP3    H211698   5.094   0.459   2.595 -0.0578  0.2840 -1.9023
 3898TIP3   OH211699   5.356   2.328   4.684 -0.7199 -0.5249  0.1156
 3898TIP3    H111700   5.397   2.289   4.607 -0.8369 -1.5914  0.5692
 3898TIP3    H211701   5.262   2.323   4.666 -0.6993  1.2730 -0.6203
 3899TIP3   OH211702   5.098   4.335   4.957 -0.0325  0.0206  0.2395
 3899TIP3    H111703   5.003   4.341   4.968  0.0230  1.0716  0.1907
 3899TIP3    H211704   5.114   4.365   4.868  0.1889 -1.8986 -0.4114
 3900TIP3   OH211705   0.997   3.279   4.027 -0.3322 -0.2343  0.6171
 3900TIP3    H111706   0.994   3.277   4.123  0.8838  2.0293  0.7603
 3900TIP3    H211707   1.089   3.294   4.006 -0.4986 -1.1296 -0.9671
 3901TIP3   OH211708   5.503   5.213   1.808  0.1231 -0.2524  0.1335
 3901TIP3    H111709   5.515   5.291   1.863  1.4006 -0.4751  0.1894
 3901TIP3    H211710   5.467   5.247   1.726 -1.5556  0.1173  0.9616
 3902TIP3   OH211711   5.015   1.382   2.684  0.1141  0.2984 -0.6992
 3902TIP3    H111712   5.109   1.373   2.667  0.6550  2.7751  0.4435
 3902TIP3    H211713   5.008   1.385   2.779 -1.4552 -2.0159 -0.6708
 3903TIP3   OH211714   1.466   0.775   1.554  0.5010  0.0895  0.4152
 3903TIP3    H111715   1.396   0.821   1.507  3.0183  2.5017 -1.3268
 3903TIP3    H211716   1.441   0.683   1.549 -0.9508  0.4901 -3.1014
 3904TIP3   OH211717   3.222   2.511   3.940 -0.1832  0.6085  0.5043
 3904TIP3    H111718   3.238   2.473   3.854 -1.5183  0.7228  0.1850
 3904TIP3    H211719   3.201   2.603   3.923 -3.0749  0.0785  0.6158
 3905TIP3   OH211720   1.317   5.721   0.358 -0.1155 -0.1056 -0.2402
 3905TIP3    H111721   1.227   5.702   0.384 -0.4832 -0.0917 -1.4643
 3905TIP3    H211722   1.355   5.636   0.338 -1.0184  0.1075 -3.3297
 3906TIP3   OH211723   4.150   3.491   4.791  0.1764  0.1712 -0.0722
 3906TIP3    H111724   4.158   3.556   4.860 -1.8130 -0.9712  1.3504
 3906TIP3    H211725   4.224   3.432   4.805 -0.5832 -0.4550  1.6281
 3907TIP3   OH211726   6.223   1.289   0.727 -0.0864  0.3336  0.1841
 3907TIP3    H111727   6.143   1.337   0.705  0.0307  0.7716  0.6972
 3907TIP3    H211728   6.215   1.207   0.678 -0.9787  0.2522  0.4323
 3908TIP3   OH211729   0.799   1.627   0.907 -0.2464  0.2207  0.2341
 3908TIP3    H111730   0.831   1.596   0.822  0.3866  0.6882  0.2909
 3908TIP3    H211731   0.827   1.719   0.911 -0.6580  0.3304  0.7595
 3909TIP3   OH211732   4.412   1.069   1.999 -0.3169 -0.1769  0.3395
 3909TIP3    H111733   4.501   1.067   1.965  0.8041  0.8621  2.9744
 3909TIP3    H211734   4.380   0.979   1.988  1.6387 -0.9684  0.7828
 3910TIP3   OH211735   1.055   0.440   5.127 -0.5947 -0.0069 -0.5914
 3910TIP3    H111736   1.020   0.517   5.172  0.4960  0.0165  0.2679
 3910TIP3    H211737   1.122   0.474   5.069  1.0416 -0.4001  0.9753
 3911TIP3   OH211738   6.308   1.625   3.342 -0.2243 -0.5036 -0.1170
 3911TIP3    H111739   6.317   1.534   3.371 -1.9902 -0.3007  1.2414
 3911TIP3    H211740   6.268   1.670   3.417 -0.9372  1.0248 -1.3565
 3912TIP3   OH211741   6.202   2.988   2.671 -0.0108  0.6371  0.2031
 3912TIP3    H111742   6.231   2.973   2.761 -1.1261  1.1881  0.6789
 3912TIP3    H211743   6.110   2.961   2.671 -0.2064  1.2808 -0.6049
 3913TIP3   OH211744   5.040   4.690   2.623  0.1078  0.3684  1.0649
 3913TIP3    H111745   4.954   4.730   2.606 -0.4373 -0.4174  1.8501
 3913TIP3    H211746   5.066   4.653   2.539 -0.3789  0.5271  0.8385
 3914TIP3   OH211747   0.949   4.712   3.716 -0.6516 -0.0831 -0.0461
 3914TIP3    H111748   0.863   4.677   3.692 -0.3182 -0.5201 -0.6407
 3914TIP3    H211749   1.004   4.634   3.727 -0.3094  0.1968  0.2405
 3915TIP3   OH211750   2.176   2.582   0.794  0.4946 -0.5143  0.2757
 3915TIP3    H111751   2.116   2.601   0.866  1.2107 -0.4552  0.8738
 3915TIP3    H211752   2.185   2.486   0.796  0.3861 -0.5261  0.1629
 3916TIP3   OH211753   0.320   5.395   1.036  0.0306  0.5261  0.0523
 3916TIP3    H111754   0.228   5.376   1.054 -0.1072  2.0762  1.1509
 3916TIP3    H211755   0.325   5.396   0.940 -0.3950 -2.5201 -0.1136
 3917TIP3   OH211756   0.137   2.297   3.043  0.1404  0.3056 -0.3822
 3917TIP3    H111757   0.120   2.208   3.012  0.9171 -0.1719  0.4821
 3917TIP3    H211758   0.065   2.315   3.104 -0.1860  0.3942 -0.7903
 3918TIP3   OH211759   4.728   0.798   1.576  0.3350  0.0370 -0.0827
 3918TIP3    H111760   4.664   0.756   1.634  0.1441 -0.2022 -0.4637
 3918TIP3    H211761   4.743   0.734   1.506 -0.8075  1.0301 -1.2897
 3919TIP3   OH211762   0.989   5.349   2.364  0.4723 -0.2398  0.2318
 3919TIP3    H111763   0.938   5.293   2.306  0.2000  0.0673  0.1695
 3919TIP3    H211764   1.080   5.323   2.349  0.5975  1.1273 -1.7721
 3920TIP3   OH211765   0.622   0.301   2.264 -0.1027  0.1343 -0.0400
 3920TIP3    H111766   0.650   0.393   2.266  0.5543 -0.0677  1.3944
 3920TIP3    H211767   0.542   0.301   2.212  0.3270  1.3949 -0.7322
 3921TIP3   OH211768   0.759   4.332   3.541 -0.2111 -0.2947  0.3449
 3921TIP3    H111769   0.678   4.282   3.533 -0.6662  0.3065  0.9953
 3921TIP3    H211770   0.766   4.379   3.458  0.0008 -1.1016 -0.1034
 3922TIP3   OH211771   4.260   0.463   3.097 -0.4888 -0.2356  0.0457
 3922TIP3    H111772   4.215   0.414   3.166 -2.0109 -0.1300 -0.8328
 3922TIP3    H211773   4.191   0.488   3.036  0.7694 -0.0790 -1.3815
 3923TIP3   OH211774   2.725   1.763   1.895  0.2248 -0.0498 -0.1021
 3923TIP3    H111775   2.769   1.772   1.810 -1.2053 -0.3450 -0.9089
 3923TIP3    H211776   2.637   1.798   1.880 -0.2863 -0.7732  1.0528
 3924TIP3   OH211777   4.711   2.658   2.226 -0.3886 -0.0537 -0.3269
 3924TIP3    H111778   4.765   2.587   2.259 -3.4426 -2.0780  0.7996
 3924TIP3    H211779   4.693   2.712   2.302  1.0314  1.4148 -0.9684
 3925TIP3   OH211780   4.894   3.490   4.020  0.3944 -0.3646  0.3805
 3925TIP3    H111781   4.960   3.435   3.977  0.6586 -0.7646  1.2715
 3925TIP3    H211782   4.927   3.501   4.109 -1.5012 -1.9000  1.3334
 3926TIP3   OH211783   2.220   4.586   0.067 -0.3456  0.0853  0.0739
 3926TIP3    H111784   2.231   4.665   0.015  2.4722 -0.3071 -0.1229
 3926TIP3    H211785   2.247   4.515   0.008  0.7351 -0.5974  1.3367
 3927TIP3   OH211786   3.871   3.365   0.469  0.4374  0.1775 -0.3465
 3927TIP3    H111787   3.885   3.347   0.562 -1.9693 -0.3333  0.0065
 3927TIP3    H211788   3.912   3.292   0.423 -0.4777 -0.9240  0.5092
 3928TIP3   OH211789   4.897   1.074   3.978  0.6792  0.0579 -0.4989
 3928TIP3    H111790   4.881   1.164   3.949  0.5333  0.4588  0.7816
 3928TIP3    H211791   4.868   1.073   4.069 -0.4265 -1.6069 -0.8323
 3929TIP3   OH211792   0.015   2.447   3.569  0.2573  0.3701  0.3615
 3929TIP3    H111793  -0.063   2.456   3.624 -0.0353 -1.3559  0.2908
 3929TIP3    H211794   0.081   2.409   3.627  0.6634  0.6949  0.1122
 3930TIP3   OH211795   5.258   4.878   5.020  0.0903  0.3770  0.3002
 3930TIP3    H111796   5.287   4.795   4.982  0.6729  0.2893  0.9042
 3930TIP3    H211797   5.335   4.935   5.012  1.1413 -0.3756  3.4815
 3931TIP3   OH211798   6.161   0.951   0.289 -0.1032  0.0241 -0.3503
 3931TIP3    H111799   6.152   0.858   0.271 -1.4683 -0.1869  1.2076
 3931TIP3    H211800   6.084   0.991   0.248 -0.0654  0.3229 -0.1364
 3932TIP3   OH211801   6.048   3.510   3.700  0.2510  0.3965 -0.1446
 3932TIP3    H111802   6.046   3.559   3.618  1.6490  0.2306 -0.3117
 3932TIP3    H211803   6.126   3.454   3.692 -1.2660 -1.8495  0.0478
 3933TIP3   OH211804   4.155   1.343   0.547  0.3786  0.5426 -0.1276
 3933TIP3    H111805   4.126   1.432   0.528 -0.5099  0.2261 -0.3283
 3933TIP3    H211806   4.075   1.296   0.568  1.1295  0.4795  3.0271
 3934TIP3   OH211807   4.020   0.464   0.353  0.4195 -0.6081 -0.4105
 3934TIP3    H111808   3.969   0.388   0.325  0.4811 -1.6967  2.1339
 3934TIP3    H211809   3.956   0.522   0.394  0.7235 -0.4515 -0.1547
 3935TIP3   OH211810   4.785   0.257   1.116 -0.5749  0.6710 -0.0308
 3935TIP3    H111811   4.692   0.238   1.129 -0.8081  1.9618  0.3517
 3935TIP3    H211812   4.802   0.231   1.026 -0.9606 -0.8182  0.2994
 3936TIP3   OH211813   6.247   0.985   3.981 -0.3692  0.0236 -0.3993
 3936TIP3    H111814   6.254   0.996   4.076  1.7926 -0.0765 -0.5007
 3936TIP3    H211815   6.190   0.909   3.971  0.9209 -1.1812  0.9093
 3937TIP3   OH211816   4.721   3.897   4.079  0.0070 -0.5443  0.2958
 3937TIP3    H111817   4.796   3.849   4.043  0.1397  1.4623 -2.3727
 3937TIP3    H211818   4.645   3.859   4.036 -0.5053 -1.8857  2.2407
 3938TIP3   OH211819   1.369   5.808   2.465  0.0993  0.1726  0.5121
 3938TIP3    H111820   1.274   5.818   2.463 -0.0224 -0.6460  1.4089
 3938TIP3    H211821   1.402   5.877   2.407 -1.0751 -0.2317 -0.6714
 3939TIP3   OH211822   2.535   4.641   2.023 -0.1137 -0.4733  0.3576
 3939TIP3    H111823   2.605   4.627   2.087 -0.4408  1.6885  1.2713
 3939TIP3    H211824   2.573   4.701   1.959 -0.3147 -1.3484 -0.6053
 3940TIP3   OH211825   2.058   1.151   3.540 -0.2112 -0.4445 -0.1613
 3940TIP3    H111826   2.153   1.165   3.540 -0.3531  0.6360 -0.2162
 3940TIP3    H211827   2.021   1.239   3.531 -1.2314 -0.7919  0.4385
 3941TIP3   OH211828   4.902   1.698   3.730 -0.3319  0.0164 -0.1804
 3941TIP3    H111829   4.971   1.682   3.665  1.1863  2.9248  0.5257
 3941TIP3    H211830   4.945   1.683   3.814 -1.5233 -1.1344  0.2609
 3942TIP3   OH211831   0.943   4.187   1.296  0.1277 -0.6635 -0.3004
 3942TIP3    H111832   1.000   4.127   1.343 -1.6331 -0.9351  1.6218
 3942TIP3    H211833   0.894   4.131   1.236 -0.4696 -0.9548  0.4454
 3943TIP3   OH211834   2.806   4.547   0.398 -1.2686 -0.2130  0.0247
 3943TIP3    H111835   2.716   4.525   0.423 -1.4598 -0.0710 -0.5273
 3943TIP3    H211836   2.861   4.502   0.463 -1.7480  0.0155  0.5940
 3944TIP3   OH211837   1.097   4.145   0.949 -0.1133  0.8263  0.1100
 3944TIP3    H111838   1.022   4.160   0.891 -0.6885  0.9684  0.8885
 3944TIP3    H211839   1.093   4.052   0.970  1.1254  0.3524 -1.4669
 3945TIP3   OH211840   0.923   5.707   4.483 -0.0057  0.4689  0.4856
 3945TIP3    H111841   0.947   5.695   4.575  0.1820 -0.7343  0.2927
 3945TIP3    H211842   0.897   5.620   4.454 -0.4708  0.9282 -0.4917
 3946TIP3   OH211843   3.104   0.006   0.913 -0.1911  0.2713  0.0903
 3946TIP3    H111844   3.094   0.039   0.824 -1.5692  1.5174  0.6669
 3946TIP3    H211845   3.198   0.011   0.930  0.2806 -1.2111 -1.7034
 3947TIP3   OH211846   3.468   2.720   4.527 -0.3858 -0.0245 -0.1226
 3947TIP3    H111847   3.523   2.760   4.594  1.4034  0.9641 -2.0784
 3947TIP3    H211848   3.483   2.626   4.537 -1.7729 -0.0898  2.1226
 3948TIP3   OH211849   3.608   2.378   4.519  0.4265  0.1251  0.0210
 3948TIP3    H111850   3.656   2.336   4.449 -0.0825 -0.1260 -0.1807
 3948TIP3    H211851   3.674   2.430   4.566  0.4625  1.8360 -1.7826
 3949TIP3   OH211852   6.271   3.127   3.120  0.0095  0.2028 -0.4514
 3949TIP3    H111853   6.365   3.138   3.134 -0.3160  1.4584  1.0176
 3949TIP3    H211854   6.252   3.181   3.043  0.7155 -1.3440 -1.7772
 3950TIP3   OH211855   5.552   3.934   0.037  0.0491 -0.2636  0.2449
 3950TIP3    H111856   5.579   3.989  -0.036 -2.6088 -0.0887 -0.7242
 3950TIP3    H211857   5.598   3.970   0.113  0.9730  1.1166 -0.9203
 3951TIP3   OH211858   2.118   5.337  -0.002  0.4317  0.3075 -0.0878
 3951TIP3    H111859   2.088   5.258   0.043  0.8230 -0.4170 -1.0551
 3951TIP3    H211860   2.087   5.409   0.052  0.0580 -0.5102  0.8117
 3952TIP3   OH211861   4.993   0.188   4.154 -0.8555  0.4611  0.2764
 3952TIP3    H111862   4.966   0.191   4.062  0.5375 -0.8171 -0.2103
 3952TIP3    H211863   5.074   0.240   4.157 -2.0979  2.4499  1.2802
 3953TIP3   OH211864   2.443   4.652   0.201  0.0078  0.2769 -0.5414
 3953TIP3    H111865   2.348   4.653   0.193 -0.1051  0.4786  0.6303
 3953TIP3    H211866   2.468   4.560   0.191 -0.3330  0.1946 -0.6256
 3954TIP3   OH211867   6.033   1.920   3.225 -0.2499 -0.8463 -0.3727
 3954TIP3    H111868   6.020   2.014   3.221 -0.4114 -0.9018 -1.8136
 3954TIP3    H211869   5.982   1.891   3.300  1.6880  0.4886  1.5646
 3955TIP3   OH211870   3.278   3.799   3.374 -0.2215  0.2158 -0.0600
 3955TIP3    H111871   3.295   3.888   3.344 -0.6697  0.7968  1.3520
 3955TIP3    H211872   3.346   3.781   3.439 -2.0576  0.8292  2.1607
 3956TIP3   OH211873   2.026   0.429   3.663 -0.1385 -0.5253 -0.2935
 3956TIP3    H111874   2.103   0.425   3.719 -1.4182  1.4535  1.7798
 3956TIP3    H211875   2.058   0.402   3.576  2.6205 -0.7222  0.6872
 3957TIP3   OH211876   5.585   3.601   3.475  0.0443  0.7836  0.4530
 3957TIP3    H111877   5.602   3.510   3.449 -0.6919  0.9781 -0.7959
 3957TIP3    H211878   5.496   3.618   3.445 -0.1056  1.6993  1.3568
 3958TIP3   OH211879   2.173   5.752   0.778  0.6434  0.2484 -0.7760
 3958TIP3    H111880   2.261   5.722   0.803  0.3430  0.2394  0.3175
 3958TIP3    H211881   2.144   5.804   0.853 -0.9951 -1.2012 -0.3623
 3959TIP3   OH211882   1.008   0.776   0.395  0.3919  0.0716  0.7693
 3959TIP3    H111883   1.075   0.779   0.326 -0.9408  2.3243 -0.5727
 3959TIP3    H211884   0.926   0.763   0.348 -0.5791  1.8061  1.8677
 3960TIP3   OH211885   3.023   5.464   3.942  0.1623  0.3584 -0.0856
 3960TIP3    H111886   3.106   5.470   3.989 -0.7028 -0.8972  1.7268
 3960TIP3    H211887   2.986   5.552   3.949  0.8804  0.6667 -0.0408
 3961TIP3   OH211888   1.923   3.056   2.731 -0.2568 -0.6816  0.7321
 3961TIP3    H111889   1.980   3.089   2.800 -1.6420 -0.1310  1.6463
 3961TIP3    H211890   1.932   3.119   2.660 -0.7340  0.1498  1.3947
 3962TIP3   OH211891   6.240   2.427   4.178 -0.2413  0.0345 -0.0025
 3962TIP3    H111892   6.176   2.498   4.185  0.6703  1.9745 -5.6608
 3962TIP3    H211893   6.324   2.468   4.197  0.1082  0.2153 -1.7006
 3963TIP3   OH211894   1.801   0.546   1.121 -0.2066  0.0204 -0.2458
 3963TIP3    H111895   1.742   0.588   1.184  1.3999 -0.2560  1.5344
 3963TIP3    H211896   1.760   0.462   1.102 -0.5018 -0.1013  0.8361
 3964TIP3   OH211897   1.329   0.818   3.791 -0.3812 -0.0777 -0.3760
 3964TIP3    H111898   1.364   0.790   3.875 -0.1803  0.7183 -0.1905
 3964TIP3    H211899   1.247   0.768   3.782 -0.7723  0.3483  0.6243
 3965TIP3   OH211900   0.064   0.735   3.581  0.1936  0.1623 -0.0101
 3965TIP3    H111901   0.035   0.827   3.579  1.8110  0.6820 -0.9341
 3965TIP3    H211902   0.118   0.729   3.659  0.8755  0.2650 -0.4658
 3966TIP3   OH211903   3.004   4.447   0.631  0.0587 -0.1657 -0.4103
 3966TIP3    H111904   3.068   4.463   0.561  0.9332 -1.0218  0.1651
 3966TIP3    H211905   3.019   4.518   0.694  0.3027 -0.2383 -0.3836
 3967TIP3   OH211906   2.039   1.101   3.833 -0.5284 -0.5396  0.7019
 3967TIP3    H111907   2.004   1.170   3.777 -1.2927 -0.4756  1.2409
 3967TIP3    H211908   2.129   1.088   3.802 -1.2750 -1.2850 -1.2594
 3968TIP3   OH211909   3.204   5.192   4.739 -0.6358  0.0518  0.0685
 3968TIP3    H111910   3.215   5.097   4.739  2.1000  0.2754 -1.1080
 3968TIP3    H211911   3.187   5.215   4.830 -1.6948 -1.5593  0.3181
 3969TIP3   OH211912   5.436   1.138   3.469  0.2942 -0.3011 -0.1739
 3969TIP3    H111913   5.386   1.123   3.549  0.6464  2.1840  0.5783
 3969TIP3    H211914   5.524   1.107   3.491  0.3707  0.2912  0.4042
 3970TIP3   OH211915   0.186   2.467   1.001 -0.2805 -0.2137 -0.3400
 3970TIP3    H111916   0.246   2.529   1.043 -0.0817 -0.4628 -0.2540
 3970TIP3    H211917   0.229   2.382   1.010 -0.1173 -0.2385 -1.2734
 3971TIP3   OH211918   0.912   4.082   3.556  0.0828 -0.0989 -0.3356
 3971TIP3    H111919   0.849   4.151   3.575 -0.4622 -0.4634 -0.8118
 3971TIP3    H211920   0.863   4.001   3.566  0.0362 -0.3446 -2.2945
 3972TIP3   OH211921   4.470   1.462   0.363  0.0482  0.1249  0.0671
 3972TIP3    H111922   4.450   1.403   0.290 -2.2579 -0.8684  1.3969
 3972TIP3    H211923   4.564   1.450   0.378  0.3602 -0.4407 -2.0253
 3973TIP3   OH211924   2.755   1.088   0.956  0.0174  0.0033 -0.1832
 3973TIP3    H111925   2.717   1.081   1.044 -1.5375 -0.7868 -0.8715
 3973TIP3    H211926   2.719   1.169   0.920 -1.0292 -0.7025 -0.8048
 3974TIP3   OH211927   3.033   3.864   0.848  0.1683 -0.0319 -0.5280
 3974TIP3    H111928   3.077   3.888   0.767  1.3836  1.4486  0.5262
 3974TIP3    H211929   3.031   3.944   0.900  0.5460 -1.2233  1.4257
 3975TIP3   OH211930   2.207   5.320   3.412 -0.0489 -0.0488 -0.2708
 3975TIP3    H111931   2.232   5.360   3.495 -2.2178 -0.2326  0.5154
 3975TIP3    H211932   2.263   5.243   3.405  0.3429  0.1120  0.8919
 3976TIP3   OH211933   3.984   1.440   3.202 -0.3023 -0.3925  0.0629
 3976TIP3    H111934   4.069   1.475   3.227 -1.0027  2.2117 -0.7942
 3976TIP3    H211935   4.001   1.386   3.125  0.5664  0.3185 -0.2551
 3977TIP3   OH211936   4.600   0.883   2.663 -0.5168 -0.0733  0.0210
 3977TIP3    H111937   4.666   0.865   2.596  1.3153 -0.6460  1.8622
 3977TIP3    H211938   4.520   0.900   2.614  0.8224 -0.0397 -2.3054
 3978TIP3   OH211939   2.269   0.835   3.333 -0.1337  0.2431 -0.2426
 3978TIP3    H111940   2.174   0.840   3.334 -0.1160  1.8168  2.4411
 3978TIP3    H211941   2.289   0.744   3.356 -0.8978 -0.5326 -2.3913
 3979TIP3   OH211942   4.045   4.187   2.142  0.3714  0.0723 -0.4775
 3979TIP3    H111943   3.988   4.210   2.068 -0.4461  2.1061  0.7064
 3979TIP3    H211944   3.989   4.134   2.198  0.1048  0.7801 -0.0577
 3980TIP3   OH211945   5.056   1.690   3.213 -0.1583 -0.0969  0.3297
 3980TIP3    H111946   5.013   1.607   3.233  0.3656 -0.6597 -0.7800
 3980TIP3    H211947   5.089   1.679   3.123  0.0674  1.2472  0.2229
 3981TIP3   OH211948   1.977   3.655   2.326  0.4178 -0.3576  0.0259
 3981TIP3    H111949   2.061   3.610   2.325  0.3178 -0.6187  1.5213
 3981TIP3    H211950   1.995   3.740   2.367  0.0322 -0.2382 -0.0415
 3982TIP3   OH211951   0.453   2.797   1.593  0.3758  0.3619 -0.5366
 3982TIP3    H111952   0.480   2.886   1.617  0.1235  0.1069  0.7629
 3982TIP3    H211953   0.497   2.741   1.657  0.0400 -0.4023 -0.9667
 3983TIP3   OH211954   6.136   0.676   2.217  0.2357 -0.0235 -0.3726
 3983TIP3    H111955   6.103   0.620   2.286  1.2986  0.4690  0.5687
 3983TIP3    H211956   6.153   0.760   2.260  0.6190  0.3885 -1.2913
 3984TIP3   OH211957   5.234   0.305   1.005  0.1979  0.6146 -0.0837
 3984TIP3    H111958   5.261   0.317   1.096  0.4024 -1.9390  0.2691
 3984TIP3    H211959   5.315   0.314   0.954  0.5718 -0.5470  0.2855
 3985TIP3   OH211960   4.621   4.021   1.131 -0.1205 -0.4705  0.3397
 3985TIP3    H111961   4.620   3.998   1.224  0.5490 -0.1919  0.4234
 3985TIP3    H211962   4.713   4.033   1.111 -0.1275 -2.0601 -0.7625
 3986TIP3   OH211963   5.324   5.654   4.020 -0.4067  0.1206  0.3659
 3986TIP3    H111964   5.239   5.639   4.061 -0.8061  0.4122 -0.3465
 3986TIP3    H211965   5.379   5.583   4.053 -0.9194 -0.0605  0.8458
 3987TIP3   OH211966   4.804   1.194   1.628  0.2237  0.2608 -0.2342
 3987TIP3    H111967   4.759   1.153   1.702  0.1818  0.0662 -0.3654
 3987TIP3    H211968   4.787   1.135   1.554 -1.9108  1.7507 -1.0320
 3988TIP3   OH211969   0.906   0.824   4.172  0.2517  0.2965 -0.3934
 3988TIP3    H111970   0.970   0.754   4.183 -0.7128 -0.5104  0.2364
 3988TIP3    H211971   0.876   0.815   4.081 -0.2355 -0.4350 -0.1650
 3989TIP3   OH211972   5.661   3.034   5.076 -0.2903 -0.0908 -0.0803
 3989TIP3    H111973   5.705   3.068   4.999 -0.5665  0.5096  0.0137
 3989TIP3    H211974   5.659   2.939   5.064  0.4968 -0.0772 -0.3581
 3990TIP3   OH211975   0.398   5.143   1.806 -0.2864  0.2170 -0.7440
 3990TIP3    H111976   0.492   5.153   1.793  0.1830 -1.6348  0.7953
 3990TIP3    H211977   0.382   5.182   1.892 -0.4643 -1.5875  0.0721
 3991TIP3   OH211978   1.098   1.370  -0.010 -0.7652  0.0994  0.0468
 3991TIP3    H111979   1.081   1.283   0.027  2.3011 -1.1077 -1.0205
 3991TIP3    H211980   1.150   1.415   0.057  2.5219 -1.1202 -1.4712
 3992TIP3   OH211981   3.945   3.762   1.244 -0.1673 -0.0190  0.0277
 3992TIP3    H111982   3.981   3.802   1.323 -0.3882  0.4306 -0.0921
 3992TIP3    H211983   3.951   3.831   1.178 -0.5157 -0.2002 -0.1953
 3993TIP3   OH211984   2.416   5.742   1.542 -0.8135 -0.3428 -0.1405
 3993TIP3    H111985   2.347   5.691   1.499 -1.1457  0.8457 -1.0789
 3993TIP3    H211986   2.494   5.688   1.535 -0.7886 -0.0951 -2.5354
 3994TIP3   OH211987   5.612   2.460   5.204  0.6601  0.6397  0.3724
 3994TIP3    H111988   5.587   2.449   5.112  0.5063  0.1347  0.4757
 3994TIP3    H211989   5.693   2.410   5.213  0.1790 -0.0691  0.7394
 3995TIP3   OH211990   0.302   3.572   2.840  0.0490  0.1050  0.4781
 3995TIP3    H111991   0.358   3.648   2.857 -0.7024  0.7238  0.2104
 3995TIP3    H211992   0.221   3.590   2.887 -0.3292 -0.2944 -0.0045
 3996TIP3   OH211993   5.508   1.292   0.824 -0.0673  0.3182 -0.2641
 3996TIP3    H111994   5.533   1.384   0.835 -1.2535  0.6884 -0.5036
 3996TIP3    H211995   5.450   1.292   0.748  1.4748 -0.9439 -1.4974
 3997TIP3   OH211996   3.948   2.743   4.850  0.3643 -0.3646 -0.1322
 3997TIP3    H111997   3.972   2.836   4.853 -0.0148 -0.2286 -1.1140
 3997TIP3    H211998   3.978   2.713   4.765 -0.4828 -0.8673 -0.2692
 3998TIP3   OH211999   1.764   3.450   4.491 -0.4418  0.4637 -0.3805
 3998TIP3    H112000   1.796   3.535   4.520  0.5303  0.8088 -2.3145
 3998TIP3    H212001   1.841   3.408   4.452 -1.3332 -0.5378 -1.1187
 3999TIP3   OH212002   4.391   1.453   3.872  0.0843 -0.2299  0.2411
 3999TIP3    H112003   4.330   1.384   3.846 -0.1450 -0.6715  1.8624
 3999TIP3    H212004   4.471   1.434   3.824 -0.3180 -1.0039 -0.1326
 4000TIP3   OH212005   3.830   4.959   0.749 -0.0735 -0.0170 -0.0157
 4000TIP3    H112006   3.821   5.011   0.669  1.5262  0.9533  0.4004
 4000TIP3    H212007   3.921   4.929   0.749 -0.0759 -0.1077  1.3551
 4001TIP3   OH212008   4.358   0.601   2.601  0.3118  0.0054 -0.1710
 4001TIP3    H112009   4.421   0.635   2.536 -0.4945 -1.1222 -1.5961
 4001TIP3    H212010   4.279   0.653   2.585  0.4193  0.4278  0.6374
 4002TIP3   OH212011   0.356   1.303   1.387 -0.5322  0.1853  0.1559
 4002TIP3    H112012   0.386   1.282   1.476  2.2427 -1.2170 -0.9937
 4002TIP3    H212013   0.264   1.275   1.385 -0.3826 -0.6032  2.2815
 4003TIP3   OH212014   1.043   3.244   4.350 -0.1551 -0.0710 -0.3710
 4003TIP3    H112015   1.027   3.152   4.330  1.6817 -0.1590 -1.7059
 4003TIP3    H212016   1.103   3.242   4.426 -1.4648  0.0974  0.6983
 4004TIP3   OH212017   6.080   4.837   2.018  0.1089  0.0689  0.5264
 4004TIP3    H112018   6.167   4.875   2.024  0.0884  0.1318  0.4059
 4004TIP3    H212019   6.094   4.751   1.978 -0.0761  0.7205 -0.9727
 4005TIP3   OH212020   5.213   1.077   4.720  0.1068  0.3502 -0.0599
 4005TIP3    H112021   5.212   0.989   4.683  0.0373  0.6665 -0.8313
 4005TIP3    H212022   5.276   1.125   4.666  1.8094  0.2198  1.7083
 4006TIP3   OH212023   0.626   5.149   3.901 -0.2577 -0.1798  0.5626
 4006TIP3    H112024   0.688   5.092   3.857  0.9013  1.7756 -0.5105
 4006TIP3    H212025   0.659   5.156   3.991  0.7107  0.2925  0.1882
 4007TIP3   OH212026   5.152   4.796   1.125  0.0095  0.5355  0.2843
 4007TIP3    H112027   5.079   4.812   1.066 -1.6900 -0.9931  1.8842
 4007TIP3    H212028   5.180   4.707   1.106  1.7920  1.2162 -0.5751
 4008TIP3   OH212029   3.147   1.176   4.781  0.2436 -0.4788 -0.2646
 4008TIP3    H112030   3.107   1.118   4.845 -1.7246  0.1949 -0.7939
 4008TIP3    H212031   3.079   1.241   4.762  0.9909 -0.2696 -2.5306
 4009TIP3   OH212032   2.250   4.248   1.912  0.4596  0.4164  0.4021
 4009TIP3    H112033   2.307   4.176   1.886  0.1582  0.1935  0.3426
 4009TIP3    H212034   2.296   4.327   1.885  0.3967  0.2114 -0.3191
 4010TIP3   OH212035   0.772   1.090   2.880 -0.2826  0.3220  0.4927
 4010TIP3    H112036   0.749   1.025   2.814 -2.1067  0.8040  0.5857
 4010TIP3    H212037   0.781   1.040   2.961 -1.6166  0.1517  0.5557
 4011TIP3   OH212038   2.471   2.629   2.171 -0.2777  0.3616  0.1244
 4011TIP3    H112039   2.376   2.630   2.159 -0.4214  0.1674  1.1865
 4011TIP3    H212040   2.485   2.578   2.251  0.6503  1.3131  0.5963
 4012TIP3   OH212041   3.846   5.677   4.333  0.4840 -0.1824  0.0448
 4012TIP3    H112042   3.855   5.644   4.422  1.5056 -2.5229 -0.8342
 4012TIP3    H212043   3.844   5.772   4.342 -1.0463 -0.3648  2.6532
 4013TIP3   OH212044   2.276   5.071   3.258  0.2483  0.8144  0.5586
 4013TIP3    H112045   2.224   5.000   3.296  1.6934 -0.2142  0.7458
 4013TIP3    H212046   2.364   5.033   3.250 -0.0999  0.3330 -5.1978
 4014TIP3   OH212047   0.985   3.506   4.377 -0.2070  0.0598 -0.1098
 4014TIP3    H112048   1.008   3.555   4.298 -0.2264 -0.6190 -0.5452
 4014TIP3    H212049   1.035   3.425   4.370 -2.3115 -1.2492 -0.8407
 4015TIP3   OH212050   0.381   5.735   5.175  0.4755  0.0859  0.0664
 4015TIP3    H112051   0.454   5.744   5.236  0.6971 -1.2333  0.0241
 4015TIP3    H212052   0.391   5.809   5.115 -0.3110  2.0051  2.1637
 4016TIP3   OH212053   2.169   5.833   2.315 -0.0789 -0.1126 -0.2811
 4016TIP3    H112054   2.088   5.873   2.283  0.1417  0.5199 -0.0661
 4016TIP3    H212055   2.189   5.764   2.252 -1.2850 -0.8949  0.1665
 4017TIP3   OH212056   0.986   0.761   3.419  0.2160 -0.0432 -0.5169
 4017TIP3    H112057   0.980   0.672   3.456 -1.2706 -0.1355 -0.8962
 4017TIP3    H212058   1.024   0.748   3.332  0.4212 -0.2602 -0.3962
 4018TIP3   OH212059   5.110   5.634   4.860 -0.2988 -0.5434 -0.3897
 4018TIP3    H112060   5.205   5.629   4.848 -0.0387 -1.5317  1.6481
 4018TIP3    H212061   5.076   5.657   4.774  1.8194  0.3026 -1.0595
 4019TIP3   OH212062   2.323   1.112   1.973  0.4656  0.0880 -0.2802
 4019TIP3    H112063   2.388   1.067   1.920  2.7850  1.0344  1.5804
 4019TIP3    H212064   2.244   1.057   1.966  2.1009 -2.3680 -0.8374
 4020TIP3   OH212065   2.044   1.274   0.262  0.4745  0.7006  0.4834
 4020TIP3    H112066   2.027   1.221   0.184  1.4790 -1.6537  1.7397
 4020TIP3    H212067   1.968   1.332   0.270  0.2117  0.8090 -2.0255
 4021TIP3   OH212068   4.294   5.759   0.883  1.0952 -0.0850 -0.1037
 4021TIP3    H112069   4.355   5.820   0.840 -0.4142  0.3316 -1.7861
 4021TIP3    H212070   4.236   5.816   0.933  0.6819 -0.2757 -0.3646
 4022TIP3   OH212071   2.093   1.327   2.143  0.4289 -0.5136  0.2787
 4022TIP3    H112072   2.058   1.406   2.183  0.9895  0.2223 -0.6466
 4022TIP3    H212073   2.140   1.283   2.214  0.0101 -0.0977  0.8276
 4023TIP3   OH212074   1.658   5.208   1.888 -0.4040 -0.1039 -0.0593
 4023TIP3    H112075   1.650   5.221   1.983  1.0050 -0.5018  0.1322
 4023TIP3    H212076   1.692   5.120   1.878  0.0092  0.1411 -0.9185
 4024TIP3   OH212077   5.106   5.815   2.755 -0.0497  0.2242 -0.0654
 4024TIP3    H112078   5.118   5.797   2.662 -0.4653 -0.4021 -0.0046
 4024TIP3    H212079   5.125   5.908   2.764  3.2266 -0.3188 -0.2306
 4025TIP3   OH212080   1.284   4.857   2.790 -0.3177  0.1674  0.1138
 4025TIP3    H112081   1.319   4.834   2.704 -1.2185 -0.9915  0.0206
 4025TIP3    H212082   1.304   4.781   2.845 -1.6171 -0.0304  0.3452
 4026TIP3   OH212083   2.558   5.304   3.460  0.5583  0.0611  0.2301
 4026TIP3    H112084   2.539   5.225   3.510  2.0902 -0.1087  0.5977
 4026TIP3    H212085   2.513   5.374   3.507 -0.3293 -0.4934  0.2304
 4027TIP3   OH212086   6.101   5.133   3.175 -0.0490 -0.3803  0.0336
 4027TIP3    H112087   6.082   5.201   3.110 -0.0607  0.7170  1.1329
 4027TIP3    H212088   6.041   5.062   3.154  0.6813 -0.5180 -1.7995
 4028TIP3   OH212089   5.476   1.818   5.037  0.4234 -0.2918  0.0884
 4028TIP3    H112090   5.398   1.846   5.085  1.7548  1.2833  1.4534
 4028TIP3    H212091   5.457   1.840   4.946  0.0898  2.1338  0.6809
 4029TIP3   OH212092   4.316   0.528   1.914 -0.1003  0.3540  0.1364
 4029TIP3    H112093   4.386   0.487   1.863  0.9857  2.3371 -0.0541
 4029TIP3    H212094   4.248   0.548   1.850 -0.3585 -0.5050  0.1267
 4030TIP3   OH212095   2.363   0.941   0.332  0.2870  0.5681 -0.1724
 4030TIP3    H112096   2.321   1.019   0.367  1.5651  1.4641 -0.5698
 4030TIP3    H212097   2.410   0.903   0.407 -3.3683 -2.0862  1.0632
 4031TIP3   OH212098   4.892   3.472   1.421  0.5313 -0.8196  0.2119
 4031TIP3    H112099   4.831   3.499   1.352  0.6224 -0.9318  0.0853
 4031TIP3    H212100   4.977   3.507   1.393  0.1817  1.2005  1.4490
 4032TIP3   OH212101   0.822   0.110   2.289  0.2760 -0.0228 -0.0355
 4032TIP3    H112102   0.753   0.173   2.271  2.5478  2.2379 -1.5368
 4032TIP3    H212103   0.815   0.045   2.219  0.8834  1.3503 -1.4214
 4033TIP3   OH212104   2.907   3.790   0.444 -0.0012  0.5962  0.5993
 4033TIP3    H112105   2.931   3.846   0.371 -0.5823  1.8454  1.3205
 4033TIP3    H212106   2.891   3.704   0.405  1.2661  0.8274 -0.4861
 4034TIP3   OH212107   3.943   2.506   2.929  0.1794  0.6803  0.4006
 4034TIP3    H112108   3.903   2.460   3.002  0.3617  0.1313  0.1554
 4034TIP3    H212109   3.979   2.437   2.873  0.5991  1.1232  0.1160
 4035TIP3   OH212110   6.113   4.960   4.752  0.0515  0.3676 -0.2392
 4035TIP3    H112111   6.165   4.946   4.673  0.9128  0.0783  0.3589
 4035TIP3    H212112   6.079   4.873   4.774  1.1637  0.1201  0.6032
 4036TIP3   OH212113   5.766   0.742   0.099 -0.1139  0.1254  0.0194
 4036TIP3    H112114   5.770   0.749   0.004  1.3849 -0.7894 -0.0248
 4036TIP3    H212115   5.807   0.658   0.118 -0.9534  0.0130  1.4459
 4037TIP3   OH212116   5.353   1.721   3.139  0.2295 -0.3751 -0.2718
 4037TIP3    H112117   5.277   1.721   3.198 -1.6013  0.3006 -2.4667
 4037TIP3    H212118   5.428   1.739   3.196 -1.4796  0.7948  1.7564
 4038TIP3   OH212119   4.898   3.307   1.658 -0.1652 -0.6195  0.2249
 4038TIP3    H112120   4.940   3.365   1.722  1.2693 -0.7780 -0.5369
 4038TIP3    H212121   4.919   3.347   1.573 -1.1620 -0.9808 -0.1931
 4039TIP3   OH212122   5.811   1.263   3.314 -0.1856 -0.5147  0.0139
 4039TIP3    H112123   5.808   1.227   3.225  1.9238 -0.8538  0.0451
 4039TIP3    H212124   5.825   1.357   3.300  1.5584 -0.7546 -0.0443
 4040TIP3   OH212125   0.742   1.692   1.292 -0.4540  0.0486  0.1553
 4040TIP3    H112126   0.670   1.745   1.260 -0.0943 -0.5002 -1.6292
 4040TIP3    H212127   0.713   1.662   1.378 -1.6959  1.0617  0.1142
 4041TIP3   OH212128   3.783   4.491   1.129 -0.4925  0.3339 -0.6740
 4041TIP3    H112129   3.778   4.437   1.207 -0.2255  1.3756  0.0848
 4041TIP3    H212130   3.868   4.535   1.136 -0.1227 -0.1261 -1.9423
 4042TIP3   OH212131   2.432   5.439   0.897 -0.3892 -0.3469 -0.2737
 4042TIP3    H112132   2.343   5.457   0.927 -0.4100 -0.8703  0.0127
 4042TIP3    H212133   2.421   5.374   0.828 -0.2365 -0.3566 -0.2883
 4043TIP3   OH212134   5.005   1.947   0.167 -0.1413 -0.0629 -0.2750
 4043TIP3    H112135   4.969   1.972   0.252  0.3532 -1.7613  0.4831
 4043TIP3    H212136   4.973   1.857   0.154 -0.9487  0.4694 -2.3214
 4044TIP3   OH212137   0.924   0.025   2.010  0.7929 -0.6558 -0.2089
 4044TIP3    H112138   0.931  -0.069   1.995 -2.1832 -0.6783 -1.9981
 4044TIP3    H212139   0.971   0.064   1.937  1.4330 -0.7067  0.1620
 4045TIP3   OH212140   0.199   4.336   1.622  0.0716 -0.5922 -0.1045
 4045TIP3    H112141   0.203   4.388   1.542  1.5843 -0.8814 -0.2407
 4045TIP3    H212142   0.157   4.254   1.596  1.2940 -1.0142 -0.8012
 4046TIP3   OH212143   1.817   4.479   1.280 -0.4027  0.1846  0.0035
 4046TIP3    H112144   1.852   4.450   1.196  2.1530 -2.3060  1.7334
 4046TIP3    H212145   1.835   4.573   1.283 -1.2150  0.4792 -2.4422
 4047TIP3   OH212146   5.916   4.252   3.480  0.0264  0.1191  0.1373
 4047TIP3    H112147   5.974   4.178   3.500  0.7436  0.6169 -0.0668
 4047TIP3    H212148   5.889   4.237   3.389 -0.1200 -0.0759  0.2105
 4048TIP3   OH212149   2.209   2.182   4.904  0.1551  0.1055  0.0740
 4048TIP3    H112150   2.219   2.221   4.991  0.5580  0.2717 -0.0463
 4048TIP3    H212151   2.273   2.111   4.902  0.2643  0.2087 -0.1475
 4049TIP3   OH212152   4.753   4.891   3.716  0.3016  0.3029 -0.3269
 4049TIP3    H112153   4.734   4.818   3.657  0.2487  0.6306 -0.7253
 4049TIP3    H212154   4.761   4.852   3.803 -1.3184  0.0258 -0.2783
 4050TIP3   OH212155   4.205   4.742   1.843  0.2457 -0.1008 -0.0617
 4050TIP3    H112156   4.228   4.669   1.900 -0.3025 -0.9875 -0.9482
 4050TIP3    H212157   4.258   4.729   1.764 -1.1259 -0.5567 -0.9497
 4051TIP3   OH212158   5.284   5.024   4.454 -0.0089 -0.0199 -0.2943
 4051TIP3    H112159   5.298   5.064   4.368 -0.8211  0.9760  0.0080
 4051TIP3    H212160   5.283   5.098   4.515  0.2725 -0.6891  0.5386
 4052TIP3   OH212161   1.666   3.134   2.728 -0.5326  0.1429  0.4192
 4052TIP3    H112162   1.758   3.115   2.744  0.2311  2.4763 -0.7522
 4052TIP3    H212163   1.662   3.229   2.715 -3.3305  0.3320  1.7890
 4053TIP3   OH212164   4.518   1.295   1.370  0.4218 -0.2738  0.2620
 4053TIP3    H112165   4.536   1.219   1.425 -1.3192  0.2888  1.7251
 4053TIP3    H212166   4.423   1.296   1.361  0.5761  0.4197 -1.7083
 4054TIP3   OH212167   0.392   0.425   2.139  0.2593  0.5589  0.4124
 4054TIP3    H112168   0.305   0.395   2.111  0.5667 -0.3051  0.3750
 4054TIP3    H212169   0.375   0.478   2.217 -0.1525 -1.1537  1.5450
 4055TIP3   OH212170   6.021   2.368   1.899 -0.8428  0.0497  0.2758
 4055TIP3    H112171   6.025   2.307   1.825  1.2605  1.8244 -1.2241
 4055TIP3    H212172   5.974   2.444   1.864  0.3045  0.9673  0.6622
 4056TIP3   OH212173   2.481   0.029   0.986 -0.2794 -0.4782 -0.1434
 4056TIP3    H112174   2.576   0.025   0.987 -0.2736 -4.1088 -0.5573
 4056TIP3    H212175   2.455  -0.009   0.902 -2.0980 -0.2922  0.2742
 4057TIP3   OH212176   2.565   1.888   0.667 -0.0800  0.8843 -0.2922
 4057TIP3    H112177   2.630   1.956   0.689 -0.0592  1.2777 -1.4854
 4057TIP3    H212178   2.617   1.809   0.653 -0.2294  0.0870  2.7942
 4058TIP3   OH212179   3.167   3.455   3.871  0.1750  0.2656  0.0870
 4058TIP3    H112180   3.256   3.468   3.904  0.0231 -0.4076  0.7656
 4058TIP3    H212181   3.162   3.362   3.851  0.3347  0.6783 -2.0821
 4059TIP3   OH212182   5.579   3.268   0.271  0.0778 -0.3930 -0.3957
 4059TIP3    H112183   5.660   3.217   0.271  0.5153  0.2828 -0.3440
 4059TIP3    H212184   5.608   3.358   0.283 -0.7971 -0.3079  1.3020
 4060TIP3   OH212185   2.740   1.020   3.647  0.8560  0.5150  0.6942
 4060TIP3    H112186   2.760   1.070   3.725  0.9255  0.2187  0.8674
 4060TIP3    H212187   2.799   1.055   3.580  0.8895  0.6768  0.8095
 4061TIP3   OH212188   3.208   5.480   2.527  0.0770  0.3231 -0.1692
 4061TIP3    H112189   3.201   5.463   2.621 -0.4523  1.0026 -0.0787
 4061TIP3    H212190   3.299   5.508   2.514 -0.3967  2.3273  0.5084
 4062TIP3   OH212191   1.731   0.521   0.026  0.4083  0.6088  0.1449
 4062TIP3    H112192   1.745   0.615   0.036  1.2784  0.2719  3.1157
 4062TIP3    H212193   1.774   0.482   0.103 -1.8915 -2.0245  0.2533
 4063TIP3   OH212194   4.560   4.779   2.282  0.3315 -0.4888 -0.1458
 4063TIP3    H112195   4.566   4.734   2.366  0.7254 -1.6338 -0.7577
 4063TIP3    H212196   4.528   4.712   2.221 -0.2838  0.4112 -0.8483
 4064TIP3   OH212197   0.142   4.596   4.152 -0.4703 -0.1798  0.3243
 4064TIP3    H112198   0.192   4.515   4.150  1.4489  0.9375  0.7039
 4064TIP3    H212199   0.077   4.585   4.083  0.7361 -1.4276 -0.6736
 4065TIP3   OH212200   5.347   3.711   0.693 -0.0506  0.9653  0.0145
 4065TIP3    H112201   5.392   3.773   0.637 -0.3487  0.6164 -0.6218
 4065TIP3    H212202   5.351   3.750   0.781 -2.1529  2.9973 -0.6875
 4066TIP3   OH212203   1.677   5.469   4.036  0.3122 -0.1706  0.1223
 4066TIP3    H112204   1.655   5.379   4.011  0.2147 -0.1952  0.2955
 4066TIP3    H212205   1.773   5.470   4.038  0.3145 -0.2607  0.0800
 4067TIP3   OH212206   4.959   4.982   1.896 -0.1110  0.0326 -0.2051
 4067TIP3    H112207   4.987   5.058   1.845  0.5151 -0.6027 -0.8247
 4067TIP3    H212208   4.944   4.914   1.832 -0.9496 -0.2928  0.3259
 4068TIP3   OH212209   1.490   2.751   1.469 -0.0473 -0.0596 -0.3683
 4068TIP3    H112210   1.406   2.790   1.494 -0.7046 -1.9227  0.5289
 4068TIP3    H212211   1.466   2.668   1.428  1.3161  0.0925 -1.5543
 4069TIP3   OH212212   4.188   5.832   4.892  0.3228 -0.5620 -0.7437
 4069TIP3    H112213   4.258   5.873   4.840 -1.2682  1.3752 -1.4717
 4069TIP3    H212214   4.108   5.850   4.844 -0.7519 -2.5466  0.1857
 4070TIP3   OH212215   1.345   3.552   2.550  0.0743 -0.1846  0.0297
 4070TIP3    H112216   1.300   3.629   2.514 -2.2771 -0.8874  1.2835
 4070TIP3    H212217   1.316   3.479   2.495  0.3644 -0.5341  0.3375
 4071TIP3   OH212218   5.272   2.085   1.811  0.5852  0.2596 -0.2556
 4071TIP3    H112219   5.205   2.114   1.749  1.5275  0.4777 -1.2043
 4071TIP3    H212220   5.326   2.024   1.761  1.1368  0.1420  0.4713
 4072TIP3   OH212221   6.237   2.885   3.771 -0.1033  0.1648  0.4841
 4072TIP3    H112222   6.315   2.926   3.737 -0.2183 -0.2624 -0.3187
 4072TIP3    H212223   6.177   2.957   3.791  0.8994  0.5745  2.2103
 4073TIP3   OH212224   4.773   2.050   0.727 -0.1139 -0.0359 -0.1875
 4073TIP3    H112225   4.687   2.020   0.697  0.3987 -0.1093 -1.6926
 4073TIP3    H212226   4.814   2.086   0.648  1.4357 -0.4671  0.3979
 4074TIP3   OH212227   2.487   4.171   1.804 -0.0102 -0.0412  0.0656
 4074TIP3    H112228   2.515   4.257   1.773 -0.8502  0.1617 -0.1541
 4074TIP3    H212229   2.566   4.132   1.842  0.8958  0.0203 -1.6129
 4075TIP3   OH212230   5.645   1.966   3.642 -0.2138  0.3146  0.0284
 4075TIP3    H112231   5.691   1.950   3.559 -2.9554  0.1363 -1.5928
 4075TIP3    H212232   5.647   1.882   3.687  0.8737  0.2736 -0.0671
 4076TIP3   OH212233   0.654   3.974   3.451  0.3005  0.2138  0.2907
 4076TIP3    H112234   0.581   4.036   3.454 -0.9841 -1.2485  0.5281
 4076TIP3    H212235   0.690   3.984   3.363 -0.2165  0.9235  0.1495
 4077TIP3   OH212236   4.277   4.463   0.564  0.8488 -0.2685  0.0505
 4077TIP3    H112237   4.348   4.436   0.623  1.4621 -0.7900 -0.8997
 4077TIP3    H212238   4.240   4.381   0.532  2.1886 -0.0661 -2.2279
 4078TIP3   OH212239   4.872   0.038   1.572 -0.7238 -0.0227  0.2020
 4078TIP3    H112240   4.794   0.035   1.627 -1.4266 -2.3622 -0.7741
 4078TIP3    H212241   4.881   0.130   1.548 -2.7429  0.4294  0.9408
 4079TIP3   OH212242   4.046   1.875   3.887 -0.3812 -0.2002  0.1358
 4079TIP3    H112243   4.138   1.851   3.898  0.2836  2.2271  0.4703
 4079TIP3    H212244   4.039   1.962   3.925 -2.5737  0.1767 -0.9542
 4080TIP3   OH212245   2.254   0.797   2.285  0.8157  0.5405 -0.0200
 4080TIP3    H112246   2.337   0.821   2.326  0.1486  0.3805  1.4845
 4080TIP3    H212247   2.249   0.702   2.294 -0.3281  0.7084  1.5703
 4081TIP3   OH212248   1.747   2.426   0.601  0.1936 -0.2418 -0.6936
 4081TIP3    H112249   1.838   2.414   0.572  0.1969 -0.3931 -0.6190
 4081TIP3    H212250   1.719   2.339   0.630  0.0603 -0.1720 -0.6126
 4082TIP3   OH212251   2.769   3.750   0.097  0.1552  0.1704  0.0312
 4082TIP3    H112252   2.794   3.751   0.004  2.5246  2.5740  0.5817
 4082TIP3    H212253   2.823   3.682   0.136  0.3215  0.2460 -0.0679
 4083TIP3   OH212254   1.917   5.522   3.034 -0.0694 -0.3435  0.3809
 4083TIP3    H112255   1.908   5.606   3.079 -2.5555 -0.8677  1.0246
 4083TIP3    H212256   1.926   5.546   2.941 -0.6765  0.6607  0.5555
 4084TIP3   OH212257   1.403   1.324   0.855 -0.5349 -0.3943 -0.4228
 4084TIP3    H112258   1.416   1.291   0.766 -0.3582 -0.9515 -0.1973
 4084TIP3    H212259   1.478   1.381   0.870  0.2574 -1.4848 -0.1006
 4085TIP3   OH212260   4.380   0.523   5.156  0.0044  0.3730 -0.0518
 4085TIP3    H112261   4.287   0.531   5.135 -0.1337 -1.4616 -0.2632
 4085TIP3    H212262   4.383   0.522   5.252 -0.4691 -1.7442 -0.0070
 4086TIP3   OH212263   2.575   2.538   0.445  0.4720  0.0082  0.6070
 4086TIP3    H112264   2.670   2.546   0.435  0.4177 -0.6533 -0.6417
 4086TIP3    H212265   2.564   2.471   0.513  0.9133 -0.5343  0.1580
 4087TIP3   OH212266   1.087   1.433   3.315  0.0959 -0.9461 -0.5719
 4087TIP3    H112267   1.039   1.368   3.368  1.9913 -2.1858 -0.2710
 4087TIP3    H212268   1.062   1.413   3.225  1.5851 -3.0061 -0.6012
 4088TIP3   OH212269   1.677   0.841   3.747 -0.5655 -0.1571  0.0475
 4088TIP3    H112270   1.682   0.773   3.680  0.2545  0.8576 -0.9447
 4088TIP3    H212271   1.703   0.796   3.828 -0.4144 -1.1129 -0.5100
 4089TIP3   OH212272   5.977   2.823   2.382 -0.0935  0.0011 -0.4200
 4089TIP3    H112273   6.050   2.825   2.444 -0.8985  0.2547  0.5472
 4089TIP3    H212274   5.965   2.915   2.356  0.5610 -0.1670 -1.3526
 4090TIP3   OH212275   2.678   1.156   1.646  0.0727 -0.5517  0.2454
 4090TIP3    H112276   2.661   1.250   1.649 -2.9885 -0.9204 -1.3427
 4090TIP3    H212277   2.743   1.146   1.577 -1.4986  0.2823 -1.4389
 4091TIP3   OH212278   0.586   3.879   5.014 -0.2181  0.0927 -0.3472
 4091TIP3    H112279   0.620   3.862   5.102  0.7496  1.1468 -0.4927
 4091TIP3    H212280   0.604   3.798   4.966  0.3935 -0.0464  0.0997
 4092TIP3   OH212281   5.833   4.571   0.696 -0.8896  0.2100  0.2753
 4092TIP3    H112282   5.883   4.491   0.708 -1.1238  0.3397  2.4341
 4092TIP3    H212283   5.801   4.566   0.605  1.3021 -0.8211 -0.4994
 4093TIP3   OH212284   2.506   5.584   1.903 -0.4623 -0.1331 -0.3011
 4093TIP3    H112285   2.482   5.493   1.888  0.7297 -0.4121 -0.5928
 4093TIP3    H212286   2.602   5.585   1.899 -0.4584  1.1294 -0.2982
 4094TIP3   OH212287   4.904   5.816   3.851  0.5656 -0.0159  0.2542
 4094TIP3    H112288   4.872   5.742   3.904  0.5649  1.1912  2.0211
 4094TIP3    H212289   4.824   5.858   3.819  0.5753 -1.2088 -1.4423
 4095TIP3   OH212290   3.767   3.623   3.623  0.0975  0.1095  0.8739
 4095TIP3    H112291   3.745   3.660   3.708  0.1819  1.6689  0.2685
 4095TIP3    H212292   3.860   3.600   3.629  0.3817  1.1948  0.9066
 4096TIP3   OH212293   3.512   5.741   0.457 -0.4825 -0.6245  0.4014
 4096TIP3    H112294   3.542   5.700   0.376  0.3405 -0.0489  0.3931
 4096TIP3    H212295   3.508   5.669   0.520  1.6657 -0.6604  0.5869
 4097TIP3   OH212296   3.827   0.431   1.961 -0.1639  0.5634 -0.1666
 4097TIP3    H112297   3.818   0.525   1.975 -0.4059  0.4989  0.1289
 4097TIP3    H212298   3.918   0.412   1.981 -0.7004  0.3076  2.3891
 4098TIP3   OH212299   3.865   2.093   1.695 -0.4826  0.4481  0.4640
 4098TIP3    H112300   3.825   2.171   1.733 -1.8768  0.6845 -1.3451
 4098TIP3    H212301   3.888   2.119   1.606  1.1040 -0.5689  0.5453
 4099TIP3   OH212302   2.415   2.790   0.383  0.2730  0.2519 -0.4048
 4099TIP3    H112303   2.481   2.720   0.378  1.0651  0.9932 -0.4791
 4099TIP3    H212304   2.416   2.829   0.296 -1.6087 -0.9070 -1.0051
 4100TIP3   OH212305   5.154   1.110   3.377 -0.1031 -0.0365 -0.1994
 4100TIP3    H112306   5.173   1.153   3.293 -0.4099  1.4684  0.4871
 4100TIP3    H212307   5.240   1.102   3.419  0.3005 -2.2752 -1.2945
 4101TIP3   OH212308   5.863   0.223   4.274  0.0590  0.0246  0.8452
 4101TIP3    H112309   5.924   0.265   4.213  0.0769  2.1170  2.1942
 4101TIP3    H212310   5.779   0.263   4.254 -0.7157 -1.9907 -0.2168
 4102TIP3   OH212311   0.183   1.843   4.752 -0.5488  0.1848  0.4865
 4102TIP3    H112312   0.261   1.896   4.766 -0.4299  0.0796  0.2346
 4102TIP3    H212313   0.137   1.886   4.680 -0.8082  0.3388  0.7417
 4103TIP3   OH212314   1.626   1.571   0.723 -0.5779 -0.1994 -0.0458
 4103TIP3    H112315   1.533   1.563   0.745 -0.6224 -0.0695 -0.1861
 4103TIP3    H212316   1.639   1.664   0.707 -0.4094 -0.2082  0.0303
 4104TIP3   OH212317   3.924   5.711   3.643 -0.0295  0.0521  0.0796
 4104TIP3    H112318   3.974   5.693   3.722 -1.2522 -0.7365  0.7030
 4104TIP3    H212319   3.835   5.729   3.674 -0.2074  1.2264 -1.0064
 4105TIP3   OH212320   5.666   5.122   3.034 -0.1058 -0.4901  0.2643
 4105TIP3    H112321   5.699   5.118   3.124 -1.0118 -0.4584  0.6071
 4105TIP3    H212322   5.572   5.102   3.042 -0.1281 -0.8149 -0.7111
 4106TIP3   OH212323   0.544   3.219   0.891  0.4638 -0.1610  0.1516
 4106TIP3    H112324   0.622   3.233   0.944  0.4403 -0.0157  0.1491
 4106TIP3    H212325   0.536   3.299   0.838  2.2629 -1.5025 -2.4048
 4107TIP3   OH212326   4.845   3.688   2.868 -0.5338  0.1047  0.3996
 4107TIP3    H112327   4.913   3.627   2.897 -1.6520 -2.6570 -2.2740
 4107TIP3    H212328   4.768   3.665   2.921 -0.5768  0.1519  0.3572
 4108TIP3   OH212329   1.623   3.645   4.204 -0.2141 -1.0219 -0.0798
 4108TIP3    H112330   1.613   3.683   4.117 -0.1577 -1.2931 -0.2045
 4108TIP3    H212331   1.717   3.631   4.214 -0.1764 -0.6115  0.1890
 4109TIP3   OH212332   4.151   3.768   1.721 -0.3893  0.0963  0.2101
 4109TIP3    H112333   4.205   3.694   1.749  0.8155  0.7120 -0.3725
 4109TIP3    H212334   4.187   3.843   1.767 -0.7175  0.5331 -0.2309
 4110TIP3   OH212335   6.009   3.482   4.879 -0.0634  0.2226 -0.5797
 4110TIP3    H112336   5.933   3.463   4.824 -0.4395 -1.4108  0.4170
 4110TIP3    H212337   6.074   3.417   4.853  0.3982  0.5735 -0.3108
 4111TIP3   OH212338   4.514   2.637   3.891 -0.3507  0.1863 -0.2949
 4111TIP3    H112339   4.501   2.552   3.848  1.5932 -0.2670 -0.0861
 4111TIP3    H212340   4.490   2.621   3.982  0.5990 -0.3471 -0.1203
 4112TIP3   OH212341   6.047   5.293   2.986  0.1322  0.0645  0.0783
 4112TIP3    H112342   5.985   5.356   3.024  1.0071  0.0697  1.5706
 4112TIP3    H212343   6.007   5.268   2.903 -0.0194  3.0058 -0.8696
 4113TIP3   OH212344   4.566   5.825   3.687  0.3546  0.2709 -0.2990
 4113TIP3    H112345   4.582   5.731   3.685  0.3936  0.2852 -1.6670
 4113TIP3    H212346   4.521   5.840   3.770 -0.2038 -1.0438 -0.3399
 4114TIP3   OH212347   3.347   3.050   0.783 -0.0136  0.1914 -0.3539
 4114TIP3    H112348   3.422   3.044   0.842  0.1251 -1.6756 -0.6491
 4114TIP3    H212349   3.378   3.011   0.701 -0.7182  1.2022 -1.1269
 4115TIP3   OH212350   3.370   0.363   1.001  0.1280  0.6349  0.0010
 4115TIP3    H112351   3.407   0.291   0.950  1.2542  2.1448 -1.4195
 4115TIP3    H212352   3.289   0.387   0.955 -0.1758  0.3625  0.3927
 4116TIP3   OH212353   0.046   5.109   4.604 -0.5406  0.1059 -0.4347
 4116TIP3    H112354   0.022   5.144   4.689 -0.5247  0.6737 -0.6608
 4116TIP3    H212355   0.092   5.027   4.623  0.1996  0.6478  0.1347
 4117TIP3   OH212356   0.455   4.374   1.500  0.3151 -0.2037  0.3315
 4117TIP3    H112357   0.379   4.357   1.555  0.5292  1.1528  1.0994
 4117TIP3    H212358   0.517   4.419   1.558  0.0930  2.3675 -1.2676
 4118TIP3   OH212359   0.599   5.827   0.843  0.7256  0.4597  0.4231
 4118TIP3    H112360   0.651   5.904   0.821  0.9878  0.9147  2.4376
 4118TIP3    H212361   0.615   5.813   0.936 -3.6255  1.3653  1.5440
 4119TIP3   OH212362   4.963   5.166   1.342  0.0353  0.0051  0.1589
 4119TIP3    H112363   4.953   5.162   1.438 -4.9660 -1.9375 -0.0980
 4119TIP3    H212364   4.976   5.075   1.316 -1.8632  0.0210 -1.0551
 4120TIP3   OH212365   0.581   4.895   1.010 -0.8021 -0.2227  0.0521
 4120TIP3    H112366   0.653   4.859   0.958 -1.6117 -1.0312 -0.5237
 4120TIP3    H212367   0.608   4.985   1.029 -1.1032  0.6126 -3.0034
 4121TIP3   OH212368   3.807   2.767   1.085 -0.6912 -0.0755  0.0960
 4121TIP3    H112369   3.771   2.738   1.001  1.5558 -0.3125 -0.8593
 4121TIP3    H212370   3.769   2.708   1.149  0.2511 -2.2606 -1.2291
 4122TIP3   OH212371   6.261   5.263   0.968 -0.4840  0.6298 -0.2286
 4122TIP3    H112372   6.329   5.242   1.033 -0.2672  0.0365 -0.6443
 4122TIP3    H212373   6.296   5.233   0.885 -0.6052  1.7273 -0.6965
 4123TIP3   OH212374   4.818   4.061   0.090 -0.4503  0.2123  0.0298
 4123TIP3    H112375   4.830   4.107   0.172  0.2844 -0.0594  0.0891
 4123TIP3    H212376   4.884   3.991   0.092 -0.7675 -0.1178 -0.5601
 4124TIP3   OH212377   2.310   1.028   3.789 -0.4812 -0.6822  0.3954
 4124TIP3    H112378   2.367   1.064   3.857 -3.4095  1.7008  1.7711
 4124TIP3    H212379   2.356   1.049   3.707  0.7950  0.8042  1.4281
 4125TIP3   OH212380   3.187   1.148   2.577 -0.3903 -0.2984  0.0926
 4125TIP3    H112381   3.259   1.097   2.540  0.6983  1.3903 -0.2811
 4125TIP3    H212382   3.209   1.239   2.555 -2.4026  0.3166  0.4052
 4126TIP3   OH212383   1.349   3.859   3.359 -0.1995  0.4882 -0.4271
 4126TIP3    H112384   1.433   3.878   3.401 -0.3044  0.3363 -0.1495
 4126TIP3    H212385   1.337   3.931   3.297 -0.1941  0.8797  0.0228
 4127TIP3   OH212386   2.624   0.243   1.709 -0.1008 -0.0405  0.3737
 4127TIP3    H112387   2.712   0.241   1.748 -0.7462 -0.7992  1.8639
 4127TIP3    H212388   2.626   0.174   1.643  1.8510  2.9459 -3.0981
 4128TIP3   OH212389   4.740   5.860   0.042 -0.5795  0.0602 -0.9904
 4128TIP3    H112390   4.687   5.821   0.111  0.4751  1.3631  0.6465
 4128TIP3    H212391   4.697   5.944   0.023 -0.0528  0.3644 -0.8584
 4129TIP3   OH212392   0.196   3.128   3.185 -0.4098 -0.3764  0.2835
 4129TIP3    H112393   0.289   3.106   3.182 -0.4109 -0.2704 -1.6881
 4129TIP3    H212394   0.186   3.178   3.266  1.0701 -1.1347  0.9719
 4130TIP3   OH212395   5.497   2.469   1.222 -0.2221 -0.0635 -0.3061
 4130TIP3    H112396   5.559   2.403   1.252 -0.9075 -0.6551 -0.1721
 4130TIP3    H212397   5.549   2.527   1.167  0.4232 -0.6208 -0.2965
 4131TIP3   OH212398   0.166   5.592   3.027 -0.4238  0.5967  0.3602
 4131TIP3    H112399   0.123   5.517   2.986  0.4430  0.7552 -0.8958
 4131TIP3    H212400   0.104   5.622   3.093 -1.0622 -0.8136  0.4322
 4132TIP3   OH212401   4.572   2.011   4.260  0.4600  0.3108  0.2452
 4132TIP3    H112402   4.570   2.089   4.204  2.5455 -0.2894 -0.7488
 4132TIP3    H212403   4.480   1.985   4.267  0.0105  1.0338 -2.0243
 4133TIP3   OH212404   0.920   1.182   2.284  0.2202  0.4618 -0.1881
 4133TIP3    H112405   0.827   1.159   2.272  0.4477 -0.4755 -0.2270
 4133TIP3    H212406   0.927   1.206   2.376 -0.0241  0.3272 -0.1316
 4134TIP3   OH212407   4.574   2.127   3.572  0.6727 -0.7207 -0.1888
 4134TIP3    H112408   4.650   2.182   3.589 -0.1639 -0.3314  2.6959
 4134TIP3    H212409   4.611   2.039   3.559  1.6363 -0.4869  0.8607
 4135TIP3   OH212410   4.800   5.966   2.207 -0.2081  0.1725  0.0408
 4135TIP3    H112411   4.725   6.001   2.160  0.3100  0.4327 -0.6058
 4135TIP3    H212412   4.778   5.978   2.300 -0.0661  2.1688 -0.1582
 4136TIP3   OH212413   1.939   1.962   2.063  0.0570  0.7231 -0.1894
 4136TIP3    H112414   1.936   2.005   1.977  2.4210 -0.8448 -1.1499
 4136TIP3    H212415   1.898   1.877   2.049  0.1983  0.5666  0.3271
 4137TIP3   OH212416   0.355   5.098   4.178 -0.1139  0.1277  0.1265
 4137TIP3    H112417   0.411   5.021   4.189 -0.3899 -0.0147  0.5325
 4137TIP3    H212418   0.323   5.118   4.266 -1.6889 -0.5282 -0.2659
 4138TIP3   OH212419   0.585   5.651   3.583  0.0613  0.4138 -0.8744
 4138TIP3    H112420   0.570   5.561   3.553 -0.5276  0.1170  0.2292
 4138TIP3    H212421   0.581   5.704   3.503 -0.0607 -0.4839 -1.4834
 4139TIP3   OH212422   2.964   4.446   2.723 -0.2792  0.0751  0.2364
 4139TIP3    H112423   3.013   4.431   2.642  2.4243 -0.6437  1.8883
 4139TIP3    H212424   3.005   4.523   2.761 -0.4214 -0.5351  1.6708
 4140TIP3   OH212425   4.727   3.593   1.226 -0.4525 -0.3530 -0.2265
 4140TIP3    H112426   4.787   3.648   1.176 -0.6367  0.0312 -0.0265
 4140TIP3    H212427   4.690   3.533   1.161 -1.8964  1.1784 -0.8700
 4141TIP3   OH212428   5.956   0.658   1.929  0.4993 -0.0819 -0.3012
 4141TIP3    H112429   6.018   0.637   1.999 -0.1313 -1.6170 -0.1778
 4141TIP3    H212430   5.909   0.577   1.912 -2.0890  1.2012  0.1750
 4142TIP3   OH212431   4.141   0.309   0.120 -0.4213 -0.5680  0.1784
 4142TIP3    H112432   4.140   0.363   0.041  0.1567 -1.7109 -0.6494
 4142TIP3    H212433   4.119   0.369   0.191  1.1230  0.9589 -0.5567
 4143TIP3   OH212434   5.837   2.331   4.865 -0.1973  0.2999  0.2462
 4143TIP3    H112435   5.775   2.404   4.869 -0.4105  0.1013  0.5408
 4143TIP3    H212436   5.784   2.253   4.883  0.2296  0.1799  0.9864
 4144TIP3   OH212437   3.941   3.216   0.685  0.4004 -0.0898 -0.0170
 4144TIP3    H112438   3.908   3.196   0.773  0.0615  0.4653 -0.0126
 4144TIP3    H212439   3.934   3.133   0.637  0.2968 -0.3184  0.3857
 4145TIP3   OH212440   4.201   5.620   1.773  0.3142 -0.2201  0.0266
 4145TIP3    H112441   4.296   5.616   1.763  0.3157 -0.1135 -0.0024
 4145TIP3    H212442   4.167   5.581   1.692  0.3214  1.0886 -0.6235
 4146TIP3   OH212443   5.924   2.454   4.288 -0.1334 -0.4651 -0.0818
 4146TIP3    H112444   5.935   2.395   4.213  1.5363 -0.8864  0.4595
 4146TIP3    H212445   5.831   2.477   4.286 -0.5748 -2.1243 -1.0346
 4147TIP3   OH212446   6.134   0.645   0.570  0.3723  0.5359 -0.1019
 4147TIP3    H112447   6.097   0.583   0.633  3.1972 -0.0076  1.1891
 4147TIP3    H212448   6.062   0.664   0.510 -1.2020 -2.3947  0.6488
 4148TIP3   OH212449   5.980   4.602   0.223 -0.2526  0.0499 -0.7153
 4148TIP3    H112450   5.906   4.651   0.188 -0.6915 -0.2050 -0.1729
 4148TIP3    H212451   6.023   4.663   0.284  0.0306  0.2228 -1.0866
 4149TIP3   OH212452   2.027   0.879   3.456 -0.8913 -0.2803  0.2570
 4149TIP3    H112453   1.939   0.885   3.418 -0.8428  1.8025  0.3561
 4149TIP3    H212454   2.029   0.949   3.521  0.9673 -0.0399 -0.0111
 4150TIP3   OH212455   3.316   4.815   3.743  0.9208  0.1977 -0.2766
 4150TIP3    H112456   3.317   4.804   3.838  1.3238 -1.3720 -0.4472
 4150TIP3    H212457   3.243   4.874   3.727  0.4986  0.0348  0.9586
 4151TIP3   OH212458   2.577   1.266   3.589 -0.7892  0.2546  0.1300
 4151TIP3    H112459   2.663   1.234   3.616  0.0925  2.7183  0.4769
 4151TIP3    H212460   2.544   1.313   3.665 -0.6739  2.6551 -1.2085
 4152TIP3   OH212461   2.073   1.990   0.157  0.4049  0.5443  0.7845
 4152TIP3    H112462   2.001   1.978   0.095  0.2451 -0.3720  1.1324
 4152TIP3    H212463   2.047   2.063   0.212 -0.4445 -0.0313  1.1603
 4153TIP3   OH212464   0.166   0.956   0.798  0.2404  0.3779 -0.1855
 4153TIP3    H112465   0.124   1.031   0.755  0.6924  0.7845  0.0675
 4153TIP3    H212466   0.172   0.889   0.730  1.4927  1.2226 -0.9673
 4154TIP3   OH212467   2.886   0.256   1.835 -0.3978  0.1226  0.4033
 4154TIP3    H112468   2.918   0.228   1.749  0.0807  0.3056  0.5207
 4154TIP3    H212469   2.903   0.181   1.892 -0.9266 -0.0859  0.2905
 4155TIP3   OH212470   0.176   1.273   0.379 -0.3873 -0.2209  0.0157
 4155TIP3    H112471   0.100   1.317   0.339 -0.7773 -0.9194 -0.0292
 4155TIP3    H212472   0.248   1.335   0.368 -1.5284  1.7508  2.5858
 4156TIP3   OH212473   2.419   4.578   4.451 -0.1421 -0.4203 -0.8225
 4156TIP3    H112474   2.377   4.642   4.393  1.6229  0.3981 -1.2579
 4156TIP3    H212475   2.456   4.513   4.391  2.3206  0.8096 -0.7640
 4157TIP3   OH212476   1.075   5.708   2.258  0.1651  0.0430  0.3945
 4157TIP3    H112477   1.043   5.684   2.172 -0.5099  0.2685  0.5797
 4157TIP3    H212478   1.143   5.643   2.277 -1.2173 -1.3902  0.6406
 4158TIP3   OH212479   0.180   1.352   3.566 -0.1619  0.1923  0.5832
 4158TIP3    H112480   0.231   1.432   3.579 -2.0816  1.5312  0.3072
 4158TIP3    H212481   0.124   1.372   3.491  0.1065 -1.8618 -0.2268
 4159TIP3   OH212482   1.765   2.436   3.603  0.0972  0.0268  0.4239
 4159TIP3    H112483   1.785   2.529   3.588  0.1532  0.0111  0.4015
 4159TIP3    H212484   1.671   2.435   3.621 -0.1185 -0.0287 -0.6278
 4160TIP3   OH212485   2.890   1.928   2.914 -0.1624 -0.0224  0.1267
 4160TIP3    H112486   2.864   1.836   2.907 -0.4991  0.0085  0.8694
 4160TIP3    H212487   2.973   1.925   2.962 -0.2065  0.0581  0.2089
 4161TIP3   OH212488   6.308   4.487   3.346  0.2233  0.3650  0.0913
 4161TIP3    H112489   6.246   4.467   3.416 -1.9319  0.0377 -1.8068
 4161TIP3    H212490   6.326   4.581   3.355 -1.5638  0.7503 -0.0400
 4162TIP3   OH212491   1.365   5.246   5.171  0.0169 -0.3059 -0.0201
 4162TIP3    H112492   1.301   5.176   5.170 -0.5868  0.2177  0.9516
 4162TIP3    H212493   1.330   5.312   5.111 -0.7097  0.2613  0.9900
 4163TIP3   OH212494   2.953   3.397   1.178  0.1829 -0.4415  0.0932
 4163TIP3    H112495   3.037   3.403   1.132 -0.2822  0.8473 -0.6459
 4163TIP3    H212496   2.975   3.407   1.270  1.0604 -2.3768  0.1495
 4164TIP3   OH212497   4.248   0.258   2.455 -0.1512 -0.4233 -0.3765
 4164TIP3    H112498   4.249   0.163   2.467  2.7388 -0.8139 -2.5705
 4164TIP3    H212499   4.200   0.272   2.373  1.0369 -0.2529 -1.0794
 4165TIP3   OH212500   5.571  -0.008   2.226  0.6391 -0.4591 -0.4375
 4165TIP3    H112501   5.549   0.067   2.282  4.3034  1.3959 -1.1941
 4165TIP3    H212502   5.545   0.019   2.138 -1.3633 -1.6867 -0.2779
 4166TIP3   OH212503  -0.008   0.074   5.085  0.1069  0.2580  0.5087
 4166TIP3    H112504   0.054   0.030   5.144  0.1443  0.4497  0.6120
 4166TIP3    H212505  -0.005   0.022   5.004  1.9518  1.4279 -0.2444
 4167TIP3   OH212506   2.239   3.232   0.342 -0.4272 -0.3233 -0.2436
 4167TIP3    H112507   2.160   3.181   0.323  0.4149 -1.1368 -1.7365
 4167TIP3    H212508   2.253   3.219   0.436 -2.3354  0.2713  0.1843
 4168TIP3   OH212509   5.222   0.162   1.727 -0.1550 -0.5373  0.1447
 4168TIP3    H112510   5.179   0.104   1.663 -0.6746 -0.3824  0.3485
 4168TIP3    H212511   5.167   0.239   1.730 -1.2590 -1.3257  2.2265
 4169TIP3   OH212512   1.272   1.174   3.190 -0.5152 -0.0555  0.1350
 4169TIP3    H112513   1.186   1.144   3.218 -0.2172 -1.3037 -0.2465
 4169TIP3    H212514   1.313   1.207   3.271 -0.4574 -1.6695  0.8015
 4170TIP3   OH212515   4.048   1.176   2.786  0.0042 -0.0289 -0.5270
 4170TIP3    H112516   3.959   1.170   2.820  0.4988  0.6079  0.9453
 4170TIP3    H212517   4.040   1.231   2.708 -0.8082  0.5267 -0.0672
 4171TIP3   OH212518   6.219   1.218   2.350  0.1345  0.3152  0.5236
 4171TIP3    H112519   6.207   1.123   2.351  2.3736 -0.0050  0.5967
 4171TIP3    H212520   6.219   1.243   2.443 -0.7034  0.4449  0.4975
 4172TIP3   OH212521   4.300   1.671   0.069 -0.1887 -0.5323 -0.7437
 4172TIP3    H112522   4.349   1.593   0.044 -0.4514 -0.6854 -0.7777
 4172TIP3    H212523   4.350   1.708   0.142 -0.5105 -1.1876 -0.1835
 4173TIP3   OH212524   2.323   4.950   3.590  0.2406 -0.5664 -0.8322
 4173TIP3    H112525   2.240   4.958   3.543 -0.3719  0.1709  0.3218
 4173TIP3    H212526   2.389   4.942   3.521 -0.8328 -1.7648 -1.7624
 4174TIP3   OH212527   2.864   2.843   4.430  0.2035  0.0396 -0.0461
 4174TIP3    H112528   2.856   2.772   4.494 -0.8810  0.4468  0.2907
 4174TIP3    H212529   2.869   2.922   4.483  0.1983  0.3117 -0.4512
 4175TIP3   OH212530   5.927   5.774   3.408 -0.2627 -0.0582  0.1352
 4175TIP3    H112531   5.940   5.864   3.439  0.0403  0.1387 -0.5470
 4175TIP3    H212532   5.999   5.725   3.448  0.5006  0.3195 -0.7443
 4176TIP3   OH212533   5.225   1.890   1.347 -0.5168 -0.4279  0.1976
 4176TIP3    H112534   5.140   1.846   1.353 -0.9906  0.6627  2.5175
 4176TIP3    H212535   5.205   1.983   1.359  0.8134  0.1021 -1.3216
 4177TIP3   OH212536   1.805   2.195   1.475  0.0401 -0.2001  0.1833
 4177TIP3    H112537   1.897   2.172   1.461 -0.1755 -0.3868 -1.0882
 4177TIP3    H212538   1.796   2.202   1.570  1.0670 -1.3874  0.3915
 4178TIP3   OH212539   0.718   5.204   4.149  0.3978  0.6705  0.1364
 4178TIP3    H112540   0.811   5.221   4.164  0.0666  0.2485  3.1642
 4178TIP3    H212541   0.687   5.164   4.230 -2.2546 -0.0464 -1.1174
 4179TIP3   OH212542   1.030   1.935   3.188 -0.4041  0.4166  0.0500
 4179TIP3    H112543   1.122   1.962   3.191 -0.4450  0.6965 -0.8418
 4179TIP3    H212544   0.996   1.955   3.275  0.3594  0.3962  0.3578
 4180TIP3   OH212545   3.126   0.722   1.611 -0.9933 -0.2141  0.2622
 4180TIP3    H112546   3.060   0.715   1.542 -1.5439  3.1249  0.2792
 4180TIP3    H212547   3.079   0.759   1.685  0.5559  0.7336  0.8200
 4181TIP3   OH212548   2.600   2.315   2.523  0.6161  0.2681 -0.2530
 4181TIP3    H112549   2.598   2.346   2.614  1.2266  0.5311 -0.3238
 4181TIP3    H212550   2.584   2.221   2.530 -0.1144  0.4031  0.0589
 4182TIP3   OH212551   1.788   2.392   4.158 -0.4097  0.1654  0.7340
 4182TIP3    H112552   1.884   2.395   4.165 -0.2808  1.2667 -1.0078
 4182TIP3    H212553   1.771   2.330   4.087 -0.9185  0.9363  0.1672
 4183TIP3   OH212554   0.232   5.878   4.571  0.0356 -0.8708  0.0698
 4183TIP3    H112555   0.179   5.800   4.591 -1.7034 -0.1469 -1.5105
 4183TIP3    H212556   0.215   5.896   4.479  0.8102  1.0886  0.2699
 4184TIP3   OH212557   6.254   4.107   5.132 -0.3013  0.3004  0.2050
 4184TIP3    H112558   6.175   4.152   5.162  1.3128  3.0804  0.6389
 4184TIP3    H212559   6.224   4.052   5.059 -2.8421  0.0210  1.3346
 4185TIP3   OH212560   5.353   4.241   3.737 -0.2486 -0.2886  0.2197
 4185TIP3    H112561   5.382   4.221   3.648 -0.3406  1.4043 -0.2077
 4185TIP3    H212562   5.415   4.193   3.793  1.4940  0.7664 -0.7190
 4186TIP3   OH212563   0.541   2.248   1.856  0.0325 -0.3207 -0.6412
 4186TIP3    H112564   0.578   2.268   1.942  0.8817 -1.2400 -0.7850
 4186TIP3    H212565   0.527   2.154   1.856 -1.7621 -0.0925 -0.8300
 4187TIP3   OH212566   0.952   5.219   1.242 -0.8843  0.3431 -0.3477
 4187TIP3    H112567   1.033   5.261   1.269 -0.5102 -0.0149 -0.8939
 4187TIP3    H212568   0.947   5.234   1.148 -0.8737 -0.6072 -0.5083
 4188TIP3   OH212569   4.205   5.945   1.436 -0.4355  0.4268  0.0916
 4188TIP3    H112570   4.251   6.029   1.446 -0.0665  0.3895 -1.1575
 4188TIP3    H212571   4.180   5.921   1.526  2.4368  0.1828  0.9324
 4189TIP3   OH212572   0.916   2.973   3.185  0.2948  0.9379  0.2466
 4189TIP3    H112573   0.890   2.885   3.211  0.8531  1.0965  1.4549
 4189TIP3    H212574   0.955   2.962   3.098 -4.0700  0.7736 -1.9351
 4190TIP3   OH212575   3.994   5.735   1.362 -0.3490 -0.5431  0.2347
 4190TIP3    H112576   4.002   5.640   1.366 -2.0927 -0.9372 -2.5690
 4190TIP3    H212577   3.904   5.753   1.390 -0.3397  0.1685 -0.1667
 4191TIP3   OH212578   4.352   3.716   3.128  0.6701  0.0561  0.2291
 4191TIP3    H112579   4.316   3.725   3.217 -0.4418  1.0594 -0.2947
 4191TIP3    H212580   4.283   3.750   3.071  0.5530 -2.3191 -1.1856
 4192TIP3   OH212581   1.593   1.074   2.318  0.6075 -0.5153  0.4952
 4192TIP3    H112582   1.578   1.140   2.250 -0.6776  0.3628  1.5874
 4192TIP3    H212583   1.672   1.027   2.289  0.5337  0.3358 -1.1912
 4193TIP3   OH212584   5.788   5.131   1.788  0.2623 -0.2345 -1.1880
 4193TIP3    H112585   5.882   5.118   1.801  0.0507 -0.7826 -0.1005
 4193TIP3    H212586   5.755   5.043   1.766 -0.2157 -0.3582 -0.0533
 4194TIP3   OH212587   1.618   5.201   2.168  0.1353 -0.1483  0.3239
 4194TIP3    H112588   1.538   5.157   2.143  0.4530 -0.5794  0.0659
 4194TIP3    H212589   1.651   5.151   2.242  0.2319 -0.0416  0.3543
 4195TIP3   OH212590   3.612   2.589   3.852  0.4702 -0.2625 -0.4615
 4195TIP3    H112591   3.545   2.608   3.786 -0.6640 -0.6909  0.5164
 4195TIP3    H212592   3.633   2.496   3.838  1.2258 -0.0115 -1.0654
 4196TIP3   OH212593   3.874   3.990   2.285  0.5391  0.5662  0.0727
 4196TIP3    H112594   3.947   3.929   2.281  0.4855  0.4892  0.2343
 4196TIP3    H212595   3.860   4.004   2.379 -0.4862 -0.4394  0.0942
 4197TIP3   OH212596   5.623   3.914   3.306  0.1960 -0.0258  0.1877
 4197TIP3    H112597   5.569   3.856   3.253 -0.2454  0.5862 -0.0468
 4197TIP3    H212598   5.572   3.928   3.386  0.1742  0.2598  0.1247
 4198TIP3   OH212599   4.969   0.871   2.741 -0.2224  0.1826 -0.3060
 4198TIP3    H112600   4.925   0.872   2.656 -3.0369  0.2939  1.0683
 4198TIP3    H212601   5.018   0.953   2.744  1.0668 -0.4399 -2.3087
 4199TIP3   OH212602   0.028   1.933   3.653  0.0260 -0.8864  0.3976
 4199TIP3    H112603   0.015   1.999   3.721  1.2862 -1.3559  1.1242
 4199TIP3    H212604   0.113   1.955   3.614 -0.7256 -0.5626 -1.1214
 4200TIP3   OH212605   5.344   2.113   0.418  0.2046  0.3988 -0.5982
 4200TIP3    H112606   5.402   2.066   0.479  0.2653 -1.5332 -2.0320
 4200TIP3    H212607   5.320   2.193   0.464  1.5888 -0.1854  1.2624
 4201TIP3   OH212608   0.435   5.162   3.366 -0.1141 -0.0008  0.2748
 4201TIP3    H112609   0.447   5.177   3.460  0.1446 -0.9399  0.4011
 4201TIP3    H212610   0.345   5.190   3.349 -0.7398 -1.3692  1.1501
 4202TIP3   OH212611   0.457   3.173   2.639  0.2380  0.6114  0.7899
 4202TIP3    H112612   0.414   3.236   2.697 -0.5817 -0.0139  0.8819
 4202TIP3    H212613   0.469   3.095   2.692  1.8263  0.8651  0.8679
 4203TIP3   OH212614   5.941   3.328   4.077 -0.3771  0.8440  0.4487
 4203TIP3    H112615   5.950   3.282   4.161 -0.8658 -0.6553 -0.2805
 4203TIP3    H212616   6.030   3.334   4.043 -0.1890  1.3733  1.0128
 4204TIP3   OH212617   4.143   5.368   0.102 -0.4369 -0.2874  0.4228
 4204TIP3    H112618   4.083   5.385   0.175  0.4262  0.7802  0.9164
 4204TIP3    H212619   4.219   5.325   0.143 -0.4602 -0.8020 -0.0523
 4205TIP3   OH212620   3.565   4.282   4.923 -0.1381  0.3995  0.4235
 4205TIP3    H112621   3.603   4.295   5.010  4.0478  0.1673 -1.1208
 4205TIP3    H212622   3.580   4.189   4.905 -1.6170  0.2787 -0.3090
 4206TIP3   OH212623   5.728   5.362   1.955  0.1620  0.5641  0.2079
 4206TIP3    H112624   5.747   5.286   1.901  2.5852  0.6044  0.8764
 4206TIP3    H212625   5.691   5.426   1.894 -1.8865 -1.0529 -0.3657
 4207TIP3   OH212626   2.656   5.858   0.732 -0.7872 -0.1696 -0.3785
 4207TIP3    H112627   2.731   5.816   0.773 -1.0155 -0.2126  0.0012
 4207TIP3    H212628   2.665   5.839   0.639  1.0544  1.9527 -0.7202
 4208TIP3   OH212629   0.908   1.220   3.369 -0.0766  0.0772 -0.5541
 4208TIP3    H112630   0.892   1.197   3.461  1.9126 -0.3252 -0.2510
 4208TIP3    H212631   0.883   1.141   3.320 -3.1235  0.9844 -0.6573
 4209TIP3   OH212632   1.208   4.660   0.872 -0.1115  0.4956 -0.0084
 4209TIP3    H112633   1.281   4.600   0.853 -1.5561 -0.7838 -1.8115
 4209TIP3    H212634   1.177   4.688   0.786 -1.7704  0.9796  0.7115
 4210TIP3   OH212635   4.749   4.054   1.388  0.2904 -0.2606 -0.0534
 4210TIP3    H112636   4.829   4.031   1.435 -1.1994 -1.8550  1.9190
 4210TIP3    H212637   4.742   4.150   1.397  0.8719 -0.3424  1.7308
 4211TIP3   OH212638   4.259   3.798   3.680  0.5784 -0.1858 -0.5882
 4211TIP3    H112639   4.295   3.765   3.763  0.5243  0.3032 -0.3663
 4211TIP3    H212640   4.183   3.850   3.707  0.1650 -0.5761 -0.9934
 4212TIP3   OH212641   5.251   0.974   0.168  0.0978  0.6844 -0.3876
 4212TIP3    H112642   5.188   1.043   0.147 -0.1953  0.6612  0.3768
 4212TIP3    H212643   5.271   0.987   0.261 -0.1201 -0.3786 -0.1783
 4213TIP3   OH212644   2.809   1.315   4.404  0.2403  0.5516  0.6351
 4213TIP3    H112645   2.866   1.392   4.404 -1.1208  1.6169  0.8261
 4213TIP3    H212646   2.837   1.264   4.329  0.4079  1.8699 -0.2397
 4214TIP3   OH212647   4.191   3.751   0.276 -1.0726 -0.6602 -0.1255
 4214TIP3    H112648   4.243   3.689   0.225 -2.0451 -1.5557 -0.0552
 4214TIP3    H212649   4.193   3.715   0.365 -1.3898 -0.4320 -0.0248
 4215TIP3   OH212650   2.208   2.746   3.076 -0.5691 -0.4851  0.2373
 4215TIP3    H112651   2.270   2.681   3.043  0.1015  1.0159 -1.6189
 4215TIP3    H212652   2.235   2.760   3.167 -0.5172 -2.5036  0.5759
 4216TIP3   OH212653   1.234   0.375   2.033  0.2867  0.0778  0.1673
 4216TIP3    H112654   1.282   0.441   2.083 -0.7871  0.3768  0.8345
 4216TIP3    H212655   1.157   0.355   2.086  0.1362 -1.0718 -0.4446
 4217TIP3   OH212656   2.160   0.455   0.249 -0.0452 -0.2436  0.3539
 4217TIP3    H112657   2.130   0.454   0.340  0.3738 -0.9227  0.4904
 4217TIP3    H212658   2.202   0.541   0.240 -2.6875  1.1108 -0.0994
 4218TIP3   OH212659   2.856   2.076   0.994  0.7863 -0.4332 -0.0046
 4218TIP3    H112660   2.950   2.061   0.982  0.9083  0.2035  0.1324
 4218TIP3    H212661   2.833   2.021   1.069  0.9256 -1.0340 -0.3939
 4219TIP3   OH212662   1.855   0.404   0.797 -0.1311  0.4014 -0.2342
 4219TIP3    H112663   1.825   0.353   0.721 -0.8377  1.3292 -0.5911
 4219TIP3    H212664   1.803   0.370   0.870  0.1087 -0.0626 -0.2705
 4220TIP3   OH212665   3.835   2.085   2.549 -0.6776 -0.9303  0.2891
 4220TIP3    H112666   3.888   2.066   2.472 -1.0988  0.4491 -0.3754
 4220TIP3    H212667   3.896   2.079   2.622  0.2528 -0.0411 -0.3861
 4221TIP3   OH212668   4.391   4.619   2.814 -0.2498 -0.4613  0.6197
 4221TIP3    H112669   4.310   4.633   2.765  1.4938  0.4387 -2.2366
 4221TIP3    H212670   4.428   4.707   2.823  0.7944 -0.9422  1.1629
 4222TIP3   OH212671   5.068   4.883   4.327 -0.2949  0.0679  0.5587
 4222TIP3    H112672   4.994   4.941   4.341 -0.0244  1.3809 -2.6390
 4222TIP3    H212673   5.144   4.932   4.359 -0.3149  0.5697 -0.1625
 4223TIP3   OH212674   5.539   4.356   3.429  0.4731  0.3247  0.4499
 4223TIP3    H112675   5.454   4.313   3.436  0.5912  0.2184  1.2862
 4223TIP3    H212676   5.587   4.301   3.367 -1.2471  2.3843 -2.9815
 4224TIP3   OH212677   5.071   2.189   1.303  0.5122 -0.3880  0.4321
 4224TIP3    H112678   4.982   2.178   1.337  0.0390 -2.1300 -1.1834
 4224TIP3    H212679   5.060   2.207   1.210  1.8084 -2.1066 -0.1271
 4225TIP3   OH212680   0.253   5.462   0.732 -0.3246  0.4545  0.3530
 4225TIP3    H112681   0.168   5.498   0.756 -0.3385  2.1852 -1.9609
 4225TIP3    H212682   0.304   5.538   0.704  2.2995 -0.4174  2.2954
 4226TIP3   OH212683   1.961   0.265   0.155 -0.2874  0.1846 -0.1362
 4226TIP3    H112684   2.017   0.342   0.161 -2.1819  1.7066 -1.0509
 4226TIP3    H212685   1.967   0.237   0.064  3.1913 -3.1336  0.7984
 4227TIP3   OH212686   2.559   5.054   4.845  0.3820  0.4630 -0.1002
 4227TIP3    H112687   2.553   5.149   4.855 -0.2744  0.4236 -0.0494
 4227TIP3    H212688   2.472   5.023   4.870  1.0314 -0.2859  1.3592
 4228TIP3   OH212689   2.101   0.441   4.273 -0.1177  0.1904 -0.1345
 4228TIP3    H112690   2.081   0.456   4.180 -0.1022 -0.8823 -0.3311
 4228TIP3    H212691   2.016   0.429   4.314 -0.3130  3.0899  0.4997
 4229TIP3   OH212692   2.376   4.210   0.378 -0.2004  0.2150 -0.3639
 4229TIP3    H112693   2.460   4.256   0.368 -0.2154  0.6097  1.0594
 4229TIP3    H212694   2.384   4.132   0.323  1.0302  0.3532 -0.4037
 4230TIP3   OH212695   0.206   5.728   3.620 -0.0294 -0.2879  0.5765
 4230TIP3    H112696   0.266   5.743   3.693  0.1894  0.8845  0.1829
 4230TIP3    H212697   0.132   5.787   3.637 -0.2054 -0.3683  0.1134
 4231TIP3   OH212698   5.058   5.431   4.551  0.5718 -0.1573  0.3578
 4231TIP3    H112699   5.125   5.474   4.497  1.5820 -2.0948 -0.0174
 4231TIP3    H212700   5.046   5.491   4.625 -0.5193  2.3486 -1.6959
 4232TIP3   OH212701   5.799   0.607   3.724 -0.0739 -0.1235 -0.4119
 4232TIP3    H112702   5.811   0.513   3.736 -0.1656 -0.1762 -0.7047
 4232TIP3    H212703   5.719   0.614   3.672 -0.1690  0.1257 -0.2341
 4233TIP3   OH212704   2.400   4.876   5.035 -0.1230  0.0381 -0.0604
 4233TIP3    H112705   2.480   4.915   5.070 -0.2443 -0.4913  0.8391
 4233TIP3    H212706   2.415   4.781   5.041 -1.1116 -0.0761  0.8457
 4234TIP3   OH212707   4.282   2.107   5.020 -0.0177  0.0575 -0.1596
 4234TIP3    H112708   4.327   2.092   5.103 -0.2887  1.1484  0.2056
 4234TIP3    H212709   4.337   2.172   4.975  0.5604 -1.1086 -1.2047
 4235TIP3   OH212710   1.129   1.060   3.909 -0.5099 -0.6017 -0.0900
 4235TIP3    H112711   1.089   0.989   3.858  0.1388 -0.6342 -0.5643
 4235TIP3    H212712   1.143   1.130   3.846 -0.3586 -0.3745  0.1949
 4236TIP3   OH212713   2.477   3.942   3.262 -0.3148  0.3203 -0.2681
 4236TIP3    H112714   2.537   3.970   3.193 -2.0878  0.8198 -1.7066
 4236TIP3    H212715   2.437   3.862   3.226 -1.3234  0.6361  0.1239
 4237TIP3   OH212716   2.034   5.704   1.848  0.0771  0.4529 -0.4978
 4237TIP3    H112717   1.967   5.645   1.815 -1.7753  0.1559  3.2829
 4237TIP3    H212718   2.109   5.647   1.867 -0.7411 -0.2801  0.6338
 4238TIP3   OH212719   5.129   5.155   3.544 -0.1629 -0.3034  0.0067
 4238TIP3    H112720   5.046   5.180   3.504 -0.7100 -2.9229 -0.6816
 4238TIP3    H212721   5.123   5.060   3.555  2.1425 -0.3736  1.3789
 4239TIP3   OH212722   4.441   5.673   3.068  0.1058  0.2429 -0.5377
 4239TIP3    H112723   4.525   5.628   3.068  0.4115  0.7979  0.0039
 4239TIP3    H212724   4.377   5.604   3.053  0.6331 -0.2317 -0.6249
 4240TIP3   OH212725   4.609   3.033   4.489  0.3008  0.7055 -0.5242
 4240TIP3    H112726   4.585   3.011   4.579  1.8193 -0.1026 -0.2823
 4240TIP3    H212727   4.548   2.983   4.435  0.1775  0.2267  0.0449
 4241TIP3   OH212728   3.393   4.968   1.701  0.6314  0.2090  0.2222
 4241TIP3    H112729   3.333   4.900   1.670 -1.0812  1.0574  1.5161
 4241TIP3    H212730   3.426   5.009   1.621  1.1214 -1.6237 -0.5639
 4242TIP3   OH212731   5.919   0.200   2.195 -0.5606 -0.1580  0.0035
 4242TIP3    H112732   6.010   0.230   2.191 -0.5752 -0.1291 -0.1009
 4242TIP3    H212733   5.899   0.171   2.106 -1.7019  2.9197 -0.8741
 4243TIP3   OH212734   4.064   5.524   4.735  0.4322  0.0955  0.2003
 4243TIP3    H112735   4.146   5.521   4.784 -0.4036  1.0066  1.7397
 4243TIP3    H212736   4.052   5.435   4.703  0.3456 -0.9746  2.8938
 4244TIP3   OH212737   2.239   1.936   4.729 -0.4101 -0.1105 -0.1131
 4244TIP3    H112738   2.267   1.954   4.639  1.7420 -0.1243  0.4978
 4244TIP3    H212739   2.283   1.854   4.752  1.1975  1.1645  1.7470
 4245TIP3   OH212740   4.739   5.311   0.353  0.1936  0.2907 -0.0753
 4245TIP3    H112741   4.711   5.276   0.438  1.5911  0.9848  0.7013
 4245TIP3    H212742   4.812   5.256   0.327 -1.7567 -1.5363 -2.1259
 4246TIP3   OH212743   1.050   3.572   4.680 -0.0744  0.6555 -0.1340
 4246TIP3    H112744   1.080   3.662   4.696 -0.0305  0.7402 -0.6610
 4246TIP3    H212745   1.129   3.526   4.651 -0.3143  0.7171 -0.8978
 4247TIP3   OH212746   1.088   5.748   5.098 -0.1014  0.0872  0.1654
 4247TIP3    H112747   1.120   5.778   5.183 -0.8979  0.3018  0.4057
 4247TIP3    H212748   1.125   5.809   5.035  1.3895 -0.7239  0.2240
 4248TIP3   OH212749   0.643   2.465   3.743 -0.5435  0.1032  0.1184
 4248TIP3    H112750   0.598   2.549   3.746  0.2260  0.5514 -0.4723
 4248TIP3    H212751   0.619   2.428   3.658 -0.9996 -0.3492  0.4390
 4249TIP3   OH212752   6.144   3.473   0.239  0.3493 -0.1048  0.5177
 4249TIP3    H112753   6.200   3.397   0.222 -0.4545 -0.3110 -1.5025
 4249TIP3    H212754   6.201   3.548   0.220  0.0665 -0.3109 -1.3233
 4250TIP3   OH212755   2.842   3.311   0.237  0.6609  0.2314  0.1226
 4250TIP3    H112756   2.797   3.253   0.176  0.1685  0.4570  0.2608
 4250TIP3    H212757   2.771   3.358   0.281  0.9784 -0.2439  1.1826
 4251TIP3   OH212758   2.093   3.537   0.594  0.4959 -0.0928  0.2027
 4251TIP3    H112759   2.051   3.459   0.558  0.0928  0.8463 -1.4688
 4251TIP3    H212760   2.031   3.608   0.577  1.1753  0.7245  1.0145
 4252TIP3   OH212761   0.931   0.889   1.469  0.6453 -0.0697 -0.2601
 4252TIP3    H112762   0.855   0.924   1.421  1.9765  0.4511 -2.0757
 4252TIP3    H212763   0.923   0.928   1.556 -1.5540 -0.6122 -0.1356
 4253TIP3   OH212764   5.250   4.188   4.578 -0.3711  0.4653  0.2453
 4253TIP3    H112765   5.300   4.199   4.497 -2.4832  0.3217 -1.1388
 4253TIP3    H212766   5.244   4.093   4.589  0.7699  0.4763  1.1728
 4254TIP3   OH212767   2.330   3.324   1.555 -0.6285  0.0974  0.4975
 4254TIP3    H112768   2.349   3.231   1.543  0.3913  0.3522  0.0658
 4254TIP3    H212769   2.383   3.349   1.631  0.7424  0.7895 -0.6496
 4255TIP3   OH212770   2.238   3.308   3.506  0.2981  0.4975  0.5646
 4255TIP3    H112771   2.156   3.271   3.539  0.8894 -1.1291  0.3151
 4255TIP3    H212772   2.211   3.369   3.438 -0.7278  0.5346  0.9861
 4256TIP3   OH212773   2.153   3.865   2.072  0.3199  0.4197  0.0856
 4256TIP3    H112774   2.083   3.928   2.057  0.4313  0.4915 -0.1323
 4256TIP3    H212775   2.117   3.782   2.041  0.2141  0.3952  0.2704
 4257TIP3   OH212776   0.103   5.303   2.110 -0.1941 -0.4928  0.4045
 4257TIP3    H112777   0.113   5.215   2.073  1.7059 -0.8897  1.7507
 4257TIP3    H212778   0.138   5.296   2.199  0.7200  1.8080  0.2904
 4258TIP3   OH212779   2.314   4.068   2.371 -0.1083 -0.0274 -0.1736
 4258TIP3    H112780   2.269   4.067   2.456 -2.3436 -1.0018 -1.2677
 4258TIP3    H212781   2.274   4.141   2.323  1.7663  1.0897 -0.1294
 4259TIP3   OH212782   0.779   2.754   2.826 -0.5054  0.2832  0.3167
 4259TIP3    H112783   0.718   2.689   2.791 -0.6590 -0.0307  1.1375
 4259TIP3    H212784   0.861   2.706   2.838  0.0856  0.8251 -1.2596
 4260TIP3   OH212785   5.779   0.092   3.926 -0.2099 -0.1644 -0.4769
 4260TIP3    H112786   5.690   0.058   3.913 -0.7815  0.6848  0.9999
 4260TIP3    H212787   5.824   0.023   3.974 -0.8612  0.4253  1.0262
 4261TIP3   OH212788   5.091   4.336   3.820 -0.0026 -0.7251 -0.0631
 4261TIP3    H112789   5.074   4.283   3.898  1.2511 -1.1474 -0.0487
 4261TIP3    H212790   5.182   4.318   3.799  0.8418  2.1968  0.5508
 4262TIP3   OH212791   5.918   0.782   3.527  0.0543  0.1050  0.5437
 4262TIP3    H112792   5.885   0.719   3.592  0.3980  0.3521  0.9642
 4262TIP3    H212793   5.982   0.835   3.575 -0.0019  0.5744  0.1105
 4263TIP3   OH212794   4.235   0.383   3.974  0.2174  0.0594 -0.1040
 4263TIP3    H112795   4.227   0.416   4.064 -0.1493  0.3115 -0.2273
 4263TIP3    H212796   4.147   0.354   3.952  0.1269  0.7322 -0.6649
 4264TIP3   OH212797   1.725   0.025   3.582  0.0184 -0.4637  0.4138
 4264TIP3    H112798   1.768   0.106   3.610 -0.0541 -0.2006 -0.2149
 4264TIP3    H212799   1.680  -0.006   3.661  0.0677  0.0951  0.6721
 4265TIP3   OH212800   5.757   3.458   4.730  0.3731 -0.4196  0.3981
 4265TIP3    H112801   5.747   3.529   4.667  0.5700 -0.9678 -0.2628
 4265TIP3    H212802   5.687   3.472   4.793  0.1927  0.1553  0.0775
 4266TIP3   OH212803   3.760   0.263   2.859 -0.1231 -0.1838 -0.2207
 4266TIP3    H112804   3.853   0.256   2.877 -0.0558 -0.9570 -0.8341
 4266TIP3    H212805   3.752   0.249   2.765 -0.6805  1.7705 -0.5201
 4267TIP3   OH212806   2.975   5.428   0.624  0.2551  0.4410  0.3292
 4267TIP3    H112807   2.974   5.338   0.656 -3.2198  0.0085 -0.5258
 4267TIP3    H212808   3.031   5.426   0.547 -0.9370 -1.4212 -0.5638
 4268TIP3   OH212809   1.553   1.792   4.744  0.0704  0.5859  0.0321
 4268TIP3    H112810   1.586   1.855   4.808  0.6936 -0.1427  0.4424
 4268TIP3    H212811   1.504   1.845   4.681 -0.1125  1.3755  0.8224
 4269TIP3   OH212812   4.897   5.583   4.000  0.4571  0.0008  0.1327
 4269TIP3    H112813   4.839   5.531   4.056  0.3645 -0.2759 -0.2146
 4269TIP3    H212814   4.964   5.616   4.060  1.2897 -1.6238  0.1557
 4270TIP3   OH212815   4.176   2.908   3.972  0.0152 -0.0530  0.0206
 4270TIP3    H112816   4.099   2.965   3.960  0.4441  0.6728  0.6725
 4270TIP3    H212817   4.250   2.963   3.947  0.5546  0.1125  1.8583
 4271TIP3   OH212818   0.074   1.775   5.058  0.0167 -0.2832  0.3066
 4271TIP3    H112819   0.104   1.722   4.984  0.9103  0.4389  0.1271
 4271TIP3    H212820   0.085   1.865   5.028  0.6388  0.0262  1.4234
 4272TIP3   OH212821   3.335   1.312   3.368 -0.1788 -0.3939 -0.3227
 4272TIP3    H112822   3.371   1.325   3.456  1.7549  0.5822 -1.2034
 4272TIP3    H212823   3.242   1.334   3.377  0.1179  0.3616  1.3197
 4273TIP3   OH212824   1.886   5.708   1.563 -0.0394 -0.3611 -0.2592
 4273TIP3    H112825   1.864   5.616   1.548  0.4030 -0.3642 -0.9126
 4273TIP3    H212826   1.966   5.722   1.514 -0.9737  0.7921 -1.5397
 4274TIP3   OH212827   5.394   2.083   3.604 -0.0662  0.2522 -0.0776
 4274TIP3    H112828   5.392   2.105   3.511 -0.9784 -0.4648 -0.2529
 4274TIP3    H212829   5.482   2.048   3.619 -0.2393 -0.6032 -0.9302
 4275TIP3   OH212830   5.518   5.947   1.966 -0.2366  0.0989  0.1992
 4275TIP3    H112831   5.485   6.029   2.001  1.0588 -0.1080  2.0979
 4275TIP3    H212832   5.447   5.884   1.981 -0.5552  0.5074  0.4130
 4276TIP3   OH212833   5.433   0.851   2.353 -0.1836 -0.4494  0.9685
 4276TIP3    H112834   5.428   0.861   2.258 -2.1060  1.8994  1.1931
 4276TIP3    H212835   5.409   0.760   2.369 -3.9083  0.0173 -0.7412
 4277TIP3   OH212836   2.341   5.821   4.162 -0.1700  0.9703  0.1750
 4277TIP3    H112837   2.331   5.912   4.132 -1.0755  0.2631 -1.9051
 4277TIP3    H212838   2.253   5.795   4.189 -0.5174 -0.0092 -1.6900
 4278TIP3   OH212839   3.281   2.142   3.927 -0.7023 -0.2540 -1.1154
 4278TIP3    H112840   3.278   2.224   3.878  1.0289 -0.4844 -1.6735
 4278TIP3    H212841   3.283   2.074   3.860  0.9437 -0.6063 -0.7482
 4279TIP3   OH212842   0.559   3.452   0.727  0.5829  0.2939 -0.5581
 4279TIP3    H112843   0.583   3.450   0.635  3.1179  0.7694  0.0203
 4279TIP3    H212844   0.540   3.544   0.746  1.4191  0.4236 -0.3160
 4280TIP3   OH212845   0.106   0.519   0.054 -0.1548 -0.2390 -0.3223
 4280TIP3    H112846   0.067   0.452  -0.002 -2.2678 -0.4254  1.2395
 4280TIP3    H212847   0.079   0.602   0.015 -0.5775 -0.3554 -0.2852
 4281TIP3   OH212848   4.702   0.939   0.816 -0.2259  0.2505 -0.4997
 4281TIP3    H112849   4.741   1.015   0.858 -1.5076  0.3292  0.6047
 4281TIP3    H212850   4.662   0.889   0.887 -0.7037 -0.6741 -1.3810
 4282TIP3   OH212851   0.594   1.272   3.409  0.2380  0.3264 -0.0212
 4282TIP3    H112852   0.503   1.245   3.423 -0.5484  2.4422 -0.6095
 4282TIP3    H212853   0.643   1.227   3.478 -1.4039 -0.1196  0.9161
 4283TIP3   OH212854   0.167   3.201   2.131 -0.0299  0.1863 -0.6452
 4283TIP3    H112855   0.207   3.236   2.210  1.9030 -1.4274 -0.8133
 4283TIP3    H212856   0.236   3.209   2.064 -0.5918 -1.0558 -1.4208
 4284TIP3   OH212857   1.692   3.930   0.033  0.1636 -0.2281  0.3665
 4284TIP3    H112858   1.785   3.909   0.046  0.0433 -1.3612 -0.4406
 4284TIP3    H212859   1.655   3.931   0.121  0.8518 -0.2076  0.6589
 4285TIP3   OH212860   4.082   4.958   0.373  0.3553 -0.4342  0.2589
 4285TIP3    H112861   4.051   4.879   0.328  0.6395 -0.5529  0.2658
 4285TIP3    H212862   4.160   4.984   0.323 -1.2182  1.4004 -1.4191
 4286TIP3   OH212863   0.365   5.499   0.018 -0.4895 -0.1918 -0.2793
 4286TIP3    H112864   0.386   5.577   0.070  0.9613 -0.2832 -0.6978
 4286TIP3    H212865   0.328   5.437   0.082  1.2559 -0.2950  0.6925
 4287TIP3   OH212866   3.918   2.556   1.654 -0.2032 -0.3801  0.2225
 4287TIP3    H112867   3.823   2.557   1.641 -0.3167  0.3157  1.0234
 4287TIP3    H212868   3.950   2.632   1.606 -0.2849  0.4674  1.4529
 4288TIP3   OH212869   0.811   0.342   4.031 -0.2313  0.5242 -0.1615
 4288TIP3    H112870   0.749   0.269   4.039 -0.7755  0.8812 -0.9504
 4288TIP3    H212871   0.877   0.325   4.098  0.6483 -1.7037 -1.4833
 4289TIP3   OH212872   3.887   2.993   0.154  0.8796  0.5096  0.1989
 4289TIP3    H112873   3.844   2.909   0.169  2.3756 -0.3729 -0.2399
 4289TIP3    H212874   3.903   2.994   0.059  6.0332 -1.4825  0.7115
 4290TIP3   OH212875   4.278   4.008   2.761 -0.6757 -0.3351 -0.1046
 4290TIP3    H112876   4.259   3.939   2.698 -0.5366 -0.4160 -0.0580
 4290TIP3    H212877   4.330   4.072   2.712  1.6022 -1.5829  0.5686
 4291TIP3   OH212878   0.475   4.487   2.194  0.1025 -0.7629 -0.0857
 4291TIP3    H112879   0.522   4.427   2.135 -0.5417 -0.9768 -0.3880
 4291TIP3    H212880   0.383   4.473   2.174 -0.0728  0.0367  0.1398
 4292TIP3   OH212881   3.355   0.415   0.705 -0.2967 -0.6153  0.3732
 4292TIP3    H112882   3.407   0.437   0.628  0.3125 -2.5482  0.2011
 4292TIP3    H212883   3.369   0.489   0.765 -0.5627  0.7900 -1.2054
 4293TIP3   OH212884   3.354   5.428   1.970  0.0022  0.2155 -0.6436
 4293TIP3    H112885   3.302   5.444   1.892 -0.1431 -0.7901 -0.7678
 4293TIP3    H212886   3.291   5.430   2.042  0.0592  0.6622 -0.6056
 4294TIP3   OH212887   2.003   1.707   2.665  0.0087  0.4998 -0.7439
 4294TIP3    H112888   2.013   1.692   2.571  0.8513  1.7803 -0.8737
 4294TIP3    H212889   1.954   1.630   2.696  2.6578 -1.7104 -1.6092
 4295TIP3   OH212890   0.047   0.154   2.465  0.8067  0.2481  0.0338
 4295TIP3    H112891   0.104   0.085   2.430 -0.1272  0.0226 -1.0814
 4295TIP3    H212892  -0.012   0.176   2.393 -0.7750  0.1944  1.2491
 4296TIP3   OH212893   1.855   3.158   1.062  0.1416  0.4329  0.9493
 4296TIP3    H112894   1.911   3.081   1.076 -0.5598  0.0410  1.6575
 4296TIP3    H212895   1.835   3.189   1.151 -2.5219 -0.7196  0.8355
 4297TIP3   OH212896   3.817   2.462   4.679 -0.2491 -0.4220 -0.7270
 4297TIP3    H112897   3.775   2.440   4.762  1.1658  0.7436  0.3499
 4297TIP3    H212898   3.891   2.401   4.673  0.9400  0.9007 -0.0181
 4298TIP3   OH212899   4.110   3.732   1.457 -0.0851 -0.2167 -0.4887
 4298TIP3    H112900   4.143   3.760   1.542 -0.2322  0.0635 -0.5219
 4298TIP3    H212901   4.040   3.670   1.478 -1.0249  0.8453 -0.3668
 4299TIP3   OH212902   2.581   5.514   3.271  0.2576 -0.5487  0.2554
 4299TIP3    H112903   2.671   5.535   3.296 -0.8457  1.3348  3.2080
 4299TIP3    H212904   2.558   5.440   3.327 -0.1276 -0.8398 -0.2841
 4300TIP3   OH212905   1.969   5.639   3.390 -0.6423 -0.1191 -0.2063
 4300TIP3    H112906   2.036   5.621   3.323 -0.0779  0.8400  0.0805
 4300TIP3    H212907   2.019   5.646   3.472 -1.1289  0.3456  0.0538
 4301TIP3   OH212908   0.014   2.592   0.826 -0.6266 -0.1900 -0.2613
 4301TIP3    H112909  -0.038   2.531   0.878  0.8532 -0.5573  0.8804
 4301TIP3    H212910   0.102   2.585   0.863  0.1079  0.8397 -1.7159
 4302TIP3   OH212911   1.905   5.729   1.090 -0.3302  0.5311 -0.0450
 4302TIP3    H112912   1.887   5.820   1.065 -1.5062  0.5656  0.8291
 4302TIP3    H212913   1.957   5.735   1.170  0.8768  0.4146 -0.7938
 4303TIP3   OH212914   4.426   4.502   1.090  0.0698 -0.0040  0.1315
 4303TIP3    H112915   4.391   4.413   1.086 -2.3753  0.6239  3.2381
 4303TIP3    H212916   4.350   4.558   1.075  1.1046  1.5659  0.5124
 4304TIP3   OH212917   4.767   4.883   4.073  0.9762 -0.0186  0.0539
 4304TIP3    H112918   4.788   4.971   4.104  1.2664  0.3089 -1.0207
 4304TIP3    H212919   4.766   4.829   4.152  0.7853  0.9483  0.7247
 4305TIP3   OH212920   2.680   5.356   0.281 -0.0199 -0.0100 -0.2536
 4305TIP3    H112921   2.680   5.266   0.313  0.1381  1.0050  2.9912
 4305TIP3    H212922   2.592   5.388   0.297  0.0743  0.5843 -0.8645
 4306TIP3   OH212923   2.235   3.124   0.990 -0.5777  0.0991  0.0885
 4306TIP3    H112924   2.281   3.045   0.961 -1.4248 -0.8931  1.3127
 4306TIP3    H212925   2.152   3.091   1.025 -0.3996  1.3855  1.8417
 4307TIP3   OH212926   5.572   1.289   2.114  0.0527  0.5472 -0.2013
 4307TIP3    H112927   5.563   1.318   2.024 -1.1586  0.3590 -0.1629
 4307TIP3    H212928   5.631   1.213   2.109  1.0611  1.3440 -0.6432
 4308TIP3   OH212929   0.516   2.927   4.270  0.2408 -0.3210  0.2604
 4308TIP3    H112930   0.438   2.907   4.322 -0.1133 -2.5953 -1.0119
 4308TIP3    H212931   0.556   3.001   4.315 -1.1415 -0.8652  2.5766
 4309TIP3   OH212932   5.521   5.860   5.084 -0.1766 -0.1606  0.3304
 4309TIP3    H112933   5.573   5.934   5.051 -1.7085  0.1868 -1.5033
 4309TIP3    H212934   5.567   5.831   5.162  2.3180  0.6106 -0.7651
 4310TIP3   OH212935   2.330   1.582   4.867  0.2896  0.1978 -0.3452
 4310TIP3    H112936   2.348   1.488   4.870 -0.1664  0.1337  0.5883
 4310TIP3    H212937   2.267   1.597   4.937  0.2248  1.1770 -0.5995
 4311TIP3   OH212938   3.134   3.668   3.165  1.0760 -0.0495 -0.1009
 4311TIP3    H112939   3.181   3.618   3.099  0.8251 -2.4191  1.3826
 4311TIP3    H212940   3.203   3.702   3.222  1.3159 -4.0425  2.4390
 4312TIP3   OH212941   5.275   1.905   0.189 -0.1552  0.0563 -0.3641
 4312TIP3    H112942   5.296   1.967   0.259  0.0005 -1.0052  0.5515
 4312TIP3    H212943   5.179   1.904   0.186 -0.2520 -1.5136  1.3756
 4313TIP3   OH212944   5.182   4.093   2.641  0.1007  0.8092  0.1747
 4313TIP3    H112945   5.158   4.023   2.702 -0.1066  1.3211  0.6821
 4313TIP3    H212946   5.248   4.144   2.687 -0.3374  1.4236  0.1307
 4314TIP3   OH212947   5.344   1.492   2.603 -0.4520  0.0256 -0.2402
 4314TIP3    H112948   5.329   1.586   2.592 -1.0349 -0.1748 -1.2922
 4314TIP3    H212949   5.434   1.487   2.637 -0.4835  0.9653  0.0290
 4315TIP3   OH212950   3.003   4.713   2.015 -0.3739 -0.3016 -0.2249
 4315TIP3    H112951   3.016   4.677   2.103  1.0106  1.3643  0.3045
 4315TIP3    H212952   2.918   4.757   2.019 -0.9060 -1.3039 -0.1360
 4316TIP3   OH212953   4.345   0.939   2.538  0.0691 -0.3700  0.4698
 4316TIP3    H112954   4.278   0.934   2.606  0.8546  1.3848  1.4408
 4316TIP3    H212955   4.298   0.958   2.457 -0.6276  1.0707  1.1782
 4317TIP3   OH212956   5.650   4.228   3.792  0.4546 -0.3021  0.1569
 4317TIP3    H112957   5.706   4.291   3.748 -2.5761 -0.1205 -4.0297
 4317TIP3    H212958   5.667   4.145   3.747 -0.6251 -0.8386  0.7027
 4318TIP3   OH212959   3.073   2.579   5.120  0.2066  0.4018 -0.2963
 4318TIP3    H112960   3.037   2.654   5.073  0.4946  0.6422 -0.1385
 4318TIP3    H212961   3.043   2.502   5.071  0.3888  0.6451 -0.7948
 4319TIP3   OH212962   0.572   2.728   3.697 -0.1804 -0.1393 -0.0847
 4319TIP3    H112963   0.584   2.813   3.739  2.3876 -0.2207 -0.5014
 4319TIP3    H212964   0.477   2.720   3.686 -0.6265  1.8062  1.6687
 4320TIP3   OH212965   4.284   5.169   2.240 -0.6158  0.2146 -0.3929
 4320TIP3    H112966   4.377   5.193   2.241 -0.2729 -0.9530 -1.1673
 4320TIP3    H212967   4.277   5.108   2.166 -2.1323  0.7619 -0.7261
 4321TIP3   OH212968   1.856   3.366   1.936  0.0895 -0.3298  0.1027
 4321TIP3    H112969   1.867   3.310   2.013 -0.1919 -0.1230  0.2969
 4321TIP3    H212970   1.810   3.443   1.969 -1.5165 -0.9531 -0.5754
 4322TIP3   OH212971   3.193   3.384   1.050 -0.4690  0.2497  0.0088
 4322TIP3    H112972   3.213   3.466   1.094 -0.3486 -0.2787  0.9638
 4322TIP3    H212973   3.228   3.395   0.962  2.2499  0.1517  0.9845
 4323TIP3   OH212974   5.275   2.859   1.170 -0.0577 -0.1883  0.0331
 4323TIP3    H112975   5.221   2.931   1.139  1.6621  0.4566 -1.6702
 4323TIP3    H212976   5.292   2.806   1.092 -1.6698 -2.8188  1.3014
 4324TIP3   OH212977   0.290   4.435   0.750 -0.7194 -0.0560  0.0891
 4324TIP3    H112978   0.307   4.396   0.664  1.8013  2.4111 -0.6962
 4324TIP3    H212979   0.355   4.395   0.808  0.6914  1.4977 -0.3197
 4325TIP3   OH212980   3.507   5.956   3.105 -0.0990 -0.3022  0.2802
 4325TIP3    H112981   3.512   5.993   3.017  1.5756 -2.3881 -0.6164
 4325TIP3    H212982   3.434   5.895   3.101  0.4239 -0.9273  0.0811
 4326TIP3   OH212983   6.147   5.226   2.627 -0.1756  0.1262 -0.0176
 4326TIP3    H112984   6.157   5.154   2.564 -2.1820  1.9332 -2.6382
 4326TIP3    H212985   6.063   5.209   2.670 -0.1010  0.2795  0.1876
 4327TIP3   OH212986   0.407   0.106   2.018  0.6559  0.0442 -0.0509
 4327TIP3    H112987   0.486   0.096   1.964 -0.8689 -0.4743 -2.3434
 4327TIP3    H212988   0.348   0.160   1.964 -1.1446 -0.9206  0.8722
 4328TIP3   OH212989   5.417   5.992   0.811  0.2920 -0.5885 -0.0756
 4328TIP3    H112990   5.340   6.006   0.866  1.2223 -1.2553  1.4680
 4328TIP3    H212991   5.417   5.899   0.793  0.3578 -0.4775 -0.6649
 4329TIP3   OH212992   5.097   0.831   3.415 -0.1796 -0.2134  0.0332
 4329TIP3    H112993   5.094   0.927   3.418  0.0461 -0.1700 -0.8544
 4329TIP3    H212994   5.011   0.805   3.383 -0.2871 -0.3236  0.3992
 4330TIP3   OH212995   2.408   2.424   1.814  0.1781  0.5075 -0.0353
 4330TIP3    H112996   2.421   2.411   1.720  0.1001  1.2061 -0.1465
 4330TIP3    H212997   2.492   2.400   1.853 -0.2888 -1.4318 -0.1016
 4331TIP3   OH212998   2.807   2.063   1.826 -0.5409  0.0158 -0.4893
 4331TIP3    H112999   2.873   2.128   1.851 -0.2913  0.1094 -1.3297
 4331TIP3    H213000   2.732   2.082   1.881  0.3301 -0.4754  0.9267
 4332TIP3   OH213001   1.291   1.579   1.631 -0.5563 -0.1338 -0.2514
 4332TIP3    H113002   1.301   1.671   1.607 -1.4124  0.0299 -0.0216
 4332TIP3    H213003   1.358   1.533   1.580 -0.3099  0.5815 -0.5798
 4333TIP3   OH213004   4.555   1.117   4.377 -0.0572  0.0179  0.0198
 4333TIP3    H113005   4.477   1.084   4.332  0.0946  1.3767 -1.3228
 4333TIP3    H213006   4.521   1.153   4.459 -0.6159 -0.7256  0.1272
 4334TIP3   OH213007   0.950   4.283   4.368 -0.0894  0.1536 -0.6898
 4334TIP3    H113008   0.858   4.256   4.366  0.3637 -1.4634 -1.2569
 4334TIP3    H213009   0.999   4.203   4.350  1.3752  1.3182 -2.2087
 4335TIP3   OH213010   0.145   3.719   1.606 -0.0023  0.1517 -0.5501
 4335TIP3    H113011   0.058   3.732   1.645 -0.2166  0.7962 -1.2029
 4335TIP3    H213012   0.142   3.770   1.525  0.4786 -1.0126 -1.3317
 4336TIP3   OH213013   1.284   1.645   5.134  0.1034 -0.2773 -0.0985
 4336TIP3    H113014   1.341   1.640   5.211 -1.1012  0.6662  0.9050
 4336TIP3    H213015   1.220   1.575   5.147 -0.0822 -0.1387 -0.2616
 4337TIP3   OH213016   5.521   0.446   2.509 -0.2261 -0.4574 -0.4424
 4337TIP3    H113017   5.606   0.490   2.514 -0.2153 -0.2613 -2.0317
 4337TIP3    H213018   5.502   0.421   2.600  1.6861 -0.8240 -0.0912
 4338TIP3   OH213019   3.154   5.956   2.780 -0.1305  0.0994  0.1336
 4338TIP3    H113020   3.122   5.884   2.725  2.5400 -0.7865 -0.4079
 4338TIP3    H213021   3.157   5.919   2.868 -0.7530  0.2807  0.2418
 4339TIP3   OH213022   1.357   2.570   1.283 -0.6275  0.0507  0.6479
 4339TIP3    H113023   1.344   2.477   1.262 -0.3171  0.2582 -0.5775
 4339TIP3    H213024   1.411   2.603   1.210  2.1388  0.4459  2.6967
 4340TIP3   OH213025   1.192   5.150   1.571 -0.3010  0.2401  0.3146
 4340TIP3    H113026   1.278   5.184   1.549 -0.6755  1.1701  0.2487
 4340TIP3    H213027   1.184   5.069   1.520 -0.3612  1.3333 -1.4760
 4341TIP3   OH213028   5.337   5.673   2.367 -0.2254  0.0808 -0.2367
 4341TIP3    H113029   5.375   5.627   2.292  0.5109  0.4235 -0.0792
 4341TIP3    H213030   5.353   5.615   2.441  2.4178  1.3554  0.3145
 4342TIP3   OH213031   1.592   5.695   1.551 -0.0619  0.5877 -0.3207
 4342TIP3    H113032   1.638   5.725   1.473 -0.7804 -0.1350 -1.0383
 4342TIP3    H213033   1.638   5.616   1.578 -0.8644 -0.1547 -1.0581
 4343TIP3   OH213034   5.267   2.303   0.602  0.3543  0.1298 -0.0986
 4343TIP3    H113035   5.196   2.356   0.639  0.9887  1.5641 -0.8211
 4343TIP3    H213036   5.343   2.325   0.655  0.1986 -1.8181  1.0236
 4344TIP3   OH213037   4.725   5.765   0.409  0.1127  0.7122 -0.1207
 4344TIP3    H113038   4.718   5.698   0.341  1.4359  1.9005 -1.5164
 4344TIP3    H213039   4.647   5.754   0.462  0.3386 -2.0143 -0.1940
 4345TIP3   OH213040   1.387   3.853   3.014  0.2753  0.1397 -0.0597
 4345TIP3    H113041   1.324   3.805   2.960  0.0466 -0.5942  0.8326
 4345TIP3    H213042   1.334   3.919   3.060  0.0921 -0.6103  0.8466
 4346TIP3   OH213043   1.170   2.240   1.433  0.3371  0.0076  0.1671
 4346TIP3    H113044   1.239   2.209   1.491 -0.5345 -0.4296  0.9916
 4346TIP3    H213045   1.088   2.213   1.475 -0.3423  0.3754 -0.8637
 4347TIP3   OH213046   0.810   5.617   0.060  0.1135  0.1662 -0.4523
 4347TIP3    H113047   0.873   5.649   0.124  0.6885 -1.9436  0.1221
 4347TIP3    H213048   0.729   5.664   0.079  0.5621  0.3264  1.1533
 4348TIP3   OH213049   4.007   1.799   1.567 -0.2752 -0.0284  0.0082
 4348TIP3    H113050   4.009   1.754   1.651 -2.1501  0.5923  0.4302
 4348TIP3    H213051   4.054   1.741   1.507  1.7797 -0.1366  1.6046
 4349TIP3   OH213052   3.340   1.920   2.568 -0.0686 -0.0062  0.1526
 4349TIP3    H113053   3.431   1.947   2.581 -0.2810  1.2810 -0.7622
 4349TIP3    H213054   3.345   1.851   2.501  0.2271  0.0914  0.0728
 4350TIP3   OH213055   3.832   5.960   0.287 -0.5173 -0.6545 -0.2804
 4350TIP3    H113056   3.915   5.939   0.330 -0.2625  0.2482 -0.3115
 4350TIP3    H213057   3.802   5.877   0.251 -0.0341 -1.1545  0.4358
 4351TIP3   OH213058   5.365   2.598   3.493  0.1787  0.2591  0.0050
 4351TIP3    H113059   5.455   2.629   3.501 -0.3069  1.5770  0.6815
 4351TIP3    H213060   5.370   2.526   3.431  1.7764 -0.0381  0.4234
 4352TIP3   OH213061   3.707   4.096   4.705  0.3876  0.2152  0.3458
 4352TIP3    H113062   3.732   4.005   4.692 -0.0313  0.0238  0.8228
 4352TIP3    H213063   3.611   4.094   4.713  0.4697  0.4824  1.8269
 4353TIP3   OH213064   5.348   2.796   4.982 -0.2415  0.1194  0.1254
 4353TIP3    H113065   5.267   2.828   5.023  0.3709  0.6619  0.9511
 4353TIP3    H213066   5.406   2.776   5.056  1.2472  2.0514 -0.4330
 4354TIP3   OH213067   5.849   1.429   1.827  0.0343 -0.4491 -0.4509
 4354TIP3    H113068   5.849   1.419   1.732 -0.9764  3.1519 -0.9706
 4354TIP3    H213069   5.764   1.395   1.855  0.4532 -1.7873 -0.7507
 4355TIP3   OH213070   5.702   3.093   4.810 -0.0136 -1.0621 -0.2057
 4355TIP3    H113071   5.640   3.030   4.773  1.7439 -1.7904 -2.1255
 4355TIP3    H213072   5.783   3.077   4.762  0.8322  1.9313  0.0205
 4356TIP3   OH213073   0.818   2.937   4.188 -0.0098 -0.0979  0.0351
 4356TIP3    H113074   0.739   2.884   4.199  0.9752 -1.7700 -0.5390
 4356TIP3    H213075   0.847   2.919   4.099  0.0016  1.9754 -0.4169
 4357TIP3   OH213076   0.142   4.061   0.458  0.6418 -0.6510 -0.6010
 4357TIP3    H113077   0.160   3.989   0.518  1.2179 -0.6804 -0.8049
 4357TIP3    H213078   0.216   4.062   0.398  1.3023  0.9218  0.1786
 4358TIP3   OH213079   0.213   2.129   4.042  0.8236 -0.2810  0.2546
 4358TIP3    H113080   0.136   2.145   4.098 -1.0164  0.0511 -2.2011
 4358TIP3    H213081   0.260   2.059   4.087 -1.5439 -1.3282  1.3107
 4359TIP3   OH213082   3.213   0.171   4.668  0.7764  0.4087  0.7758
 4359TIP3    H113083   3.244   0.127   4.589 -0.1940  1.8331 -0.4824
 4359TIP3    H213084   3.122   0.142   4.676 -0.2762  2.9010 -0.7737
 4360TIP3   OH213085   5.154   0.589   4.632  0.0559  0.4229  0.1118
 4360TIP3    H113086   5.136   0.545   4.549 -0.2040 -0.2243  0.4957
 4360TIP3    H213087   5.137   0.681   4.615  1.1135  0.4582 -0.8542
 4361TIP3   OH213088   2.591   2.408   4.893  0.0301 -0.4632 -0.1115
 4361TIP3    H113089   2.575   2.341   4.827 -1.0196  0.4533 -0.8209
 4361TIP3    H213090   2.520   2.471   4.881  2.4644  2.2704 -1.3738
 4362TIP3   OH213091   1.025   1.052   3.162 -0.1820  0.5502 -0.2238
 4362TIP3    H113092   0.941   1.007   3.173  0.0394  0.1316 -0.2350
 4362TIP3    H213093   1.050   1.034   3.071  0.7495 -0.7688  0.2730
 4363TIP3   OH213094   2.783   3.407   3.084 -0.4502 -0.1941  0.1039
 4363TIP3    H113095   2.745   3.442   3.165 -0.9795  0.6781 -0.5021
 4363TIP3    H213096   2.815   3.320   3.108  0.2881  0.4234  1.4967
 4364TIP3   OH213097   5.343   3.992   0.658  0.1654 -0.0279  0.2900
 4364TIP3    H113098   5.403   4.052   0.613 -0.8029  1.5851  1.0806
 4364TIP3    H213099   5.278   3.968   0.591 -0.6536  1.5067  0.5059
 4365TIP3   OH213100   2.797   3.846   1.632  0.1260  0.5761 -0.4868
 4365TIP3    H113101   2.760   3.834   1.720  1.0806 -0.3104 -0.1812
 4365TIP3    H213102   2.729   3.813   1.573  0.4595 -1.2428  0.0705
 4366TIP3   OH213103   0.433   0.836   0.629 -0.2923 -0.0614  0.1480
 4366TIP3    H113104   0.342   0.837   0.599 -0.6936  0.4969  1.3244
 4366TIP3    H213105   0.433   0.890   0.708  0.9071 -0.7314  0.6347
 4367TIP3   OH213106   4.596   0.451   3.670 -0.1132  0.1230 -0.0475
 4367TIP3    H113107   4.524   0.466   3.609 -0.4955 -0.5097  0.2367
 4367TIP3    H213108   4.599   0.356   3.681  0.5127  0.1712  0.2434
 4368TIP3   OH213109   5.128   0.973   2.283 -0.2487  0.1221  0.1290
 4368TIP3    H113110   5.160   0.946   2.369  0.4898  0.4648 -0.0290
 4368TIP3    H213111   5.193   1.036   2.252 -0.5389  0.0498 -0.6490
 4369TIP3   OH213112   4.653   2.787   3.135  0.4830 -0.0700  0.4004
 4369TIP3    H113113   4.620   2.814   3.049 -1.4452 -2.5140  0.2704
 4369TIP3    H213114   4.575   2.768   3.186  1.6073  1.0472  2.6515
 4370TIP3   OH213115   4.957   1.126   1.302  0.1908  0.1050  0.2046
 4370TIP3    H113116   4.894   1.112   1.373 -0.3770  1.9812  0.1229
 4370TIP3    H213117   4.968   1.039   1.262 -1.8779 -0.3984  0.6004
 4371TIP3   OH213118   0.918   3.146   2.655  0.5507  0.3112  0.0022
 4371TIP3    H113119   0.996   3.164   2.603  0.4463 -0.6767 -0.5176
 4371TIP3    H213120   0.848   3.135   2.590  0.4941 -1.3297  0.3190
 4372TIP3   OH213121   6.214   5.227   1.865 -0.8333 -0.1302 -0.3691
 4372TIP3    H113122   6.269   5.302   1.888 -1.9636 -0.1389  2.9530
 4372TIP3    H213123   6.164   5.256   1.789  1.6218  0.8815 -1.7470
 4373TIP3   OH213124   0.683   5.254   1.297 -0.2958  0.0570 -0.2224
 4373TIP3    H113125   0.778   5.237   1.298 -0.2115  0.3413  1.8764
 4373TIP3    H213126   0.659   5.252   1.205  2.0629  1.5383 -0.9683
 4374TIP3   OH213127   3.713   1.890   4.550  0.0977 -0.4433 -0.7912
 4374TIP3    H113128   3.689   1.899   4.458 -1.2226 -1.5018 -0.5794
 4374TIP3    H213129   3.799   1.931   4.556  0.6320 -1.1598 -2.7028
 4375TIP3   OH213130   0.882   2.682   1.924 -0.4314 -0.4853 -0.3794
 4375TIP3    H113131   0.828   2.724   1.991 -0.7472 -1.3704 -0.0656
 4375TIP3    H213132   0.821   2.628   1.874  0.2892 -2.3830  0.6694
 4376TIP3   OH213133   2.719   1.682   0.567 -0.3277  0.0500  0.0347
 4376TIP3    H113134   2.673   1.702   0.485  1.1655 -1.9909 -1.4267
 4376TIP3    H213135   2.662   1.621   0.612  0.4135 -1.7806 -1.3528
 4377TIP3   OH213136   0.118   2.645   4.272  0.0264 -0.3409 -0.2752
 4377TIP3    H113137   0.150   2.707   4.206 -0.4985 -0.6899 -0.8699
 4377TIP3    H213138   0.190   2.584   4.285  0.3224  0.0348 -0.1368
 4378TIP3   OH213139   2.129   2.587   3.323 -0.1298 -0.0814 -0.1320
 4378TIP3    H113140   2.064   2.525   3.355  0.3911 -1.1423 -1.0518
 4378TIP3    H213141   2.162   2.548   3.242  2.1552  0.0266  0.6586
 4379TIP3   OH213142   5.015   2.495   4.729  0.1712 -0.0697  0.1101
 4379TIP3    H113143   4.923   2.502   4.754  0.5195  1.7067  1.0445
 4379TIP3    H213144   5.063   2.532   4.803  1.6936 -1.4093 -0.1506
 4380TIP3   OH213145   5.284   1.925   2.942 -0.2303  0.0572  0.0578
 4380TIP3    H113146   5.196   1.962   2.949 -0.4751 -0.2563 -1.0485
 4380TIP3    H213147   5.285   1.852   3.004 -0.4396  0.6178  0.7317
 4381TIP3   OH213148   4.902   0.787   0.677  0.3139 -0.1581  0.0023
 4381TIP3    H113149   4.818   0.824   0.706  1.3310  2.6356 -0.3487
 4381TIP3    H213150   4.883   0.749   0.591 -0.3787  1.6185 -0.6839
 4382TIP3   OH213151   5.837   1.568   0.559  0.3274 -0.2629  0.8856
 4382TIP3    H113152   5.813   1.631   0.492 -0.1346  0.1245  1.4009
 4382TIP3    H213153   5.932   1.573   0.565  0.6214 -1.8694 -1.2403
 4383TIP3   OH213154   4.625   1.933   2.547 -0.0440 -0.4212 -0.1328
 4383TIP3    H113155   4.606   1.869   2.615  0.2172 -0.3066  0.0516
 4383TIP3    H213156   4.551   1.993   2.550  0.9125  0.7744  1.4765
 4384TIP3   OH213157   1.247   0.724   1.878  0.3694  0.3465 -0.2934
 4384TIP3    H113158   1.198   0.699   1.799 -2.6608 -0.5862  1.7145
 4384TIP3    H213159   1.248   0.646   1.932  0.5587  1.5132  1.4816
 4385TIP3   OH213160   0.267   2.806   0.749 -0.4170  0.4056  0.2138
 4385TIP3    H113161   0.249   2.795   0.842 -0.3343  2.4679  0.5293
 4385TIP3    H213162   0.341   2.868   0.746  1.5386 -1.8398 -1.1979
 4386TIP3   OH213163   6.236   1.045   1.634 -0.6789  0.5773 -0.5934
 4386TIP3    H113164   6.186   1.053   1.715  0.6283 -1.4214  0.4827
 4386TIP3    H213165   6.188   1.098   1.571 -3.8460 -0.7666  0.5108
 4387TIP3   OH213166   5.467   1.205   3.978  0.1905  0.4216  0.1552
 4387TIP3    H113167   5.378   1.195   4.011  0.3499  2.5112  1.4089
 4387TIP3    H213168   5.510   1.123   4.001 -1.7798 -1.3378 -2.0013
 4388TIP3   OH213169   1.740   1.742   1.336 -0.1949 -0.9109  0.3563
 4388TIP3    H113170   1.737   1.829   1.376 -0.2002 -1.1032  0.7821
 4388TIP3    H213171   1.679   1.747   1.263 -1.0135 -0.8726  1.0275
 4389TIP3   OH213172   4.410   1.202   2.453  0.4162  0.4666  0.2324
 4389TIP3    H113173   4.400   1.107   2.453  1.9068  0.2906 -0.5821
 4389TIP3    H213174   4.452   1.222   2.537 -0.3267  0.4746  0.6123
 4390TIP3   OH213175   6.233   4.357   3.112 -0.0976 -0.6109 -0.2194
 4390TIP3    H113176   6.263   4.273   3.148 -0.1527 -0.9587 -0.9553
 4390TIP3    H213177   6.251   4.421   3.181  0.8633 -1.0729 -0.0240
 4391TIP3   OH213178   4.083   3.520   1.251  0.0981  0.6663 -0.4131
 4391TIP3    H113179   4.050   3.608   1.237 -0.5104  0.5436  0.2102
 4391TIP3    H213180   4.177   3.527   1.232  0.0400  1.4239 -0.4637
 4392TIP3   OH213181   2.760   0.923   0.745  0.6644 -0.0463  0.4727
 4392TIP3    H113182   2.741   0.984   0.816 -1.5660  0.4611 -0.4668
 4392TIP3    H213183   2.841   0.956   0.706  0.5085  1.1974  1.1523
 4393TIP3   OH213184   1.429   5.905   4.894  0.1858  0.2934  0.4122
 4393TIP3    H113185   1.492   5.944   4.955 -0.0612  2.1111 -0.4392
 4393TIP3    H213186   1.440   5.955   4.813 -0.7359 -0.9020 -0.4839
 4394TIP3   OH213187   3.325   0.631   3.731  0.1703  0.1083  0.4706
 4394TIP3    H113188   3.382   0.625   3.654  0.4575  0.3546  0.6606
 4394TIP3    H213189   3.237   0.613   3.697 -0.3147  3.7194 -0.6821
 4395TIP3   OH213190   4.349   4.253   1.588 -0.0304  0.2161  0.0242
 4395TIP3    H113191   4.279   4.271   1.652  0.2416 -1.6240  0.9071
 4395TIP3    H213192   4.430   4.261   1.638  0.1414 -2.2898  0.2540
 4396TIP3   OH213193   2.768   4.833   0.400  0.1157 -0.0710 -0.1591
 4396TIP3    H113194   2.779   4.742   0.375  0.1065 -0.4992  1.3224
 4396TIP3    H213195   2.846   4.854   0.451  0.5498  1.0340 -1.2079
 4397TIP3   OH213196   4.157   4.587   0.979 -0.5306 -0.1813 -1.2252
 4397TIP3    H113197   4.154   4.505   0.929 -0.7518  0.5690 -2.4768
 4397TIP3    H213198   4.079   4.635   0.952  0.5286  1.2308 -1.8845
 4398TIP3   OH213199   5.880   1.129   2.364 -0.1713 -0.5553 -0.0356
 4398TIP3    H113200   5.890   1.159   2.274 -1.2360 -1.0591 -0.3256
 4398TIP3    H213201   5.825   1.051   2.358 -0.9858 -0.0914  1.1302
 4399TIP3   OH213202   3.907   2.922   0.618 -0.4944  0.3456 -0.3338
 4399TIP3    H113203   3.848   2.891   0.549  0.4517  1.8756 -1.9116
 4399TIP3    H213204   3.935   2.842   0.663 -2.4488 -0.5487 -0.6174
 4400TIP3   OH213205   5.584   0.083   0.054 -0.0342 -0.5749 -0.3719
 4400TIP3    H113206   5.584   0.179   0.044  0.4881 -0.6483 -1.1669
 4400TIP3    H213207   5.547   0.068   0.141  0.0604  0.3621 -0.1591
 4401TIP3   OH213208   2.591   2.477   3.574  0.0369 -0.3747 -0.0541
 4401TIP3    H113209   2.582   2.391   3.613  1.1126  0.3200  1.8651
 4401TIP3    H213210   2.502   2.505   3.554 -0.5147 -0.9735  1.4819
 4402TIP3   OH213211   2.710   3.878   2.402  0.3978  0.0278 -0.0893
 4402TIP3    H113212   2.660   3.930   2.339  0.6384  0.4512  0.0652
 4402TIP3    H213213   2.794   3.863   2.359  0.0400 -0.9338 -0.4697
 4403TIP3   OH213214   2.010   5.138   3.768 -0.5767 -0.5441 -0.2746
 4403TIP3    H113215   2.002   5.169   3.858 -1.2104  1.3974 -0.9305
 4403TIP3    H213216   2.094   5.173   3.738 -0.5269 -0.8890 -0.5392
 4404TIP3   OH213217   4.240   3.632   3.956  0.2389 -0.1369  0.8158
 4404TIP3    H113218   4.334   3.626   3.972  0.0858 -1.3509  1.2988
 4404TIP3    H213219   4.202   3.653   4.041 -0.0487 -0.9665  0.8975
 4405TIP3   OH213220   3.258   5.150   2.362  0.1754  0.2129 -0.0064
 4405TIP3    H113221   3.298   5.127   2.446  1.3072  0.3252 -0.4871
 4405TIP3    H213222   3.331   5.181   2.309 -0.8393  2.1772 -0.3522
 4406TIP3   OH213223   0.367   2.699   2.568  0.0137  0.2472 -0.4937
 4406TIP3    H113224   0.377   2.604   2.571 -0.9640  0.1591  1.2496
 4406TIP3    H213225   0.275   2.715   2.588  0.4993  1.6139  0.8316
 4407TIP3   OH213226   2.047   2.073   3.872  0.5059 -0.4243 -0.0105
 4407TIP3    H113227   1.983   2.065   3.802  1.4194 -0.7520 -0.8350
 4407TIP3    H213228   2.001   2.119   3.942 -0.7216 -0.9676 -0.4407
 4408TIP3   OH213229   3.140   4.151   0.088 -0.1974  0.4801  0.5123
 4408TIP3    H113230   3.186   4.200   0.156 -2.1541  0.0154  2.2922
 4408TIP3    H213231   3.130   4.063   0.125  0.1819 -0.2793 -1.1312
 4409TIP3   OH213232   6.160   4.693   2.293  0.1082  0.2530  0.0575
 4409TIP3    H113233   6.246   4.727   2.268  0.0878  0.3301  0.0884
 4409TIP3    H213234   6.159   4.603   2.262 -0.0632  0.4619 -0.5581
 4410TIP3   OH213235   1.384   0.872   2.289  0.6994 -0.3158 -0.3890
 4410TIP3    H113236   1.339   0.909   2.213  0.3722 -0.0111 -0.0567
 4410TIP3    H213237   1.448   0.939   2.314 -0.7907  0.6619  1.0168
 4411TIP3   OH213238   4.409   5.585   0.697 -0.7905  0.3965  0.2059
 4411TIP3    H113239   4.457   5.512   0.737  0.1557  0.6224 -0.4900
 4411TIP3    H213240   4.404   5.650   0.766  0.5816  0.6677  0.0844
 4412TIP3   OH213241   5.359   1.452   1.409 -0.0194  0.0654 -0.4010
 4412TIP3    H113242   5.430   1.469   1.347  0.1276 -0.1867 -0.3005
 4412TIP3    H213243   5.366   1.359   1.429  0.3352  0.2775  0.4931
 4413TIP3   OH213244   2.766   1.544   4.663 -0.2723  0.0767  0.6448
 4413TIP3    H113245   2.820   1.607   4.709 -1.4069  0.2385  1.8260
 4413TIP3    H213246   2.722   1.495   4.733 -1.0165 -0.5832 -0.2608
 4414TIP3   OH213247   2.815   1.764   3.867  0.7491  0.2395 -0.4019
 4414TIP3    H113248   2.903   1.770   3.830 -0.1896  1.4687 -2.6271
 4414TIP3    H213249   2.805   1.672   3.890  2.4466 -0.0139 -0.5438
 4415TIP3   OH213250   4.669   1.254   3.119  0.1743  0.0429 -0.5527
 4415TIP3    H113251   4.633   1.225   3.202 -0.1479  1.6596 -0.0958
 4415TIP3    H213252   4.689   1.173   3.071 -0.9556 -0.8919  0.5176
 4416TIP3   OH213253   4.191   2.673   2.561 -0.3810  0.4462  0.0381
 4416TIP3    H113254   4.113   2.728   2.559 -0.4668  0.3326  0.1850
 4416TIP3    H213255   4.210   2.663   2.655  0.7597  1.7976 -0.0230
 4417TIP3   OH213256   3.379   3.787   1.068 -0.0184  0.0266 -0.4915
 4417TIP3    H113257   3.378   3.791   0.973 -0.6148 -0.3057 -0.5041
 4417TIP3    H213258   3.326   3.862   1.096  1.6201  1.1913 -0.3664
 4418TIP3   OH213259   1.166   5.292   3.449 -0.1143  0.0461  0.1370
 4418TIP3    H113260   1.104   5.241   3.501  1.3807 -1.2784  0.7122
 4418TIP3    H213261   1.178   5.373   3.500 -2.7283  1.2281 -0.9321
 4419TIP3   OH213262   0.634   1.513   2.801 -0.1806  0.5047  0.3834
 4419TIP3    H113263   0.617   1.570   2.876  0.6965  0.5803  0.5356
 4419TIP3    H213264   0.623   1.569   2.725  0.5476  0.8616  0.5273
 4420TIP3   OH213265   5.212   3.862   1.650 -0.1616  0.8479  0.0630
 4420TIP3    H113266   5.308   3.859   1.656 -0.1754  0.4019  0.0818
 4420TIP3    H213267   5.183   3.780   1.689 -0.4978  0.4201 -1.0450
 4421TIP3   OH213268   1.367   0.524   0.928  1.0087  0.7333  0.2534
 4421TIP3    H113269   1.406   0.474   0.856  1.1497  0.2498  0.6664
 4421TIP3    H213270   1.371   0.466   1.003 -0.3063  0.7506  0.3638
 4422TIP3   OH213271   5.291   2.593   1.585 -0.0148  0.3728  0.0998
 4422TIP3    H113272   5.331   2.645   1.655  1.7134  1.6283 -1.7110
 4422TIP3    H213273   5.204   2.632   1.574 -0.3754  0.0594  1.5848
 4423TIP3   OH213274   1.429   2.833   3.075 -0.2346 -0.0398  0.1493
 4423TIP3    H113275   1.421   2.838   3.170  1.4575 -1.2441  0.4032
 4423TIP3    H213276   1.496   2.898   3.054 -1.8225  1.4876 -0.4873
 4424TIP3   OH213277   1.050   2.874   0.517 -0.1702 -0.0544 -0.0575
 4424TIP3    H113278   1.122   2.852   0.459 -0.0375  0.7814 -0.2221
 4424TIP3    H213279   0.988   2.921   0.461  0.6612  2.1397  0.7911
 4425TIP3   OH213280   5.887   1.254   2.662  0.4601  0.1892 -0.1090
 4425TIP3    H113281   5.885   1.213   2.576  1.3223  2.0407 -1.0666
 4425TIP3    H213282   5.795   1.267   2.685  0.2209 -0.5982 -0.6062
 4426TIP3   OH213283   2.798   0.744   3.975 -0.2206  0.2776  0.2232
 4426TIP3    H113284   2.762   0.676   4.032 -0.5685  0.3429  0.0830
 4426TIP3    H213285   2.721   0.785   3.936  0.0304 -0.6089 -1.2933
 4427TIP3   OH213286   0.881   1.329   1.840 -0.2867  0.0460  0.0703
 4427TIP3    H113287   0.914   1.401   1.894  0.2940 -0.4396  0.3699
 4427TIP3    H213288   0.930   1.252   1.869 -0.6555 -0.4083 -0.4853
 4428TIP3   OH213289   6.011   3.295   0.770 -0.2994  0.1338 -0.1633
 4428TIP3    H113290   6.093   3.254   0.796  0.3792  1.5490  0.0185
 4428TIP3    H213291   6.016   3.301   0.674 -0.5963 -0.5587 -0.2330
 4429TIP3   OH213292   4.388   4.765   4.354  0.3784  0.6790 -0.1209
 4429TIP3    H113293   4.400   4.752   4.260 -2.7623 -0.0107 -0.5341
 4429TIP3    H213294   4.394   4.677   4.391 -1.4782  0.4936 -0.1711
 4430TIP3   OH213295   3.094   5.981   1.466  0.3394 -0.3825 -0.1523
 4430TIP3    H113296   3.150   5.929   1.409  2.1054 -0.0006  1.1498
 4430TIP3    H213297   3.017   6.000   1.413  1.3220 -1.1415 -1.9424
 4431TIP3   OH213298   3.879   4.053   2.554 -0.2789  0.4665  0.3722
 4431TIP3    H113299   3.878   3.980   2.615 -0.1674  1.1203  1.1649
 4431TIP3    H213300   3.971   4.063   2.531 -0.2638  0.5181  0.4563
 4432TIP3   OH213301   0.617   0.541   3.965 -0.2282  0.1832  0.3430
 4432TIP3    H113302   0.541   0.519   4.018  0.6006  0.4436  1.6817
 4432TIP3    H213303   0.681   0.473   3.985 -0.1854 -0.1954 -0.9888
 4433TIP3   OH213304   0.539   5.895   0.528  0.7798 -0.1133  0.6796
 4433TIP3    H113305   0.476   5.864   0.592 -0.0693  1.0487  0.4547
 4433TIP3    H213306   0.488   5.952   0.470  1.7272 -0.3419 -0.4276
 4434TIP3   OH213307   2.052   5.086   4.858  0.0105 -0.4490 -0.3090
 4434TIP3    H113308   1.962   5.108   4.837  0.4319  0.0781 -1.7002
 4434TIP3    H213309   2.105   5.149   4.808  1.1459  0.8708  2.3736
 4435TIP3   OH213310   4.017   1.309   2.555  0.3543  0.4272  0.4591
 4435TIP3    H113311   4.082   1.347   2.496 -0.5108  0.5838 -0.4180
 4435TIP3    H213312   3.936   1.309   2.504 -0.5716  1.1866  1.8792
 4436TIP3   OH213313   4.558   5.946   4.997  0.1542  0.0993  0.1648
 4436TIP3    H113314   4.522   5.938   5.085  3.6123  0.2834  1.7810
 4436TIP3    H213315   4.586   5.857   4.974 -0.4930  0.0968 -0.6654
 4437TIP3   OH213316   5.681   5.395   2.943 -0.2502  0.1300  0.2443
 4437TIP3    H113317   5.769   5.425   2.965  0.7351  0.4089 -3.3715
 4437TIP3    H213318   5.676   5.305   2.977  1.4267  0.1415  0.5732
 4438TIP3   OH213319   5.323   3.684   1.827 -0.2952 -0.0505  0.6634
 4438TIP3    H113320   5.419   3.678   1.825 -0.3707 -1.9871 -1.0789
 4438TIP3    H213321   5.294   3.593   1.836 -1.9718  0.4935  0.9802
 4439TIP3   OH213322   2.531   1.094   4.652 -0.0193 -0.2073 -0.3585
 4439TIP3    H113323   2.559   1.167   4.596  0.9037 -0.6256 -0.4658
 4439TIP3    H213324   2.441   1.116   4.677 -0.0014  0.6145 -0.9654
 4440TIP3   OH213325   5.885   4.066   2.356 -0.5550 -0.2282 -0.6338
 4440TIP3    H113326   5.976   4.053   2.331 -0.5889  0.1818 -0.9715
 4440TIP3    H213327   5.877   4.160   2.370 -0.8268 -0.3098 -0.2017
 4441TIP3   OH213328   0.662   0.188   4.461  0.5675  0.3525 -0.7496
 4441TIP3    H113329   0.657   0.191   4.366  0.0923  0.3880 -0.7251
 4441TIP3    H213330   0.579   0.225   4.491 -0.2102 -1.6201 -0.3480
 4442TIP3   OH213331   3.579   5.231   3.046 -0.4002  0.1133  0.1653
 4442TIP3    H113332   3.622   5.178   3.113 -0.9251  0.9827  1.2181
 4442TIP3    H213333   3.619   5.317   3.055  0.0647  0.0570 -1.1715
 4443TIP3   OH213334   4.168   5.560   2.073 -0.5390  0.3572 -0.2748
 4443TIP3    H113335   4.139   5.532   2.160 -1.8837 -1.5013 -1.2546
 4443TIP3    H213336   4.174   5.479   2.022  0.9155  1.3269 -1.7378
 4444TIP3   OH213337   4.136   5.210   0.562 -0.1021  0.1397 -0.0003
 4444TIP3    H113338   4.097   5.246   0.642 -1.1768  0.2664 -0.5617
 4444TIP3    H213339   4.068   5.153   0.526  0.8939 -1.0323 -0.0968
 4445TIP3   OH213340   0.673   0.348   1.624  0.6144 -0.0860  0.4997
 4445TIP3    H113341   0.754   0.360   1.673  1.5351  1.7665 -1.3356
 4445TIP3    H213342   0.644   0.437   1.603 -1.5835 -0.7215  0.5689
 4446TIP3   OH213343   5.622   1.640   2.143  0.1096 -0.0143  0.0976
 4446TIP3    H113344   5.702   1.594   2.167  0.2908  0.8843  1.3504
 4446TIP3    H213345   5.567   1.636   2.222 -0.4808  0.6001 -0.2667
 4447TIP3   OH213346   6.213   1.083   0.526  0.4851  0.2028  0.7322
 4447TIP3    H113347   6.185   1.170   0.497  2.1389  0.8019  0.8322
 4447TIP3    H213348   6.198   1.026   0.451  1.9630  1.1472 -0.3342
 4448TIP3   OH213349   6.168   4.564   5.192 -0.2939 -0.1671 -0.0924
 4448TIP3    H113350   6.150   4.602   5.107  0.6992  0.1472 -0.1721
 4448TIP3    H213351   6.257   4.592   5.213 -0.7614  0.3500  1.3600
 4449TIP3   OH213352   4.087   4.422   2.347  0.0022 -0.2194  0.1673
 4449TIP3    H113353   3.991   4.420   2.339  0.1193 -0.4751 -1.6046
 4449TIP3    H213354   4.110   4.336   2.381 -0.2858 -0.9054 -1.3056
 4450TIP3   OH213355   0.590   3.226   1.494 -0.0695  0.3367 -0.1935
 4450TIP3    H113356   0.524   3.273   1.545  0.9933  0.6433  0.9500
 4450TIP3    H213357   0.616   3.153   1.550  2.1350  1.4771  0.3936
 4451TIP3   OH213358   2.690   3.190   2.489 -0.3013 -0.0566  0.3261
 4451TIP3    H113359   2.705   3.210   2.582 -0.6226 -0.4810  0.4729
 4451TIP3    H213360   2.724   3.101   2.478  0.8556  0.4358 -0.2549
 4452TIP3   OH213361   0.381   2.101   4.531 -0.9125 -0.2271 -0.0660
 4452TIP3    H113362   0.372   2.082   4.624  0.5348 -0.2923  0.0691
 4452TIP3    H213363   0.380   2.196   4.525  2.3481 -0.0732  0.4290
 4453TIP3   OH213364   3.115   4.023   4.424 -0.9187  0.4791 -0.3660
 4453TIP3    H113365   3.117   3.969   4.344 -1.4999 -0.4985  0.2527
 4453TIP3    H213366   3.044   4.085   4.409 -1.7973 -0.4424 -0.1804
 4454TIP3   OH213367   5.706   3.692   2.395  0.4649  0.2890 -0.2622
 4454TIP3    H113368   5.774   3.681   2.461 -2.0245 -0.8476  2.3178
 4454TIP3    H213369   5.659   3.771   2.422 -0.8022 -0.3736 -0.4693
 4455TIP3   OH213370   4.963   0.524   4.838  0.2659 -0.3057  0.0244
 4455TIP3    H113371   4.898   0.484   4.779  0.7398 -3.7424  1.5700
 4455TIP3    H213372   5.042   0.530   4.786 -0.0728 -0.5392 -0.5266
 4456TIP3   OH213373   1.299   3.965   4.870  0.0990  0.1609 -0.3477
 4456TIP3    H113374   1.345   3.919   4.941  0.1238 -0.2765 -0.6385
 4456TIP3    H213375   1.261   4.042   4.911 -1.4582 -1.0277  0.5517
 4457TIP3   OH213376   5.086   3.536   5.046  0.0350  0.6333  0.0571
 4457TIP3    H113377   5.070   3.630   5.057  0.3038  0.5508  1.4262
 4457TIP3    H213378   5.067   3.499   5.132  2.4455 -0.1808  0.3223
 4458TIP3   OH213379   4.618   5.083   3.273  0.1808 -0.4810  0.1490
 4458TIP3    H113380   4.569   5.010   3.311  0.0464 -0.0138  0.8888
 4458TIP3    H213381   4.618   5.150   3.341 -1.4893  1.0472 -1.2588
 4459TIP3   OH213382   3.496   5.209   4.524 -0.1282  0.2673 -0.6955
 4459TIP3    H113383   3.562   5.141   4.512 -0.7731 -0.1909 -1.7402
 4459TIP3    H213384   3.518   5.276   4.460  0.2417  0.8524  0.0289
 4460TIP3   OH213385   0.977   0.130   3.513  0.2461  0.1731  0.8887
 4460TIP3    H113386   0.958   0.077   3.436 -2.4058 -0.8861  2.1373
 4460TIP3    H213387   0.900   0.186   3.523  0.9302  0.9194  2.2414
 4461TIP3   OH213388   0.570   3.742   3.815 -0.7204  0.3530  0.2874
 4461TIP3    H113389   0.556   3.721   3.907 -2.4015  0.2452  0.0296
 4461TIP3    H213390   0.500   3.803   3.793 -1.8574 -1.4655 -1.5255
 4462TIP3   OH213391   1.259   3.854   1.750 -0.1143  0.4453  0.0522
 4462TIP3    H113392   1.170   3.820   1.739  0.1273  0.2835 -1.5620
 4462TIP3    H213393   1.314   3.796   1.697  0.7869  1.2688  0.0640
 4463TIP3   OH213394   4.379   2.799   0.241 -0.1051 -0.1324 -0.4413
 4463TIP3    H113395   4.417   2.854   0.310 -2.0203  1.7217 -0.7423
 4463TIP3    H213396   4.430   2.819   0.163  0.1520  0.1131 -0.2125
 4464TIP3   OH213397   1.617   0.377   2.244  0.1050 -0.2543  0.1381
 4464TIP3    H113398   1.624   0.426   2.326 -2.9383 -2.2336  1.7973
 4464TIP3    H213399   1.625   0.286   2.270 -0.3857 -0.9184 -1.8495
 4465TIP3   OH213400   3.820   3.482   0.985  0.4571 -0.5497  0.7340
 4465TIP3    H113401   3.811   3.388   1.001  0.0249 -0.5203  0.6936
 4465TIP3    H213402   3.761   3.523   1.049 -1.1191 -0.4217 -0.7272
 4466TIP3   OH213403   0.425   4.881   3.392 -0.8232 -0.1703  0.1956
 4466TIP3    H113404   0.344   4.853   3.352  0.0760 -1.5333 -0.7496
 4466TIP3    H213405   0.435   4.972   3.365 -1.9242 -0.0431  0.1766
 4467TIP3   OH213406   4.313   2.971   4.948  0.1780 -0.0367 -0.0730
 4467TIP3    H113407   4.401   2.954   4.915 -0.3808 -2.1485 -0.6441
 4467TIP3    H213408   4.272   3.026   4.881  0.5953 -0.2777 -0.5298
 4468TIP3   OH213409   0.647   5.392   3.479 -0.3685 -0.0739  0.5310
 4468TIP3    H113410   0.710   5.345   3.424 -2.5512  0.4925 -2.7058
 4468TIP3    H213411   0.600   5.323   3.526  0.4376 -0.6960  0.4508
 4469TIP3   OH213412   5.074   2.316   1.051  0.0519 -0.6705  0.1712
 4469TIP3    H113413   5.158   2.361   1.045  1.3563 -3.0009 -0.4875
 4469TIP3    H213414   5.069   2.264   0.971 -1.5702 -1.3209  0.6541
 4470TIP3   OH213415   1.134   4.148   4.951 -0.9264 -0.4853 -0.2156
 4470TIP3    H113416   1.046   4.147   4.988 -0.4785  1.5596  1.0492
 4470TIP3    H213417   1.126   4.197   4.870 -0.8919  0.2134  0.1897
 4471TIP3   OH213418   5.319   0.465   1.206 -0.1537 -0.0453  0.5405
 4471TIP3    H113419   5.238   0.515   1.217 -0.6968 -1.1749  1.9151
 4471TIP3    H213420   5.389   0.528   1.223 -0.5383  1.6277 -3.1155
 4472TIP3   OH213421   3.846   1.621   4.508  0.5487 -0.1220  0.4499
 4472TIP3    H113422   3.760   1.596   4.542  1.1584 -2.7812  0.2464
 4472TIP3    H213423   3.834   1.622   4.413  0.8930 -1.2125  0.3867
 4473TIP3   OH213424   3.285   3.124   1.066  0.2287  0.3985 -0.3462
 4473TIP3    H113425   3.274   3.218   1.082 -0.9026  0.5297 -1.7331
 4473TIP3    H213426   3.203   3.084   1.096  0.8150 -0.2078  0.5074
 4474TIP3   OH213427   4.271   1.384   3.451  0.2830  0.5578 -0.2582
 4474TIP3    H113428   4.357   1.341   3.453 -1.0110 -2.3078  2.6982
 4474TIP3    H213429   4.237   1.374   3.540 -3.2233  1.3942 -1.3416
 4475TIP3   OH213430   5.447   1.895   1.665 -0.3040 -0.5803 -0.2812
 4475TIP3    H113431   5.503   1.883   1.588  0.2747 -0.7687  0.1630
 4475TIP3    H213432   5.499   1.861   1.738  0.2406  1.9678  0.6074
 4476TIP3   OH213433   2.608   3.386   1.269  0.1252  0.0934 -0.3366
 4476TIP3    H113434   2.671   3.319   1.296  1.2925  2.1785  2.6912
 4476TIP3    H213435   2.524   3.355   1.302  0.4391 -0.4940 -0.0768
 4477TIP3   OH213436   0.197  -0.015   4.760 -0.2142 -0.0929  0.4190
 4477TIP3    H113437   0.246   0.050   4.709  2.2623 -2.1734 -0.1074
 4477TIP3    H213438   0.237  -0.011   4.847  1.8539 -2.5374 -0.2919
 4478TIP3   OH213439   0.124   3.007   3.657 -0.1850 -0.3691  0.5770
 4478TIP3    H113440   0.163   3.044   3.736  1.0058  1.5096 -0.7905
 4478TIP3    H213441   0.198   2.991   3.599 -1.1650  0.0199 -0.8306
 4479TIP3   OH213442   4.463   0.767  -0.002 -0.9498  0.0749 -0.1756
 4479TIP3    H113443   4.466   0.690   0.055 -3.1481  0.5074  0.6053
 4479TIP3    H213444   4.406   0.829   0.044 -0.1554  1.7401 -1.3353
 4480TIP3   OH213445   1.897   5.612   4.408  0.1435 -0.4731  0.2800
 4480TIP3    H113446   1.829   5.554   4.374  1.4289 -1.3861 -0.8274
 4480TIP3    H213447   1.858   5.700   4.402 -0.1328 -0.6944 -2.5531
 4481TIP3   OH213448   4.126   3.113   4.327 -0.0072  0.1405 -0.3139
 4481TIP3    H113449   4.114   3.023   4.294 -0.2787 -0.1689  0.6010
 4481TIP3    H213450   4.218   3.132   4.311  0.1215 -0.4100 -0.2546
 4482TIP3   OH213451   4.270   0.821   2.995  0.4512 -0.0305  0.3997
 4482TIP3    H113452   4.287   0.868   2.914  2.9826 -0.0894  0.7956
 4482TIP3    H213453   4.242   0.734   2.967  1.3304 -0.0612 -0.4218
 4483TIP3   OH213454   0.194   1.837   1.728 -0.4266  0.0354 -0.0176
 4483TIP3    H113455   0.214   1.790   1.809  1.5081  0.1826 -0.3529
 4483TIP3    H213456   0.207   1.771   1.659  0.0657  0.4562 -0.3334
 4484TIP3   OH213457   0.567   2.812   4.550 -0.1434 -0.3150  0.2813
 4484TIP3    H113458   0.596   2.902   4.560  0.8623 -0.7122  1.1893
 4484TIP3    H213459   0.495   2.816   4.487 -0.4042  1.1600  0.6542
 4485TIP3   OH213460   4.446   1.732   2.990  0.8231  0.3356 -0.0143
 4485TIP3    H113461   4.481   1.766   3.072  2.1516 -0.5994 -0.1607
 4485TIP3    H213462   4.437   1.638   3.005  0.8962  0.1827 -0.8748
 4486TIP3   OH213463   4.907   0.229   4.888  0.3662  0.3972 -0.6572
 4486TIP3    H113464   4.875   0.202   4.802  1.7731 -0.3590 -0.9635
 4486TIP3    H213465   4.994   0.265   4.872  0.3397  0.9765  0.3592
 4487TIP3   OH213466   3.254   0.712   0.241 -0.4456 -0.2854  0.1626
 4487TIP3    H113467   3.294   0.699   0.327 -1.6797  0.1874  0.8319
 4487TIP3    H213468   3.215   0.627   0.220  1.8582 -1.1022 -1.0352
 4488TIP3   OH213469   5.262   4.286   1.015 -0.2062  0.0990  0.1618
 4488TIP3    H113470   5.202   4.242   0.955 -1.4816  1.3949  0.4300
 4488TIP3    H213471   5.348   4.252   0.991 -0.7477  0.0116 -1.9193
 4489TIP3   OH213472   2.831   2.227   0.522  0.0089 -0.4530 -0.1398
 4489TIP3    H113473   2.894   2.198   0.456 -1.4224 -1.2007 -1.2313
 4489TIP3    H213474   2.746   2.209   0.483 -0.8895 -0.5829  1.7918
 4490TIP3   OH213475   0.154   3.717   4.921 -0.3575 -0.3464 -0.8246
 4490TIP3    H113476   0.200   3.721   5.005  2.4161 -1.9581 -2.1357
 4490TIP3    H213477   0.214   3.760   4.860 -0.4855 -2.5999 -2.6388
 4491TIP3   OH213478   1.072   0.195   2.533 -0.5697  0.3610  0.5412
 4491TIP3    H113479   1.106   0.256   2.468 -0.4499  0.6824  0.8954
 4491TIP3    H213480   1.102   0.232   2.617  0.2574 -0.6558  0.7077
 4492TIP3   OH213481   3.708   4.321   2.073  0.5663  0.2354 -0.0946
 4492TIP3    H113482   3.686   4.343   1.983  1.5201 -1.9701 -0.9476
 4492TIP3    H213483   3.624   4.301   2.115  0.1922  0.4991 -0.7121
 4493TIP3   OH213484   3.469  -0.020   3.359 -0.0971  0.1206 -0.1990
 4493TIP3    H113485   3.453   0.073   3.347 -2.7192 -0.2676 -0.2797
 4493TIP3    H213486   3.515  -0.047   3.280  2.0097  1.5387  0.4486
 4494TIP3   OH213487   5.905   2.204   4.108  0.2150  0.3076  0.0197
 4494TIP3    H113488   5.976   2.230   4.049 -0.0693 -3.1477 -2.1644
 4494TIP3    H213489   5.830   2.190   4.049 -1.0216 -0.2798  1.6642
 4495TIP3   OH213490   2.156   4.321   3.683 -0.4190  0.1007  0.5487
 4495TIP3    H113491   2.167   4.306   3.777 -0.6997 -1.1148  0.3940
 4495TIP3    H213492   2.206   4.251   3.641 -0.7198  0.3311 -0.2124
 4496TIP3   OH213493   3.508   4.718   0.435 -0.1625 -0.4698 -0.1156
 4496TIP3    H113494   3.441   4.682   0.493  0.4056 -0.3801  0.6136
 4496TIP3    H213495   3.590   4.685   0.470  0.2527  0.2747 -0.3645
 4497TIP3   OH213496   5.594   1.413   0.531  0.1901  0.2877  0.3226
 4497TIP3    H113497   5.598   1.334   0.585  2.2481  0.1516  0.0730
 4497TIP3    H213498   5.601   1.485   0.594 -1.1589  0.2812  0.5062
 4498TIP3   OH213499   5.096   1.681   2.470 -0.4976 -0.4937  0.4135
 4498TIP3    H113500   5.009   1.720   2.471 -1.3068 -2.1882  1.0571
 4498TIP3    H213501   5.154   1.750   2.501 -1.5080  0.8599 -0.5952
 4499TIP3   OH213502   2.286   5.287   1.200 -0.1672  0.7471  0.5356
 4499TIP3    H113503   2.278   5.345   1.275  0.7106  1.8514 -0.1896
 4499TIP3    H213504   2.320   5.342   1.129 -0.9074 -0.2661 -0.6670
 4500TIP3   OH213505   3.541   4.410   0.280  0.0198 -0.2854 -0.1886
 4500TIP3    H113506   3.546   4.501   0.253 -3.3057  0.1405  0.2216
 4500TIP3    H213507   3.558   4.411   0.374  2.1403 -0.4666 -0.5209
 4501TIP3   OH213508   4.488   1.474   5.043  0.2111  0.2306 -0.4648
 4501TIP3    H113509   4.547   1.495   4.970  1.1637  0.4947  0.3690
 4501TIP3    H213510   4.434   1.402   5.010  0.1453  0.8068 -1.6780
 4502TIP3   OH213511   5.695   4.914   0.433  0.1339  0.1775 -0.1711
 4502TIP3    H113512   5.790   4.924   0.430  0.1664  0.5692  1.2467
 4502TIP3    H213513   5.661   4.990   0.387  0.5107  0.7818  0.5314
 4503TIP3   OH213514   4.532   0.107   5.149  0.8199  0.4643  0.1192
 4503TIP3    H113515   4.569   0.019   5.144 -0.2576 -0.0705  1.1714
 4503TIP3    H213516   4.485   0.109   5.233 -1.2529  1.2105 -0.9927
 4504TIP3   OH213517   3.675   5.280   2.744  0.3273  0.2110  0.1561
 4504TIP3    H113518   3.681   5.374   2.764  1.2736 -0.0469  1.2019
 4504TIP3    H213519   3.649   5.240   2.827 -1.5825 -0.3278 -0.6391
 4505TIP3   OH213520   3.275   3.193   2.952 -0.0303  0.1415 -0.2008
 4505TIP3    H113521   3.212   3.180   2.882 -0.4143 -1.4735  0.4137
 4505TIP3    H213522   3.222   3.207   3.030  0.3830 -0.0443  0.1194
 4506TIP3   OH213523   2.288   1.369   1.931 -0.3470  0.1196  0.0730
 4506TIP3    H113524   2.220   1.397   1.992  0.4195 -0.0635  1.0291
 4506TIP3    H213525   2.298   1.275   1.947 -0.6661 -0.0905 -0.8759
 4507TIP3   OH213526   1.106   4.697   0.587 -0.3889  0.4014  0.0531
 4507TIP3    H113527   1.170   4.713   0.518  1.4272  0.5466  1.6857
 4507TIP3    H213528   1.104   4.602   0.597 -0.9003  0.3613 -0.4131
 4508TIP3   OH213529   5.728   0.461   4.194 -0.7363  0.2740  0.2508
 4508TIP3    H113530   5.750   0.512   4.115 -1.6898  0.2512 -0.0499
 4508TIP3    H213531   5.658   0.511   4.236 -0.8429 -0.1676  0.6089
 4509TIP3   OH213532   2.770   5.628   1.885 -0.1121  0.3136  0.1334
 4509TIP3    H113533   2.807   5.609   1.972 -0.4378  0.0263  0.2119
 4509TIP3    H213534   2.775   5.723   1.877 -1.5063  0.4985  1.1106
 4510TIP3   OH213535   3.996   0.638   1.047 -0.0546 -0.4434 -0.0270
 4510TIP3    H113536   4.086   0.606   1.044 -0.0886 -0.4985 -0.5107
 4510TIP3    H213537   3.958   0.609   0.964 -0.1084  0.7675 -0.4448
 4511TIP3   OH213538   1.661   1.622   1.602  0.5931  0.0080  0.4295
 4511TIP3    H113539   1.625   1.696   1.652 -0.4012 -0.8222  0.9909
 4511TIP3    H213540   1.677   1.657   1.515 -3.1617  0.1290 -0.4039
 4512TIP3   OH213541   4.451   1.171   1.000 -0.5034  0.2785 -0.2023
 4512TIP3    H113542   4.523   1.229   1.026 -1.2251  1.2220 -0.2591
 4512TIP3    H213543   4.492   1.085   0.991  0.6893  0.8521 -0.5284
 4513TIP3   OH213544   3.924   4.412   3.871  0.1271  0.2972 -1.4491
 4513TIP3    H113545   3.852   4.419   3.808 -0.8531  1.3217 -0.2858
 4513TIP3    H213546   3.958   4.324   3.859 -3.5750 -1.6134  0.2007
 4514TIP3   OH213547   0.208   0.823   4.232  0.1525 -0.0002  0.3869
 4514TIP3    H113548   0.297   0.840   4.202 -0.0233  0.8024  0.2998
 4514TIP3    H213549   0.210   0.839   4.326 -0.3598  2.0850  0.0862
 4515TIP3   OH213550   4.012   0.840   3.101  0.6543 -0.0722 -0.2630
 4515TIP3    H113551   4.107   0.848   3.101  0.8199 -1.1937  1.7998
 4515TIP3    H213552   3.987   0.854   3.192 -1.3578  1.7028 -1.0075
 4516TIP3   OH213553   5.832   1.939   4.590 -0.6927  1.0117  0.6243
 4516TIP3    H113554   5.911   1.894   4.560 -1.6825  0.4552 -1.3477
 4516TIP3    H213555   5.797   1.981   4.512 -3.2034 -0.1234  1.0406
 4517TIP3   OH213556   4.136   3.220   1.294  0.6998 -0.4098 -0.2758
 4517TIP3    H113557   4.201   3.229   1.224  0.6427  0.1166 -0.2665
 4517TIP3    H213558   4.085   3.301   1.290  0.1557 -0.7387 -0.1658
 4518TIP3   OH213559   4.900   1.872   4.625 -0.2521 -0.4979  0.5428
 4518TIP3    H113560   4.892   1.798   4.564 -0.7279  0.1868 -0.2635
 4518TIP3    H213561   4.994   1.881   4.639 -0.0430 -0.0163 -0.9604
 4519TIP3   OH213562   4.396   3.893   1.413  0.2656  0.3821  0.6856
 4519TIP3    H113563   4.488   3.864   1.415 -0.0283 -0.5503  1.2882
 4519TIP3    H213564   4.346   3.811   1.412 -0.5738  0.8875  1.1974
 4520TIP3   OH213565   4.483   5.040   4.101  0.1843 -0.0591 -0.0288
 4520TIP3    H113566   4.522   5.097   4.034  0.8919 -0.0881  0.3491
 4520TIP3    H213567   4.467   5.099   4.175  1.0696 -0.3661  0.4232
 4521TIP3   OH213568   3.777   2.868   2.572 -0.1730 -0.2262  0.8311
 4521TIP3    H113569   3.843   2.934   2.553 -0.1573 -0.5011 -0.1310
 4521TIP3    H213570   3.695   2.916   2.576 -0.2974 -0.2525 -0.8259
 4522TIP3   OH213571   5.674   5.845   0.763  0.1101  0.3045  0.0879
 4522TIP3    H113572   5.608   5.877   0.700  1.1019 -0.7584 -1.5886
 4522TIP3    H213573   5.757   5.881   0.731  0.8735 -1.6402 -0.2999
 4523TIP3   OH213574   2.952   4.706   1.074 -0.4597 -0.1434 -0.4285
 4523TIP3    H113575   3.034   4.751   1.055 -0.0369 -0.6741  0.0952
 4523TIP3    H213576   2.950   4.701   1.170 -1.6765  0.9122 -0.3753
 4524TIP3   OH213577   2.344   2.033   4.483 -0.1465 -0.5132  0.2179
 4524TIP3    H113578   2.330   1.990   4.399 -0.2730  0.2113 -0.1429
 4524TIP3    H213579   2.319   2.124   4.468 -0.2976 -0.3995  1.0767
 4525TIP3   OH213580   3.093   1.143   4.436 -0.1938  0.3584  0.4841
 4525TIP3    H113581   3.044   1.147   4.518  1.2256 -0.6426  1.4271
 4525TIP3    H213582   3.184   1.130   4.463  0.3309  0.2071 -1.2504
 4526TIP3   OH213583   1.067   0.628   4.237  0.2759  0.3562  0.3373
 4526TIP3    H113584   1.013   0.561   4.279  0.3558  0.0077 -0.1071
 4526TIP3    H213585   1.145   0.634   4.292  0.2644  0.0853  0.3818
 4527TIP3   OH213586   2.461   2.939   2.231 -0.1255 -0.4363 -0.4087
 4527TIP3    H113587   2.545   2.902   2.205 -0.5800 -1.6081 -0.2540
 4527TIP3    H213588   2.415   2.867   2.274 -1.3725  0.0593 -0.8598
 4528TIP3   OH213589   5.017   4.348   1.210 -0.0456  0.1610 -0.2402
 4528TIP3    H113590   5.111   4.337   1.200  0.3498  2.9760 -0.4126
 4528TIP3    H213591   5.003   4.352   1.305  0.0841  0.1371 -0.2203
 4529TIP3   OH213592   2.409   3.414   4.386 -0.0417 -0.4946  0.3611
 4529TIP3    H113593   2.368   3.362   4.317  1.3416  0.0814 -0.9434
 4529TIP3    H213594   2.378   3.374   4.467 -2.5883 -0.5213 -0.5327
 4530TIP3   OH213595   3.024   4.597   1.774  0.1013  0.3976 -0.0425
 4530TIP3    H113596   2.948   4.630   1.727 -0.0843  0.5513  0.3613
 4530TIP3    H213597   3.013   4.630   1.863  0.4671  0.1416  0.0985
 4531TIP3   OH213598   4.536   4.654   2.550 -0.1444  0.4857 -0.1661
 4531TIP3    H113599   4.512   4.707   2.626 -0.1516 -0.2224  0.3298
 4531TIP3    H213600   4.468   4.587   2.545 -0.5791  0.9822 -1.2700
 4532TIP3   OH213601   2.918   3.555   5.061 -0.2460  0.2775 -0.2531
 4532TIP3    H113602   2.963   3.492   5.118 -2.2648  1.5037  2.9788
 4532TIP3    H213603   2.861   3.502   5.006  1.7126 -0.9508 -1.2439
 4533TIP3   OH213604   6.154   3.392   1.412  0.0348  0.3446 -0.6972
 4533TIP3    H113605   6.162   3.480   1.375  0.4639  0.6766  0.1328
 4533TIP3    H213606   6.201   3.398   1.496  0.7816 -0.8968 -1.0057
 4534TIP3   OH213607   1.986   2.815   3.370 -0.1139  0.5588  0.1131
 4534TIP3    H113608   1.996   2.870   3.292 -0.6608 -0.5036 -0.7240
 4534TIP3    H213609   2.053   2.748   3.361  0.6805  1.1706  1.2329
 4535TIP3   OH213610   3.912   1.319   3.448 -0.1184  0.0665 -0.2081
 4535TIP3    H113611   3.896   1.293   3.357 -0.4516  0.2006 -0.1903
 4535TIP3    H213612   3.953   1.405   3.441 -2.0060  1.0140 -0.1928
 4536TIP3   OH213613   2.356   0.292   4.955  0.0118 -0.3433  0.5615
 4536TIP3    H113614   2.398   0.378   4.954  1.0919 -0.8680  0.3725
 4536TIP3    H213615   2.348   0.269   4.862  0.6096 -0.8740  0.6401
 4537TIP3   OH213616   3.114   1.683   3.006  0.5483  0.0629  0.2323
 4537TIP3    H113617   3.148   1.734   2.933  1.1557 -1.2998 -0.4597
 4537TIP3    H213618   3.192   1.650   3.051  0.1944  1.1042  1.6907
 4538TIP3   OH213619   2.024   4.131   0.233  0.1693  0.2108 -0.4615
 4538TIP3    H113620   1.976   4.098   0.157 -0.3040  0.0986 -0.1189
 4538TIP3    H213621   2.078   4.058   0.262 -0.3953 -0.0664 -0.0939
 4539TIP3   OH213622   3.051   3.498   2.858 -0.4130  0.5546 -0.1618
 4539TIP3    H113623   3.006   3.431   2.911 -1.3643  0.2598 -1.2979
 4539TIP3    H213624   3.129   3.521   2.909 -1.0583 -0.0482  1.1399
 4540TIP3   OH213625   1.863   1.933   2.351  0.0108  0.7389  0.0149
 4540TIP3    H113626   1.918   1.995   2.400  0.1634  1.6966 -1.3306
 4540TIP3    H213627   1.889   1.944   2.260 -1.0023 -0.2607 -0.4184
 4541TIP3   OH213628   5.193   0.343   1.450 -0.8014 -0.0410 -0.4685
 4541TIP3    H113629   5.150   0.268   1.410 -2.6107  1.5169 -1.6309
 4541TIP3    H213630   5.259   0.369   1.386 -0.9965  0.0861 -0.6174
 4542TIP3   OH213631   5.154   1.239   3.796 -0.1245  0.5460  0.1044
 4542TIP3    H113632   5.153   1.145   3.811  0.0664  0.6304  0.6689
 4542TIP3    H213633   5.198   1.249   3.712 -1.6650  0.0298 -0.7988
 4543TIP3   OH213634   0.206   5.221   3.684 -0.2983 -0.1635 -0.1222
 4543TIP3    H113635   0.211   5.174   3.767  1.0942  0.6952  0.2939
 4543TIP3    H213636   0.127   5.274   3.691 -0.7891 -0.9126  0.1972
 4544TIP3   OH213637   6.281   3.344   3.604 -0.2574 -0.4067 -0.1617
 4544TIP3    H113638   6.348   3.376   3.543 -1.1550  0.4566 -0.7202
 4544TIP3    H213639   6.232   3.279   3.555 -2.8560  2.3059 -1.5158
 4545TIP3   OH213640   4.629   3.014   1.079 -0.0536 -0.3759  0.3846
 4545TIP3    H113641   4.626   2.930   1.124 -1.3020 -1.4335 -1.5538
 4545TIP3    H213642   4.542   3.023   1.039  0.5715  1.1036 -0.7410
 4546TIP3   OH213643   1.592   4.219   1.826  0.7333  0.0203  0.1381
 4546TIP3    H113644   1.680   4.181   1.825  0.6737 -0.1358  0.5642
 4546TIP3    H213645   1.557   4.199   1.739  0.7951 -0.6913  0.2706
 4547TIP3   OH213646   1.253   4.427   4.992 -0.0361  0.6110 -0.2973
 4547TIP3    H113647   1.185   4.487   5.021  0.0030  0.5555 -0.0942
 4547TIP3    H213648   1.227   4.342   5.027 -1.9766 -0.2530 -3.3841
 4548TIP3   OH213649   5.648   2.957   2.903 -0.0060  0.1478  0.1193
 4548TIP3    H113650   5.629   2.994   2.817 -0.4730 -3.0045 -1.2539
 4548TIP3    H213651   5.564   2.921   2.933  0.7158 -1.2348  0.5792
 4549TIP3   OH213652   3.820   3.932   2.962  0.1644  0.1649 -1.0431
 4549TIP3    H113653   3.869   4.014   2.976  0.1799 -0.2703  2.0959
 4549TIP3    H213654   3.730   3.955   2.983  0.3029 -0.7531  0.7327
 4550TIP3   OH213655   0.255   1.097   2.485  0.5366 -0.0834 -0.3017
 4550TIP3    H113656   0.333   1.073   2.536  0.5939 -2.7247 -1.4703
 4550TIP3    H213657   0.184   1.046   2.525 -0.3319  1.2001 -0.1596
 4551TIP3   OH213658   4.039   0.395   1.285  0.3130 -0.2774 -0.0079
 4551TIP3    H113659   4.093   0.458   1.238  0.4483  0.3759  0.9948
 4551TIP3    H213660   3.982   0.449   1.341 -2.7037 -0.8120 -2.2952
 4552TIP3   OH213661   2.724   0.520   4.747 -0.2094 -0.3510 -0.3473
 4552TIP3    H113662   2.638   0.497   4.714 -0.1696 -3.0955  1.1109
 4552TIP3    H213663   2.769   0.436   4.757  1.5537  0.7175  1.6896
 4553TIP3   OH213664   2.960   5.185   3.892 -0.1927 -0.2245  0.2380
 4553TIP3    H113665   2.971   5.279   3.907 -0.3906 -0.0364 -0.7160
 4553TIP3    H213666   2.898   5.179   3.819 -1.4148 -1.1339  1.2789
 4554TIP3   OH213667   0.193   4.378   3.512 -0.3613  0.4069 -0.8632
 4554TIP3    H113668   0.142   4.300   3.535 -1.8498  1.0897 -1.6690
 4554TIP3    H213669   0.175   4.392   3.419  1.5818  0.5217 -1.2660
 4555TIP3   OH213670   4.747   1.480   1.613 -0.3180 -0.1582 -0.0640
 4555TIP3    H113671   4.818   1.542   1.597 -0.7371  0.3712  0.0930
 4555TIP3    H213672   4.791   1.398   1.635  0.2551 -0.3122 -1.6687
 4556TIP3   OH213673   2.642   3.703   3.994 -0.0518 -0.4452  0.2760
 4556TIP3    H113674   2.612   3.791   3.969 -0.1114 -0.4246  0.4157
 4556TIP3    H213675   2.599   3.687   4.078  1.3148  0.1219  1.1195
 4557TIP3   OH213676   5.391   4.724   4.309  0.5411 -0.1390 -0.3080
 4557TIP3    H113677   5.376   4.649   4.367 -2.2525  0.7804  0.2764
 4557TIP3    H213678   5.485   4.742   4.318  0.7092 -1.6912  1.8538
 4558TIP3   OH213679   2.250   5.748   0.102  0.3605 -0.1686  0.6920
 4558TIP3    H113680   2.169   5.700   0.119 -0.2720  0.4027 -0.5578
 4558TIP3    H213681   2.224   5.840   0.109 -0.0491  0.1951 -3.1309
 4559TIP3   OH213682   4.640   5.011   0.461 -0.7284 -0.0667 -0.0722
 4559TIP3    H113683   4.553   4.986   0.494  0.3490 -1.1236  2.1306
 4559TIP3    H213684   4.656   4.951   0.389 -0.8883 -1.4775  1.0107
 4560TIP3   OH213685   0.973   4.995   3.038 -0.1651  0.4876 -0.2597
 4560TIP3    H113686   0.989   5.076   2.990  2.2106  0.5191  0.5005
 4560TIP3    H213687   0.974   4.927   2.970  0.2884  0.8244 -0.5937
 4561TIP3   OH213688   3.862   5.825   3.961  0.5642 -0.5077 -0.2051
 4561TIP3    H113689   3.814   5.842   3.881  0.0069 -0.4259  0.1411
 4561TIP3    H213690   3.844   5.734   3.982  2.2427 -1.1169 -1.1816
 4562TIP3   OH213691   2.486   1.924   3.358 -1.0776  0.4297 -0.5247
 4562TIP3    H113692   2.532   2.005   3.383 -0.8029  0.5106 -1.2772
 4562TIP3    H213693   2.553   1.856   3.364 -1.0592  0.4182 -0.8409
 4563TIP3   OH213694   1.556   4.676   0.088  0.2685 -0.3309  0.1961
 4563TIP3    H113695   1.509   4.747   0.132  0.2353  0.6742 -1.3944
 4563TIP3    H213696   1.644   4.710   0.075  0.8795 -1.4079  1.2567
 4564TIP3   OH213697   1.311   3.362   4.843  0.4596  0.2800  0.6224
 4564TIP3    H113698   1.345   3.437   4.892  0.4774  0.4061  0.4196
 4564TIP3    H213699   1.298   3.395   4.754  0.2175  0.1136  0.5939
 4565TIP3   OH213700   5.832   2.818   5.002 -0.0904 -0.3150  0.7206
 4565TIP3    H113701   5.915   2.797   4.959 -0.6727  1.5532 -1.5674
 4565TIP3    H213702   5.770   2.752   4.970 -0.1284  0.0536  0.0138
 4566TIP3   OH213703   2.059   0.370   5.037  0.1392  0.2268 -0.4944
 4566TIP3    H113704   2.069   0.449   4.984  0.5172  0.1667 -0.5146
 4566TIP3    H213705   2.148   0.336   5.047  0.2255  0.8485  1.1302
 4567TIP3   OH213706   1.993   2.082   4.535  0.3279  0.5886  0.5383
 4567TIP3    H113707   1.965   2.019   4.601  1.6309  0.3790  0.9288
 4567TIP3    H213708   2.016   2.161   4.585 -0.9166  1.2559  0.0914
 4568TIP3   OH213709   5.198   3.151   3.654  0.2328  0.6300 -0.0498
 4568TIP3    H113710   5.217   3.105   3.736  1.2745  1.3868  0.1398
 4568TIP3    H213711   5.220   3.088   3.585 -0.2904  0.1298  0.2302
 4569TIP3   OH213712   3.684   3.728   2.506 -0.1346  0.0181  0.2678
 4569TIP3    H113713   3.599   3.685   2.503 -0.2296  0.2231 -0.0872
 4569TIP3    H213714   3.698   3.748   2.599 -0.1771 -0.5896  0.4063
 4570TIP3   OH213715   3.675   2.471   1.001  0.3211  0.0381 -0.8646
 4570TIP3    H113716   3.604   2.535   1.008  0.6121  0.3204 -0.5037
 4570TIP3    H213717   3.675   2.425   1.085 -1.7336 -2.4110 -2.0652
 4571TIP3   OH213718   4.935   0.133   1.992  0.6462  0.0937 -0.1425
 4571TIP3    H113719   4.954   0.213   1.944  2.1837  0.8565  1.6114
 4571TIP3    H213720   4.843   0.141   2.018  1.2818  2.3208  1.7348
 4572TIP3   OH213721   0.130   2.399   2.616 -0.0881 -0.4317  0.0718
 4572TIP3    H113722   0.117   2.349   2.535 -0.2174 -0.1521 -0.0823
 4572TIP3    H213723   0.119   2.335   2.686  0.7307 -0.8236 -0.1521
 4573TIP3   OH213724   3.232   3.575   1.230  0.1450 -0.7534 -1.3376
 4573TIP3    H113725   3.166   3.642   1.210 -1.4720 -2.1440 -0.8941
 4573TIP3    H213726   3.309   3.625   1.257 -1.7729  0.9948  1.4325
 4574TIP3   OH213727   4.222   5.063   2.734  0.6260  0.4311 -0.4821
 4574TIP3    H113728   4.316   5.047   2.735  0.5223 -0.2596 -1.0926
 4574TIP3    H213729   4.202   5.078   2.642  0.2377  1.2198 -0.2777
 4575TIP3   OH213730   2.797   2.326   0.073  0.5280  0.8990 -0.1953
 4575TIP3    H113731   2.849   2.388   0.124  2.3610 -1.1513  0.5770
 4575TIP3    H213732   2.788   2.250   0.130 -1.4791  0.3258 -1.1949
 4576TIP3   OH213733   1.516   0.816   1.898 -0.2634  0.2472  0.0261
 4576TIP3    H113734   1.424   0.793   1.890  0.1135 -0.7923 -1.8410
 4576TIP3    H213735   1.546   0.764   1.973 -1.1149  0.3588  0.4582
 4577TIP3   OH213736   1.632   1.042   1.071  0.1465 -0.6373  0.2693
 4577TIP3    H113737   1.703   1.007   1.124  0.3588 -0.8134 -0.1320
 4577TIP3    H213738   1.665   1.127   1.041 -0.8607  0.5703  2.3166
 4578TIP3   OH213739   5.176   1.947   0.642  0.7400 -0.3801 -0.0986
 4578TIP3    H113740   5.247   1.949   0.706  0.1628  0.9814  0.5428
 4578TIP3    H213741   5.209   1.998   0.568 -0.0192  1.4167  0.7469
 4579TIP3   OH213742   0.185   2.633   0.198  0.0107  0.0139 -0.2480
 4579TIP3    H113743   0.137   2.716   0.206 -2.7826 -1.6343  1.6025
 4579TIP3    H213744   0.136   2.583   0.134 -0.3598 -1.3971  1.0766
 4580TIP3   OH213745   4.196   5.400   0.375  0.0269 -0.0692  0.3013
 4580TIP3    H113746   4.171   5.331   0.436 -0.1793 -1.4177 -1.2452
 4580TIP3    H213747   4.288   5.381   0.355  0.1283  0.4429  0.2787
 4581TIP3   OH213748   0.068   2.291   0.785  0.0249 -0.0641  0.2236
 4581TIP3    H113749   0.076   2.356   0.854  0.2265  0.0421  0.1014
 4581TIP3    H213750   0.087   2.339   0.704 -0.4441 -0.1331  0.0687
 4582TIP3   OH213751   4.128   0.102   3.075  0.2066 -0.1993 -0.4824
 4582TIP3    H113752   4.144   0.074   3.165  0.0817  0.2299 -0.3219
 4582TIP3    H213753   4.075   0.032   3.037  0.1117 -0.3002 -0.1672
 4583TIP3   OH213754   0.208   4.080   0.889  0.1694 -0.1692  0.1559
 4583TIP3    H113755   0.147   4.129   0.835 -0.7151 -0.8865  0.4890
 4583TIP3    H213756   0.294   4.097   0.849 -0.3579  0.0221 -0.9333
 4584TIP3   OH213757   0.382   4.002   5.148  0.1924  0.1713  0.3405
 4584TIP3    H113758   0.451   4.007   5.082  0.1316  1.0844  0.3274
 4584TIP3    H213759   0.353   3.911   5.146  0.5975  0.0497 -0.4710
 4585TIP3   OH213760   0.622   1.185   3.834  0.6270 -0.1830 -0.7940
 4585TIP3    H113761   0.590   1.096   3.816  0.1262  0.1653 -1.6679
 4585TIP3    H213762   0.576   1.240   3.771  1.7216  0.5619 -0.9727
 4586TIP3   OH213763   0.058   3.013   1.735  0.3419 -0.3286 -0.5290
 4586TIP3    H113764   0.033   2.962   1.658 -0.5783 -1.7340  0.6461
 4586TIP3    H213765   0.147   2.982   1.755  0.2681 -0.5615 -0.5532
 4587TIP3   OH213766   1.635   3.618   0.176  0.5099  0.0649 -0.0857
 4587TIP3    H113767   1.725   3.625   0.207  0.8037  1.5055 -1.1730
 4587TIP3    H213768   1.592   3.698   0.206  0.0666  0.1998 -1.0324
 4588TIP3   OH213769   6.363   1.223   0.969 -0.3198  0.4237  0.0384
 4588TIP3    H113770   6.331   1.253   0.884  1.4801  1.7265 -0.2671
 4588TIP3    H213771   6.295   1.249   1.031 -0.6724  1.4815 -0.7559
 4589TIP3   OH213772   0.943   0.709   3.111  0.1858  0.0540 -0.4583
 4589TIP3    H113773   0.858   0.752   3.117  1.1337  1.9519  0.0144
 4589TIP3    H213774   0.927   0.620   3.145 -1.3014  0.8248  1.0267
 4590TIP3   OH213775   2.195   0.015   0.348 -0.1601 -0.2393 -0.0846
 4590TIP3    H113776   2.124   0.054   0.400  0.1073  0.9170 -0.5519
 4590TIP3    H213777   2.230  -0.054   0.404 -0.4815  0.3760  0.9020
 4591TIP3   OH213778   1.258   5.262   2.373 -0.2073 -0.4094  0.4803
 4591TIP3    H113779   1.298   5.280   2.458  0.1192  0.7103  0.1076
 4591TIP3    H213780   1.283   5.172   2.354 -1.0038 -0.9852  1.9511
 4592TIP3   OH213781   1.409   1.287   0.591 -0.0304  0.9051  0.2653
 4592TIP3    H113782   1.330   1.239   0.566  0.1135  0.5380  0.5265
 4592TIP3    H213783   1.426   1.344   0.516  0.2286  0.0127 -0.3737
 4593TIP3   OH213784   0.454   1.348   3.705 -0.0034 -0.9160  0.4596
 4593TIP3    H113785   0.406   1.387   3.778  1.7694 -0.5731  1.4842
 4593TIP3    H213786   0.465   1.420   3.643 -2.3949 -1.4445 -0.6977
 4594TIP3   OH213787   3.228   5.034   4.436 -0.2232 -0.0013  0.3331
 4594TIP3    H113788   3.223   5.091   4.513 -1.2501  1.7808 -0.9673
 4594TIP3    H213789   3.278   5.085   4.372  0.7132 -1.4891 -0.1755
 4595TIP3   OH213790   6.298   1.014   1.281 -0.2140 -0.1286 -0.6001
 4595TIP3    H113791   6.206   0.987   1.279  0.2124 -1.6754 -1.5623
 4595TIP3    H213792   6.335   0.976   1.201  1.3478  0.1693 -0.0476
 4596TIP3   OH213793   1.869   0.638   3.583 -0.4616 -0.3715  0.1929
 4596TIP3    H113794   1.918   0.562   3.613  2.4726  0.5278 -1.9274
 4596TIP3    H213795   1.898   0.709   3.640 -1.5372 -0.3501  0.7493
 4597TIP3   OH213796   3.356   3.286   5.023  0.2324  0.2397  0.3838
 4597TIP3    H113797   3.326   3.197   5.004  1.2270  0.2385 -1.4163
 4597TIP3    H213798   3.417   3.275   5.096  1.9296 -0.9194 -1.1151
 4598TIP3   OH213799   5.024   4.189   2.921 -0.5644  0.3829 -0.4262
 4598TIP3    H113800   4.970   4.111   2.907 -0.3352  0.3470 -1.1394
 4598TIP3    H213801   4.998   4.249   2.852 -0.6247  0.8793  0.0275
 4599TIP3   OH213802   3.429   3.310   0.904  0.7167 -0.0638  0.3933
 4599TIP3    H113803   3.374   3.245   0.860  0.9106  1.6912 -2.7248
 4599TIP3    H213804   3.515   3.268   0.912  0.4331 -0.7565 -0.1116
 4600TIP3   OH213805   5.753   1.112   1.524  0.4803  0.0757  0.1621
 4600TIP3    H113806   5.795   1.104   1.438  0.5406 -0.4728  0.2383
 4600TIP3    H213807   5.673   1.162   1.507  0.7111  0.3522 -0.1365
 4601TIP3   OH213808   5.465   5.092   4.996  0.2827  0.2200 -0.5726
 4601TIP3    H113809   5.482   5.112   4.904 -0.8435 -0.6120 -0.9879
 4601TIP3    H213810   5.421   5.170   5.030 -0.6824 -0.0420 -1.1678
 4602TIP3   OH213811   6.289   5.737   1.660  0.3843 -0.5751  0.5673
 4602TIP3    H113812   6.283   5.656   1.610 -1.4316  0.1799 -0.5420
 4602TIP3    H213813   6.335   5.713   1.740  0.5276 -2.5206 -0.0557
 4603TIP3   OH213814   2.216   4.043   0.805 -0.4153 -0.6916  0.2518
 4603TIP3    H113815   2.145   4.049   0.869 -1.0502 -0.4536 -0.4579
 4603TIP3    H213816   2.231   4.134   0.778  1.4857 -0.4891  1.7870
 4604TIP3   OH213817   3.272   5.672   0.589 -0.0686  0.2616 -0.3910
 4604TIP3    H113818   3.188   5.628   0.599  0.6552 -0.7663  2.2632
 4604TIP3    H213819   3.253   5.764   0.608 -0.9022  0.4401 -1.9297
 4605TIP3   OH213820   5.610   5.262   1.269  0.0738 -0.6750 -0.1488
 4605TIP3    H113821   5.670   5.291   1.201 -0.1925 -0.1525 -0.1616
 4605TIP3    H213822   5.605   5.336   1.330  1.0487 -1.4754  0.9507
 4606TIP3   OH213823   3.693   3.538   0.086  0.0504  0.5272  0.1661
 4606TIP3    H113824   3.730   3.547   0.174 -0.8781  1.4932  0.4761
 4606TIP3    H213825   3.768   3.511   0.031  0.5653 -0.4483  1.2978
 4607TIP3   OH213826   4.332   3.580   0.124 -0.4442  0.3332 -0.4634
 4607TIP3    H113827   4.379   3.500   0.148  0.1691  0.9453  0.4334
 4607TIP3    H213828   4.400   3.648   0.121 -0.8125  0.6699 -2.0940
 4608TIP3   OH213829   5.007   2.490   1.298  0.2098 -0.5635  0.1023
 4608TIP3    H113830   5.100   2.477   1.321  0.6132 -0.1277 -1.1982
 4608TIP3    H213831   4.998   2.449   1.212 -0.8409 -0.6971  0.2742
 4609TIP3   OH213832   0.780   1.004   4.368 -0.1423 -0.1175  0.4970
 4609TIP3    H113833   0.846   1.067   4.396 -0.6897  0.0993  1.3253
 4609TIP3    H213834   0.820   0.959   4.293  0.8167  0.2135  0.8000
 4610TIP3   OH213835   3.115   2.767   4.298 -0.3702 -0.1620 -0.5692
 4610TIP3    H113836   3.081   2.800   4.381 -1.3483 -1.2566 -0.5073
 4610TIP3    H213837   3.037   2.749   4.245  0.1541 -1.2398 -1.0194
 4611TIP3   OH213838   0.159   3.450   4.422  0.0822 -0.0673 -0.7133
 4611TIP3    H113839   0.118   3.535   4.439  0.2454 -0.1849  0.3273
 4611TIP3    H213840   0.251   3.463   4.448  0.1281 -0.5232 -0.6492
 4612TIP3   OH213841   5.038   2.366   3.562 -0.1220 -0.4701 -0.1418
 4612TIP3    H113842   5.027   2.332   3.473  0.4813 -1.1550  0.0422
 4612TIP3    H213843   5.027   2.290   3.619  0.8838 -0.3042  0.2872
 4613TIP3   OH213844   5.143   4.985   3.220  0.2226 -0.0084 -0.0223
 4613TIP3    H113845   5.194   5.052   3.266 -2.2915  2.1723 -0.1271
 4613TIP3    H213846   5.139   4.912   3.281  1.6771  0.5710  0.8223
 4614TIP3   OH213847   1.550   3.368   4.312  0.1479  0.4781 -0.2945
 4614TIP3    H113848   1.464   3.407   4.293 -0.3870  0.0116  1.0134
 4614TIP3    H213849   1.605   3.441   4.336 -0.2388  0.6625  0.0456
 4615TIP3   OH213850   3.024   4.694   2.794  0.5047 -0.1699 -0.4023
 4615TIP3    H113851   3.014   4.789   2.783 -1.5694 -0.2950 -0.1001
 4615TIP3    H213852   2.990   4.677   2.882 -0.0641 -1.3024 -0.8165
 4616TIP3   OH213853   2.585   3.676   4.907 -0.7616  0.0730  0.0388
 4616TIP3    H113854   2.625   3.660   4.822 -0.6877  1.4145 -0.2004
 4616TIP3    H213855   2.640   3.629   4.969  0.3607  0.6982 -0.4485
 4617TIP3   OH213856   4.664   4.737   3.446 -0.4070 -0.0445  0.1129
 4617TIP3    H113857   4.713   4.790   3.384 -3.1945  2.1564 -0.4088
 4617TIP3    H213858   4.629   4.664   3.394 -2.8600  1.8731 -1.1511
 4618TIP3   OH213859   3.628   4.380   0.528 -0.0014 -0.6490 -0.0310
 4618TIP3    H113860   3.620   4.453   0.588 -0.5638  1.2937 -2.3153
 4618TIP3    H213861   3.656   4.307   0.583  0.2619  1.1591  2.4140
 4619TIP3   OH213862   2.487   1.418   3.826 -0.0641  0.6315  0.1833
 4619TIP3    H113863   2.397   1.428   3.796 -1.1170  0.9165  3.1071
 4619TIP3    H213864   2.519   1.508   3.836  1.0425  0.5524 -1.8951
 4620TIP3   OH213865   2.160   2.862   1.300 -0.4126  0.7602 -0.0351
 4620TIP3    H113866   2.112   2.841   1.380 -1.0113  1.3539 -0.2332
 4620TIP3    H213867   2.182   2.777   1.262 -0.8853  0.4824  0.3082
 4621TIP3   OH213868   2.437   1.571   3.031  0.4645 -0.3841 -1.2355
 4621TIP3    H113869   2.428   1.658   3.070 -1.0193 -1.3732  0.8844
 4621TIP3    H213870   2.382   1.573   2.953 -1.4387 -0.0057  0.0330
 4622TIP3   OH213871   4.578   0.716   5.174 -0.3296  0.0788 -0.6588
 4622TIP3    H113872   4.636   0.690   5.102 -1.0077  0.7468 -1.4804
 4622TIP3    H213873   4.514   0.645   5.180  0.8681 -0.9466  0.6406
 4623TIP3   OH213874   3.198   5.803   3.279 -0.1352  0.6075  0.2681
 4623TIP3    H113875   3.111   5.824   3.314 -0.6057  1.7261 -1.4708
 4623TIP3    H213876   3.238   5.888   3.261 -0.3456  0.1565 -2.8283
 4624TIP3   OH213877   5.626   4.875   2.490 -0.3167 -0.1121  0.2425
 4624TIP3    H113878   5.625   4.800   2.430 -0.4404 -0.3673  0.5579
 4624TIP3    H213879   5.534   4.890   2.511 -0.2724 -0.0386  0.3847
 4625TIP3   OH213880   5.688   4.770   4.326  0.1752  0.0982 -0.1596
 4625TIP3    H113881   5.731   4.803   4.248 -0.8288 -3.5920 -2.5188
 4625TIP3    H213882   5.755   4.718   4.371  0.2223  0.6675  0.4556
 4626TIP3   OH213883   0.087   3.764   2.723 -0.1168  0.4143  0.1031
 4626TIP3    H113884   0.044   3.803   2.799 -0.9449  0.1862 -0.2268
 4626TIP3    H213885   0.019   3.708   2.684  0.3968  0.2766 -0.6135
 4627TIP3   OH213886   3.683   3.437   0.731  0.7404 -0.3432 -0.3816
 4627TIP3    H113887   3.739   3.436   0.809  0.5299  0.4846 -0.2104
 4627TIP3    H213888   3.665   3.530   0.716 -1.2464 -0.6241  0.0398
 4628TIP3   OH213889   3.374   1.910   1.261  0.2041 -0.0846  0.0758
 4628TIP3    H113890   3.305   1.976   1.251  2.0537  2.4429  2.4223
 4628TIP3    H213891   3.426   1.918   1.181 -0.2721  0.4882 -0.1821
 4629TIP3   OH213892   5.949   0.497   1.672  0.0951 -0.6340 -0.0590
 4629TIP3    H113893   6.020   0.546   1.714  0.6534 -0.6008 -1.0285
 4629TIP3    H213894   5.989   0.414   1.646 -0.6642 -1.3303  0.9117
 4630TIP3   OH213895   0.181   3.602   3.934  0.2423  0.4930 -0.0644
 4630TIP3    H113896   0.146   3.538   3.996  0.8928 -1.5874 -1.7197
 4630TIP3    H213897   0.272   3.614   3.961 -0.1024  1.4336  0.7539
 4631TIP3   OH213898   4.913   0.387   3.680  0.1493 -0.1717  0.1855
 4631TIP3    H113899   4.965   0.418   3.606 -0.9206 -0.6659 -0.8074
 4631TIP3    H213900   4.897   0.466   3.733 -1.4097  0.7940 -1.5958
 4632TIP3   OH213901   4.858   2.979   3.892 -0.0723  0.2389 -0.1710
 4632TIP3    H113902   4.884   3.042   3.825 -0.1587 -1.5198 -1.9107
 4632TIP3    H213903   4.811   3.032   3.957 -0.6379  1.8925 -1.8449
 4633TIP3   OH213904   5.882   4.569   1.538  0.0101  0.4375  0.3051
 4633TIP3    H113905   5.947   4.582   1.470  1.0481  2.7029  1.5954
 4633TIP3    H213906   5.800   4.600   1.500 -0.0076 -0.8371 -0.7573
 4634TIP3   OH213907   5.316   1.036   0.441 -0.3047  0.1914  0.3225
 4634TIP3    H113908   5.258   1.029   0.517  0.5607  0.9399  1.0781
 4634TIP3    H213909   5.378   1.105   0.465 -0.9240  1.5173 -1.6753
 4635TIP3   OH213910   5.597   3.471   0.938 -0.3800  0.2144 -0.0528
 4635TIP3    H113911   5.691   3.461   0.922 -0.5794  0.1920 -1.2559
 4635TIP3    H213912   5.559   3.487   0.852 -1.2845  1.9157  0.6164
 4636TIP3   OH213913   5.612   3.662   1.146  0.1626 -0.3635  0.2309
 4636TIP3    H113914   5.682   3.635   1.205  0.7210  1.6136  0.5379
 4636TIP3    H213915   5.601   3.588   1.086 -0.5625 -2.5388  2.8717
 4637TIP3   OH213916   2.882   5.563   2.151  0.3502  0.0097  0.0029
 4637TIP3    H113917   2.935   5.496   2.195 -0.3693  0.8008  2.2587
 4637TIP3    H213918   2.939   5.597   2.082  2.4758  0.1401  1.6829
 4638TIP3   OH213919   4.127  -0.017   2.661  0.3061  0.5876 -0.0206
 4638TIP3    H113920   4.121   0.073   2.693  1.3315  0.0955  1.6936
 4638TIP3    H213921   4.202  -0.053   2.707 -0.8472 -1.5342  0.3069
 4639TIP3   OH213922   1.540   5.880   3.529 -0.5674 -0.1520  0.1094
 4639TIP3    H113923   1.478   5.884   3.602  1.7421 -1.6822  2.3206
 4639TIP3    H213924   1.485   5.890   3.451 -3.5749 -1.3076  1.8863
 4640TIP3   OH213925   5.159   3.628   1.011  0.1199 -0.3338  0.2158
 4640TIP3    H113926   5.112   3.645   0.930  1.4721  0.2188 -0.4870
 4640TIP3    H213927   5.241   3.677   1.002  0.6917 -0.9914  1.5295
 4641TIP3   OH213928   3.297   5.671   4.094 -0.2795 -0.8813 -0.2372
 4641TIP3    H113929   3.273   5.585   4.130 -1.2987 -0.3742  0.3424
 4641TIP3    H213930   3.244   5.733   4.145 -0.2391  0.0153 -1.2727
 4642TIP3   OH213931   5.966   1.800   0.004 -0.3355  0.3199 -0.1217
 4642TIP3    H113932   5.924   1.806   0.090 -0.7843 -1.3158 -0.1886
 4642TIP3    H213933   6.060   1.800   0.024 -0.4390 -0.4216  0.4153
 4643TIP3   OH213934   1.951   4.547   2.744  0.1226  0.2449 -0.4416
 4643TIP3    H113935   1.910   4.486   2.805  2.1706 -0.1286  0.6447
 4643TIP3    H213936   1.907   4.529   2.660  0.0185 -2.0934  0.0267
 4644TIP3   OH213937   5.160   5.828   3.410  0.2283  0.5532  0.1211
 4644TIP3    H113938   5.150   5.851   3.503  2.3440 -0.3794  0.6410
 4644TIP3    H213939   5.114   5.745   3.400 -0.0298  0.6709  0.3196
 4645TIP3   OH213940   5.060   1.407   0.917 -0.3418 -0.2917  0.2031
 4645TIP3    H113941   5.109   1.469   0.862 -0.3815 -0.1291  0.3520
 4645TIP3    H213942   5.113   1.396   0.995 -1.7982  1.9883  1.6132
 4646TIP3   OH213943   4.694   1.631   1.944 -0.1571  0.2497  0.4123
 4646TIP3    H113944   4.695   1.656   2.037 -0.3507 -0.6676  0.6689
 4646TIP3    H213945   4.605   1.648   1.915 -0.0140  0.8287  0.3133
 4647TIP3   OH213946   0.220   1.063   1.946  0.1838  0.3130  0.4990
 4647TIP3    H113947   0.204   1.073   2.040 -1.7383  1.4373  0.1045
 4647TIP3    H213948   0.147   1.108   1.905  1.6892  0.9760 -1.5700
 4648TIP3   OH213949   0.538   3.143   1.996 -0.6281  0.0040 -0.6295
 4648TIP3    H113950   0.626   3.108   1.981 -0.4082 -0.4842  1.5189
 4648TIP3    H213951   0.491   3.072   2.039 -0.6038  1.7307  2.5591
 4649TIP3   OH213952   2.220   1.602   0.175  0.3390 -0.1397  0.5311
 4649TIP3    H113953   2.189   1.566   0.257  0.1013 -0.1323  0.4457
 4649TIP3    H213954   2.153   1.579   0.111  0.3631  0.1329  0.4034
 4650TIP3   OH213955   3.904   5.133   3.984 -0.7758 -0.6887 -0.6029
 4650TIP3    H113956   3.885   5.170   4.070  2.3762 -0.0980 -0.0226
 4650TIP3    H213957   3.959   5.057   4.002 -0.0139 -0.5242 -2.0901
 4651TIP3   OH213958   0.206   5.624   2.203  0.3249 -0.1014  0.0659
 4651TIP3    H113959   0.203   5.712   2.166 -0.1245 -0.0662  0.1826
 4651TIP3    H213960   0.267   5.632   2.277  1.2918 -0.1955 -0.7041
 4652TIP3   OH213961   4.330   3.265   4.086  0.2340 -0.0729  0.0251
 4652TIP3    H113962   4.364   3.186   4.128  1.9040  0.3535 -0.4227
 4652TIP3    H213963   4.235   3.254   4.086  0.4331 -2.2335 -0.3373
 4653TIP3   OH213964   5.817   1.121   4.539  0.0121 -0.2611 -0.5693
 4653TIP3    H113965   5.738   1.070   4.520  0.1476  0.1275 -2.3069
 4653TIP3    H213966   5.789   1.212   4.532  0.1786 -0.0790  0.7918
 4654TIP3   OH213967   0.065   4.477   0.923  0.0179 -0.1811 -0.6331
 4654TIP3    H113968   0.096   4.546   0.982  0.4120 -0.8371 -0.0482
 4654TIP3    H213969   0.144   4.450   0.876  0.5301 -2.1915  1.1988
 4655TIP3   OH213970   5.108   4.004   3.845  0.5136  0.3651 -0.1240
 4655TIP3    H113971   5.044   4.035   3.781  1.1044 -0.9213 -1.4034
 4655TIP3    H213972   5.079   4.041   3.928 -1.1998  0.7873 -0.8652
 4656TIP3   OH213973   1.811   3.781   0.992 -0.0049  0.4402 -0.1248
 4656TIP3    H113974   1.749   3.848   0.964  1.0431  1.5831  0.1742
 4656TIP3    H213975   1.889   3.831   1.018  0.9137 -0.9247 -0.1778
 4657TIP3   OH213976   4.986   2.939   3.333  0.1266 -0.2128 -0.4167
 4657TIP3    H113977   4.911   2.980   3.377 -0.5740 -0.6809 -1.1590
 4657TIP3    H213978   4.970   2.953   3.240  1.0558 -0.1705 -0.5765
 4658TIP3   OH213979   5.351   3.406   4.606 -0.0188 -0.0368 -0.5541
 4658TIP3    H113980   5.424   3.352   4.637 -0.2026  0.2510  0.4130
 4658TIP3    H213981   5.304   3.431   4.686 -0.5763  0.6398 -1.0800
 4659TIP3   OH213982   6.236   1.766   4.776  0.5244 -0.0957 -0.1296
 4659TIP3    H113983   6.330   1.781   4.783  0.4896 -0.0321  0.2202
 4659TIP3    H213984   6.227   1.670   4.774  0.5472 -0.1296  0.6914
 4660TIP3   OH213985   3.012   0.762   1.848  0.0345 -0.5343 -0.3776
 4660TIP3    H113986   2.999   0.823   1.920 -1.5309  0.2012 -1.2162
 4660TIP3    H213987   2.998   0.675   1.886 -1.1795 -0.1280  0.1326
 4661TIP3   OH213988   0.041   1.866   2.024 -0.1497  0.1378  0.2083
 4661TIP3    H113989   0.114   1.805   2.024  0.0503  0.3466  1.5438
 4661TIP3    H213990  -0.029   1.820   2.070  0.1328  1.0084  1.6074
 4662TIP3   OH213991   4.216   4.168   4.926  0.1667  0.3997 -0.4231
 4662TIP3    H113992   4.299   4.168   4.974  1.9401 -0.8281 -3.2118
 4662TIP3    H213993   4.211   4.255   4.887  0.8887  0.0391 -1.3537
 4663TIP3   OH213994   4.485   1.650   0.662  0.0947  0.1583 -0.5498
 4663TIP3    H113995   4.491   1.713   0.734 -0.6477  2.5752 -2.4610
 4663TIP3    H213996   4.571   1.653   0.620  0.3945 -0.9376 -0.0591
 4664TIP3   OH213997   5.577   3.630   1.861 -0.1544 -0.8055 -0.0307
 4664TIP3    H113998   5.578   3.611   1.954  0.2556 -1.7261 -0.2065
 4664TIP3    H213999   5.659   3.594   1.828 -0.4995 -0.9109 -0.8176
 4665TIP3   OH214000   6.132   1.581   0.827 -0.1245  0.5185 -0.0072
 4665TIP3    H114001   6.185   1.502   0.817 -0.8326  0.1673 -1.3171
 4665TIP3    H214002   6.195   1.653   0.823  0.5283  0.0415  1.2085
 4666TIP3   OH214003   4.579   0.229   0.060  0.1574  0.3092 -0.5330
 4666TIP3    H114004   4.666   0.251   0.094  0.1523  2.6435 -1.8128
 4666TIP3    H214005   4.595   0.163  -0.007  0.9429  0.6817 -0.7201
 4667TIP3   OH214006   2.313   1.085   2.624  0.3278 -0.3788 -0.2437
 4667TIP3    H114007   2.374   1.096   2.551  0.6933  0.9967  0.2448
 4667TIP3    H214008   2.357   1.023   2.682  0.9423  0.0354 -0.2494
 4668TIP3   OH214009   1.138   3.254   0.576  0.1382 -0.3591 -0.1197
 4668TIP3    H114010   1.049   3.224   0.597  0.5102 -0.6761  1.0423
 4668TIP3    H214011   1.125   3.339   0.534 -0.7241 -0.4462 -0.0539
 4669TIP3   OH214012   5.669   2.916   0.059 -0.6508 -0.3304 -0.3209
 4669TIP3    H114013   5.700   2.870   0.136 -0.8107  0.5235  0.2727
 4669TIP3    H214014   5.573   2.911   0.064 -0.6755 -1.8441 -1.4587
 4670TIP3   OH214015   1.316   3.279   0.263 -0.2761  0.0757 -0.2909
 4670TIP3    H114016   1.282   3.190   0.251 -0.5006  0.1984 -0.5848
 4670TIP3    H214017   1.327   3.312   0.174 -0.6076  0.4967 -0.1787
 4671TIP3   OH214018   2.693   2.514   0.848  0.5543 -0.3212  0.0437
 4671TIP3    H114019   2.703   2.439   0.907  0.7793 -1.1126 -0.9866
 4671TIP3    H214020   2.761   2.503   0.783 -0.2351  0.0609 -0.8687
 4672TIP3   OH214021   4.465   3.398   0.994  0.4723  0.1329 -0.4343
 4672TIP3    H114022   4.490   3.409   0.902  1.1644  1.5273 -0.1041
 4672TIP3    H214023   4.376   3.362   0.990  0.4309  0.3172 -1.6494
 4673TIP3   OH214024   0.277   3.767   3.284 -0.4859  0.3004 -0.1890
 4673TIP3    H114025   0.337   3.695   3.263 -0.4960  0.5239 -1.0029
 4673TIP3    H214026   0.335   3.838   3.314 -0.4283  0.1692  0.0130
 4674TIP3   OH214027   1.423   4.162   0.514 -0.8571  0.4667  0.3463
 4674TIP3    H114028   1.458   4.083   0.556 -0.6144 -0.2775 -1.1918
 4674TIP3    H214029   1.328   4.151   0.517 -0.8209 -0.0246 -0.0744
 4675TIP3   OH214030   4.772   1.084   0.259 -0.3369  0.0940 -0.4974
 4675TIP3    H114031   4.789   1.093   0.352  0.5588 -1.5339 -0.4746
 4675TIP3    H214032   4.680   1.057   0.254 -0.4264  0.3145 -0.1110
 4676TIP3   OH214033   1.208   3.643   3.874 -0.5077  0.1109  0.2918
 4676TIP3    H114034   1.244   3.717   3.924  0.4462 -0.1616  0.0339
 4676TIP3    H214035   1.136   3.681   3.823 -0.7385  0.6296  0.9879
 4677TIP3   OH214036   2.487   5.154   0.608 -0.2778 -0.0607  0.2110
 4677TIP3    H114037   2.526   5.220   0.666 -2.9518  1.0157  0.9436
 4677TIP3    H214038   2.395   5.153   0.632 -0.8212 -2.2128 -1.6298
 4678TIP3   OH214039   2.855   0.562   1.580 -0.7512 -0.3253  0.3328
 4678TIP3    H114040   2.845   0.557   1.675  0.7129 -1.6437  0.4673
 4678TIP3    H214041   2.841   0.472   1.550 -0.0549 -0.1466 -0.5578
 4679TIP3   OH214042   4.472   1.736   3.587  0.2196  0.5136 -0.3378
 4679TIP3    H114043   4.403   1.801   3.576  1.2816  1.3134 -3.3688
 4679TIP3    H214044   4.452   1.668   3.522  1.9384  0.5080 -0.9130
 4680TIP3   OH214045   5.128   2.306   3.006  0.1169 -0.1539  0.0851
 4680TIP3    H114046   5.066   2.274   2.939  1.2060 -1.5464 -0.3108
 4680TIP3    H214047   5.213   2.273   2.977  0.9245  0.9947  1.0803
 4681TIP3   OH214048   0.443   0.987   0.845 -0.2526 -0.2284  0.2113
 4681TIP3    H114049   0.353   0.976   0.877 -0.2431  2.0237  1.1726
 4681TIP3    H214050   0.450   1.080   0.825  0.8096 -0.9562 -3.3376
 4682TIP3   OH214051   3.742   0.184   1.003  0.1427  0.1658  0.0687
 4682TIP3    H114052   3.728   0.190   1.098  1.7759 -0.8181  0.4188
 4682TIP3    H214053   3.716   0.270   0.970  0.5751  0.9123  1.5709
 4683TIP3   OH214054   2.884   0.860   2.546  0.0188 -0.0740 -0.3493
 4683TIP3    H114055   2.949   0.899   2.605  0.6916 -0.0933 -1.0619
 4683TIP3    H214056   2.849   0.786   2.596 -0.4745  0.7628  0.5791
 4684TIP3   OH214057   4.906   4.399   0.757  0.1036  0.0033  0.3287
 4684TIP3    H114058   4.996   4.377   0.736 -0.3525 -0.3230 -1.4874
 4684TIP3    H214059   4.854   4.331   0.714 -1.0097  0.2546  1.2345
 4685TIP3   OH214060   2.822   3.563   1.820  0.1661  0.0264 -0.3417
 4685TIP3    H114061   2.883   3.586   1.890  0.5156 -1.1261 -0.2344
 4685TIP3    H214062   2.737   3.594   1.850  0.4667  0.3706  0.1654
 4686TIP3   OH214063   0.966   1.564   1.581  0.0351 -0.0813  0.0734
 4686TIP3    H114064   0.905   1.493   1.560  1.0606 -0.9529 -0.0151
 4686TIP3    H214065   0.999   1.542   1.668  0.2931  0.3494  0.0872
 4687TIP3   OH214066   1.235   0.133   0.137  0.0493 -0.0583  0.1594
 4687TIP3    H114067   1.160   0.165   0.188  0.3822  2.1504 -0.6242
 4687TIP3    H214068   1.197   0.081   0.066 -0.5822 -0.6399  0.9080
 4688TIP3   OH214069   1.828   2.922   4.397 -0.3912  0.1947  0.0083
 4688TIP3    H114070   1.847   2.891   4.486  0.0687  0.1459 -0.1048
 4688TIP3    H214071   1.869   3.009   4.393  1.9102 -0.8496 -0.9980
 4689TIP3   OH214072   1.385   2.043   2.292  0.0931 -0.3270  0.0228
 4689TIP3    H114073   1.408   2.006   2.377  0.6826 -0.8402 -0.3518
 4689TIP3    H214074   1.386   2.138   2.307 -0.7533 -0.4331  0.8160
 4690TIP3   OH214075   3.350   4.078   4.558  0.1260  0.0872  0.6690
 4690TIP3    H114076   3.275   4.064   4.500 -0.4408 -0.8591  1.6013
 4690TIP3    H214077   3.314   4.129   4.631  0.3867 -0.3731  1.1234
 4691TIP3   OH214078   5.855   4.849   2.641  0.7272  0.1999 -0.6345
 4691TIP3    H114079   5.782   4.867   2.581 -0.4867 -2.8064 -0.2152
 4691TIP3    H214080   5.823   4.877   2.727  0.4332 -0.2762 -0.5897
 4692TIP3   OH214081   2.586   3.319   0.874 -0.1317  0.3861  0.8248
 4692TIP3    H114082   2.512   3.346   0.930  0.9114 -0.2174  2.5907
 4692TIP3    H214083   2.619   3.239   0.916 -0.5970 -1.3685 -1.9264
 4693TIP3   OH214084   2.827   3.292   2.719  0.2906 -0.1479 -0.4103
 4693TIP3    H114085   2.895   3.263   2.779 -0.3672  0.6212  0.7609
 4693TIP3    H214086   2.865   3.367   2.674 -0.2990  1.3166  1.4279
 4694TIP3   OH214087   5.620   0.784   1.761 -0.1344  0.4209  0.3853
 4694TIP3    H114088   5.641   0.693   1.784  1.5952 -0.1546 -2.8254
 4694TIP3    H214089   5.706   0.827   1.755 -0.8424  1.9060  0.5035
 4695TIP3   OH214090   2.100   5.008   1.910  0.0570  0.0452 -0.2812
 4695TIP3    H114091   2.177   4.951   1.913 -1.0687 -1.6783 -1.6622
 4695TIP3    H214092   2.069   5.011   2.001  0.0851 -1.7244 -0.1638
 4696TIP3   OH214093   1.240   2.237  -0.002  0.5291 -0.2869  0.3598
 4696TIP3    H114094   1.322   2.281  -0.025 -0.1788  0.5793 -0.5629
 4696TIP3    H214095   1.214   2.278   0.081  1.2272 -0.8489  0.8635
 4697TIP3   OH214096   2.625   2.632   3.836  0.0660 -0.3193 -0.0698
 4697TIP3    H114097   2.547   2.645   3.890  0.0054  2.0048 -0.6425
 4697TIP3    H214098   2.601   2.560   3.777 -1.7606  0.5126 -0.4133
 4698TIP3   OH214099   2.766   0.852   0.301 -0.1017 -0.1811  0.5690
 4698TIP3    H114100   2.697   0.895   0.352 -1.4162  1.2449 -2.1471
 4698TIP3    H214101   2.724   0.775   0.265 -0.0515  0.2440 -0.4315
 4699TIP3   OH214102   6.256   1.282   3.924  0.2413 -1.0145  0.2101
 4699TIP3    H114103   6.347   1.278   3.896  0.1423 -2.3571  0.0124
 4699TIP3    H214104   6.248   1.215   3.992 -0.5682 -0.8532  0.2870
 4700TIP3   OH214105   3.341   3.602   5.151 -0.3124 -0.7363 -0.5146
 4700TIP3    H114106   3.277   3.559   5.209 -0.8883 -0.3927 -0.8862
 4700TIP3    H214107   3.425   3.566   5.178 -0.7147 -1.6002 -0.3689
 4701TIP3   OH214108   2.987   2.256   3.680 -0.2274 -0.1097 -0.3094
 4701TIP3    H114109   3.043   2.253   3.602  1.0732 -1.7932  0.6211
 4701TIP3    H214110   2.990   2.348   3.707 -0.8062  0.5372 -2.2678
 4702TIP3   OH214111   3.250   1.415   2.528  0.0734 -0.1109 -0.5259
 4702TIP3    H114112   3.233   1.487   2.468 -0.6590 -0.3979 -0.6703
 4702TIP3    H214113   3.213   1.444   2.612 -0.5039 -0.4468 -0.6634
 4703TIP3   OH214114   5.376   0.218   5.065  0.0337 -0.9176 -0.1598
 4703TIP3    H114115   5.401   0.160   4.993  1.6157 -0.5478  0.0543
 4703TIP3    H214116   5.458   0.254   5.096 -0.5605 -1.4719  2.2115
 4704TIP3   OH214117   0.930   4.384   2.995 -0.0900 -0.4259 -0.0976
 4704TIP3    H114118   0.857   4.383   2.933  0.6338  0.2596 -0.9888
 4704TIP3    H214119   0.932   4.474   3.029 -1.7532 -1.2914  2.5195
 4705TIP3   OH214120   3.825   0.786   3.854  0.8978 -0.5233 -0.1112
 4705TIP3    H114121   3.730   0.772   3.846  1.2642 -2.3721 -2.3083
 4705TIP3    H214122   3.840   0.792   3.949 -1.3616 -0.3463  0.3062
 4706TIP3   OH214123   0.679   2.583   1.364  0.0006 -0.2019  0.2884
 4706TIP3    H114124   0.726   2.604   1.445  0.3822 -1.0322  0.2945
 4706TIP3    H214125   0.621   2.657   1.350 -0.8353 -0.5039  1.8969
 4707TIP3   OH214126   2.008   1.710   1.299 -0.0510  0.1084 -0.1639
 4707TIP3    H114127   2.055   1.626   1.305 -1.0236 -0.6918 -2.5899
 4707TIP3    H214128   1.921   1.691   1.332  0.6346  1.0955  2.4463
 4708TIP3   OH214129   5.298   5.290   5.075  0.0641 -0.0221  0.2370
 4708TIP3    H114130   5.217   5.280   5.024 -1.2577 -1.1375  2.3797
 4708TIP3    H214131   5.294   5.379   5.108  0.7201  0.5679 -1.2296
 4709TIP3   OH214132   3.538   2.424   0.317  0.1706 -0.0641 -0.0675
 4709TIP3    H114133   3.576   2.469   0.241 -1.4300  2.9907  0.7882
 4709TIP3    H214134   3.458   2.384   0.284 -0.1478  0.6412 -0.1637
 4710TIP3   OH214135   0.540   0.873   1.072 -0.0085 -0.5702 -0.1069
 4710TIP3    H114136   0.541   0.877   0.976 -1.2879  1.6098 -0.0952
 4710TIP3    H214137   0.447   0.865   1.095 -0.0024  1.5371  0.9300
 4711TIP3   OH214138   2.828   4.473   4.388 -0.2881  0.3645 -0.8394
 4711TIP3    H114139   2.782   4.440   4.311 -0.4850 -0.8435 -0.2337
 4711TIP3    H214140   2.921   4.458   4.370 -0.3645 -0.3397 -0.6538
 4712TIP3   OH214141   2.541   3.155   0.361  0.0081  0.2629 -0.1247
 4712TIP3    H114142   2.471   3.203   0.406  0.6661  1.1686 -0.0296
 4712TIP3    H214143   2.505   3.135   0.275  0.0289  1.7725 -0.5141
 4713TIP3   OH214144   3.609   5.339   2.021  0.2566  0.2484 -0.2531
 4713TIP3    H114145   3.654   5.379   2.094  0.9266 -0.5868 -0.1875
 4713TIP3    H214146   3.524   5.383   2.017  0.5956  0.9733  0.4046
 4714TIP3   OH214147   1.683   5.332   2.980  0.6045 -0.6757  0.2515
 4714TIP3    H114148   1.717   5.245   3.001  1.5143 -0.7202 -1.2659
 4714TIP3    H214149   1.752   5.392   3.010  1.3176 -0.6685 -1.3241
 4715TIP3   OH214150   2.167   3.299   2.368 -0.9463 -0.2771 -0.2117
 4715TIP3    H114151   2.208   3.251   2.440 -0.7191 -2.6126 -1.7691
 4715TIP3    H214152   2.219   3.378   2.359 -0.3387 -0.4411  1.4815
 4716TIP3   OH214153   2.059   4.171   4.291 -0.6710  0.4514  0.3719
 4716TIP3    H114154   1.975   4.152   4.334 -1.1495 -1.2430 -1.1829
 4716TIP3    H214155   2.056   4.119   4.210  1.2116  1.6235 -0.5001
 4717TIP3   OH214156   2.296   4.792   1.349  0.1768 -0.1257  0.4862
 4717TIP3    H114157   2.319   4.763   1.260 -1.5280 -1.2323  0.3757
 4717TIP3    H214158   2.249   4.874   1.336 -0.0118 -0.2521  0.3722
 4718TIP3   OH214159   2.330   3.750   4.851 -0.0173 -0.4447 -0.1336
 4718TIP3    H114160   2.417   3.730   4.885 -0.9849 -0.5176  2.4910
 4718TIP3    H214161   2.345   3.814   4.781  2.1403 -0.6294  0.1241
 4719TIP3   OH214162   2.347   5.483   3.590 -0.7118  0.2744 -0.6033
 4719TIP3    H114163   2.297   5.564   3.596  0.8297  1.1532  1.5250
 4719TIP3    H214164   2.432   5.504   3.630  0.0630 -2.1364 -0.8264
 4720TIP3   OH214165   1.107   2.518   3.596  0.1034 -0.0887  0.3697
 4720TIP3    H114166   1.051   2.440   3.592 -1.9297  0.9936 -6.7962
 4720TIP3    H214167   1.047   2.590   3.615  0.1419  0.4789 -1.4974
 4721TIP3   OH214168   0.664   3.410   4.025  0.3227  0.2050 -0.0372
 4721TIP3    H114169   0.683   3.428   4.117 -0.3347 -1.4088  0.4510
 4721TIP3    H214170   0.619   3.326   4.026  1.2616 -0.3802 -1.9298
 4722TIP3   OH214171   2.782   2.287   3.309  0.3151 -0.0950 -0.0959
 4722TIP3    H114172   2.737   2.211   3.347  1.7701 -0.1574  1.6581
 4722TIP3    H214173   2.712   2.336   3.266 -1.3670 -0.5014  1.9681
 4723TIP3   OH214174   2.480   3.793   2.531 -0.3752  0.8234 -0.0083
 4723TIP3    H114175   2.553   3.838   2.488  0.8085  0.0686  1.1327
 4723TIP3    H214176   2.519   3.714   2.568 -1.9030  0.1234  0.1475
 4724TIP3   OH214177   3.882   0.061   2.129 -0.1826 -0.3325 -0.0624
 4724TIP3    H114178   3.860  -0.024   2.167 -0.7033 -0.0857  0.1908
 4724TIP3    H214179   3.829   0.124   2.177  1.7526  0.4232  1.2282
 4725TIP3   OH214180   2.926   3.427   4.566  0.5194 -0.4646 -0.4124
 4725TIP3    H114181   2.939   3.428   4.471 -0.6657 -1.6226 -0.6013
 4725TIP3    H214182   2.837   3.459   4.579 -0.0234 -2.1174  0.1617
 4726TIP3   OH214183   4.701   0.335   3.310 -0.1989  0.2101  0.5418
 4726TIP3    H114184   4.785   0.312   3.271 -1.1459 -1.0956 -0.8596
 4726TIP3    H214185   4.655   0.251   3.320 -1.6563  0.9584  0.4490
 4727TIP3   OH214186   1.791   2.969   4.869  0.0326  0.6415 -0.0085
 4727TIP3    H114187   1.741   3.049   4.888 -1.6109 -0.3392 -0.0138
 4727TIP3    H214188   1.814   2.977   4.776 -0.0185  1.1530  0.0170
 4728TIP3   OH214189   4.624   1.111   3.577  0.6433  0.5725 -0.4910
 4728TIP3    H114190   4.704   1.088   3.531 -0.2023 -0.8281 -1.3546
 4728TIP3    H214191   4.607   1.037   3.636  1.7459  2.3501  2.2778
 4729TIP3   OH214192   6.375   0.468   3.977 -0.7307  0.4388 -0.0164
 4729TIP3    H114193   6.313   0.467   3.904 -0.0290  0.7197 -0.6346
 4729TIP3    H214194   6.322   0.488   4.054 -1.3030  1.3993 -0.6359
 4730TIP3   OH214195   0.598   4.149   1.438 -0.0193  0.8407  0.0206
 4730TIP3    H114196   0.555   4.235   1.439  0.5693  1.1625 -0.9333
 4730TIP3    H214197   0.666   4.156   1.504 -1.3345  0.3536  1.4949
 4731TIP3   OH214198   4.920   2.393   0.112  0.2441  0.3989 -0.5383
 4731TIP3    H114199   4.932   2.485   0.085  0.6040  0.0766 -1.5319
 4731TIP3    H214200   4.965   2.387   0.195  1.3138  0.8303 -1.0680
 4732TIP3   OH214201   5.194   0.279   3.885  0.6295 -0.0349 -0.1585
 4732TIP3    H114202   5.103   0.281   3.858  0.5389  0.4551  0.1827
 4732TIP3    H214203   5.242   0.319   3.812  0.6062 -0.5344 -0.4536
 4733TIP3   OH214204   0.407   1.426   4.717  0.2327 -0.0309 -0.7855
 4733TIP3    H114205   0.481   1.394   4.769  0.0370  0.0672 -0.4414
 4733TIP3    H214206   0.390   1.356   4.654  0.5663 -0.0889 -0.8152
 4734TIP3   OH214207   5.454   3.264   4.157  0.0752  0.4792 -0.8530
 4734TIP3    H114208   5.452   3.331   4.088  2.3595 -0.6325 -2.1399
 4734TIP3    H214209   5.365   3.262   4.192 -1.4347  0.5755 -4.3163
 4735TIP3   OH214210   3.430   4.625   4.284  1.0570  0.5520  0.0709
 4735TIP3    H114211   3.476   4.547   4.316 -0.1865 -0.1220  0.2860
 4735TIP3    H214212   3.361   4.641   4.349  0.5214  1.0968 -0.6075
 4736TIP3   OH214213   0.789   2.138   3.697  0.4905 -0.1991  0.1537
 4736TIP3    H114214   0.714   2.116   3.641 -0.1072  0.1477  0.7953
 4736TIP3    H214215   0.756   2.127   3.786  0.2442  2.8312  0.5332
 4737TIP3   OH214216   1.585   5.040   4.534 -0.2107 -0.3148 -0.5519
 4737TIP3    H114217   1.616   5.126   4.562  1.5696 -1.2732  0.5804
 4737TIP3    H214218   1.532   5.008   4.607  1.7125 -1.4364  0.4212
 4738TIP3   OH214219   1.616   4.104   1.292  0.5416 -0.0898 -0.0843
 4738TIP3    H114220   1.641   4.142   1.208  0.1266  2.0883  0.6993
 4738TIP3    H214221   1.523   4.081   1.281  0.8997 -1.3160 -0.6917
 4739TIP3   OH214222   2.989   5.484   1.465  0.4233 -0.2878 -0.2753
 4739TIP3    H114223   2.982   5.543   1.540  1.7091  0.1332 -0.4604
 4739TIP3    H214224   2.994   5.543   1.389  0.5171 -0.6688 -0.5661
 4740TIP3   OH214225   3.386   0.858   2.154  0.4951  0.2922 -0.0623
 4740TIP3    H114226   3.340   0.937   2.126  0.8124  0.5649  0.1806
 4740TIP3    H214227   3.317   0.796   2.174  0.2292  0.7031  0.3162
 4741TIP3   OH214228   4.828   4.308   1.587  0.2178  0.2711 -0.0236
 4741TIP3    H114229   4.890   4.242   1.557 -2.1845 -1.5735 -1.2918
 4741TIP3    H214230   4.797   4.350   1.506 -0.7130  0.6335  0.5075
 4742TIP3   OH214231   4.221   3.439   1.626 -0.1329 -0.1002 -0.3051
 4742TIP3    H114232   4.278   3.515   1.639  0.9464 -1.3390  3.3301
 4742TIP3    H214233   4.264   3.388   1.557  0.8230  1.0349 -0.5705
 4743TIP3   OH214234   6.112   1.806   4.526  0.4932  0.1286  0.0326
 4743TIP3    H114235   6.163   1.808   4.607  1.1295 -0.8147 -0.3285
 4743TIP3    H214236   6.121   1.716   4.494  1.8361  0.9321 -2.0816
 4744TIP3   OH214237   1.860   1.386   1.360  0.6017 -0.2762 -0.6528
 4744TIP3    H114238   1.769   1.412   1.372  0.6886 -0.1748 -0.1798
 4744TIP3    H214239   1.859   1.331   1.281 -0.3392 -2.5157  0.8058
 4745TIP3   OH214240   5.176   2.809   3.656  0.5133  0.4483 -0.1670
 4745TIP3    H114241   5.178   2.866   3.733 -2.4084 -0.4650  0.7125
 4745TIP3    H214242   5.214   2.862   3.586 -0.0332  2.6570  1.1018
 4746TIP3   OH214243   2.655   0.783   2.128 -0.5112  0.1321 -0.1457
 4746TIP3    H114244   2.657   0.774   2.033 -1.6672 -2.5049 -0.0132
 4746TIP3    H214245   2.709   0.711   2.161 -1.1348  0.2334  1.1881
 4747TIP3   OH214246   4.688   0.353   3.975 -0.1362  0.6727  0.4936
 4747TIP3    H114247   4.784   0.360   3.978  0.2823 -2.5317 -0.7824
 4747TIP3    H214248   4.669   0.332   3.883 -2.2446  2.2712  0.4817
 4748TIP3   OH214249   6.339   0.190   0.568 -0.1862  0.0193 -0.1654
 4748TIP3    H114250   6.258   0.224   0.530 -1.0952 -1.5127  0.3011
 4748TIP3    H214251   6.356   0.247   0.643 -1.2680 -0.0803  0.1775
 4749TIP3   OH214252   3.775   5.255   2.482  0.1780 -0.2986 -0.1568
 4749TIP3    H114253   3.725   5.274   2.561  1.1950 -1.5173  0.8315
 4749TIP3    H214254   3.866   5.256   2.510  0.5097 -1.8217 -1.0528
 4750TIP3   OH214255   0.323   2.604   2.861  0.0866 -0.2007 -0.3097
 4750TIP3    H114256   0.231   2.577   2.865 -0.1457  0.7422  2.1744
 4750TIP3    H214257   0.326   2.667   2.789 -0.9332 -1.0651 -1.1638
 4751TIP3   OH214258   5.396   2.936   0.102 -0.2928 -0.0600 -0.5102
 4751TIP3    H114259   5.350   3.012   0.067 -1.7077 -1.2626 -1.4057
 4751TIP3    H214260   5.391   2.947   0.197 -0.2047  1.0957 -0.6267
 4752TIP3   OH214261   6.263   5.454   1.587  0.2687  0.1078 -0.4389
 4752TIP3    H114262   6.307   5.425   1.667  1.6639  0.5920 -1.0007
 4752TIP3    H214263   6.262   5.376   1.531 -1.5951 -0.5159  0.3646
 4753TIP3   OH214264   3.028   4.955   4.016 -0.7755 -0.0141 -0.3933
 4753TIP3    H114265   2.968   4.904   3.961  0.5257 -0.3440 -1.5890
 4753TIP3    H214266   3.011   5.046   3.991 -0.6382 -0.1192 -0.8881
 4754TIP3   OH214267   6.311   2.187   4.119 -0.2571  0.4610  0.1026
 4754TIP3    H114268   6.272   2.135   4.190  2.8859 -0.4620  1.3096
 4754TIP3    H214269   6.282   2.277   4.136 -2.0472 -0.1966  0.7076
 4755TIP3   OH214270   1.933   4.836   2.769 -0.2177 -0.2217  0.1670
 4755TIP3    H114271   1.944   4.818   2.862 -1.8028  0.8999  0.5908
 4755TIP3    H214272   1.953   4.752   2.726  2.1513 -0.3361  1.3400
 4756TIP3   OH214273   0.039   5.385   3.445  0.0966 -0.0631 -0.4072
 4756TIP3    H114274   0.030   5.469   3.400 -0.6235 -0.6851 -1.4788
 4756TIP3    H214275  -0.050   5.351   3.451  0.4611 -1.1313 -0.7683
 4757TIP3   OH214276   5.883   2.623   0.538  0.2431  0.2279  0.3463
 4757TIP3    H114277   5.924   2.659   0.617  0.8492  0.4345 -0.0499
 4757TIP3    H214278   5.791   2.647   0.545  0.7079  2.3572 -0.1415
 4758TIP3   OH214279   1.017   4.615   4.814  0.7615 -0.6492 -0.2966
 4758TIP3    H114280   0.974   4.643   4.734  2.1187  0.1122 -0.8046
 4758TIP3    H214281   1.101   4.579   4.785  1.9780  1.1105  0.8429
 4759TIP3   OH214282   3.312   1.358   0.549  0.0167 -0.5040 -0.2092
 4759TIP3    H114283   3.307   1.262   0.546 -0.1111 -0.5741  1.3912
 4759TIP3    H214284   3.403   1.377   0.571 -0.5802 -0.4063  2.4510
 4760TIP3   OH214285   2.781   2.544   2.799  0.9288  0.0674 -0.0926
 4760TIP3    H114286   2.784   2.625   2.748 -0.7852 -0.3199 -0.8724
 4760TIP3    H214287   2.853   2.491   2.764 -0.0084 -0.0635 -1.9449
 4761TIP3   OH214288   0.832   5.356   5.028  0.0437  1.1006 -0.2396
 4761TIP3    H114289   0.813   5.345   5.121 -2.3608 -1.2551 -0.8774
 4761TIP3    H214290   0.746   5.369   4.988  0.5080 -1.8477 -2.5017
 4762TIP3   OH214291   5.299   2.490   1.021 -0.0871  0.1793 -0.2562
 4762TIP3    H114292   5.349   2.533   1.090 -0.0986  0.7193 -0.5690
 4762TIP3    H214293   5.265   2.563   0.968  0.5290 -0.2415 -1.2514
 4763TIP3   OH214294   5.717   0.028   4.746  0.5312  0.3353 -0.2983
 4763TIP3    H114295   5.754  -0.025   4.816  3.2689 -0.9014 -2.4721
 4763TIP3    H214296   5.750   0.116   4.762  0.2938  0.2917  0.4758
 4764TIP3   OH214297   4.120   1.889   0.336 -0.6863 -0.4121  0.0998
 4764TIP3    H114298   4.191   1.829   0.354 -0.3002 -0.0539 -0.2125
 4764TIP3    H214299   4.048   1.834   0.305  0.8323 -0.4334 -3.8304
 4765TIP3   OH214300   4.823   2.578   2.907  0.2300 -0.2365 -0.2032
 4765TIP3    H114301   4.837   2.667   2.876  1.0611 -0.6498 -1.0606
 4765TIP3    H214302   4.740   2.552   2.867  0.2194 -0.0164 -0.3291
 4766TIP3   OH214303   1.667   3.688   2.524 -0.0284  0.9387 -0.0335
 4766TIP3    H114304   1.709   3.616   2.477 -0.4598  0.2864  0.5494
 4766TIP3    H214305   1.583   3.652   2.553 -0.2966  1.7117  0.1780
 4767TIP3   OH214306   0.346   0.977   1.722 -0.4575  0.1821  0.4642
 4767TIP3    H114307   0.278   0.991   1.788 -1.2843 -1.4736  0.0220
 4767TIP3    H214308   0.345   0.882   1.707 -0.3196  0.4966 -1.9309
 4768TIP3   OH214309   2.289   4.512   0.899  0.5183 -0.1261 -0.1148
 4768TIP3    H114310   2.321   4.596   0.865  1.4475 -0.8899 -1.2079
 4768TIP3    H214311   2.367   4.457   0.903 -0.5349 -1.9400 -2.4343
 4769TIP3   OH214312   6.004   5.130   0.781  0.9143 -0.4172  0.3325
 4769TIP3    H114313   6.005   5.226   0.779 -3.3400 -0.1694 -0.0282
 4769TIP3    H214314   5.970   5.108   0.868 -1.6908 -1.2760 -0.7846
 4770TIP3   OH214315   2.135   4.672   4.122 -0.3092 -0.0296  0.5138
 4770TIP3    H114316   2.169   4.670   4.032  0.7088  0.2205  0.8822
 4770TIP3    H214317   2.151   4.584   4.155  0.2543  0.1713  0.7831
 4771TIP3   OH214318   1.562   5.215   0.024 -0.1878  0.2793 -0.6449
 4771TIP3    H114319   1.589   5.138   0.073  0.4683  0.6310 -0.4429
 4771TIP3    H214320   1.536   5.181  -0.062  0.1467 -0.1527 -0.5769
 4772TIP3   OH214321   0.352   4.996   3.057  0.2276  0.2073 -0.6617
 4772TIP3    H114322   0.333   4.936   3.129  0.4108 -0.9790 -1.5777
 4772TIP3    H214323   0.278   5.057   3.057  0.3563  0.4103  0.6836
 4773TIP3   OH214324   6.338   2.133   3.827 -0.4602 -0.0040 -0.0651
 4773TIP3    H114325   6.396   2.140   3.903 -0.8056 -0.2492  0.2222
 4773TIP3    H214326   6.297   2.220   3.820 -0.3054  0.0690 -0.0720
 4774TIP3   OH214327   2.573   3.353   2.856  0.1529  0.2420  0.0720
 4774TIP3    H114328   2.610   3.418   2.915  1.6869 -1.4002  1.0433
 4774TIP3    H214329   2.643   3.333   2.795 -0.3363 -0.3908 -0.2969
 4775TIP3   OH214330   2.132   2.063   4.291 -0.5181  0.1563  0.2640
 4775TIP3    H114331   2.091   2.067   4.378 -1.4780  1.0754 -0.2023
 4775TIP3    H214332   2.100   1.981   4.253  1.2014 -1.0946  1.3549
 4776TIP3   OH214333   1.479   3.227   0.821  0.2078 -0.0959 -0.1727
 4776TIP3    H114334   1.397   3.271   0.844 -0.1937 -0.4199 -0.9312
 4776TIP3    H214335   1.548   3.290   0.845 -0.1945 -0.1675  1.2696
 4777TIP3   OH214336   4.840   3.349   2.199 -0.0041  0.3876  0.1422
 4777TIP3    H114337   4.820   3.423   2.143  0.8726  0.0577 -0.6371
 4777TIP3    H214338   4.809   3.375   2.286 -1.1872  0.9840 -0.4430
 4778TIP3   OH214339   1.611   1.883   1.138  0.1352  0.2888 -0.3186
 4778TIP3    H114340   1.584   1.801   1.098  1.5170  0.0813 -0.8743
 4778TIP3    H214341   1.555   1.892   1.215 -1.8112  0.1465 -1.6725
 4779TIP3   OH214342   2.783   4.489   4.793 -0.5811 -0.1797 -0.2392
 4779TIP3    H114343   2.814   4.408   4.833  0.7097  0.6475  0.5041
 4779TIP3    H214344   2.702   4.510   4.839 -1.7432 -1.7936 -1.4483
 4780TIP3   OH214345   2.643   4.927   4.532 -0.3335 -0.3183 -0.5095
 4780TIP3    H114346   2.707   4.984   4.576 -1.9802  1.0533  0.2320
 4780TIP3    H214347   2.694   4.852   4.503  1.3958  0.1366  1.1425
 4781TIP3   OH214348   3.604   4.860   2.805  0.1006  0.2339  0.6362
 4781TIP3    H114349   3.655   4.803   2.747  0.6590  0.6990  0.6577
 4781TIP3    H214350   3.520   4.871   2.761  0.5637  0.6825 -0.1433
 4782TIP3   OH214351   6.263   2.925   4.597 -0.0805 -0.2834  0.1810
 4782TIP3    H114352   6.328   2.861   4.567  1.3085  1.0507  0.2048
 4782TIP3    H214353   6.289   3.007   4.555 -2.2718  0.1458 -0.4829
 4783TIP3   OH214354   1.278   4.736   4.956 -0.5390 -0.1511  0.4376
 4783TIP3    H114355   1.212   4.795   4.918  0.1661 -1.4403 -3.2334
 4783TIP3    H214356   1.228   4.676   5.010 -1.6284  1.9374  1.9147
 4784TIP3   OH214357   1.939   1.269   1.137  0.9786 -0.9482  0.6650
 4784TIP3    H114358   1.982   1.345   1.099 -0.5663 -0.1538  0.4108
 4784TIP3    H214359   1.980   1.194   1.094 -0.8525 -0.1234 -2.9369
 4785TIP3   OH214360   1.994   5.613   0.420  0.4965 -0.3019  0.0700
 4785TIP3    H114361   2.027   5.594   0.332  0.3051 -0.1891 -0.0263
 4785TIP3    H214362   1.904   5.643   0.406  1.1851  2.0008  0.0795
 4786TIP3   OH214363   1.846   4.234   4.653  0.0314 -0.1810  0.7479
 4786TIP3    H114364   1.879   4.310   4.700 -0.8917 -1.5273  3.8019
 4786TIP3    H214365   1.759   4.218   4.690  0.3800 -2.9876  0.6037
 4787TIP3   OH214366   1.885   3.809   2.643  0.5543 -0.1347 -0.6440
 4787TIP3    H114367   1.938   3.855   2.578  1.5437 -2.3689 -1.5075
 4787TIP3    H214368   1.811   3.774   2.593 -1.2752  2.0395  0.3583
 4788TIP3   OH214369   3.490   0.384   4.205 -0.2213 -0.4351 -0.0646
 4788TIP3    H114370   3.511   0.421   4.291 -0.8227  2.6000 -1.1067
 4788TIP3    H214371   3.550   0.427   4.145 -1.4374 -0.6592 -1.5009
 4789TIP3   OH214372   5.528   0.307   3.706 -0.3208 -0.0352  0.4648
 4789TIP3    H114373   5.533   0.326   3.612 -0.9968 -0.0166  0.4265
 4789TIP3    H214374   5.531   0.211   3.711 -2.1484 -0.1540  0.2640
 4790TIP3   OH214375   0.920   1.916   4.860  0.1551  0.2217 -0.2420
 4790TIP3    H114376   0.989   1.900   4.796 -0.4008 -1.1472 -0.5329
 4790TIP3    H214377   0.874   1.833   4.867 -1.8446  1.2503 -0.4999
 4791TIP3   OH214378   5.419   4.867   3.582  0.1485  0.1720 -0.0433
 4791TIP3    H114379   5.356   4.883   3.652  0.4079  1.1015 -0.0157
 4791TIP3    H214380   5.458   4.952   3.565  1.7933 -0.4658  0.3302
 4792TIP3   OH214381   5.511   5.492   0.404 -0.5006  0.3097  0.3389
 4792TIP3    H114382   5.484   5.553   0.336 -0.5704  0.0927  0.1706
 4792TIP3    H214383   5.433   5.478   0.457  0.1376  2.3527  1.9348
 4793TIP3   OH214384   5.757   3.499   3.731  0.2673  0.2086 -1.0935
 4793TIP3    H114385   5.743   3.589   3.759  0.1110 -0.0908 -0.1749
 4793TIP3    H214386   5.849   3.496   3.704  0.9426  0.1009  1.0606
 4794TIP3   OH214387   0.385   3.606   2.118 -0.3989 -0.3566 -0.0329
 4794TIP3    H114388   0.396   3.556   2.199  0.3764  1.9969  1.3945
 4794TIP3    H214389   0.291   3.604   2.101 -0.5976 -0.6955  1.0329
 4795TIP3   OH214390   0.465   0.210   1.123 -0.0761  0.2027  0.5629
 4795TIP3    H114391   0.548   0.241   1.086 -0.2464  0.0782  0.0695
 4795TIP3    H214392   0.468   0.237   1.215  0.3443  0.5399  0.4532
 4796TIP3   OH214393   5.755   2.529   2.793 -0.3288  0.5649  0.5749
 4796TIP3    H114394   5.703   2.449   2.787  0.2519  0.2969 -1.9882
 4796TIP3    H214395   5.734   2.577   2.713  1.5295  1.5826  0.6552
 4797TIP3   OH214396   3.272   5.602   2.210 -0.1810 -0.3248  0.0588
 4797TIP3    H114397   3.209   5.532   2.229 -0.9591  0.2957 -0.2159
 4797TIP3    H214398   3.358   5.561   2.225 -0.5676 -1.6929 -1.2508
 4798TIP3   OH214399   2.706   5.853   3.501 -0.8606 -0.4275  0.0200
 4798TIP3    H114400   2.686   5.819   3.413  0.9853  0.8787 -0.9765
 4798TIP3    H214401   2.683   5.946   3.495  1.6345  0.2555  0.0396
 4799TIP3   OH214402   5.347   0.682   3.461  0.8798  0.0130  0.2157
 4799TIP3    H114403   5.442   0.689   3.451  0.8185 -1.2011 -1.7636
 4799TIP3    H214404   5.312   0.731   3.386  0.0532 -2.0264 -0.8107
 4800TIP3   OH214405   2.751   1.576   3.455 -0.2463  0.2180 -0.3113
 4800TIP3    H114406   2.709   1.505   3.406  0.5570  0.4704 -1.3931
 4800TIP3    H214407   2.719   1.656   3.413 -0.1007  0.4574  0.0319
 4801TIP3   OH214408   2.307   3.940   1.228  0.0797  0.2288 -0.0499
 4801TIP3    H114409   2.305   3.975   1.317 -1.5404 -0.4112  0.1897
 4801TIP3    H214410   2.324   4.017   1.173 -2.4028  1.3030  0.5460
 4802TIP3   OH214411   4.427   6.001   0.281  0.0542 -0.0117 -0.2999
 4802TIP3    H114412   4.467   6.001   0.368 -1.7469  1.9423  0.6108
 4802TIP3    H214413   4.401   5.910   0.267  2.0740 -0.7506  0.3142
 4803TIP3   OH214414   1.189   0.153   1.353 -0.1509  0.2985 -0.3610
 4803TIP3    H114415   1.275   0.148   1.394 -0.5703 -2.2848  0.4009
 4803TIP3    H214416   1.189   0.238   1.308  2.3900  0.8159  0.4194
 4804TIP3   OH214417   0.787   0.412   0.814  0.5953 -0.5102  0.0139
 4804TIP3    H114418   0.726   0.426   0.742  0.1911 -1.7911  0.0755
 4804TIP3    H214419   0.873   0.431   0.776  0.2114  0.8958 -0.1892
 4805TIP3   OH214420   0.260   2.941   0.387 -0.0299 -0.7647 -0.2683
 4805TIP3    H114421   0.329   2.997   0.425  0.6684 -0.1020 -2.3828
 4805TIP3    H214422   0.270   2.857   0.432  1.0552 -0.1671  0.6584
 4806TIP3   OH214423   0.267   2.430   2.236 -0.0909 -0.2413 -0.6757
 4806TIP3    H114424   0.206   2.411   2.165  0.6593 -0.9244 -1.1559
 4806TIP3    H214425   0.274   2.525   2.238 -2.6523  0.0102  0.6671
 4807TIP3   OH214426   3.695   2.412   1.527  0.5474 -0.2526  0.3607
 4807TIP3    H114427   3.679   2.368   1.611  0.0814  0.8688  0.8864
 4807TIP3    H214428   3.634   2.370   1.467 -0.1244 -0.1295  0.9334
 4808TIP3   OH214429   1.424   1.341   1.582 -0.3254 -0.1854 -0.0320
 4808TIP3    H114430   1.346   1.291   1.606  1.9919 -2.4234  3.6488
 4808TIP3    H214431   1.490   1.275   1.561  1.9112  1.3932  1.6245
 4809TIP3   OH214432   0.072   1.457   4.157  0.5410 -0.5778 -0.0221
 4809TIP3    H114433   0.029   1.521   4.212 -0.9671 -1.5362 -0.0273
 4809TIP3    H214434   0.077   1.499   4.071 -1.1588 -0.7281 -0.2261
 4810TIP3   OH214435   0.053   2.670   4.547  0.0167  0.2948 -0.2019
 4810TIP3    H114436   0.021   2.596   4.599 -1.6176  0.7462 -0.5175
 4810TIP3    H214437   0.070   2.633   4.461 -2.9883  0.6471 -1.0462
 4811TIP3   OH214438   4.086   3.307   2.892 -0.2890 -0.7674 -0.1007
 4811TIP3    H114439   4.155   3.371   2.913 -1.8718  0.9723 -0.0017
 4811TIP3    H214440   4.033   3.301   2.971 -0.7717 -1.4412 -0.4594
 4812TIP3   OH214441   1.410   5.677   4.776 -0.6146  0.3492  0.0658
 4812TIP3    H114442   1.411   5.762   4.820 -2.0120 -0.0791  0.9792
 4812TIP3    H214443   1.329   5.635   4.806 -1.5173 -0.0915 -2.6804
 4813TIP3   OH214444   1.629   5.758   3.939 -0.1635  0.2794 -0.1478
 4813TIP3    H114445   1.574   5.682   3.919 -0.2421  0.4487 -0.5832
 4813TIP3    H214446   1.573   5.814   3.992  0.1907 -0.3724  0.9393
 4814TIP3   OH214447   5.769   5.326   1.055  0.1993 -0.1758 -0.1727
 4814TIP3    H114448   5.744   5.408   1.011  0.3848  0.0042  0.0511
 4814TIP3    H214449   5.858   5.343   1.087 -0.1271 -0.1090  0.7292
 4815TIP3   OH214450   4.558   1.254   2.682  0.2065  0.4151  0.5861
 4815TIP3    H114451   4.640   1.268   2.633  0.4317  0.6722  1.0332
 4815TIP3    H214452   4.582   1.194   2.752 -0.4095 -1.0250 -0.3875
 4816TIP3   OH214453   3.816   2.421   3.149  0.3348 -0.4421  0.3526
 4816TIP3    H114454   3.776   2.335   3.135 -1.0750  0.1839  0.3068
 4816TIP3    H214455   3.751   2.469   3.201  0.6289  0.9319 -0.5040
 4817TIP3   OH214456   4.686   4.107   2.732 -0.0341 -0.5113 -0.9069
 4817TIP3    H114457   4.718   4.197   2.730 -1.6294  0.1226 -0.1157
 4817TIP3    H214458   4.760   4.056   2.764  1.7014  0.0919 -3.6161
 4818TIP3   OH214459   2.572   2.400   3.191 -0.2021  0.1776 -0.8567
 4818TIP3    H114460   2.504   2.465   3.208 -2.9281 -2.6075 -0.2682
 4818TIP3    H214461   2.534   2.342   3.125  0.5616 -2.8646  1.1649
 4819TIP3   OH214462   5.547   4.444   1.216 -0.1470 -0.5766 -0.5461
 4819TIP3    H114463   5.627   4.435   1.163  0.1099 -0.9593 -0.1011
 4819TIP3    H214464   5.541   4.361   1.264  0.3819  0.3074  1.0853
 4820TIP3   OH214465   1.462   5.515   2.064 -0.4702 -0.3670  0.0406
 4820TIP3    H114466   1.546   5.483   2.099 -0.4458  0.2187  0.5411
 4820TIP3    H214467   1.486   5.564   1.985 -0.6001 -2.3867 -1.3201
 4821TIP3   OH214468   0.356   1.445   1.851  0.3139 -0.1394 -0.0763
 4821TIP3    H114469   0.363   1.371   1.791 -1.5760 -0.3107 -0.1221
 4821TIP3    H214470   0.434   1.498   1.832 -0.4018  0.0512 -3.0262
 4822TIP3   OH214471   1.792   4.357   2.558 -0.2763  0.3565 -0.3655
 4822TIP3    H114472   1.819   4.297   2.489 -0.0918  0.1963 -0.1556
 4822TIP3    H214473   1.815   4.444   2.525  0.4841  0.2215 -0.1907
 4823TIP3   OH214474   4.809   4.176   0.653  0.4721  0.2053  0.8060
 4823TIP3    H114475   4.727   4.128   0.645 -0.4292  1.8640 -0.5066
 4823TIP3    H214476   4.868   4.133   0.592 -0.5776  1.2023 -0.9834
 4824TIP3   OH214477   6.220   0.054   3.037 -0.7482 -0.4468 -0.4753
 4824TIP3    H114478   6.279  -0.022   3.039  0.9767  0.8253 -0.3156
 4824TIP3    H214479   6.150   0.028   2.978 -0.2122 -2.1591 -0.4330
 4825TIP3   OH214480   3.713   0.324   4.681 -0.2472 -0.6531 -0.0772
 4825TIP3    H114481   3.625   0.286   4.681  0.1642 -1.6675  0.7590
 4825TIP3    H214482   3.744   0.311   4.770  0.5886  0.1054 -0.2470
 4826TIP3   OH214483   3.274   4.310   2.947 -0.1285  0.0630  0.1803
 4826TIP3    H114484   3.275   4.273   3.035  1.7157 -0.0575  0.1430
 4826TIP3    H214485   3.349   4.271   2.903 -0.2151  1.1496 -1.0117
 4827TIP3   OH214486   2.467   2.148   2.251 -0.0576 -0.7699  1.0586
 4827TIP3    H114487   2.486   2.165   2.159  1.3630 -0.4462  1.3928
 4827TIP3    H214488   2.448   2.234   2.288  0.5032 -0.7428  1.3005
 4828TIP3   OH214489   6.019   5.292   1.671  0.0383  0.4057  0.2539
 4828TIP3    H114490   5.937   5.339   1.660 -0.0868 -0.0916 -1.0714
 4828TIP3    H214491   6.021   5.229   1.600  1.0670 -0.3432  0.9080
 4829TIP3   OH214492   2.139   2.970   2.172 -0.3866 -0.2468  0.5120
 4829TIP3    H114493   2.126   2.948   2.264 -0.5683 -0.0460  0.5364
 4829TIP3    H214494   2.181   2.893   2.134  0.2104 -0.1140  0.8835
 4830TIP3   OH214495   3.367   1.466   3.998 -0.2109  0.0210 -0.0242
 4830TIP3    H114496   3.415   1.484   4.079 -0.1440 -1.2865  0.2485
 4830TIP3    H214497   3.428   1.416   3.945  0.0591  1.6106 -1.2818
 4831TIP3   OH214498   5.426   0.607   2.035 -0.1342  0.1719  0.2786
 4831TIP3    H114499   5.387   0.523   2.061 -0.2136  0.4523  1.1004
 4831TIP3    H214500   5.498   0.583   1.977  1.9026 -0.6820  3.0014
 4832TIP3   OH214501   2.520   3.610   4.250  0.0414 -0.1035 -0.2024
 4832TIP3    H114502   2.451   3.655   4.299 -0.4619  0.7044 -1.6028
 4832TIP3    H214503   2.500   3.517   4.261  0.0847  0.0268  1.2846
 4833TIP3   OH214504   5.643   2.453   2.447  0.1177 -0.0092  0.0128
 4833TIP3    H114505   5.661   2.494   2.363 -0.6903  0.8321  0.2431
 4833TIP3    H214506   5.567   2.499   2.481  1.4113  0.8119  1.9662
 4834TIP3   OH214507   2.191   1.874   2.256 -0.0393  0.4874  0.2715
 4834TIP3    H114508   2.142   1.808   2.207  0.0612  0.3931  0.2967
 4834TIP3    H214509   2.132   1.950   2.261 -0.5484  0.0464  1.1208
 4835TIP3   OH214510   4.878   5.550   2.619 -0.1739  0.6326 -0.6596
 4835TIP3    H114511   4.801   5.548   2.563 -1.7090 -0.7506  1.3402
 4835TIP3    H214512   4.852   5.604   2.694  0.9429  0.4673 -0.1281
 4836TIP3   OH214513   3.223   0.763   0.713 -0.4704  0.9724 -0.7375
 4836TIP3    H114514   3.193   0.812   0.790 -0.0906 -0.4248  0.3502
 4836TIP3    H214515   3.142   0.733   0.671 -0.6690  0.3859  0.0455
 4837TIP3   OH214516   0.449   0.767   3.118 -0.0928  0.8067  0.3445
 4837TIP3    H114517   0.397   0.817   3.181  0.4670  1.0811  0.5947
 4837TIP3    H214518   0.387   0.704   3.082 -0.2419  0.1124  1.7382
 4838TIP3   OH214519   0.191   1.620   0.082 -0.0577 -0.1302 -0.5791
 4838TIP3    H114520   0.202   1.653  -0.007  0.7163  0.2346 -0.3497
 4838TIP3    H214521   0.138   1.541   0.071 -2.0653  1.2095 -1.1190
 4839TIP3   OH214522   4.047   0.178   3.900  0.0159  0.3028 -0.7304
 4839TIP3    H114523   4.058   0.110   3.967 -1.6260 -0.1098 -0.8201
 4839TIP3    H214524   4.059   0.132   3.817  2.8974  0.9820 -0.7907
 4840TIP3   OH214525   2.785   3.198   4.336  0.0460 -0.8682  0.0067
 4840TIP3    H114526   2.826   3.284   4.329 -0.3903 -0.5254  1.3979
 4840TIP3    H214527   2.859   3.138   4.351  0.1214 -0.2807  2.3049
 4841TIP3   OH214528   1.145   2.406   3.943 -0.4946 -0.6137  0.0118
 4841TIP3    H114529   1.085   2.374   3.876  0.5218  0.7271 -1.6058
 4841TIP3    H214530   1.098   2.478   3.984 -0.1796  0.1599 -0.9615
 4842TIP3   OH214531   0.941   5.353   2.633  0.1218 -0.0861  0.1589
 4842TIP3    H114532   0.931   5.370   2.539  0.6293  1.4617  0.3584
 4842TIP3    H214533   0.906   5.432   2.675 -0.8268 -1.0821  1.3121
 4843TIP3   OH214534   4.988   0.189   4.573  0.2606 -0.1301  0.4156
 4843TIP3    H114535   4.895   0.176   4.555  0.8086 -0.5963 -2.6066
 4843TIP3    H214536   5.006   0.278   4.542  0.6212  0.4203  2.1087
 4844TIP3   OH214537   1.459   1.838   1.362 -0.1229  0.4767 -0.5987
 4844TIP3    H114538   1.437   1.858   1.453  0.7310  0.2319 -0.3223
 4844TIP3    H214539   1.435   1.746   1.352  0.9175  0.1460 -0.2307
 4845TIP3   OH214540   0.645   1.360   4.034  0.4891  0.0246 -0.0651
 4845TIP3    H114541   0.639   1.282   3.978 -1.4756  0.3331 -0.3307
 4845TIP3    H214542   0.711   1.414   3.991  0.0148 -0.3648 -1.3382
 4846TIP3   OH214543   5.599   3.175   1.354  0.3059 -0.1365  0.2040
 4846TIP3    H114544   5.596   3.080   1.352 -1.1657 -0.1819  1.8546
 4846TIP3    H214545   5.515   3.203   1.319  0.1077  0.4946  1.1503
 4847TIP3   OH214546   2.162   2.493   4.414 -0.3287  0.2677 -0.4638
 4847TIP3    H114547   2.142   2.549   4.339  0.6432 -0.0137 -0.9500
 4847TIP3    H214548   2.078   2.452   4.436 -0.4173 -0.4632 -2.0714
 4848TIP3   OH214549   3.264   4.789   1.957  0.2602 -0.2378 -0.2600
 4848TIP3    H114550   3.248   4.792   1.863  1.5466 -2.9338 -0.6572
 4848TIP3    H214551   3.177   4.781   1.997 -0.3628  1.8393 -1.0921
 4849TIP3   OH214552   0.449   1.568   2.222  1.0199  0.6149  0.1336
 4849TIP3    H114553   0.389   1.629   2.265  0.3197 -0.4534  0.7059
 4849TIP3    H214554   0.474   1.613   2.141 -0.4326  1.1683 -0.0513
 4850TIP3   OH214555   3.614   5.637   1.737 -0.3965 -0.5873  0.7656
 4850TIP3    H114556   3.522   5.664   1.741  0.0871  1.8804 -1.7177
 4850TIP3    H214557   3.610   5.543   1.718 -2.4255 -0.4176  0.0939
 4851TIP3   OH214558   1.590   5.167   1.569  0.3536  0.0242 -0.8641
 4851TIP3    H114559   1.655   5.098   1.584 -0.3951 -0.5670 -0.2824
 4851TIP3    H214560   1.606   5.230   1.639 -0.7541 -0.9359  0.2951
 4852TIP3   OH214561   3.763   5.009   0.208  0.1946 -0.3537 -0.4120
 4852TIP3    H114562   3.802   4.925   0.235 -0.3989 -0.4887  0.0378
 4852TIP3    H214563   3.684   4.984   0.160 -1.1605 -0.0294  1.5525
 4853TIP3   OH214564   5.403   3.270   1.180  0.5046 -0.3311 -0.4404
 4853TIP3    H114565   5.409   3.352   1.132 -0.2188 -0.1343 -0.2184
 4853TIP3    H214566   5.374   3.206   1.115 -2.2928  0.3060  0.0273
 4854TIP3   OH214567   3.525   5.062   1.469 -0.3334 -0.0702 -0.0827
 4854TIP3    H114568   3.558   5.150   1.489  1.4753 -0.7873  0.2675
 4854TIP3    H214569   3.541   5.052   1.375 -1.7699  0.4379 -0.4074
 4855TIP3   OH214570   3.992   3.814   3.296  0.3490  0.1282 -0.5881
 4855TIP3    H114571   4.075   3.790   3.339  0.7892  0.5649 -1.1709
 4855TIP3    H214572   4.016   3.887   3.239 -0.7474  1.3055  0.4030
 4856TIP3   OH214573   6.298   2.533   2.400  0.1335 -0.0126  0.1089
 4856TIP3    H114574   6.337   2.553   2.315  0.7449  1.0403  0.6193
 4856TIP3    H214575   6.356   2.573   2.464 -1.7791  1.6961  0.9115
 4857TIP3   OH214576   0.943   3.124   5.144 -0.0537  0.0449  0.4187
 4857TIP3    H114577   0.984   3.209   5.158 -0.6785  0.6423 -1.1910
 4857TIP3    H214578   0.985   3.089   5.066 -0.5040 -0.6745  0.4859
 4858TIP3   OH214579   2.895   0.334   1.435 -0.0460  0.4950  0.0712
 4858TIP3    H114580   2.915   0.352   1.344 -0.7611 -1.4716 -0.5316
 4858TIP3    H214581   2.979   0.303   1.472  0.1132  0.7583 -0.0698
 4859TIP3   OH214582   1.471   0.580   3.175  0.6751  0.7892 -0.1819
 4859TIP3    H114583   1.560   0.568   3.142  0.3597 -1.6205 -0.3212
 4859TIP3    H214584   1.472   0.543   3.263 -0.1907  0.7223 -0.1869
 4860TIP3   OH214585   1.327   5.140   1.822 -0.0609 -0.5530  0.1594
 4860TIP3    H114586   1.262   5.154   1.753  0.2730  0.3389  0.0068
 4860TIP3    H214587   1.352   5.048   1.814 -0.8952 -0.7679 -0.1337
 4861TIP3   OH214588   2.182   3.441   3.284 -0.2839 -0.7534 -0.2562
 4861TIP3    H114589   2.125   3.509   3.321  0.0798  0.1495 -1.2960
 4861TIP3    H214590   2.126   3.395   3.222 -0.1338 -0.4693 -0.6016
 4862TIP3   OH214591   5.695   4.899   1.682  0.0948 -0.0366  0.2854
 4862TIP3    H114592   5.720   4.901   1.589 -0.0029  0.2028  0.2629
 4862TIP3    H214593   5.607   4.938   1.684  1.0946  2.3268  0.7836
 4863TIP3   OH214594   0.186   5.033   0.064  0.3269  0.1843 -0.1814
 4863TIP3    H114595   0.217   5.109   0.114  1.1047 -0.9754  1.1655
 4863TIP3    H214596   0.245   4.962   0.088 -0.8208 -1.0488 -0.8444
 4864TIP3   OH214597   4.699   3.131   2.026  0.5514  0.1956  0.6991
 4864TIP3    H114598   4.772   3.070   2.043  1.9092  0.8243 -2.2563
 4864TIP3    H214599   4.716   3.204   2.085  1.5249 -0.2773  1.0382
 4865TIP3   OH214600   6.302   5.867   0.670 -0.1476  0.5481 -0.1363
 4865TIP3    H114601   6.276   5.874   0.761  0.3451  0.9546 -0.0228
 4865TIP3    H214602   6.268   5.946   0.629  0.6516  0.9527 -0.0433
 4866TIP3   OH214603   5.777   0.646   2.570  0.1298 -0.1074 -0.2194
 4866TIP3    H114604   5.739   0.606   2.492 -1.0496  0.0182  0.2657
 4866TIP3    H214605   5.812   0.572   2.620  0.8588 -0.1888 -0.8369
 4867TIP3   OH214606   1.508   5.366   3.320  0.4040 -0.5869 -0.2151
 4867TIP3    H114607   1.475   5.357   3.409  0.8780 -1.4666 -0.1137
 4867TIP3    H214608   1.563   5.445   3.322 -1.7210  0.9695 -0.4251
 4868TIP3   OH214609   2.210   3.813   4.154 -0.1441  0.4295 -0.5319
 4868TIP3    H114610   2.131   3.867   4.143 -0.2495  0.4777  0.4061
 4868TIP3    H214611   2.267   3.840   4.082 -0.5509  1.1658 -0.5894
 4869TIP3   OH214612   5.740   2.971   1.830  0.4117  0.6813 -0.6521
 4869TIP3    H114613   5.672   2.922   1.783 -1.1010 -1.4384  3.2178
 4869TIP3    H214614   5.817   2.914   1.826  0.4698  0.7855 -1.0387
 4870TIP3   OH214615   0.565   1.546   1.043  0.1662 -0.0684 -0.2461
 4870TIP3    H114616   0.597   1.503   1.123  0.2513  1.7710  0.7674
 4870TIP3    H214617   0.645   1.572   0.996  0.3275  3.0169  1.4566
 4871TIP3   OH214618   4.895   4.900   5.164  0.8959  0.3640  0.2625
 4871TIP3    H114619   4.836   4.887   5.089  1.0392  0.3252  0.1557
 4871TIP3    H214620   4.969   4.842   5.146  0.9227  0.3446  0.4420
 4872TIP3   OH214621   3.715   3.728   4.669 -0.3247  0.1057  0.0930
 4872TIP3    H114622   3.714   3.634   4.650  0.9222  0.0402  0.2133
 4872TIP3    H214623   3.665   3.767   4.598 -1.8782 -0.7294  0.6863
 4873TIP3   OH214624   6.253   4.619   0.008  0.3942  0.4696  0.1201
 4873TIP3    H114625   6.322   4.601   0.072 -0.5575 -0.5801  0.8865
 4873TIP3    H214626   6.252   4.543  -0.050 -0.0619  0.5163  0.0591
 4874TIP3   OH214627   2.118   2.418   3.895 -0.1461 -0.0015 -1.0389
 4874TIP3    H114628   2.119   2.394   3.988  2.0913 -0.4264 -1.1176
 4874TIP3    H214629   2.063   2.496   3.891 -2.4055 -1.3915  0.2138
 4875TIP3   OH214630   0.232   0.288   1.887  0.4241 -0.0949 -0.5450
 4875TIP3    H114631   0.282   0.300   1.807 -2.4384 -0.3662 -2.5115
 4875TIP3    H214632   0.196   0.374   1.907 -0.0966 -0.3327 -0.4222
 4876TIP3   OH214633   5.400   5.353   1.594  0.1668  0.3787  0.0640
 4876TIP3    H114634   5.426   5.405   1.518  3.3963 -1.3995 -0.2212
 4876TIP3    H214635   5.339   5.288   1.559 -0.1382  0.9690 -0.5174
 4877TIP3   OH214636   0.055   4.996   2.267  0.3187 -0.3668 -0.6278
 4877TIP3    H114637   0.011   5.018   2.185  1.0936 -0.5124 -1.1069
 4877TIP3    H214638   0.097   4.912   2.249  1.6163  0.2292 -0.5492
 4878TIP3   OH214639   0.342   2.612   1.153 -0.8927  0.3317  0.4348
 4878TIP3    H114640   0.426   2.645   1.186 -0.5090  0.0222 -0.2101
 4878TIP3    H214641   0.304   2.687   1.106 -0.7552  0.3369  0.3279
 4879TIP3   OH214642   2.204   0.070   1.942 -0.0254 -0.6890  0.4003
 4879TIP3    H114643   2.113   0.100   1.940  0.0880 -0.3474 -0.4394
 4879TIP3    H214644   2.255   0.150   1.953  0.1886 -0.8236  0.3924
 4880TIP3   OH214645   5.430   2.866   4.199  0.0019 -0.3386 -0.3047
 4880TIP3    H114646   5.366   2.798   4.178 -0.6920  0.3111 -0.3194
 4880TIP3    H214647   5.434   2.866   4.295 -0.1205 -0.2909 -0.2990
 4881TIP3   OH214648   5.878   0.699   3.962  0.5960 -0.2556 -0.6841
 4881TIP3    H114649   5.834   0.672   3.881 -1.0252  1.6755 -0.5379
 4881TIP3    H214650   5.843   0.787   3.980  0.7344 -0.7013  2.2418
 4882TIP3   OH214651   5.554   5.539   1.854 -0.6728  0.8690 -0.3988
 4882TIP3    H114652   5.539   5.551   1.948 -2.4017 -1.7193 -0.2621
 4882TIP3    H214653   5.490   5.596   1.812 -0.2360  1.6498 -0.0259
 4883TIP3   OH214654   5.326   1.430   3.130  0.3923  0.0246 -0.7844
 4883TIP3    H114655   5.356   1.520   3.118  0.1492 -0.0309 -2.0481
 4883TIP3    H214656   5.377   1.380   3.067  0.7936 -0.7946  0.1788
 4884TIP3   OH214657   4.244   0.974   1.596 -0.1768  0.4107 -0.1233
 4884TIP3    H114658   4.294   0.906   1.551 -0.1896  0.3280 -0.0135
 4884TIP3    H214659   4.309   1.035   1.629 -0.0619 -0.2838  0.9927
 4885TIP3   OH214660   1.435   3.636   1.598 -0.2103 -0.2789  0.1199
 4885TIP3    H114661   1.447   3.718   1.549  0.8202  0.2884  1.2461
 4885TIP3    H214662   1.524   3.610   1.621 -0.5172 -1.7897 -0.2827
 4886TIP3   OH214663   2.029   3.752   4.864 -0.5665  0.2174  0.5416
 4886TIP3    H114664   2.116   3.778   4.894 -0.3521 -0.5968  0.6250
 4886TIP3    H214665   2.001   3.685   4.926 -0.1419 -1.4587 -0.9982
 4887TIP3   OH214666   4.778   5.422   1.677 -0.7721  0.2504 -0.1211
 4887TIP3    H114667   4.852   5.362   1.667  1.3410  2.4610  1.2181
 4887TIP3    H214668   4.789   5.485   1.606 -2.6063 -0.4768 -1.1278
 4888TIP3   OH214669   1.244   5.763   1.450  0.1186  0.3501  0.3942
 4888TIP3    H114670   1.317   5.707   1.422  1.3916 -0.0770  3.9600
 4888TIP3    H214671   1.272   5.852   1.428  0.5212 -0.0011 -0.5545
 4889TIP3   OH214672   5.646   5.513   4.623  0.1939 -0.1944  0.1408
 4889TIP3    H114673   5.625   5.606   4.611 -2.1229 -0.6310  0.3404
 4889TIP3    H214674   5.669   5.505   4.715  0.7747  0.2428  0.0369
 4890TIP3   OH214675   1.077   0.956   2.236 -0.4602 -0.3104  0.3817
 4890TIP3    H114676   1.026   1.034   2.259 -1.7576 -1.5186  1.7884
 4890TIP3    H214677   1.148   0.990   2.182 -1.9955  1.6248 -0.5931
 4891TIP3   OH214678   2.389   3.760   2.974 -0.2918 -0.0555  0.1404
 4891TIP3    H114679   2.481   3.738   2.958  0.1801  0.1227  2.2647
 4891TIP3    H214680   2.361   3.808   2.896  1.2907 -0.4863 -0.7197
 4892TIP3   OH214681   3.523   3.545   1.646 -0.4120 -0.4009 -0.6085
 4892TIP3    H114682   3.477   3.531   1.728  2.0174  2.5393  1.4822
 4892TIP3    H214683   3.570   3.462   1.631 -0.0955 -0.6873  1.5966
 4893TIP3   OH214684   2.857   3.665   0.709 -0.4121 -0.2243 -0.3789
 4893TIP3    H114685   2.885   3.684   0.620 -2.0616 -1.3968 -1.2090
 4893TIP3    H214686   2.875   3.745   0.758  0.3215  0.5209 -1.8201
 4894TIP3   OH214687   2.988   2.655   3.293 -0.2733  0.0181  0.3258
 4894TIP3    H114688   2.929   2.622   3.224 -0.9159 -0.2521  0.9903
 4894TIP3    H214689   2.955   2.616   3.374  1.1012 -0.4903  0.6684
 4895TIP3   OH214690   5.665   2.678   4.208 -0.0411  0.0282 -0.0590
 4895TIP3    H114691   5.603   2.740   4.170  0.0476  0.7846  1.0011
 4895TIP3    H214692   5.611   2.605   4.238 -0.2531  0.0476 -0.3812
 4896TIP3   OH214693   3.344   5.377   0.603  0.3309  0.0651  0.4056
 4896TIP3    H114694   3.417   5.439   0.609  1.9404 -1.7096  0.1663
 4896TIP3    H214695   3.286   5.415   0.537  0.9222  1.6133  0.7182
 4897TIP3   OH214696   6.092   0.308   0.489 -0.0293 -0.1560  0.2208
 4897TIP3    H114697   6.001   0.295   0.462 -0.3848  1.9037  0.2443
 4897TIP3    H214698   6.133   0.353   0.415  0.2117  1.4145  1.2607
 4898TIP3   OH214699   1.083   3.788   3.454 -0.2114 -1.0095  0.1460
 4898TIP3    H114700   1.177   3.796   3.469  0.0129 -2.1341 -0.5144
 4898TIP3    H214701   1.049   3.747   3.534 -0.1269 -0.6842  0.3492
 4899TIP3   OH214702   2.662   3.305   3.777  0.4170 -0.2934 -0.3252
 4899TIP3    H114703   2.638   3.338   3.691 -0.9811  0.0639  0.1820
 4899TIP3    H214704   2.621   3.219   3.783 -1.9148  0.8163  1.0079
 4900TIP3   OH214705   4.673   5.257   3.479 -0.2082  0.7406 -0.7941
 4900TIP3    H114706   4.758   5.243   3.437 -0.5286  0.1146 -1.2496
 4900TIP3    H214707   4.695   5.285   3.568  0.4786  1.6179 -1.2231
 4901TIP3   OH214708   1.216   2.801   1.386  0.0324  0.4636  0.2348
 4901TIP3    H114709   1.265   2.727   1.351 -1.3640  0.2856 -1.4440
 4901TIP3    H214710   1.153   2.762   1.446 -1.3857  0.1090 -1.4040
 4902TIP3   OH214711   1.280   3.790   2.397 -0.1171 -0.0972  0.1235
 4902TIP3    H114712   1.279   3.885   2.385 -0.2086 -0.1189 -0.0496
 4902TIP3    H214713   1.359   3.761   2.353  1.2017  0.1509  2.2129
 4903TIP3   OH214714   5.861   5.229   0.218  0.0673 -0.1211 -0.2088
 4903TIP3    H114715   5.901   5.246   0.304  0.3190 -0.0944 -0.3312
 4903TIP3    H214716   5.862   5.134   0.209 -0.3504 -0.1476  0.0031
 4904TIP3   OH214717   0.473   4.714   1.656  0.6618  0.1001 -0.5053
 4904TIP3    H114718   0.472   4.709   1.751  2.6005 -0.6122 -0.4728
 4904TIP3    H214719   0.532   4.787   1.636  1.4054 -0.6378 -1.1292
 4905TIP3   OH214720   2.968   3.663   2.043 -0.3559  0.0895 -0.1339
 4905TIP3    H114721   2.922   3.734   2.087 -0.1822  0.8687 -1.1552
 4905TIP3    H214722   3.059   3.672   2.071 -0.5481 -0.5307  0.7246
 4906TIP3   OH214723   4.119   4.429   4.824  0.1905  0.0219  0.1971
 4906TIP3    H114724   4.032   4.390   4.813  0.7883 -1.0645 -0.8862
 4906TIP3    H214725   4.141   4.463   4.737  0.0685  2.0461  0.9048
 4907TIP3   OH214726   2.330   0.813   4.306  0.0729  0.0067  0.0269
 4907TIP3    H114727   2.278   0.849   4.378 -0.0767 -0.4051  0.1306
 4907TIP3    H214728   2.354   0.889   4.252 -1.7799  0.0699 -0.7702
 4908TIP3   OH214729   3.727   1.337   1.775 -0.0229  1.0321  0.0941
 4908TIP3    H114730   3.661   1.406   1.774 -0.5299  0.6062 -2.2473
 4908TIP3    H214731   3.677   1.256   1.782  0.5206  0.8245  2.0095
 4909TIP3   OH214732   0.332   1.776   0.782 -0.3540 -0.0509  0.1102
 4909TIP3    H114733   0.345   1.682   0.780 -1.0362 -0.2096  1.7606
 4909TIP3    H214734   0.421   1.813   0.778 -0.0572 -0.7779 -0.0588
 4910TIP3   OH214735   3.170   3.424   1.460  0.4159  0.2113 -0.0025
 4910TIP3    H114736   3.206   3.459   1.379 -0.7927 -0.1798 -0.7505
 4910TIP3    H214737   3.142   3.501   1.510  2.4659  0.5347  0.7283
 4911TIP3   OH214738   1.105   2.887   1.126 -0.2175  0.2223  0.2453
 4911TIP3    H114739   1.158   2.893   1.206  1.3404  0.3707 -0.7658
 4911TIP3    H214740   1.152   2.824   1.071 -1.7044 -0.4827 -0.2585
 4912TIP3   OH214741   0.500   4.417   0.966 -0.6542  0.2366  0.6886
 4912TIP3    H114742   0.491   4.404   1.060  1.6630 -0.1757  0.9179
 4912TIP3    H214743   0.509   4.512   0.955  1.7557  0.1330  1.2475
 4913TIP3   OH214744   2.334   1.649   4.047  0.2555 -0.4117 -0.1932
 4913TIP3    H114745   2.398   1.613   3.985  1.9425  0.3186  1.0285
 4913TIP3    H214746   2.280   1.707   3.995  1.6950  0.2627 -0.9952
 4914TIP3   OH214747   0.660   2.828   0.348  0.1430 -0.4690  0.0594
 4914TIP3    H114748   0.600   2.875   0.291  2.7512  2.3244 -0.5944
 4914TIP3    H214749   0.721   2.784   0.289 -0.6698 -2.6492  0.7254
 4915TIP3   OH214750   0.006   0.203   4.773 -0.4516  0.3904 -0.3149
 4915TIP3    H114751   0.019   0.273   4.709 -2.5827 -1.8813 -3.5445
 4915TIP3    H214752   0.068   0.135   4.748  0.3077  0.3060  1.6180
 4916TIP3   OH214753   1.709   3.431   4.935  0.0211 -0.3403  0.3390
 4916TIP3    H114754   1.714   3.447   5.029  0.5556  1.7807 -0.0003
 4916TIP3    H214755   1.801   3.422   4.908 -0.0478  0.5125 -0.1916
 4917TIP3   OH214756   2.840   0.320   4.413  0.5871  0.0347  0.2922
 4917TIP3    H114757   2.871   0.369   4.336  0.4830 -1.0230 -0.4405
 4917TIP3    H214758   2.855   0.228   4.390 -2.7908 -0.5657 -0.0154
 4918TIP3   OH214759   2.093   3.757   1.249  0.7365  0.5939  0.2665
 4918TIP3    H114760   2.041   3.798   1.318  1.4951 -0.6581  1.6612
 4918TIP3    H214761   2.177   3.804   1.252  0.4442  1.1598 -0.4544
 4919TIP3   OH214762   2.061   3.081   4.329 -0.2442 -0.3841  0.3327
 4919TIP3    H114763   2.142   3.051   4.288  0.0200  0.4660  0.2154
 4919TIP3    H214764   2.074   3.066   4.422 -0.0671 -0.5091  0.2886
 4920TIP3   OH214765   4.615   2.335   0.477 -0.4747 -0.5542  0.7565
 4920TIP3    H114766   4.636   2.352   0.569 -1.1409 -0.4918  0.8965
 4920TIP3    H214767   4.659   2.251   0.458 -0.3048 -0.5476  1.1150
 4921TIP3   OH214768   4.252   3.394   2.172 -0.5967  0.0510 -0.1505
 4921TIP3    H114769   4.163   3.423   2.155 -0.2849  0.5140 -1.1005
 4921TIP3    H214770   4.284   3.364   2.087  0.0696 -0.3366  0.2237
 4922TIP3   OH214771   2.264   1.787   1.254 -0.1308 -0.3122  0.2937
 4922TIP3    H114772   2.322   1.714   1.274 -0.6803 -0.4198  1.5873
 4922TIP3    H214773   2.176   1.750   1.260 -0.3821 -0.3695 -2.4944
 4923TIP3   OH214774   2.087   3.635   1.647  0.0145 -0.4116  0.5472
 4923TIP3    H114775   1.992   3.641   1.652 -0.0830  1.0037 -1.6717
 4923TIP3    H214776   2.104   3.590   1.564  1.2325  1.0937 -0.0776
 4924TIP3   OH214777   2.983   4.980   2.790  0.2709  0.4236 -0.3501
 4924TIP3    H114778   3.029   5.036   2.854  0.2868  0.1936 -0.1597
 4924TIP3    H214779   3.018   5.007   2.705  1.8651 -0.7611 -0.1107
 4925TIP3   OH214780   4.931   0.185   3.888  1.0257 -1.1698 -0.6535
 4925TIP3    H114781   4.919   0.214   3.798  1.1533 -0.4726 -0.4536
 4925TIP3    H214782   4.868   0.113   3.899 -1.5938  1.0177 -0.2566
 4926TIP3   OH214783   1.406   4.206   3.864  0.3762  0.1193  0.4103
 4926TIP3    H114784   1.322   4.160   3.872 -0.2660  0.8514 -1.5069
 4926TIP3    H214785   1.393   4.289   3.909  0.0846  0.1947  0.1907
 4927TIP3   OH214786   5.525   2.208   4.489 -1.1510  0.3388 -0.0100
 4927TIP3    H114787   5.603   2.165   4.523 -2.1546 -0.7577  1.0266
 4927TIP3    H214788   5.502   2.158   4.410  0.5318  2.1856 -1.7931
 4928TIP3   OH214789   3.874   5.260   4.292  0.5549 -0.3275 -0.3339
 4928TIP3    H114790   3.813   5.191   4.319 -0.1991 -0.0700 -1.2769
 4928TIP3    H214791   3.939   5.264   4.361  1.2770 -2.7733 -0.7715
 4929TIP3   OH214792   3.138   3.033   0.474 -0.2972  0.4452 -0.0734
 4929TIP3    H114793   3.232   3.034   0.457 -0.2873  1.2344 -0.0053
 4929TIP3    H214794   3.098   3.061   0.392 -0.6067 -1.7813 -0.7551
 4930TIP3   OH214795   1.084   5.937   4.456 -0.1855  0.4389  0.1914
 4930TIP3    H114796   1.169   5.894   4.448 -0.2673  0.2480  0.3388
 4930TIP3    H214797   1.021   5.865   4.466 -0.7154  0.4149 -2.5837
 4931TIP3   OH214798   0.693   0.102   3.925  0.5269  0.1236 -0.1595
 4931TIP3    H114799   0.696   0.006   3.923  0.4172  0.1258 -0.5474
 4931TIP3    H214800   0.686   0.128   3.833 -1.7578  0.4135  0.0403
 4932TIP3   OH214801   3.573   2.972   3.480  0.1066  0.1023  0.3387
 4932TIP3    H114802   3.589   3.022   3.400  1.9503  0.8310  1.0830
 4932TIP3    H214803   3.604   2.884   3.460  0.4236  0.2453  0.1801
 4933TIP3   OH214804   4.067   4.833   2.103  0.3721 -0.6114  0.4345
 4933TIP3    H114805   3.995   4.844   2.041  1.1984 -0.0558 -0.4533
 4933TIP3    H214806   4.044   4.889   2.177 -0.6633 -1.3439  0.6769
 4934TIP3   OH214807   0.564   4.938   4.634 -0.0901 -0.1451 -0.2433
 4934TIP3    H114808   0.471   4.935   4.654  0.2217 -0.8054  1.2427
 4934TIP3    H214809   0.595   5.019   4.675 -0.2390  0.7885 -1.9107
 4935TIP3   OH214810   4.396   5.192   0.882 -0.4185 -0.0560  0.1110
 4935TIP3    H114811   4.349   5.187   0.965  0.8362  1.7929  0.9846
 4935TIP3    H214812   4.373   5.110   0.837 -2.3349 -0.4099  1.5952
 4936TIP3   OH214813   6.017   0.351   4.099 -0.5797 -0.2988  0.3163
 4936TIP3    H114814   6.050   0.436   4.130 -1.9691 -0.0766  1.2884
 4936TIP3    H214815   6.045   0.346   4.008  0.9224  0.4638  0.7002
 4937TIP3   OH214816   6.128   2.986   0.593  0.3754 -0.4987  0.2581
 4937TIP3    H114817   6.197   2.996   0.528 -0.1143 -1.0252 -0.3523
 4937TIP3    H214818   6.174   2.988   0.677  0.7951  2.4055  0.0498
 4938TIP3   OH214819   6.279   4.152   4.333  0.3046  0.1043 -0.4467
 4938TIP3    H114820   6.259   4.130   4.242  0.8728  0.7374 -0.7239
 4938TIP3    H214821   6.326   4.075   4.366 -1.5223 -0.9444 -0.1073
 4939TIP3   OH214822   2.917   2.104   3.933  0.3356  0.7108 -0.2017
 4939TIP3    H114823   2.969   2.173   3.891  0.0937  0.8908 -0.2061
 4939TIP3    H214824   2.935   2.026   3.881  1.4369  0.5261  0.4302
 4940TIP3   OH214825   0.490   0.119   2.466 -0.1819  0.0449 -0.0282
 4940TIP3    H114826   0.435   0.182   2.513 -0.3630 -0.0702 -0.0837
 4940TIP3    H214827   0.550   0.173   2.415 -0.8486  0.1919 -0.6861
 4941TIP3   OH214828   0.568   2.269   3.927 -0.5159  0.4357 -0.3708
 4941TIP3    H114829   0.636   2.222   3.975 -0.9420 -1.1330 -1.2221
 4941TIP3    H214830   0.614   2.342   3.885  0.5136 -0.2292 -0.4266
 4942TIP3   OH214831   5.045   2.305   5.048 -0.0203  0.2798  0.7341
 4942TIP3    H114832   5.012   2.252   4.976  0.7944 -1.7024  1.7406
 4942TIP3    H214833   5.095   2.375   5.006 -1.4057  0.4890 -0.6455
 4943TIP3   OH214834   1.352   5.105   2.099  0.1175 -0.5911 -0.6483
 4943TIP3    H114835   1.358   5.153   2.016 -0.2760  2.5866  0.9996
 4943TIP3    H214836   1.273   5.051   2.089 -1.0731  1.2156 -1.7172
 4944TIP3   OH214837   3.060   5.887   0.430 -0.1473  0.1721 -0.4538
 4944TIP3    H114838   3.031   5.830   0.359  0.5712 -0.1650 -0.4915
 4944TIP3    H214839   3.016   5.853   0.508 -0.2449 -0.0161 -0.5904
 4945TIP3   OH214840   5.900   3.054   3.608 -0.0559 -0.2091  0.0173
 4945TIP3    H114841   5.956   3.042   3.685  0.1002 -0.1383 -0.0859
 4945TIP3    H214842   5.837   3.121   3.635  1.2520  1.3276 -0.5843
 4946TIP3   OH214843   5.974   4.348   1.679 -0.2702 -0.5116  0.3002
 4946TIP3    H114844   5.892   4.321   1.721 -0.1223 -0.8297  0.3935
 4946TIP3    H214845   5.950   4.421   1.623 -0.7944 -1.1809 -0.3806
 4947TIP3   OH214846   5.021   3.855   5.042  0.1981  0.3008  0.2600
 4947TIP3    H114847   5.078   3.856   5.119  0.6960  0.3823 -0.1005
 4947TIP3    H214848   5.066   3.909   4.978 -0.8139  1.2405  0.3202
 4948TIP3   OH214849   3.964   2.102   1.126  0.2754  0.5761 -0.2207
 4948TIP3    H114850   4.045   2.103   1.178  0.1193 -1.2400  0.1275
 4948TIP3    H214851   3.991   2.137   1.041  0.8900  2.1228  0.5720
 4949TIP3   OH214852   1.484   0.880   4.274  0.4414  0.2906 -0.4498
 4949TIP3    H114853   1.534   0.933   4.336 -0.6136  0.4477  0.2893
 4949TIP3    H214854   1.441   0.944   4.218  0.0037  0.1885 -0.2294
 4950TIP3   OH214855   2.876   1.163   3.465  0.6331  0.0026 -0.1169
 4950TIP3    H114856   2.806   1.167   3.400  0.0136  1.8058  0.6060
 4950TIP3    H214857   2.935   1.095   3.432 -1.2677 -1.3515 -0.9113
 4951TIP3   OH214858   3.462   4.562   1.844 -0.3470 -0.2915  0.0917
 4951TIP3    H114859   3.387   4.610   1.878  0.7377  0.2629  1.8483
 4951TIP3    H214860   3.538   4.601   1.887  1.1994  0.3977 -2.9836
 4952TIP3   OH214861   5.901   3.594   2.993 -0.3170 -0.1201 -0.7182
 4952TIP3    H114862   5.817   3.620   2.956 -0.0508  0.3840 -0.9810
 4952TIP3    H214863   5.879   3.533   3.063 -1.0915  2.2069  1.1858
 4953TIP3   OH214864   5.528   1.442   1.195  0.2108 -0.3766 -0.3283
 4953TIP3    H114865   5.486   1.483   1.119  2.0674 -1.1574 -1.8548
 4953TIP3    H214866   5.544   1.352   1.169  3.5743  0.0642 -0.2574
 4954TIP3   OH214867   3.620   5.994   0.500  0.1020  0.0014  0.0727
 4954TIP3    H114868   3.590   5.904   0.488  0.6542 -0.6539  2.9004
 4954TIP3    H214869   3.687   6.007   0.432  0.0696 -1.7449 -0.3273
 4955TIP3   OH214870   4.968   1.816   1.366 -0.0195  0.2815 -0.2907
 4955TIP3    H114871   4.905   1.748   1.342 -0.0578 -0.2544  1.2019
 4955TIP3    H214872   4.914   1.893   1.385 -0.1400  0.1593 -0.1317
 4956TIP3   OH214873   2.019   3.212   2.957 -0.1437 -0.3599 -0.5662
 4956TIP3    H114874   1.964   3.289   2.975  0.6380  0.3800 -1.2547
 4956TIP3    H214875   2.106   3.248   2.938  0.9385 -1.5644  1.7041
 4957TIP3   OH214876   5.773   2.214   0.542  0.2509 -0.3093 -0.1621
 4957TIP3    H114877   5.832   2.267   0.595 -0.3406  1.0795 -0.8349
 4957TIP3    H214878   5.732   2.276   0.483 -0.6275 -1.5075 -0.8579
 4958TIP3   OH214879   0.610   0.650   2.510 -0.2260 -0.3680 -0.0284
 4958TIP3    H114880   0.596   0.594   2.434  1.4188  0.7450 -1.2068
 4958TIP3    H214881   0.656   0.594   2.573 -0.6802 -0.9909 -0.2355
 4959TIP3   OH214882   1.348   5.131   3.249 -0.5086  0.2494 -0.4172
 4959TIP3    H114883   1.419   5.194   3.246 -1.4547  1.3871  0.1489
 4959TIP3    H214884   1.294   5.160   3.323 -0.9215 -1.2816 -0.0845
 4960TIP3   OH214885   4.707   1.873   3.623  0.2599  0.7707  0.5545
 4960TIP3    H114886   4.635   1.811   3.626 -0.8162  1.9688  0.4318
 4960TIP3    H214887   4.773   1.836   3.681 -0.1724 -0.6770  0.1631
 4961TIP3   OH214888   2.054   3.835   4.412  0.6109  0.1885 -0.4205
 4961TIP3    H114889   1.985   3.897   4.435  0.3147 -0.9258  1.9645
 4961TIP3    H214890   2.135   3.885   4.419  0.2480  0.7718 -0.3470
 4962TIP3   OH214891   0.782   4.322   4.094  0.1190  0.0274 -0.0261
 4962TIP3    H114892   0.767   4.411   4.064  0.5063  0.8535  2.0828
 4962TIP3    H214893   0.877   4.317   4.109  0.1260 -0.8056 -0.2768
 4963TIP3   OH214894   4.212   5.436   2.350  0.1251  0.2132  0.1373
 4963TIP3    H114895   4.248   5.349   2.366  0.0772  0.2618  0.5077
 4963TIP3    H214896   4.261   5.493   2.409 -0.0352  0.3968  0.0922
 4964TIP3   OH214897   3.674   5.819   4.527  0.2940  0.0363  1.0230
 4964TIP3    H114898   3.654   5.853   4.614 -1.2715 -2.6172  1.7948
 4964TIP3    H214899   3.714   5.733   4.542  0.2677 -0.3687 -0.8724
 4965TIP3   OH214900   1.003   5.736   0.186  0.8330 -0.5257 -0.5200
 4965TIP3    H114901   1.041   5.822   0.172 -2.1411  1.0606  0.2066
 4965TIP3    H214902   1.023   5.716   0.278  1.4856 -0.5994 -0.6753
 4966TIP3   OH214903   2.232   2.083   1.858 -0.2222 -0.4214 -0.3063
 4966TIP3    H114904   2.206   2.164   1.902  0.5278  0.4794 -1.4597
 4966TIP3    H214905   2.241   2.019   1.929  0.5841  0.8786  0.8148
 4967TIP3   OH214906   4.121   3.423   3.327 -0.1713  0.1812  0.9049
 4967TIP3    H114907   4.078   3.339   3.310 -0.1463  0.4168 -0.3827
 4967TIP3    H214908   4.212   3.410   3.299  0.6440 -0.2671  3.4691
 4968TIP3   OH214909   6.196   2.664   2.763 -0.2773  0.3188 -0.1427
 4968TIP3    H114910   6.141   2.725   2.812 -0.1016 -0.6896  1.3696
 4968TIP3    H214911   6.257   2.628   2.828 -0.9276 -2.0924 -0.7590
 4969TIP3   OH214912   4.736   5.800   4.516 -0.9277 -0.0633  0.0622
 4969TIP3    H114913   4.774   5.820   4.430 -0.5068 -1.1365 -0.0198
 4969TIP3    H214914   4.642   5.811   4.504 -0.9278 -0.8905 -0.7372
 4970TIP3   OH214915   6.090   1.360   3.395  0.0896 -0.2397  0.2750
 4970TIP3    H114916   6.097   1.401   3.481  0.5742  2.2133 -0.8494
 4970TIP3    H214917   6.016   1.405   3.353 -0.4493 -1.7311 -0.4490
 4971TIP3   OH214918   0.153   2.653   3.162 -0.0661  0.2733  0.3609
 4971TIP3    H114919   0.143   2.643   3.256  2.3384 -1.6584  0.5007
 4971TIP3    H214920   0.247   2.671   3.149 -0.7314  3.1680 -1.5428
 4972TIP3   OH214921   2.543   1.027   0.059  0.3452  0.6607  0.6546
 4972TIP3    H114922   2.594   1.024   0.140  0.1900  1.0530  0.7685
 4972TIP3    H214923   2.499   0.941   0.055 -0.7783  1.1577  1.7268
 4973TIP3   OH214924   5.936   4.207   0.304 -0.2260  0.5559 -0.1275
 4973TIP3    H114925   5.998   4.143   0.339 -0.9126  0.4406  0.9183
 4973TIP3    H214926   5.978   4.240   0.224  0.7731 -0.1539  0.0860
 4974TIP3   OH214927   5.063   1.646   3.497  0.0742  0.4738  0.4593
 4974TIP3    H114928   5.075   1.660   3.403 -2.6640  0.4975  0.0262
 4974TIP3    H214929   5.112   1.566   3.515  2.2379  1.4850 -0.5214
 4975TIP3   OH214930   5.875   3.461   5.172 -0.1165 -0.0011 -0.8883
 4975TIP3    H114931   5.916   3.479   5.088 -0.3196 -0.9779 -1.2129
 4975TIP3    H214932   5.919   3.382   5.204  0.1644  0.5230  0.0691
 4976TIP3   OH214933   6.100   1.133   3.747  0.4188 -0.5817 -0.5553
 4976TIP3    H114934   6.087   1.181   3.665  0.7137  0.1472 -0.1827
 4976TIP3    H214935   6.166   1.183   3.794 -1.3269  0.2890  1.1125
 4977TIP3   OH214936   0.388   5.696   3.844  0.0857  0.5055  0.2115
 4977TIP3    H114937   0.356   5.609   3.866  0.5406  0.5636  1.1536
 4977TIP3    H214938   0.475   5.681   3.807  0.8095  0.6390  1.7817
 4978TIP3   OH214939   4.165   5.189   4.166 -0.8826  0.7480 -0.1193
 4978TIP3    H114940   4.200   5.259   4.110  2.8279  0.6280  1.7417
 4978TIP3    H214941   4.161   5.112   4.109 -0.5776  1.4116 -1.0674
 4979TIP3   OH214942   2.552   1.732   0.362  0.1067  0.5121  0.4135
 4979TIP3    H114943   2.485   1.790   0.326 -0.5032 -0.3117  0.1952
 4979TIP3    H214944   2.618   1.726   0.292  1.3149  2.6651  1.2450
 4980TIP3   OH214945   4.493   2.301   4.047 -0.0139 -0.1025 -0.1066
 4980TIP3    H114946   4.534   2.227   4.002 -0.3841 -0.7165  0.5449
 4980TIP3    H214947   4.417   2.323   3.992 -0.6664 -1.0775  0.3721
 4981TIP3   OH214948   3.867   0.289   2.592  0.0206 -0.2848 -0.3286
 4981TIP3    H114949   3.889   0.197   2.574  0.7204  0.1778 -2.0508
 4981TIP3    H214950   3.850   0.326   2.505 -1.4974  0.9282  0.4377
 4982TIP3   OH214951   0.375   4.003   0.312  0.0432 -0.1998  0.5168
 4982TIP3    H114952   0.393   3.914   0.282 -0.2248  0.4900 -1.8464
 4982TIP3    H214953   0.445   4.022   0.375  0.4199 -1.8672  0.6375
 4983TIP3   OH214954   3.917   2.931   3.802 -0.5494 -0.1466 -0.4309
 4983TIP3    H114955   3.875   2.960   3.721 -0.7727  0.7753  0.0067
 4983TIP3    H214956   3.905   3.004   3.863 -0.2552 -0.7715  0.3905
 4984TIP3   OH214957   5.968   1.857   3.731 -0.8895 -0.0669  0.0510
 4984TIP3    H114958   6.041   1.885   3.785  0.0904  2.0928 -2.1673
 4984TIP3    H214959   5.892   1.860   3.788  0.4570 -0.7119  1.9708
 4985TIP3   OH214960   4.752   3.220   4.339 -0.1215 -0.1072  0.1699
 4985TIP3    H114961   4.769   3.149   4.401 -0.3890  0.6683  1.1417
 4985TIP3    H214962   4.661   3.245   4.355 -0.0195  0.4797 -0.1547
 4986TIP3   OH214963   5.934   3.202   2.007 -0.9026 -0.2660 -0.8574
 4986TIP3    H114964   5.976   3.253   2.076 -1.0988 -0.0114 -0.9263
 4986TIP3    H214965   5.987   3.123   2.000 -1.9231 -1.1970  0.9122
 4987TIP3   OH214966   5.820   0.750   4.445  0.2910  0.2095  0.0481
 4987TIP3    H114967   5.868   0.667   4.443  0.5506  0.3571  0.0666
 4987TIP3    H214968   5.855   0.796   4.522  1.4036  1.0746 -0.9300
 4988TIP3   OH214969   4.026   0.263   0.795 -0.3681 -0.1483 -0.3845
 4988TIP3    H114970   4.119   0.254   0.771 -0.3708  0.3633 -0.5999
 4988TIP3    H214971   4.027   0.293   0.886 -0.3207 -0.1799 -0.3746
 4989TIP3   OH214972   4.331   1.933   1.889 -0.5250  0.7766 -0.3080
 4989TIP3    H114973   4.289   1.854   1.924 -0.6310  1.2008  0.5370
 4989TIP3    H214974   4.262   1.978   1.842  0.0187 -0.6635 -2.6327
 4990TIP3   OH214975   3.486   1.293   3.781  0.0574 -0.1278  0.3373
 4990TIP3    H114976   3.464   1.200   3.786 -0.5883  0.0049  0.0479
 4990TIP3    H214977   3.576   1.295   3.748 -0.1233 -0.6394 -0.2047
 4991TIP3   OH214978   1.747   0.279   1.027 -0.3005 -0.1486  0.0996
 4991TIP3    H114979   1.774   0.190   1.006  0.0542  0.0041 -0.1105
 4991TIP3    H214980   1.711   0.273   1.115  2.7871  0.0416  1.5226
 4992TIP3   OH214981   3.640   0.772   0.428 -0.1237  0.0558  0.4096
 4992TIP3    H114982   3.545   0.771   0.415  0.0032  0.7420 -0.7290
 4992TIP3    H214983   3.675   0.734   0.348  0.6164  1.4269  0.0520
 4993TIP3   OH214984   4.832   1.108   0.988  0.4552 -0.3799  0.3675
 4993TIP3    H114985   4.765   1.152   1.040 -0.4980 -1.1650 -0.1684
 4993TIP3    H214986   4.896   1.077   1.053 -0.3443 -0.7205  1.0153
 4994TIP3   OH214987   2.073   2.297   4.701 -0.6112  0.1117  0.3771
 4994TIP3    H114988   2.122   2.254   4.771 -2.4035 -1.4618  0.7477
 4994TIP3    H214989   1.999   2.339   4.745  0.6057  3.0190 -0.0862
 4995TIP3   OH214990   3.505   1.536   0.757  0.1890  0.0962  0.0034
 4995TIP3    H114991   3.582   1.592   0.758 -0.8929  1.6552 -0.3015
 4995TIP3    H214992   3.525   1.468   0.693  0.5905  1.5883 -1.5250
 4996TIP3   OH214993   1.001   5.785   1.308  0.0810  0.1028 -0.3190
 4996TIP3    H114994   0.931   5.832   1.354 -0.3169  0.4033 -1.2169
 4996TIP3    H214995   1.080   5.808   1.357 -0.5024 -0.8028  1.1497
 4997TIP3   OH214996   5.814   3.644   1.361 -0.0220 -0.4856  0.1274
 4997TIP3    H114997   5.765   3.656   1.442 -1.5874 -3.3523 -0.2997
 4997TIP3    H214998   5.814   3.550   1.345  2.4099 -0.2594 -1.9224
 4998TIP3   OH214999   0.128   4.464   0.415 -0.2923 -0.2257 -0.0932
 4998TIP3    H115000   0.145   4.537   0.475  0.0680 -2.0830  2.1701
 4998TIP3    H215001   0.150   4.500   0.328  0.5264  2.1348  0.9995
 4999TIP3   OH215002   6.251   4.960   1.367  0.4107 -0.0930  0.5781
 4999TIP3    H115003   6.315   4.898   1.402 -0.4358 -0.5073  1.4512
 4999TIP3    H215004   6.228   4.926   1.281  0.9241 -0.2621  0.5050
 5000TIP3   OH215005   3.931   0.088   1.562  0.6118 -0.1357 -0.2764
 5000TIP3    H115006   3.930   0.181   1.585  1.1750 -0.1274 -0.2757
 5000TIP3    H215007   3.995   0.049   1.621 -1.1177 -0.9207  1.1715
 5001TIP3   OH215008   0.867   4.232   2.237  0.2647 -0.0273  0.1864
 5001TIP3    H115009   0.800   4.164   2.245  1.1672 -0.8693  0.7525
 5001TIP3    H215010   0.920   4.205   2.162  1.3695 -0.6339  1.1591
 5002TIP3   OH215011   1.034   3.699   0.374  0.1623 -0.1102  0.4395
 5002TIP3    H115012   1.077   3.615   0.387  1.5096  0.5750  0.6716
 5002TIP3    H215013   1.090   3.762   0.421 -0.6618  0.9445  0.0634
 5003TIP3   OH215014   0.707   1.952   2.371 -0.8000 -0.5655  0.0999
 5003TIP3    H115015   0.637   1.999   2.417 -0.6138 -1.1847  1.0268
 5003TIP3    H215016   0.776   1.942   2.436  1.9202  3.4944 -1.7521
 5004TIP3   OH215017   2.446   3.580   3.222  0.0222  0.0887 -0.0720
 5004TIP3    H115018   2.368   3.533   3.194 -2.1948  2.4674  1.5363
 5004TIP3    H215019   2.474   3.628   3.145  0.1771 -1.1193 -0.7850
 5005TIP3   OH215020   4.948   1.189   3.117 -0.2438  0.1756 -0.2566
 5005TIP3    H115021   4.880   1.126   3.140  0.3596  0.3659  2.2939
 5005TIP3    H215022   4.964   1.238   3.197  2.9931  0.0608 -0.7010
 5006TIP3   OH215023   3.662   0.265   2.127  0.1239  0.1254 -0.2804
 5006TIP3    H115024   3.577   0.308   2.115  0.5613  1.0351 -0.1727
 5006TIP3    H215025   3.720   0.305   2.063  1.0820  1.2261  1.2007
 5007TIP3   OH215026   5.776   0.732   5.098  0.3988  0.4375 -0.1003
 5007TIP3    H115027   5.818   0.689   5.173 -1.5166 -0.3823  0.5721
 5007TIP3    H215028   5.825   0.814   5.087  1.3579  0.1112  1.3990
 5008TIP3   OH215029   0.027   1.341   3.341 -0.0091 -0.6427  0.1787
 5008TIP3    H115030   0.042   1.357   3.248 -0.0538 -0.7889  0.1467
 5008TIP3    H215031  -0.062   1.307   3.346 -0.5072  0.6225  0.4125
 5009TIP3   OH215032   4.286   0.817   1.070  0.0280  0.0687  0.1240
 5009TIP3    H115033   4.285   0.803   0.976  0.8999 -0.3864  0.1701
 5009TIP3    H215034   4.274   0.730   1.108  2.5076 -0.2371  0.4103
 5010TIP3   OH215035   5.975   3.351   2.631  0.4990  0.1826  0.5342
 5010TIP3    H115036   6.038   3.331   2.701  0.6796 -0.8426  0.1087
 5010TIP3    H215037   6.026   3.401   2.568  1.2477 -1.5412 -0.3172
 5011TIP3   OH215038   6.288   2.467   4.699  0.0239 -0.2397  0.3989
 5011TIP3    H115039   6.238   2.415   4.635 -1.7254  1.7218  0.0859
 5011TIP3    H215040   6.233   2.468   4.777  0.1879  0.8408  0.5097
 5012TIP3   OH215041   2.334   3.929   2.732 -0.5459  0.5944  0.3850
 5012TIP3    H115042   2.250   3.954   2.693 -0.9196 -0.1509  0.6846
 5012TIP3    H215043   2.376   3.875   2.665 -0.6556  0.3229  0.5305
 5013TIP3   OH215044   1.738   4.211   2.806 -0.6008  0.2162 -0.6145
 5013TIP3    H115045   1.751   4.266   2.883  3.9729 -1.3465  0.0418
 5013TIP3    H215046   1.764   4.266   2.732  0.2062  0.1364 -0.3973
 5014TIP3   OH215047   1.468   5.156   4.341  0.5017  0.0133 -0.2132
 5014TIP3    H115048   1.504   5.103   4.412  0.4736  1.3536  0.8468
 5014TIP3    H215049   1.474   5.100   4.263  0.6707 -1.4391  0.8032
 5015TIP3   OH215050   1.037   2.714   2.492 -0.1036  0.2063 -0.1223
 5015TIP3    H115051   0.993   2.727   2.576  1.5640 -0.2208  0.8853
 5015TIP3    H215052   1.117   2.766   2.499  0.1461  0.0149 -1.3812
 5016TIP3   OH215053   6.162   5.936   1.290 -0.5411  0.1235  0.3637
 5016TIP3    H115054   6.200   6.010   1.243 -0.6069  0.7467  1.2684
 5016TIP3    H215055   6.237   5.894   1.332 -0.1520 -1.7146 -1.9304
 5017TIP3   OH215056   0.458   1.717   4.612  0.3722 -0.7845 -0.0368
 5017TIP3    H115057   0.518   1.790   4.624  0.5282 -0.7707 -0.8596
 5017TIP3    H215058   0.509   1.652   4.564 -0.3409 -0.6706 -0.9720
 5018TIP3   OH215059   3.046   2.558   3.672  0.1070  0.1792  0.4576
 5018TIP3    H115060   3.131   2.551   3.627 -0.3306  0.9361 -0.5301
 5018TIP3    H215061   2.982   2.554   3.601 -0.5911  1.8986  0.9294
 5019TIP3   OH215062   3.393   0.344   3.586  0.0602 -0.3005  0.6495
 5019TIP3    H115063   3.413   0.427   3.543 -1.3227  0.0709  0.6594
 5019TIP3    H215064   3.414   0.360   3.678 -0.6078  0.2142  0.7281
 5020TIP3   OH215065   2.706   0.248   0.922 -0.4364 -0.3898 -0.5213
 5020TIP3    H115066   2.630   0.296   0.954 -0.8105  0.0777 -2.0439
 5020TIP3    H215067   2.781   0.293   0.960 -0.8867 -1.6443  2.0841
 5021TIP3   OH215068   1.125   3.105   0.902 -0.2477 -0.4242 -0.0467
 5021TIP3    H115069   1.089   3.136   0.819 -1.9224 -1.0970  0.3817
 5021TIP3    H215070   1.119   3.010   0.897 -2.0696 -0.4486  1.5106
 5022TIP3   OH215071   5.478   5.875   3.506 -0.2617 -0.0898 -0.8518
 5022TIP3    H115072   5.472   5.965   3.537  3.8952  0.3437 -0.7453
 5022TIP3    H215073   5.530   5.880   3.426 -0.5164 -2.3522 -1.2457
 5023TIP3   OH215074   1.069   0.324   0.764 -0.2403  0.0627 -0.0574
 5023TIP3    H115075   1.103   0.411   0.783  0.6881 -0.0928 -0.9010
 5023TIP3    H215076   1.081   0.275   0.845 -0.3389  0.5862  0.2765
 5024TIP3   OH215077   5.354   1.511   0.235 -0.0943  0.0278 -0.0426
 5024TIP3    H115078   5.325   1.552   0.317  0.9675 -0.9255  0.8526
 5024TIP3    H215079   5.276   1.468   0.200 -0.2571 -0.7878  1.2563
 5025TIP3   OH215080   4.273   0.989   4.894  0.5066 -0.1479 -0.2370
 5025TIP3    H115081   4.242   1.009   4.806  0.3966 -0.1710 -0.2031
 5025TIP3    H215082   4.342   0.924   4.881 -1.5456 -2.5029 -0.1261
 5026TIP3   OH215083   3.848   0.257   0.305 -0.1345 -0.6389  0.2732
 5026TIP3    H115084   3.888   0.178   0.342 -0.5968 -0.6396  0.7761
 5026TIP3    H215085   3.778   0.225   0.248 -0.2349 -0.5961  0.3727
 5027TIP3   OH215086   2.485   2.384   1.563 -0.0925  0.2942 -0.2115
 5027TIP3    H115087   2.420   2.440   1.521  0.0693  0.0619 -0.7820
 5027TIP3    H215088   2.499   2.313   1.500  4.4483  2.8621 -2.5502
 5028TIP3   OH215089   0.732   5.701   0.573 -0.5018  0.0800 -0.5221
 5028TIP3    H115090   0.657   5.758   0.558 -1.3678 -0.9330 -0.1333
 5028TIP3    H215091   0.808   5.755   0.550 -1.3300  1.1621 -0.7900
 5029TIP3   OH215092   0.851   2.727   3.300  0.2696  0.0902  0.1090
 5029TIP3    H115093   0.934   2.684   3.321  0.9742  0.9173 -0.8533
 5029TIP3    H215094   0.797   2.657   3.262  0.8615 -0.2697 -0.0836
 5030TIP3   OH215095   5.053   5.383   3.872 -0.2904  0.2647 -0.0134
 5030TIP3    H115096   5.013   5.468   3.893  0.6787  1.0703 -1.2597
 5030TIP3    H215097   5.070   5.343   3.958 -0.7432  1.3328  0.6022
 5031TIP3   OH215098   3.538   3.775   3.512  0.3234  0.1906  0.0618
 5031TIP3    H115099   3.597   3.706   3.542  0.8748  1.2667  1.5878
 5031TIP3    H215100   3.595   3.846   3.483 -0.2072 -0.4038 -2.7927
 5032TIP3   OH215101   2.571   3.004   3.797  0.3572 -0.0769  0.3409
 5032TIP3    H115102   2.656   3.022   3.837  0.3362  0.0516  0.3272
 5032TIP3    H215103   2.577   2.912   3.770  0.4039 -0.1381  0.5575
 5033TIP3   OH215104   3.927   5.790   2.992 -0.2446  0.2072  0.1291
 5033TIP3    H115105   3.878   5.729   2.937 -2.2928  2.2887 -0.5417
 5033TIP3    H215106   3.928   5.872   2.942  4.2163  0.3330  0.0324
 5034TIP3   OH215107   4.390   4.429   2.453 -0.9011 -0.3860 -0.0814
 5034TIP3    H115108   4.329   4.426   2.380 -0.2942  0.9721 -0.6931
 5034TIP3    H215109   4.476   4.421   2.413 -0.4695  1.7827  0.2599
 5035TIP3   OH215110   4.502   1.580   1.463 -0.3756  0.4200  0.7044
 5035TIP3    H115111   4.457   1.508   1.419 -1.2329  1.8531 -0.9106
 5035TIP3    H215112   4.575   1.539   1.510  1.5684 -1.1771 -3.2489
 5036TIP3   OH215113   5.425   3.088   1.970  0.5962  0.5133  0.1050
 5036TIP3    H115114   5.482   3.042   1.909  0.2818  0.2044  0.0384
 5036TIP3    H215115   5.338   3.084   1.929  0.5296  0.9980  0.1897
 5037TIP3   OH215116   5.577   0.507   3.888  1.0417 -0.3455 -0.7344
 5037TIP3    H115117   5.519   0.449   3.839  1.3090 -0.4976 -0.8761
 5037TIP3    H215118   5.665   0.470   3.875  1.1894 -0.0288 -0.6549
 5038TIP3   OH215119   3.998   1.640   2.401  0.6313 -0.7134  0.4056
 5038TIP3    H115120   3.933   1.657   2.469  1.4225  2.5224  0.5277
 5038TIP3    H215121   4.079   1.626   2.449  1.0445  0.8305  0.2071
 5039TIP3   OH215122   2.292   4.601   3.061  0.1473 -0.0635 -0.0211
 5039TIP3    H115123   2.206   4.558   3.060 -0.6097  1.3853  0.1143
 5039TIP3    H215124   2.318   4.604   2.970 -0.7272  0.9398 -0.2625
 5040TIP3   OH215125   1.310   1.568   2.601  0.5467 -0.1607 -0.4046
 5040TIP3    H115126   1.247   1.504   2.635  0.9356  0.2902  1.2515
 5040TIP3    H215127   1.384   1.515   2.572  0.2166 -0.5658 -0.5248
 5041TIP3   OH215128   1.441   1.223   3.799 -0.4983 -0.0702 -0.4059
 5041TIP3    H115129   1.500   1.157   3.836  0.7655  0.6599 -1.0232
 5041TIP3    H215130   1.408   1.184   3.718  0.6368  0.2032 -1.0280
 5042TIP3   OH215131   5.362   3.284   3.871 -0.0112 -0.0963  0.5022
 5042TIP3    H115132   5.267   3.277   3.885  0.2373 -0.7588  2.0994
 5042TIP3    H215133   5.397   3.199   3.898  0.9553 -0.2276 -1.0648
 5043TIP3   OH215134   3.300   2.638   1.686  0.2459  0.9993  0.7594
 5043TIP3    H115135   3.296   2.586   1.766 -1.1363  0.9901  0.7100
 5043TIP3    H215136   3.213   2.677   1.679  0.3070  0.9028 -0.8069
 5044TIP3   OH215137   3.042   0.050   0.621 -0.5922  0.4454  0.6362
 5044TIP3    H115138   2.949   0.060   0.641 -0.7044  0.4068  0.1445
 5044TIP3    H215139   3.047  -0.031   0.571 -0.3674  0.7304  0.1904
 5045TIP3   OH215140   4.474   1.461   0.032 -0.0195  0.3265 -0.2179
 5045TIP3    H115141   4.441   1.371   0.040  1.0782 -0.1579 -0.8847
 5045TIP3    H215142   4.539   1.456  -0.037 -0.4780  1.8147 -0.7880
 5046TIP3   OH215143   2.900   3.984   3.913  0.5109  0.4715 -0.2322
 5046TIP3    H115144   2.975   4.003   3.855  0.5552  0.1371 -0.2865
 5046TIP3    H215145   2.905   3.890   3.928  0.3848  0.5296  0.1642
 5047TIP3   OH215146   0.756   3.474   3.283  0.4805 -0.0094  0.2562
 5047TIP3    H115147   0.802   3.390   3.279  0.1057 -0.1871 -0.5836
 5047TIP3    H215148   0.824   3.538   3.261  0.0101 -0.4208 -2.8710
 5048TIP3   OH215149   0.697   4.710   4.753  0.1813  0.3848 -0.2717
 5048TIP3    H115150   0.619   4.761   4.731 -0.9688 -1.0747  0.2629
 5048TIP3    H215151   0.760   4.774   4.784 -0.4312  1.7258 -1.6519
 5049TIP3   OH215152   3.358   1.099   0.057 -0.0174  1.0349 -0.0583
 5049TIP3    H115153   3.301   1.176   0.061 -2.8731 -0.9204 -0.2766
 5049TIP3    H215154   3.370   1.072   0.148 -0.8518  0.5298 -0.0858
 5050TIP3   OH215155   5.961  -0.022   4.375 -0.0451  0.5482  0.4796
 5050TIP3    H115156   5.946   0.065   4.340 -0.4102  0.6821  0.9672
 5050TIP3    H215157   5.886  -0.039   4.432  0.4805  0.2939  1.1158
 5051TIP3   OH215158   4.145   3.828   2.987 -0.2707  0.1697 -0.3344
 5051TIP3    H115159   4.134   3.830   2.892  0.3628  1.9376 -0.4178
 5051TIP3    H215160   4.115   3.914   3.016  1.2210  0.3278  0.8477
 5052TIP3   OH215161   5.848   0.859   4.722  0.6149 -0.5162 -0.1134
 5052TIP3    H115162   5.768   0.809   4.706 -0.1739  0.7364 -0.2039
 5052TIP3    H215163   5.837   0.893   4.811  0.1004  1.2835 -0.8099
 5053TIP3   OH215164   1.682   1.288   3.503  0.7374  0.0105  0.1635
 5053TIP3    H115165   1.592   1.278   3.472  0.6524 -0.1187  0.4472
 5053TIP3    H215166   1.735   1.275   3.425  0.5953 -1.9220  0.3284
 5054TIP3   OH215167   1.433   1.220   1.912  0.1508  0.3848  0.4836
 5054TIP3    H115168   1.498   1.201   1.844 -0.2095  0.9320 -0.0256
 5054TIP3    H215169   1.422   1.315   1.909  0.8279  0.5396  1.9716
 5055TIP3   OH215170   0.724   3.095   2.470  0.4797 -0.6796  0.1018
 5055TIP3    H115171   0.658   3.117   2.404  0.6585 -1.9779 -0.5358
 5055TIP3    H215172   0.698   3.010   2.504  0.8960 -0.4399  1.0839
 5056TIP3   OH215173   3.290   5.081   1.935 -0.1615 -0.3504 -0.3668
 5056TIP3    H115174   3.366   5.095   1.992  1.6627 -0.6922 -2.5658
 5056TIP3    H215175   3.323   5.025   1.865 -2.9430 -1.9808 -0.5118
 5057TIP3   OH215176   5.134   0.204   3.501 -0.3552  0.6839 -0.4932
 5057TIP3    H115177   5.196   0.150   3.550 -0.1646  2.7056  1.6765
 5057TIP3    H215178   5.188   0.251   3.437 -0.4935 -1.3745 -2.2454
 5058TIP3   OH215179   5.458   4.165   0.880 -0.1302 -0.3748  0.0813
 5058TIP3    H115180   5.512   4.106   0.934  0.6461  0.2632  0.0241
 5058TIP3    H215181   5.460   4.126   0.792  2.9321  1.2497 -0.7186
 5059TIP3   OH215182   5.821   2.839   3.964  0.2101 -0.1920 -0.3328
 5059TIP3    H115183   5.837   2.933   3.954 -0.6869  0.1658  1.1818
 5059TIP3    H215184   5.727   2.829   3.946  0.5597 -1.0479 -1.8508
 5060TIP3   OH215185   4.613   3.667   3.779 -0.3821  0.7738 -0.2739
 5060TIP3    H115186   4.678   3.696   3.715 -1.2793  1.1894 -1.0296
 5060TIP3    H215187   4.580   3.748   3.819  0.5792  0.4880  1.1567
 5061TIP3   OH215188   1.718   2.585   3.979  0.0043 -0.6484 -0.6860
 5061TIP3    H115189   1.731   2.495   4.007 -0.2481 -0.7014 -0.7350
 5061TIP3    H215190   1.693   2.632   4.059  1.6657 -0.2898 -0.3441
 5062TIP3   OH215191   1.584   0.234   5.155 -0.9188  0.1898 -0.7613
 5062TIP3    H115192   1.673   0.228   5.122 -0.4976 -1.4563  0.5538
 5062TIP3    H215193   1.580   0.317   5.202  0.2538 -0.2031  0.0604
 5063TIP3   OH215194   5.856   5.079   1.238  0.0068  0.1088  0.2363
 5063TIP3    H115195   5.886   5.094   1.148 -0.5700  0.7796  0.1459
 5063TIP3    H215196   5.832   5.166   1.270 -1.5943 -0.3654  0.3890
 5064TIP3   OH215197   3.256   3.905   2.752 -0.2852 -0.2740 -0.1927
 5064TIP3    H115198   3.256   3.931   2.844  4.2913 -0.5614  0.1258
 5064TIP3    H215199   3.238   3.986   2.705  1.7164  0.9493  0.9806
 5065TIP3   OH215200   1.708   3.682   3.100 -0.4139 -0.0971  0.0936
 5065TIP3    H115201   1.748   3.620   3.160 -0.7477  0.0598  0.4822
 5065TIP3    H215202   1.777   3.747   3.083  0.9931 -2.1023 -2.6573
 5066TIP3   OH215203   2.899   0.807   5.033  0.9276 -0.1463  0.2009
 5066TIP3    H115204   2.926   0.897   5.015  0.4326 -0.0576 -0.1266
 5066TIP3    H215205   2.900   0.800   5.128  2.7438 -0.3506  0.1958
 5067TIP3   OH215206   6.308   4.146   2.879  0.3188 -0.3552 -0.0925
 5067TIP3    H115207   6.235   4.172   2.822 -0.1719 -2.0059 -0.2650
 5067TIP3    H215208   6.386   4.168   2.829 -0.0566  0.8202 -0.1940
 5068TIP3   OH215209   4.575   1.055   2.866 -0.1990  0.3090 -0.0417
 5068TIP3    H115210   4.602   1.007   2.944  0.9387  0.9691 -0.0071
 5068TIP3    H215211   4.565   0.988   2.799 -0.6201 -0.1974  0.5213
 5069TIP3   OH215212   4.961   0.607   2.825  0.4363  0.3753  0.0514
 5069TIP3    H115213   4.899   0.632   2.894 -2.7924  0.4458 -2.6314
 5069TIP3    H215214   4.986   0.690   2.785 -1.8682  0.1612 -2.0554
 5070TIP3   OH215215   4.739   0.645   3.028 -0.2449 -0.2883  0.2149
 5070TIP3    H115216   4.685   0.681   2.958 -0.7050  1.2118  1.2850
 5070TIP3    H215217   4.684   0.579   3.070 -1.0537  0.8239  0.9336
 5071TIP3   OH215218   2.602   3.174   4.970  0.5766  0.1976 -0.6546
 5071TIP3    H115219   2.602   3.101   4.908  1.5855 -1.0397  0.7243
 5071TIP3    H215220   2.522   3.161   5.022  0.0547  0.8794 -1.2585
 5072TIP3   OH215221   3.642   3.888   2.733  0.1690 -0.1856  0.0681
 5072TIP3    H115222   3.576   3.931   2.788 -0.4386 -2.6348  1.3846
 5072TIP3    H215223   3.646   3.942   2.654 -2.2034  0.9631  0.6425
 5073TIP3   OH215224   6.223   1.842   3.047 -0.6392 -0.2066 -0.5766
 5073TIP3    H115225   6.143   1.830   3.098 -1.2447  1.4229 -1.0386
 5073TIP3    H215226   6.293   1.846   3.111 -1.2917  1.0642  0.0924
 5074TIP3   OH215227   5.570   1.902   4.774  0.3604 -0.4736  0.0923
 5074TIP3    H115228   5.509   1.894   4.700  0.8598  0.9544 -0.4953
 5074TIP3    H215229   5.655   1.912   4.733  0.5608  1.0722  0.8468
 5075TIP3   OH215230   1.105   1.260   3.702  0.0411 -0.0469  0.0006
 5075TIP3    H115231   1.104   1.356   3.700 -1.2043 -0.0533 -0.3678
 5075TIP3    H215232   1.014   1.234   3.688 -0.2150 -1.2667  3.2329
 5076TIP3   OH215233   5.773   3.569   0.585  0.7129 -0.1184 -0.4770
 5076TIP3    H115234   5.852   3.613   0.554  1.3062 -0.5909  0.3239
 5076TIP3    H215235   5.790   3.551   0.678 -0.2273 -0.4661 -0.3579
 5077TIP3   OH215236   3.361   0.344   2.045 -0.5941  0.1736 -0.3378
 5077TIP3    H115237   3.335   0.279   2.110 -1.1430 -0.6362 -1.3420
 5077TIP3    H215238   3.282   0.398   2.033 -0.5534  0.1999 -0.4828
 5078TIP3   OH215239   5.064   3.302   3.939  0.1403  0.1871 -0.2644
 5078TIP3    H115240   5.096   3.240   4.005 -1.0633 -0.2339 -0.0551
 5078TIP3    H215241   4.999   3.252   3.890  0.1185  0.8923 -0.9593
 5079TIP3   OH215242   4.528   3.066   3.231  0.0844 -0.1350 -0.2860
 5079TIP3    H115243   4.593   3.009   3.273  0.2176 -0.2414 -0.6361
 5079TIP3    H215244   4.459   3.075   3.297  0.9366  0.8385  0.5172
 5080TIP3   OH215245   1.949   0.140   3.144  0.3940  0.5040  0.3861
 5080TIP3    H115246   1.904   0.055   3.141  1.1168  0.0831  1.1154
 5080TIP3    H215247   1.898   0.196   3.086 -0.4195 -0.2757  0.3283
 5081TIP3   OH215248   5.644   2.258   1.377  0.1257 -0.0829 -0.3896
 5081TIP3    H115249   5.693   2.185   1.415  0.0617 -0.2711 -0.6654
 5081TIP3    H215250   5.553   2.228   1.378 -0.0056  0.3146  0.2367
 5082TIP3   OH215251   5.302   3.573   2.111 -0.0674 -0.5625  0.0065
 5082TIP3    H115252   5.388   3.615   2.111 -0.6901  0.7844 -0.7139
 5082TIP3    H215253   5.248   3.628   2.166 -0.5521 -1.2345  0.2163
 5083TIP3   OH215254   0.265   1.930   4.235 -0.3352 -0.4163 -0.0283
 5083TIP3    H115255   0.355   1.937   4.267 -0.3309 -0.6507  0.0161
 5083TIP3    H215256   0.261   1.843   4.195  0.1720  0.5272 -2.2630
 5084TIP3   OH215257   0.941   3.358   1.310 -0.4795  0.1631 -0.5132
 5084TIP3    H115258   0.940   3.289   1.376 -1.8991  0.9013  0.3030
 5084TIP3    H215259   0.993   3.323   1.239  1.1192 -0.6635  0.9941
 5085TIP3   OH215260   3.753   3.920   3.414  0.3425  0.0051 -0.5740
 5085TIP3    H115261   3.779   4.003   3.454  0.4364 -0.4494  0.3438
 5085TIP3    H215262   3.812   3.909   3.340  0.6603  0.5163 -0.3977
 5086TIP3   OH215263   2.449   3.083   4.768  0.6426 -0.0791 -0.0121
 5086TIP3    H115264   2.415   2.994   4.758 -0.0510  0.3087 -1.5711
 5086TIP3    H215265   2.494   3.101   4.685  1.5747  0.7029  0.6374
 5087TIP3   OH215266   0.388   0.338   4.113  0.0660  0.0360 -0.4725
 5087TIP3    H115267   0.389   0.432   4.131 -0.5504 -0.1698  0.6872
 5087TIP3    H215268   0.337   0.330   4.032  1.0309  0.7729 -1.1894
 5088TIP3   OH215269   1.960   0.232   2.787  0.0428  0.4263 -0.9873
 5088TIP3    H115270   2.024   0.161   2.790  0.9843  1.2898  0.6471
 5088TIP3    H215271   2.012   0.311   2.769 -0.9258  0.7799 -2.3487
 5089TIP3   OH215272   4.395   2.296   1.466  0.2843 -0.2135  0.2896
 5089TIP3    H115273   4.416   2.213   1.509  0.0851 -0.0640  0.6841
 5089TIP3    H215274   4.471   2.316   1.413 -0.3444 -1.5242 -1.1880
 5090TIP3   OH215275   2.733   2.321   1.067  0.3368  0.4044 -0.1526
 5090TIP3    H115276   2.669   2.276   1.122  0.9237  0.1966  0.3743
 5090TIP3    H215277   2.775   2.251   1.018  0.7036  0.4567  0.0855
 5091TIP3   OH215278   2.298   1.836   0.289 -0.0152  0.1096  0.2443
 5091TIP3    H115279   2.266   1.751   0.261  0.4397 -0.4634  1.4062
 5091TIP3    H215280   2.241   1.899   0.246  0.8219 -0.6819 -2.2117
 5092TIP3   OH215281   4.741   5.208   0.624 -0.6649 -0.8128  0.2931
 5092TIP3    H115282   4.785   5.168   0.699  0.2154 -0.9819 -0.3034
 5092TIP3    H215283   4.724   5.135   0.565  1.9825 -0.2493 -1.3267
 5093TIP3   OH215284   1.701   5.953   5.008  0.1767  0.3500  0.2123
 5093TIP3    H115285   1.729   5.979   5.096  0.1432  0.9858  0.0398
 5093TIP3    H215286   1.783   5.930   4.964  0.2003  0.0872  0.3924
 5094TIP3   OH215287   0.542   3.816   2.083  0.2157  0.4466 -0.0006
 5094TIP3    H115288   0.474   3.749   2.095  0.6575 -0.2145 -1.0599
 5094TIP3    H215289   0.503   3.879   2.022  0.7834 -0.3017 -1.1652
 5095TIP3   OH215290   5.631   0.326   3.187  0.3928  0.0088  0.9763
 5095TIP3    H115291   5.582   0.295   3.263 -0.0662 -0.7344  0.3781
 5095TIP3    H215292   5.606   0.419   3.179  0.0034 -0.0577  1.3850
 5096TIP3   OH215293   3.619   5.521   2.929  0.7767  0.1676  0.1587
 5096TIP3    H115294   3.539   5.544   2.882  0.3413 -1.9955 -0.2524
 5096TIP3    H215295   3.595   5.526   3.021  0.2367 -0.1733  0.0415
 5097TIP3   OH215296   1.774   1.434   3.016 -0.3630 -0.2223 -0.3631
 5097TIP3    H115297   1.794   1.358   3.071 -1.6925 -0.1827  0.1952
 5097TIP3    H215298   1.819   1.506   3.060  1.3288 -0.7341 -1.1731
 5098TIP3   OH215299   5.253   3.271   4.366 -0.3015  0.4339  0.4073
 5098TIP3    H115300   5.305   3.314   4.434  0.8175  0.3181 -0.3473
 5098TIP3    H215301   5.170   3.318   4.366  0.2568  1.4525  0.8088
 5099TIP3   OH215302   4.492   5.464   3.316 -0.1529 -0.2790 -0.1682
 5099TIP3    H115303   4.400   5.461   3.290 -0.2544 -1.9006  0.2885
 5099TIP3    H215304   4.489   5.481   3.411  0.0902  1.2685 -0.4103
 5100TIP3   OH215305   1.894   0.806   1.873  0.4907 -0.3929  0.0848
 5100TIP3    H115306   1.874   0.713   1.860 -1.0458 -0.2803  1.4148
 5100TIP3    H215307   1.816   0.852   1.845  0.8605  0.4378  0.3841
 5101TIP3   OH215308   1.160   0.813   5.067 -0.2390 -0.2577 -1.0111
 5101TIP3    H115309   1.113   0.832   4.986 -0.4720  1.9611 -0.4256
 5101TIP3    H215310   1.241   0.864   5.060 -0.5429  0.4613  0.3874
 5102TIP3   OH215311   4.677   4.603   0.054  0.0750 -0.6258  0.0099
 5102TIP3    H115312   4.769   4.628   0.059 -0.6414  2.6977 -0.6578
 5102TIP3    H215313   4.645   4.609   0.144 -0.2432  2.1707 -0.1837
 5103TIP3   OH215314   5.382   1.094   3.184 -0.2491  0.3510 -0.1358
 5103TIP3    H115315   5.445   1.044   3.132 -0.7675  0.6183 -1.0315
 5103TIP3    H215316   5.427   1.110   3.267  0.8020  0.3940 -0.7009
 5104TIP3   OH215317   3.349   3.721   0.516 -0.5735 -0.4390  0.2799
 5104TIP3    H115318   3.373   3.657   0.583 -0.0106 -0.3025  0.2201
 5104TIP3    H215319   3.349   3.670   0.435  0.7165 -0.2161  0.1064
 5105TIP3   OH215320   4.048   0.537   4.651  0.2964 -0.4318  0.2642
 5105TIP3    H115321   4.084   0.596   4.585  1.1657  2.5187  3.1148
 5105TIP3    H215322   3.954   0.536   4.633  0.7311 -1.5646 -2.2939
 5106TIP3   OH215323   1.938   3.422   4.788 -0.4459  0.3050 -0.0751
 5106TIP3    H115324   1.904   3.484   4.723 -2.4630 -2.4466 -1.8909
 5106TIP3    H215325   1.963   3.345   4.737 -1.7943 -1.8891  2.3107
 5107TIP3   OH215326   3.097   5.602   5.114  0.2879 -0.0684 -0.3456
 5107TIP3    H115327   3.016   5.589   5.066 -0.5431  1.8864  0.4272
 5107TIP3    H215328   3.112   5.519   5.160 -0.9250 -0.6590 -0.9834
 5108TIP3   OH215329   0.658   0.351   0.075  0.1996 -0.5845 -0.1752
 5108TIP3    H115330   0.692   0.295   0.005  0.4437 -0.3075 -0.2796
 5108TIP3    H215331   0.687   0.309   0.156  0.1308 -0.7677 -0.2441
 5109TIP3   OH215332   4.583   2.954   4.773 -0.3176  0.0319 -0.1510
 5109TIP3    H115333   4.665   2.998   4.794 -0.3421  0.3598 -0.7232
 5109TIP3    H215334   4.601   2.861   4.785  0.5441 -0.0186 -1.6079
 5110TIP3   OH215335   0.734   0.722   4.978  0.4068 -0.6832  0.2439
 5110TIP3    H115336   0.685   0.790   4.932 -0.5423 -0.3741  1.6565
 5110TIP3    H215337   0.811   0.708   4.924  0.5035  1.3323 -0.2148
 5111TIP3   OH215338   6.249   4.052   4.075 -0.2128  0.0259  0.2150
 5111TIP3    H115339   6.280   3.967   4.044  0.3673  0.2897  0.0681
 5111TIP3    H215340   6.158   4.056   4.045 -0.6787 -1.1130  1.3880
 5112TIP3   OH215341   4.410   3.125   1.738  0.2217 -0.2066 -0.3468
 5112TIP3    H115342   4.503   3.103   1.732  0.2295 -0.1249 -0.5324
 5112TIP3    H215343   4.364   3.042   1.727  0.2485 -0.1320 -1.0873
 5113TIP3   OH215344   1.964   2.791   0.514 -0.1301  0.5337 -0.1741
 5113TIP3    H115345   2.029   2.722   0.498 -0.7856 -0.5630  1.5877
 5113TIP3    H215346   1.921   2.765   0.595 -0.4614  3.0190  0.5350
 5114TIP3   OH215347   5.155   3.592   1.405  0.3298  0.0249  0.1966
 5114TIP3    H115348   5.236   3.589   1.455  0.4466 -0.3013 -0.0106
 5114TIP3    H215349   5.182   3.600   1.314  0.1553 -0.8722  0.0573
 5115TIP3   OH215350   6.275   2.753   4.039 -0.1529 -0.1013  0.6016
 5115TIP3    H115351   6.232   2.790   3.962  0.3908 -1.6017 -0.4614
 5115TIP3    H215352   6.205   2.712   4.089 -0.3459 -0.0693  0.3564
 5116TIP3   OH215353   5.141   3.675   2.829 -0.6858 -0.0765 -0.2919
 5116TIP3    H115354   5.152   3.583   2.855 -2.7305 -0.7639 -1.6044
 5116TIP3    H215355   5.161   3.725   2.908  0.3753 -1.6453  0.4858
 5117TIP3   OH215356   0.222   5.854   2.062  0.1001  0.7354  0.6197
 5117TIP3    H115357   0.162   5.929   2.059 -1.3249 -0.3951 -0.8622
 5117TIP3    H215358   0.303   5.886   2.023 -0.7215  1.3317 -0.6498
 5118TIP3   OH215359   3.881   5.021   1.329  0.0028  0.1099  0.2229
 5118TIP3    H115360   3.807   4.960   1.320 -0.5862  1.0315 -1.7173
 5118TIP3    H215361   3.843   5.099   1.369  0.4281 -0.1729  1.2295
 5119TIP3   OH215362   0.204   2.356   4.690 -0.1549 -0.1892  0.5534
 5119TIP3    H115363   0.220   2.403   4.608  1.8438 -0.0593  0.9770
 5119TIP3    H215364   0.109   2.362   4.703 -0.5883 -0.6397 -1.9859
 5120TIP3   OH215365   4.967   1.929   2.132 -0.1080  0.2991  0.2686
 5120TIP3    H115366   4.886   1.921   2.183 -0.8765  2.5885 -0.4457
 5120TIP3    H215367   4.941   1.906   2.043  0.1512  0.5656  0.1230
 5121TIP3   OH215368   2.762   4.537   1.502 -0.1438  0.2324 -0.1650
 5121TIP3    H115369   2.673   4.532   1.467 -0.8785  1.4328  1.3950
 5121TIP3    H215370   2.759   4.482   1.581  0.7214 -0.2967 -0.4852
 5122TIP3   OH215371   2.320   2.874   4.703 -0.6183 -0.3013 -0.0632
 5122TIP3    H115372   2.276   2.830   4.776  2.3386 -2.1665  0.7687
 5122TIP3    H215373   2.303   2.820   4.627  0.5318 -1.3219  0.3638
 5123TIP3   OH215374   6.320   2.404   3.862 -0.3730 -0.2492  0.4256
 5123TIP3    H115375   6.284   2.468   3.801 -0.6583 -1.1686 -0.3988
 5123TIP3    H215376   6.406   2.438   3.885  0.0674 -0.2631 -1.1057
 5124TIP3   OH215377   3.622   2.872   4.754 -0.3347 -0.5247 -0.2620
 5124TIP3    H115378   3.562   2.947   4.750  0.7306  0.3620 -0.1292
 5124TIP3    H215379   3.619   2.844   4.846  1.6059  1.3835  0.4681
 5125TIP3   OH215380   5.603   0.253   0.466  0.8522 -0.6094  0.0111
 5125TIP3    H115381   5.641   0.166   0.480  0.3063 -0.9902 -0.7989
 5125TIP3    H215382   5.533   0.239   0.403 -1.1357 -0.0567  1.9564
 5126TIP3   OH215383   4.825   2.094   1.400  0.2730 -0.1579 -0.3686
 5126TIP3    H115384   4.795   2.181   1.427 -0.3849 -0.4646 -0.0955
 5126TIP3    H215385   4.745   2.045   1.384  0.6428 -0.6248 -0.8275
 5127TIP3   OH215386   1.564   2.468   4.529 -0.2758 -0.0237 -0.3007
 5127TIP3    H115387   1.546   2.475   4.623 -1.2320  0.6956 -0.5186
 5127TIP3    H215388   1.611   2.385   4.520  0.9279  0.4761  0.9508
 5128TIP3   OH215389   0.327   3.379   3.801 -0.1363  0.0378  0.0695
 5128TIP3    H115390   0.345   3.419   3.886 -2.8314  1.7772 -0.0435
 5128TIP3    H215391   0.239   3.410   3.778  0.5487 -0.1402 -3.4719
 5129TIP3   OH215392   5.798   1.766   2.371 -0.9585  0.0851 -0.1974
 5129TIP3    H115393   5.852   1.765   2.450 -1.5503 -0.0770  0.2099
 5129TIP3    H215394   5.720   1.817   2.396 -1.7212 -1.0107 -0.2833
 5130TIP3   OH215395   2.643   2.582   5.082  0.3487  0.1280  0.5759
 5130TIP3    H115396   2.667   2.517   5.015 -2.9126 -1.4740  0.7210
 5130TIP3    H215397   2.573   2.633   5.041 -1.1948 -0.3871  2.4301
 5131TIP3   OH215398   4.190   1.689   1.930  0.0848  0.0294 -0.7582
 5131TIP3    H115399   4.203   1.635   1.852 -1.1958 -1.5264  0.0379
 5131TIP3    H215400   4.096   1.704   1.934  0.2353  0.8828 -0.0115
 5132TIP3   OH215401   2.091   3.573   1.043  0.1214  0.0900  0.2545
 5132TIP3    H115402   2.090   3.484   1.078 -0.0227  0.1880  0.5093
 5132TIP3    H215403   2.100   3.628   1.121 -0.4794  0.3242  0.1661
 5133TIP3   OH215404   5.714   0.255   3.485 -0.1446 -0.6175 -0.4023
 5133TIP3    H115405   5.798   0.236   3.444 -1.0988 -1.4728 -2.0478
 5133TIP3    H215406   5.678   0.170   3.507 -0.6583 -0.2620  0.1649
 5134TIP3   OH215407   6.252   3.814   3.947  0.3425 -0.9285  0.3157
 5134TIP3    H115408   6.188   3.745   3.929 -0.8626  0.4825 -1.1399
 5134TIP3    H215409   6.330   3.767   3.976 -0.4846 -2.8943 -0.4463
 5135TIP3   OH215410   5.230   0.826   4.810  0.2094 -0.1311 -0.1336
 5135TIP3    H115411   5.185   0.746   4.839  0.7885  0.1070  1.5597
 5135TIP3    H215412   5.219   0.887   4.883 -1.3990  1.8679 -1.9088
 5136TIP3   OH215413   5.289   4.815   2.549  0.0273  0.1488  0.0098
 5136TIP3    H115414   5.197   4.802   2.571  0.1631 -2.6863 -0.7434
 5136TIP3    H215415   5.337   4.782   2.625  0.4193 -1.2398 -0.8148
 5137TIP3   OH215416   0.732   2.925   0.603  0.1067 -0.2057  0.5834
 5137TIP3    H115417   0.782   2.853   0.642  3.4598  2.2076  1.2173
 5137TIP3    H215418   0.723   2.901   0.511 -0.9401 -2.4025  1.1860
 5138TIP3   OH215419   4.146   1.560   4.501 -0.1144  0.1239 -0.3082
 5138TIP3    H115420   4.180   1.605   4.423  0.5490  1.6279  0.8045
 5138TIP3    H215421   4.088   1.624   4.542  1.0105  0.0808  1.4288
 5139TIP3   OH215422   2.813   1.298   5.080 -0.0977 -0.2911  0.0833
 5139TIP3    H115423   2.777   1.233   5.019 -2.3142  0.6991  0.2588
 5139TIP3    H215424   2.781   1.271   5.166  0.7278 -0.1200  0.4587
 5140TIP3   OH215425   2.523   1.684   3.829 -0.1995  0.4499 -0.4181
 5140TIP3    H115426   2.610   1.696   3.790  0.7372 -0.7725  1.1882
 5140TIP3    H215427   2.504   1.768   3.872  0.1351  0.7565 -0.8623
 5141TIP3   OH215428   4.449   1.493   2.694 -0.2544 -0.2824 -0.4291
 5141TIP3    H115429   4.484   1.405   2.708  0.1527  0.1978  1.9500
 5141TIP3    H215430   4.357   1.486   2.718  0.0484  0.1685  0.9457
 5142TIP3   OH215431   1.354   1.017   4.071 -0.1708  0.1455  0.1424
 5142TIP3    H115432   1.429   1.046   4.018 -0.1333  3.2258  1.6921
 5142TIP3    H215433   1.278   1.035   4.016  0.0403  0.0814 -0.1751
 5143TIP3   OH215434   5.354   5.723   0.750  0.4993  0.3950 -0.3198
 5143TIP3    H115435   5.323   5.720   0.659  0.2305  1.9628 -0.3037
 5143TIP3    H215436   5.441   5.684   0.747  0.8979  1.3257 -1.4348
 5144TIP3   OH215437   5.499   2.908   1.366  0.7936  0.2477  0.5968
 5144TIP3    H115438   5.424   2.893   1.309  0.4388 -2.6069  1.6702
 5144TIP3    H215439   5.460   2.928   1.452  1.2784 -0.0278  0.8833
 5145TIP3   OH215440   2.302   5.996   2.017  0.1821  0.2837  0.0037
 5145TIP3    H115441   2.347   5.911   2.012  1.6022  0.8559  2.1945
 5145TIP3    H215442   2.219   5.976   2.060  0.6692  0.0530  0.8456
 5146TIP3   OH215443   3.208   2.217   2.280  0.1335 -0.5330 -0.1198
 5146TIP3    H115444   3.163   2.173   2.209 -0.8428 -2.4267  1.5773
 5146TIP3    H215445   3.201   2.157   2.354  1.7212  1.0324  1.3977
 5147TIP3   OH215446   1.111   0.416   1.253  0.2457  0.1009 -0.5572
 5147TIP3    H115447   1.038   0.463   1.212 -2.9998 -1.7812  2.4474
 5147TIP3    H215448   1.100   0.432   1.347  3.2948 -0.9726  0.1199
 5148TIP3   OH215449   1.142   2.501   0.665 -0.0224 -0.6714  0.7114
 5148TIP3    H115450   1.226   2.536   0.695 -0.5031  0.6757  0.5625
 5148TIP3    H215451   1.081   2.521   0.737 -0.3559 -1.0543  0.5422
 5149TIP3   OH215452   0.082   0.228   1.468  0.0444 -0.2110  0.0094
 5149TIP3    H115453   0.083   0.318   1.499 -4.0589  0.0810 -0.1459
 5149TIP3    H215454   0.082   0.236   1.372 -0.8464 -0.2974 -0.0072
 5150TIP3   OH215455   1.022   5.171   2.124 -0.0740 -0.0014 -0.1382
 5150TIP3    H115456   1.001   5.187   2.032 -0.2572 -1.9590 -0.4795
 5150TIP3    H215457   1.102   5.222   2.139 -0.7235  1.3379 -1.0037
 5151TIP3   OH215458   4.573   1.548   3.375  0.2108 -0.0080 -0.4725
 5151TIP3    H115459   4.553   1.458   3.350  2.5585 -0.0504 -2.7093
 5151TIP3    H215460   4.640   1.539   3.443 -0.2209  0.0535 -0.0400
 5152TIP3   OH215461   5.848   1.026   4.952 -0.4063  0.1739  0.5377
 5152TIP3    H115462   5.756   1.051   4.948 -1.2351 -2.6131 -0.0261
 5152TIP3    H215463   5.866   1.015   5.046 -0.4797  1.1478  0.6789
 5153TIP3   OH215464   2.132   1.115   2.846  0.1131  0.1346 -0.0992
 5153TIP3    H115465   2.087   1.033   2.865 -0.7405  0.7205  0.4956
 5153TIP3    H215466   2.195   1.093   2.778  1.2082 -1.4342  1.3248
 5154TIP3   OH215467   1.406   3.048   1.018 -0.3776 -0.1264 -0.1225
 5154TIP3    H115468   1.457   3.058   0.938  0.5857 -0.8765  0.3711
 5154TIP3    H215469   1.321   3.086   0.997  0.6902  2.1646 -0.6295
 5155TIP3   OH215470   4.544   2.237   2.284  0.4256  0.3092 -0.1982
 5155TIP3    H115471   4.519   2.144   2.291 -2.1071  0.8410 -0.9736
 5155TIP3    H215472   4.628   2.236   2.239  0.8642 -1.6202  0.5354
 5156TIP3   OH215473   2.078   1.872   0.499 -0.0519 -0.3076 -0.0027
 5156TIP3    H115474   2.108   1.824   0.423 -2.0299 -1.2195 -0.2667
 5156TIP3    H215475   2.051   1.957   0.464 -0.4355 -0.5235 -0.2398
 5157TIP3   OH215476   4.847   0.288   0.145  0.4028 -0.0465  0.4121
 5157TIP3    H115477   4.927   0.248   0.180 -0.0392 -0.9028  0.4831
 5157TIP3    H215478   4.876   0.334   0.066  0.8613 -0.9252  0.0467
 5158TIP3   OH215479   0.534   3.597   1.904 -0.2076 -0.1095 -0.0487
 5158TIP3    H115480   0.467   3.619   1.969 -0.1936  1.4769 -0.5240
 5158TIP3    H215481   0.614   3.637   1.937  0.2787 -1.0608 -0.0372
 5159TIP3   OH215482   3.210   2.794   4.606  0.4699 -0.5406  0.0279
 5159TIP3    H115483   3.289   2.747   4.578 -0.6012 -2.3413 -0.1331
 5159TIP3    H215484   3.155   2.727   4.646 -0.2998  0.9938  1.6695
 5160TIP3   OH215485   4.126   5.470   1.575  0.1618  0.3235  0.1703
 5160TIP3    H115486   4.093   5.461   1.486  1.8246  0.5501 -0.5013
 5160TIP3    H215487   4.159   5.383   1.598 -0.4425  0.2152  0.6475
 5161TIP3   OH215488   5.795   2.704   2.559  0.0211  0.3596  0.2683
 5161TIP3    H115489   5.829   2.712   2.470 -0.4627 -2.9112 -0.3090
 5161TIP3    H215490   5.716   2.757   2.559  1.1311  2.1166 -0.5554
 5162TIP3   OH215491   3.898   4.410   5.092 -0.0701 -0.2146  0.4997
 5162TIP3    H115492   3.877   4.376   5.005  0.6892  0.3933  0.0684
 5162TIP3    H215493   3.823   4.384   5.146 -0.7502 -0.2415 -0.4262
 5163TIP3   OH215494   3.664   0.770   0.758 -0.0434 -0.2750  0.2886
 5163TIP3    H115495   3.569   0.779   0.767 -0.1100 -0.2024 -0.4164
 5163TIP3    H215496   3.682   0.682   0.792 -0.6379 -1.0680 -1.3235
 5164TIP3   OH215497   1.453   2.304   2.366  0.1489 -0.1633 -0.0988
 5164TIP3    H115498   1.547   2.289   2.356  0.7210  2.7755  0.1205
 5164TIP3    H215499   1.441   2.397   2.347 -2.4523 -0.0229  1.7159
 5165TIP3   OH215500   3.652   1.263   4.700 -0.1103  0.3024  0.0021
 5165TIP3    H115501   3.679   1.258   4.792  1.2036 -0.1272 -0.3951
 5165TIP3    H215502   3.556   1.256   4.704 -0.2469  2.0535  1.4589
 5166TIP3   OH215503   2.973   2.205   0.274  0.3641  0.4037  0.1758
 5166TIP3    H115504   2.965   2.299   0.259  2.4347  0.4139 -1.2836
 5166TIP3    H215505   3.067   2.186   0.262  0.0865 -1.7615  0.9257
 5167TIP3   OH215506   6.046   3.663   2.752 -0.1346 -0.5000 -0.0585
 5167TIP3    H115507   6.012   3.633   2.836 -1.8474 -3.6435 -1.6537
 5167TIP3    H215508   6.137   3.632   2.750 -0.0792 -0.3863  0.6179
 5168TIP3   OH215509   2.348   4.977   0.064 -0.7636 -0.2608 -0.1127
 5168TIP3    H115510   2.287   5.016   0.002  0.4514 -0.0730 -1.2388
 5168TIP3    H215511   2.294   4.919   0.118 -2.3414  1.6978  0.5471
 5169TIP3   OH215512   2.749   0.034   4.317  0.4482  0.1708  0.0681
 5169TIP3    H115513   2.775  -0.030   4.251 -1.0402 -0.8188  0.4022
 5169TIP3    H215514   2.663   0.064   4.289  0.6967  1.3049  0.4582
 5170TIP3   OH215515   3.688   4.675   3.491 -0.5021 -0.6630 -0.3250
 5170TIP3    H115516   3.599   4.688   3.456  0.3038  2.2495 -1.6151
 5170TIP3    H215517   3.743   4.732   3.438  2.1149 -2.0334  0.7438
 5171TIP3   OH215518   0.794   2.491   2.418  0.4416 -0.1596 -0.0323
 5171TIP3    H115519   0.877   2.511   2.375  1.2389 -1.0912  1.0158
 5171TIP3    H215520   0.796   2.396   2.431 -0.3633 -0.0698  0.8432
 5172TIP3   OH215521   3.242   4.951   0.446 -0.2139  0.5259  0.1192
 5172TIP3    H115522   3.333   4.979   0.457  0.2175 -0.3823 -0.9788
 5172TIP3    H215523   3.230   4.948   0.351 -1.4795  0.8978  0.2597
 5173TIP3   OH215524   3.764   3.702   2.249 -0.0609  0.3760  0.3888
 5173TIP3    H115525   3.755   3.609   2.266 -0.2753  0.4046  0.4343
 5173TIP3    H215526   3.764   3.743   2.336 -1.9854  0.5969  0.3186
 5174TIP3   OH215527   2.115   1.566   2.993  0.1302  0.0554  0.1373
 5174TIP3    H115528   2.067   1.643   3.022 -0.5061 -0.1605 -0.3249
 5174TIP3    H215529   2.207   1.591   2.998 -0.0500  0.6204  0.6172
 5175TIP3   OH215530   3.682   4.627   1.451 -0.1013 -0.6651  0.8052
 5175TIP3    H115531   3.684   4.611   1.546  0.6569 -0.6131  0.8011
 5175TIP3    H215532   3.729   4.553   1.413 -0.2882 -0.6174  0.4757
 5176TIP3   OH215533   1.393   0.152   1.047  0.6259  0.0686 -0.2358
 5176TIP3    H115534   1.380   0.126   0.956 -0.5335  1.7777 -0.6050
 5176TIP3    H215535   1.454   0.087   1.082  1.1546 -0.5877 -2.2406
 5177TIP3   OH215536   1.508   4.382   4.099 -0.1334 -0.2638  0.1167
 5177TIP3    H115537   1.575   4.348   4.158 -1.8731 -2.2582  1.0531
 5177TIP3    H215538   1.558   4.433   4.034  2.1368 -0.6139  1.4552
 5178TIP3   OH215539   1.537   4.470   1.449 -0.1879 -0.4677 -0.3360
 5178TIP3    H115540   1.628   4.497   1.457 -0.0479 -1.1769  0.6156
 5178TIP3    H215541   1.509   4.505   1.364  1.4757 -1.7014 -1.4799
 5179TIP3   OH215542   3.663   1.748   4.774  0.2502 -0.2109  0.1974
 5179TIP3    H115543   3.636   1.666   4.733  0.5792 -0.7569  1.0301
 5179TIP3    H215544   3.703   1.799   4.704  0.5186 -0.9872 -0.2266
 5180TIP3   OH215545   4.165   3.913   2.316  0.6863 -0.0767  0.4542
 5180TIP3    H115546   4.228   3.964   2.266  1.0935 -1.1590 -0.1725
 5180TIP3    H215547   4.130   3.849   2.254 -1.6223  0.9622  0.5644
 5181TIP3   OH215548   2.891   5.042   0.115 -0.2529 -0.2452 -0.1862
 5181TIP3    H115549   2.797   5.039   0.096 -0.4901  1.6194  0.5004
 5181TIP3    H215550   2.900   4.994   0.198 -0.3516 -1.6385 -0.9436
 5182TIP3   OH215551   2.120   3.074   4.610 -0.0566 -0.0926 -0.1082
 5182TIP3    H115552   2.169   2.994   4.627  1.9995  0.6094 -2.2559
 5182TIP3    H215553   2.181   3.145   4.632 -1.6204  0.9437  1.1664
 5183TIP3   OH215554   4.332   3.556   2.610  0.1079 -0.3843 -0.0679
 5183TIP3    H115555   4.332   3.599   2.524 -0.8477 -0.0103  0.1019
 5183TIP3    H215556   4.255   3.592   2.654 -1.6644 -3.3356 -0.4588
 5184TIP3   OH215557   1.600   4.957   0.703 -0.1837 -0.0989  0.5415
 5184TIP3    H115558   1.579   5.051   0.702 -1.7269 -0.3627 -2.5023
 5184TIP3    H215559   1.673   4.949   0.641 -2.5748 -1.2549 -2.3363
 5185TIP3   OH215560   0.986   3.660   3.711  0.0047 -0.0672  0.1149
 5185TIP3    H115561   0.911   3.720   3.711 -0.1256 -0.2033  1.2240
 5185TIP3    H215562   0.947   3.573   3.711  0.1658 -0.1395  0.3422
 5186TIP3   OH215563   1.926   0.021   2.231 -0.3419  0.1962 -0.6028
 5186TIP3    H115564   1.898  -0.025   2.151 -0.5751 -0.1306 -0.3341
 5186TIP3    H215565   1.873   0.101   2.232 -1.6757 -0.6759  0.1877
 5187TIP3   OH215566   0.085   2.541   1.293  0.2784 -0.2244 -0.1062
 5187TIP3    H115567   0.168   2.586   1.309  0.1206  0.0812 -0.1504
 5187TIP3    H215568   0.102   2.487   1.215  0.3196  0.1357 -0.3480
 5188TIP3   OH215569   4.814   0.717   4.970  0.1914  0.0217  0.2143
 5188TIP3    H115570   4.812   0.779   4.896 -0.0266  0.9346  0.9597
 5188TIP3    H215571   4.870   0.646   4.940  0.9680  0.8887 -0.4467
 5189TIP3   OH215572   3.920   3.829   2.716 -0.2064  0.0141 -0.1803
 5189TIP3    H115573   3.943   3.736   2.705  0.1911  0.2192 -1.2448
 5189TIP3    H215574   3.888   3.835   2.806 -2.2784 -1.5829 -0.7164
 5190TIP3   OH215575   1.515   0.528   2.712 -0.0513  0.9062 -0.0167
 5190TIP3    H115576   1.467   0.446   2.723 -1.3653  1.5808 -0.5101
 5190TIP3    H215577   1.471   0.589   2.771  1.6056  1.0077  1.1704
 5191TIP3   OH215578   2.792   4.940   2.032  0.6112 -0.7176 -0.6085
 5191TIP3    H115579   2.715   4.984   1.996 -0.2806  0.1776  2.1707
 5191TIP3    H215580   2.863   5.003   2.019  0.1914 -0.1723 -0.3042
 5192TIP3   OH215581   4.133   3.835   2.057  0.4207  0.0606 -0.0157
 5192TIP3    H115582   4.172   3.897   1.995  0.6882 -0.4156 -0.3274
 5192TIP3    H215583   4.160   3.749   2.025  2.8607 -0.1587  2.2273
 5193TIP3   OH215584   2.176   5.249   4.675 -0.1838  0.3492 -0.4250
 5193TIP3    H115585   2.107   5.250   4.609 -1.5032  1.5464  0.8826
 5193TIP3    H215586   2.253   5.215   4.630 -1.2335  0.3929 -2.3339
 5194TIP3   OH215587   2.283   0.578   3.473 -0.2995  0.1658  0.3005
 5194TIP3    H115588   2.377   0.586   3.490 -0.4799  1.1001  0.8964
 5194TIP3    H215589   2.242   0.611   3.553 -1.1530  1.3750 -0.6135
 5195TIP3   OH215590   0.500   1.669   1.802  0.3961 -0.4023 -0.3275
 5195TIP3    H115591   0.584   1.651   1.845  1.1930 -0.2021 -1.7521
 5195TIP3    H215592   0.472   1.753   1.838  1.5284  0.2329 -0.8648
 5196TIP3   OH215593   5.204   2.098   4.586  0.4722 -0.2752 -0.3765
 5196TIP3    H115594   5.233   2.035   4.652 -0.3419 -1.2030 -0.8830
 5196TIP3    H215595   5.270   2.090   4.516  0.3669 -0.5795 -0.4440
 5197TIP3   OH215596   2.731   4.602   2.932  0.0059 -0.0951 -0.0739
 5197TIP3    H115597   2.654   4.643   2.893  1.1344  0.6623 -1.6156
 5197TIP3    H215598   2.741   4.520   2.884 -2.0615 -2.2493  2.7896
 5198TIP3   OH215599   1.230   0.729   4.476  0.1207 -0.8646 -0.1279
 5198TIP3    H115600   1.325   0.713   4.473  0.4207 -0.1901  2.9748
 5198TIP3    H215601   1.219   0.814   4.434  1.0105 -0.5983  0.1486
 5199TIP3   OH215602   3.596   5.882   2.625 -0.1931  0.0652  0.1221
 5199TIP3    H115603   3.512   5.925   2.611 -0.4391 -1.1561 -3.2101
 5199TIP3    H215604   3.575   5.788   2.624  0.8387 -0.2685  2.8275
 5200TIP3   OH215605   1.575   3.433   2.673 -0.0318  0.2172 -0.1911
 5200TIP3    H115606   1.565   3.477   2.757 -0.4930 -0.4708  0.1240
 5200TIP3    H215607   1.498   3.459   2.622  0.5590  1.1413 -0.6561
 5201TIP3   OH215608   1.856   3.008   2.327  0.5211  0.0726 -0.2332
 5201TIP3    H115609   1.874   3.075   2.393  1.3235 -1.2627  0.9656
 5201TIP3    H215610   1.891   3.044   2.245  0.1445  1.4527  0.1861
 5202TIP3   OH215611   2.366   3.913   3.937 -0.4468  0.1313 -0.5347
 5202TIP3    H115612   2.448   3.947   3.973 -0.6972  0.4146 -0.2211
 5202TIP3    H215613   2.381   3.907   3.843 -0.8059  2.3447 -0.7828
 5203TIP3   OH215614   2.596   3.550   2.553 -0.2713 -0.4015  0.2482
 5203TIP3    H115615   2.688   3.532   2.531 -0.3857  0.1700 -0.7636
 5203TIP3    H215616   2.563   3.467   2.586  0.5771 -0.6537  0.4905
 5204TIP3   OH215617   2.146   5.598   1.367 -0.2747  0.3014 -0.2449
 5204TIP3    H115618   2.137   5.692   1.349  0.5548  0.3917 -0.2308
 5204TIP3    H215619   2.228   5.574   1.325 -1.5071 -0.8994 -2.0848
 5205TIP3   OH215620   4.153   4.829   3.267  0.1046 -0.0315 -0.2146
 5205TIP3    H115621   4.200   4.786   3.338 -0.3317 -1.2697 -0.6532
 5205TIP3    H215622   4.201   4.804   3.188 -0.0301  0.4727 -0.4595
 5206TIP3   OH215623   4.542   0.841   3.115  0.2439  0.6360  0.1016
 5206TIP3    H115624   4.593   0.765   3.087  0.8173  1.6108 -1.7082
 5206TIP3    H215625   4.454   0.824   3.081 -0.0374  0.1004  1.0545
 5207TIP3   OH215626   3.383   4.483   0.971 -0.3497 -0.3578 -0.3625
 5207TIP3    H115627   3.435   4.475   0.891  0.3034  1.6548 -0.2139
 5207TIP3    H215628   3.431   4.431   1.036 -0.0009 -0.6964 -0.8849
 5208TIP3   OH215629   3.363   3.183   4.484  0.2218  0.3958  0.1172
 5208TIP3    H115630   3.364   3.278   4.475 -0.1691  0.3993  0.0842
 5208TIP3    H215631   3.370   3.149   4.395 -2.2456  0.4204 -0.1485
 5209TIP3   OH215632   4.070   1.764   3.349 -0.1589  0.3525  0.0564
 5209TIP3    H115633   4.068   1.824   3.275  1.4997  1.0815  0.5473
 5209TIP3    H215634   4.133   1.696   3.323  0.2931  0.5147  0.7028
 5210TIP3   OH215635   4.604   5.475   3.075  0.1623  0.1665  0.0719
 5210TIP3    H115636   4.585   5.474   3.169  0.5652 -1.3135  0.1687
 5210TIP3    H215637   4.697   5.498   3.069  0.3323 -0.4911  0.0950
 5211TIP3   OH215638   6.007   5.500   2.690 -0.1958 -0.0900  0.2864
 5211TIP3    H115639   6.069   5.471   2.624 -0.0503 -0.7507  0.7034
 5211TIP3    H215640   6.061   5.543   2.756 -0.0461 -1.4314  1.0809
 5212TIP3   OH215641   6.004   1.942   1.329 -0.1450  0.1953  0.5967
 5212TIP3    H115642   6.091   1.912   1.355 -0.1551  0.9361  1.5719
 5212TIP3    H215643   5.999   2.032   1.362 -1.8457 -0.3454  1.9622
 5213TIP3   OH215644   0.785   4.167   1.630  0.6046 -0.6382  0.4796
 5213TIP3    H115645   0.881   4.169   1.621  0.9694  1.4530  3.4662
 5213TIP3    H215646   0.768   4.096   1.691  0.3940 -0.2631  0.8657
 5214TIP3   OH215647   3.830   3.438   2.578  0.6194  0.3305 -0.0766
 5214TIP3    H115648   3.768   3.431   2.505  0.8762  0.7441 -0.3405
 5214TIP3    H215649   3.779   3.477   2.649  0.8076  1.5979 -0.6005
 5215TIP3   OH215650   1.275   1.568   2.080  0.7000 -0.2224  0.4587
 5215TIP3    H115651   1.325   1.558   1.999  0.8339  2.2659  0.1602
 5215TIP3    H215652   1.332   1.619   2.137 -0.2631 -0.0522  1.3018
 5216TIP3   OH215653   4.350   1.955   4.400  0.0612  0.0926 -0.5410
 5216TIP3    H115654   4.265   1.994   4.380 -0.1331 -0.1785 -0.2549
 5216TIP3    H215655   4.332   1.893   4.472 -0.2038 -2.7314 -2.8480
 5217TIP3   OH215656   1.370   2.718   4.373  0.5020  0.0137 -0.4046
 5217TIP3    H115657   1.396   2.810   4.376  1.3132 -0.2093 -0.2990
 5217TIP3    H215658   1.447   2.673   4.339  1.1648 -1.0021  2.2140
 5218TIP3   OH215659   2.289   0.385   3.706 -0.0815 -0.3871 -0.0254
 5218TIP3    H115660   2.244   0.332   3.772 -0.8421  1.4544  1.0075
 5218TIP3    H215661   2.382   0.369   3.722 -0.2817 -1.7412 -0.0645
 5219TIP3   OH215662   3.619   0.883   3.027 -0.3777 -0.5429  0.0907
 5219TIP3    H115663   3.617   0.978   3.041  0.2462 -0.5927  0.5337
 5219TIP3    H215664   3.574   0.870   2.943 -0.2262  0.1704 -0.1066
 5220TIP3   OH215665   4.243   2.497   4.750 -0.1727  0.0540  0.0974
 5220TIP3    H115666   4.177   2.521   4.685  0.2678  1.3548  0.1092
 5220TIP3    H215667   4.292   2.426   4.709  0.4651  1.2246 -1.2547
 5221TIP3   OH215668   3.763   3.029   4.466  0.0404 -0.1609  0.2617
 5221TIP3    H115669   3.734   3.118   4.487  0.4052  0.1127 -0.3749
 5221TIP3    H215670   3.740   2.977   4.543 -1.0693  0.2873  0.2542
 5222TIP3   OH215671   3.857   3.581   0.297 -0.2009  0.1184 -0.4159
 5222TIP3    H115672   3.937   3.553   0.252  1.0118  2.0855  0.3771
 5222TIP3    H215673   3.848   3.521   0.370  0.9159  0.2215 -0.1719
 5223TIP3   OH215674   4.890   4.168   0.374  0.3885  0.0185  0.2666
 5223TIP3    H115675   4.888   4.257   0.340 -1.5550 -0.1759 -0.2191
 5223TIP3    H215676   4.798   4.144   0.385  0.8365 -2.1552 -0.2247
 5224TIP3   OH215677   4.453   0.194   2.217  0.5528  0.5606  0.2544
 5224TIP3    H115678   4.389   0.263   2.199 -0.8247 -0.0519  2.4136
 5224TIP3    H215679   4.453   0.140   2.138  0.5188  2.1419 -0.8743
 5225TIP3   OH215680   1.169   1.321   1.318  0.0111 -0.2204 -0.2362
 5225TIP3    H115681   1.077   1.302   1.302 -0.0720 -0.4992  0.5337
 5225TIP3    H215682   1.204   1.342   1.232 -1.1324  1.4907 -0.3268
 5226TIP3   OH215683   1.941   4.068   3.826 -0.6866 -0.3808 -0.1744
 5226TIP3    H115684   2.019   4.044   3.776  1.7272  1.7285  2.2585
 5226TIP3    H215685   1.925   4.160   3.803 -0.9180 -0.0580  1.2014
 5227TIP3   OH215686   1.063   2.829   3.579  0.3763 -0.1340  0.2988
 5227TIP3    H115687   1.069   2.798   3.489 -1.4990  0.5845 -0.1281
 5227TIP3    H215688   0.985   2.886   3.580  0.5000  0.0894  2.3051
 5228TIP3   OH215689   1.015   1.308   0.661  0.3127  0.0195 -0.2201
 5228TIP3    H115690   1.024   1.403   0.670 -1.7704  0.1297  1.4020
 5228TIP3    H215691   1.049   1.289   0.573 -1.7164  2.6536 -1.7141
 5229TIP3   OH215692   5.968   2.782   3.645 -0.1104  0.2920  0.3461
 5229TIP3    H115693   5.966   2.774   3.741 -0.5712 -1.4461  0.2261
 5229TIP3    H215694   5.930   2.868   3.628  0.8302  1.0347  1.7553
 5230TIP3   OH215695   3.198   4.251   2.012  0.2269 -0.3546 -0.4298
 5230TIP3    H115696   3.139   4.261   1.937  1.5185  0.1301 -1.4426
 5230TIP3    H215697   3.242   4.167   1.996 -0.7710 -1.1377  0.7728
 5231TIP3   OH215698   4.809   1.725   0.809  0.7898  0.3816  0.1636
 5231TIP3    H115699   4.810   1.797   0.871  2.1846 -0.2602  0.9331
 5231TIP3    H215700   4.870   1.752   0.740  1.0083  0.1276  0.2527
 5232TIP3   OH215701   2.260   3.527   4.139 -0.4494  0.1613  0.1137
 5232TIP3    H115702   2.225   3.616   4.134 -1.1878 -0.1827 -1.3143
 5232TIP3    H215703   2.183   3.472   4.152 -0.0759 -0.3408  0.2222
 5233TIP3   OH215704   5.983   4.090   3.943  0.6352  0.2240  0.3145
 5233TIP3    H115705   5.990   4.186   3.936 -3.4585  0.8113  1.5650
 5233TIP3    H215706   5.929   4.065   3.868  1.2593 -1.0888  0.2796
 5234TIP3   OH215707   0.681   5.280   0.130 -0.2610 -0.1642 -0.2788
 5234TIP3    H115708   0.740   5.280   0.054 -1.2611  0.8029 -1.0824
 5234TIP3    H215709   0.704   5.360   0.177 -0.9549  0.2591 -0.6377
 5235TIP3   OH215710   2.997   4.094   3.417  0.0878  0.2155  0.0561
 5235TIP3    H115711   3.036   4.011   3.443  0.6167  0.7758  1.1043
 5235TIP3    H215712   2.902   4.079   3.422  0.1764 -0.0807  1.1159
 5236TIP3   OH215713   4.308   0.073   4.372 -0.4470 -0.3720 -0.0487
 5236TIP3    H115714   4.259   0.047   4.451 -0.3295  0.3557  0.2727
 5236TIP3    H215715   4.267   0.023   4.301  1.1538 -3.1314  0.7956
 5237TIP3   OH215716   2.773   1.491   1.116  0.2156  0.8830 -0.1106
 5237TIP3    H115717   2.779   1.583   1.143 -0.0260  0.6670  0.6905
 5237TIP3    H215718   2.825   1.487   1.035  1.0992  1.5030  0.4080
 5238TIP3   OH215719   0.923   3.873   0.182 -0.0303  0.1152 -0.0787
 5238TIP3    H115720   0.946   3.813   0.252  0.2536  0.6943  0.3267
 5238TIP3    H215721   0.831   3.854   0.163 -0.5760  0.9875  1.5063
 5239TIP3   OH215722   1.874   2.977   1.910 -0.0951  0.1203  0.0433
 5239TIP3    H115723   1.894   2.896   1.957  0.9793 -0.4835 -1.4039
 5239TIP3    H215724   1.958   3.020   1.896 -0.1266 -0.5670 -2.7793
 5240TIP3   OH215725   4.788   4.363   2.701 -0.3531  0.4377  0.0117
 5240TIP3    H115726   4.712   4.402   2.744 -0.0438  1.4140 -0.2920
 5240TIP3    H215727   4.856   4.430   2.706  0.5154 -0.4383  0.3259
 5241TIP3   OH215728   6.230   1.714   2.186 -0.1976 -0.3125 -0.0415
 5241TIP3    H115729   6.141   1.747   2.170 -0.2312 -0.2465  0.2685
 5241TIP3    H215730   6.221   1.619   2.188  0.0973 -0.4317 -2.1489
 5242TIP3   OH215731   6.184   2.602   3.708 -0.4415 -0.3294  0.3360
 5242TIP3    H115732   6.088   2.609   3.707 -0.3999  0.5698 -1.3587
 5242TIP3    H215733   6.214   2.693   3.712  0.3558 -0.6019  0.7537
 5243TIP3   OH215734   3.304   1.576   3.154 -0.2783 -0.1404  0.6215
 5243TIP3    H115735   3.308   1.555   3.247 -3.2752 -0.5731  0.7701
 5243TIP3    H215736   3.390   1.551   3.119  1.9627  2.5723  3.6330
 5244TIP3   OH215737   1.068   1.068   4.680  0.0214  0.2973  0.1354
 5244TIP3    H115738   1.034   1.078   4.591  0.0698  0.0263  0.0840
 5244TIP3    H215739   1.107   1.152   4.701  0.9603  0.0368 -0.4991
 5245TIP3   OH215740   2.662   5.040   2.585 -0.2469  0.0338 -0.3218
 5245TIP3    H115741   2.700   5.113   2.634  1.3170 -2.4405  2.5095
 5245TIP3    H215742   2.706   5.043   2.500  1.3384  1.1940  0.4843
 5246TIP3   OH215743   2.827   2.580   4.553  0.2403  0.7098  0.8851
 5246TIP3    H115744   2.895   2.529   4.509  0.7883 -0.2014  2.6959
 5246TIP3    H215745   2.767   2.605   4.483  1.3940 -0.1234 -0.4641
 5247TIP3   OH215746   1.491   1.036   0.098  0.6501 -0.6384  0.1250
 5247TIP3    H115747   1.398   1.054   0.110  0.6083  2.1862 -2.8990
 5247TIP3    H215748   1.494   0.957   0.044  0.0908 -1.0532  0.6839
 5248TIP3   OH215749   0.168   3.006   5.059  0.3078  0.1872 -0.0420
 5248TIP3    H115750   0.145   3.028   5.149  0.7703  1.4884 -0.2101
 5248TIP3    H215751   0.263   2.993   5.061  0.4691  1.2022 -0.5107
 5249TIP3   OH215752   5.788   4.438   1.060  0.4458  0.1023  0.2124
 5249TIP3    H115753   5.834   4.405   1.137  0.1520 -2.4527 -0.6315
 5249TIP3    H215754   5.841   4.410   0.986 -0.7930 -0.1203 -0.6336
 5250TIP3   OH215755   2.811   3.239   1.028  0.0366 -0.2023 -0.5126
 5250TIP3    H115756   2.769   3.162   1.065  0.4899 -0.7983 -1.2153
 5250TIP3    H215757   2.870   3.270   1.096  0.0177 -0.6095 -0.3120
 5251TIP3   OH215758   4.205   3.216   1.012 -0.2525  0.0915  0.0941
 5251TIP3    H115759   4.153   3.269   0.951  1.4964 -0.0593 -1.6352
 5251TIP3    H215760   4.174   3.126   0.998  0.4356 -0.0023 -0.9399
 5252TIP3   OH215761   5.553   5.367   5.144  0.3275 -0.2296 -0.6855
 5252TIP3    H115762   5.590   5.280   5.128 -0.0423 -0.7932  1.2974
 5252TIP3    H215763   5.459   5.357   5.130  0.3286 -0.0290 -0.8553
 5253TIP3   OH215764   2.353   0.549   2.012 -0.1179  0.2907  0.0802
 5253TIP3    H115765   2.366   0.571   1.919  1.5617  0.0261  0.2107
 5253TIP3    H215766   2.273   0.595   2.036 -1.2982 -0.6433 -1.8120
 5254TIP3   OH215767   5.339   5.441   0.607 -0.1748  0.2408  0.5229
 5254TIP3    H115768   5.246   5.431   0.628 -0.5887  0.5836 -1.0622
 5254TIP3    H215769   5.384   5.400   0.681 -1.5241  1.6275  2.2040
 5255TIP3   OH215770   4.517   3.516   2.813  0.1698 -0.1872 -0.3356
 5255TIP3    H115771   4.537   3.576   2.885  0.1905  0.2514 -0.7068
 5255TIP3    H215772   4.496   3.573   2.739 -0.8499 -0.6343 -0.3997
 5256TIP3   OH215773   0.820   4.777   0.584 -0.0402 -0.4570  0.0852
 5256TIP3    H115774   0.913   4.773   0.562 -0.1244 -1.2332 -0.1320
 5256TIP3    H215775   0.795   4.687   0.604 -1.6061 -1.0000 -3.4172
 5257TIP3   OH215776   4.171   0.664   1.710 -0.0096 -0.5983  0.0368
 5257TIP3    H115777   4.227   0.699   1.640 -0.2555 -2.4199 -1.1288
 5257TIP3    H215778   4.084   0.700   1.691  0.2051  0.0684  0.2761
 5258TIP3   OH215779   2.712   3.815   1.293 -0.1357 -0.0261  0.8519
 5258TIP3    H115780   2.727   3.727   1.326 -2.3767 -0.8013  0.0234
 5258TIP3    H215781   2.645   3.851   1.351 -0.6791  0.3578  0.0017
 5259TIP3   OH215782   5.185   4.151   1.828  0.3826  0.1876 -0.2934
 5259TIP3    H115783   5.215   4.083   1.888  2.3062 -0.1103 -1.5118
 5259TIP3    H215784   5.149   4.104   1.754 -1.1358  0.5592  0.1596
 5260TIP3   OH215785   2.516   1.789   0.934  0.4150  0.2731  0.3328
 5260TIP3    H115786   2.463   1.712   0.915  0.9490 -0.0626  0.1560
 5260TIP3    H215787   2.498   1.849   0.861  1.2085 -0.3463 -0.4047
 5261TIP3   OH215788   5.618   0.210   2.944 -0.5331  0.5022 -0.4147
 5261TIP3    H115789   5.614   0.250   3.031 -1.4343 -1.4226  0.4747
 5261TIP3    H215790   5.534   0.230   2.905 -0.6685  0.1741 -0.2915
 5262TIP3   OH215791   2.185   3.638   3.623 -0.8285  0.0570  0.2515
 5262TIP3    H115792   2.198   3.665   3.532 -0.1032 -1.1569 -0.0214
 5262TIP3    H215793   2.091   3.647   3.638 -1.3031 -1.8246 -1.3056
 5263TIP3   OH215794   6.149   3.814   0.894  1.1169 -0.2432  0.3206
 5263TIP3    H115795   6.092   3.859   0.956  0.8185  0.3344 -0.3584
 5263TIP3    H215796   6.089   3.772   0.833  1.4083  0.0447 -0.1740
 5264TIP3   OH215797   5.511   3.809   1.533  0.0292  0.1337 -0.1230
 5264TIP3    H115798   5.522   3.842   1.622 -1.0985  0.7909 -0.2136
 5264TIP3    H215799   5.569   3.864   1.480  0.8713 -0.4046  0.2196
 5265TIP3   OH215800   6.028   5.588   1.779 -0.0884  0.1154  0.0350
 5265TIP3    H115801   6.098   5.529   1.808 -1.2219 -0.8216  1.0082
 5265TIP3    H215802   5.990   5.544   1.703 -0.9331 -0.4381  0.7599
 5266TIP3   OH215803   5.125   0.630   2.540  0.0660  0.5470  0.4152
 5266TIP3    H115804   5.134   0.704   2.600 -1.7225  1.1670 -0.0180
 5266TIP3    H215805   5.200   0.639   2.480  1.8664 -0.0675  2.4486
 5267TIP3   OH215806   0.563   5.752   4.148 -0.1948  0.4224 -0.3238
 5267TIP3    H115807   0.585   5.672   4.101  0.6382  1.0921 -1.0982
 5267TIP3    H215808   0.553   5.818   4.080  1.2295  1.4540  0.4102
 5268TIP3   OH215809   1.193   4.778   4.392  0.2410 -0.1457  0.2173
 5268TIP3    H115810   1.166   4.726   4.468  0.7648  0.2390  0.6764
 5268TIP3    H215811   1.282   4.748   4.374 -0.3073 -1.1165 -1.0292
 5269TIP3   OH215812   5.381   4.843   1.274  0.0816 -0.2257  0.0395
 5269TIP3    H115813   5.387   4.764   1.328 -0.0751 -0.9508 -0.9944
 5269TIP3    H215814   5.294   4.839   1.234 -0.3264  0.9784  0.7283
 5270TIP3   OH215815   1.623   4.338   0.560 -0.3557  0.5890 -0.3450
 5270TIP3    H115816   1.677   4.286   0.619 -1.3062  1.4858  1.4047
 5270TIP3    H215817   1.546   4.283   0.545 -0.1512  0.3952 -0.7037
 5271TIP3   OH215818   3.622   4.843   4.278  0.1757  0.0710 -0.3483
 5271TIP3    H115819   3.697   4.816   4.224 -0.2739  0.1165 -1.0127
 5271TIP3    H215820   3.546   4.814   4.227 -0.3767  2.9737 -1.3429
 5272TIP3   OH215821   2.112   4.903   3.414 -0.4383 -0.2487 -0.3572
 5272TIP3    H115822   2.049   4.974   3.416  0.0552  0.2038 -0.6702
 5272TIP3    H215823   2.060   4.824   3.432 -1.2564 -0.0006 -1.5091
 5273TIP3   OH215824   0.485   2.227   3.220  0.3131 -0.2021  0.1695
 5273TIP3    H115825   0.522   2.153   3.270 -0.1949 -0.8466 -0.3940
 5273TIP3    H215826   0.439   2.186   3.147 -0.1745  0.6687 -0.0237
 5274TIP3   OH215827   4.412   1.515   2.068 -0.3117  0.0223  0.1528
 5274TIP3    H115828   4.329   1.471   2.087 -0.7441  0.5961 -0.3785
 5274TIP3    H215829   4.403   1.546   1.977  0.5349 -0.0309  0.0425
 5275TIP3   OH215830   1.183   5.571   1.757 -0.1722  0.5167 -0.3907
 5275TIP3    H115831   1.187   5.588   1.663  0.2458  0.4156 -0.3942
 5275TIP3    H215832   1.247   5.501   1.772 -1.8919 -1.1401 -0.3773
 5276TIP3   OH215833   1.585   0.172   3.359  0.1787  0.3405  0.4599
 5276TIP3    H115834   1.627   0.258   3.351  0.7829  0.0849  0.7746
 5276TIP3    H215835   1.626   0.133   3.436  1.0381 -0.8404 -0.5448
 5277TIP3   OH215836   3.900   4.775   0.257  0.2778 -0.3717 -0.3653
 5277TIP3    H115837   3.955   4.714   0.207  0.0118  0.2122 -1.4066
 5277TIP3    H215838   3.900   4.740   0.346 -0.8684 -2.5843 -1.1672
 5278TIP3   OH215839   4.232   2.834   4.633 -0.5513 -1.1338 -0.2801
 5278TIP3    H115840   4.305   2.841   4.571  0.1804 -0.1409  0.6636
 5278TIP3    H215841   4.248   2.903   4.698 -2.3542 -0.8558 -0.0618
 5279TIP3   OH215842   2.325   4.858   1.866 -0.0067  0.6032  0.3157
 5279TIP3    H115843   2.325   4.885   1.775 -0.8606  0.0207  0.1338
 5279TIP3    H215844   2.388   4.787   1.870  0.3784  0.9393  0.2814
 5280TIP3   OH215845   3.168   5.432   0.375  0.2268 -0.3930  0.0119
 5280TIP3    H115846   3.123   5.358   0.334  0.2079  0.2352 -1.1292
 5280TIP3    H215847   3.164   5.502   0.310 -0.3477  0.8526  1.3191
 5281TIP3   OH215848   1.285   2.841   4.073 -0.3556 -0.1493 -0.1881
 5281TIP3    H115849   1.357   2.780   4.088 -1.5828 -1.0063  3.0376
 5281TIP3    H215850   1.247   2.814   3.990  0.0058 -2.9380  0.4664
 5282TIP3   OH215851   4.734   5.831   4.258  0.2086  0.2006  0.1769
 5282TIP3    H115852   4.778   5.850   4.175  0.5535  1.6492  0.6605
 5282TIP3    H215853   4.645   5.864   4.246  0.0244 -0.3227  0.1069
 5283TIP3   OH215854   0.307   0.476   0.615  0.0843 -0.3497 -0.4527
 5283TIP3    H115855   0.347   0.446   0.533 -0.8442 -1.5237 -0.5040
 5283TIP3    H215856   0.215   0.454   0.607 -0.6453  2.2597 -0.3149
 5284TIP3   OH215857   1.066   5.752   3.664 -0.2612 -0.0638 -0.1779
 5284TIP3    H115858   1.053   5.825   3.602  1.0247  1.1374  0.8914
 5284TIP3    H215859   0.993   5.760   3.725 -0.2197  0.2330 -0.1618
 5285TIP3   OH215860   3.851   0.588   0.524  0.0600 -0.4251  0.0338
 5285TIP3    H115861   3.780   0.643   0.489  0.9933  0.4658 -0.5561
 5285TIP3    H215862   3.817   0.499   0.521 -0.5492 -0.1695 -1.5344
 5286TIP3   OH215863   2.991   4.910   0.807 -0.8229 -0.5263  0.2179
 5286TIP3    H115864   2.896   4.913   0.817 -0.8735 -0.8261 -0.1358
 5286TIP3    H215865   3.025   4.943   0.890 -1.2293  1.8374 -0.4800
 5287TIP3   OH215866   2.631   4.234   1.141 -0.2410  0.2511  0.2221
 5287TIP3    H115867   2.626   4.226   1.236  2.1971  0.9613  0.4847
 5287TIP3    H215868   2.712   4.189   1.117 -1.4460 -1.0370 -1.7092
 5288TIP3   OH215869   0.134   4.433   4.685  0.0399 -0.3719  0.1066
 5288TIP3    H115870   0.137   4.375   4.761 -1.5419 -0.2521  0.2806
 5288TIP3    H215871   0.112   4.377   4.612  0.5567 -0.3154 -0.0996
 5289TIP3   OH215872   1.698   3.348   0.920 -0.1307  0.3765 -0.5127
 5289TIP3    H115873   1.747   3.416   0.966  0.0025  0.7245 -1.1560
 5289TIP3    H215874   1.697   3.274   0.981 -0.0804  0.8706  0.1016
 5290TIP3   OH215875   0.150   4.699   0.531 -0.0889  0.1917 -0.0014
 5290TIP3    H115876   0.214   4.766   0.509  1.6304 -0.5409  2.3740
 5290TIP3    H215877   0.114   4.726   0.615 -0.0749 -1.3521  0.5384
 5291TIP3   OH215878   1.945   0.572   2.735 -0.1880 -0.3424 -0.4288
 5291TIP3    H115879   1.960   0.535   2.822  0.0896 -1.7624 -1.0499
 5291TIP3    H215880   1.859   0.614   2.741  0.3029  0.5258  0.8170
 5292TIP3   OH215881   2.428   1.848   3.070  0.4743  0.1920 -0.3035
 5292TIP3    H115882   2.440   1.890   3.155  1.9165 -0.2905 -0.2245
 5292TIP3    H215883   2.361   1.899   3.026  2.2460  2.7017 -0.2981
 5293TIP3   OH215884   4.420   1.275   4.668 -0.5706 -0.6813 -0.1737
 5293TIP3    H115885   4.396   1.200   4.613 -0.0497 -0.6187 -0.5005
 5293TIP3    H215886   4.504   1.250   4.706 -0.9864 -0.7694  0.6928
 5294TIP3   OH215887   0.530   0.511   5.055  0.1679  0.2108 -0.2289
 5294TIP3    H115888   0.587   0.585   5.078 -0.5939  1.0389 -0.9576
 5294TIP3    H215889   0.569   0.475   4.976  0.3926 -0.0292 -0.0148
 5295TIP3   OH215890   3.504   4.813   2.427  0.4043  0.3132 -0.2549
 5295TIP3    H115891   3.434   4.813   2.361 -1.5423  0.7940  1.6742
 5295TIP3    H215892   3.555   4.891   2.407 -1.0742  1.3166 -0.3322
 5296TIP3   OH215893   3.054   3.165   4.165  0.1326 -0.1924  0.1695
 5296TIP3    H115894   3.056   3.100   4.236 -0.1304 -1.6282 -1.0729
 5296TIP3    H215895   3.081   3.115   4.087  1.8079  1.6412 -0.5236
 5297TIP3   OH215896   5.576   1.643   3.312  0.2603 -0.0596  0.0177
 5297TIP3    H115897   5.511   1.580   3.282 -1.2099  0.4412  1.9646
 5297TIP3    H215898   5.599   1.614   3.400 -1.9463  3.0831  1.7974
 5298TIP3   OH215899   2.257   0.571   0.637  0.6641  0.1651 -0.0482
 5298TIP3    H115900   2.311   0.597   0.562 -0.3350  2.7094  0.0134
 5298TIP3    H215901   2.302   0.608   0.713 -0.1985  0.7436  0.1983
 5299TIP3   OH215902   4.766   5.274   1.918 -0.5087 -0.3087 -0.6692
 5299TIP3    H115903   4.823   5.217   1.866 -0.3064 -1.3873  0.6696
 5299TIP3    H215904   4.733   5.339   1.856  0.7034 -0.7911 -1.8580
 5300TIP3   OH215905   3.580   4.499   3.165 -0.0727 -0.1411  0.2807
 5300TIP3    H115906   3.639   4.563   3.207  1.3024 -1.3511  0.2714
 5300TIP3    H215907   3.541   4.547   3.092 -3.1612  2.3009  3.2118
 5301TIP3   OH215908   2.595   1.477   0.753  0.4422  0.2051  0.2329
 5301TIP3    H115909   2.607   1.470   0.847 -2.2999  0.5186  0.7038
 5301TIP3    H215910   2.523   1.417   0.733 -0.5152  1.7286 -1.2463
 5302TIP3   OH215911   3.329   5.706   4.400  0.6981  0.6222  0.0013
 5302TIP3    H115912   3.328   5.787   4.451  2.2812  0.2293  0.7072
 5302TIP3    H215913   3.409   5.711   4.348  0.8248 -0.4984  0.0640
 5303TIP3   OH215914   0.282   5.629   0.416 -0.3974 -0.0852 -0.3312
 5303TIP3    H115915   0.346   5.654   0.483  1.6420 -3.0224 -0.9756
 5303TIP3    H215916   0.333   5.623   0.335 -2.0812 -0.0099 -1.4530
 5304TIP3   OH215917   0.445   3.728   0.226 -0.4721 -0.1374 -0.3897
 5304TIP3    H115918   0.387   3.740   0.150 -0.8193  0.7333  0.0077
 5304TIP3    H215919   0.527   3.697   0.188 -1.5382 -2.6669 -0.8717
 5305TIP3   OH215920   5.488   2.544   4.008  0.3256 -0.3941 -0.1519
 5305TIP3    H115921   5.428   2.470   4.010  0.6162 -0.6214  1.1067
 5305TIP3    H215922   5.575   2.505   4.000  0.3980 -0.1310 -0.6732
 5306TIP3   OH215923   4.477   3.987   3.243 -0.4317 -0.5929 -0.3162
 5306TIP3    H115924   4.446   3.901   3.214 -1.1921 -0.4769  0.1229
 5306TIP3    H215925   4.484   4.039   3.163 -2.3801 -0.3168 -0.3509
 5307TIP3   OH215926   0.476   3.210   4.030  0.4791 -0.2568  0.3035
 5307TIP3    H115927   0.438   3.223   4.117 -1.0539  0.3267 -0.4111
 5307TIP3    H215928   0.460   3.117   4.011  0.5755 -0.3219  0.5332
 5308TIP3   OH215929   5.620   3.600   0.066 -0.0804 -0.1924 -0.9758
 5308TIP3    H115930   5.563   3.531   0.032 -0.1153 -0.3956 -0.5156
 5308TIP3    H215931   5.627   3.581   0.160 -1.2870  1.2916 -0.5643
 5309TIP3   OH215932   0.686   3.364   5.051  0.1533  0.0808  0.0605
 5309TIP3    H115933   0.765   3.415   5.031  0.9387 -1.2308 -0.3636
 5309TIP3    H215934   0.672   3.311   4.972 -0.4478 -0.5731  0.5949
 5310TIP3   OH215935   3.479   0.266   0.312  0.0719  0.8770  0.0690
 5310TIP3    H115936   3.457   0.268   0.219  1.3357  1.7905 -0.2439
 5310TIP3    H215937   3.516   0.179   0.326  3.0119  1.8135 -1.1262
 5311TIP3   OH215938   0.842   5.041   4.545  0.4531  0.1304 -0.5602
 5311TIP3    H115939   0.877   4.978   4.608  0.7113 -0.4774 -1.2921
 5311TIP3    H215940   0.782   5.095   4.596 -0.0592 -0.9418  0.0212
 5312TIP3   OH215941   4.961   1.328   4.885  0.3565 -0.6731 -0.0299
 5312TIP3    H115942   5.010   1.382   4.947 -1.4250  0.2464  0.6489
 5312TIP3    H215943   4.937   1.249   4.934 -0.4218 -0.2742  0.2539
 5313TIP3   OH215944   2.204   1.105   0.717  0.1919 -0.6332  0.2911
 5313TIP3    H115945   2.149   1.180   0.692 -0.3099 -0.6780  1.2338
 5313TIP3    H215946   2.147   1.029   0.707 -0.1958 -0.6095  2.0035
 5314TIP3   OH215947   5.129   0.393   2.908 -0.4750 -0.5918 -0.0999
 5314TIP3    H115948   5.079   0.470   2.884 -3.2579 -1.7696  1.4478
 5314TIP3    H215949   5.081   0.320   2.869  1.6835 -1.6619 -0.9367
 5315TIP3   OH215950   4.336   3.338   1.913  0.2015 -0.6034  0.6098
 5315TIP3    H115951   4.305   3.249   1.924 -0.4301 -0.3317  1.1121
 5315TIP3    H215952   4.338   3.352   1.818 -0.4952 -0.8738  0.5562
 5316TIP3   OH215953   6.053   5.074   1.510  0.0186 -0.2877  0.7490
 5316TIP3    H115954   6.109   5.039   1.442  0.4552  0.2203  0.8327
 5316TIP3    H215955   6.032   4.999   1.566  3.9879  0.0783  3.1118
 5317TIP3   OH215956   0.869   4.176   0.521  0.4479  0.3738 -0.0175
 5317TIP3    H115957   0.929   4.198   0.449  1.2472 -0.1368  0.4753
 5317TIP3    H215958   0.821   4.257   0.538  0.5899  0.6341 -0.7973
 5318TIP3   OH215959   1.209   3.463   0.073  0.2791 -0.0864  0.0218
 5318TIP3    H115960   1.185   3.508  -0.008 -0.4394  0.0270  0.2899
 5318TIP3    H215961   1.279   3.517   0.110 -1.3119  1.5038  0.9035
 5319TIP3   OH215962   1.297   0.496   3.993  0.0011 -0.5471 -0.4961
 5319TIP3    H115963   1.268   0.493   4.084 -0.9579 -1.4222 -0.8027
 5319TIP3    H215964   1.335   0.583   3.982 -0.9701  0.0101  0.4111
 5320TIP3   OH215965   1.026   1.797   0.528 -0.1028 -0.9461  0.9526
 5320TIP3    H115966   1.051   1.889   0.529  0.2131 -1.0288  0.9049
 5320TIP3    H215967   0.942   1.794   0.574 -1.7340 -0.1860 -1.7441
 5321TIP3   OH215968   3.227   5.020   1.378 -0.4021 -0.2473  0.6578
 5321TIP3    H115969   3.235   5.095   1.319  0.6767 -1.2181 -0.5056
 5321TIP3    H215970   3.303   5.027   1.436 -0.6468 -0.1109  0.9675
 5322TIP3   OH215971   0.261   5.338   0.228  0.0655 -0.0793 -0.4161
 5322TIP3    H115972   0.173   5.332   0.264 -0.1931  2.4321 -0.4070
 5322TIP3    H215973   0.319   5.322   0.302 -0.4536  1.5213  0.3947
 5323TIP3   OH215974   3.392   4.016   2.002  0.1932 -0.5752  0.2003
 5323TIP3    H115975   3.445   3.971   2.067  3.7405  3.6682  0.7088
 5323TIP3    H215976   3.439   4.003   1.920 -0.1648  0.0764 -0.1110
 5324TIP3   OH215977   2.440   4.918   1.538  0.6901 -0.9245  0.1819
 5324TIP3    H115978   2.393   4.866   1.473 -0.2738 -0.2012  0.2697
 5324TIP3    H215979   2.506   4.859   1.574 -0.3607 -2.0639  0.2736
 5325TIP3   OH215980   4.807   1.646   1.184  0.4751 -0.5606  0.4801
 5325TIP3    H115981   4.750   1.627   1.110  0.9415 -1.5189  0.3438
 5325TIP3    H215982   4.816   1.562   1.229  0.9442 -0.1949  1.0850
 5326TIP3   OH215983   0.828   2.869   0.899 -0.1405 -0.2011  0.0595
 5326TIP3    H115984   0.881   2.799   0.861  1.9102  1.3288 -0.0660
 5326TIP3    H215985   0.746   2.826   0.923  0.5548 -2.3684 -1.1243
 5327TIP3   OH215986   0.812   4.967   1.741 -0.2359 -0.1340 -0.0055
 5327TIP3    H115987   0.896   4.933   1.711 -0.2564  0.5886 -0.9576
 5327TIP3    H215988   0.785   4.909   1.812  0.4357 -1.1646 -0.5759
 5328TIP3   OH215989   3.236   0.775   3.288  0.0118  0.3539 -0.2415
 5328TIP3    H115990   3.240   0.768   3.192 -0.6238 -0.0991 -0.2354
 5328TIP3    H215991   3.313   0.727   3.319  0.1127  0.3357 -0.5188
 5329TIP3   OH215992   6.068   4.942   2.852 -0.0722 -0.3779  0.6370
 5329TIP3    H115993   6.021   5.010   2.804 -0.4899 -1.6862 -0.9391
 5329TIP3    H215994   6.153   4.937   2.808  0.3699 -0.1395  1.4517
 5330TIP3   OH215995   3.286   2.802   2.585  0.0200 -0.1927  0.1442
 5330TIP3    H115996   3.256   2.753   2.662 -1.8583 -1.7872 -1.4977
 5330TIP3    H215997   3.220   2.870   2.572  0.3581  0.1071 -0.0239
 5331TIP3   OH215998   0.433   1.521   0.801 -0.6867  0.3840 -0.1317
 5331TIP3    H115999   0.446   1.428   0.780  2.3928  0.5870  0.4350
 5331TIP3    H216000   0.464   1.529   0.891 -1.4509  1.9070  0.0285
 5332TIP3   OH216001   0.752   2.215   4.951 -0.0293  0.0440  0.2328
 5332TIP3    H116002   0.774   2.290   5.006 -0.7908  0.5941 -0.1921
 5332TIP3    H216003   0.690   2.165   5.004  0.5189 -0.3198  0.5373
 5333TIP3   OH216004   3.735   3.383   2.251  0.2592  0.2440  0.3642
 5333TIP3    H116005   3.755   3.387   2.157  1.2436  1.7211  0.6121
 5333TIP3    H216006   3.752   3.292   2.275  0.2689 -0.0856 -0.8245
 5334TIP3   OH216007   4.155   4.167   2.493 -0.3645 -0.3731 -0.4281
 5334TIP3    H116008   4.167   4.088   2.441 -2.3029  0.5631 -2.4648
 5334TIP3    H216009   4.241   4.209   2.493  0.0709 -1.2154 -1.4957
 5335TIP3   OH216010   4.973   2.520   1.742 -0.3893  0.4080 -0.4942
 5335TIP3    H116011   4.880   2.539   1.738 -0.2284  1.4114  0.1454
 5335TIP3    H216012   4.978   2.424   1.747 -1.6958  0.3099  4.8467
 5336TIP3   OH216013   3.298   3.980   1.682 -0.0116 -0.0475  0.0742
 5336TIP3    H116014   3.257   4.061   1.651 -1.5861 -0.4281  1.0161
 5336TIP3    H216015   3.290   3.919   1.608  2.1919  0.9306 -1.0452
 5337TIP3   OH216016   2.782   4.079   1.838 -0.4847 -0.3199  0.0406
 5337TIP3    H116017   2.877   4.069   1.845 -0.4898 -0.1606  0.3437
 5337TIP3    H216018   2.751   3.993   1.810 -0.1935 -0.2189 -0.6188
 5338TIP3   OH216019   0.859   5.420   4.423  0.8361 -0.4997  0.1894
 5338TIP3    H116020   0.765   5.405   4.426  0.4054  0.6202 -3.1851
 5338TIP3    H216021   0.887   5.381   4.340  2.8269  1.5026 -0.1807
 5339TIP3   OH216022   0.857   3.399   0.300 -0.4649  0.0919  0.6722
 5339TIP3    H116023   0.931   3.350   0.265  1.8691  2.4865  1.9387
 5339TIP3    H216024   0.781   3.344   0.281  1.4406 -1.9318 -1.7752
 5340TIP3   OH216025   2.388   1.330   0.255 -0.4906  0.3337  0.6745
 5340TIP3    H116026   2.332   1.260   0.289  0.6718 -1.1834 -0.4403
 5340TIP3    H216027   2.400   1.389   0.330 -0.5246 -1.2639  2.0003
 5341TIP3   OH216028   4.565   5.387   4.009  0.2595 -0.1171 -1.0727
 5341TIP3    H116029   4.469   5.390   4.015  0.3576  2.0515  1.9219
 5341TIP3    H216030   4.585   5.297   3.985 -2.5206 -0.2957 -3.2446
 5342TIP3   OH216031   2.633   3.651   2.912 -0.0184  0.1538 -0.5635
 5342TIP3    H116032   2.700   3.683   2.973 -2.4226  1.4426  1.5712
 5342TIP3    H216033   2.668   3.673   2.826  2.7193 -0.1106  0.3733
 5343TIP3   OH216034   2.401   0.295   1.856 -0.8104 -0.4805 -0.6150
 5343TIP3    H116035   2.429   0.291   1.948 -0.8755 -0.4285 -0.5924
 5343TIP3    H216036   2.482   0.302   1.806 -0.8158  0.5962 -0.4968
 5344TIP3   OH216037   0.320   4.443   3.856  0.1112  0.0214 -0.5221
 5344TIP3    H116038   0.399   4.439   3.804  0.1621  0.5680 -0.4909
 5344TIP3    H216039   0.310   4.536   3.878 -2.0049  0.4262 -2.7773
 5345TIP3   OH216040   3.281   3.426   2.676 -0.0603  0.4231 -0.1336
 5345TIP3    H116041   3.199   3.398   2.717 -0.0712  0.0985 -0.3742
 5345TIP3    H216042   3.310   3.500   2.729  0.7214 -0.9266  1.4067
 5346TIP3   OH216043   2.050   1.669   2.133 -0.1183 -0.3362 -0.1517
 5346TIP3    H116044   2.078   1.688   2.044 -1.4539  0.4120 -0.4465
 5346TIP3    H216045   1.954   1.674   2.129 -0.2290 -0.9867  1.1726
 5347TIP3   OH216046   4.238   5.782   2.415 -0.0227 -0.2294 -0.2651
 5347TIP3    H116047   4.149   5.756   2.391  0.1638 -0.1524 -1.0589
 5347TIP3    H216048   4.293   5.748   2.345  1.0254 -3.1184  1.7418
 5348TIP3   OH216049   3.999   4.932   2.353 -0.1508 -0.0778  0.0669
 5348TIP3    H116050   4.055   4.980   2.414 -1.2369  0.1912  0.9045
 5348TIP3    H216051   4.010   4.840   2.378 -3.0177  0.1657  3.0241
 5349TIP3   OH216052   2.258   0.415   3.140  0.3313 -0.8142 -0.5853
 5349TIP3    H116053   2.274   0.487   3.202  0.3219 -1.0648 -0.2879
 5349TIP3    H216054   2.345   0.395   3.104  0.5558 -1.5093  0.2915
 5350TIP3   OH216055   4.702   5.954   1.718  0.5467 -0.6547  0.2772
 5350TIP3    H116056   4.751   6.017   1.771 -0.7610  0.1705  0.5661
 5350TIP3    H216057   4.728   5.973   1.628 -1.1395  1.5900  0.1830
 5351TIP3   OH216058   2.475   4.726   2.839  0.0387  0.1633  0.3647
 5351TIP3    H116059   2.388   4.759   2.817  0.0313 -0.1093 -0.0343
 5351TIP3    H216060   2.506   4.783   2.909  0.1761  1.2665 -0.5621
 5352TIP3   OH216061   1.773   4.664   2.559 -0.0974  0.3038  0.0470
 5352TIP3    H116062   1.736   4.717   2.630  0.0400  0.0584  0.3049
 5352TIP3    H216063   1.697   4.633   2.510 -0.1907  0.5083  0.0605
 5353TIP3   OH216064   4.318   3.541   0.764 -0.4953 -0.2819  0.2664
 5353TIP3    H116065   4.388   3.587   0.811  0.6984  0.9558 -2.5058
 5353TIP3    H216066   4.250   3.528   0.830  1.1746  1.0393  2.3948
 5354TIP3   OH216067   4.350   1.548   4.136 -0.4701  0.6518  0.2538
 5354TIP3    H116068   4.384   1.504   4.058 -1.0594  0.5318  0.0640
 5354TIP3    H216069   4.428   1.585   4.178 -0.3755  3.0728 -1.8191
 5355TIP3   OH216070   3.410   0.398   2.823 -0.1169  0.5929 -1.1292
 5355TIP3    H116071   3.438   0.325   2.767  0.5434 -0.4519  0.4940
 5355TIP3    H216072   3.336   0.364   2.872  1.0444  0.4982  0.6351
 5356TIP3   OH216073   6.075   3.619   3.447  0.0945 -0.3333 -0.4252
 5356TIP3    H116074   6.117   3.546   3.401  0.3771 -0.7206  0.4163
 5356TIP3    H216075   5.982   3.611   3.424  0.0714 -1.1576 -0.1027
 5357TIP3   OH216076   5.551   3.703   2.166  0.1368  1.0630 -0.4806
 5357TIP3    H116077   5.605   3.659   2.231 -0.3270  0.5667 -0.4293
 5357TIP3    H216078   5.574   3.796   2.175 -0.5589  1.1167  0.9813
 5358TIP3   OH216079   1.810   4.024   0.587 -0.1824  0.0675 -0.1181
 5358TIP3    H116080   1.888   4.015   0.531 -0.4512  0.1389 -0.5124
 5358TIP3    H216081   1.819   4.111   0.627 -1.1008  1.0171 -1.8294
 5359TIP3   OH216082   1.740   4.387   4.899 -0.0640 -0.1500 -0.2957
 5359TIP3    H116083   1.775   4.456   4.955  0.6784 -0.7398 -0.0183
 5359TIP3    H216084   1.646   4.404   4.896 -0.1023  0.0091  0.9963
 5360TIP3   OH216085   2.575   0.667   3.625  0.2807  0.0245  0.0204
 5360TIP3    H116086   2.497   0.667   3.681  1.1258  0.0983  1.2489
 5360TIP3    H216087   2.610   0.756   3.633  0.7881 -0.1648 -0.0976
 5361TIP3   OH216088   1.198   4.987   1.178 -0.2293  0.5517 -0.2925
 5361TIP3    H116089   1.179   5.080   1.187  0.6620  0.7190 -0.0394
 5361TIP3    H216090   1.187   4.952   1.267  0.1591  0.5549 -0.2445
 5362TIP3   OH216091   1.638   1.411   0.936 -0.4826  0.0915  0.0421
 5362TIP3    H116092   1.632   1.472   0.863 -0.2040 -0.6630 -0.6238
 5362TIP3    H216093   1.690   1.338   0.903 -0.0005 -0.0796  1.1256
 5363TIP3   OH216094   5.338   1.775   3.450  0.3174  0.1842  0.0376
 5363TIP3    H116095   5.355   1.787   3.543 -3.8949  2.2920  0.7566
 5363TIP3    H216096   5.356   1.860   3.411 -1.2307  0.3550 -0.3730
 5364TIP3   OH216097   0.628   4.733   3.102  0.5918  0.1134 -0.0626
 5364TIP3    H116098   0.709   4.701   3.062  1.3044 -0.6652  1.8718
 5364TIP3    H216099   0.645   4.825   3.121  0.7148  0.1551 -0.3632
 5365TIP3   OH216100   6.017   5.731   0.114  0.2026 -0.0103  0.3767
 5365TIP3    H116101   6.097   5.771   0.148  0.3859 -1.4888  1.7948
 5365TIP3    H216102   6.042   5.695   0.030  0.5069  1.1938 -0.0695
 5366TIP3   OH216103   1.559   0.105   1.801  0.5488 -0.2037  0.2329
 5366TIP3    H116104   1.532   0.190   1.837 -0.9362 -0.2070 -0.8085
 5366TIP3    H216105   1.642   0.123   1.758  0.9467  0.4096  1.2148
 5367TIP3   OH216106   6.004   0.466   2.371  0.5001  0.1513 -0.2231
 5367TIP3    H116107   5.989   0.383   2.416  0.7449  0.5712  0.6684
 5367TIP3    H216108   5.927   0.479   2.317  0.2872 -0.4694 -0.0750
 5368TIP3   OH216109   1.620   4.507   4.433  0.2024 -0.1694  0.2074
 5368TIP3    H116110   1.556   4.579   4.437  0.6781  0.3480 -1.0482
 5368TIP3    H216111   1.669   4.515   4.515 -0.4578  0.2511  0.5784
 5369TIP3   OH216112   6.261   5.218   0.543 -0.4128 -0.2132 -0.0813
 5369TIP3    H116113   6.208   5.274   0.601  0.2213 -0.0073  0.3062
 5369TIP3    H216114   6.243   5.129   0.575  0.9176 -0.0284  1.3058
 5370TIP3   OH216115   0.131   5.598   5.144  0.7891 -0.2383 -0.1860
 5370TIP3    H116116   0.150   5.578   5.236 -0.9512 -0.1871  0.2157
 5370TIP3    H216117   0.212   5.636   5.111  1.5095 -0.4160  1.2749
 5371TIP3   OH216118   2.970   2.607   1.796  0.3457 -0.0487  0.3494
 5371TIP3    H116119   2.991   2.588   1.887 -0.6520  0.7645  0.7570
 5371TIP3    H216120   2.875   2.598   1.790  0.1772  1.7628 -0.1458
 5372TIP3   OH216121   0.708   5.282   2.328  0.1930 -0.0916 -0.5046
 5372TIP3    H116122   0.769   5.213   2.355  0.1717 -0.2453 -0.8488
 5372TIP3    H216123   0.661   5.305   2.408 -0.5417 -1.2078 -0.5886
 5373TIP3   OH216124   5.885   5.053   2.369 -0.4163 -0.1773 -0.1699
 5373TIP3    H116125   5.847   4.965   2.363 -1.3413  0.1850  0.1615
 5373TIP3    H216126   5.969   5.046   2.323  0.2715 -1.6390  1.1927
 5374TIP3   OH216127   2.363   2.172   4.148 -0.0795 -0.1545 -0.6018
 5374TIP3    H116128   2.282   2.162   4.198 -0.5747 -1.4896 -1.6152
 5374TIP3    H216129   2.379   2.085   4.111  0.6521  0.6164 -2.1778
 5375TIP3   OH216130   3.470   2.351   2.267 -0.2855 -0.5313 -0.1664
 5375TIP3    H116131   3.442   2.443   2.271 -1.6424 -0.9676  1.6378
 5375TIP3    H216132   3.390   2.301   2.283  0.6337 -2.0024 -0.0314
 5376TIP3   OH216133   2.444   2.907   0.654  0.1895  0.6789  0.4494
 5376TIP3    H116134   2.439   2.876   0.563  1.5467  1.0758  0.2162
 5376TIP3    H216135   2.534   2.887   0.681 -0.7648 -1.3164  2.4169
 5377TIP3   OH216136   5.082   5.626   2.211 -0.0487 -0.3036  0.5764
 5377TIP3    H116137   5.134   5.573   2.151  1.8713  2.1189 -0.0725
 5377TIP3    H216138   5.145   5.689   2.248 -2.1109  1.3818  1.4175
 5378TIP3   OH216139   6.102   1.456   3.638  0.5718 -0.1534 -0.1680
 5378TIP3    H116140   6.097   1.454   3.733  0.0027  1.1733 -0.1490
 5378TIP3    H216141   6.146   1.540   3.618  1.2521 -0.6983 -1.0574
 5379TIP3   OH216142   0.341   5.557   1.847  0.8004  0.4581  0.6669
 5379TIP3    H116143   0.361   5.632   1.902  1.0128  1.5731 -0.8698
 5379TIP3    H216144   0.426   5.532   1.809  0.9053 -1.1887  1.8781
 5380TIP3   OH216145   5.443   5.534   2.143 -0.6518 -0.2444 -0.6507
 5380TIP3    H116146   5.535   5.562   2.152 -0.9094  1.1269 -1.8433
 5380TIP3    H216147   5.436   5.457   2.199  0.6130  1.0160  1.3855
 5381TIP3   OH216148   0.277   5.728   4.852 -0.0225 -0.2060 -0.4028
 5381TIP3    H116149   0.256   5.793   4.919  0.4622 -0.2521 -0.1992
 5381TIP3    H216150   0.339   5.773   4.794 -1.0002  0.0915 -1.2667
 5382TIP3   OH216151   5.923   5.166   2.760 -0.0729 -0.0839 -0.0510
 5382TIP3    H116152   5.864   5.091   2.772 -0.8691  0.6766  1.0006
 5382TIP3    H216153   5.883   5.215   2.688  0.4970 -0.7040 -0.7985
 5383TIP3   OH216154   6.248   0.580   1.730  0.3681 -0.2392  0.7051
 5383TIP3    H116155   6.278   0.668   1.753 -0.1118 -0.2551  1.4380
 5383TIP3    H216156   6.229   0.539   1.814  0.4933 -1.0122  0.3610
 5384TIP3   OH216157   3.821   3.462   4.700 -0.4973 -0.1824 -0.0131
 5384TIP3    H116158   3.897   3.518   4.687 -0.1141  0.0628  2.7118
 5384TIP3    H216159   3.806   3.463   4.795 -2.4446 -2.1316 -0.2140
 5385TIP3   OH216160   3.491   2.846   3.204  0.2008  0.2338 -0.1611
 5385TIP3    H116161   3.520   2.803   3.285  0.4469  0.0416 -0.3482
 5385TIP3    H216162   3.463   2.774   3.147 -1.2552  0.4421  0.2360
 5386TIP3   OH216163   2.952   3.027   1.727 -0.2199 -0.2853  0.5645
 5386TIP3    H116164   2.929   3.054   1.816  3.7506  2.2126  1.0937
 5386TIP3    H216165   2.947   3.107   1.675  0.0679 -1.1649 -0.8807
 5387TIP3   OH216166   6.245   4.961   0.656  0.0210  0.1088 -0.5726
 5387TIP3    H116167   6.155   4.967   0.689  0.7162  0.9687  1.3358
 5387TIP3    H216168   6.267   4.868   0.664 -0.1820  0.1398  0.4894
 5388TIP3   OH216169   2.884   3.132   1.958  0.6265  0.2914 -0.0487
 5388TIP3    H116170   2.835   3.065   2.005 -1.2382 -1.0834 -3.5606
 5388TIP3    H216171   2.836   3.213   1.974  0.7166  0.1097  1.2433
 5389TIP3   OH216172   3.941   0.791   0.195  0.3183 -0.0669 -0.0193
 5389TIP3    H116173   3.893   0.859   0.149  1.4771  0.1620 -0.9360
 5389TIP3    H216174   4.016   0.772   0.139  1.6900  0.0908  1.6752
 5390TIP3   OH216175   6.311   4.628   1.506  0.2947  0.8839  0.3096
 5390TIP3    H116176   6.259   4.621   1.587  0.1549  0.3188  0.1756
 5390TIP3    H216177   6.398   4.655   1.536  0.0738  1.2923  0.5904
 5391TIP3   OH216178   5.519   4.241   4.026  0.1270 -0.3577 -0.4735
 5391TIP3    H116179   5.579   4.245   3.951 -0.2160 -2.3671 -0.9147
 5391TIP3    H216180   5.445   4.189   3.994 -0.6384 -0.1199  0.8704
 5392TIP3   OH216181   0.660   0.592   3.191  0.2230 -0.4767 -0.3548
 5392TIP3    H116182   0.630   0.682   3.176  2.4603  0.3344 -0.2740
 5392TIP3    H216183   0.582   0.547   3.225 -1.0818  1.2883 -0.8460
 5393TIP3   OH216184   6.092   0.579   1.027 -0.5965  0.2319 -0.1705
 5393TIP3    H116185   6.032   0.639   0.982 -2.0277 -0.1075  1.1881
 5393TIP3    H216186   6.041   0.545   1.100  1.9007  1.5955  2.4433
 5394TIP3   OH216187   2.826   2.889   3.307 -0.2487  0.3043  0.2432
 5394TIP3    H116188   2.883   2.812   3.311 -0.0030  0.4822  0.2036
 5394TIP3    H216189   2.861   2.948   3.374  0.6179  1.0894 -0.8715
 5395TIP3   OH216190   1.150   3.680   4.197  0.6268  0.1244 -0.0965
 5395TIP3    H116191   1.088   3.644   4.133  2.0400 -1.4817 -0.6187
 5395TIP3    H216192   1.182   3.760   4.157  0.7379 -0.3416 -0.9769
 5396TIP3   OH216193   2.923   1.269   0.420  0.4106 -0.4532  0.0376
 5396TIP3    H116194   2.997   1.238   0.367  0.0564 -1.8434  0.3219
 5396TIP3    H216195   2.862   1.307   0.356  0.3884 -1.3079 -0.4635
 5397TIP3   OH216196   0.802   3.212   3.240 -0.0031  0.1626  0.1335
 5397TIP3    H116197   0.734   3.202   3.173  0.0586 -0.6950  0.1796
 5397TIP3    H216198   0.867   3.144   3.218 -0.8128 -1.3405  2.0485
 5398TIP3   OH216199   5.787   3.808   4.846 -0.6898 -0.0048  0.6524
 5398TIP3    H116200   5.726   3.792   4.775 -0.9705 -0.4182  0.9804
 5398TIP3    H216201   5.759   3.749   4.916  1.3882 -1.8138  0.0542
 5399TIP3   OH216202   1.553   5.138   1.301 -0.5326 -0.0733  0.5268
 5399TIP3    H116203   1.475   5.166   1.253 -1.4837 -1.5110  1.1874
 5399TIP3    H216204   1.548   5.185   1.385  0.3833  1.3380 -0.1610
 5400TIP3   OH216205   0.630   0.146   3.621  0.3289 -0.2406  0.0595
 5400TIP3    H116206   0.698   0.189   3.569 -0.7518  2.9008  1.0435
 5400TIP3    H216207   0.552   0.200   3.608 -0.7187 -0.9954  2.6773
 5401TIP3   OH216208   3.925   5.457   1.366 -0.3122  0.3420  0.1583
 5401TIP3    H116209   3.936   5.444   1.272  2.2226  0.9160  0.3071
 5401TIP3    H216210   3.910   5.370   1.401  0.2119 -0.0667 -0.6116
 5402TIP3   OH216211   0.223   4.786   3.198  0.1838  0.1941  0.6136
 5402TIP3    H116212   0.247   4.704   3.240  0.9049  0.3338  0.4947
 5402TIP3    H216213   0.156   4.762   3.134  1.3599 -0.5402 -0.3888
 5403TIP3   OH216214   2.754   2.446   2.345  0.2182  0.3800 -0.1447
 5403TIP3    H116215   2.693   2.391   2.394 -0.0845  1.4892  0.7666
 5403TIP3    H216216   2.827   2.387   2.324  0.2663 -0.2072  1.4823
 5404TIP3   OH216217   0.488   3.395   0.395 -0.1276  0.0419 -0.4836
 5404TIP3    H116218   0.572   3.439   0.408  1.2315 -2.7998  1.5345
 5404TIP3    H216219   0.493   3.359   0.307  0.8493 -0.1537 -0.3652
 5405TIP3   OH216220   2.839   0.355   3.574 -0.2193 -0.4611  0.2256
 5405TIP3    H116221   2.835   0.414   3.499  0.3660 -0.9994 -0.2383
 5405TIP3    H216222   2.880   0.275   3.540  2.8448  0.2935  1.7463
 5406TIP3   OH216223   2.356   4.503   1.858  0.1542 -0.1049  0.1983
 5406TIP3    H116224   2.414   4.537   1.927  0.1772 -0.6626  0.4561
 5406TIP3    H216225   2.270   4.538   1.881 -0.0007 -0.9640  0.9909
 5407TIP3   OH216226   5.575   0.621   3.212  0.9195  0.0342  0.2736
 5407TIP3    H116227   5.513   0.693   3.221  2.1394  0.9003  2.3482
 5407TIP3    H216228   5.616   0.635   3.127 -1.1944 -0.1934 -0.8576
 5408TIP3   OH216229   1.131   2.248   3.116  0.3644 -0.0791  0.1771
 5408TIP3    H116230   1.163   2.159   3.131 -0.6312 -0.4764  0.0044
 5408TIP3    H216231   1.132   2.289   3.202  2.9263  0.5020 -0.0317
 5409TIP3   OH216232   5.918   1.069   2.000 -0.1527 -0.1435 -0.7329
 5409TIP3    H116233   5.873   1.127   2.062 -1.3152 -0.1201 -1.5727
 5409TIP3    H216234   5.850   1.042   1.939  0.7754 -0.9369 -1.4396
 5410TIP3   OH216235   4.224   1.836   2.164  0.5117  0.9007 -0.8360
 5410TIP3    H116236   4.135   1.812   2.188  1.4410 -0.6507  1.4773
 5410TIP3    H216237   4.250   1.771   2.099 -0.0548  1.4745 -1.6642
 5411TIP3   OH216238   0.811   4.678   0.286 -0.0579 -0.1038  0.2209
 5411TIP3    H116239   0.780   4.764   0.313 -0.0522  0.0240 -0.1694
 5411TIP3    H216240   0.901   4.694   0.255 -0.4860 -0.0262 -1.0265
 5412TIP3   OH216241   0.173   2.803   1.030  0.4510 -0.4966  0.0922
 5412TIP3    H116242   0.170   2.874   1.095  2.0242  0.5075 -0.8523
 5412TIP3    H216243   0.082   2.791   1.003  0.1828  1.6997 -0.2225
 5413TIP3   OH216244   4.557   4.406   4.760 -0.2247  0.0753  0.2152
 5413TIP3    H116245   4.515   4.477   4.808  0.4650  2.7314 -2.7716
 5413TIP3    H216246   4.485   4.352   4.728 -0.7884 -0.3035  1.9966
 5414TIP3   OH216247   5.256   5.897   5.161 -0.3526 -0.2920  0.7954
 5414TIP3    H116248   5.342   5.915   5.123 -0.3132  1.9246  1.7738
 5414TIP3    H216249   5.203   5.973   5.136 -1.8272 -1.2791  0.8252
 5415TIP3   OH216250   3.245   2.552   0.384  0.0728  0.4606 -1.2667
 5415TIP3    H116251   3.239   2.467   0.340  0.6404 -0.0698 -0.3512
 5415TIP3    H216252   3.193   2.610   0.330  0.0412 -0.3687 -2.1640
 5416TIP3   OH216253   4.064   3.002   3.019 -0.5770  0.3336  0.0275
 5416TIP3    H116254   3.970   2.986   3.020 -0.1581 -2.7575  2.3045
 5416TIP3    H216255   4.079   3.060   3.094 -0.6188  0.7701 -0.2945
 5417TIP3   OH216256   5.339   1.353   0.474 -0.5279  0.4312  0.2884
 5417TIP3    H116257   5.398   1.412   0.521  0.3031 -0.3249  0.2166
 5417TIP3    H216258   5.391   1.321   0.400 -0.6954 -0.9966  0.7606
 5418TIP3   OH216259   4.034   0.364   3.299  0.4491  0.3870  0.0420
 5418TIP3    H116260   4.008   0.451   3.328  0.2190  0.0098  0.9904
 5418TIP3    H216261   4.002   0.305   3.367 -1.1635 -0.6588 -1.5620
 5419TIP3   OH216262   0.340   5.144   3.915 -0.2842  0.5872  0.3021
 5419TIP3    H116263   0.326   5.121   4.006  0.3091  0.5208  0.3822
 5419TIP3    H216264   0.434   5.161   3.909  0.1843 -1.9047 -0.8419
 5420TIP3   OH216265   6.039   2.545   2.590  0.3333 -0.4626  0.4433
 5420TIP3    H116266   5.956   2.592   2.583  1.0230  0.6148 -0.8647
 5420TIP3    H216267   6.093   2.600   2.646  0.7568 -0.2690 -0.1524
 5421TIP3   OH216268   0.210   0.722   3.929 -0.0615  0.5561 -0.1430
 5421TIP3    H116269   0.209   0.762   4.016  1.8706 -1.7333  1.0599
 5421TIP3    H216270   0.158   0.642   3.939  2.7797 -1.4416 -0.0258
 5422TIP3   OH216271   1.725   0.458   4.588 -0.3047  0.1597 -0.3627
 5422TIP3    H116272   1.773   0.435   4.509 -0.2229  1.4858 -0.7309
 5422TIP3    H216273   1.787   0.507   4.641  0.1306 -2.0493  1.2861
 5423TIP3   OH216274   5.172   2.578   3.809  0.3339 -0.1335  0.3968
 5423TIP3    H116275   5.141   2.511   3.870  1.9376  0.5352  2.0159
 5423TIP3    H216276   5.148   2.661   3.850  1.9758  0.3409  0.4509
 5424TIP3   OH216277   1.450   1.556   1.383 -0.1225  0.2114  0.1418
 5424TIP3    H116278   1.483   1.470   1.409 -0.7728 -0.1339 -0.1423
 5424TIP3    H216279   1.472   1.563   1.290 -1.9980 -0.6197 -0.4261
 5425TIP3   OH216280   1.912   5.449   1.421 -0.0509  0.3994 -0.0135
 5425TIP3    H116281   1.977   5.509   1.385  0.6574  0.5360  1.4117
 5425TIP3    H216282   1.829   5.478   1.385  0.2134  2.5133  0.9659
 5426TIP3   OH216283   2.315   5.105   0.338  0.0669  0.0064 -0.0630
 5426TIP3    H116284   2.334   5.056   0.418  0.3927  0.7962  0.3576
 5426TIP3    H216285   2.376   5.069   0.273  1.3544  0.8410  0.6321
 5427TIP3   OH216286   1.963   2.953   3.124 -0.3049  0.1012 -0.1219
 5427TIP3    H116287   2.039   3.005   3.098  1.3955 -0.4630  3.2395
 5427TIP3    H216288   1.908   3.013   3.174 -0.3881 -0.3149  0.2942
 5428TIP3   OH216289   3.428   3.486   3.950  0.0839  0.4601 -0.0015
 5428TIP3    H116290   3.482   3.489   4.029 -1.1792  0.0360  0.9196
 5428TIP3    H216291   3.449   3.401   3.910 -0.5354 -0.1099  0.8429
 5429TIP3   OH216292   2.221   1.424   3.760  0.3314 -0.9271 -0.3330
 5429TIP3    H116293   2.183   1.445   3.675 -1.3343 -1.3456  0.2748
 5429TIP3    H216294   2.152   1.444   3.823  1.8123  0.1852  1.0288
 5430TIP3   OH216295   0.564   5.524   2.235  0.4601  0.4076  0.1042
 5430TIP3    H116296   0.502   5.453   2.220 -0.5363  1.4358 -0.8261
 5430TIP3    H216297   0.648   5.480   2.251 -0.3069 -0.9801  0.4570
 5431TIP3   OH216298   2.573   5.009   5.189 -0.1951  0.3605  0.2163
 5431TIP3    H116299   2.660   5.033   5.160 -0.5348 -1.3782 -2.6012
 5431TIP3    H216300   2.525   5.092   5.192  0.4731  0.9307 -2.3705
 5432TIP3   OH216301   0.559   2.582   0.887  0.6585  0.2672 -0.1178
 5432TIP3    H116302   0.532   2.658   0.939 -0.0453  0.3057 -0.5271
 5432TIP3    H216303   0.581   2.516   0.952  0.1683  0.4485  0.2448
 5433TIP3   OH216304   3.304   4.580   2.764  0.7786 -0.3444  0.7727
 5433TIP3    H116305   3.267   4.505   2.812  0.4434 -2.1220 -2.0035
 5433TIP3    H216306   3.277   4.565   2.673  3.1614  1.6389 -0.3734
 5434TIP3   OH216307   3.736   1.584   3.203  0.5601  0.2131  0.6580
 5434TIP3    H116308   3.816   1.556   3.159  1.7260  1.7547  1.6624
 5434TIP3    H216309   3.711   1.510   3.259  0.9260 -0.5147 -0.1282
 5435TIP3   OH216310   2.965   5.770   0.648 -0.1061 -0.1427 -0.6866
 5435TIP3    H116311   2.962   5.773   0.744  1.7334  0.4341 -0.6164
 5435TIP3    H216312   2.959   5.677   0.627 -0.2612 -0.2966 -0.0066
 5436TIP3   OH216313   5.837   2.585   1.854 -0.4753 -0.0288  0.3315
 5436TIP3    H116314   5.880   2.641   1.789  0.1695 -1.8011 -0.8529
 5436TIP3    H216315   5.857   2.625   1.938  0.3521  1.2386 -0.4456
 5437TIP3   OH216316   0.829   5.610   2.426 -0.5161 -0.2849  0.0459
 5437TIP3    H116317   0.886   5.535   2.408 -1.3331 -0.6441 -1.1129
 5437TIP3    H216318   0.878   5.685   2.392 -0.2038 -0.4307  0.1681
 5438TIP3   OH216319   3.810   2.716   0.254 -0.7042  0.0874  0.5362
 5438TIP3    H116320   3.774   2.643   0.204  1.2744 -1.9752  1.9491
 5438TIP3    H216321   3.905   2.706   0.246 -0.3488  2.7897  0.4563
 5439TIP3   OH216322   4.777   2.128   0.107 -0.5428  0.2650  0.5750
 5439TIP3    H116323   4.809   2.214   0.079 -1.8214  0.9347  1.0519
 5439TIP3    H216324   4.830   2.106   0.183  0.6674  0.0029 -0.3076
 5440TIP3   OH216325   5.688   4.480   2.611 -0.2096  0.4685 -0.1553
 5440TIP3    H116326   5.633   4.408   2.641  0.1141  0.1824 -0.2426
 5440TIP3    H216327   5.718   4.523   2.691  1.3056 -0.7804 -0.0073
 5441TIP3   OH216328   1.857   1.098   4.067 -0.0012 -0.0496  0.3301
 5441TIP3    H116329   1.916   1.094   3.991 -0.5932 -2.8927 -0.0950
 5441TIP3    H216330   1.847   1.192   4.084  1.3254  0.6533 -2.1729
 5442TIP3   OH216331   4.487   4.057   3.644 -0.1430  0.5154  0.2634
 5442TIP3    H116332   4.513   4.118   3.575 -0.9064  0.2572 -0.2753
 5442TIP3    H216333   4.403   4.022   3.614  0.2488 -0.7486  0.5915
 5443TIP3   OH216334   3.255   0.952   2.398  0.3041 -0.2062 -0.3814
 5443TIP3    H116335   3.249   0.862   2.367 -1.4764 -0.3978  0.4541
 5443TIP3    H216336   3.349   0.966   2.413  0.6749 -1.6695 -1.1771
 5444TIP3   OH216337   0.190   0.541   1.265  0.0273 -0.6262 -0.1969
 5444TIP3    H116338   0.100   0.565   1.286  0.3151  0.0080  0.3122
 5444TIP3    H216339   0.214   0.600   1.194 -0.3862 -1.6704 -1.2516
 5445TIP3   OH216340   3.998   3.543   2.132  0.1495  0.1136  0.0021
 5445TIP3    H116341   3.951   3.619   2.167  0.8528  1.4184 -1.7132
 5445TIP3    H216342   3.938   3.506   2.067 -0.1711 -0.7932  0.7995
 5446TIP3   OH216343   6.046   2.675   4.175  0.0968 -0.2219 -0.3201
 5446TIP3    H116344   5.998   2.751   4.206  0.2247 -1.3617  3.0428
 5446TIP3    H216345   6.002   2.600   4.215  1.5486 -1.7233 -1.3792
 5447TIP3   OH216346   5.816   1.122   1.250  0.4349  0.0411  0.1674
 5447TIP3    H116347   5.758   1.127   1.174  0.0528 -1.9079  0.2809
 5447TIP3    H216348   5.880   1.192   1.236 -0.1070  0.2431 -1.5286
 5448TIP3   OH216349   3.720   3.091   3.994  0.4680 -0.0244  0.1278
 5448TIP3    H116350   3.733   3.141   4.075  0.0435  0.3507 -0.0301
 5448TIP3    H216351   3.669   3.015   4.021  0.9213 -0.2603  0.3302
 5449TIP3   OH216352   0.269   1.683   4.122 -0.0081 -0.2385 -0.2898
 5449TIP3    H116353   0.345   1.677   4.064 -0.7146 -2.6981 -1.1265
 5449TIP3    H216354   0.194   1.666   4.064 -1.2130  1.8469  0.5589
 5450TIP3   OH216355   3.728   5.768   0.710  0.4434 -0.3058  0.2917
 5450TIP3    H116356   3.802   5.819   0.742  0.6792  0.6966 -1.7645
 5450TIP3    H216357   3.686   5.823   0.644 -0.7171 -1.8188 -0.2998
 5451TIP3   OH216358   4.935   0.255   2.782  0.0830  0.5590 -0.2151
 5451TIP3    H116359   4.915   0.164   2.801  0.8628  0.6517  1.1960
 5451TIP3    H216360   4.854   0.302   2.798  0.1025  0.3125  0.6383
 5452TIP3   OH216361   4.574   2.590   2.743 -0.4548  0.2772 -0.0255
 5452TIP3    H116362   4.517   2.517   2.718 -0.3389  0.3778 -0.5844
 5452TIP3    H216363   4.525   2.668   2.718 -0.0257  0.3632 -0.6195
 5453TIP3   OH216364   1.417   2.856   1.801  0.0498  0.1976 -0.3269
 5453TIP3    H116365   1.495   2.884   1.848 -0.3773 -0.6028  0.9099
 5453TIP3    H216366   1.415   2.911   1.723  0.7147  1.6963  0.6594
 5454TIP3   OH216367   3.389   3.349   0.504 -0.6194 -0.3735  0.3181
 5454TIP3    H116368   3.458   3.285   0.521 -0.0847 -0.3156 -1.3696
 5454TIP3    H216369   3.419   3.429   0.546  0.0104 -0.5394  0.1955
 5455TIP3   OH216370   6.037   3.154   5.180  0.1777 -0.5084 -0.0184
 5455TIP3    H116371   6.127   3.181   5.197 -0.6976  2.7929  0.0372
 5455TIP3    H216372   6.014   3.196   5.097 -2.1903  1.4177  1.4588
 5456TIP3   OH216373   3.995   2.260   4.704 -0.3362 -0.4088 -0.2405
 5456TIP3    H116374   3.933   2.188   4.710 -0.2773 -0.4799 -0.4841
 5456TIP3    H216375   4.070   2.223   4.657 -0.2119 -0.2546 -0.1648
 5457TIP3   OH216376   2.543   4.485   2.551  0.0515  0.0675 -0.3483
 5457TIP3    H116377   2.638   4.497   2.540  0.2203  0.9336  1.5954
 5457TIP3    H216378   2.506   4.571   2.534 -0.2614 -0.0070 -0.0519
 5458TIP3   OH216379   6.180   0.254   2.173 -0.4148 -0.9622  0.1684
 5458TIP3    H116380   6.240   0.211   2.111  1.0822 -0.6889  1.3751
 5458TIP3    H216381   6.237   0.297   2.236 -1.8857 -1.7109  2.1089
 5459TIP3   OH216382   1.564   1.832   1.752 -0.2403 -0.4636  0.2748
 5459TIP3    H116383   1.568   1.814   1.846 -0.1635  0.4752  0.4684
 5459TIP3    H216384   1.609   1.916   1.742  0.4260 -0.9290 -0.7142
 5460TIP3   OH216385   4.034   4.591   2.856  0.1492  0.1706  0.6076
 5460TIP3    H116386   4.104   4.550   2.804  0.6566  0.1270  1.3204
 5460TIP3    H216387   3.986   4.644   2.792  0.2266 -0.5673 -0.0898
 5461TIP3   OH216388   2.263   4.310   3.364 -0.1314  0.2393 -0.3013
 5461TIP3    H116389   2.326   4.382   3.361 -0.4218  0.5703  0.8704
 5461TIP3    H216390   2.283   4.264   3.445 -0.0397 -0.9327 -0.9701
 5462TIP3   OH216391   3.131   0.407   3.824 -0.2119 -0.4577 -0.6392
 5462TIP3    H116392   3.165   0.341   3.763  0.4453 -0.4463 -0.2974
 5462TIP3    H216393   3.195   0.409   3.895 -2.0955 -2.1167  1.2204
 5463TIP3   OH216394   5.509   1.256   0.097  0.2118 -0.1834  0.5586
 5463TIP3    H116395   5.418   1.253   0.066 -0.0194 -0.8976  1.2689
 5463TIP3    H216396   5.517   1.179   0.153  1.6518 -0.9048 -0.5535
 5464TIP3   OH216397   2.424   3.327   2.623 -0.4004 -0.5672 -0.2031
 5464TIP3    H116398   2.402   3.235   2.609 -1.0443 -0.3974 -0.3223
 5464TIP3    H216399   2.473   3.327   2.706  0.1827 -1.0920 -0.5371
 5465TIP3   OH216400   3.929   1.858   0.573 -0.1814 -0.5184  0.4046
 5465TIP3    H116401   3.971   1.772   0.577  0.2643 -0.2978  0.5343
 5465TIP3    H216402   3.986   1.909   0.516 -1.7446 -1.0185 -1.7353
 5466TIP3   OH216403   4.726   0.113   4.676  0.0224 -0.0069  0.6635
 5466TIP3    H116404   4.687   0.200   4.674 -0.4754 -0.2087  1.3196
 5466TIP3    H216405   4.675   0.062   4.613  0.0240  0.0599  0.6085
 5467TIP3   OH216406   2.150   4.591   3.570 -0.4542 -0.4631 -0.4366
 5467TIP3    H116407   2.058   4.598   3.595 -0.4319 -0.9746 -0.1890
 5467TIP3    H216408   2.172   4.499   3.586  0.7437  0.1436  1.7830
 5468TIP3   OH216409   1.663   0.739   2.148 -0.3685 -0.4113 -1.3244
 5468TIP3    H116410   1.716   0.818   2.140  1.6468 -1.7112 -1.4041
 5468TIP3    H216411   1.658   0.723   2.242  0.7272 -1.1393 -1.3806
 5469TIP3   OH216412   2.721   3.434   1.587  0.7574 -0.3454 -0.0226
 5469TIP3    H116413   2.779   3.469   1.655  2.9954 -2.9860 -0.3910
 5469TIP3    H216414   2.634   3.435   1.627  1.2256  2.2608  1.1591
 5470TIP3   OH216415   0.096   3.655   0.795 -0.1462  0.7861 -0.2391
 5470TIP3    H116416   0.161   3.618   0.855 -1.6681  1.2016  1.7877
 5470TIP3    H216417   0.072   3.739   0.835 -0.5140  1.5643 -1.9971
 5471TIP3   OH216418   2.494   0.335   3.020 -0.3691 -0.2406 -0.2947
 5471TIP3    H116419   2.471   0.302   2.933  0.0758 -0.5622 -0.2911
 5471TIP3    H216420   2.501   0.257   3.075 -1.1796 -0.0040  0.1677
 5472TIP3   OH216421   1.185   0.577   2.578 -0.2716 -0.3667  0.5704
 5472TIP3    H116422   1.186   0.657   2.630 -0.3397 -0.1078  0.1691
 5472TIP3    H216423   1.267   0.579   2.528  0.7673 -1.5692  2.1096
 5473TIP3   OH216424   1.423   5.439   0.298  0.0084  0.2744 -0.1924
 5473TIP3    H116425   1.353   5.398   0.349  0.1658 -0.7033 -0.7329
 5473TIP3    H216426   1.389   5.442   0.208  0.9034 -0.8623 -0.5961
 5474TIP3   OH216427   4.754   3.936   2.416  0.2385  0.3068 -0.3103
 5474TIP3    H116428   4.840   3.932   2.457  0.7431  3.2257 -0.8432
 5474TIP3    H216429   4.695   3.897   2.481  1.7429 -0.4268  0.6785
 5475TIP3   OH216430   4.300   2.573   0.724  0.7148  0.2418 -0.2676
 5475TIP3    H116431   4.219   2.619   0.703  0.9743  0.5135 -0.6769
 5475TIP3    H216432   4.316   2.517   0.649 -0.5890 -1.9504  0.9871
 5476TIP3   OH216433   0.422   3.359   1.876  0.3955  0.0136 -0.0948
 5476TIP3    H116434   0.460   3.283   1.921 -0.3714 -0.1501  0.2847
 5476TIP3    H216435   0.472   3.433   1.910  1.0936 -0.3057 -0.4006
 5477TIP3   OH216436   0.155   3.923   0.144  0.2241  0.5555  0.1188
 5477TIP3    H116437   0.212   3.960   0.211  1.5777  0.8806 -1.1520
 5477TIP3    H216438   0.195   3.949   0.061 -1.8926  0.9561 -0.8640
 5478TIP3   OH216439   5.622   5.973   4.240 -0.1429  0.1232 -0.4567
 5478TIP3    H116440   5.668   5.999   4.320 -1.7177 -0.9188  0.8556
 5478TIP3    H216441   5.639   5.879   4.232  0.1284  0.2442 -1.4635
 5479TIP3   OH216442   6.236   3.553   2.067 -0.2540  0.7778  0.5684
 5479TIP3    H116443   6.285   3.574   1.988 -0.5184  0.9058  0.4375
 5479TIP3    H216444   6.150   3.594   2.054 -0.9778 -0.8203  0.0720
 5480TIP3   OH216445   4.255   3.166   0.178 -0.5134  0.3406  0.5487
 5480TIP3    H116446   4.263   3.125   0.092  0.0658 -0.3244  0.9010
 5480TIP3    H216447   4.344   3.165   0.213 -0.3034  2.7221  0.2398
 5481TIP3   OH216448   4.199   4.346   0.895  0.2770 -0.0668 -0.2281
 5481TIP3    H116449   4.209   4.286   0.969 -1.0453 -0.3350 -0.2518
 5481TIP3    H216450   4.228   4.296   0.819  1.0498  0.0040  0.0094
 5482TIP3   OH216451   2.313   0.336   4.127 -0.4313  0.1798 -0.2366
 5482TIP3    H116452   2.254   0.342   4.202 -0.8573  2.5658 -0.6623
 5482TIP3    H216453   2.333   0.427   4.105  2.2591 -0.5010 -1.0474
 5483TIP3   OH216454   3.202   5.541   3.326  0.6549  0.6134  0.0901
 5483TIP3    H116455   3.196   5.637   3.318 -0.2328  0.7037  1.5367
 5483TIP3    H216456   3.260   5.527   3.401  0.8358  0.0253 -0.1595
 5484TIP3   OH216457   4.293   4.961   2.029 -0.4148  0.2344  0.0594
 5484TIP3    H116458   4.319   4.907   1.954 -0.2556  0.2714  0.0881
 5484TIP3    H216459   4.202   4.936   2.046  0.3160 -1.7194  1.5017
 5485TIP3   OH216460   3.478   0.617   3.500  0.2312 -0.1281 -0.0099
 5485TIP3    H116461   3.498   0.596   3.409  1.1554 -0.9548  0.3698
 5485TIP3    H216462   3.554   0.666   3.531 -0.4930  0.9830  0.0628
 5486TIP3   OH216463   3.923   1.170   1.790 -1.0649 -0.9067 -0.4171
 5486TIP3    H116464   3.854   1.236   1.781  0.2391  0.3241 -2.1858
 5486TIP3    H216465   3.925   1.125   1.705 -1.4267 -2.7482  0.5121
 5487TIP3   OH216466   5.650   2.165   1.795  0.7450 -0.0303  0.2524
 5487TIP3    H116467   5.645   2.261   1.794 -1.3760 -0.0582  2.1422
 5487TIP3    H216468   5.560   2.136   1.805  1.1922 -2.3230 -1.5981
 5488TIP3   OH216469   5.694   2.970   2.106  0.4285 -0.0028  0.2457
 5488TIP3    H116470   5.713   3.041   2.167 -0.3255  0.8579 -0.4776
 5488TIP3    H216471   5.735   2.997   2.024 -1.4578  0.5755 -0.5739
 5489TIP3   OH216472   5.145   3.721   3.399  0.1794 -0.4587 -0.2322
 5489TIP3    H116473   5.073   3.665   3.371 -1.3524  0.5635  1.4216
 5489TIP3    H216474   5.173   3.766   3.318 -2.8119  1.0152 -0.6082
 5490TIP3   OH216475   5.667   2.681   1.416 -0.0582  0.1045  0.4878
 5490TIP3    H116476   5.615   2.741   1.363 -0.7870 -0.8766  0.0645
 5490TIP3    H216477   5.679   2.604   1.360  1.6831  0.2234  0.6488
 5491TIP3   OH216478   4.865   2.539   0.499 -0.4421 -0.8397  0.5326
 5491TIP3    H116479   4.832   2.542   0.589  1.3174 -0.1922  1.2223
 5491TIP3    H216480   4.917   2.458   0.496  0.6829 -0.1465  0.5897
 5492TIP3   OH216481   6.034   1.442   3.910  0.3404  0.3142  0.6034
 5492TIP3    H116482   6.109   1.383   3.919  1.0695  0.9682 -0.8136
 5492TIP3    H216483   6.059   1.519   3.960  0.8651  0.7312 -0.2694
 5493TIP3   OH216484   5.885   2.399   1.340  0.0174  0.1069  0.5717
 5493TIP3    H116485   5.802   2.357   1.360  1.2272 -1.5811  2.4475
 5493TIP3    H216486   5.916   2.356   1.261 -0.2226 -0.2930  0.6934
 5494TIP3   OH216487   0.057   2.715   1.895 -0.2881 -0.2951  0.1461
 5494TIP3    H116488   0.127   2.701   1.832 -0.5708 -0.6405 -0.0908
 5494TIP3    H216489   0.012   2.631   1.901 -1.0788  0.0905 -0.1854
 5495TIP3   OH216490   5.087   3.089   1.260 -0.2951 -0.0658  0.4200
 5495TIP3    H116491   5.078   3.006   1.307 -2.0597 -0.0116  0.2145
 5495TIP3    H216492   5.118   3.151   1.327  0.0881 -0.6503  0.7964
 5496TIP3   OH216493   5.571   1.502   3.566 -0.1400  0.2085 -0.3716
 5496TIP3    H116494   5.636   1.432   3.571  1.1607  1.3766 -0.3843
 5496TIP3    H216495   5.541   1.514   3.656  1.2164  1.0496 -0.0005
 5497TIP3   OH216496   1.384   4.725   3.112 -0.0711 -0.1912  0.5711
 5497TIP3    H116497   1.330   4.803   3.121 -1.6342 -1.3146  1.3680
 5497TIP3    H216498   1.363   4.690   3.025  0.8087  0.3591  0.1133
 5498TIP3   OH216499   3.722   0.736   3.397 -0.1057 -0.3307  0.0049
 5498TIP3    H116500   3.752   0.668   3.335 -0.4205 -1.7943  1.3966
 5498TIP3    H216501   3.794   0.744   3.460  0.5273  1.6766 -0.8869
 5499TIP3   OH216502   5.680   4.008   1.427 -0.2081 -0.7780  0.6244
 5499TIP3    H116503   5.741   4.041   1.493  0.8995  0.9930 -1.1576
 5499TIP3    H216504   5.731   4.007   1.346 -2.7231  1.7988 -1.1910
 5500TIP3   OH216505   5.480   2.435   3.737 -0.3678 -0.4898  0.7271
 5500TIP3    H116506   5.390   2.421   3.709 -0.3516 -1.4874  1.1231
 5500TIP3    H216507   5.473   2.494   3.812 -0.7432 -0.9959  1.0951
 5501TIP3   OH216508   2.847   5.247   1.405  0.3001 -0.2673 -0.0084
 5501TIP3    H116509   2.881   5.192   1.335  0.4967 -1.7390  1.1865
 5501TIP3    H216510   2.916   5.312   1.422  0.9972 -0.9969 -0.0115
 5502TIP3   OH216511   4.259   0.428   2.170  0.2658 -0.2362 -0.0985
 5502TIP3    H116512   4.179   0.374   2.175  0.4483 -0.4199  1.0178
 5502TIP3    H216513   4.270   0.444   2.076 -1.8771  0.9792 -0.2090
 5503TIP3   OH216514   1.454   2.251   3.158 -0.7905 -0.1137 -0.4436
 5503TIP3    H116515   1.478   2.307   3.084  1.2481 -1.4619 -0.8673
 5503TIP3    H216516   1.389   2.191   3.122  0.3901 -0.9442 -1.2708
 5504TIP3   OH216517   3.877   0.768   1.689 -0.2035 -0.1943  0.2788
 5504TIP3    H116518   3.879   0.859   1.657  0.4594  0.3075  1.6904
 5504TIP3    H216519   3.784   0.746   1.692 -0.3981  0.6188  0.4388
 5505TIP3   OH216520   5.948   2.608   3.926 -0.2100  0.1605 -0.0039
 5505TIP3    H116521   5.882   2.674   3.948  1.3770  2.1165 -0.7754
 5505TIP3    H216522   5.999   2.598   4.006  0.5417  1.1160 -0.3524
 5506TIP3   OH216523   5.217   1.302   1.120 -0.1939  0.0358  0.1802
 5506TIP3    H116524   5.211   1.252   1.201 -1.1495  0.9661  0.7097
 5506TIP3    H216525   5.264   1.381   1.145 -1.5187  0.8716  0.1356
 5507TIP3   OH216526   5.817   5.198   4.477 -0.2881 -0.5547  0.3128
 5507TIP3    H116527   5.762   5.121   4.487 -0.8056 -0.0878  1.2435
 5507TIP3    H216528   5.854   5.212   4.565  1.8921 -1.2650 -0.4205
 5508TIP3   OH216529   5.881   1.498   2.889  0.0919 -0.3817  0.3030
 5508TIP3    H116530   5.872   1.414   2.935  1.2356  0.3240  1.9261
 5508TIP3    H216531   5.835   1.560   2.945 -0.2735  0.1856 -0.6050
 5509TIP3   OH216532   1.507   4.323   4.660 -0.5687  0.4564  0.0888
 5509TIP3    H116533   1.506   4.263   4.736 -1.1898  1.3199  0.7843
 5509TIP3    H216534   1.479   4.407   4.696  2.4863  1.7797 -0.3851
 5510TIP3   OH216535   3.897   5.446   1.085  0.3131  0.2129 -0.5909
 5510TIP3    H116536   3.983   5.459   1.044  0.3941  2.3220  0.1007
 5510TIP3    H216537   3.841   5.513   1.045 -0.6802 -0.3072 -0.1188
 5511TIP3   OH216538   6.143   0.726   3.952  0.1549  0.7090 -0.0344
 5511TIP3    H116539   6.049   0.709   3.958  0.3701 -1.4022 -1.6430
 5511TIP3    H216540   6.180   0.683   4.030 -0.1080  0.7930  0.1394
 5512TIP3   OH216541   4.897   4.152   2.319 -0.0859  0.2712  0.2520
 5512TIP3    H116542   4.824   4.098   2.350  0.1350 -0.3740 -0.3261
 5512TIP3    H216543   4.951   4.092   2.267  0.9477  0.6935  0.7971
 5513TIP3   OH216544   4.302   1.189   0.366 -0.3515 -0.0803 -0.2746
 5513TIP3    H116545   4.287   1.097   0.388  0.1385 -0.3259 -0.9220
 5513TIP3    H216546   4.243   1.237   0.423 -3.3149 -0.9614 -2.3616
 5514TIP3   OH216547   4.166   4.767   3.007  0.0723 -0.6123  0.1194
 5514TIP3    H116548   4.121   4.705   2.950  1.0327 -0.6065 -0.6739
 5514TIP3    H216549   4.123   4.851   2.989 -0.2188 -0.7748  0.0599
 5515TIP3   OH216550   5.994   4.887   1.713  0.2138  0.1157  0.2801
 5515TIP3    H116551   5.917   4.842   1.678  0.1955 -0.5772  1.1449
 5515TIP3    H216552   6.038   4.820   1.765  0.9268  0.7492  0.5049
 5516TIP3   OH216553   4.493   3.997   1.706  0.6193  0.2499  0.3313
 5516TIP3    H116554   4.484   3.995   1.611 -1.0055  0.2253  0.4722
 5516TIP3    H216555   4.537   4.081   1.724  1.1625  0.1378 -0.4453
 5517TIP3   OH216556   0.576   2.379   3.488 -0.2227 -0.4174  0.2136
 5517TIP3    H116557   0.536   2.415   3.409  1.3717 -2.6312 -1.7371
 5517TIP3    H216558   0.547   2.288   3.491  2.4605 -1.3784  0.1293
 5518TIP3   OH216559   4.259   3.089   2.042  0.1371 -0.4162  0.3760
 5518TIP3    H116560   4.182   3.032   2.039 -0.3164  0.2058 -1.0247
 5518TIP3    H216561   4.247   3.142   2.121 -0.0507 -1.4072  1.0285
 5519TIP3   OH216562   0.344   2.598   3.672  0.1472  0.1566 -0.1082
 5519TIP3    H116563   0.321   2.574   3.762  2.2400  0.3474  0.5242
 5519TIP3    H216564   0.324   2.519   3.621  0.5811 -0.5840  0.8273
 5520TIP3   OH216565   1.879   3.184   4.596  0.5515  0.1032 -0.3605
 5520TIP3    H116566   1.906   3.258   4.542  1.7502 -0.7930 -1.0342
 5520TIP3    H216567   1.960   3.135   4.612 -0.0336 -0.4921  0.9812
 5521TIP3   OH216568   1.970   2.181   2.455 -0.5239 -0.3838  0.3748
 5521TIP3    H116569   1.999   2.248   2.516  2.2381 -1.2247  0.1327
 5521TIP3    H216570   2.017   2.200   2.374  0.1968 -2.4345  0.2404
 5522TIP3   OH216571   4.186   4.559   4.593  0.5710  0.3198  0.3081
 5522TIP3    H116572   4.269   4.574   4.549  0.9200 -0.2607  0.7428
 5522TIP3    H216573   4.165   4.642   4.635  1.1494  0.3579  0.5380
 5523TIP3   OH216574   3.300   4.335   0.211  0.0128  0.2713  0.1449
 5523TIP3    H116575   3.266   4.381   0.288  0.2254 -2.8213  2.2906
 5523TIP3    H216576   3.394   4.351   0.213 -0.0130  0.4010  0.3717
 5524TIP3   OH216577   1.607   3.960   2.636 -0.3571  0.0807 -0.0530
 5524TIP3    H116578   1.597   3.877   2.589  1.4628 -1.1819  1.6053
 5524TIP3    H216579   1.702   3.975   2.638 -0.6018  1.7212  0.4699
 5525TIP3   OH216580  -0.021   3.672   0.188  0.2335  0.0630  0.7175
 5525TIP3    H116581   0.056   3.665   0.245  2.3865 -0.6050 -2.0019
 5525TIP3    H216582  -0.007   3.753   0.138 -0.7692 -0.1214  0.1049
 5526TIP3   OH216583   4.857   2.792   0.086 -0.3493 -0.1236 -0.2895
 5526TIP3    H116584   4.905   2.732   0.028 -1.1409 -2.0265  0.9098
 5526TIP3    H216585   4.923   2.823   0.148 -0.2362 -1.1326  0.1215
 5527TIP3   OH216586   0.148   4.611   0.153 -0.1684  0.2308  0.1204
 5527TIP3    H116587   0.224   4.554   0.160 -0.3015  0.0669  0.2131
 5527TIP3    H216588   0.171   4.672   0.082 -0.2512 -0.2820 -0.3522
 5528TIP3   OH216589   0.053   4.893   0.929 -0.2279  0.2319 -0.2646
 5528TIP3    H116590   0.146   4.914   0.925 -0.0359 -0.7616 -1.5817
 5528TIP3    H216591   0.038   4.835   0.854 -1.9516  0.5543 -0.2087
 5529TIP3   OH216592   1.353   2.024   1.182  0.0513 -0.3994  0.3605
 5529TIP3    H116593   1.411   1.972   1.238  0.7836  0.9109  0.8791
 5529TIP3    H216594   1.265   2.008   1.216  0.3753 -0.5119  1.1583
 5530TIP3   OH216595   4.562   4.316   3.492  0.8940  0.0878 -0.0186
 5530TIP3    H116596   4.512   4.387   3.450 -2.1218 -0.9198  1.6064
 5530TIP3    H216597   4.646   4.316   3.446 -1.2327  0.5963 -4.4414
 5531TIP3   OH216598   4.380   5.200   3.451 -0.0425 -0.1493 -0.1463
 5531TIP3    H116599   4.345   5.272   3.399 -0.4624  0.1905  0.5896
 5531TIP3    H216600   4.475   5.214   3.452 -0.0224 -0.1994 -0.8606
 5532TIP3   OH216601   2.000   5.035   2.162 -0.5801  0.1031 -0.3080
 5532TIP3    H116602   2.003   4.952   2.208 -1.7895  0.4536  0.4628
 5532TIP3    H216603   2.057   5.093   2.212 -2.1120  0.5639  0.9916
 5533TIP3   OH216604   5.453   4.282   3.130  0.2756 -0.5853 -0.0138
 5533TIP3    H116605   5.392   4.214   3.161 -0.4573 -0.0312 -0.2109
 5533TIP3    H216606   5.536   4.262   3.174 -0.7533  0.2861  2.5156
 5534TIP3   OH216607   4.358   0.753   4.068  0.1827 -0.9369  0.4104
 5534TIP3    H116608   4.392   0.686   4.008  0.1566  0.3506 -1.1123
 5534TIP3    H216609   4.328   0.704   4.144  1.0139 -2.5638 -0.2652
 5535TIP3   OH216610   3.537   4.141   3.512 -0.2007 -0.3972  0.6462
 5535TIP3    H116611   3.536   4.234   3.490 -1.2539 -0.7867 -1.2243
 5535TIP3    H216612   3.487   4.135   3.594  0.6623  0.7542  1.2878
 5536TIP3   OH216613   3.910   5.672   3.375  0.5957 -0.2988  0.0236
 5536TIP3    H116614   3.818   5.696   3.368  0.4571 -0.3579  1.4033
 5536TIP3    H216615   3.925   5.660   3.469  1.8454 -0.9288 -0.2324
 5537TIP3   OH216616   5.928   3.045   4.643 -0.1766  0.8119  0.4770
 5537TIP3    H116617   6.018   3.046   4.610 -0.1948  2.7584  0.3406
 5537TIP3    H216618   5.873   3.046   4.565 -0.3194  0.1521  0.5633
 5538TIP3   OH216619   3.020   3.909   0.176  0.3301 -0.5504  0.3419
 5538TIP3    H116620   2.937   3.928   0.132 -0.9974 -1.9554  2.1264
 5538TIP3    H216621   3.054   3.832   0.130 -0.0555 -0.8219  0.5109
 5539TIP3   OH216622   0.167   0.126   2.742 -0.7828  0.0692  0.2299
 5539TIP3    H116623   0.099   0.097   2.682  0.1647 -2.2448  0.1688
 5539TIP3    H216624   0.178   0.053   2.803  0.4845  1.0719  1.2577
 5540TIP3   OH216625   4.734   5.292   1.039  0.3009 -0.5796  0.0042
 5540TIP3    H116626   4.678   5.358   1.080  1.2428  0.4818 -0.3511
 5540TIP3    H216627   4.803   5.276   1.104 -0.1658 -1.5788  0.2772
 5541TIP3   OH216628   2.920   0.410   0.912  0.0330 -0.5491  0.5488
 5541TIP3    H116629   2.953   0.404   0.822  0.8613 -1.0791  0.8780
 5541TIP3    H216630   2.896   0.502   0.922  0.7481 -0.2979  0.0550
 5542TIP3   OH216631   3.356   4.309   4.743  0.1159  0.1362  0.3917
 5542TIP3    H116632   3.314   4.366   4.808  0.1836  2.0502 -1.1336
 5542TIP3    H216633   3.432   4.273   4.788  0.2644  1.5502  1.3533
 5543TIP3   OH216634   3.054   3.635   1.591  0.2006 -0.4324  0.1947
 5543TIP3    H116635   2.973   3.666   1.633  0.3880 -0.4607  0.5813
 5543TIP3    H216636   3.121   3.643   1.660  1.1647  2.3099 -0.9193
 5544TIP3   OH216637   3.245   1.872   3.347 -0.2276 -0.2596  0.1411
 5544TIP3    H116638   3.258   1.863   3.252  0.1471  0.1400  0.1490
 5544TIP3    H216639   3.297   1.801   3.385 -0.4241 -0.4555  0.0457
 5545TIP3   OH216640   2.652   5.533   4.025  0.0856 -0.3348 -0.7829
 5545TIP3    H116641   2.661   5.484   4.107 -1.0590 -0.6102 -0.8051
 5545TIP3    H216642   2.672   5.623   4.048  0.2548 -0.4943 -0.3054
 5546TIP3   OH216643   6.083   2.452   0.493 -0.1231 -0.0629 -0.2870
 5546TIP3    H116644   6.047   2.416   0.412 -0.2516 -0.2960 -0.1270
 5546TIP3    H216645   6.022   2.523   0.516 -0.9367 -0.9592  0.4010
 5547TIP3   OH216646   0.923   5.463   3.650 -0.2072  0.2770  0.0078
 5547TIP3    H116647   0.878   5.520   3.588 -0.0823  0.9357  0.5143
 5547TIP3    H216648   1.016   5.480   3.634 -0.1114 -0.8550 -0.8265
 5548TIP3   OH216649   4.378   3.928   4.835  0.2809  0.3463 -0.2505
 5548TIP3    H116650   4.315   3.968   4.894  0.3111 -0.5794  0.4448
 5548TIP3    H216651   4.462   3.938   4.880  0.6204  1.4103 -1.0836
 5549TIP3   OH216652   5.974   5.189   4.707 -0.1061  0.2424  0.2595
 5549TIP3    H116653   6.034   5.257   4.736  0.6022 -0.2427 -0.0454
 5549TIP3    H216654   6.019   5.107   4.727  0.2085 -0.1203 -1.7202
 5550TIP3   OH216655   0.830   3.818   1.315  0.3498 -0.1622 -0.1312
 5550TIP3    H116656   0.872   3.879   1.376  3.1190 -1.7742 -0.2984
 5550TIP3    H216657   0.816   3.870   1.236  0.0033  0.9946  0.6654
 5551TIP3   OH216658   0.367   2.555   4.265  0.3449 -0.0058  0.0332
 5551TIP3    H116659   0.366   2.497   4.188 -0.8553 -0.0380  0.0429
 5551TIP3    H216660   0.430   2.623   4.243  0.7994 -0.5933 -0.5336
 5552TIP3   OH216661   4.316   5.567   4.904  0.3972 -0.3374  0.6819
 5552TIP3    H116662   4.284   5.652   4.933 -0.9121 -0.0572 -1.3741
 5552TIP3    H216663   4.394   5.551   4.957  0.4207  1.9232  1.4245
 5553TIP3   OH216664   6.083   1.637   0.465  0.0909  0.0984  0.2385
 5553TIP3    H116665   6.168   1.660   0.502  1.7057 -3.3667 -0.8474
 5553TIP3    H216666   6.101   1.621   0.372 -1.1434 -2.8524  0.3878
 5554TIP3   OH216667   5.073   1.525   0.278 -0.4205 -0.5480  0.2148
 5554TIP3    H116668   5.075   1.441   0.325 -0.1796  0.0735  1.3393
 5554TIP3    H216669   5.118   1.586   0.336  1.5194 -0.1190 -1.6078
 5555TIP3   OH216670   2.267   2.271   3.424  0.0207  0.1228 -0.0947
 5555TIP3    H116671   2.250   2.365   3.417  2.0383  0.5683  0.4918
 5555TIP3    H216672   2.260   2.251   3.517  0.7914 -0.0452 -0.0633
 5556TIP3   OH216673   0.220   5.248   2.345  0.1663  0.0356  0.1643
 5556TIP3    H116674   0.172   5.172   2.377 -0.5511  0.3695 -0.1089
 5556TIP3    H216675   0.251   5.292   2.424 -0.6693  0.2614  0.3748
 5557TIP3   OH216676   5.870   2.802   4.361 -0.0243 -0.0387  0.8943
 5557TIP3    H116677   5.809   2.739   4.323  1.7045 -1.0371 -0.4145
 5557TIP3    H216678   5.880   2.773   4.452 -1.4044  0.1089  1.1169
 5558TIP3   OH216679   2.450   3.694   5.143 -0.0897  0.0156 -0.0743
 5558TIP3    H116680   2.519   3.683   5.209  0.0235 -0.7602 -0.3059
 5558TIP3    H216681   2.496   3.725   5.065  0.0617 -0.8028 -0.3245
 5559TIP3   OH216682   0.944   1.600   1.151 -0.6434 -0.1946 -0.1510
 5559TIP3    H116683   0.874   1.628   1.210 -0.9657 -2.3873  0.5756
 5559TIP3    H216684   0.901   1.546   1.085  0.1586 -0.3881 -0.5339
 5560TIP3   OH216685   1.680   0.608   1.760 -0.2209 -0.6835 -0.8399
 5560TIP3    H116686   1.622   0.684   1.758 -0.1425 -0.5873  0.2780
 5560TIP3    H216687   1.624   0.536   1.791  0.1434 -0.6864 -0.1786
 5561TIP3   OH216688   2.579   1.008   1.848  0.4709  0.2030  0.0066
 5561TIP3    H116689   2.641   1.038   1.782  0.7347 -0.5598 -0.1102
 5561TIP3    H216690   2.600   0.915   1.860 -0.6967 -0.0899 -0.0841
 5562TIP3   OH216691   0.781   5.125   0.340  0.1228 -0.0950  0.1993
 5562TIP3    H116692   0.749   5.159   0.256  1.2125 -0.9124 -0.5781
 5562TIP3    H216693   0.876   5.136   0.336  0.1006  1.3365  2.0291
 5563TIP3   OH216694   2.091   0.999   2.512 -0.4931 -0.1643  0.6751
 5563TIP3    H116695   2.094   0.903   2.508  1.7137 -0.1112 -0.8227
 5563TIP3    H216696   2.161   1.022   2.572 -0.0849  0.5328 -0.0543
 5564TIP3   OH216697   2.870   3.545   2.556 -0.0592 -0.1706  0.0264
 5564TIP3    H116698   2.949   3.560   2.504 -0.3035  0.7559 -0.0846
 5564TIP3    H216699   2.858   3.626   2.606 -3.2624  1.4722 -3.0333
 5565TIP3   OH216700   4.232   2.975   0.679  0.1679 -0.1658  0.3346
 5565TIP3    H116701   4.270   2.916   0.614  1.4209  1.3454 -0.3885
 5565TIP3    H216702   4.161   3.019   0.632  0.6344  0.4390  0.1861
 5566TIP3   OH216703   1.432   2.149   0.781  0.3729  0.0964  0.2788
 5566TIP3    H116704   1.360   2.192   0.735  1.7852  2.1831 -0.1021
 5566TIP3    H216705   1.508   2.160   0.723  1.2799 -0.9972  1.2040
 5567TIP3   OH216706   2.418   3.780   3.682  0.4709  0.4971  0.4614
 5567TIP3    H116707   2.462   3.764   3.599  1.0637 -1.0510  1.0375
 5567TIP3    H216708   2.339   3.726   3.677  0.8148 -0.0817  1.1275
 5568TIP3   OH216709   2.426   0.558   4.940 -0.0553 -0.2966  0.6386
 5568TIP3    H116710   2.365   0.581   4.869 -0.1635 -1.2859  0.3922
 5568TIP3    H216711   2.477   0.637   4.954 -0.0582 -0.0619 -0.5294
 5569TIP3   OH216712   5.506   0.110   1.033 -0.1179 -0.0475  0.4015
 5569TIP3    H116713   5.530   0.058   1.110  0.4202  0.4128  0.5518
 5569TIP3    H216714   5.458   0.049   0.977  1.4546 -1.0254  0.0673
 5570TIP3   OH216715   6.067   1.687   2.751  0.0932  0.6233 -0.5066
 5570TIP3    H116716   6.006   1.627   2.793 -1.5169  0.7807 -2.4956
 5570TIP3    H216717   6.085   1.754   2.817 -0.6034 -0.3088  0.6523
 5571TIP3   OH216718   5.713   1.997   1.478 -0.0895 -0.1350 -0.0227
 5571TIP3    H116719   5.762   1.984   1.559  0.0756  0.2388 -0.0597
 5571TIP3    H216720   5.719   1.913   1.433 -1.7880 -0.9700  1.2098
 5572TIP3   OH216721   4.493   1.247   0.557 -0.0163  0.3818 -0.2659
 5572TIP3    H116722   4.446   1.216   0.480 -0.1441 -1.1185  0.3737
 5572TIP3    H216723   4.443   1.323   0.587 -0.5411  0.3633 -1.0684
 5573TIP3   OH216724   1.670   2.440   5.109  0.3802  0.2710  0.1463
 5573TIP3    H116725   1.626   2.507   5.057 -1.0248 -0.5606  0.2046
 5573TIP3    H216726   1.649   2.357   5.065 -0.8096 -0.4486  1.9422
 5574TIP3   OH216727   6.057   4.763   4.991  0.4129  0.4512 -0.1229
 5574TIP3    H116728   6.073   4.725   4.904 -1.3580  0.5221 -0.5308
 5574TIP3    H216729   6.140   4.802   5.016  1.0676  0.0913 -1.6255
 5575TIP3   OH216730   1.373   3.150   0.577 -0.0089 -0.2009  0.2174
 5575TIP3    H116731   1.416   3.190   0.652  1.0021  0.1983 -0.5417
 5575TIP3    H216732   1.283   3.183   0.580  0.7364  2.1019 -0.2979
 5576TIP3   OH216733   4.258   1.127   0.793  0.1905 -0.0265 -0.4813
 5576TIP3    H116734   4.338   1.091   0.755  0.0056 -0.7635 -0.1825
 5576TIP3    H216735   4.290   1.189   0.860  0.5064  0.1040 -0.7478
 5577TIP3   OH216736   4.155   3.153   3.238  0.0737 -0.1178  0.0839
 5577TIP3    H116737   4.132   3.113   3.321  0.3453 -2.0311 -0.7020
 5577TIP3    H216738   4.249   3.168   3.243 -0.4458  3.7150  1.6515
 5578TIP3   OH216739   0.314   1.911   1.450 -0.1389  0.1642  0.0365
 5578TIP3    H116740   0.292   1.986   1.506 -0.0636  0.2435 -0.0407
 5578TIP3    H216741   0.340   1.842   1.512  1.0215  0.6026  0.0630
 5579TIP3   OH216742   3.373   3.879   2.338  0.7030  0.2931  0.7258
 5579TIP3    H116743   3.452   3.921   2.305  0.0184 -0.0215 -1.5015
 5579TIP3    H216744   3.404   3.796   2.375  1.5907  0.9702  1.5602
 5580TIP3   OH216745   0.282   3.109   4.600  0.1328 -0.2728 -0.3516
 5580TIP3    H116746   0.297   3.158   4.681  0.2298  0.7865 -0.9963
 5580TIP3    H216747   0.362   3.121   4.549 -1.4225  2.6371 -2.3982
 5581TIP3   OH216748   0.967   1.437   4.448 -0.1493  0.4288  0.2430
 5581TIP3    H116749   0.938   1.494   4.377  0.1985  0.7197  0.3336
 5581TIP3    H216750   1.044   1.481   4.485  0.9366 -0.7475 -0.5466
 5582TIP3   OH216751   5.795   1.483   3.796  0.6871 -0.5060  0.4009
 5582TIP3    H116752   5.882   1.473   3.836  0.3226  0.4994  1.4939
 5582TIP3    H216753   5.744   1.532   3.861 -0.0632  0.8143 -1.1147
 5583TIP3   OH216754   2.000   0.689   3.225  0.0950  0.0552 -0.2334
 5583TIP3    H116755   1.912   0.708   3.259  0.4198  0.1221  0.6102
 5583TIP3    H216756   2.028   0.772   3.185  0.5046  0.6384  1.1847
 5584TIP3   OH216757   2.137   2.244   1.623  0.1220 -0.2376 -0.4114
 5584TIP3    H116758   2.170   2.155   1.635  0.6464  0.1054  0.9742
 5584TIP3    H216759   2.086   2.262   1.703  0.4236  0.8606 -0.4404
 5585TIP3   OH216760   5.176   1.581   0.749  0.2418  0.6693 -0.0966
 5585TIP3    H116761   5.242   1.625   0.697  0.7725 -0.5672 -0.5009
 5585TIP3    H216762   5.099   1.575   0.692  0.4154  0.4085 -0.3016
 5586TIP3   OH216763   4.306   0.951   3.764 -0.1529  0.8950 -0.2838
 5586TIP3    H116764   4.283   0.992   3.848  1.0154 -0.6449  0.8482
 5586TIP3    H216765   4.263   0.865   3.767 -2.5675  1.8832 -2.6104
 5587TIP3   OH216766   2.196   3.112   3.245  0.6024 -0.2025 -0.3758
 5587TIP3    H116767   2.273   3.158   3.278 -0.2586  0.8068  0.3053
 5587TIP3    H216768   2.122   3.166   3.274 -0.3833 -1.3897 -0.5989
 5588TIP3   OH216769   0.653   4.446   4.542 -0.0622  0.6329  0.7558
 5588TIP3    H116770   0.565   4.424   4.511  0.2999  0.0739  0.0945
 5588TIP3    H216771   0.649   4.540   4.561 -0.6362  0.7363  0.1598
 5589TIP3   OH216772   2.480   5.519   2.793 -0.2557  0.1965  0.1446
 5589TIP3    H116773   2.503   5.443   2.740 -0.8952  1.2710 -1.7541
 5589TIP3    H216774   2.563   5.565   2.808 -0.1512  0.1955 -0.4337
 5590TIP3   OH216775   1.602   3.802   3.507  0.1941 -0.3840 -0.1663
 5590TIP3    H116776   1.642   3.834   3.588 -1.6030 -1.3246  1.1912
 5590TIP3    H216777   1.621   3.708   3.507 -2.8263 -1.1555  1.2199
 5591TIP3   OH216778   2.050   2.655   1.027 -0.1032 -0.1040 -0.6001
 5591TIP3    H116779   2.114   2.628   1.093  0.7983  0.4804 -1.2126
 5591TIP3    H216780   1.970   2.608   1.051 -0.0364  0.6550  1.3490
 5592TIP3   OH216781   4.398   4.912   3.096  0.5070  0.1878 -0.3397
 5592TIP3    H116782   4.313   4.868   3.088  0.0556  1.1430 -0.8586
 5592TIP3    H216783   4.439   4.902   3.010 -0.0253  1.6183 -0.7874
 5593TIP3   OH216784   2.879   4.403   3.966  0.2859 -0.0744 -0.1317
 5593TIP3    H116785   2.874   4.353   3.885  0.9143 -0.3316 -0.0222
 5593TIP3    H216786   2.801   4.458   3.966  1.3891  1.6305 -2.0300
 5594TIP3   OH216787   6.276   1.969   1.503  0.3692  0.0639 -0.3454
 5594TIP3    H116788   6.291   2.060   1.481  0.3380  0.6817  1.9371
 5594TIP3    H216789   6.265   1.968   1.598 -1.6514 -2.0382 -0.4944
 5595TIP3   OH216790   4.081   2.966   2.452  0.3230 -0.1615 -0.2624
 5595TIP3    H116791   4.110   2.990   2.540 -2.0645 -0.1390  0.6180
 5595TIP3    H216792   4.135   3.018   2.393  2.0561 -0.2455  1.1567
 5596TIP3   OH216793   0.048   4.187   3.639  0.1269 -0.2306 -0.2849
 5596TIP3    H116794   0.114   4.177   3.708 -0.3191  0.7710  0.3078
 5596TIP3    H216795  -0.008   4.111   3.648  1.6668 -1.5699 -1.3505
 5597TIP3   OH216796   2.497   1.982   4.944 -0.2219 -0.5353  0.8150
 5597TIP3    H116797   2.515   1.897   4.903 -1.8340 -0.1887 -0.7259
 5597TIP3    H216798   2.528   2.046   4.880  0.1694  0.0486  1.5747
 5598TIP3   OH216799   0.655   3.412   2.612 -0.4216 -0.5873  0.1885
 5598TIP3    H116800   0.602   3.428   2.690  0.6303 -2.2542  1.3138
 5598TIP3    H216801   0.670   3.318   2.612 -2.3094 -1.0401 -3.3658
 5599TIP3   OH216802   4.813   4.466   3.575  0.0224 -0.0642  0.0809
 5599TIP3    H116803   4.878   4.396   3.568  0.2014  0.0397  0.6448
 5599TIP3    H216804   4.798   4.494   3.485  1.5610  0.6279 -0.0103
 5600TIP3   OH216805   0.621   0.175   4.185 -0.7479  0.0281 -0.5028
 5600TIP3    H116806   0.554   0.243   4.182 -1.1537 -0.3784 -1.9897
 5600TIP3    H216807   0.601   0.120   4.109  1.1163 -0.2642 -0.8222
 5601TIP3   OH216808   1.672   0.650   4.319 -0.1203  0.2606 -0.0862
 5601TIP3    H116809   1.601   0.714   4.310  0.5803  1.4926  2.2344
 5601TIP3    H216810   1.742   0.698   4.364  1.8330 -1.1976 -1.3642
 5602TIP3   OH216811   4.947   1.791   0.587  0.1695 -0.4166  0.4728
 5602TIP3    H116812   4.895   1.858   0.543  0.5043 -0.5941 -0.2180
 5602TIP3    H216813   5.019   1.840   0.628  0.1854 -0.3090  0.3176
 5603TIP3   OH216814   0.776   4.033   3.217  0.0579 -0.5799 -0.3606
 5603TIP3    H116815   0.809   4.028   3.128  3.2267 -2.1141  0.7429
 5603TIP3    H216816   0.851   4.064   3.269 -1.3295 -0.7628  1.9235
 5604TIP3   OH216817   1.831   5.726   0.655 -0.3030  0.3913  0.0943
 5604TIP3    H116818   1.923   5.726   0.629 -0.2298 -0.5996  0.3363
 5604TIP3    H216819   1.814   5.817   0.682  0.1125  1.0151 -1.5919
 5605TIP3   OH216820   0.885   4.122   0.785 -0.3615 -0.3321 -0.4083
 5605TIP3    H116821   0.803   4.158   0.819  1.0851  4.0998 -0.9336
 5605TIP3    H216822   0.875   4.124   0.689  0.4087  0.5762 -0.4890
 5606TIP3   OH216823   3.546   3.271   3.863  0.5992 -0.1733  0.5661
 5606TIP3    H116824   3.596   3.211   3.918 -0.9162 -1.1190  0.9850
 5606TIP3    H216825   3.604   3.290   3.789  1.4664 -1.4494  0.8788
 5607TIP3   OH216826   4.498   3.841   2.863 -1.2648 -0.1606 -0.1149
 5607TIP3    H116827   4.414   3.884   2.844 -0.9176  1.0487  0.9649
 5607TIP3    H216828   4.480   3.787   2.940 -0.5045  2.1606  1.8405
 5608TIP3   OH216829   4.219   1.429   2.793  0.1816  0.2469 -0.2211
 5608TIP3    H116830   4.201   1.357   2.854  2.7105 -0.7604 -0.5554
 5608TIP3    H216831   4.163   1.500   2.822 -0.1784 -0.8750  2.0044
 5609TIP3   OH216832   1.409   2.118   2.825  0.2563 -0.2053  0.0457
 5609TIP3    H116833   1.465   2.046   2.794 -0.8940 -0.8175 -0.6668
 5609TIP3    H216834   1.424   2.188   2.762 -1.4125 -1.1438 -1.4793
 5610TIP3   OH216835   5.244   1.220   4.935 -0.2996  0.2217  0.1187
 5610TIP3    H116836   5.315   1.271   4.897 -0.5394  1.1936  0.9228
 5610TIP3    H216837   5.232   1.146   4.875  1.0919  0.2655 -0.2521
 5611TIP3   OH216838   1.161   4.099   1.901 -0.1147 -0.0765 -0.4444
 5611TIP3    H116839   1.208   4.022   1.868 -1.9288 -0.9688 -1.0934
 5611TIP3    H216840   1.214   4.129   1.975  1.9003 -0.4848 -1.6506
 5612TIP3   OH216841   1.890   3.576   0.820 -0.1412 -0.1473 -0.4823
 5612TIP3    H116842   1.894   3.629   0.741 -0.9868 -0.2878 -0.6309
 5612TIP3    H216843   1.936   3.627   0.886 -0.0066  0.2706 -0.9012
 5613TIP3   OH216844   1.552   3.340   0.410  0.2682  0.3623 -0.5456
 5613TIP3    H116845   1.459   3.325   0.396 -0.1025 -0.5571  2.2085
 5613TIP3    H216846   1.556   3.396   0.488  1.9620 -2.3308  1.4879
 5614TIP3   OH216847   1.076   4.275   0.353  0.0664  0.3828 -0.0440
 5614TIP3    H116848   1.147   4.223   0.315  1.0071 -0.3579  2.5572
 5614TIP3    H216849   1.029   4.310   0.277  0.9952 -2.0717 -1.8822
 5615TIP3   OH216850   3.671   0.970   2.625  0.0558  0.3679  0.0748
 5615TIP3    H116851   3.731   1.004   2.559  0.1852 -0.6687 -0.3522
 5615TIP3    H216852   3.683   0.875   2.622  0.8943  0.3302  2.3513
 5616TIP3   OH216853   4.082   4.004   1.216  0.1282  0.5664  0.3580
 5616TIP3    H116854   4.132   3.923   1.203 -1.3671 -0.3646  0.2024
 5616TIP3    H216855   4.115   4.063   1.147 -2.0515 -1.5782 -2.8208
 5617TIP3   OH216856   4.307   2.379   0.506 -0.1577 -0.0520  0.2439
 5617TIP3    H116857   4.392   2.347   0.477 -0.2442 -2.6526  2.4406
 5617TIP3    H216858   4.258   2.394   0.425  1.9328  0.2987 -1.0241
 5618TIP3   OH216859   1.289   3.768   1.001  0.1148  0.1380 -0.3745
 5618TIP3    H116860   1.336   3.843   0.965  0.1812 -0.3112 -1.2191
 5618TIP3    H216861   1.356   3.702   1.018 -0.0227  0.0438 -0.1862
 5619TIP3   OH216862   4.913   5.443   0.640  0.0578 -0.2202 -0.1373
 5619TIP3    H116863   4.929   5.470   0.549 -1.0613  0.0764 -0.2515
 5619TIP3    H216864   4.857   5.366   0.633 -2.0568  1.2097  0.3358
 5620TIP3   OH216865   0.173   4.147   1.876  0.2180 -0.1841  0.6980
 5620TIP3    H116866   0.225   4.185   1.805  0.8597 -0.8498  0.7929
 5620TIP3    H216867   0.086   4.185   1.865 -0.5748 -2.4799 -2.2981
 5621TIP3   OH216868   5.581   2.462   2.129  0.4840 -0.0434  0.0474
 5621TIP3    H116869   5.488   2.485   2.133  0.9744  1.9445  2.7265
 5621TIP3    H216870   5.608   2.489   2.041 -0.8216  2.5083  0.3260
 5622TIP3   OH216871   3.894   2.054   0.215 -0.0231 -0.7062 -0.3036
 5622TIP3    H116872   3.955   1.990   0.250  0.4357 -0.2457 -0.2426
 5622TIP3    H216873   3.836   2.004   0.157  0.5043 -1.1186 -0.4789
 5623TIP3   OH216874   1.444   5.834   0.587 -0.5856 -0.4047 -0.7215
 5623TIP3    H116875   1.474   5.921   0.564 -0.3798 -0.6066 -1.2335
 5623TIP3    H216876   1.387   5.808   0.514 -1.2481 -0.4006 -0.2158
 5624TIP3   OH216877   4.660   4.634   1.040 -0.3045 -0.2500 -0.4677
 5624TIP3    H116878   4.679   4.684   1.119  1.4550 -0.3456 -0.7839
 5624TIP3    H216879   4.577   4.591   1.058 -1.3339  1.8913  0.2320
 5625TIP3   OH216880   0.751   0.475   1.343 -0.0100 -0.2304  0.5913
 5625TIP3    H116881   0.731   0.460   1.250  1.1221 -2.2395  0.6145
 5625TIP3    H216882   0.673   0.520   1.377 -1.0226 -0.6427 -1.0437
 5626TIP3   OH216883   3.918   0.899   2.841 -0.3793 -0.0410 -0.1699
 5626TIP3    H116884   3.854   0.969   2.860  0.1091  0.7978 -1.4329
 5626TIP3    H216885   3.934   0.857   2.925 -1.5572  0.6306  0.4200
 5627TIP3   OH216886   3.168   4.772   2.351 -0.1153 -0.1578 -0.3031
 5627TIP3    H116887   3.173   4.851   2.297 -1.7945  0.8389  0.8893
 5627TIP3    H216888   3.090   4.726   2.318 -0.7580  0.1184  0.7643
 5628TIP3   OH216889   5.074   2.711   0.510  0.2915 -0.5399  0.2085
 5628TIP3    H116890   5.005   2.644   0.511 -0.3412  0.0940 -0.0547
 5628TIP3    H216891   5.051   2.770   0.582 -0.1576  0.3673 -0.6571
 5629TIP3   OH216892   3.041   3.139   4.440  0.4186  0.6008  0.2446
 5629TIP3    H116893   3.115   3.081   4.457 -0.1685 -0.1924  0.1490
 5629TIP3    H216894   3.068   3.224   4.476  0.6312 -0.1436  1.9575
 5630TIP3   OH216895   0.529   0.573   0.402  0.3013  0.4454 -0.0306
 5630TIP3    H116896   0.448   0.589   0.354  0.1021 -2.0606 -0.6409
 5630TIP3    H216897   0.507   0.592   0.493 -0.7740  0.4568 -0.2794
 5631TIP3   OH216898   1.807   4.914   3.486 -0.3336 -0.1131  0.4751
 5631TIP3    H116899   1.714   4.926   3.467 -0.0165  0.1726 -0.9650
 5631TIP3    H216900   1.839   5.003   3.504 -0.2617 -0.1741  0.6585
 5632TIP3   OH216901   4.343   4.477   0.094  0.6742 -0.2825 -0.6945
 5632TIP3    H116902   4.428   4.435   0.091  0.1856 -1.4705  0.7722
 5632TIP3    H216903   4.325   4.502   0.003  1.3745 -2.4690 -1.4862
 5633TIP3   OH216904   3.038   0.783   2.931 -0.3802 -0.1067 -0.1348
 5633TIP3    H116905   2.945   0.804   2.924 -0.6570 -1.1305  0.3446
 5633TIP3    H216906   3.041   0.690   2.954  0.7899 -0.5152 -1.7102
 5634TIP3   OH216907   4.848   3.965   0.911 -1.0983 -0.2087 -0.0526
 5634TIP3    H116908   4.886   4.048   0.939  0.0347 -0.8243  0.2858
 5634TIP3    H216909   4.817   3.982   0.821 -0.6836  0.5033 -0.0689
 5635TIP3   OH216910   2.999   0.809   0.152  0.2451 -0.2488  0.3857
 5635TIP3    H116911   3.067   0.755   0.193 -0.2812  0.0642  1.7347
 5635TIP3    H216912   2.917   0.780   0.192 -0.6683 -1.6698 -2.3351
 5636TIP3   OH216913   2.919   0.883   2.094  0.5469  0.5117  0.5052
 5636TIP3    H116914   2.896   0.804   2.142  0.4003  0.5165  0.4408
 5636TIP3    H216915   2.856   0.949   2.125  0.3210  0.4606  0.1456
 5637TIP3   OH216916   4.848   0.411   5.136  0.4973  0.3673 -0.0433
 5637TIP3    H116917   4.859   0.348   5.064  0.7170  0.5806 -0.1983
 5637TIP3    H216918   4.934   0.451   5.146 -0.4230  3.3918 -2.5012
 5638TIP3   OH216919   5.372   5.634   3.346  0.3095  0.0456  0.0579
 5638TIP3    H116920   5.460   5.652   3.378  0.6883  0.9493 -1.3865
 5638TIP3    H216921   5.316   5.697   3.391  0.3950 -0.4890  0.9310
 5639TIP3   OH216922   5.102   1.212   2.066 -0.8329  0.3283 -0.0134
 5639TIP3    H116923   5.076   1.217   1.974  1.1055 -0.2840 -0.6373
 5639TIP3    H216924   5.020   1.219   2.115 -2.3767 -2.8958 -1.8345
 5640TIP3   OH216925   4.265   4.005   1.885 -0.4329 -0.3802 -0.0830
 5640TIP3    H116926   4.257   4.086   1.937  0.3699 -0.0151 -0.5094
 5640TIP3    H216927   4.354   4.007   1.852 -0.4400 -1.4040 -0.1879
 5641TIP3   OH216928   0.913   4.188   1.970 -0.0919  0.1866 -0.0670
 5641TIP3    H116929   0.996   4.149   1.942 -0.1491 -1.0474  1.3287
 5641TIP3    H216930   0.846   4.133   1.929 -0.1821 -0.2376  0.6258
 5642TIP3   OH216931   4.224   0.838   1.958  0.6674  0.0404  0.3357
 5642TIP3    H116932   4.219   0.764   1.897  0.7775  0.3793 -0.0893
 5642TIP3    H216933   4.227   0.797   2.044  2.3856 -0.5261  0.0559
 5643TIP3   OH216934   5.153   3.308   0.796 -0.2625  0.8009  0.1168
 5643TIP3    H116935   5.062   3.282   0.810 -0.2428  0.8839  0.4018
 5643TIP3    H216936   5.152   3.356   0.714 -0.4907  0.8741  0.1612
 5644TIP3   OH216937   3.575   5.586   2.276  0.2904 -0.1150 -0.1148
 5644TIP3    H116938   3.631   5.509   2.271 -0.0655 -0.2971 -1.9669
 5644TIP3    H216939   3.635   5.659   2.291  0.9256 -0.4366 -1.0044
 5645TIP3   OH216940   3.029   3.296   1.652  0.4644  0.0426  0.4097
 5645TIP3    H116941   3.034   3.357   1.578 -0.8116 -0.4840 -0.1464
 5645TIP3    H216942   3.027   3.353   1.729 -0.4167  0.7112 -0.0822
 5646TIP3   OH216943   5.587   1.302   2.643 -0.3944 -0.0796 -0.3188
 5646TIP3    H116944   5.575   1.327   2.551 -1.6339 -1.4183 -0.5579
 5646TIP3    H216945   5.597   1.207   2.641 -0.7189 -0.1620  0.9479
 5647TIP3   OH216946   0.857   1.509   3.906 -0.1885  0.4905 -0.0098
 5647TIP3    H116947   0.936   1.462   3.933 -0.4740  0.3082  0.5133
 5647TIP3    H216948   0.888   1.597   3.884  0.8320 -0.5975 -3.6693
 5648TIP3   OH216949   5.376   5.915   1.176 -0.5046 -0.8085 -0.0952
 5648TIP3    H116950   5.413   5.985   1.230  1.3985 -2.1342  0.4174
 5648TIP3    H216951   5.287   5.903   1.209 -1.4578  2.2922 -1.1720
 5649TIP3   OH216952   3.873   1.047   2.476 -0.3988  0.3239 -0.1925
 5649TIP3    H116953   3.891   1.024   2.385 -0.8511  1.6631 -0.6412
 5649TIP3    H216954   3.959   1.068   2.513 -0.2678  0.2257 -0.4445
 5650TIP3   OH216955   1.809   5.172   4.821  0.3572 -0.6824 -0.0975
 5650TIP3    H116956   1.730   5.182   4.874 -0.3526 -1.7596 -0.9040
 5650TIP3    H216957   1.791   5.222   4.741  0.7794 -0.3599  0.0058
 5651TIP3   OH216958   4.628   2.149   1.750 -0.4464 -0.0420  0.3534
 5651TIP3    H116959   4.591   2.114   1.669 -1.1743  0.6020  0.3913
 5651TIP3    H216960   4.723   2.139   1.739 -0.4369  1.2133 -1.1641
 5652TIP3   OH216961   2.275   0.712   4.712 -0.2437  0.2332 -0.2721
 5652TIP3    H116962   2.360   0.756   4.710 -1.3299  2.4700 -0.2109
 5652TIP3    H216963   2.277   0.653   4.637  0.9742  1.0374 -0.9068
 5653TIP3   OH216964   5.414   2.317   1.907 -0.1660  0.4797  0.0301
 5653TIP3    H116965   5.490   2.355   1.864  0.5732 -0.0461  0.8460
 5653TIP3    H216966   5.371   2.265   1.838  0.1923  0.7975 -0.4390
 5654TIP3   OH216967   5.988   2.509   0.966  0.2295 -0.2140 -0.5256
 5654TIP3    H116968   6.075   2.477   0.990  0.2400 -0.1366 -0.4606
 5654TIP3    H216969   5.990   2.513   0.870  0.8087  1.2064 -0.4817
 5655TIP3   OH216970   0.727   1.761   0.568  0.3729 -0.4683 -0.1982
 5655TIP3    H116971   0.689   1.698   0.507  1.2913 -1.1033 -0.1373
 5655TIP3    H216972   0.687   1.845   0.544 -0.1454 -0.9085 -0.9089
 5656TIP3   OH216973   5.146   3.508   0.627  0.1244 -0.0554  0.2126
 5656TIP3    H116974   5.223   3.553   0.660 -1.1457  2.2393  0.2437
 5656TIP3    H216975   5.167   3.486   0.537  1.7321 -1.8398  0.9536
 5657TIP3   OH216976   3.796   4.694   2.313  0.3756 -0.7169  0.0102
 5657TIP3    H116977   3.831   4.782   2.299 -1.5490 -0.1117 -1.5002
 5657TIP3    H216978   3.758   4.698   2.400  0.8410 -0.2504  0.2003
 5658TIP3   OH216979   5.078   2.446   4.085  0.3055  0.0559  0.0619
 5658TIP3    H116980   5.055   2.426   4.176  0.1215 -0.1869 -0.0370
 5658TIP3    H216981   4.998   2.429   4.035  0.4509  0.0295 -0.1680
 5659TIP3   OH216982   4.117   2.178   3.021  0.0545  0.4068  0.2791
 5659TIP3    H116983   4.194   2.221   2.983 -0.1460 -0.5934 -1.3636
 5659TIP3    H216984   4.043   2.226   2.984 -0.1339  0.3546  0.5886
 5660TIP3   OH216985   1.928   4.428   1.026 -0.3096  0.1596  0.5089
 5660TIP3    H116986   1.921   4.499   0.962 -0.2452  0.5620  0.9360
 5660TIP3    H216987   2.022   4.408   1.030 -0.5182 -1.3506 -1.0855
 5661TIP3   OH216988   2.532   0.307   3.391  0.1544  0.1071  0.0549
 5661TIP3    H116989   2.541   0.300   3.486  2.8742  0.5476 -0.0874
 5661TIP3    H216990   2.569   0.393   3.370 -2.6459  1.1086 -1.2374
 5662TIP3   OH216991   4.991   4.898   1.335  0.3046  0.3964 -0.1416
 5662TIP3    H116992   5.043   4.846   1.274 -0.5568  0.8740 -1.3067
 5662TIP3    H216993   4.900   4.884   1.309  0.0252  2.1051 -0.2131
 5663TIP3   OH216994   2.840   2.530   3.492 -0.6641 -0.6091  0.9527
 5663TIP3    H116995   2.749   2.529   3.524 -1.3682 -1.5368 -0.8935
 5663TIP3    H216996   2.854   2.442   3.458  1.2842 -0.7637  2.0168
 5664TIP3   OH216997   2.561   4.179   3.693  0.3730  0.2406 -0.7617
 5664TIP3    H116998   2.616   4.250   3.660  1.1780 -0.1693 -0.3312
 5664TIP3    H216999   2.621   4.105   3.702 -0.3431 -0.3407 -0.6831
 5665TIP3   OH217000   6.256   5.145   0.276 -0.5809  0.0115  0.6279
 5665TIP3    H117001   6.231   5.179   0.362  1.7933  0.6024  1.1642
 5665TIP3    H217002   6.254   5.221   0.218 -0.1597  0.0551  0.6642
 5666TIP3   OH217003   1.867   4.345   1.503 -0.3501 -0.3761  0.4021
 5666TIP3    H117004   1.858   4.392   1.420 -0.4551  0.8707  1.1044
 5666TIP3    H217005   1.961   4.342   1.518 -0.2500 -1.6604 -0.3310
 5667TIP3   OH217006   5.783   2.210   3.710 -0.2367 -0.3477 -0.0693
 5667TIP3    H117007   5.788   2.116   3.695  1.5527 -0.2719 -0.1646
 5667TIP3    H217008   5.758   2.247   3.626  2.0955 -0.5450 -0.9344
 5668TIP3   OH217009   2.580   5.925   1.735  0.0774  0.1424  0.5020
 5668TIP3    H117010   2.612   5.903   1.822  0.5976  1.5682  0.7048
 5668TIP3    H217011   2.552   5.842   1.697  1.5526 -0.7672  1.3404
 5669TIP3   OH217012   4.380   2.656   2.234  0.1017 -0.1241  0.1710
 5669TIP3    H117013   4.466   2.615   2.230  0.8580  1.1726  1.7670
 5669TIP3    H217014   4.398   2.750   2.229 -1.2930  0.1441 -0.1735
 5670TIP3   OH217015   4.263   0.049   0.179  0.1119 -0.3320  0.6806
 5670TIP3    H117016   4.246   0.142   0.170 -0.3023 -0.5092 -0.6785
 5670TIP3    H217017   4.180   0.012   0.210  0.1709 -0.2940  0.8843
 5671TIP3   OH217018   5.100   2.023   4.013 -0.5589  0.5112  0.1505
 5671TIP3    H117019   5.009   2.051   4.008  0.0385  2.5141 -0.2622
 5671TIP3    H217020   5.146   2.078   3.950  0.8310 -1.0137 -0.2318
 5672TIP3   OH217021   1.962   5.491   4.112 -0.4329  0.3510 -0.7161
 5672TIP3    H117022   1.954   5.401   4.080  0.9393  0.0003 -0.1313
 5672TIP3    H217023   2.040   5.490   4.167 -1.9755  1.2260  1.6457
 5673TIP3   OH217024   1.438   0.518   2.126  0.1198  0.4516 -0.1974
 5673TIP3    H117025   1.520   0.478   2.157 -0.8043 -1.3870  0.0028
 5673TIP3    H217026   1.417   0.584   2.191 -0.0272 -1.0480  1.3488
 5674TIP3   OH217027   5.716   2.933   0.777 -0.8390  0.1892 -0.0803
 5674TIP3    H117028   5.654   2.864   0.802 -0.1712 -0.3841 -0.0015
 5674TIP3    H217029   5.776   2.940   0.851 -0.6829  0.6090 -0.2415
 5675TIP3   OH217030   1.561   0.737   4.641  0.1527 -0.6645 -0.6206
 5675TIP3    H117031   1.585   0.655   4.685  1.0013 -0.3069 -0.3867
 5675TIP3    H217032   1.628   0.748   4.573  0.3685  0.0973 -0.2965
 5676TIP3   OH217033   5.666   2.452   4.452 -0.3724 -0.1050  0.1919
 5676TIP3    H117034   5.649   2.359   4.463 -0.9807  0.2031  2.2726
 5676TIP3    H217035   5.583   2.494   4.475  0.0229  0.9704 -0.2966
 5677TIP3   OH217036   1.968   0.378   3.985 -0.2032 -0.0207  0.4028
 5677TIP3    H117037   1.885   0.408   4.023 -0.3842 -0.7524  0.5834
 5677TIP3    H217038   2.013   0.459   3.961 -1.2740  0.3683 -0.3639
 5678TIP3   OH217039   5.425   3.764   2.673  0.0590  0.1567 -0.4234
 5678TIP3    H117040   5.382   3.697   2.619 -1.0361  0.1853  0.3971
 5678TIP3    H217041   5.486   3.807   2.613 -0.9790  0.0456 -1.5858
 5679TIP3   OH217042   6.075   3.674   5.091 -0.6244  0.7684 -0.7231
 5679TIP3    H117043   5.987   3.707   5.109 -0.6747  0.6390 -0.7367
 5679TIP3    H217044   6.064   3.615   5.016 -0.4870  0.9501 -0.8877
 5680TIP3   OH217045   2.130   0.383   1.963 -0.7330  0.1612 -0.1856
 5680TIP3    H117046   2.226   0.376   1.961 -0.5735  1.5059  0.8179
 5680TIP3    H217047   2.114   0.472   1.994 -2.3239  0.7881 -2.5408
 5681TIP3   OH217048   2.016   3.042   0.358 -0.2492  0.2044  0.1240
 5681TIP3    H117049   2.044   2.971   0.416  0.6476  0.1024 -0.4011
 5681TIP3    H217050   1.926   3.020   0.334 -0.1719 -0.4558  0.4182
 5682TIP3   OH217051   4.233   4.789   4.776  1.0106  0.1947 -0.1563
 5682TIP3    H117052   4.212   4.734   4.852  2.7891 -0.7596 -0.2985
 5682TIP3    H217053   4.172   4.862   4.781  0.3188 -0.4592  1.5338
 5683TIP3   OH217054   2.246   3.526   2.528  0.1645 -0.4276  0.4259
 5683TIP3    H117055   2.308   3.470   2.574  0.3040 -0.1075  0.6323
 5683TIP3    H217056   2.300   3.592   2.484  0.1570 -1.6017 -1.4523
 5684TIP3   OH217057   3.853   4.118   3.227 -0.5379 -0.0451  0.1409
 5684TIP3    H117058   3.801   4.154   3.156 -4.0495 -3.5809  0.6272
 5684TIP3    H217059   3.825   4.167   3.305 -1.0505 -0.0726 -0.0259
 5685TIP3   OH217060   2.571   3.049   1.020  0.0114 -0.2925 -0.2772
 5685TIP3    H117061   2.513   3.100   1.076 -0.0550  1.0921 -1.5563
 5685TIP3    H217062   2.519   2.972   0.995  0.3567 -1.4363  2.2246
 5686TIP3   OH217063   2.307   0.231   0.215 -0.2269  0.3410  0.1868
 5686TIP3    H117064   2.235   0.295   0.218 -1.4670 -0.7922 -2.3150
 5686TIP3    H217065   2.268   0.150   0.248 -1.1647 -1.0528 -3.8408
 5687TIP3   OH217066   5.193   1.632   4.453  0.3668 -0.0937  0.2387
 5687TIP3    H117067   5.233   1.554   4.492  1.9596  0.4970 -0.1259
 5687TIP3    H217068   5.218   1.628   4.361 -0.2438  0.4328  0.0388
 5688TIP3   OH217069   4.628   4.085   0.413 -0.3681  0.1196 -0.2805
 5688TIP3    H117070   4.547   4.126   0.382 -0.8790  0.4852  1.4318
 5688TIP3    H217071   4.604   4.045   0.497  1.4494  1.1445  0.7880
 5689TIP3   OH217072   3.551   3.785   2.074  0.0410 -0.5561  0.1873
 5689TIP3    H117073   3.518   3.696   2.057 -1.3650 -0.4500  2.0942
 5689TIP3    H217074   3.635   3.772   2.117 -0.0489 -0.9642  0.2439
 5690TIP3   OH217075   0.732   0.886   4.748  0.2169  0.4598  0.0108
 5690TIP3    H117076   0.765   0.957   4.803  1.2234 -0.0998  0.1498
 5690TIP3    H217077   0.808   0.856   4.698 -0.1540 -0.5908  0.0405
 5691TIP3   OH217078   4.257   5.416   2.957  0.2627 -0.0117 -0.2846
 5691TIP3    H117079   4.277   5.341   3.013  1.6799  0.0979 -0.6138
 5691TIP3    H217080   4.225   5.483   3.018  1.7745  0.1072  0.4364
 5692TIP3   OH217081   5.941   0.219   2.470  0.3719 -0.0430  0.4024
 5692TIP3    H117082   5.933   0.199   2.377 -0.5387  1.6926  0.0613
 5692TIP3    H217083   5.944   0.133   2.513  0.3926 -0.8697 -1.1799
 5693TIP3   OH217084   1.587   2.612   0.432  0.1894  0.1961  0.1468
 5693TIP3    H117085   1.654   2.555   0.470 -0.2762 -0.1701  0.4455
 5693TIP3    H217086   1.546   2.654   0.508  0.1528  0.4901 -0.0380
 5694TIP3   OH217087   4.477   2.921   3.905 -0.5681  0.9059  0.2354
 5694TIP3    H117088   4.492   2.827   3.904  1.1672  1.1560 -0.8603
 5694TIP3    H217089   4.505   2.949   3.993  0.1237  0.5646  0.1298
 5695TIP3   OH217090   2.478   0.311   0.427  0.0556 -0.3001  0.2016
 5695TIP3    H117091   2.562   0.325   0.382 -0.5058  1.4029 -0.3669
 5695TIP3    H217092   2.414   0.304   0.356 -0.7747  1.9791  0.6547
 5696TIP3   OH217093   2.719   3.336   2.039 -0.3270  0.3727  0.2139
 5696TIP3    H117094   2.694   3.418   1.998 -4.8980 -1.7898 -2.0011
 5696TIP3    H217095   2.656   3.324   2.110  0.5495 -1.0458  0.8114
 5697TIP3   OH217096   2.585   1.253   2.859 -0.3346 -0.2979 -0.2973
 5697TIP3    H117097   2.617   1.260   2.769  2.8008 -0.2053  0.6935
 5697TIP3    H217098   2.628   1.175   2.894  0.0850  0.7165  1.6401
 5698TIP3   OH217099   2.965   1.056   2.357  0.2706 -0.1352  0.6507
 5698TIP3    H117100   2.918   0.978   2.386 -1.3705  0.5478  0.0227
 5698TIP3    H217101   3.056   1.040   2.379  0.0960 -2.5187 -0.1150
 5699TIP3   OH217102   0.975   3.601   2.072  0.4170 -0.8408  0.1406
 5699TIP3    H117103   0.954   3.594   2.165 -2.9589  0.2077 -0.3960
 5699TIP3    H217104   0.990   3.694   2.058 -0.8843 -0.7293 -0.6355
 5700TIP3   OH217105   0.496   5.841   3.275 -0.2304 -0.1449 -0.9087
 5700TIP3    H117106   0.578   5.803   3.308 -0.0731  0.3308 -0.7466
 5700TIP3    H217107   0.473   5.786   3.200  0.0408 -0.5094 -0.7303
 5701TIP3   OH217108   2.496   2.691   3.236  0.3187 -0.0434  0.1975
 5701TIP3    H117109   2.557   2.668   3.305  1.4842  0.7833 -0.5165
 5701TIP3    H217110   2.432   2.748   3.279  1.2103  0.7200  0.5622
 5702TIP3   OH217111   3.736   5.340   4.654 -0.2428 -0.3709  0.1310
 5702TIP3    H117112   3.645   5.312   4.653 -0.6546  0.8819 -1.1839
 5702TIP3    H217113   3.786   5.259   4.662 -1.4404 -1.1271  0.2840
 5703TIP3   OH217114   2.615   0.735   1.083  0.9720  0.1195  0.4244
 5703TIP3    H117115   2.663   0.739   1.166 -0.3734  0.8924  1.2112
 5703TIP3    H217116   2.530   0.774   1.103  0.8210  0.8589 -1.4863
 5704TIP3   OH217117   6.277   4.758   3.994 -0.3900 -0.5556  0.0114
 5704TIP3    H117118   6.326   4.834   4.024 -0.9323 -0.0380 -0.3790
 5704TIP3    H217119   6.191   4.767   4.036 -0.1310 -1.5001  0.7651
 5705TIP3   OH217120   2.740   1.729   2.210  0.5658  0.5839 -0.0674
 5705TIP3    H117121   2.724   1.718   2.117  0.3935  0.2386  0.0009
 5705TIP3    H217122   2.702   1.651   2.250  1.6910  0.1432  0.1782
 5706TIP3   OH217123   4.865   5.244   2.547  0.0317  0.8423  0.3527
 5706TIP3    H117124   4.822   5.323   2.580 -1.0518 -0.0811  1.2462
 5706TIP3    H217125   4.856   5.180   2.618  0.7947 -0.1226 -0.3871
 5707TIP3   OH217126   0.487   1.247   0.756 -0.3296  0.3797 -0.2853
 5707TIP3    H117127   0.545   1.188   0.707  0.1954  0.4628  0.2112
 5707TIP3    H217128   0.533   1.260   0.840 -0.7017  1.0612 -0.1810
 5708TIP3   OH217129   0.754   0.270   3.376 -0.2322 -0.1051  0.2593
 5708TIP3    H117130   0.703   0.339   3.418 -0.0675  0.7260 -0.8710
 5708TIP3    H217131   0.785   0.309   3.294 -0.8183 -1.7650 -0.8002
 5709TIP3   OH217132   3.894   4.708   3.300 -1.0378  0.1980  0.2112
 5709TIP3    H117133   3.988   4.721   3.287 -0.3007 -3.0312  1.1775
 5709TIP3    H217134   3.868   4.652   3.226 -1.6598 -0.6639  1.0539
 5710TIP3   OH217135   5.494   0.856   0.027  0.2292  0.1578 -0.7692
 5710TIP3    H117136   5.490   0.761   0.033  0.6162  0.1945  0.4404
 5710TIP3    H217137   5.403   0.885   0.037  0.1103 -0.0825 -1.1413
 5711TIP3   OH217138   4.386   4.561   1.396  0.3193  0.2053  0.5143
 5711TIP3    H117139   4.404   4.646   1.355  0.4962 -0.4968 -0.9164
 5711TIP3    H217140   4.310   4.528   1.349  0.3928 -0.5403  0.9089
 5712TIP3   OH217141   4.297   0.955   0.131  0.2366  0.0585  0.7687
 5712TIP3    H117142   4.230   0.993   0.075 -0.0679 -0.2491  0.9174
 5712TIP3    H217143   4.256   0.950   0.217 -0.1303 -1.6222  0.5282
 5713TIP3   OH217144   3.372   3.563   0.737 -0.6743 -0.1531  0.1380
 5713TIP3    H117145   3.427   3.523   0.804 -0.5968 -0.4893 -0.1238
 5713TIP3    H217146   3.284   3.564   0.775 -0.4358  0.6683  0.6790
 5714TIP3   OH217147   2.011   0.128   4.045 -0.6430  0.0999 -0.0373
 5714TIP3    H117148   2.096   0.149   4.006 -1.0594  0.5438 -0.7370
 5714TIP3    H217149   1.965   0.213   4.051 -2.3216 -0.4605 -2.8394
 5715TIP3   OH217150   4.957   0.597   3.900  0.0003  0.4234  1.1563
 5715TIP3    H117151   4.915   0.643   3.973  0.2162 -0.7224  2.0333
 5715TIP3    H217152   5.048   0.589   3.927 -0.0189 -0.4361  0.9965
 5716TIP3   OH217153   3.445   3.627   2.470  0.1321 -0.5909 -0.6436
 5716TIP3    H117154   3.383   3.619   2.543 -0.9421  0.9652 -1.3228
 5716TIP3    H217155   3.433   3.547   2.420  0.8632 -1.6740  0.8245
 5717TIP3   OH217156   1.334   4.673   3.394  0.3134  0.7527  0.0829
 5717TIP3    H117157   1.346   4.676   3.299  0.1933  0.1724  0.0421
 5717TIP3    H217158   1.413   4.631   3.427  0.2282  0.6918  0.2113
 5718TIP3   OH217159   4.026   3.558   3.585  0.8012  0.3868 -0.3010
 5718TIP3    H117160   4.115   3.540   3.618 -0.3645 -1.7064  2.0915
 5718TIP3    H217161   4.029   3.531   3.493  2.9543  1.7326 -0.7119
 5719TIP3   OH217162   4.405   0.573   3.887  0.7657  0.7242  0.0013
 5719TIP3    H117163   4.478   0.542   3.834  1.7082  1.3830  0.8751
 5719TIP3    H217164   4.350   0.495   3.901  1.7229  0.0356  0.0017
 5720TIP3   OH217165   2.741   4.899   4.943 -0.8560  0.4189 -0.4143
 5720TIP3    H117166   2.821   4.922   4.897  0.7498  0.0363  1.9636
 5720TIP3    H217167   2.680   4.969   4.922  0.0501  0.6762 -2.3826
 5721TIP3   OH217168   6.306   5.382   3.036 -0.3479  0.9498 -0.2592
 5721TIP3    H117169   6.245   5.422   3.098 -0.4143  1.6892 -0.7929
 5721TIP3    H217170   6.250   5.336   2.974 -0.4906  2.9230 -1.6671
 5722TIP3   OH217171   0.017   5.767   1.335  0.5710 -0.3579 -0.7183
 5722TIP3    H117172   0.083   5.720   1.386 -1.2456 -1.8651  0.3613
 5722TIP3    H217173   0.019   5.724   1.249  1.7172  0.3410 -1.0629
 5723TIP3   OH217174   0.104   5.642   4.538  0.4932 -0.6935 -0.6357
 5723TIP3    H117175   0.029   5.583   4.537  1.0225 -1.4070 -0.0423
 5723TIP3    H217176   0.132   5.646   4.447 -0.4987 -0.0968 -0.9252
 5724TIP3   OH217177   0.559   3.490   4.609  0.0686  0.4631  0.7965
 5724TIP3    H117178   0.467   3.479   4.631 -0.0355  1.1784  0.7486
 5724TIP3    H217179   0.596   3.402   4.613 -1.0427 -0.1257 -1.1551
 5725TIP3   OH217180   2.282   4.395   2.649 -0.7486 -0.3181  0.3087
 5725TIP3    H117181   2.362   4.415   2.601  0.6493 -0.6761  2.3219
 5725TIP3    H217182   2.219   4.460   2.620 -0.0857 -0.6398 -2.0885
 5726TIP3   OH217183   0.485   3.938   1.281 -0.4769 -0.5410  0.2687
 5726TIP3    H117184   0.484   3.851   1.321  1.7949 -1.2241 -0.9787
 5726TIP3    H217185   0.547   3.989   1.334  0.5145 -0.6489 -0.7408
 5727TIP3   OH217186   3.813   0.994   0.035  0.5755  0.2716  0.3352
 5727TIP3    H117187   3.858   1.001  -0.049  1.6859  0.6726  0.9361
 5727TIP3    H217188   3.761   1.075   0.041  1.3556  0.7762  0.5007
 5728TIP3   OH217189   5.933   2.161   2.101 -0.4866 -0.0581  0.1368
 5728TIP3    H117190   5.866   2.188   2.164 -1.0209 -1.3252  0.1611
 5728TIP3    H217191   5.926   2.223   2.029 -0.7298  0.6550  0.7706
 5729TIP3   OH217192   1.779   0.304   2.982 -0.1279 -0.5290 -0.1904
 5729TIP3    H117193   1.851   0.287   2.922 -0.3672  0.6996 -0.8720
 5729TIP3    H217194   1.707   0.250   2.949 -0.4540  0.6231 -1.4355
 5730TIP3   OH217195   2.440   1.049   3.315 -0.0506  0.1108  0.7068
 5730TIP3    H117196   2.381   0.975   3.326 -0.0584  0.1992  1.3299
 5730TIP3    H217197   2.386   1.126   3.333 -0.8733  0.5595 -2.9441
 5731TIP3   OH217198   3.927   0.519   1.495  0.3325 -0.3121 -0.0975
 5731TIP3    H117199   3.864   0.528   1.566  2.0303 -1.3178  1.6258
 5731TIP3    H217200   3.941   0.608   1.463 -0.5587  0.1419  0.7516
 5732TIP3   OH217201   4.383   3.703   4.380 -0.0662 -0.2411  0.0278
 5732TIP3    H117202   4.425   3.685   4.296  1.9870 -0.3477  1.0171
 5732TIP3    H217203   4.337   3.623   4.403 -3.5352  0.8097 -2.4780
 5733TIP3   OH217204   5.427   1.500   1.677 -0.1335 -0.1445  0.0230
 5733TIP3    H117205   5.409   1.475   1.586 -1.3012 -0.5201  0.3292
 5733TIP3    H217206   5.364   1.569   1.696 -0.8791 -1.0338  0.9574
 5734TIP3   OH217207   1.953   1.504   0.768 -0.2653  0.1042  0.0372
 5734TIP3    H117208   2.012   1.488   0.842 -0.1812 -2.7669 -0.5436
 5734TIP3    H217209   1.868   1.520   0.808  0.0580 -0.0076  0.7927
 5735TIP3   OH217210   3.005   2.040   0.610 -0.0999 -0.1508 -0.0032
 5735TIP3    H117211   2.965   2.120   0.577  2.1729  0.2201 -2.1195
 5735TIP3    H217212   3.087   2.070   0.651 -0.5605 -1.1469  1.7475
 5736TIP3   OH217213   4.178   2.695   1.766 -0.1800 -0.3192  0.5186
 5736TIP3    H117214   4.172   2.624   1.702  0.6286 -0.5982  0.7393
 5736TIP3    H217215   4.160   2.654   1.850 -1.8795  0.1678  0.4381
 5737TIP3   OH217216   6.031   5.416   1.029 -0.6231 -0.0320 -0.1839
 5737TIP3    H117217   6.034   5.467   1.110 -0.2652 -0.6211  0.1813
 5737TIP3    H217218   6.103   5.354   1.037 -2.8356 -2.6871  0.7872
 5738TIP3   OH217219   5.338   3.160   2.262  0.1334 -0.5518  0.0145
 5738TIP3    H117220   5.359   3.082   2.211  0.2674 -1.3212  1.2194
 5738TIP3    H217221   5.413   3.219   2.248 -1.3480  0.7930 -3.4794
 5739TIP3   OH217222   5.830   1.794   1.914 -0.5387 -0.4299 -0.4693
 5739TIP3    H117223   5.866   1.707   1.897 -2.4182 -1.0259 -1.8936
 5739TIP3    H217224   5.869   1.821   1.997  1.4575 -1.8485 -0.8647
 5740TIP3   OH217225   3.161   4.421   4.907 -0.0528  0.9836 -0.0670
 5740TIP3    H117226   3.184   4.404   4.999 -0.7664 -0.8943 -0.1743
 5740TIP3    H217227   3.094   4.355   4.888  0.4708  0.9866 -2.0867
 5741TIP3   OH217228   1.447   4.974   4.118 -0.7545 -0.0824 -0.0980
 5741TIP3    H117229   1.372   5.017   4.077 -0.6264  0.8291  0.5961
 5741TIP3    H217230   1.450   4.887   4.077 -0.5272  0.8327 -2.1363
 5742TIP3   OH217231   2.010   4.507   4.683  0.4802 -0.2924 -0.3630
 5742TIP3    H117232   2.041   4.595   4.705 -0.9181 -0.0990  1.0405
 5742TIP3    H217233   1.917   4.518   4.663  0.2614 -1.4381 -0.0950
 5743TIP3   OH217234   0.455   3.774   4.328  0.1250  1.0685 -0.5717
 5743TIP3    H117235   0.449   3.867   4.309  1.3956  1.6469  1.4991
 5743TIP3    H217236   0.445   3.769   4.423  0.2351 -0.9091 -0.6243
 5744TIP3   OH217237   2.220   5.255   0.674  0.3409  0.1143 -0.3918
 5744TIP3    H117238   2.135   5.298   0.664  0.7321  0.5653 -2.2011
 5744TIP3    H217239   2.199   5.161   0.676 -0.1328  0.0425 -3.4045
 5745TIP3   OH217240   0.361   2.425   0.268  0.0947 -0.0615  0.5135
 5745TIP3    H117241   0.298   2.496   0.254  0.6177  0.2837 -0.1285
 5745TIP3    H217242   0.337   2.358   0.205  0.5181  0.1821  0.0809
 5746TIP3   OH217243   0.189  -0.009   1.773  0.6379 -0.1047  0.1408
 5746TIP3    H117244   0.190   0.043   1.853  0.1595 -0.7090  0.5529
 5746TIP3    H217245   0.281  -0.025   1.752  0.7754 -1.2942  1.4787
 5747TIP3   OH217246   2.495   3.664   0.146  0.3742  0.5325 -0.2539
 5747TIP3    H117247   2.564   3.598   0.140  0.0995  0.2051  0.1041
 5747TIP3    H217248   2.456   3.666   0.058 -0.1647 -0.3930 -0.0471
 5748TIP3   OH217249   1.470   2.674   2.633  0.2154  0.3857 -0.0762
 5748TIP3    H117250   1.540   2.609   2.643 -0.8813 -0.5890  1.7891
 5748TIP3    H217251   1.418   2.665   2.713 -2.4405  0.6224 -1.6885
 5749TIP3   OH217252   6.356   5.690   4.071 -0.2598  0.1379  0.2057
 5749TIP3    H117253   6.311   5.756   4.017 -0.5973 -0.2736 -0.0209
 5749TIP3    H217254   6.296   5.616   4.072 -0.4075  0.2544  1.4235
 5750TIP3   OH217255   4.711   3.594   2.006 -0.3378 -0.3492 -0.1390
 5750TIP3    H117256   4.679   3.513   1.968 -0.8412 -1.4721  2.4711
 5750TIP3    H217257   4.806   3.589   1.998 -0.3836 -1.0489 -0.2890
 5751TIP3   OH217258   1.148   4.178   4.687 -0.0879 -0.5076 -0.8840
 5751TIP3    H117259   1.105   4.174   4.601 -0.3047 -3.9237 -0.7539
 5751TIP3    H217260   1.222   4.118   4.679  1.4285  1.0736  0.6030
 5752TIP3   OH217261   2.169   5.514   3.208 -0.1356 -0.2517  0.3746
 5752TIP3    H117262   2.162   5.484   3.117  0.9983  0.5538  0.0010
 5752TIP3    H217263   2.185   5.435   3.258 -2.4016 -0.9480  0.1251
 5753TIP3   OH217264   2.658   3.354   3.488 -0.0418  0.1749 -0.4828
 5753TIP3    H117265   2.595   3.283   3.494  0.2012 -0.0747 -0.8774
 5753TIP3    H217266   2.614   3.420   3.434 -0.3341  0.4040  0.0226
 5754TIP3   OH217267   0.801   0.545   4.298 -0.3843 -0.3499 -0.6858
 5754TIP3    H117268   0.729   0.587   4.347  0.4628  0.2632  0.0579
 5754TIP3    H217269   0.823   0.608   4.230  0.6953  0.3272  0.2538
 5755TIP3   OH217270   2.275   3.982   4.606  0.1373 -0.2074  0.2523
 5755TIP3    H117271   2.328   4.061   4.597 -0.1196  0.0209  0.6729
 5755TIP3    H217272   2.209   4.005   4.672  0.0035 -0.7449  0.3128
 5756TIP3   OH217273   3.227   1.484   0.294  0.3033  0.4029 -0.4731
 5756TIP3    H117274   3.262   1.427   0.362  1.0396  0.4933 -0.7658
 5756TIP3    H217275   3.159   1.535   0.338 -1.5224 -1.8105 -0.5844
 5757TIP3   OH217276   0.321   0.327   0.313  0.1285 -0.1361 -0.4501
 5757TIP3    H117277   0.375   0.250   0.294  0.4525  0.4194 -1.9638
 5757TIP3    H217278   0.290   0.356   0.227  1.2050  2.2555 -0.1217
 5758TIP3   OH217279   0.240   5.455   3.929 -0.0406  0.2351  0.1066
 5758TIP3    H117280   0.157   5.463   3.976  0.0488 -0.0876  0.3276
 5758TIP3    H217281   0.253   5.360   3.920 -0.3020  0.2897 -1.0070
 5759TIP3   OH217282   3.972   2.305   1.525 -0.6838  0.2732  0.8865
 5759TIP3    H117283   3.879   2.311   1.502 -0.2539 -0.3181 -1.3067
 5759TIP3    H217284   4.000   2.395   1.536 -1.3899  0.4895  0.9304
 5760TIP3   OH217285   1.351   3.669   1.986  0.0392 -0.3584  0.4717
 5760TIP3    H117286   1.399   3.592   1.956  1.7881  0.7332  0.2891
 5760TIP3    H217287   1.307   3.702   1.907 -0.1279 -0.7738  0.3925
 5761TIP3   OH217288   4.532   3.209   3.598  0.0824  0.1189 -0.1992
 5761TIP3    H117289   4.510   3.297   3.627 -1.0071  0.3921 -1.7419
 5761TIP3    H217290   4.481   3.151   3.656 -1.4236  0.6223 -0.9727
 5762TIP3   OH217291   3.963   5.233   3.740  0.7299  0.1765 -0.2608
 5762TIP3    H117292   3.916   5.172   3.682 -0.1136  1.6186 -1.1602
 5762TIP3    H217293   3.945   5.201   3.828 -2.1314  0.7015 -0.5549
 5763TIP3   OH217294   1.655   4.777   1.518 -0.2164  0.3684  0.2928
 5763TIP3    H117295   1.664   4.690   1.558 -0.7371 -0.6833 -1.7189
 5763TIP3    H217296   1.710   4.834   1.571 -0.2204 -1.0895  1.9509
 5764TIP3   OH217297   4.353   0.435   3.495  0.5039 -0.9228  0.4062
 5764TIP3    H117298   4.284   0.423   3.560 -1.2240 -1.1277 -1.3647
 5764TIP3    H217299   4.330   0.517   3.452  0.9082 -1.3898 -0.7276
 5765TIP3   OH217300   1.040   0.254   4.168 -0.0408 -0.2156 -0.2122
 5765TIP3    H117301   1.130   0.274   4.195 -0.0210  1.7147 -1.4955
 5765TIP3    H217302   1.048   0.230   4.076 -0.9841  1.6384 -0.8217
 5766TIP3   OH217303   6.184   1.740   1.367 -0.2752  0.5968 -0.0255
 5766TIP3    H117304   6.213   1.802   1.433  1.2833 -0.5936  0.4649
 5766TIP3    H217305   6.254   1.740   1.301  0.4621 -1.5630  0.6583
 5767TIP3   OH217306   5.123   3.739   2.218  0.2607  0.2459 -0.1092
 5767TIP3    H117307   5.069   3.670   2.258 -0.1952  0.1475 -0.8666
 5767TIP3    H217308   5.123   3.809   2.283  0.4434 -0.3258  0.5272
 5768TIP3   OH217309   1.450   1.683   2.248  0.2286 -0.6103  0.0939
 5768TIP3    H117310   1.399   1.738   2.308  1.4655  0.8870 -0.1760
 5768TIP3    H217311   1.533   1.668   2.292  1.2305  0.6631 -1.2783
 5769TIP3   OH217312   6.274   3.853   5.020 -0.2945  0.3261  0.0412
 5769TIP3    H117313   6.218   3.779   5.045  0.6925  0.3704  2.7199
 5769TIP3    H217314   6.361   3.814   5.010 -0.1284  0.8334 -0.5585
 5770TIP3   OH217315   0.948   0.510   3.520  0.4480 -0.1414 -0.3474
 5770TIP3    H117316   0.859   0.477   3.513 -0.2966  1.3941  1.0752
 5770TIP3    H217317   0.977   0.482   3.607  0.8010  0.5894 -0.2196
 5771TIP3   OH217318   2.951   2.312   1.887 -0.2402  0.0246 -0.8126
 5771TIP3    H117319   2.998   2.364   1.952  0.2947 -1.7558  0.2759
 5771TIP3    H217320   3.019   2.270   1.834 -0.6526  1.7654 -2.8950
 5772TIP3   OH217321   0.930   0.744   1.899 -0.8326 -0.1107 -0.0927
 5772TIP3    H117322   0.963   0.668   1.852 -0.5826  0.6488 -1.1800
 5772TIP3    H217323   0.954   0.819   1.844 -3.5860  0.5477 -0.5482
 5773TIP3   OH217324   0.475   5.082   1.397 -0.2530  0.4537  0.5194
 5773TIP3    H117325   0.529   5.159   1.379 -0.3853  0.5486  0.5274
 5773TIP3    H217326   0.534   5.020   1.440 -0.6810  1.4347  2.6701
 5774TIP3   OH217327   4.642   3.270   1.160  0.2441  0.4015 -0.3082
 5774TIP3    H117328   4.576   3.322   1.114 -1.7860 -1.1092  0.7296
 5774TIP3    H217329   4.639   3.184   1.118 -0.2045 -0.3892  1.2392
 5775TIP3   OH217330   4.413   2.245   0.825 -0.1444  0.7135  0.1759
 5775TIP3    H117331   4.323   2.277   0.837  0.1692  1.3233  0.9012
 5775TIP3    H217332   4.450   2.241   0.913 -0.0679 -1.3927  0.0956
 5776TIP3   OH217333   0.665   2.752   3.996 -0.0346 -0.7234 -0.6578
 5776TIP3    H117334   0.755   2.754   3.961  0.4725 -0.0827  0.6296
 5776TIP3    H217335   0.672   2.700   4.076 -0.6602 -0.0314 -0.1419
 5777TIP3   OH217336   5.316   5.022   2.373  0.0448 -0.3659  0.8200
 5777TIP3    H117337   5.258   5.004   2.299  0.5727 -1.1862  0.5881
 5777TIP3    H217338   5.308   4.946   2.430  0.2352 -0.0948  1.2150
 5778TIP3   OH217339   2.198   4.346   5.173 -0.1440  0.1067 -0.6643
 5778TIP3    H117340   2.244   4.264   5.188  0.3229  0.1786 -1.6119
 5778TIP3    H217341   2.183   4.348   5.079 -2.4049 -0.0655 -0.3549
 5779TIP3   OH217342   3.523   1.927   1.032 -0.4139 -0.0947  0.6738
 5779TIP3    H117343   3.535   1.833   1.018 -2.1226 -0.1978 -0.2116
 5779TIP3    H217344   3.609   1.956   1.063  0.6309 -1.6411 -0.5815
 5780TIP3   OH217345   5.371   0.561   4.986  0.1617  0.4537  0.2952
 5780TIP3    H117346   5.388   0.652   5.011  1.0437  0.5044 -0.4592
 5780TIP3    H217347   5.440   0.540   4.923 -0.7250 -0.3708 -0.4281
 5781TIP3   OH217348   2.926   1.421   2.535 -0.0060 -0.0760  0.0843
 5781TIP3    H117349   2.945   1.367   2.612  1.5087  0.9591  0.4917
 5781TIP3    H217350   2.874   1.494   2.570  1.5421  0.9415  0.3831
 5782TIP3   OH217351   3.547   2.855   3.965 -0.1099 -0.0944  0.3931
 5782TIP3    H117352   3.563   2.765   3.938  1.8857  0.2440  0.3258
 5782TIP3    H217353   3.520   2.848   4.057  0.6579 -0.7175  0.5805
 5783TIP3   OH217354   2.891   4.149   2.697  0.7237 -0.0272 -0.1009
 5783TIP3    H117355   2.796   4.165   2.693  0.8508  2.0499  2.2315
 5783TIP3    H217356   2.928   4.210   2.633  0.5425 -0.0093 -0.1910
 5784TIP3   OH217357   1.147   1.035   2.916  0.2575 -0.0295  0.2665
 5784TIP3    H117358   1.179   0.982   2.843 -0.3765 -0.0253 -0.0230
 5784TIP3    H217359   1.198   1.116   2.911  0.7948 -0.3561  0.3335
 5785TIP3   OH217360   4.013   5.887   4.644  0.2077  0.1715 -0.0355
 5785TIP3    H117361   4.043   5.896   4.554 -0.6499  0.8363 -0.2657
 5785TIP3    H217362   3.993   5.976   4.673 -1.5195 -0.2193  0.0944
 5786TIP3   OH217363   1.939   1.328   4.920 -0.1281 -0.0476  0.4561
 5786TIP3    H117364   2.018   1.367   4.958  1.1409 -0.5781 -1.4711
 5786TIP3    H217365   1.958   1.321   4.826 -2.7621  0.4669 -0.2167
 5787TIP3   OH217366   6.157   2.894   2.146 -0.5488  0.3200 -0.2727
 5787TIP3    H117367   6.225   2.919   2.208 -1.4853  2.6089 -0.0644
 5787TIP3    H217368   6.097   2.840   2.198 -0.5537  0.9800  0.4299
 5788TIP3   OH217369   3.597   2.251   0.829 -0.5714  0.0498  0.1007
 5788TIP3    H117370   3.618   2.318   0.895 -1.5211 -0.3539  0.8373
 5788TIP3    H217371   3.678   2.241   0.779 -0.1323  1.0904  0.5631
 5789TIP3   OH217372   0.571   1.794   3.737 -0.2503  0.0517 -0.2083
 5789TIP3    H117373   0.655   1.778   3.695  0.1638 -0.7905  0.8953
 5789TIP3    H217374   0.524   1.852   3.677  2.0553  2.6291  0.2774
 5790TIP3   OH217375   3.290   1.948   4.373 -1.1093  1.0909 -0.2035
 5790TIP3    H117376   3.348   2.019   4.400  1.1491  1.2827 -4.5519
 5790TIP3    H217377   3.213   1.992   4.336 -0.4573  1.3026 -1.3758
 5791TIP3   OH217378   2.879   4.162   1.561  0.5827 -0.1776  0.5531
 5791TIP3    H117379   2.816   4.200   1.500 -0.8305  0.6363  2.4324
 5791TIP3    H217380   2.854   4.069   1.566 -0.3946  0.1005  1.1399
 5792TIP3   OH217381   1.266   3.177   4.502  0.3916  0.5930  0.1148
 5792TIP3    H117382   1.244   3.106   4.561  1.1842 -0.5310 -0.8991
 5792TIP3    H217383   1.300   3.134   4.423  0.9504  2.0868 -0.5071
 5793TIP3   OH217384   0.930   2.007   2.090  0.1460  0.2274  0.3510
 5793TIP3    H117385   0.936   2.098   2.062  0.1278 -0.1710 -1.0003
 5793TIP3    H217386   0.984   2.002   2.169  0.0669  1.4199  0.4863
 5794TIP3   OH217387   0.034   3.663   4.527 -0.1495 -0.0808  0.4807
 5794TIP3    H117388   0.067   3.748   4.554 -0.3113  0.2465 -0.3216
 5794TIP3    H217389  -0.056   3.680   4.500  0.0143 -0.3718 -0.2893
 5795TIP3   OH217390   1.468   2.975   0.391 -0.3178 -0.0881 -0.0118
 5795TIP3    H117391   1.426   3.043   0.445  0.6622  2.1660 -1.9279
 5795TIP3    H217392   1.559   3.004   0.383 -0.3025 -0.6346 -2.3705
 5796TIP3   OH217393   1.294   4.612   2.888  0.1473  0.4073  0.4982
 5796TIP3    H117394   1.285   4.585   2.796 -2.0491 -0.6452  0.9579
 5796TIP3    H217395   1.271   4.533   2.938 -0.1040  1.3656  1.9485
 5797TIP3   OH217396   3.478   5.164   0.876 -0.0346 -0.7362  0.5805
 5797TIP3    H117397   3.467   5.244   0.824  1.0802  0.5847  2.2586
 5797TIP3    H217398   3.390   5.126   0.881 -0.5808  0.3471 -0.3081
 5798TIP3   OH217399   1.994   5.391   0.679  0.6903 -0.5965  0.0778
 5798TIP3    H117400   1.956   5.461   0.732  1.4701 -1.8747  2.4548
 5798TIP3    H217401   1.919   5.347   0.640  0.0487 -0.0241  0.6487
 5799TIP3   OH217402   2.676   0.674   5.012  0.0127  0.0560 -0.6074
 5799TIP3    H117403   2.703   0.637   4.928  0.5635  2.4039 -1.5508
 5799TIP3    H217404   2.757   0.707   5.051 -0.5666  1.2308 -0.3447
 5800TIP3   OH217405   1.736   5.533   3.717 -0.2370 -0.0865 -0.1080
 5800TIP3    H117406   1.758   5.439   3.714  0.5323  0.1020 -0.6838
 5800TIP3    H217407   1.698   5.545   3.804 -2.2942 -1.3306 -0.7729
 5801TIP3   OH217408   0.074   5.309   4.179 -0.4944 -0.2918 -0.3464
 5801TIP3    H117409   0.161   5.315   4.218 -1.0167  0.7522  0.7138
 5801TIP3    H217410   0.014   5.307   4.254 -1.3894 -0.9995 -1.0567
 5802TIP3   OH217411   4.413   4.815   1.295 -0.3908  0.2329 -0.1463
 5802TIP3    H117412   4.318   4.826   1.307 -0.3013  0.5777  0.3047
 5802TIP3    H217413   4.426   4.826   1.201 -1.0652 -2.0304 -0.5622
 5803TIP3   OH217414   1.324   1.020   2.661 -0.4039 -0.1451 -0.6986
 5803TIP3    H117415   1.403   1.068   2.683 -0.6856  0.0661 -0.1310
 5803TIP3    H217416   1.303   1.048   2.572  0.1442 -0.1957 -0.8503
 5804TIP3   OH217417   2.100   2.073   0.764  0.3840 -0.0787 -0.7217
 5804TIP3    H117418   2.141   2.002   0.813  0.3545 -0.7284 -1.6109
 5804TIP3    H217419   2.007   2.066   0.785  0.6886  1.7319  1.7266
 5805TIP3   OH217420   3.223   2.851   2.254  0.2433 -0.8560 -0.3610
 5805TIP3    H117421   3.283   2.901   2.199  0.3048 -0.5944 -0.0554
 5805TIP3    H217422   3.144   2.905   2.258  0.6108 -0.3893  0.6588
 5806TIP3   OH217423   4.010   1.694   0.838 -0.0370  0.7548  0.4950
 5806TIP3    H117424   4.073   1.636   0.797 -0.6755 -0.9547  1.7895
 5806TIP3    H217425   4.062   1.766   0.873  1.1792 -0.4816  1.3168
 5807TIP3   OH217426   0.526   1.329   2.322 -0.5245  0.0163  0.2889
 5807TIP3    H117427   0.527   1.354   2.414  0.1648  1.3336 -0.0529
 5807TIP3    H217428   0.496   1.408   2.276  2.0210  0.4082 -0.8692
 5808TIP3   OH217429   3.773   0.772   4.136 -0.3682 -0.1658  0.0800
 5808TIP3    H117430   3.748   0.864   4.147 -1.0858 -0.4410  0.8995
 5808TIP3    H217431   3.740   0.729   4.215  0.0782 -1.1056 -0.2322
 5809TIP3   OH217432   1.615   2.448   1.450 -0.1826  0.0215 -0.1677
 5809TIP3    H117433   1.639   2.388   1.379  0.0403  0.9265 -0.8713
 5809TIP3    H217434   1.659   2.530   1.429  0.8142 -0.0059  1.6197
 5810TIP3   OH217435   5.504   5.450   3.664 -0.3369  0.5111  0.8639
 5810TIP3    H117436   5.414   5.448   3.631 -0.9176  0.5420  2.4030
 5810TIP3    H217437   5.532   5.541   3.650 -0.2137  0.2993 -0.4122
 5811TIP3   OH217438   4.578   2.336   1.283  0.5256  0.2324 -0.4661
 5811TIP3    H117439   4.519   2.392   1.231 -2.8468 -1.9064  0.7290
 5811TIP3    H217440   4.627   2.286   1.218 -0.7991  0.3276 -1.5896
 5812TIP3   OH217441   2.999   4.892   0.532  0.5056  0.1988  0.1921
 5812TIP3    H117442   3.091   4.906   0.508  0.0856  1.7214 -0.7312
 5812TIP3    H217443   3.000   4.882   0.627  1.5803  0.7034  0.2538
 5813TIP3   OH217444   3.251   0.847   3.893  0.2431 -0.0691  0.1525
 5813TIP3    H117445   3.250   0.768   3.840 -0.4023 -0.0028  0.0571
 5813TIP3    H217446   3.262   0.918   3.830 -1.5181  0.0892 -0.0293
 5814TIP3   OH217447   2.067   1.496   3.555 -0.1999  0.4814 -0.7270
 5814TIP3    H117448   2.083   1.523   3.465 -1.1600  1.2147 -0.6972
 5814TIP3    H217449   2.019   1.569   3.594 -0.5237 -0.1656  0.1368
 5815TIP3   OH217450   5.000   4.573   3.198 -0.3306 -0.1422 -0.5008
 5815TIP3    H117451   5.022   4.643   3.261 -0.8328 -0.5506  0.1469
 5815TIP3    H217452   5.084   4.546   3.162 -0.0865  0.4933 -0.4254
 5816TIP3   OH217453   5.123   5.756   3.676  0.8292  0.1735 -0.6764
 5816TIP3    H117454   5.057   5.786   3.738  0.9352  0.1237 -0.5384
 5816TIP3    H217455   5.206   5.783   3.715  0.8936  0.1817 -0.8188
 5817TIP3   OH217456   1.448   5.945   0.275 -0.3730 -0.1558  0.2560
 5817TIP3    H117457   1.526   5.936   0.220 -0.4779 -0.1567  0.1093
 5817TIP3    H217458   1.421   5.855   0.293 -0.5831 -0.1518 -0.0348
 5818TIP3   OH217459   6.264   3.532   2.686 -0.3368  0.5626  0.0013
 5818TIP3    H117460   6.280   3.462   2.750  3.9304  1.0379 -0.2145
 5818TIP3    H217461   6.260   3.487   2.602  0.7876  0.3704  0.0255
 5819TIP3   OH217462   2.028   0.870   0.709 -0.4814 -0.2540 -0.3067
 5819TIP3    H117463   2.079   0.791   0.695 -1.4861 -0.7882 -1.0838
 5819TIP3    H217464   1.950   0.859   0.654 -1.1698  0.7801  0.4124
 5820TIP3   OH217465   4.919   3.524   3.315  0.4580  0.0004 -0.4607
 5820TIP3    H117466   4.938   3.464   3.243  0.6744 -0.6002  0.0906
 5820TIP3    H217467   4.864   3.473   3.375  0.5337  0.3947 -0.0482
 5821TIP3   OH217468   1.467   3.823   0.249  0.1359 -0.3674 -0.7410
 5821TIP3    H117469   1.488   3.908   0.288  1.5709  0.2245 -2.6142
 5821TIP3    H217470   1.379   3.834   0.214  0.2087  0.2684 -0.7411
 5822TIP3   OH217471   2.256   4.871   2.412  0.3809  0.2207 -0.2687
 5822TIP3    H117472   2.305   4.945   2.448 -0.0440 -0.0582  0.9205
 5822TIP3    H217473   2.165   4.887   2.437  0.1667 -0.3141 -0.6709
 5823TIP3   OH217474   2.325   3.155   0.593  0.2075  0.3604  0.1316
 5823TIP3    H117475   2.248   3.136   0.646 -0.1178  0.5927 -0.2540
 5823TIP3    H217476   2.389   3.090   0.621  0.6199  1.4757  1.9670
 5824TIP3   OH217477   0.870   1.759   4.184 -0.6056  0.6815 -0.0249
 5824TIP3    H117478   0.801   1.798   4.130 -1.7991 -1.0423  0.1454
 5824TIP3    H217479   0.823   1.706   4.249  0.7054  3.2937  3.3702
 5825TIP3   OH217480   2.588   0.140   3.172  0.2487  0.5945  0.0046
 5825TIP3    H117481   2.607   0.049   3.195  2.3454  0.2195 -2.6727
 5825TIP3    H217482   2.580   0.185   3.256  1.5074 -1.6403  1.4106
 5826TIP3   OH217483   1.911   4.501   0.192 -0.1935  0.2065  0.4747
 5826TIP3    H117484   1.841   4.483   0.129  0.2975  0.6919 -0.2290
 5826TIP3    H217485   1.988   4.517   0.138 -0.3691  3.5484  0.9899
 5827TIP3   OH217486   3.500   1.545   1.239 -0.2239  0.0909 -0.1070
 5827TIP3    H117487   3.446   1.466   1.229 -1.2485  0.8226 -0.5547
 5827TIP3    H217488   3.553   1.548   1.159 -1.0686  0.4871 -0.6707
 5828TIP3   OH217489   2.663   4.360   4.587 -0.0369 -0.1893  0.3412
 5828TIP3    H117490   2.709   4.383   4.506 -0.0470  0.1643  0.4335
 5828TIP3    H217491   2.707   4.412   4.654  0.5536 -1.1493  0.7116
 5829TIP3   OH217492   5.945   2.259   1.092 -0.0042  0.2057 -0.2252
 5829TIP3    H117493   5.893   2.186   1.125  0.6208  0.1140  0.5875
 5829TIP3    H217494   5.911   2.275   1.004  1.1470 -2.3504 -1.2222
 5830TIP3   OH217495   0.328   3.456   4.786  0.1677  0.2447 -0.5059
 5830TIP3    H117496   0.288   3.536   4.820  0.1550  0.7386 -1.6388
 5830TIP3    H217497   0.270   3.386   4.815 -0.4631  0.7632 -0.4841
 5831TIP3   OH217498   4.090   3.053   5.120  0.2269 -0.4700  0.7085
 5831TIP3    H117499   4.175   3.082   5.087  0.2452 -0.7297  0.5266
 5831TIP3    H217500   4.043   3.024   5.042  0.7354 -2.3061  1.0509
 5832TIP3   OH217501   5.203   0.643   1.818  0.0338  0.6312 -0.3786
 5832TIP3    H117502   5.165   0.729   1.835 -0.7218  0.4377 -1.0219
 5832TIP3    H217503   5.268   0.631   1.887 -0.9068  1.0786  0.6111
 5833TIP3   OH217504   4.924   3.909   4.567  0.6043  0.5183 -0.1348
 5833TIP3    H117505   4.834   3.941   4.579  0.2583 -0.7905  1.1272
 5833TIP3    H217506   4.929   3.832   4.624  2.1561 -0.1613 -1.1390
 5834TIP3   OH217507   4.647   0.199   1.978 -0.0326 -0.0138  0.0014
 5834TIP3    H117508   4.607   0.114   1.990  1.5080 -0.4712  2.8928
 5834TIP3    H217509   4.630   0.222   1.887 -0.2426 -3.5297 -0.9666
 5835TIP3   OH217510   0.915   3.316   2.870  0.5736 -0.6250 -0.4507
 5835TIP3    H117511   0.896   3.261   2.945 -1.7705 -1.0345 -1.2553
 5835TIP3    H217512   0.931   3.254   2.798 -1.2507 -0.3534 -1.1631
 5836TIP3   OH217513   0.081   5.432   1.819  0.1987  0.0067  0.8168
 5836TIP3    H117514   0.171   5.457   1.798 -0.5272  1.9702 -0.2331
 5836TIP3    H217515   0.055   5.491   1.889 -0.2037 -0.7133  1.2819
 5837TIP3   OH217516   3.851   5.068   2.798  0.9088  0.0583  0.6253
 5837TIP3    H117517   3.829   5.161   2.800 -0.7931 -0.2906  2.7886
 5837TIP3    H217518   3.769   5.025   2.776  1.4272 -0.9683  0.6644
 5838TIP3   OH217519   6.155   1.450   1.420  0.1601  0.9117  0.2678
 5838TIP3    H117520   6.157   1.544   1.403  2.1068  1.0192  0.8330
 5838TIP3    H217521   6.173   1.409   1.336 -1.3127  0.9981 -0.1080
 5839TIP3   OH217522   1.601   1.864   0.441  0.4206  0.1018 -0.0642
 5839TIP3    H117523   1.631   1.864   0.350  2.4084 -2.2651  0.4693
 5839TIP3    H217524   1.655   1.931   0.484  1.7813 -0.9736 -0.0399
 5840TIP3   OH217525   3.482   2.669   1.049 -0.5948  0.2133 -0.1302
 5840TIP3    H117526   3.466   2.676   0.954 -0.6798  1.3855 -0.0557
 5840TIP3    H217527   3.398   2.691   1.088 -0.0568  1.7710  0.2221
 5841TIP3   OH217528   6.280   4.419   3.823  0.1452 -0.0607 -0.1663
 5841TIP3    H117529   6.240   4.400   3.738  1.0843  0.6039 -0.7800
 5841TIP3    H217530   6.339   4.492   3.806  0.0667  0.3444  1.1504
 5842TIP3   OH217531   1.869   3.959   3.110  0.3811 -0.0245  0.3005
 5842TIP3    H117532   1.929   4.032   3.091 -0.5521  0.6608 -0.0966
 5842TIP3    H217533   1.785   3.988   3.074 -0.1989 -0.9497  0.8922
 5843TIP3   OH217534   4.426   2.826   2.637  0.2211 -0.0938  1.0914
 5843TIP3    H117535   4.457   2.907   2.596  0.5307 -0.9170 -0.3678
 5843TIP3    H217536   4.366   2.788   2.573  1.2731 -1.7784  1.0585
 5844TIP3   OH217537   4.588   1.918   0.410 -0.0677  0.3689 -0.1342
 5844TIP3    H117538   4.538   1.991   0.447 -0.3036  1.5563 -2.6154
 5844TIP3    H217539   4.679   1.944   0.419 -0.1433  0.8712 -0.7903
 5845TIP3   OH217540   4.962   3.247   3.294 -0.2152  0.6908 -0.5629
 5845TIP3    H117541   5.031   3.182   3.280 -1.4262 -0.3923 -1.8922
 5845TIP3    H217542   4.910   3.211   3.365 -0.8134  0.2403 -1.2148
 5846TIP3   OH217543   3.878   0.565   0.807 -0.3924  0.4636 -0.5677
 5846TIP3    H117544   3.814   0.508   0.850  0.8256  0.0561  0.7737
 5846TIP3    H217545   3.884   0.531   0.717  1.4417 -2.6232  0.5763
 5847TIP3   OH217546   2.338   4.544   4.973 -0.1695 -0.4403 -0.1272
 5847TIP3    H117547   2.289   4.483   4.919 -0.3109  0.0312 -0.5406
 5847TIP3    H217548   2.430   4.520   4.960 -0.2404 -0.7444 -0.0629
 5848TIP3   OH217549   5.670   5.770   3.956 -0.3941  0.2156  0.2293
 5848TIP3    H117550   5.762   5.762   3.929 -0.5066 -1.9448  0.3368
 5848TIP3    H217551   5.647   5.683   3.987 -2.1040  1.0812  1.4991
 5849TIP3   OH217552   4.001   5.338   2.637 -0.3541 -0.0419  0.3809
 5849TIP3    H117553   3.997   5.345   2.733 -1.0663  0.1605  0.3471
 5849TIP3    H217554   4.082   5.382   2.612 -0.6245  0.7337  0.8247
 5850TIP3   OH217555   3.258   4.749   4.484  0.1629  0.1726  0.0954
 5850TIP3    H117556   3.166   4.727   4.502 -0.0554  0.6032 -0.4690
 5850TIP3    H217557   3.259   4.844   4.476  0.7059  0.1907  0.3282
 5851TIP3   OH217558   5.709   4.647   4.606  0.0590  0.4129  0.1034
 5851TIP3    H117559   5.622   4.629   4.571  0.2104  1.9053 -1.1371
 5851TIP3    H217560   5.701   4.629   4.699 -0.5602 -3.0323 -0.4681
 5852TIP3   OH217561   5.880   0.823   2.372 -0.3078 -0.1042  0.2677
 5852TIP3    H117562   5.854   0.789   2.287 -0.0410  0.4715 -0.0504
 5852TIP3    H217563   5.842   0.762   2.435 -0.1358 -0.7865 -0.2740
 5853TIP3   OH217564   1.303   1.020   2.070  0.1178  0.6067 -0.0659
 5853TIP3    H117565   1.344   1.100   2.037  1.1553 -0.6386 -1.9593
 5853TIP3    H217566   1.289   0.966   1.992  0.2043 -1.4177  1.2529
 5854TIP3   OH217567   1.156   5.091   5.125  0.3765 -0.0188  0.0004
 5854TIP3    H117568   1.106   5.031   5.180  0.0111 -0.5138 -0.8362
 5854TIP3    H217569   1.092   5.127   5.064  0.8069  0.3198 -0.2619
 5855TIP3   OH217570   2.459   1.959   4.005 -0.2192 -0.4156  0.1433
 5855TIP3    H117571   2.478   1.990   3.916  0.3190 -0.7380  0.1457
 5855TIP3    H217572   2.544   1.934   4.041 -0.3038  0.5566  1.0740
 5856TIP3   OH217573   1.380   1.669   0.879 -0.5075  0.0764  0.4676
 5856TIP3    H117574   1.398   1.752   0.835  1.9528  0.6498  2.3284
 5856TIP3    H217575   1.286   1.670   0.897 -1.2610  0.6397 -2.9181
 5857TIP3   OH217576   4.339   3.382   0.512  0.9328  0.1699  0.2548
 5857TIP3    H117577   4.246   3.395   0.497  0.5312 -1.6424  0.9346
 5857TIP3    H217578   4.363   3.451   0.574 -0.3491 -0.3039  1.3406
 5858TIP3   OH217579   4.046   5.566   3.877 -0.8711 -0.3066  0.4596
 5858TIP3    H117580   3.957   5.568   3.913 -0.1922  1.1420  2.2280
 5858TIP3    H217581   4.098   5.525   3.946 -0.2028 -1.4549 -0.7009
 5859TIP3   OH217582   2.091   3.393   5.028 -0.1552 -0.2151  0.1037
 5859TIP3    H117583   2.068   3.430   4.943 -0.4345  0.0210  0.2759
 5859TIP3    H217584   2.054   3.305   5.028 -0.1249 -0.2273 -0.0314
 5860TIP3   OH217585   1.545   1.613   1.112  0.3818  0.5519  0.1235
 5860TIP3    H117586   1.491   1.631   1.035  0.9034  1.0717 -0.1264
 5860TIP3    H217587   1.592   1.533   1.090 -1.8543 -1.1660  1.1891
 5861TIP3   OH217588   4.463   5.978   2.279 -0.4980 -0.2597  0.4062
 5861TIP3    H117589   4.528   5.951   2.344 -1.2853 -2.0834  0.5016
 5861TIP3    H217590   4.444   5.898   2.231  0.3845  1.0937 -2.4252
 5862TIP3   OH217591   4.607   4.958   4.326  0.0628  0.1770  0.2013
 5862TIP3    H117592   4.543   4.895   4.358 -1.4010  0.7902 -1.3383
 5862TIP3    H217593   4.575   4.983   4.239  0.5028  3.0768  0.7507
 5863TIP3   OH217594   5.735   4.784   0.839 -0.1560  0.0806  0.9546
 5863TIP3    H117595   5.753   4.703   0.792 -1.3784  0.7816 -0.7891
 5863TIP3    H217596   5.640   4.785   0.850 -0.0321  0.6618  2.1508
 5864TIP3   OH217597   2.462   3.142   1.273 -0.8032  0.1281  0.0833
 5864TIP3    H117598   2.380   3.175   1.236 -0.0186  1.2244 -0.7259
 5864TIP3    H217599   2.436   3.104   1.357 -2.4328 -1.2701 -0.9817
 5865TIP3   OH217600   2.600   5.583   3.657 -0.3999  0.0854  0.0613
 5865TIP3    H117601   2.609   5.657   3.597  0.4882 -0.9987 -1.2043
 5865TIP3    H217602   2.689   5.549   3.667 -0.8414 -1.0574  0.2558
 5866TIP3   OH217603   5.817   2.159   0.151 -0.3086 -0.4733  0.0783
 5866TIP3    H117604   5.770   2.118   0.223 -0.5005 -1.2779 -0.4921
 5866TIP3    H217605   5.751   2.171   0.082 -0.3023  0.9791  0.2911
 5867TIP3   OH217606   4.164   5.891   1.735  0.5286  0.5380  0.4623
 5867TIP3    H117607   4.248   5.927   1.765  0.1619 -0.7207  3.3373
 5867TIP3    H217608   4.161   5.803   1.773 -1.8228  0.2794 -0.1740
 5868TIP3   OH217609   4.448   1.046   3.271 -0.1671 -0.1667  0.0919
 5868TIP3    H117610   4.396   1.009   3.342 -0.5424 -0.7769 -0.4833
 5868TIP3    H217611   4.466   0.971   3.213 -2.0436  0.7350 -1.7995
 5869TIP3   OH217612   3.451   1.937   4.142 -0.0257  0.5873  0.5336
 5869TIP3    H117613   3.415   1.868   4.087 -0.4554  1.6749 -0.6087
 5869TIP3    H217614   3.382   1.954   4.206  0.7599 -1.1737  1.9331
 5870TIP3   OH217615   0.244   5.446   4.853  0.2400  0.2054  0.6507
 5870TIP3    H117616   0.248   5.527   4.803  0.3983 -0.2330 -0.0574
 5870TIP3    H217617   0.304   5.460   4.926 -1.4817  1.6068  1.8740
 5871TIP3   OH217618   0.344   3.903   3.758  0.2392 -0.0442 -0.0653
 5871TIP3    H117619   0.345   3.898   3.662 -0.6186  0.0376 -0.0827
 5871TIP3    H217620   0.311   3.991   3.777  0.5942  0.0100  0.3075
 5872TIP3   OH217621  -0.011   0.762   4.907 -0.0628  0.2792 -0.0499
 5872TIP3    H117622   0.055   0.818   4.947  0.5062 -1.7000  2.0053
 5872TIP3    H217623  -0.027   0.693   4.972 -0.8003 -1.8688 -2.3485
 5873TIP3   OH217624   2.334   3.460   1.994 -0.1349  0.6697  0.4227
 5873TIP3    H117625   2.334   3.369   2.024  1.8050  0.6829  0.5423
 5873TIP3    H217626   2.256   3.466   1.938 -0.0919 -1.1697  0.0858
 5874TIP3   OH217627   2.711   2.937   0.412 -0.0478  0.2639 -0.6359
 5874TIP3    H117628   2.681   3.024   0.386  0.4791  0.7014  0.1753
 5874TIP3    H217629   2.687   2.930   0.504  0.5684 -0.1524 -0.4963
 5875TIP3   OH217630   1.352   1.722   0.450  0.4789  0.2415 -0.3092
 5875TIP3    H117631   1.315   1.751   0.533  0.3073 -0.1101 -0.2601
 5875TIP3    H217632   1.431   1.775   0.439 -0.4015  1.5090 -0.7631
 5876TIP3   OH217633   5.709   3.465   2.631 -0.4902 -0.1358  0.0081
 5876TIP3    H117634   5.731   3.553   2.598  1.5350 -0.1340  1.2021
 5876TIP3    H217635   5.783   3.441   2.687 -1.3340 -2.3291  0.2875
 5877TIP3   OH217636   0.831   5.387   0.984 -0.2789  0.2579  0.0726
 5877TIP3    H117637   0.850   5.447   1.056  0.1769  0.0591  0.1218
 5877TIP3    H217638   0.835   5.441   0.905  3.6785 -0.2832 -0.2978
 5878TIP3   OH217639   5.415   4.305   4.860  0.0149 -0.3784 -0.2200
 5878TIP3    H117640   5.338   4.314   4.805  0.0544  1.9750 -0.0018
 5878TIP3    H217641   5.426   4.210   4.873 -2.0466 -0.7998 -1.3126
 5879TIP3   OH217642   3.951   5.930   2.276  0.2047  0.4643 -0.0752
 5879TIP3    H117643   3.869   5.885   2.258 -0.8327  1.1440  2.5380
 5879TIP3    H217644   3.946   6.010   2.224  1.0751 -1.2350 -3.0075
 5880TIP3   OH217645   0.628   5.280   0.523  0.4094 -0.3095  0.2623
 5880TIP3    H117646   0.676   5.223   0.464 -0.5385 -0.6605 -0.1924
 5880TIP3    H217647   0.635   5.367   0.484 -1.8837 -0.8245 -1.5564
 5881TIP3   OH217648   4.791   2.569   2.578 -0.0835  0.2222  0.2728
 5881TIP3    H117649   4.725   2.560   2.647 -1.6150 -0.0929 -1.1577
 5881TIP3    H217650   4.776   2.657   2.543  0.3785  0.2176  0.0684
 5882TIP3   OH217651   0.343   3.522   3.573 -0.2023 -1.2326  0.0323
 5882TIP3    H117652   0.432   3.534   3.541  0.2525  0.9166  1.8378
 5882TIP3    H217653   0.349   3.452   3.638  0.7330  0.4898  1.8926
 5883TIP3   OH217654   0.563   3.238   3.724  0.3447 -0.2654 -0.1029
 5883TIP3    H117655   0.495   3.296   3.758  1.2158  0.6662  0.1158
 5883TIP3    H217656   0.608   3.205   3.802 -0.4457 -1.6467 -0.2038
 5884TIP3   OH217657   0.719   4.645   3.574  0.0024 -0.2713  0.2024
 5884TIP3    H117658   0.662   4.699   3.629  0.2774  0.8050 -0.5298
 5884TIP3    H217659   0.673   4.640   3.490  1.2166  1.1155 -0.5947
 5885TIP3   OH217660   4.959   1.029   4.867 -0.2766 -0.0756  0.2051
 5885TIP3    H117661   5.023   1.059   4.803 -0.5764  0.5655  0.1998
 5885TIP3    H217662   5.012   0.999   4.941  0.0621 -0.6100 -0.2488
 5886TIP3   OH217663   5.403   2.645   2.449 -0.6448 -0.0406 -0.9060
 5886TIP3    H117664   5.347   2.567   2.446  0.6548 -1.1019  0.7072
 5886TIP3    H217665   5.427   2.660   2.357 -0.4789 -1.9045 -1.2110
 5887TIP3   OH217666   1.344   5.368   1.478 -0.4733 -0.3337  0.3568
 5887TIP3    H117667   1.360   5.454   1.440 -1.2261 -0.7895 -1.0456
 5887TIP3    H217668   1.373   5.376   1.569  1.5881  0.7426 -0.3367
 5888TIP3   OH217669   0.170   1.141   4.955 -0.0417 -0.4001  0.7889
 5888TIP3    H117670   0.218   1.158   4.874 -1.8835  2.3377  0.1030
 5888TIP3    H217671   0.211   1.063   4.993  0.8004 -1.9162 -2.8412
 5889TIP3   OH217672   1.988   4.205   3.410  0.3211  0.4786  0.0286
 5889TIP3    H117673   1.987   4.113   3.381 -0.2700 -0.2317  2.1100
 5889TIP3    H217674   2.078   4.221   3.435  0.2995  0.2531  0.2585
 5890TIP3   OH217675   2.491   2.421   0.668  1.0425  0.6023  0.0401
 5890TIP3    H117676   2.427   2.363   0.711  1.5104 -0.5249 -0.7185
 5890TIP3    H217677   2.528   2.473   0.739 -1.1332  1.7452  0.4308
 5891TIP3   OH217678   5.083   4.416   2.748  0.0145  0.0160 -0.0240
 5891TIP3    H117679   5.092   4.433   2.654 -0.3126  1.0953  0.1280
 5891TIP3    H217680   5.153   4.466   2.788 -1.4370  1.7466  0.4948
 5892TIP3   OH217681   2.837   3.009   3.892 -0.3595 -0.7092 -0.3157
 5892TIP3    H117682   2.873   3.074   3.831 -2.5546  0.6494 -0.3035
 5892TIP3    H217683   2.892   2.932   3.880  2.0002  0.9189 -0.7820
 5893TIP3   OH217684   0.083   4.099   1.573 -0.5469 -0.4151 -0.0383
 5893TIP3    H117685   0.063   4.055   1.490  0.6712  1.8107 -1.6161
 5893TIP3    H217686   0.168   4.063   1.599  0.2560  0.6354 -1.1090
 5894TIP3   OH217687   2.204   5.935   1.523  0.6863  0.3584  0.0409
 5894TIP3    H117688   2.281   5.884   1.548  0.4850  0.0005 -0.0667
 5894TIP3    H217689   2.188   5.993   1.598  0.7022  0.0138  0.3120
 5895TIP3   OH217690   4.436   5.241   1.621  1.0084 -0.4893  0.2667
 5895TIP3    H117691   4.457   5.246   1.715  0.0310 -0.3961  0.4909
 5895TIP3    H217692   4.414   5.149   1.607 -0.4257 -0.1997  0.4958
 5896TIP3   OH217693   2.405   3.703   1.317  0.6023  0.2693 -0.2585
 5896TIP3    H117694   2.463   3.663   1.252 -0.8964 -0.5691 -1.1495
 5896TIP3    H217695   2.368   3.779   1.273  0.5686  0.4497  0.0772
 5897TIP3   OH217696   5.868   1.445   1.541  0.9362 -0.4936 -0.0890
 5897TIP3    H117697   5.955   1.463   1.504  0.2458 -0.7404 -1.9384
 5897TIP3    H217698   5.815   1.421   1.465 -0.5088 -1.3026  1.1426
 5898TIP3   OH217699   6.214   2.395   1.296 -0.2324  0.0909  0.0590
 5898TIP3    H117700   6.292   2.440   1.329  0.0820 -0.4423  0.0520
 5898TIP3    H217701   6.201   2.322   1.356 -1.1915  0.6216  0.5182
 5899TIP3   OH217702   1.601   1.271   1.273 -0.0211  0.5466 -0.5863
 5899TIP3    H117703   1.508   1.269   1.248 -0.5482 -0.4116  1.2199
 5899TIP3    H217704   1.634   1.184   1.248 -0.1504  0.1662  0.4841
 5900TIP3   OH217705   4.874   2.656   3.618  0.3620 -0.1060  0.1436
 5900TIP3    H117706   4.819   2.716   3.568 -1.1465 -1.3028  0.2911
 5900TIP3    H217707   4.863   2.683   3.709  0.7556  0.2261  0.0943
 5901TIP3   OH217708   3.182   1.829   0.376  0.3180  0.1219 -0.1810
 5901TIP3    H117709   3.225   1.796   0.454 -1.0908 -1.3860  0.0113
 5901TIP3    H217710   3.091   1.801   0.385 -1.0893  4.0968 -0.0125
 5902TIP3   OH217711   5.014   3.900   0.621  0.4478 -0.4944 -0.7657
 5902TIP3    H117712   5.052   3.865   0.541  0.1061  1.3432 -1.7763
 5902TIP3    H217713   5.028   3.994   0.616  0.2446 -0.3000  1.2583
 5903TIP3   OH217714   5.163   3.399   4.824  0.0280  0.2224  0.2291
 5903TIP3    H117715   5.145   3.437   4.910  1.0293  0.3957  0.3747
 5903TIP3    H217716   5.081   3.407   4.776  0.0282  1.9585  0.4783
 5904TIP3   OH217717   5.311   4.542   2.377 -0.3498  0.3516  0.3911
 5904TIP3    H117718   5.315   4.589   2.294 -0.2526  1.1977  0.8697
 5904TIP3    H217719   5.353   4.600   2.440  0.2310 -0.5993  0.8936
 5905TIP3   OH217720   0.480   2.682   1.897 -0.5281 -0.8971 -0.2042
 5905TIP3    H117721   0.531   2.611   1.857 -0.3110 -0.5069 -0.6226
 5905TIP3    H217722   0.399   2.685   1.845 -0.9411 -1.4472  0.3935
 5906TIP3   OH217723   1.539   1.021   4.510 -0.5690  0.3880  0.3327
 5906TIP3    H117724   1.571   0.960   4.575  0.2803 -0.3643 -0.7467
 5906TIP3    H217725   1.599   1.095   4.514 -0.2023  0.1074  0.0483
 5907TIP3   OH217726   1.777   3.453   3.283 -0.3179 -0.2955  0.2780
 5907TIP3    H117727   1.851   3.487   3.332  0.1102  2.5972 -2.0694
 5907TIP3    H217728   1.700   3.480   3.333  0.1342  1.5622  0.0460
 5908TIP3   OH217729   3.614   0.559   2.245  0.1585 -0.1489 -0.5071
 5908TIP3    H117730   3.564   0.569   2.326  0.5312  0.1208 -0.3077
 5908TIP3    H217731   3.654   0.644   2.231  0.3379 -0.2829 -0.8147
 5909TIP3   OH217732   1.659   2.483   2.636  0.1694 -0.2114 -0.4004
 5909TIP3    H117733   1.724   2.468   2.705  0.0081 -0.3158 -0.2691
 5909TIP3    H217734   1.642   2.396   2.600 -0.7371 -0.3595  0.3327
 5910TIP3   OH217735   5.543   3.140   0.838  0.2305 -0.3903  0.2716
 5910TIP3    H117736   5.611   3.076   0.816 -0.5038 -1.2390  0.3955
 5910TIP3    H217737   5.549   3.206   0.769 -0.5779 -1.8545 -1.2770
 5911TIP3   OH217738   2.245   2.251   1.205  0.4565  0.1990  0.6499
 5911TIP3    H117739   2.258   2.345   1.219  1.4951  0.3997 -1.2962
 5911TIP3    H217740   2.160   2.245   1.161  1.6071  0.5640 -1.7705
 5912TIP3   OH217741   5.602   4.434   2.957 -0.5498 -0.6426  0.3148
 5912TIP3    H117742   5.557   4.369   3.010  0.5701  0.7421  3.1968
 5912TIP3    H217743   5.571   4.519   2.991 -0.5247  0.3500 -1.9790
 5913TIP3   OH217744   1.220   0.742   3.260 -0.0988 -0.0835 -0.2842
 5913TIP3    H117745   1.182   0.656   3.241 -1.6938  0.5826 -0.2114
 5913TIP3    H217746   1.313   0.732   3.240 -0.5469 -1.3345 -1.9008
 5914TIP3   OH217747   1.380   3.473   1.391 -0.5400  0.3982  0.0882
 5914TIP3    H117748   1.395   3.497   1.482  0.3469 -0.4304  0.1806
 5914TIP3    H217749   1.441   3.528   1.341 -0.8516  0.6798  0.0202
 5915TIP3   OH217750   2.124   1.496   0.395 -0.3499  0.1257 -0.0158
 5915TIP3    H117751   2.106   1.404   0.373 -0.9968  0.3712 -0.5417
 5915TIP3    H217752   2.040   1.530   0.426 -0.0900  0.5194  0.2595
 5916TIP3   OH217753   0.069   1.687   0.847 -0.0904 -0.2589 -0.5986
 5916TIP3    H117754   0.087   1.603   0.805 -1.1609 -0.3536 -0.9014
 5916TIP3    H217755   0.146   1.741   0.827  0.6449 -1.1744 -0.3342
 5917TIP3   OH217756   2.241   3.537   2.252  0.5419 -0.0065 -0.0297
 5917TIP3    H117757   2.277   3.523   2.164  1.5500  0.5500  0.2711
 5917TIP3    H217758   2.254   3.631   2.267  1.1437 -0.2555  1.0387
 5918TIP3   OH217759   1.950   5.837   0.156 -0.4750 -0.5609  0.0200
 5918TIP3    H117760   1.864   5.859   0.191 -0.9733 -2.5175  0.1441
 5918TIP3    H217761   1.944   5.860   0.063 -1.7806 -2.2599 -0.3619
 5919TIP3   OH217762   6.283   2.903   1.523 -0.0024 -0.2585  0.0121
 5919TIP3    H117763   6.242   2.829   1.478 -1.6238 -0.1939  1.2771
 5919TIP3    H217764   6.222   2.976   1.510  0.6253  0.3420  0.3834
 5920TIP3   OH217765   0.861   4.546   1.921  0.2107  0.1630  0.1064
 5920TIP3    H117766   0.822   4.513   1.840  0.7191  0.4686 -0.2669
 5920TIP3    H217767   0.817   4.630   1.936 -0.9254 -0.5460  0.9393
 5921TIP3   OH217768   2.761   1.185   3.842  0.0119  0.1638 -0.0172
 5921TIP3    H117769   2.842   1.194   3.892 -0.9110  1.8120  1.2705
 5921TIP3    H217770   2.692   1.179   3.908 -1.0580  0.3127 -1.0808
 5922TIP3   OH217771   4.721   0.659   3.784 -0.0539  0.1874 -0.1999
 5922TIP3    H117772   4.787   0.622   3.843 -2.4807 -0.4214  2.3480
 5922TIP3    H217773   4.676   0.583   3.749 -0.9149  0.6147 -0.0356
 5923TIP3   OH217774   5.759   5.080   3.319  0.3411 -0.3801  0.4098
 5923TIP3    H117775   5.724   5.167   3.337 -0.4584 -0.9971  2.0028
 5923TIP3    H217776   5.821   5.063   3.389 -0.0559 -1.3778  0.5434
 5924TIP3   OH217777   0.352   3.247   4.297 -0.1054  0.5323  0.4547
 5924TIP3    H117778   0.339   3.341   4.308 -0.1599  0.8119 -1.6786
 5924TIP3    H217779   0.421   3.225   4.360 -1.2458  1.6347  2.1717
 5925TIP3   OH217780   0.942   1.664   3.394  0.3649 -0.3816 -0.5295
 5925TIP3    H117781   0.879   1.639   3.327  0.6894 -0.5238 -0.7816
 5925TIP3    H217782   1.017   1.607   3.380  0.4395 -0.4064 -0.0507
 5926TIP3   OH217783   1.120   0.092   2.957  0.7832 -0.2051 -0.0961
 5926TIP3    H117784   1.106   0.018   3.017  1.5056  0.1047  0.4779
 5926TIP3    H217785   1.162   0.159   3.012  1.8342 -0.0658 -1.0434
 5927TIP3   OH217786   3.426   3.745   3.852 -0.2354 -0.0026 -0.0104
 5927TIP3    H117787   3.431   3.737   3.756  1.3777 -0.5571  0.0939
 5927TIP3    H217788   3.421   3.655   3.883  3.0405 -0.1322  0.5337
 5928TIP3   OH217789   3.636   3.104   2.019  0.2563 -0.0529  0.2242
 5928TIP3    H117790   3.653   3.193   2.051  1.6243 -0.7180  1.4496
 5928TIP3    H217791   3.665   3.106   1.928 -0.3227  0.9158  0.0461
 5929TIP3   OH217792   1.052   4.043   3.327  0.0270 -0.1218 -0.4955
 5929TIP3    H117793   1.084   3.955   3.309  0.8177 -0.2598  1.3111
 5929TIP3    H217794   1.042   4.045   3.422 -3.6953  0.5120 -0.7366
 5930TIP3   OH217795   5.688   1.943   5.118  0.0354 -0.5258 -0.6772
 5930TIP3    H117796   5.672   1.948   5.213  0.1757 -0.1291 -0.6718
 5930TIP3    H217797   5.616   1.889   5.084  0.6271 -1.6768 -0.1891
 5931TIP3   OH217798   3.601   2.888   5.087 -0.0285 -0.1854  0.5410
 5931TIP3    H117799   3.658   2.812   5.080  0.5107  0.0154  2.2864
 5931TIP3    H217800   3.516   2.852   5.111 -0.5581 -0.4426 -1.5591
 5932TIP3   OH217801   0.974   5.507   1.187  0.2163  0.3905  0.1575
 5932TIP3    H117802   1.023   5.523   1.106 -2.2280 -0.4002 -1.5676
 5932TIP3    H217803   0.942   5.594   1.212  1.6658  0.7682  0.7895
 5933TIP3   OH217804   1.945   1.924   4.766  0.0009  0.1313  0.4470
 5933TIP3    H117805   2.039   1.923   4.784 -0.2763 -1.7662  2.1313
 5933TIP3    H217806   1.914   1.839   4.797 -2.0721  0.1630 -1.3470
 5934TIP3   OH217807   5.360   5.326   1.167 -0.4036  0.2391 -0.2158
 5934TIP3    H117808   5.322   5.241   1.189 -0.4410 -0.4133 -2.5273
 5934TIP3    H217809   5.450   5.321   1.199 -0.8036 -0.0845  0.9290
 5935TIP3   OH217810   1.801   4.869   0.089  0.0202  0.4139 -0.3336
 5935TIP3    H117811   1.722   4.905   0.129 -0.4301 -1.3322  0.4578
 5935TIP3    H217812   1.867   4.875   0.158 -0.0056 -0.0693 -0.2642
 5936TIP3   OH217813   0.837   2.665   3.597 -0.0720 -0.6645 -0.1658
 5936TIP3    H117814   0.808   2.715   3.520 -0.3344 -2.0946 -1.0235
 5936TIP3    H217815   0.762   2.667   3.657 -0.1446 -0.1987 -0.2695
 5937TIP3   OH217816   1.216   5.238   4.799  0.7248  0.7013 -0.7776
 5937TIP3    H117817   1.144   5.222   4.860  1.9094  0.9902  0.7247
 5937TIP3    H217818   1.172   5.258   4.716 -0.8992 -1.3404 -0.4829
 5938TIP3   OH217819   1.376   5.431   1.083 -0.0862  0.3817  0.0197
 5938TIP3    H117820   1.298   5.466   1.040 -0.4881 -0.6204 -0.0758
 5938TIP3    H217821   1.448   5.485   1.049 -0.9709  3.0927  2.0447
 5939TIP3   OH217822   3.122   5.254   3.292  0.4277 -0.2934 -0.1945
 5939TIP3    H117823   3.150   5.330   3.241 -0.6009  0.9232  0.9838
 5939TIP3    H217824   3.030   5.270   3.310  0.2500 -1.7160  0.2944
 5940TIP3   OH217825   2.433   4.762   1.127 -0.1162  0.3471 -0.8528
 5940TIP3    H117826   2.374   4.764   1.051 -1.7296  0.7579  0.3526
 5940TIP3    H217827   2.519   4.742   1.090 -1.3292 -2.4766 -2.4822
 5941TIP3   OH217828   5.010   5.735   1.837 -0.1759 -0.3619  0.0376
 5941TIP3    H117829   5.056   5.659   1.872 -0.6698 -0.4759  0.4666
 5941TIP3    H217830   5.037   5.741   1.746 -1.1351 -1.8508 -0.3730
 5942TIP3   OH217831   2.892   3.110   5.109 -0.2270 -0.1761 -0.2005
 5942TIP3    H117832   2.832   3.052   5.157 -3.5098  2.0405 -1.2801
 5942TIP3    H217833   2.893   3.075   5.020 -1.4682  0.8263 -0.6285
 5943TIP3   OH217834   0.081   4.216   0.669 -0.0951  0.0778  0.0911
 5943TIP3    H117835   0.118   4.191   0.584 -1.3229 -0.5092 -0.3046
 5943TIP3    H217836   0.079   4.312   0.667 -0.0675  0.0693 -0.5289
 5944TIP3   OH217837   5.641   4.626   2.363 -0.0065 -0.2015 -0.1215
 5944TIP3    H117838   5.657   4.591   2.450 -1.4690  1.7558  0.9909
 5944TIP3    H217839   5.729   4.635   2.325  0.8206  0.6444  1.8521
 5945TIP3   OH217840   0.809   2.207   3.112  0.3992  0.2346 -0.2648
 5945TIP3    H117841   0.781   2.258   3.188 -0.1672 -1.0369  0.4020
 5945TIP3    H217842   0.897   2.177   3.134  0.1639 -0.2888 -0.0140
 5946TIP3   OH217843   3.856   1.360   0.800  0.6576 -0.0401  0.4969
 5946TIP3    H117844   3.903   1.373   0.882  1.5464 -1.9969  0.3683
 5946TIP3    H217845   3.905   1.290   0.756 -1.9694 -1.7493  0.0644
 5947TIP3   OH217846   1.146   5.356   3.950 -0.3427 -0.1452 -0.1425
 5947TIP3    H117847   1.114   5.294   3.884 -2.1244 -0.5294  1.0257
 5947TIP3    H217848   1.088   5.431   3.942  0.6298  0.6165 -0.2670
 5948TIP3   OH217849   3.068   2.364   4.909 -0.1568  0.1259  0.3836
 5948TIP3    H117850   3.032   2.278   4.888 -1.6965  1.0548 -1.0331
 5948TIP3    H217851   3.160   2.358   4.885 -0.6114 -0.6282 -1.2867
 5949TIP3   OH217852   6.084   5.632   4.830 -0.2278  0.0495 -0.2904
 5949TIP3    H117853   6.160   5.690   4.838 -0.0894 -0.3246  1.8792
 5949TIP3    H217854   6.121   5.547   4.806 -0.0693  0.1132 -0.2738
 5950TIP3   OH217855   4.293   3.297   2.572 -0.3251 -0.3191  0.5792
 5950TIP3    H117856   4.344   3.256   2.642  2.8516  0.1939 -1.2688
 5950TIP3    H217857   4.300   3.391   2.588 -1.1003 -0.2389  0.5218
 5951TIP3   OH217858   1.389   3.913   1.299  0.1016 -0.0496  0.7361
 5951TIP3    H117859   1.321   3.846   1.301 -0.9242  0.9774  2.2084
 5951TIP3    H217860   1.359   3.975   1.233  0.2194 -0.1977  0.5419
 5952TIP3   OH217861   1.195   3.718   4.461  0.2179  0.2597  0.1253
 5952TIP3    H117862   1.139   3.720   4.383 -0.5556  1.2800  0.6838
 5952TIP3    H217863   1.215   3.625   4.473 -1.5977 -0.1860  0.0515
 5953TIP3   OH217864   2.658   4.587   3.290 -0.0977 -0.9661  0.0418
 5953TIP3    H117865   2.672   4.642   3.367 -0.2761 -0.5352 -0.2300
 5953TIP3    H217866   2.564   4.567   3.291 -0.5452  0.9137 -1.2971
 5954TIP3   OH217867   6.057   2.022   2.440  0.2888  0.1150  0.1341
 5954TIP3    H117868   6.094   1.937   2.465 -1.8269 -1.2943 -1.2532
 5954TIP3    H217869   6.122   2.060   2.381  0.9066 -0.8894  0.1382
 5955TIP3   OH217870   2.743   5.448   1.683 -0.1278  0.2053  0.2482
 5955TIP3    H117871   2.702   5.484   1.605 -1.5167 -0.2953  0.7177
 5955TIP3    H217872   2.770   5.524   1.734 -1.8527  0.6122  0.6193
 5956TIP3   OH217873   4.148   2.658   2.029 -0.0262 -0.4637  0.7819
 5956TIP3    H117874   4.228   2.655   2.082 -0.3265 -1.5107  1.1999
 5956TIP3    H217875   4.081   2.617   2.084 -0.6536 -0.3503  0.1131
 5957TIP3   OH217876   2.636   5.387   1.311 -0.5681 -0.1590 -0.0963
 5957TIP3    H117877   2.694   5.325   1.356  0.1572  0.0978 -0.6643
 5957TIP3    H217878   2.674   5.396   1.224 -1.6216 -0.1836 -0.5684
 5958TIP3   OH217879   0.184   1.678   2.252 -0.0233 -0.1887 -0.3130
 5958TIP3    H117880   0.198   1.676   2.157 -0.1764 -0.2175 -0.3350
 5958TIP3    H217881   0.095   1.710   2.262 -0.4489 -1.3797 -0.2190
 5959TIP3   OH217882   5.566   2.582   3.014 -0.0127 -0.1629 -0.1138
 5959TIP3    H117883   5.490   2.638   3.000 -1.1824 -1.9286 -1.2664
 5959TIP3    H217884   5.620   2.595   2.936  1.1405  1.3774  0.8728
 5960TIP3   OH217885   1.828   1.887   3.468 -0.2905 -0.1404 -0.5588
 5960TIP3    H117886   1.877   1.970   3.469 -0.5489  0.1080 -2.8864
 5960TIP3    H217887   1.736   1.914   3.472 -0.3406 -0.4918  1.4297
 5961TIP3   OH217888   3.613   4.343   1.826  0.0915  0.2693  0.9512
 5961TIP3    H117889   3.600   4.296   1.744  0.5277  0.3815  0.8163
 5961TIP3    H217890   3.543   4.407   1.829  1.8151  2.3891 -0.8362
 5962TIP3   OH217891   4.498   2.044   1.503  0.5851 -0.4796  0.0590
 5962TIP3    H117892   4.417   2.006   1.471  1.3965  0.0405 -2.9288
 5962TIP3    H217893   4.550   1.970   1.532  0.0272 -1.0639 -0.4208
 5963TIP3   OH217894   0.620   0.772   1.788  0.0844 -0.2510  0.4445
 5963TIP3    H117895   0.662   0.857   1.794 -0.7661  0.1411  1.0958
 5963TIP3    H217896   0.588   0.754   1.876 -0.6587 -0.7586  0.0869
 5964TIP3   OH217897   4.490   0.144   2.842  0.2530 -0.0053 -0.2477
 5964TIP3    H117898   4.421   0.207   2.822  0.8659  0.6775 -0.2942
 5964TIP3    H217899   4.454   0.059   2.817 -0.0250  0.4960 -1.6694
 5965TIP3   OH217900   5.259   3.243   5.052  0.2624 -0.0538 -0.2391
 5965TIP3    H117901   5.244   3.335   5.029 -0.1403 -0.4921 -1.8561
 5965TIP3    H217902   5.185   3.220   5.108 -1.3864 -0.2316 -2.3864
 5966TIP3   OH217903   4.124   2.946   1.349  0.2803 -0.3352  0.1930
 5966TIP3    H117904   4.100   3.039   1.349  0.5667 -0.2200 -2.1372
 5966TIP3    H217905   4.216   2.945   1.321  0.0003 -1.3718 -0.7415
 5967TIP3   OH217906   4.485   2.557   3.037 -0.1633 -0.2044 -0.2624
 5967TIP3    H117907   4.509   2.623   2.972 -1.4412 -0.5790 -1.1677
 5967TIP3    H217908   4.566   2.538   3.084  0.6595  0.5501 -1.3239
 5968TIP3   OH217909   3.511   5.635   1.133  0.0411  0.8683  0.7632
 5968TIP3    H117910   3.434   5.661   1.083 -0.1287 -0.9719 -0.0139
 5968TIP3    H217911   3.540   5.715   1.177 -2.6122  1.5120  1.5133
 5969TIP3   OH217912   6.105   2.123   5.110 -0.2426 -0.6723 -0.0937
 5969TIP3    H117913   6.099   2.039   5.154 -1.6534 -1.5335 -1.7927
 5969TIP3    H217914   6.020   2.164   5.126  0.2923  0.2820  0.3983
 5970TIP3   OH217915   2.029   3.443   3.823 -0.6710  0.5358  0.6813
 5970TIP3    H117916   2.007   3.434   3.730 -0.1837  2.5743  0.3056
 5970TIP3    H217917   2.120   3.413   3.829 -0.0902  2.0458  0.0905
 5971TIP3   OH217918   5.173   3.796   4.055  0.2367  0.0484 -0.1234
 5971TIP3    H117919   5.138   3.740   3.985  1.4097 -0.3306 -0.4397
 5971TIP3    H217920   5.193   3.879   4.012  1.7165 -0.4485 -0.4584
 5972TIP3   OH217921   1.147   6.012   2.803  0.0738 -0.5605 -0.1545
 5972TIP3    H117922   1.081   5.959   2.758 -2.2335  1.2149  0.9569
 5972TIP3    H217923   1.151   5.975   2.892  1.1651 -1.0915 -0.3958
 5973TIP3   OH217924   0.967   4.746   4.271  0.1702  0.0014 -0.0615
 5973TIP3    H117925   1.051   4.780   4.303 -0.1241 -1.1349  2.0854
 5973TIP3    H217926   0.991   4.678   4.208  0.9384 -1.2108  1.4782
 5974TIP3   OH217927   3.762   1.812   1.438  0.3167 -0.1403  0.3330
 5974TIP3    H117928   3.840   1.783   1.484 -0.5761 -1.7371  0.9084
 5974TIP3    H217929   3.734   1.736   1.386  0.0183  0.9003 -1.1162
 5975TIP3   OH217930   2.893   4.852   3.615 -0.1125 -0.2879  0.1408
 5975TIP3    H117931   2.974   4.863   3.665 -0.5692 -0.5568  0.9507
 5975TIP3    H217932   2.850   4.777   3.656 -0.0698 -1.1029 -1.2391
 5976TIP3   OH217933   1.652   1.665   3.352 -0.1489  0.4647 -0.3141
 5976TIP3    H117934   1.605   1.656   3.436 -0.3492  0.3773 -0.4350
 5976TIP3    H217935   1.739   1.695   3.377  0.1282 -0.5853 -0.0020
 5977TIP3   OH217936   0.542   2.958   0.142 -0.0881  0.0341 -0.0598
 5977TIP3    H117937   0.599   2.986   0.070 -2.2105 -0.9771 -2.2619
 5977TIP3    H217938   0.466   2.919   0.099 -1.8285  0.0483  2.7527
 5978TIP3   OH217939   5.620   1.040   2.020  0.2298 -0.1041 -0.4632
 5978TIP3    H117940   5.591   1.055   1.930  0.0280 -0.3692 -0.4443
 5978TIP3    H217941   5.544   0.999   2.063 -0.0923  1.0881  0.1441
 5979TIP3   OH217942   0.274   2.908   2.918 -0.3599  0.1559 -0.6143
 5979TIP3    H117943   0.362   2.906   2.879 -0.1122 -3.0216 -0.1677
 5979TIP3    H217944   0.286   2.873   3.006 -2.1997 -1.3434 -0.9007
 5980TIP3   OH217945   6.315   2.965   4.254 -0.5469  0.7188  0.0486
 5980TIP3    H117946   6.225   2.973   4.221 -0.1105  0.8026 -1.1513
 5980TIP3    H217947   6.339   2.874   4.236  0.0018  1.0024 -0.6745
 5981TIP3   OH217948   2.084   0.577   1.690  0.3577  0.3944  0.1607
 5981TIP3    H117949   2.046   0.497   1.727 -0.9171  0.8142 -0.1975
 5981TIP3    H217950   2.176   0.574   1.717  0.3563 -1.2186  0.1053
 5982TIP3   OH217951   5.854   5.756   3.018  0.0533 -0.2000 -0.1815
 5982TIP3    H117952   5.765   5.777   3.046  0.0758 -1.3211  0.8478
 5982TIP3    H217953   5.860   5.787   2.928 -2.0633 -1.9323 -0.9798
 5983TIP3   OH217954   3.831   5.512   4.884  0.5375  0.0155  0.2225
 5983TIP3    H117955   3.919   5.529   4.850  0.1063  0.9493 -0.4525
 5983TIP3    H217956   3.803   5.433   4.838  1.0959 -0.4359  0.6230
 5984TIP3   OH217957   1.581   3.514   3.525  0.6546  0.7377  0.5158
 5984TIP3    H117958   1.563   3.517   3.619 -0.4717  2.1643  0.2861
 5984TIP3    H217959   1.519   3.450   3.491 -1.9938  3.2961  0.1942
 5985TIP3   OH217960   1.879   5.432   1.863 -0.4506 -0.4296 -0.2342
 5985TIP3    H117961   1.872   5.409   1.955  0.8401  0.0635  0.0099
 5985TIP3    H217962   1.892   5.348   1.818  0.0709 -0.5719  0.1713
 5986TIP3   OH217963   6.018   5.895   3.162 -0.8460 -0.2553  0.4763
 5986TIP3    H117964   5.994   5.849   3.242  0.6099 -0.9375  0.5475
 5986TIP3    H217965   5.955   5.865   3.097 -1.5178 -0.3394  1.1546
 5987TIP3   OH217966   6.057   4.388   4.467  0.2267 -0.1598 -0.0584
 5987TIP3    H117967   6.121   4.332   4.424  0.5270 -0.4388  0.7309
 5987TIP3    H217968   6.014   4.331   4.531  0.0290  0.3263  0.2475
 5988TIP3   OH217969   0.489   4.421   1.808 -0.0544  0.0497  0.2033
 5988TIP3    H117970   0.561   4.472   1.770  0.1684 -0.4835 -0.1033
 5988TIP3    H217971   0.531   4.366   1.874 -0.2428  0.0212  0.3010
 5989TIP3   OH217972   1.660   0.690   2.431  0.8014  0.4268 -0.0235
 5989TIP3    H117973   1.669   0.612   2.485  0.9457  0.0822 -0.5406
 5989TIP3    H217974   1.636   0.759   2.492 -0.1228 -0.1905  0.3336
 5990TIP3   OH217975   5.911   0.051   3.668 -0.1821  0.5900 -0.2766
 5990TIP3    H117976   5.874   0.082   3.751 -0.3347  2.9215 -1.1202
 5990TIP3    H217977   5.836   0.024   3.616 -0.2486  0.6810 -0.2291
 5991TIP3   OH217978   1.115   5.620   2.876  0.1699  0.1199  0.0716
 5991TIP3    H117979   1.049   5.594   2.812 -0.6710  0.8441  0.6399
 5991TIP3    H217980   1.112   5.552   2.943 -0.7704  0.7121  0.6452
 5992TIP3   OH217981   4.133   3.352   3.813  0.2434  0.0249 -0.1548
 5992TIP3    H117982   4.187   3.371   3.736  0.7163 -0.8669 -0.0620
 5992TIP3    H217983   4.129   3.435   3.860  0.7125  0.3541 -0.6765
 5993TIP3   OH217984   5.341   3.194   1.612 -0.6851  0.5774  0.1884
 5993TIP3    H117985   5.306   3.216   1.526 -2.4521  0.7883  0.9292
 5993TIP3    H217986   5.264   3.173   1.665  0.3183  1.0414  1.8926
 5994TIP3   OH217987   1.272   3.446   3.666  0.4277  0.5131  0.1044
 5994TIP3    H117988   1.220   3.512   3.711  0.5670 -0.6849  2.1512
 5994TIP3    H217989   1.249   3.455   3.573 -0.3423  2.6749  0.4539
 5995TIP3   OH217990   3.730   2.691   2.818  0.4100  0.2681  0.0853
 5995TIP3    H117991   3.789   2.632   2.864  0.1446  0.1440  0.2684
 5995TIP3    H217992   3.785   2.732   2.751  0.4779 -0.5810 -0.3945
 5996TIP3   OH217993   0.327   2.978   2.085  0.0270  0.0097 -0.1084
 5996TIP3    H117994   0.362   2.904   2.134 -1.4248 -0.6589 -0.0332
 5996TIP3    H217995   0.235   2.983   2.111 -0.3779  0.6396 -1.5601
 5997TIP3   OH217996   1.718   1.538   0.237 -0.1821 -0.0764 -0.1112
 5997TIP3    H117997   1.647   1.583   0.191  1.7101  1.0966 -2.0938
 5997TIP3    H217998   1.752   1.605   0.297 -1.1180 -0.8502  1.3344
 5998TIP3   OH217999   5.192   4.717   3.386  0.3157  0.0613 -0.0534
 5998TIP3    H118000   5.200   4.632   3.429 -0.1244  0.4689  0.8654
 5998TIP3    H218001   5.282   4.749   3.379  0.3992 -0.0208  0.5587
 5999TIP3   OH218002   5.346   3.434   2.373  0.3834  0.0972 -0.2679
 5999TIP3    H118003   5.254   3.456   2.359  1.0033  2.4626 -1.0284
 5999TIP3    H218004   5.383   3.428   2.285  1.2431  0.5682  0.0521
 6000TIP3   OH218005   2.675   4.682   1.026  0.1727 -0.4228 -0.1885
 6000TIP3    H118006   2.765   4.701   1.053  0.2243 -1.7790  0.6798
 6000TIP3    H218007   2.666   4.727   0.942  1.5851 -0.0668 -0.1835
 6001TIP3   OH218008   3.719   4.595   1.718  0.1541  0.1124  0.6472
 6001TIP3    H118009   3.806   4.614   1.754 -0.1061 -0.5830  1.7014
 6001TIP3    H218010   3.711   4.500   1.725 -0.1548  0.0104 -0.7473
 6002TIP3   OH218011   1.634   5.038   5.020 -0.1442 -0.3800 -0.2789
 6002TIP3    H118012   1.702   5.074   5.077 -1.0354 -0.0122  0.5706
 6002TIP3    H218013   1.555   5.039   5.074 -0.6378 -1.6473 -0.9485
 6003TIP3   OH218014   3.887   5.492   0.643 -0.5349 -0.3494  0.4466
 6003TIP3    H118015   3.934   5.423   0.690 -0.7222 -0.2612  0.7669
 6003TIP3    H218016   3.912   5.573   0.688 -0.3840 -0.2165  0.1276
 6004TIP3   OH218017   1.097   4.494   2.038 -0.1314  0.3095  0.0988
 6004TIP3    H118018   1.003   4.475   2.032 -0.7054  2.5324  0.9977
 6004TIP3    H218019   1.126   4.498   1.947 -1.5779  2.2978 -0.3425
 6005TIP3   OH218020  -0.003   2.486   1.576  0.2769  0.0680  0.1548
 6005TIP3    H118021   0.081   2.454   1.542  0.9255  0.4513  1.3378
 6005TIP3    H218022  -0.024   2.561   1.521  0.2616 -0.5371 -0.6969
 6006TIP3   OH218023   1.185   4.344   1.322 -0.2714  0.2144 -0.2365
 6006TIP3    H118024   1.106   4.294   1.304 -0.5729  0.3767  0.6094
 6006TIP3    H218025   1.153   4.432   1.343  0.0800  0.0917  0.8433
 6007TIP3   OH218026   5.378   0.091   4.252 -0.6126 -0.5451 -0.2830
 6007TIP3    H118027   5.377   0.183   4.277 -0.1408 -0.7402  0.5119
 6007TIP3    H218028   5.444   0.052   4.309  1.3320 -0.8435 -2.5719
 6008TIP3   OH218029   2.463   1.485   2.720  0.1198  0.1476  0.3054
 6008TIP3    H118030   2.380   1.438   2.709  1.0221 -1.6923  0.9836
 6008TIP3    H218031   2.506   1.440   2.793  2.0431  0.5845 -0.5181
 6009TIP3   OH218032   4.797   4.569   4.737 -0.5042 -0.1985  0.4174
 6009TIP3    H118033   4.795   4.647   4.792  0.5046 -0.6114  1.0614
 6009TIP3    H218034   4.707   4.538   4.735 -0.6255  0.0756  1.4720
 6010TIP3   OH218035   2.288   1.045   1.220 -0.5128 -0.3274  0.4202
 6010TIP3    H118036   2.336   1.093   1.287  0.9117 -0.8812 -0.1511
 6010TIP3    H218037   2.263   1.111   1.156 -1.8590  0.2002  1.4473
 6011TIP3   OH218038   2.322   2.444   2.599 -0.4413  0.6185 -0.2714
 6011TIP3    H118039   2.255   2.386   2.634 -1.4123  0.3096 -2.4404
 6011TIP3    H218040   2.399   2.429   2.654 -0.8475 -2.2850 -0.3544
 6012TIP3   OH218041   2.786   0.407   2.866 -0.0726  0.0402  0.5813
 6012TIP3    H118042   2.793   0.312   2.878 -1.4887 -0.2135 -0.3078
 6012TIP3    H218043   2.755   0.440   2.951  0.7266 -0.2479  0.9876
 6013TIP3   OH218044   0.467   5.863   4.711 -0.2414  0.2244 -0.2222
 6013TIP3    H118045   0.407   5.855   4.636  0.3027 -1.7682 -0.5189
 6013TIP3    H218046   0.551   5.885   4.671 -0.0484 -0.4070 -0.1797
 6014TIP3   OH218047   5.216   1.263   2.520  0.2147  0.1206  0.0424
 6014TIP3    H118048   5.272   1.243   2.445  2.0590  0.5224  1.2384
 6014TIP3    H218049   5.259   1.337   2.563 -2.2037  1.6207  0.0899
 6015TIP3   OH218050   0.680   1.412   0.510  0.2673 -0.0496  0.6747
 6015TIP3    H118051   0.677   1.440   0.602 -0.6153  1.1922  0.2910
 6015TIP3    H218052   0.589   1.394   0.487  0.4121  0.1578 -0.1004
 6016TIP3   OH218053   0.386   4.476   4.578  0.1466  0.0193 -0.1258
 6016TIP3    H118054   0.389   4.572   4.578 -1.4867  0.1048  0.5549
 6016TIP3    H218055   0.294   4.455   4.594  0.3123 -1.6736 -1.1509
 6017TIP3   OH218056   1.417   3.095   4.769  0.8336 -0.0417 -0.2473
 6017TIP3    H118057   1.381   3.177   4.801  0.5161 -0.8010  1.4469
 6017TIP3    H218058   1.442   3.113   4.679 -2.3970  0.9457 -1.0711
 6018TIP3   OH218059   1.470   0.998   3.080  0.3736 -0.1558 -0.1188
 6018TIP3    H118060   1.392   1.052   3.069  1.3068  1.2466 -0.1287
 6018TIP3    H218061   1.482   0.991   3.175  1.2556  1.2216 -0.0992
 6019TIP3   OH218062   4.878   2.712   1.226  0.8836 -0.0408 -0.0397
 6019TIP3    H118063   4.918   2.637   1.269 -0.5026 -0.0702  1.2905
 6019TIP3    H218064   4.884   2.783   1.290 -0.4818  0.1485 -0.0927
 6020TIP3   OH218065   1.086   4.947   1.831 -0.5259  0.2143 -0.2196
 6020TIP3    H118066   1.064   5.040   1.829  3.0446  1.2410  0.6392
 6020TIP3    H218067   1.110   4.930   1.922  1.0409 -0.9353 -0.8053
 6021TIP3   OH218068   2.333   4.789   4.301 -0.0920 -0.0958 -1.1150
 6021TIP3    H118069   2.345   4.874   4.259  0.5351 -0.6984 -2.2026
 6021TIP3    H218070   2.277   4.740   4.240 -1.2163 -0.1793 -0.0694
 6022TIP3   OH218071   3.122   2.422   3.068  0.1697  0.0523 -0.1705
 6022TIP3    H118072   3.083   2.473   2.997 -1.5974 -0.5822  0.3151
 6022TIP3    H218073   3.209   2.398   3.034  0.4827  2.0959 -0.9911
 6023TIP3   OH218074   1.355   3.944   3.729 -0.2373  0.3580 -0.5592
 6023TIP3    H118075   1.414   3.896   3.670  1.6334  2.2781 -0.3667
 6023TIP3    H218076   1.321   4.016   3.677  1.1884  1.8925  0.5320
 6024TIP3   OH218077   3.501   3.259   1.377 -0.2119  0.0506  0.1743
 6024TIP3    H118078   3.534   3.304   1.299  0.0608  1.1808  0.9084
 6024TIP3    H218079   3.487   3.169   1.349  0.8339  0.1983 -0.9054
 6025TIP3   OH218080   3.964   5.303   2.949  0.0938  0.4485 -0.3062
 6025TIP3    H118081   4.055   5.274   2.960 -0.1442  0.3214  1.6816
 6025TIP3    H218082   3.931   5.314   3.038 -1.9798  0.1120 -0.9688
 6026TIP3   OH218083   2.238   3.613   0.804 -0.3279 -0.1125 -0.0606
 6026TIP3    H118084   2.195   3.613   0.889 -1.0511  2.0622 -0.3495
 6026TIP3    H218085   2.172   3.578   0.743  0.0300 -1.2366  0.1748
 6027TIP3   OH218086   6.025   4.665   2.895  0.2931  0.1112 -0.0364
 6027TIP3    H118087   6.084   4.601   2.855  0.3807  0.8669 -1.1933
 6027TIP3    H218088   6.028   4.740   2.835 -1.1473  0.5124  0.3530
 6028TIP3   OH218089   3.973   5.077   3.466 -0.0599  0.1507 -0.4091
 6028TIP3    H118090   4.055   5.044   3.501  0.4232 -0.5322 -2.0847
 6028TIP3    H218091   3.978   5.061   3.371 -1.4986  1.4281 -0.7604
 6029TIP3   OH218092   1.622   3.156   4.934  0.7573 -0.1367 -0.0588
 6029TIP3    H118093   1.569   3.119   4.864 -0.1996 -1.5908  1.3872
 6029TIP3    H218094   1.592   3.247   4.942  0.5279 -0.1003 -1.1532
 6030TIP3   OH218095   4.544   2.171   3.260 -0.7064 -0.3441  0.2299
 6030TIP3    H118096   4.572   2.140   3.346  0.9074 -1.2523 -0.5593
 6030TIP3    H218097   4.537   2.092   3.207 -4.5171 -0.1380  0.1819
 6031TIP3   OH218098   2.454   4.212   0.819  0.3390 -0.1812 -0.1121
 6031TIP3    H118099   2.514   4.147   0.783 -1.0181 -1.5459 -0.0136
 6031TIP3    H218100   2.510   4.286   0.843  1.7983 -0.9070 -1.1484
 6032TIP3   OH218101   5.590   1.129   0.578 -0.0056  0.4875 -0.0732
 6032TIP3    H118102   5.583   1.080   0.660 -0.9122  2.0084  0.7946
 6032TIP3    H218103   5.622   1.064   0.515 -1.0849 -1.2247  1.0279
 6033TIP3   OH218104   6.074   2.203   1.422 -0.3287 -0.8247 -0.2559
 6033TIP3    H118105   6.085   2.202   1.517  1.9846 -1.1547 -0.4697
 6033TIP3    H218106   6.009   2.272   1.406 -0.2467 -0.2853  1.5044
 6034TIP3   OH218107   4.949   4.934   4.664  0.5030  0.1022 -0.4683
 6034TIP3    H118108   4.943   4.975   4.751  1.5952  1.7012 -1.1052
 6034TIP3    H218109   4.901   4.993   4.606 -1.5350 -1.7138 -0.7834
 6035TIP3   OH218110   0.477   3.786   2.844 -0.5535 -0.7149  0.0835
 6035TIP3    H118111   0.572   3.794   2.835 -0.4243  1.1539  2.3038
 6035TIP3    H218112   0.442   3.829   2.766  0.4381  1.3540  0.7277
 6036TIP3   OH218113   0.643   4.058   0.413  0.1064  0.0844 -0.3627
 6036TIP3    H118114   0.641   4.046   0.318 -1.5960  2.1136 -0.6455
 6036TIP3    H218115   0.727   4.101   0.430 -0.2334  1.1109 -1.1744
 6037TIP3   OH218116   1.528   3.174   3.620 -0.0715  0.1568  0.0509
 6037TIP3    H118117   1.555   3.185   3.529 -1.1145 -2.0602 -0.6003
 6037TIP3    H218118   1.433   3.179   3.618 -0.1399 -0.4672  0.9195
 6038TIP3   OH218119   2.999   2.492   0.209 -0.5763 -0.2855 -0.0034
 6038TIP3    H118120   2.969   2.574   0.249 -0.2829 -0.4397  0.5524
 6038TIP3    H218121   3.066   2.519   0.146  0.8043 -0.1918  1.4276
 6039TIP3   OH218122   0.322   0.249   5.035  0.3933 -0.0228 -0.4538
 6039TIP3    H118123   0.315   0.259   5.130  0.8584  0.0750 -0.4276
 6039TIP3    H218124   0.343   0.156   5.022  1.1780  0.1387 -0.4071
 6040TIP3   OH218125   5.369   2.916   1.608  0.5435 -0.2258 -0.1153
 6040TIP3    H118126   5.279   2.887   1.625 -0.0401  0.6136 -1.6046
 6040TIP3    H218127   5.367   3.010   1.624  0.6301  0.1367 -2.0114
 6041TIP3   OH218128   1.329   3.869   3.996 -0.9720 -0.0838  0.4894
 6041TIP3    H118129   1.373   3.909   4.071 -1.6556 -0.8314  1.3191
 6041TIP3    H218130   1.354   3.923   3.922 -1.1223  1.3247  1.4216
 6042TIP3   OH218131   4.573   4.582   0.307  0.3235 -0.0145 -0.5750
 6042TIP3    H118132   4.491   4.609   0.265  0.3809  3.0869  1.0084
 6042TIP3    H218133   4.576   4.632   0.388  3.0733 -1.2208  0.1861
 6043TIP3   OH218134   5.310   0.083   3.680 -0.4216  0.0409  0.5288
 6043TIP3    H118135   5.329   0.067   3.772  1.5381  1.1906  0.3854
 6043TIP3    H218136   5.380   0.038   3.632 -2.6569 -2.4865 -0.5976
 6044TIP3   OH218137   3.019   2.677   2.602  0.1606  0.1170  0.3527
 6044TIP3    H118138   3.092   2.678   2.540  0.1199 -0.6942  0.2730
 6044TIP3    H218139   3.041   2.608   2.665 -0.2461  0.2811  0.6829
 6045TIP3   OH218140   1.932   3.648   4.607 -0.6437 -0.0575  0.1524
 6045TIP3    H118141   1.932   3.732   4.653  0.1054 -0.0333  0.1167
 6045TIP3    H218142   1.971   3.667   4.521  0.5407 -0.6399  0.5404
 6046TIP3   OH218143   0.290   0.632   0.257  0.3447 -0.0337  0.1693
 6046TIP3    H118144   0.241   0.577   0.196  0.1886 -1.3209  1.4044
 6046TIP3    H218145   0.223   0.686   0.299 -0.2803 -2.3904  2.4813
 6047TIP3   OH218146   1.264   4.074   2.387 -0.1464  0.4321  0.0426
 6047TIP3    H118147   1.353   4.093   2.416  1.5611 -4.9808 -0.5392
 6047TIP3    H218148   1.264   4.092   2.293 -0.0096  1.3148  0.2074
 6048TIP3   OH218149   4.672   5.563   0.238  0.6817  0.3142 -0.1287
 6048TIP3    H118150   4.625   5.531   0.161  2.2643  0.7179 -1.3161
 6048TIP3    H218151   4.706   5.484   0.280  0.0520  0.1102  0.0083
 6049TIP3   OH218152   0.042   3.207   4.501 -0.4239 -0.1431  0.1244
 6049TIP3    H118153   0.083   3.288   4.471 -0.6107 -0.1123 -0.0471
 6049TIP3    H218154   0.115   3.155   4.535 -0.0310 -0.6747 -1.4573
 6050TIP3   OH218155   0.173   2.741   1.567  0.6123 -0.3222  0.3004
 6050TIP3    H118156   0.254   2.792   1.566 -0.0646  0.8494  1.8681
 6050TIP3    H218157   0.103   2.806   1.574 -0.3429 -1.4032  1.2400
 6051TIP3   OH218158   4.781   0.975   3.080  0.0778  0.2702 -0.1239
 6051TIP3    H118159   4.750   0.915   3.147 -1.3688  0.8432 -0.2226
 6051TIP3    H218160   4.835   0.921   3.022 -0.8681 -0.8677  0.0009
 6052TIP3   OH218161   2.044   3.605   2.780  0.0543  0.2515 -0.0373
 6052TIP3    H118162   1.968   3.657   2.754 -0.9597 -0.7993  0.7651
 6052TIP3    H218163   2.100   3.605   2.702 -0.9900  0.6191 -0.8127
 6053TIP3   OH218164   1.783   4.871   4.799  0.2517 -0.2157 -0.0477
 6053TIP3    H118165   1.704   4.832   4.837 -0.8102 -0.4883 -2.3820
 6053TIP3    H218166   1.786   4.960   4.834 -1.3089 -0.0791 -0.2304
 6054TIP3   OH218167   2.638   2.830   1.550 -0.1211 -0.3831  0.1113
 6054TIP3    H118168   2.630   2.743   1.589  0.1190 -0.5659 -0.2527
 6054TIP3    H218169   2.673   2.815   1.463 -1.8951 -0.0764 -0.6850
 6055TIP3   OH218170   0.849   1.975   1.337  0.2945 -0.4526  0.4083
 6055TIP3    H118171   0.865   2.027   1.259 -2.0557  0.0706  0.1915
 6055TIP3    H218172   0.834   1.886   1.305 -2.6657  0.1207 -0.0618
 6056TIP3   OH218173   6.175   1.397   1.906 -0.0734  0.1517  0.5778
 6056TIP3    H118174   6.269   1.391   1.888 -0.1022 -1.2770  0.8161
 6056TIP3    H218175   6.142   1.308   1.895 -1.8950  1.0336 -2.0419
 6057TIP3   OH218176   4.062   5.772   1.051 -0.0193 -0.0973  0.1859
 6057TIP3    H118177   4.010   5.800   0.976 -0.7898  1.9083  1.3825
 6057TIP3    H218178   4.087   5.682   1.031 -1.7083 -0.2227 -1.6307
 6058TIP3   OH218179   1.597   2.991   0.799 -0.2394 -0.0064 -0.2943
 6058TIP3    H118180   1.556   3.077   0.794 -1.8283 -0.7909 -2.6755
 6058TIP3    H218181   1.666   2.994   0.732  1.8142  0.3401  1.7045
 6059TIP3   OH218182   1.577   3.049   2.995 -0.3483  0.1079 -0.1309
 6059TIP3    H118183   1.650   3.111   3.002 -0.7135  0.5753 -0.3796
 6059TIP3    H218184   1.569   3.032   2.901  0.7267 -1.5176  0.0342
 6060TIP3   OH218185   3.824   0.342   3.795 -0.2829  0.4222  0.2855
 6060TIP3    H118186   3.777   0.309   3.718 -0.1175  0.7986  0.0209
 6060TIP3    H218187   3.887   0.273   3.816 -0.5292  0.1895  0.2650
 6061TIP3   OH218188   2.316   1.770   0.636  0.1732  0.1561  0.2670
 6061TIP3    H118189   2.396   1.821   0.628  0.1128  0.3220  0.6878
 6061TIP3    H218190   2.246   1.828   0.606  0.2962 -0.2529 -0.8359
 6062TIP3   OH218191   2.014   2.303   0.229 -0.3765  0.5265  0.1028
 6062TIP3    H118192   2.082   2.346   0.282  0.0749  0.6097 -0.5259
 6062TIP3    H218193   1.994   2.366   0.161 -0.9329  0.4068  0.1550
 6063TIP3   OH218194   5.799   4.320   4.804  0.2058 -0.1665 -0.2452
 6063TIP3    H118195   5.748   4.373   4.742 -1.1393 -0.4987  0.5476
 6063TIP3    H218196   5.735   4.259   4.842  1.1236 -0.3500  1.0601
 6064TIP3   OH218197   0.787   4.505   2.215  0.3038 -0.4571 -0.2245
 6064TIP3    H118198   0.847   4.433   2.230 -0.3041 -1.2398 -1.3969
 6064TIP3    H218199   0.741   4.482   2.134 -1.1374  0.4013  0.3116
 6065TIP3   OH218200   6.001   4.683   4.740 -0.0221  0.3214 -0.1341
 6065TIP3    H118201   6.020   4.595   4.773  0.0022 -0.3093 -1.7156
 6065TIP3    H218202   5.907   4.694   4.751  0.0444  0.2742  0.4813
 6066TIP3   OH218203   4.679   2.424   0.725  0.3532 -0.3373 -0.0088
 6066TIP3    H118204   4.646   2.366   0.793 -0.1444 -1.8326 -1.4571
 6066TIP3    H218205   4.639   2.509   0.744  0.5466 -0.6039  1.7554
 6067TIP3   OH218206   3.358   4.197   4.233 -0.2784 -0.2546  0.6220
 6067TIP3    H118207   3.294   4.127   4.224  1.7884 -2.0729 -0.6531
 6067TIP3    H218208   3.329   4.264   4.171 -1.9118 -0.1884  1.3918
 6068TIP3   OH218209   0.172   0.190   0.907 -0.0812 -0.4334 -0.1067
 6068TIP3    H118210   0.176   0.228   0.995  1.7112  0.6211 -0.6068
 6068TIP3    H218211   0.079   0.171   0.894 -0.3074 -1.4006  2.3107
 6069TIP3   OH218212   5.256   4.355   0.464 -0.1389  0.2097 -0.3999
 6069TIP3    H118213   5.329   4.376   0.405 -0.3922  0.4642 -0.6254
 6069TIP3    H218214   5.245   4.434   0.517 -0.2426  0.1681 -0.3592
 6070TIP3   OH218215   2.982   0.198   0.091 -0.0610 -0.6927  0.4711
 6070TIP3    H118216   2.980   0.124   0.152  2.6594 -0.6446  0.7056
 6070TIP3    H218217   3.003   0.273   0.145  0.1577 -0.2556 -0.2107
 6071TIP3   OH218218   1.056   0.318   2.225 -0.1303  0.3216 -0.2230
 6071TIP3    H118219   1.020   0.387   2.280 -0.0003 -0.6849  1.1807
 6071TIP3    H218220   0.981   0.261   2.207  0.0732  0.0032 -0.0738
 6072TIP3   OH218221   4.346   2.462   1.151  0.0001 -0.1440 -0.4068
 6072TIP3    H118222   4.296   2.395   1.103 -1.3340  1.7611 -1.8507
 6072TIP3    H218223   4.280   2.506   1.205  1.0563 -0.6370  1.3494
 6073TIP3   OH218224   4.293   5.426   1.125 -0.5850  0.0708 -0.3115
 6073TIP3    H118225   4.268   5.376   1.203 -0.5031  0.0422 -0.3030
 6073TIP3    H218226   4.388   5.436   1.133 -0.2705 -1.6195 -1.3907
 6074TIP3   OH218227   1.612   3.629   1.319  0.0014  0.4344  0.0485
 6074TIP3    H118228   1.588   3.720   1.332 -1.1300  0.2565 -0.6834
 6074TIP3    H218229   1.707   3.628   1.327  0.0139  1.6419  0.2299
 6075TIP3   OH218230   5.686   4.417   5.067 -0.2894 -0.0242  0.2153
 6075TIP3    H118231   5.614   4.478   5.050  1.4928  1.6354 -1.9888
 6075TIP3    H218232   5.682   4.354   4.994  0.4213  0.0618  0.0900
 6076TIP3   OH218233   2.269   1.101   4.229  0.3169 -0.0867 -0.2438
 6076TIP3    H118234   2.364   1.104   4.237  0.2112 -0.0149  1.3698
 6076TIP3    H218235   2.237   1.163   4.294 -0.8847 -3.3968  2.6454
 6077TIP3   OH218236   1.096   2.362   1.791  0.5474  0.3843 -0.0732
 6077TIP3    H118237   1.104   2.267   1.788  2.1757  0.5200 -1.3872
 6077TIP3    H218238   1.186   2.395   1.789  0.0580  1.9693  1.2045
 6078TIP3   OH218239   5.583   5.579   0.659  0.1883  0.2432 -0.8458
 6078TIP3    H118240   5.631   5.661   0.655 -1.5220  1.4356  1.1466
 6078TIP3    H218241   5.560   5.559   0.568  2.6335  0.6652 -1.6154
 6079TIP3   OH218242   6.151   5.637   3.053  0.4424  0.5061 -0.2928
 6079TIP3    H118243   6.196   5.644   3.138 -0.7892 -1.0321  0.5465
 6079TIP3    H218244   6.072   5.690   3.064  0.6554  0.9208 -0.7566
 6080TIP3   OH218245   4.433   4.588   3.101  0.5976  0.3114  0.0226
 6080TIP3    H118246   4.503   4.527   3.077  2.4034  2.1682  0.2753
 6080TIP3    H218247   4.409   4.630   3.018 -1.4813 -1.4502 -0.3666
 6081TIP3   OH218248   0.211   3.495   1.456 -0.1068 -0.2318 -0.5289
 6081TIP3    H118249   0.290   3.451   1.490  0.0893 -0.0551 -0.7537
 6081TIP3    H218250   0.213   3.581   1.497 -0.1368 -0.1951 -0.6061
 6082TIP3   OH218251   3.662   5.401   4.172  0.4582  0.1652 -0.3296
 6082TIP3    H118252   3.640   5.323   4.121 -1.8347 -0.2296  1.1228
 6082TIP3    H218253   3.747   5.382   4.210  0.5868 -1.0110 -1.1595
 6083TIP3   OH218254   0.961   1.205   1.195  0.0490  0.4241 -0.1425
 6083TIP3    H118255   0.952   1.237   1.105  1.4896  1.6669  0.1157
 6083TIP3    H218256   0.960   1.109   1.186 -2.4123  0.4749 -1.1533
 6084TIP3   OH218257   4.872   0.138   3.555  0.0757  0.2209  0.4208
 6084TIP3    H118258   4.836   0.224   3.579 -0.7650 -0.1840  0.6407
 6084TIP3    H218259   4.966   0.154   3.545 -0.1822  1.3553 -0.4060
 6085TIP3   OH218260   5.050   0.177   1.283  0.4786 -0.3664 -0.3025
 6085TIP3    H118261   5.076   0.136   1.200  1.1146  1.2320 -0.9426
 6085TIP3    H218262   4.965   0.216   1.265  1.2389  1.2159 -0.7089
 6086TIP3   OH218263   0.814   4.612   1.142 -0.3139  0.1423  0.3872
 6086TIP3    H118264   0.759   4.608   1.064  0.8716 -0.8076 -0.4219
 6086TIP3    H218265   0.872   4.687   1.128 -1.1472  0.9528  1.1023
 6087TIP3   OH218266   4.332   0.177   0.713 -0.0749 -0.2064  0.3655
 6087TIP3    H118267   4.415   0.143   0.679  0.1603  1.8030 -1.2197
 6087TIP3    H218268   4.290   0.217   0.638 -0.8662  1.9267  1.8600
 6088TIP3   OH218269   5.247   2.534   1.873  0.4022  0.2569  0.5702
 6088TIP3    H118270   5.162   2.534   1.829  0.4003  1.6112  0.5124
 6088TIP3    H218271   5.272   2.442   1.877 -0.2460 -0.0343 -1.0057
 6089TIP3   OH218272   2.823   2.873   0.035  0.4193 -0.3420 -0.3013
 6089TIP3    H118273   2.804   2.889  -0.057  1.1440  0.1441 -0.3772
 6089TIP3    H218274   2.876   2.793   0.035 -0.7194 -1.1176 -0.1777
 6090TIP3   OH218275   4.997   5.715   0.814 -0.4847  0.8486 -0.2914
 6090TIP3    H118276   5.028   5.743   0.729  0.4101  1.6231  0.2729
 6090TIP3    H218277   4.906   5.690   0.800  0.8119 -3.7321 -2.5292
 6091TIP3   OH218278   1.442   5.166   3.823 -0.2495  0.3214  0.7295
 6091TIP3    H118279   1.472   5.172   3.732 -2.4155  3.9338  0.0397
 6091TIP3    H218280   1.397   5.082   3.828 -1.6777  0.7998 -2.1480
 6092TIP3   OH218281   1.288   4.495   4.646 -0.3627  0.2681  0.2092
 6092TIP3    H118282   1.213   4.488   4.587  0.0475  2.0365 -0.5837
 6092TIP3    H218283   1.328   4.408   4.644 -1.5630 -0.2923 -0.4848
 6093TIP3   OH218284   0.275   1.194   3.144  0.7214 -0.2466 -0.1450
 6093TIP3    H118285   0.234   1.223   3.225  3.0723  0.2172  0.9516
 6093TIP3    H218286   0.213   1.221   3.075 -0.9406  0.0667  1.3968
 6094TIP3   OH218287   2.314   5.667   2.162 -0.2389  0.3924  0.4263
 6094TIP3    H118288   2.407   5.647   2.173 -0.3504  0.1623  0.9963
 6094TIP3    H218289   2.294   5.643   2.072  0.0436 -0.4197  0.5758
 6095TIP3   OH218290   2.599   0.213   4.519 -0.1477 -0.0126  1.1115
 6095TIP3    H118291   2.661   0.269   4.472 -1.2306  1.8396  1.7767
 6095TIP3    H218292   2.565   0.154   4.453 -0.2008  1.2511 -0.0312
 6096TIP3   OH218293   6.272   0.236   3.298  0.0388 -0.1995 -0.2177
 6096TIP3    H118294   6.294   0.271   3.385  0.3478 -1.2078  0.1278
 6096TIP3    H218295   6.305   0.301   3.237 -3.2187  2.2995  0.4053
 6097TIP3   OH218296   0.290   4.742   4.417  0.4207  0.1680 -0.1367
 6097TIP3    H118297   0.346   4.697   4.354 -0.8324  0.1308 -1.2766
 6097TIP3    H218298   0.250   4.813   4.367  0.5498  1.0760  1.0185
 6098TIP3   OH218299   1.713   0.452   3.374  0.0030  0.5983  0.1209
 6098TIP3    H118300   1.739   0.494   3.456 -1.2700  0.3602  0.6645
 6098TIP3    H218301   1.763   0.498   3.306  3.8639 -1.4852  1.2560
 6099TIP3   OH218302   3.999   2.287   0.082  0.6652  0.1557 -0.0916
 6099TIP3    H118303   3.954   2.213   0.122 -0.8334  0.8688 -0.4117
 6099TIP3    H218304   4.092   2.262   0.084  0.1442 -2.0693 -0.8964
 6100TIP3   OH218305   0.150   4.261   4.485 -0.1923 -0.2073  0.2676
 6100TIP3    H118306   0.100   4.231   4.410 -1.1556 -0.2751  0.9108
 6100TIP3    H218307   0.233   4.215   4.479 -0.4491 -0.5888 -0.4819
 6101TIP3   OH218308   5.126   5.455   2.450  0.5734  0.3177 -0.1607
 6101TIP3    H118309   5.111   5.461   2.356 -0.8409 -1.0103 -0.0576
 6101TIP3    H218310   5.057   5.509   2.489  0.3075 -0.2368  0.1461
 6102TIP3   OH218311   0.183   5.559   1.388 -0.2666 -0.3147 -0.5577
 6102TIP3    H118312   0.145   5.473   1.407 -0.9227 -0.1536 -1.1150
 6102TIP3    H218313   0.231   5.546   1.307  0.7940 -0.4840  0.0720
 6103TIP3   OH218314   0.927   1.772   3.834 -0.0633  0.6636  0.0911
 6103TIP3    H118315   0.898   1.783   3.743  1.0289 -0.3752 -0.4169
 6103TIP3    H218316   0.953   1.860   3.861  0.9046  0.7774 -1.0979
 6104TIP3   OH218317   4.496   5.446   1.462 -0.2414 -0.0872  0.5414
 6104TIP3    H118318   4.468   5.375   1.520 -0.6262 -0.5270 -0.1715
 6104TIP3    H218319   4.442   5.521   1.488 -0.3834 -0.2669  0.7697
 6105TIP3   OH218320   3.923   3.545   4.371 -0.0868 -0.4294  0.5563
 6105TIP3    H118321   3.967   3.582   4.447 -2.2123  0.8717  1.2593
 6105TIP3    H218322   3.837   3.518   4.404 -0.0680 -2.3788 -0.8318
 6106TIP3   OH218323   6.124   2.376   4.910 -0.4180  0.6049  0.1378
 6106TIP3    H118324   6.120   2.297   4.964 -0.4371  0.6622  0.2198
 6106TIP3    H218325   6.034   2.389   4.881 -0.5993  1.1520  0.9189
 6107TIP3   OH218326   3.504   4.997   0.487  0.2617  0.0986  0.8258
 6107TIP3    H118327   3.539   4.908   0.481 -1.0136 -0.3714  0.0241
 6107TIP3    H218328   3.580   5.050   0.511  1.2092 -1.0834  0.5877
 6108TIP3   OH218329   1.113   3.959   2.617 -0.3427 -0.4497 -0.1118
 6108TIP3    H118330   1.180   3.983   2.553  0.8070  0.4244  1.3395
 6108TIP3    H218331   1.036   3.938   2.565  1.2030 -2.0819 -1.8878
 6109TIP3   OH218332   3.047   3.765   4.123  0.5239 -0.3405 -0.4241
 6109TIP3    H118333   3.125   3.819   4.133 -0.2678  0.9772 -1.1294
 6109TIP3    H218334   2.994   3.785   4.200  0.1726 -0.0167 -0.7485
 6110TIP3   OH218335   3.120   5.119   2.985 -0.0687  0.0802  0.4185
 6110TIP3    H118336   3.053   5.186   3.000 -0.1560  0.0580  0.1184
 6110TIP3    H218337   3.203   5.165   2.998  0.0722  1.2678 -3.4962
 6111TIP3   OH218338   3.325   2.421   1.116 -0.2947 -0.3487  0.5489
 6111TIP3    H118339   3.274   2.497   1.088 -0.1122 -0.6904 -0.7880
 6111TIP3    H218340   3.363   2.386   1.035  0.7913 -1.0239  1.3198
 6112TIP3   OH218341   6.164   5.874   1.982  0.1950  0.3115 -0.0116
 6112TIP3    H118342   6.180   5.781   1.994  0.1241  0.2807 -0.1463
 6112TIP3    H218343   6.141   5.882   1.889  0.5125  0.5081 -0.0741
 6113TIP3   OH218344   2.730   2.915   1.245 -0.4987  0.3821 -0.1906
 6113TIP3    H118345   2.686   2.986   1.291 -0.5690  0.4966 -0.4348
 6113TIP3    H218346   2.676   2.899   1.168 -0.0993  0.5463 -0.5075
 6114TIP3   OH218347   5.569   1.006   4.560 -0.3554 -0.1493 -0.3823
 6114TIP3    H118348   5.511   1.081   4.570  1.5455  1.1135  2.0402
 6114TIP3    H218349   5.534   0.940   4.620 -1.2987 -0.8197 -1.6032
 6115TIP3   OH218350   3.220   5.818   1.282  0.7624  0.4861  0.3710
 6115TIP3    H118351   3.314   5.826   1.272  0.8450  0.7922  1.2732
 6115TIP3    H218352   3.197   5.736   1.237  1.1366  1.4381 -1.6564
 6116TIP3   OH218353   3.033   0.152   4.276  0.0228 -0.5477  0.5922
 6116TIP3    H118354   3.058   0.111   4.359  0.2424 -0.4903  0.5537
 6116TIP3    H218355   3.116   0.168   4.230 -0.1359 -1.3362  0.0049
 6117TIP3   OH218356   1.389   2.612   2.390 -0.5457 -0.2796  0.4652
 6117TIP3    H118357   1.306   2.571   2.413 -0.4197 -0.0021  1.4680
 6117TIP3    H218358   1.417   2.656   2.470 -0.6482  1.7177 -0.5087
 6118TIP3   OH218359   1.245   0.777   2.745 -0.3360  0.3290 -0.1790
 6118TIP3    H118360   1.326   0.771   2.795  0.5382  0.3554 -1.5411
 6118TIP3    H218361   1.251   0.861   2.700 -1.1495  0.3490 -0.2703
 6119TIP3   OH218362   1.568   4.556   5.156 -0.4100 -0.3453 -0.0830
 6119TIP3    H118363   1.631   4.627   5.150 -0.1338 -0.6384 -0.6849
 6119TIP3    H218364   1.484   4.596   5.133 -0.8612  0.5403  2.7034
 6120TIP3   OH218365   5.345   2.824   0.615 -0.0195 -0.6443  0.0102
 6120TIP3    H118366   5.324   2.760   0.547  1.5048  0.2923 -1.4174
 6120TIP3    H218367   5.289   2.899   0.595 -0.9472 -1.0571  0.9711
 6121TIP3   OH218368   2.352   0.249   2.152  0.0786 -0.1918 -0.7539
 6121TIP3    H118369   2.416   0.181   2.134  1.6123  1.0103 -0.0491
 6121TIP3    H218370   2.295   0.211   2.219  0.4897 -1.0185 -0.8603
 6122TIP3   OH218371   1.034   1.372   2.081  0.5833 -0.2812 -0.4892
 6122TIP3    H118372   1.080   1.407   2.157  1.3005  0.4518 -1.2447
 6122TIP3    H218373   0.977   1.304   2.117  0.6219  0.3122  0.7469
 6123TIP3   OH218374   2.549   1.710   1.465  0.5880 -0.7681 -0.2269
 6123TIP3    H118375   2.561   1.681   1.375  2.0769  0.2778 -0.4016
 6123TIP3    H218376   2.598   1.792   1.471 -0.5233 -0.1636  1.2055
 6124TIP3   OH218377   4.236   0.379   0.514 -0.3101 -0.4791 -0.1270
 6124TIP3    H118378   4.277   0.344   0.434 -1.6217  0.6690 -1.3405
 6124TIP3    H218379   4.153   0.415   0.485 -1.2764 -0.8875  1.9454
 6125TIP3   OH218380   0.674   1.676   2.023  0.1669  0.7655 -0.3652
 6125TIP3    H118381   0.769   1.665   2.018  0.0531 -2.0420  1.2372
 6125TIP3    H218382   0.662   1.760   2.067  1.7770  2.2225 -2.4865
 6126TIP3   OH218383   0.647   0.824   0.390  0.5337 -0.2030  0.5766
 6126TIP3    H118384   0.678   0.808   0.480 -1.2716 -0.8347  1.1236
 6126TIP3    H218385   0.605   0.742   0.365 -0.1246  0.4138 -0.3580
 6127TIP3   OH218386   0.055   4.295   4.036 -0.0943  0.0720  0.4375
 6127TIP3    H118387   0.010   4.227   4.086  0.9035 -1.1722 -0.2961
 6127TIP3    H218388  -0.003   4.313   3.963 -0.3723  0.0276  0.6445
 6128TIP3   OH218389   4.025   2.920   1.986 -0.6019  0.2001  0.4047
 6128TIP3    H118390   3.966   2.898   1.914  1.0381 -0.9398 -0.6564
 6128TIP3    H218391   4.058   2.836   2.017 -1.2438  0.6593  2.5281
 6129TIP3   OH218392   2.609   5.970   0.216 -0.1408 -0.4818  0.3996
 6129TIP3    H118393   2.518   5.971   0.244  0.0320  0.3318  0.9716
 6129TIP3    H218394   2.606   5.991   0.123 -0.4727  0.6351  0.6534
 6130TIP3   OH218395   0.847   2.296   1.937 -0.3454  0.8141 -0.1460
 6130TIP3    H118396   0.901   2.361   1.893 -2.3620  1.0756 -2.4803
 6130TIP3    H218397   0.823   2.234   1.868 -3.7212  1.2644  0.4263
 6131TIP3   OH218398   2.225   1.295   4.981  0.3562  0.3527  0.0864
 6131TIP3    H118399   2.258   1.265   5.065  0.5484 -0.3555 -0.2344
 6131TIP3    H218400   2.251   1.226   4.919 -2.0654 -0.4481 -0.1235
 6132TIP3   OH218401   3.878   4.023   1.475  0.2179 -0.1295  0.5924
 6132TIP3    H118402   3.921   4.009   1.559  0.6993 -4.0627 -0.1431
 6132TIP3    H218403   3.947   4.056   1.418  0.5114  0.1316  1.0952
 6133TIP3   OH218404   4.409   2.834   4.378 -0.4105  0.1306  0.1162
 6133TIP3    H118405   4.454   2.754   4.404  0.3189  0.5767  0.2563
 6133TIP3    H218406   4.332   2.804   4.330 -0.7193 -0.6702  1.0735
 6134TIP3   OH218407   2.673   5.192   0.000 -0.1489  0.7295 -1.3959
 6134TIP3    H118408   2.588   5.236  -0.006 -0.0468  0.7897 -2.4629
 6134TIP3    H218409   2.735   5.262   0.022 -0.6372  0.3776  1.6084
 6135TIP3   OH218410   3.140   2.973   3.450 -0.1603 -0.0836 -0.3659
 6135TIP3    H118411   3.193   3.005   3.378 -0.0137  4.1509  1.3437
 6135TIP3    H218412   3.203   2.954   3.520 -0.5474  2.1154  0.6778
 6136TIP3   OH218413   4.471   5.737   0.491 -0.3997 -0.0019  0.1272
 6136TIP3    H118414   4.398   5.718   0.432  0.2968  1.5807 -1.3624
 6136TIP3    H218415   4.454   5.685   0.569 -2.9017  0.0164 -0.3286
 6137TIP3   OH218416   1.069   1.589   0.710 -0.1957  0.5508  0.1640
 6137TIP3    H118417   1.083   1.668   0.658  2.2054 -0.2636 -0.5466
 6137TIP3    H218418   1.107   1.609   0.795 -0.2759  0.4160  0.2318
 6138TIP3   OH218419   4.925   3.174   3.704  0.3864 -0.0519  0.0331
 6138TIP3    H118420   5.009   3.150   3.664 -0.3272 -0.6418 -1.1529
 6138TIP3    H218421   4.897   3.251   3.656 -0.7078 -1.0463 -0.9820
 6139TIP3   OH218422   2.029   3.214   0.106  0.7594 -0.1807 -0.4470
 6139TIP3    H118423   1.989   3.137   0.147  1.0079 -0.0520  0.0463
 6139TIP3    H218424   2.081   3.178   0.034  0.9946 -0.4959 -0.1267
 6140TIP3   OH218425   4.572   1.330   3.720  0.1370  0.3510 -0.3824
 6140TIP3    H118426   4.590   1.304   3.810  1.7716  2.1395 -0.1138
 6140TIP3    H218427   4.575   1.249   3.670 -1.8907 -0.8494  1.2753
 6141TIP3   OH218428   4.610   1.976   1.946 -1.0402 -0.0524 -0.4853
 6141TIP3    H118429   4.627   2.035   1.872 -0.7424  0.3074 -0.1324
 6141TIP3    H218430   4.515   1.968   1.949 -1.0358 -0.4059 -1.1695
 6142TIP3   OH218431   0.699   2.470   1.105 -0.4528 -0.3313  0.7111
 6142TIP3    H118432   0.703   2.514   1.190 -0.3626  0.7083  0.1778
 6142TIP3    H218433   0.786   2.430   1.096 -0.1567  0.2823  0.7401
 6143TIP3   OH218434   5.065   0.448   0.405  0.0795  0.2864 -0.2317
 6143TIP3    H118435   5.142   0.391   0.406  0.9573  1.4356  0.0886
 6143TIP3    H218436   5.101   0.536   0.394 -1.0611  1.0262  1.5109
 6144TIP3   OH218437   3.848   1.153   3.873 -0.4256  0.2926  0.7245
 6144TIP3    H118438   3.854   1.137   3.968  0.6606 -3.1831  0.2315
 6144TIP3    H218439   3.774   1.099   3.845  1.1816 -1.2730 -0.7542
 6145TIP3   OH218440   3.222   5.825   2.999  0.1127  0.3624 -0.6091
 6145TIP3    H118441   3.179   5.778   3.071  0.0101  1.0222 -0.2348
 6145TIP3    H218442   3.276   5.758   2.956 -1.5345 -0.5828 -1.3209
 6146TIP3   OH218443   3.117   2.485   2.022  0.2041 -0.2559  0.4135
 6146TIP3    H118444   3.093   2.478   2.115 -0.7470  0.5300  0.2442
 6146TIP3    H218445   3.172   2.564   2.018  0.4362 -0.4195  0.3362
 6147TIP3   OH218446   5.188   0.620   4.079 -0.2079  1.1522  0.1120
 6147TIP3    H118447   5.265   0.667   4.047  1.6639  0.0621  2.6110
 6147TIP3    H218448   5.141   0.685   4.131  0.2783  1.2549  0.4330
 6148TIP3   OH218449   5.260   2.415   1.382 -0.7748 -0.5176 -0.1150
 6148TIP3    H118450   5.275   2.469   1.460 -0.7809  0.2213 -0.6083
 6148TIP3    H218451   5.331   2.440   1.322 -2.4812  1.2761 -1.5630
 6149TIP3   OH218452   1.197   5.458   2.156  0.3783  0.5375  0.3187
 6149TIP3    H118453   1.231   5.384   2.206 -2.0769 -0.2370  0.9469
 6149TIP3    H218454   1.273   5.490   2.107  2.3517 -0.1618  2.6977
 6150TIP3   OH218455   4.199   4.501   3.871 -0.0361  0.1572 -0.0386
 6150TIP3    H118456   4.116   4.493   3.824 -0.5250  0.3504  0.7602
 6150TIP3    H218457   4.264   4.462   3.813 -0.2213  2.3367 -1.8315
 6151TIP3   OH218458   1.439   4.492   0.827  0.4842  0.2489 -0.0577
 6151TIP3    H118459   1.523   4.462   0.862  0.3872  0.8767  0.7652
 6151TIP3    H218460   1.462   4.566   0.771  0.4604  0.7217  0.5374
 6152TIP3   OH218461   5.889   3.069   2.300 -0.3295  0.2046 -0.1899
 6152TIP3    H118462   5.938   3.145   2.271 -1.5249  0.9130 -0.4180
 6152TIP3    H218463   5.832   3.102   2.370  0.4545 -0.8727  1.0150
 6153TIP3   OH218464   5.413   1.896   4.560  0.2247 -0.2059  0.1914
 6153TIP3    H118465   5.369   1.938   4.487  0.4196  0.2254  0.3170
 6153TIP3    H218466   5.456   1.819   4.522 -0.7165 -0.6960  0.0897
 6154TIP3   OH218467   5.177   2.565   4.985 -0.3976  0.3534  0.2234
 6154TIP3    H118468   5.217   2.649   4.960  0.8337  0.1497  1.3835
 6154TIP3    H218469   5.142   2.580   5.072 -0.1577 -0.3435  0.4461
 6155TIP3   OH218470   5.511   4.708   0.418 -0.0075  0.7145  0.1298
 6155TIP3    H118471   5.571   4.781   0.406  2.5866 -1.3213 -0.3358
 6155TIP3    H218472   5.511   4.691   0.512  0.6984  0.3568  0.0765
 6156TIP3   OH218473   3.354   1.081   1.606  0.2741 -0.3236 -0.4160
 6156TIP3    H118474   3.389   1.083   1.695 -1.1756  0.7666  0.1553
 6156TIP3    H218475   3.387   1.162   1.566 -0.5246  0.0724 -0.2839
 6157TIP3   OH218476   1.264   3.091   3.609 -0.7451 -0.1393  0.4805
 6157TIP3    H118477   1.200   3.162   3.608 -0.5083  0.0687 -0.0475
 6157TIP3    H218478   1.227   3.025   3.551 -1.1934 -0.6582  1.3370
 6158TIP3   OH218479   2.897   5.514   3.682  0.0425  0.5000  0.0476
 6158TIP3    H118480   2.916   5.606   3.662 -1.9511  1.1644  0.9044
 6158TIP3    H218481   2.951   5.494   3.758  0.5172  0.9639 -0.1646
 6159TIP3   OH218482   4.411   0.777   1.480 -0.6705  0.3728 -0.5606
 6159TIP3    H118483   4.439   0.704   1.424 -0.5585 -1.0909  1.2913
 6159TIP3    H218484   4.445   0.754   1.566 -1.7269  2.0188  0.3271
 6160TIP3   OH218485   4.488   4.681   4.649  0.3398  0.2294  0.5295
 6160TIP3    H118486   4.556   4.732   4.604  1.2114 -0.5008  0.9756
 6160TIP3    H218487   4.480   4.601   4.597 -0.0115  0.2079  0.6151
 6161TIP3   OH218488   3.646   4.885   1.844 -0.3235  0.1427  0.0027
 6161TIP3    H118489   3.679   4.796   1.860  0.7906  0.0744 -2.1867
 6161TIP3    H218490   3.557   4.871   1.811 -0.4591 -0.0898  0.4515
 6162TIP3   OH218491   2.545   0.086   2.395  0.3002  0.3313 -0.3646
 6162TIP3    H118492   2.560   0.113   2.304 -1.1645 -0.0544 -0.7471
 6162TIP3    H218493   2.575   0.160   2.447  0.5623  0.8220 -1.1913
 6163TIP3   OH218494   6.151   4.654   1.121 -0.1015  0.5281 -0.0152
 6163TIP3    H118495   6.117   4.646   1.032 -0.3703  1.4902 -0.0164
 6163TIP3    H218496   6.180   4.745   1.127  0.1078  0.4143  0.8144
 6164TIP3   OH218497   1.779   0.278   3.636  0.4438 -0.1249  0.2706
 6164TIP3    H118498   1.701   0.321   3.671  0.4324 -0.6092  0.8616
 6164TIP3    H218499   1.850   0.341   3.649  0.1621  0.3006 -0.2293
 6165TIP3   OH218500   3.949   0.578   3.729  0.6748 -0.6890 -0.4608
 6165TIP3    H118501   3.915   0.495   3.763  1.4670 -0.5971  0.5940
 6165TIP3    H218502   3.908   0.645   3.784  2.0184 -0.5389  0.3885
 6166TIP3   OH218503   2.006   5.271   0.926  0.2391  0.3857 -0.0197
 6166TIP3    H118504   2.033   5.295   0.837 -0.9244 -2.0939 -1.1331
 6166TIP3    H218505   1.926   5.321   0.941 -0.4308 -0.3546 -1.0226
 6167TIP3   OH218506   0.649   4.073   2.219  0.0931  0.6299  0.8063
 6167TIP3    H118507   0.555   4.085   2.229  0.0293  0.7937  0.0417
 6167TIP3    H218508   0.662   3.978   2.221 -0.6423  0.2685 -3.4805
 6168TIP3   OH218509   1.048  -0.003   4.414  0.3837  0.0402 -0.8903
 6168TIP3    H118510   1.004  -0.060   4.351 -0.9593  1.6569 -1.4973
 6168TIP3    H218511   1.048   0.083   4.372 -0.4107  1.1434  1.2328
 6169TIP3   OH218512   0.622   2.556   2.709  0.1889 -0.7489  0.0506
 6169TIP3    H118513   0.534   2.568   2.672 -0.1844 -1.8634  0.5236
 6169TIP3    H218514   0.675   2.527   2.635  0.2691  0.3400 -0.3290
 6170TIP3   OH218515   3.455   1.337   1.530 -0.3944 -0.0360  0.1071
 6170TIP3    H118516   3.504   1.419   1.521 -0.1894 -0.0358  1.0612
 6170TIP3    H218517   3.434   1.311   1.440 -0.7652  1.2345 -0.1912
 6171TIP3   OH218518   2.943   5.342   4.475 -0.3575  0.5341  0.0464
 6171TIP3    H118519   2.892   5.327   4.395 -0.7832  1.2955  0.1599
 6171TIP3    H218520   3.030   5.365   4.443 -0.4693  0.6276 -0.2013
 6172TIP3   OH218521   4.541   4.388   2.835  0.1886 -0.3691 -0.2341
 6172TIP3    H118522   4.478   4.460   2.826 -1.0968 -1.4339 -0.0982
 6172TIP3    H218523   4.495   4.312   2.798  0.1552 -1.8791  2.6195
 6173TIP3   OH218524   1.353   2.336   3.393  0.2897 -0.1851  0.1397
 6173TIP3    H118525   1.260   2.316   3.399  0.4795 -0.8127  1.1504
 6173TIP3    H218526   1.381   2.295   3.311 -0.1202 -0.8239  0.3150
 6174TIP3   OH218527   0.922   3.748   5.001 -0.0657 -0.1347  0.3047
 6174TIP3    H118528   0.865   3.773   5.073 -0.4935 -1.7250  0.5543
 6174TIP3    H218529   0.946   3.657   5.019 -0.3637 -0.6603 -1.6435
 6175TIP3   OH218530   1.264   5.831   2.018  0.3655 -0.2178  0.2624
 6175TIP3    H118531   1.336   5.842   1.956 -1.8633  1.1039 -2.3146
 6175TIP3    H218532   1.229   5.744   2.000  0.7765 -0.5330  0.9406
 6176TIP3   OH218533   1.644   4.572   0.998  0.2892  0.3450  0.2869
 6176TIP3    H118534   1.612   4.623   1.072  1.6400 -0.8421  1.7561
 6176TIP3    H218535   1.731   4.607   0.980  0.1741  0.2851 -0.4201
 6177TIP3   OH218536   3.806   0.442   4.268 -0.0518 -0.5467  0.4764
 6177TIP3    H118537   3.862   0.520   4.273  0.1850 -0.1285 -4.1516
 6177TIP3    H218538   3.867   0.371   4.249 -0.6076 -1.2322  1.2085
 6178TIP3   OH218539   4.832   1.137   0.534 -0.3677  0.4560 -0.7030
 6178TIP3    H118540   4.753   1.128   0.588  0.4579  0.9771  0.6213
 6178TIP3    H218541   4.904   1.142   0.596  0.9396 -1.7150 -1.9125
 6179TIP3   OH218542   6.114   1.436   2.170  0.3884 -0.0864 -0.3117
 6179TIP3    H118543   6.138   1.358   2.220  0.5348 -1.5563 -2.5587
 6179TIP3    H218544   6.140   1.416   2.080 -0.7328  2.0544 -1.1734
 6180TIP3   OH218545   1.545   1.310   0.019  0.1944  0.1900 -0.3263
 6180TIP3    H118546   1.524   1.219   0.039  0.9440  0.3172  1.2399
 6180TIP3    H218547   1.497   1.361   0.085  2.5564  0.6641  1.1525
 6181TIP3   OH218548   3.277   3.962   3.044  0.0726  0.2491  0.5378
 6181TIP3    H118549   3.298   4.003   3.128 -0.1559  1.2968  0.0950
 6181TIP3    H218550   3.182   3.952   3.045  0.1078 -0.1099  0.5628
 6182TIP3   OH218551   5.069   1.949   3.537  0.0292  0.4197 -0.6551
 6182TIP3    H118552   5.124   1.870   3.541  1.5587  1.4791 -0.0615
 6182TIP3    H218553   5.066   1.972   3.444  0.7642  0.4701 -0.6667
 6183TIP3   OH218554   5.059   4.879   3.545  0.1466  0.4000  0.1711
 6183TIP3    H118555   5.073   4.853   3.636 -0.0039  2.6730  0.9092
 6183TIP3    H218556   5.133   4.842   3.497 -0.1918 -1.4994  1.0287
 6184TIP3   OH218557   3.839   0.725   2.637  0.0547 -0.4827 -0.7901
 6184TIP3    H118558   3.852   0.639   2.675 -1.6996 -0.1788  0.5859
 6184TIP3    H218559   3.875   0.786   2.702 -2.4512  0.0061  0.2400
 6185TIP3   OH218560   1.813   4.367   3.525 -0.9885 -0.0165 -0.1712
 6185TIP3    H118561   1.878   4.305   3.492 -1.0418 -0.3993  0.4348
 6185TIP3    H218562   1.797   4.340   3.615 -2.1330 -0.0371 -0.3674
 6186TIP3   OH218563   2.153   4.969   2.964 -0.4910  0.3252  0.0595
 6186TIP3    H118564   2.135   4.890   3.016  2.2193 -0.8903 -0.6357
 6186TIP3    H218565   2.160   5.038   3.029  0.9074 -0.7980  1.1890
 6187TIP3   OH218566   4.891   4.526   4.402 -0.1681  0.0802  0.0695
 6187TIP3    H118567   4.875   4.435   4.429  1.9606 -0.1712  0.7197
 6187TIP3    H218568   4.917   4.570   4.483 -1.8296  1.4821 -0.1111
 6188TIP3   OH218569   5.630   2.601   3.411 -0.2008  0.0132  0.5018
 6188TIP3    H118570   5.679   2.624   3.490 -1.2045 -1.9888  1.7715
 6188TIP3    H218571   5.680   2.641   3.340  2.1126 -0.2025  1.9138
 6189TIP3   OH218572   5.479   0.787   4.706  0.0923  0.1603 -0.1003
 6189TIP3    H118573   5.391   0.794   4.743  0.7653  0.8992  1.4889
 6189TIP3    H218574   5.506   0.697   4.723  0.8181  0.7715  2.3918
 6190TIP3   OH218575   5.594   4.851   5.083 -0.1674  0.4625  0.5074
 6190TIP3    H118576   5.571   4.925   5.026  1.2229  2.0663  1.9506
 6190TIP3    H218577   5.510   4.821   5.117 -0.9827 -0.1533 -1.8342
 6191TIP3   OH218578   4.741   3.014   3.468  0.6964  0.3754  0.2598
 6191TIP3    H118579   4.681   3.062   3.526  0.8841 -0.8366  1.5080
 6191TIP3    H218580   4.704   2.926   3.464  2.2607 -0.3589  0.9243
 6192TIP3   OH218581   5.879   4.234   2.921 -0.3186  0.0427 -0.0607
 6192TIP3    H118582   5.876   4.146   2.957  0.1716  0.8085  2.0033
 6192TIP3    H218583   5.810   4.281   2.967  1.0748  1.3674  0.7859
 6193TIP3   OH218584   1.248   4.378   1.816  0.7518  0.1283  0.0201
 6193TIP3    H118585   1.244   4.293   1.861  0.7293 -0.7813 -1.6249
 6193TIP3    H218586   1.267   4.356   1.725 -0.9429  1.7685 -0.8028
 6194TIP3   OH218587   1.683   2.876   1.083  0.3947 -0.6441 -0.1822
 6194TIP3    H118588   1.665   2.918   0.999  2.7569 -0.2692 -0.5939
 6194TIP3    H218589   1.665   2.943   1.148  1.2396  0.0518 -0.6350
 6195TIP3   OH218590   1.672   1.199   1.795  0.1864  0.1501 -0.0173
 6195TIP3    H118591   1.760   1.236   1.801  0.3252 -0.3039  0.9008
 6195TIP3    H218592   1.679   1.132   1.728  1.0268 -1.1395  1.2932
 6196TIP3   OH218593   4.241   1.345   1.377 -0.3445  0.3023  0.3713
 6196TIP3    H118594   4.202   1.364   1.291  0.9254  2.5237  0.2173
 6196TIP3    H218595   4.192   1.269   1.409 -0.6767 -0.7814 -2.4188
 6197TIP3   OH218596   0.974   4.422   3.736 -0.2791  0.0926  0.0695
 6197TIP3    H118597   1.007   4.332   3.733 -0.2296  0.1333 -1.0676
 6197TIP3    H218598   0.889   4.418   3.694 -0.7973  0.3808  1.0672
 6198TIP3   OH218599   0.609   4.644   0.901 -0.2651 -0.0646  0.3673
 6198TIP3    H118600   0.649   4.655   0.815 -1.2872  0.8806 -0.0062
 6198TIP3    H218601   0.542   4.712   0.906 -0.8594 -0.6942  1.5427
 6199TIP3   OH218602   3.076   4.400   0.975 -0.4181 -0.2057  0.6430
 6199TIP3    H118603   3.010   4.469   0.965  0.3092  0.4127 -0.0370
 6199TIP3    H218604   3.156   4.438   0.937  0.0435 -1.3490  0.4381
 6200TIP3   OH218605   2.865   0.323   3.860  0.3784 -0.2428  0.1150
 6200TIP3    H118606   2.957   0.350   3.861  0.1025  1.1000 -2.3827
 6200TIP3    H218607   2.844   0.316   3.767 -2.4435  0.9780  0.5802
 6201TIP3   OH218608   2.259   5.888   2.731 -0.1296  0.1741  0.2811
 6201TIP3    H118609   2.312   5.838   2.669 -1.4900 -1.0932  0.0948
 6201TIP3    H218610   2.254   5.833   2.809 -1.1363  0.2869  0.3127
 6202TIP3   OH218611   5.065   5.842   0.214 -0.4784 -0.5378 -0.0126
 6202TIP3    H118612   5.018   5.770   0.255 -0.0977  0.2093  1.8856
 6202TIP3    H218613   5.015   5.920   0.239 -0.0478 -0.0152 -0.7398
 6203TIP3   OH218614   4.538   2.151   4.497  0.2064  0.4846  0.0601
 6203TIP3    H118615   4.533   2.078   4.435  0.0618  0.2311  0.3612
 6203TIP3    H218616   4.630   2.174   4.500 -0.0681  2.1807 -2.1512
 6204TIP3   OH218617   0.312   2.415   3.262  0.3536 -0.3914 -0.0811
 6204TIP3    H118618   0.364   2.337   3.245  0.5468 -1.1124  3.1057
 6204TIP3    H218619   0.230   2.399   3.215  1.0264 -1.7015 -0.8844
 6205TIP3   OH218620   0.400   0.020   3.985 -0.2983  0.4124 -0.2574
 6205TIP3    H118621   0.401   0.116   3.984 -1.2775  0.4497  0.5807
 6205TIP3    H218622   0.308  -0.003   3.993 -0.1129 -0.6223 -0.8917
 6206TIP3   OH218623   1.458   1.499   1.866 -0.0529 -0.5699  0.2991
 6206TIP3    H118624   1.548   1.516   1.835 -0.1647  0.2356  0.3946
 6206TIP3    H218625   1.413   1.465   1.789 -0.3030  1.3426 -0.4610
 6207TIP3   OH218626   5.585   3.772   4.653 -0.3222  0.2700 -0.1027
 6207TIP3    H118627   5.630   3.722   4.584 -2.2688  0.7767 -1.8556
 6207TIP3    H218628   5.503   3.725   4.665 -0.1290  0.3523  1.7445
 6208TIP3   OH218629   1.301   1.395   1.089 -0.0221  0.2262 -0.0815
 6208TIP3    H118630   1.317   1.485   1.060 -0.0876  0.8238  1.6112
 6208TIP3    H218631   1.337   1.340   1.019  1.0991  1.5695 -0.6032
 6209TIP3   OH218632   0.494   4.820   3.680 -0.0133  0.1677 -0.2472
 6209TIP3    H118633   0.415   4.775   3.712  0.2333 -0.1864 -0.1187
 6209TIP3    H218634   0.472   4.848   3.592 -0.2423 -0.0371 -0.2575
 6210TIP3   OH218635   6.200   5.623   2.069 -0.0356 -0.3367  0.1979
 6210TIP3    H118636   6.238   5.612   2.156  0.4228 -2.1782 -0.1986
 6210TIP3    H218637   6.116   5.577   2.074 -0.6215  0.6989  0.0431
 6211TIP3   OH218638   5.362   5.275   0.825 -0.2354  0.1383  0.3575
 6211TIP3    H118639   5.366   5.192   0.777  0.2447 -0.1450  0.8849
 6211TIP3    H218640   5.444   5.278   0.875  0.1719  1.3401 -0.3351
 6212TIP3   OH218641   5.362   1.646   2.277 -0.3114 -0.0814 -0.5528
 6212TIP3    H118642   5.305   1.583   2.321 -0.0258 -0.9929 -1.4506
 6212TIP3    H218643   5.305   1.719   2.254 -0.8395 -0.4089 -0.2907
 6213TIP3   OH218644   5.080   4.511   4.202 -0.2515 -0.1948  0.6295
 6213TIP3    H118645   5.012   4.518   4.269 -0.5777 -0.7849  0.3673
 6213TIP3    H218646   5.048   4.565   4.129 -0.3898 -0.3915  0.5450
 6214TIP3   OH218647   0.474   0.644   1.990 -0.3294  0.1232  0.7065
 6214TIP3    H118648   0.437   0.679   2.071 -1.3373 -1.5827  1.0381
 6214TIP3    H218649   0.505   0.556   2.014 -0.6247 -0.4054 -0.7516
 6215TIP3   OH218650   2.193   3.541   4.699 -0.0708 -0.1741  0.3483
 6215TIP3    H118651   2.253   3.615   4.709  1.0912 -1.0208 -0.1934
 6215TIP3    H218652   2.107   3.582   4.689  0.7473  1.2000 -1.7532
 6216TIP3   OH218653   4.008   0.960   4.401  0.1200 -0.2737 -0.4209
 6216TIP3    H118654   3.965   1.011   4.332 -1.2064 -0.1292  0.4785
 6216TIP3    H218655   3.937   0.929   4.456  1.1035 -0.9835  0.4907
 6217TIP3   OH218656   1.045   3.867   4.781  0.9918  0.8400 -0.2385
 6217TIP3    H118657   1.014   3.828   4.863  2.7485  0.1013  0.1192
 6217TIP3    H218658   1.123   3.917   4.806  0.8950  1.5514 -1.2969
 6218TIP3   OH218659   1.157   4.861   2.071  0.4647 -0.3439 -0.0202
 6218TIP3    H118660   1.196   4.788   2.022  1.7125 -0.8576  1.6356
 6218TIP3    H218661   1.133   4.823   2.155 -2.3809  0.3197 -0.4279
 6219TIP3   OH218662   0.388   4.592   3.284  0.5079  0.5860 -0.1711
 6219TIP3    H118663   0.459   4.654   3.265  1.5464 -0.2621  0.7614
 6219TIP3    H218664   0.387   4.532   3.209  1.4948 -0.0038  0.2597
 6220TIP3   OH218665   3.606   2.577   5.196  0.0118  0.0767 -0.9967
 6220TIP3    H118666   3.534   2.517   5.180  0.5130 -0.3126 -1.8805
 6220TIP3    H218667   3.638   2.600   5.108  1.7182 -0.7028 -0.6044
 6221TIP3   OH218668   5.539   2.355   0.678 -0.0560  0.3002 -0.1039
 6221TIP3    H118669   5.604   2.367   0.748  0.1510  0.6024 -0.3470
 6221TIP3    H218670   5.591   2.342   0.599 -0.1955 -3.3619  0.2562
 6222TIP3   OH218671   6.001   0.407   5.076  0.1152  0.4786  0.0806
 6222TIP3    H118672   6.047   0.328   5.048  0.6957  1.1110 -0.8058
 6222TIP3    H218673   5.954   0.381   5.155  0.5806 -0.6528  0.0005
 6223TIP3   OH218674   3.594   5.671   3.434  0.1020 -0.7277  0.6923
 6223TIP3    H118675   3.557   5.748   3.476  0.3595 -1.6783  2.7894
 6223TIP3    H218676   3.575   5.599   3.495  1.8456 -1.9202 -0.0920
 6224TIP3   OH218677   3.751   3.355   5.015 -0.1385  0.0357 -0.2066
 6224TIP3    H118678   3.673   3.393   4.975 -0.7996 -0.6081  0.4362
 6224TIP3    H218679   3.772   3.415   5.087 -0.2197  0.0538 -0.1968
 6225TIP3   OH218680   2.670   1.768   2.877  0.0118 -0.1059 -0.1924
 6225TIP3    H118681   2.596   1.781   2.937  0.8647  0.4692  0.7732
 6225TIP3    H218682   2.632   1.777   2.790 -1.0204  0.3853  0.2880
 6226TIP3   OH218683   3.183   0.703   2.220  0.6134 -0.0649  0.0432
 6226TIP3    H118684   3.103   0.681   2.171 -1.2105  1.9868  1.8533
 6226TIP3    H218685   3.185   0.639   2.292  1.1816 -0.7204 -0.5411
 6227TIP3   OH218686   5.318   5.164   0.454  0.2716 -0.2851  0.2915
 6227TIP3    H118687   5.324   5.086   0.398 -1.9930 -1.4203  1.4397
 6227TIP3    H218688   5.356   5.136   0.537  0.3204  0.1432  0.4112
 6228TIP3   OH218689   1.940   4.678   4.981  0.2697  0.0056  0.2171
 6228TIP3    H118690   1.886   4.719   4.914  0.5394  2.4036  1.3560
 6228TIP3    H218691   2.009   4.742   4.998  1.4768 -1.4912  1.2601
 6229TIP3   OH218692   0.070   0.980   2.638  0.1564  0.1193  0.7861
 6229TIP3    H118693  -0.011   1.031   2.646  0.0890 -0.0583  1.2658
 6229TIP3    H218694   0.044   0.904   2.585 -0.3358 -0.6282  2.0518
 6230TIP3   OH218695   6.001   4.941   0.404 -0.1097  0.5503 -0.0966
 6230TIP3    H118696   6.083   4.913   0.363 -0.2143  2.4698 -1.7608
 6230TIP3    H218697   6.016   4.928   0.498  0.9468 -1.9499 -0.5280
 6231TIP3   OH218698   1.253   3.390   3.989  0.5662  0.2091 -0.0213
 6231TIP3    H118699   1.301   3.329   3.933 -1.1775 -1.2227 -0.0218
 6231TIP3    H218700   1.240   3.468   3.934 -0.1375 -0.7430 -1.2597
 6232TIP3   OH218701   3.536   1.671   2.534  0.2584 -0.2446 -0.2672
 6232TIP3    H118702   3.567   1.747   2.585 -0.1064  0.3532 -0.9138
 6232TIP3    H218703   3.488   1.618   2.597  0.0725  0.3352  0.0864
 6233TIP3   OH218704   2.956   0.978   0.523  0.6120  0.0621 -0.4242
 6233TIP3    H118705   2.925   1.064   0.496  1.9618  0.7561  0.1327
 6233TIP3    H218706   2.957   0.926   0.443  1.8297  1.2217 -1.1998
 6234TIP3   OH218707   3.794   1.156   2.873  0.2698  0.6481  0.0692
 6234TIP3    H118708   3.722   1.143   2.812 -1.0462 -1.9479  1.9682
 6234TIP3    H218709   3.753   1.194   2.951  1.1828  0.3577  0.7099
 6235TIP3   OH218710   2.919   3.359   0.774  0.6195  0.3783  0.1059
 6235TIP3    H118711   2.972   3.280   0.764 -0.0675 -0.1492  0.5363
 6235TIP3    H218712   2.895   3.359   0.867 -0.6271  0.2880 -0.2043
 6236TIP3   OH218713   6.180   5.680   3.746 -0.5033  0.4134  0.2681
 6236TIP3    H118714   6.268   5.646   3.731 -1.6462 -3.3989  0.9915
 6236TIP3    H218715   6.188   5.733   3.825  1.1716  0.3242  0.1947
 6237TIP3   OH218716   0.529   0.767   3.465 -0.1362  0.0301  0.8561
 6237TIP3    H118717   0.559   0.813   3.386  1.6795 -2.6202 -0.0949
 6237TIP3    H218718   0.455   0.714   3.435  0.5289 -0.9509  0.9237
 6238TIP3   OH218719   0.381   0.340   2.821  1.1119 -0.4849  0.4770
 6238TIP3    H118720   0.328   0.277   2.772  0.2174  0.4422  0.2258
 6238TIP3    H218721   0.379   0.308   2.911 -2.1389  0.9203  1.0132
 6239TIP3   OH218722   6.039   4.851   4.468  0.6116  0.2682  0.4550
 6239TIP3    H118723   5.954   4.822   4.501  0.6235  0.3847  0.5916
 6239TIP3    H218724   6.091   4.770   4.461 -0.4195 -0.2376 -2.4445
 6240TIP3   OH218725   5.260   4.876   4.118 -0.6514  0.0366 -0.2679
 6240TIP3    H118726   5.319   4.818   4.167  0.2425  1.2028  0.0843
 6240TIP3    H218727   5.176   4.866   4.162  0.3170  1.7169  2.2096
 6241TIP3   OH218728   5.871   4.945   0.167  0.3428  0.2404 -0.6184
 6241TIP3    H118729   5.930   4.912   0.099 -0.5701 -0.3652 -1.1466
 6241TIP3    H218730   5.919   4.932   0.249  0.3654 -1.6593 -0.8868
 6242TIP3   OH218731   1.469   0.260   1.426 -0.8765 -0.7677 -0.0123
 6242TIP3    H118732   1.555   0.243   1.388 -0.1695  2.4243 -0.1170
 6242TIP3    H218733   1.466   0.206   1.505  2.0662  0.4074  1.0313
 6243TIP3   OH218734   2.833   1.673   1.596  0.2105  0.4592  0.4839
 6243TIP3    H118735   2.927   1.655   1.597 -0.0773 -1.3247 -0.4887
 6243TIP3    H218736   2.823   1.744   1.532  1.0004  1.5407  1.5246
 6244TIP3   OH218737   1.070   2.488   1.308  0.0888 -0.1000 -0.6371
 6244TIP3    H118738   1.159   2.501   1.276  0.4311 -0.9481 -0.0672
 6244TIP3    H218739   1.077   2.415   1.369 -0.7964  0.5454  0.2685
 6245TIP3   OH218740   3.610   4.433   2.618  0.0995 -0.6134 -0.0239
 6245TIP3    H118741   3.638   4.360   2.675  1.4155 -1.0512 -1.1595
 6245TIP3    H218742   3.515   4.432   2.622  0.0418 -2.8987 -0.5533
 6246TIP3   OH218743   3.685   4.927   3.895  0.4693 -0.6313 -0.2467
 6246TIP3    H118744   3.687   4.955   3.804  0.4407  0.8739  0.1777
 6246TIP3    H218745   3.740   4.850   3.898  1.3946 -0.0417 -1.3424
 6247TIP3   OH218746   6.298   5.569   2.315  0.1738  0.1719  0.1640
 6247TIP3    H118747   6.291   5.497   2.378 -0.0104 -0.7021 -0.8398
 6247TIP3    H218748   6.392   5.575   2.296  0.1794  0.1489  0.1853
 6248TIP3   OH218749   2.738   5.982   2.806 -0.0416  0.0045 -0.3645
 6248TIP3    H118750   2.718   6.023   2.721  0.5161 -0.1228 -0.5633
 6248TIP3    H218751   2.714   5.890   2.794  0.1796 -0.0444 -0.4356
 6249TIP3   OH218752   1.259   3.355   0.921 -0.0375  0.3550 -0.2503
 6249TIP3    H118753   1.187   3.292   0.911 -1.1176  1.4405  0.3562
 6249TIP3    H218754   1.291   3.339   1.010 -0.5193  0.8306  0.0214
 6250TIP3   OH218755   4.830   2.311   4.458  0.2065 -0.0297 -0.0630
 6250TIP3    H118756   4.828   2.256   4.536 -0.0486  0.1898  0.0866
 6250TIP3    H218757   4.922   2.313   4.432  0.3207  0.0500  0.3436
 6251TIP3   OH218758   2.169   5.782   2.950 -0.2453 -0.2065  0.1458
 6251TIP3    H118759   2.197   5.703   2.996  2.0039 -0.5167 -1.5451
 6251TIP3    H218760   2.139   5.841   3.019  1.6714 -1.1468  1.8878
 6252TIP3   OH218761   0.111   3.532   3.435  0.3934  0.3216  0.0356
 6252TIP3    H118762   0.100   3.589   3.510  0.9159  2.3212 -1.3267
 6252TIP3    H218763   0.206   3.526   3.422  0.4205 -1.8198  0.7934
 6253TIP3   OH218764   3.278   2.078   0.140 -0.0884 -0.2842 -0.5624
 6253TIP3    H118765   3.273   2.077   0.044  2.7222  0.3135 -0.7958
 6253TIP3    H218766   3.331   2.001   0.162  0.1473  0.1441  0.4232
 6254TIP3   OH218767   2.215   1.929   1.570 -0.4522 -0.5118  0.1701
 6254TIP3    H118768   2.211   1.840   1.536  0.5299 -0.1037 -1.0945
 6254TIP3    H218769   2.279   1.973   1.514 -0.0679  0.6761  1.5035
 6255TIP3   OH218770   5.480   1.782   1.185  0.3142 -0.4704  0.3454
 6255TIP3    H118771   5.399   1.766   1.232 -1.1220  1.1182 -1.4353
 6255TIP3    H218772   5.482   1.876   1.170  1.9917 -0.5893 -0.5252
 6256TIP3   OH218773   5.214   3.098   3.200  0.0844  0.2099 -0.0284
 6256TIP3    H118774   5.193   3.153   3.124 -0.3204 -0.6261 -0.5377
 6256TIP3    H218775   5.304   3.071   3.185 -0.2166 -0.5277 -0.5938
 6257TIP3   OH218776   0.789   1.683   4.923  0.3324 -0.8676 -0.0227
 6257TIP3    H118777   0.762   1.695   5.014  1.1010 -0.0691  0.1043
 6257TIP3    H218778   0.708   1.690   4.873  0.1566  0.6593  0.4307
 6258TIP3   OH218779   5.235   4.541   0.169 -0.0899  0.2745  0.5668
 6258TIP3    H118780   5.314   4.510   0.213  0.6565  0.0297 -0.8706
 6258TIP3    H218781   5.268   4.595   0.097 -1.2414  0.2273 -0.0137
 6259TIP3   OH218782   5.752   2.581   0.201  0.0228  0.0278  0.0289
 6259TIP3    H118783   5.794   2.607   0.119 -1.6266  0.8920 -0.5844
 6259TIP3    H218784   5.743   2.662   0.251  2.5183 -0.7084  1.8788
 6260TIP3   OH218785   0.278   5.170   1.553 -0.1885 -0.8045 -0.3590
 6260TIP3    H118786   0.323   5.172   1.637 -2.4172 -0.8546  0.9094
 6260TIP3    H218787   0.341   5.129   1.493  1.9324  0.3655  0.9266
 6261TIP3   OH218788   2.456   0.411   1.300  0.7795 -0.1984  0.0619
 6261TIP3    H118789   2.456   0.323   1.337  1.7941 -0.1969  0.0953
 6261TIP3    H218790   2.480   0.399   1.208  0.8588  0.0318  0.0496
 6262TIP3   OH218791   5.727   3.240   3.727 -0.3661  0.0471 -0.3442
 6262TIP3    H118792   5.746   3.333   3.737 -0.1656 -0.0688  0.4122
 6262TIP3    H218793   5.732   3.205   3.816 -0.8028 -0.6167 -0.5753
 6263TIP3   OH218794   4.015   1.828   4.617 -0.3206  0.0342  0.1173
 6263TIP3    H118795   3.943   1.793   4.565 -2.3947  3.2287  0.5219
 6263TIP3    H218796   4.014   1.777   4.698  0.3076 -2.3069 -1.2610
 6264TIP3   OH218797   2.884   5.958   1.099  0.2088  0.1167  0.2922
 6264TIP3    H118798   2.821   5.995   1.037 -0.2063 -0.3374  0.4292
 6264TIP3    H218799   2.901   5.869   1.067  1.1782  0.4080 -0.0236
 6265TIP3   OH218800   3.561   4.003   1.720  0.1493 -0.6813  0.0320
 6265TIP3    H118801   3.475   3.969   1.695  0.3924 -0.9173 -0.4782
 6265TIP3    H218802   3.618   3.927   1.719  0.5344 -0.3906 -0.3893
 6266TIP3   OH218803   4.462   1.003   1.344 -0.4415 -0.3649  0.2063
 6266TIP3    H118804   4.428   0.921   1.382  0.5783 -1.0507 -0.3061
 6266TIP3    H218805   4.393   1.033   1.285 -0.4845 -1.3319 -0.2582
 6267TIP3   OH218806   2.020   1.767   4.217 -0.0383 -0.0416  0.2279
 6267TIP3    H118807   2.051   1.712   4.289  1.6012 -2.8283 -2.3974
 6267TIP3    H218808   1.924   1.762   4.224  0.0662 -0.1923  2.1884
 6268TIP3   OH218809   1.596   3.179   4.551 -0.0380 -0.3446 -1.0502
 6268TIP3    H118810   1.690   3.186   4.566 -0.0910  0.1631 -0.9462
 6268TIP3    H218811   1.578   3.242   4.481 -0.3864 -0.0605 -0.7043
 6269TIP3   OH218812   6.053   1.197   1.501  0.0511  0.2941 -0.3278
 6269TIP3    H118813   5.963   1.210   1.530  0.2222  0.5616  0.1054
 6269TIP3    H218814   6.072   1.272   1.445 -0.1666 -0.0416 -0.8574
 6270TIP3   OH218815   2.954   0.643   0.666  0.0877  0.2437  0.2031
 6270TIP3    H118816   2.887   0.634   0.734 -0.8781 -1.4887 -0.8978
 6270TIP3    H218817   2.967   0.553   0.634  1.6228  0.8142 -0.8668
 6271TIP3   OH218818   2.247   0.817   3.027  0.4736  0.7644  0.6571
 6271TIP3    H118819   2.157   0.799   2.997  0.9616 -2.6549  0.8784
 6271TIP3    H218820   2.236   0.880   3.098 -2.0356 -1.2708  2.2378
 6272TIP3   OH218821   5.872   2.090   4.353 -0.5252  0.5249 -0.3736
 6272TIP3    H118822   5.932   2.115   4.423 -1.1289 -0.1052  0.3910
 6272TIP3    H218823   5.894   2.148   4.280 -0.2524  1.5696  0.5175
 6273TIP3   OH218824   3.596   0.597   1.221 -0.0396  0.0228 -0.0120
 6273TIP3    H118825   3.639   0.677   1.190 -0.1224  0.7808  1.6951
 6273TIP3    H218826   3.623   0.590   1.312 -1.2688 -1.0560  0.2896
 6274TIP3   OH218827   3.229   4.129   2.436  0.1032 -0.0955  0.4497
 6274TIP3    H118828   3.230   4.156   2.528 -0.6905  1.0810  0.1413
 6274TIP3    H218829   3.217   4.034   2.439 -2.5078  0.1771  1.5606
 6275TIP3   OH218830   3.482   3.005   2.948  0.0033 -0.0010  0.2138
 6275TIP3    H118831   3.474   2.958   3.031 -0.7538 -0.1582  0.0602
 6275TIP3    H218832   3.405   3.062   2.945  0.0966  0.1010 -0.3214
 6276TIP3   OH218833   4.138   0.163   5.091 -0.1689 -0.3695  0.1697
 6276TIP3    H118834   4.176   0.103   5.028 -1.2065  1.0612 -1.9146
 6276TIP3    H218835   4.209   0.180   5.153  0.6219 -2.4590 -0.0662
 6277TIP3   OH218836   1.325   5.080   2.929 -0.3752  0.2739 -0.2525
 6277TIP3    H118837   1.275   5.028   2.865 -1.5349  0.6372  0.3277
 6277TIP3    H218838   1.303   5.041   3.014 -0.0938  0.7908  0.0613
 6278TIP3   OH218839   5.086   1.252   0.400  0.2195 -0.0125  0.1188
 6278TIP3    H118840   5.157   1.257   0.464 -0.5136  1.2780  0.8804
 6278TIP3    H218841   5.007   1.269   0.452 -0.4243  0.7327 -1.0686
 6279TIP3   OH218842   3.566   4.683   3.744 -0.4807  0.0089  0.0833
 6279TIP3    H118843   3.480   4.717   3.721 -0.5592  1.1787  1.9385
 6279TIP3    H218844   3.619   4.697   3.665 -1.9352 -0.7189 -1.0805
 6280TIP3   OH218845   5.357   5.368   2.893  0.0615 -0.0175  0.8130
 6280TIP3    H118846   5.283   5.427   2.904 -0.9344 -1.2574  0.8914
 6280TIP3    H218847   5.413   5.385   2.969 -0.0365  1.0398  0.6681
 6281TIP3   OH218848   4.643   2.705   0.726  0.3932  0.5466  0.8646
 6281TIP3    H118849   4.698   2.758   0.784  2.8910  1.1418 -1.8443
 6281TIP3    H218850   4.642   2.753   0.643 -2.4342 -0.6241  0.1098
 6282TIP3   OH218851   4.161   4.645   5.000  0.4782  0.3409 -0.3558
 6282TIP3    H118852   4.176   4.558   4.963  2.2370 -0.3798  1.8024
 6282TIP3    H218853   4.133   4.627   5.090  1.3244  1.9927  0.2713
 6283TIP3   OH218854   4.638   3.462   3.951 -0.7382 -0.1041 -0.5827
 6283TIP3    H118855   4.722   3.473   3.996 -0.6536 -1.6660 -0.2998
 6283TIP3    H218856   4.632   3.538   3.893  0.5179  0.4230 -0.0616
 6284TIP3   OH218857   0.376   4.201   2.535  0.4455  0.3956  0.2693
 6284TIP3    H118858   0.444   4.266   2.520 -0.4896  1.1108 -1.1441
 6284TIP3    H218859   0.351   4.172   2.447 -1.0024  0.1152  0.7479
 6285TIP3   OH218860   2.733   5.863   0.479  0.4824  0.1751  0.0431
 6285TIP3    H118861   2.772   5.778   0.457 -0.1162 -0.4198  1.1517
 6285TIP3    H218862   2.690   5.891   0.399 -0.7099 -1.3782  0.0859
 6286TIP3   OH218863   0.366   5.960   3.478 -0.1552  0.2084  0.0500
 6286TIP3    H118864   0.409   5.918   3.404  1.0243  1.9277 -0.3014
 6286TIP3    H218865   0.306   5.894   3.513 -0.4025 -0.7868 -2.1452
 6287TIP3   OH218866   4.191   1.370   2.111  0.5473  0.1113  0.0412
 6287TIP3    H118867   4.099   1.383   2.134  0.9485  1.0789  1.2263
 6287TIP3    H218868   4.191   1.297   2.049 -1.0111  0.1066  0.0222
 6288TIP3   OH218869   5.891   5.486   3.069  0.6152  0.3650  0.3014
 6288TIP3    H118870   5.877   5.576   3.038  1.4617  0.2429 -0.4941
 6288TIP3    H218871   5.873   5.490   3.163  0.0521  1.2290  0.1711
 6289TIP3   OH218872   0.151   0.530   2.003 -0.0873 -0.4759 -0.1223
 6289TIP3    H118873   0.185   0.617   2.022  1.4388 -1.1372  0.3303
 6289TIP3    H218874   0.059   0.544   1.979 -0.3592  1.0646  1.6363
 6290TIP3   OH218875   2.425   4.223   4.635  0.0952 -0.5918  0.3763
 6290TIP3    H118876   2.498   4.265   4.589  0.0612  0.3857  1.1826
 6290TIP3    H218877   2.374   4.296   4.671 -0.7363 -1.2929  0.6552
 6291TIP3   OH218878   5.339   0.845   1.654 -0.3261 -0.5728  0.0447
 6291TIP3    H118879   5.326   0.760   1.696 -0.1692 -0.4053  0.4303
 6291TIP3    H218880   5.379   0.900   1.721 -1.4192  0.1290  0.1590
 6292TIP3   OH218881   0.643   0.476   3.546 -0.0477 -0.1308 -0.2630
 6292TIP3    H118882   0.593   0.435   3.617 -0.9233 -0.5095 -1.0884
 6292TIP3    H218883   0.579   0.529   3.499  0.8833  1.5411  0.2655
 6293TIP3   OH218884   2.819   3.440   0.521  0.1783 -0.3995 -0.0287
 6293TIP3    H118885   2.854   3.361   0.479  0.3694 -0.7110  0.7046
 6293TIP3    H218886   2.859   3.441   0.608 -2.6038 -1.4967  1.3768
 6294TIP3   OH218887   2.146   4.218   0.573  0.0400 -0.8518 -0.2143
 6294TIP3    H118888   2.071   4.240   0.518 -0.7267 -0.6577  0.8713
 6294TIP3    H218889   2.217   4.201   0.512 -0.5701  0.1504 -1.2290
 6295TIP3   OH218890   5.583   1.074   2.469  0.5871  0.1106  0.7148
 6295TIP3    H118891   5.550   0.997   2.424  0.2701 -0.1935  1.4510
 6295TIP3    H218892   5.558   1.147   2.413  3.0223 -0.4459 -1.2785
 6296TIP3   OH218893   0.685   0.576   2.212 -0.0090  0.3305 -0.1410
 6296TIP3    H118894   0.702   0.586   2.119 -1.0341  0.7837 -0.2991
 6296TIP3    H218895   0.747   0.636   2.255  1.8160 -1.2936 -0.3715
 6297TIP3   OH218896   0.689   0.954   2.404 -0.2843  0.2940 -0.3323
 6297TIP3    H118897   0.683   1.022   2.338  0.1439  1.9650  1.2628
 6297TIP3    H218898   0.778   0.919   2.395  1.0960  2.9896  1.5583
 6298TIP3   OH218899  -0.026   3.434   5.064  0.2428 -0.9457  0.2157
 6298TIP3    H118900  -0.028   3.504   4.998 -0.3621 -0.0754  1.1432
 6298TIP3    H218901   0.067   3.416   5.076  0.4193 -0.0564  0.2252
 6299TIP3   OH218902   1.247   3.514   1.746  0.2009 -0.0613 -0.3391
 6299TIP3    H118903   1.323   3.557   1.707 -0.7152  1.8817 -0.1452
 6299TIP3    H218904   1.180   3.518   1.678 -0.2358 -0.1793  0.0756
 6300TIP3   OH218905   5.038   5.087   2.405  0.5813  0.3033  0.0270
 6300TIP3    H118906   4.965   5.140   2.437 -1.6748  0.1638 -4.1542
 6300TIP3    H218907   4.997   5.020   2.351  3.7603 -1.0682 -0.9158
 6301TIP3   OH218908   2.999   4.556   2.258 -0.0224 -0.4028 -0.0587
 6301TIP3    H118909   3.061   4.484   2.267 -1.2501 -1.4560  0.2596
 6301TIP3    H218910   2.938   4.544   2.331 -0.1599  1.0616  0.0865
 6302TIP3   OH218911   0.237   0.402   3.493 -0.3701  0.0215 -0.4057
 6302TIP3    H118912   0.261   0.334   3.429  1.0809  1.1433 -1.1310
 6302TIP3    H218913   0.141   0.403   3.492 -0.3978 -0.9979 -1.4796
 6303TIP3   OH218914   5.290   1.464   3.580 -0.1901 -0.4058 -0.6524
 6303TIP3    H118915   5.324   1.430   3.662 -0.0602 -2.4036 -1.4747
 6303TIP3    H218916   5.368   1.485   3.528 -0.2526  1.9147  0.0692
 6304TIP3   OH218917   5.361   3.951   2.894  0.1092  0.3273  0.5389
 6304TIP3    H118918   5.308   3.911   2.963  1.8289 -0.7399  1.3085
 6304TIP3    H218919   5.379   3.881   2.832  0.0859  0.8348 -0.0569
 6305TIP3   OH218920   0.110   3.427   4.114  0.0779  0.7391  0.3007
 6305TIP3    H118921   0.121   3.338   4.146 -0.1947  0.6652  0.1909
 6305TIP3    H218922   0.099   3.480   4.192  0.7346  0.7518  0.3959
 6306TIP3   OH218923   2.479   0.311   1.056  0.2987  0.2051  0.1499
 6306TIP3    H118924   2.456   0.220   1.034  1.4437 -0.2062  0.5803
 6306TIP3    H218925   2.418   0.364   1.005 -1.0474 -0.8154  0.6304
 6307TIP3   OH218926   3.203   0.837   3.566 -0.0851  0.1461  0.7185
 6307TIP3    H118927   3.226   0.812   3.476  2.1266  0.6187  1.1002
 6307TIP3    H218928   3.117   0.797   3.580 -0.3567 -0.1841 -1.4949
 6308TIP3   OH218929   3.721   4.311   0.062  0.2968 -0.7463 -0.5027
 6308TIP3    H118930   3.641   4.324   0.113  0.9720  0.2537  0.3479
 6308TIP3    H218931   3.780   4.267   0.122  1.9833  2.6318  0.5731
 6309TIP3   OH218932   3.931   1.456   2.167 -0.1520 -0.2005 -0.3236
 6309TIP3    H118933   3.864   1.476   2.232  0.2502 -1.8683  0.6582
 6309TIP3    H218934   3.957   1.542   2.133 -1.3528  0.6196  0.7041
 6310TIP3   OH218935   3.482   0.610   0.006  0.7993  0.5541 -0.4794
 6310TIP3    H118936   3.426   0.598   0.082  1.3148  0.6297 -0.0835
 6310TIP3    H218937   3.557   0.553   0.022  0.9376  0.6135 -0.9017
 6311TIP3   OH218938   1.234   1.937   3.873 -0.2376  0.3107  0.5685
 6311TIP3    H118939   1.256   2.011   3.930 -0.3721  0.4197  0.4789
 6311TIP3    H218940   1.198   1.872   3.933 -0.8334  0.6113  0.5444
 6312TIP3   OH218941   5.475   4.650   1.671  0.3225 -0.3886  0.1448
 6312TIP3    H118942   5.442   4.740   1.679  1.4921 -0.0111  1.0255
 6312TIP3    H218943   5.544   4.656   1.605 -0.5120 -0.9298 -0.8003
 6313TIP3   OH218944   3.603   0.691   4.329  0.1791  0.4606  0.2703
 6313TIP3    H118945   3.535   0.752   4.301  1.0788  1.5138  0.2882
 6313TIP3    H218946   3.556   0.618   4.368 -0.9243  1.5961  1.1414
 6314TIP3   OH218947   1.881   1.671   3.664 -0.4133  0.1737  0.1056
 6314TIP3    H118948   1.894   1.761   3.636 -1.5328  0.8715  1.6713
 6314TIP3    H218949   1.805   1.641   3.613 -0.7137  0.4859  0.3664
 6315TIP3   OH218950   2.646   4.042   4.312  0.1721  0.3940  0.0177
 6315TIP3    H118951   2.562   4.002   4.331  1.2050 -0.6468  2.9509
 6315TIP3    H218952   2.684   4.061   4.398  2.1180  2.6365 -1.2053
 6316TIP3   OH218953   5.204   4.136   3.120 -0.1674  0.7229 -0.4502
 6316TIP3    H118954   5.144   4.172   3.054 -0.3826 -0.1900 -0.7702
 6316TIP3    H218955   5.189   4.041   3.116  0.0023  0.6398  0.7428
 6317TIP3   OH218956   3.001   4.116   0.918  0.3016 -0.1512  0.4545
 6317TIP3    H118957   2.918   4.105   0.963 -0.8586 -1.0819 -1.7466
 6317TIP3    H218958   3.017   4.211   0.920 -0.8568  0.0511  0.8260
 6318TIP3   OH218959   5.019   2.043   2.996 -0.3929 -0.1189  0.4116
 6318TIP3    H118960   5.026   2.071   2.904 -1.2308  1.6895  0.8563
 6318TIP3    H218961   4.962   1.966   2.993 -0.0813 -0.3308 -0.6229
 6319TIP3   OH218962   6.228   3.412   3.994  0.1125 -0.1091 -1.1394
 6319TIP3    H118963   6.288   3.400   4.068 -1.5245  0.2459  0.3074
 6319TIP3    H218964   6.241   3.333   3.941  1.7807 -0.0758 -0.8617
 6320TIP3   OH218965   2.270   2.328   5.123 -0.5928  0.4340  0.5246
 6320TIP3    H118966   2.272   2.294   5.213  0.6213 -0.8696  0.0431
 6320TIP3    H218967   2.284   2.422   5.132  0.4676  0.1846  1.6489
 6321TIP3   OH218968   2.444   1.541   1.816  0.1942  0.0151  0.1336
 6321TIP3    H118969   2.389   1.482   1.867 -0.0813 -0.0706 -0.2540
 6321TIP3    H218970   2.476   1.488   1.743  1.9138 -0.3162  1.0785
 6322TIP3   OH218971   4.481   0.476   0.036 -0.1466  0.7416  0.0930
 6322TIP3    H118972   4.478   0.380   0.027 -0.8298  0.8003 -0.3479
 6322TIP3    H218973   4.555   0.503  -0.018  1.5470  0.2692  2.0577
 6323TIP3   OH218974   6.261   3.703   2.319 -0.2167 -0.0050 -0.2393
 6323TIP3    H118975   6.229   3.633   2.262 -0.5913 -0.3051  0.3238
 6323TIP3    H218976   6.342   3.732   2.278 -1.4144  1.0824 -1.9601
 6324TIP3   OH218977   2.967   0.813   4.478 -0.2914 -0.2077 -0.7052
 6324TIP3    H118978   2.936   0.862   4.402 -0.5224  2.5499  0.9942
 6324TIP3    H218979   3.054   0.848   4.495 -0.2510 -0.7648  0.2803
 6325TIP3   OH218980   2.227   2.315   2.006 -0.0671  0.1098 -0.0030
 6325TIP3    H118981   2.288   2.350   1.941  0.2807  0.9403  0.7549
 6325TIP3    H218982   2.204   2.390   2.060 -0.1006 -0.6346  1.0365
 6326TIP3   OH218983   0.456   3.496   4.341  0.3328 -0.7361 -0.0303
 6326TIP3    H118984   0.495   3.484   4.428  0.0486  1.6932  0.5186
 6326TIP3    H218985   0.489   3.582   4.312 -2.7310  0.4013 -0.5093
 6327TIP3   OH218986   3.754   1.593   4.222  0.1007 -0.6131 -0.2426
 6327TIP3    H118987   3.758   1.614   4.129 -0.3173  0.8937  0.0564
 6327TIP3    H218988   3.665   1.564   4.237 -0.4508  1.0837  0.0309
 6328TIP3   OH218989   5.746   5.459   4.869 -0.8140 -0.2909  0.0947
 6328TIP3    H118990   5.705   5.449   4.955 -0.7345 -0.7081  0.0848
 6328TIP3    H218991   5.822   5.401   4.872  0.9156  1.8640  0.8033
 6329TIP3   OH218992   6.322   1.689   2.826  0.3838 -0.5950  0.2640
 6329TIP3    H118993   6.244   1.653   2.784 -0.4129 -0.7573  1.8085
 6329TIP3    H218994   6.289   1.754   2.888  1.6094  0.6418 -0.3184
 6330TIP3   OH218995   2.500   5.345   4.487 -0.0052 -0.4330 -0.4389
 6330TIP3    H118996   2.552   5.342   4.568 -0.3975  0.1353 -0.1588
 6330TIP3    H218997   2.453   5.262   4.485 -0.3155 -0.2749  0.1371
 6331TIP3   OH218998   0.056   4.491   2.946  0.7324 -0.7105 -0.0382
 6331TIP3    H118999   0.032   4.471   2.855 -2.3291 -0.1555  0.5303
 6331TIP3    H219000  -0.014   4.452   2.998  1.8356 -0.0636  2.0391
 6332TIP3   OH219001   3.311   3.177   1.590  0.3443 -0.6249  0.1885
 6332TIP3    H119002   3.393   3.163   1.543  1.3281  1.0792  1.2888
 6332TIP3    H219003   3.271   3.253   1.547 -0.7116 -1.4812 -0.3772
 6333TIP3   OH219004   1.576   3.747   0.785  0.3328  0.0219  0.0401
 6333TIP3    H119005   1.491   3.705   0.802  0.6167  0.2592  2.2871
 6333TIP3    H219006   1.632   3.716   0.856  1.8120  0.8069 -0.7491
 6334TIP3   OH219007   2.147   2.735   4.923  0.0253  0.2903 -0.1547
 6334TIP3    H119008   2.058   2.707   4.945 -0.5934  1.6642 -0.7169
 6334TIP3    H219009   2.190   2.747   5.008 -0.4547 -0.0317  0.1390
 6335TIP3   OH219010   1.819   1.392   2.466  0.8256 -0.0351  0.0204
 6335TIP3    H119011   1.906   1.433   2.465 -0.0301  1.9366  0.8814
 6335TIP3    H219012   1.761   1.458   2.428 -0.7304 -0.1159  2.0820
 6336TIP3   OH219013   4.502   5.800   1.395  0.2375  0.5542 -0.2717
 6336TIP3    H119014   4.416   5.765   1.374 -0.1852  2.4199 -2.0302
 6336TIP3    H219015   4.485   5.889   1.426  1.4796  0.6686  0.1506
 6337TIP3   OH219016   5.632   4.719   3.689  0.0344  0.3191  0.3391
 6337TIP3    H119017   5.559   4.771   3.656  0.4633  0.1153 -0.9959
 6337TIP3    H219018   5.590   4.645   3.734 -0.6135 -0.3403 -1.2875
 6338TIP3   OH219019   0.645   1.259   0.074 -0.7001  0.0873 -0.6506
 6338TIP3    H119020   0.648   1.330   0.011 -0.3769  2.2158  1.6231
 6338TIP3    H219021   0.698   1.290   0.148 -0.2422 -2.6812  0.3144
 6339TIP3   OH219022   1.126   5.335   2.974 -0.0892  0.2778 -0.3036
 6339TIP3    H119023   1.207   5.374   3.007 -0.0318 -0.7055  0.7849
 6339TIP3    H219024   1.155   5.261   2.922 -0.2778 -0.8136  1.0766
 6340TIP3   OH219025   5.818   0.252   0.681 -0.1542  0.1193  0.2551
 6340TIP3    H119026   5.783   0.283   0.765  1.3208  0.9932  0.5863
 6340TIP3    H219027   5.763   0.177   0.658 -0.9894  0.2580  1.6818
 6341TIP3   OH219028   3.139   4.963   3.355  0.0234 -0.3726 -0.2662
 6341TIP3    H119029   3.192   4.939   3.279  0.1747 -0.5166 -0.1151
 6341TIP3    H219030   3.138   5.059   3.354 -1.5318 -0.3674 -1.5347
 6342TIP3   OH219031   3.817   1.525   4.945  0.0371 -0.1724 -0.4805
 6342TIP3    H119032   3.910   1.535   4.967 -0.0470 -0.3784 -0.0257
 6342TIP3    H219033   3.802   1.590   4.876  0.6213 -0.4407 -0.8667
 6343TIP3   OH219034   5.377   4.034   3.895  0.0910  0.2404  0.4402
 6343TIP3    H119035   5.286   4.037   3.865  0.0408 -1.7953  0.2265
 6343TIP3    H219036   5.393   3.941   3.911  1.2636  0.8476  3.2437
 6344TIP3   OH219037   1.913   1.963   2.746  0.4542  0.3639  0.3572
 6344TIP3    H119038   1.987   2.022   2.737 -0.2521  1.0471 -1.4567
 6344TIP3    H219039   1.941   1.882   2.704  0.0869  0.7201 -0.5891
 6345TIP3   OH219040   4.386   5.430   4.656  0.5153  0.0978  0.0781
 6345TIP3    H119041   4.434   5.474   4.586 -0.8706  1.7246  0.0825
 6345TIP3    H219042   4.389   5.491   4.729 -2.8629  1.0860 -0.4350
 6346TIP3   OH219043   2.632   5.732   4.453  0.0436 -0.0956 -0.1310
 6346TIP3    H119044   2.611   5.821   4.425 -0.5494 -0.0863  0.3294
 6346TIP3    H219045   2.713   5.741   4.503 -0.5988  0.3570  0.8575
 6347TIP3   OH219046   2.017   3.348   4.417 -0.3637 -0.3272  0.3652
 6347TIP3    H119047   2.014   3.365   4.323  0.1876  3.1218  0.8410
 6347TIP3    H219048   2.102   3.307   4.431  0.0359  0.1417 -0.5483
 6348TIP3   OH219049   4.031   4.481   1.561  0.3633  0.3288  0.0035
 6348TIP3    H119050   4.052   4.419   1.491  0.9872 -0.3282  0.7547
 6348TIP3    H219051   4.075   4.446   1.638 -0.9918  0.5784  0.9303
 6349TIP3   OH219052   2.995   4.948   4.761  0.3466  0.0112  0.7720
 6349TIP3    H119053   2.971   4.857   4.741 -0.3099  0.1109  1.0841
 6349TIP3    H219054   3.090   4.951   4.749 -0.0151  0.7445 -5.3749
 6350TIP3   OH219055   4.451   1.472   3.087  0.0160 -0.3084  0.3281
 6350TIP3    H119056   4.519   1.413   3.120  1.3163  0.4782 -0.8197
 6350TIP3    H219057   4.385   1.414   3.049  0.5239 -1.0650  0.5776
 6351TIP3   OH219058   5.154   0.952   3.849 -0.4603  0.2685 -0.1284
 6351TIP3    H119059   5.070   0.928   3.887 -0.5494  1.3802  0.4492
 6351TIP3    H219060   5.208   0.975   3.925  0.0709  0.4376 -0.5500
 6352TIP3   OH219061   6.045   1.247   0.968  0.5977  0.7113 -0.0873
 6352TIP3    H119062   5.965   1.292   0.943 -1.2202  0.0352  3.8573
 6352TIP3    H219063   6.053   1.176   0.905 -1.7621  0.9303 -0.7264
 6353TIP3   OH219064   3.140   2.934   4.033 -0.1207  0.0933  0.4996
 6353TIP3    H119065   3.190   2.898   3.960 -0.2437  1.0853 -0.0802
 6353TIP3    H219066   3.151   2.869   4.103 -0.6924 -1.2922 -0.6421
 6354TIP3   OH219067   3.421   4.521   1.574 -0.3760  0.0473  0.2721
 6354TIP3    H119068   3.486   4.566   1.521 -0.0306  0.4881  1.0478
 6354TIP3    H219069   3.439   4.550   1.664 -0.7906 -0.8559  0.6617
 6355TIP3   OH219070   0.571   2.585   5.009  0.5180  0.1844  0.8655
 6355TIP3    H119071   0.478   2.601   5.024  0.7330  2.5222  0.2460
 6355TIP3    H219072   0.580   2.584   4.914  1.2857  1.6142  0.8804
 6356TIP3   OH219073   1.012   2.491   2.961 -0.0703 -0.3161  0.1707
 6356TIP3    H119074   1.032   2.450   3.045 -1.9858  1.5499  1.6307
 6356TIP3    H219075   0.924   2.460   2.940 -0.5598  1.0714  0.0774
 6357TIP3   OH219076   2.885   4.820   3.326  0.1994 -0.1111  0.1777
 6357TIP3    H119077   2.871   4.826   3.420  0.7543 -1.0095  0.3266
 6357TIP3    H219078   2.958   4.880   3.308 -0.1427  0.3388  0.2469
 6358TIP3   OH219079   4.268   4.752   3.976 -0.6208 -0.3514 -0.2232
 6358TIP3    H119080   4.354   4.750   4.019 -1.2527  0.2571  1.1101
 6358TIP3    H219081   4.252   4.660   3.951  1.1833 -0.2261 -2.1597
 6359TIP3   OH219082   4.157   2.832   4.241 -0.3066 -0.0465 -0.1654
 6359TIP3    H119083   4.165   2.845   4.147 -0.6731  0.9315 -0.0739
 6359TIP3    H219084   4.064   2.815   4.255 -0.0823 -1.3246 -0.0938
 6360TIP3   OH219085   3.955   0.982   5.078  0.5103  0.0668 -0.5860
 6360TIP3    H119086   3.943   0.889   5.062 -2.8289  0.0404  1.2379
 6360TIP3    H219087   4.011   0.986   5.155 -1.3143 -0.6057  0.8366
 6361TIP3   OH219088   6.297   3.952   2.496  0.0296 -0.0943  0.6941
 6361TIP3    H119089   6.253   3.881   2.449  0.5296 -0.3740  0.6367
 6361TIP3    H219090   6.386   3.920   2.510  0.1385  0.3485  1.0512
 6362TIP3   OH219091   4.757   3.318   3.471 -0.1589  0.0674 -0.4979
 6362TIP3    H119092   4.794   3.368   3.544 -0.3090 -0.1996 -0.2365
 6362TIP3    H219093   4.685   3.268   3.510  0.3196 -0.7554 -0.6439
 6363TIP3   OH219094   2.844   1.971   5.117  0.2294  0.1498 -0.0733
 6363TIP3    H119095   2.936   1.998   5.107 -0.2790  1.9109 -0.3715
 6363TIP3    H219096   2.810   2.030   5.184 -0.3624 -1.3902  1.0314
 6364TIP3   OH219097   2.900   5.160   0.667  0.1344  0.0475  0.3195
 6364TIP3    H119098   2.903   5.119   0.581  1.0802  0.8820 -0.0678
 6364TIP3    H219099   2.925   5.090   0.728  1.8252  0.0264 -0.3344
 6365TIP3   OH219100   5.630   3.550   0.342 -0.6290  0.3491  0.2961
 6365TIP3    H119101   5.707   3.581   0.389 -0.4898 -0.1328  0.3898
 6365TIP3    H219102   5.556   3.592   0.386 -0.4262  0.7527  0.2530
 6366TIP3   OH219103   5.741   3.596   4.505  0.1827  0.2525 -0.2528
 6366TIP3    H119104   5.814   3.646   4.466  0.7981 -1.0927 -0.8988
 6366TIP3    H219105   5.739   3.515   4.455  0.2331 -1.0697  1.7853
 6367TIP3   OH219106   4.831   1.337   0.049 -0.1225  0.4504  0.6120
 6367TIP3    H119107   4.815   1.385   0.130  0.5234  0.0676  0.9723
 6367TIP3    H219108   4.860   1.250   0.078 -2.5076 -0.6462  0.0060
 6368TIP3   OH219109   5.708   4.382   1.776 -0.4774  0.1366  0.8611
 6368TIP3    H119110   5.696   4.370   1.871 -0.2080  0.4621  0.9431
 6368TIP3    H219111   5.727   4.476   1.767 -0.9582  0.1976  0.4321
 6369TIP3   OH219112   3.002   5.573   2.845  0.0804  0.2493 -0.4179
 6369TIP3    H119113   3.007   5.626   2.924 -0.3542  0.2635 -0.3974
 6369TIP3    H219114   3.093   5.555   2.822  0.2637  1.6169 -0.8407
 6370TIP3   OH219115   1.567   2.446   1.718  0.0059 -0.0688  0.1016
 6370TIP3    H119116   1.590   2.433   1.626  1.7286 -1.8641  0.7103
 6370TIP3    H219117   1.571   2.541   1.731  0.2970  0.1719 -1.5348
 6371TIP3   OH219118   0.763   4.124   4.512  0.2537  0.3517  0.5159
 6371TIP3    H119119   0.820   4.148   4.585  0.6007 -2.0856  1.1538
 6371TIP3    H219120   0.680   4.100   4.553 -1.3450  3.7910 -0.3979
 6372TIP3   OH219121   4.719   2.478   3.151  0.2362 -0.3373  0.0354
 6372TIP3    H119122   4.760   2.550   3.102  1.1144 -0.3482  0.7266
 6372TIP3    H219123   4.769   2.401   3.126  0.3992 -0.4167  0.6142
 6373TIP3   OH219124   4.976   3.693   0.784 -0.1338  0.4835 -0.4962
 6373TIP3    H119125   4.995   3.768   0.727 -1.0968 -0.5033 -2.2105
 6373TIP3    H219126   5.016   3.619   0.739 -1.2243 -0.3803 -0.0808
 6374TIP3   OH219127   2.169   1.451   2.472  0.6492 -0.4039  0.3231
 6374TIP3    H119128   2.263   1.455   2.455  0.5235 -0.2029 -0.3492
 6374TIP3    H219129   2.162   1.414   2.561  1.3638 -0.1416  0.4935
 6375TIP3   OH219130   4.316   4.116   4.403 -0.5108  0.2774 -0.1756
 6375TIP3    H119131   4.404   4.079   4.391 -1.6148 -2.0926 -1.8163
 6375TIP3    H219132   4.294   4.152   4.318 -1.0473  1.0795  0.2941
 6376TIP3   OH219133   1.988   4.218   2.271  0.1258  0.0433 -0.0570
 6376TIP3    H119134   1.978   4.295   2.327  1.6455 -0.6256  1.2218
 6376TIP3    H219135   2.069   4.235   2.222  2.5993 -2.2105  2.9155
 6377TIP3   OH219136   5.767   3.849   0.463  0.1072 -0.5134  0.3323
 6377TIP3    H119137   5.832   3.894   0.518  1.8024  2.3009 -3.5365
 6377TIP3    H219138   5.817   3.781   0.419  0.3847  1.0679 -1.9658
 6378TIP3   OH219139   0.492   2.986   0.753 -0.1066  0.7311  0.0505
 6378TIP3    H119140   0.571   2.966   0.704 -0.7884  0.1996 -0.8775
 6378TIP3    H219141   0.504   3.076   0.784  1.1558  0.4034  0.5627
 6379TIP3   OH219142   0.325   4.026   3.495  0.0035  0.2478  0.2036
 6379TIP3    H119143   0.256   4.002   3.433  2.1805 -2.1306 -1.4872
 6379TIP3    H219144   0.364   4.105   3.459  0.6376 -0.5912 -1.0310
 6380TIP3   OH219145   4.552   0.900   1.059 -0.1402 -0.2873  0.4600
 6380TIP3    H119146   4.464   0.862   1.059 -0.2477 -0.1061 -0.9355
 6380TIP3    H219147   4.567   0.927   1.150 -1.4799 -0.4224  0.7445
 6381TIP3   OH219148   5.693   2.428   0.898  0.5658 -0.2427  0.8441
 6381TIP3    H119149   5.772   2.398   0.852  0.3720  1.1046 -0.4523
 6381TIP3    H219150   5.719   2.511   0.938 -0.2157  0.2838  0.2890
 6382TIP3   OH219151   1.702   5.820   1.340 -0.1944 -0.2600 -0.0194
 6382TIP3    H119152   1.779   5.846   1.390 -0.6159 -0.6554  0.8484
 6382TIP3    H219153   1.670   5.901   1.300 -0.0443  0.1179  0.6213
 6383TIP3   OH219154   5.270   1.051   1.888 -0.3058  0.2587 -0.3471
 6383TIP3    H119155   5.260   1.141   1.858 -0.6515  0.7053  1.0801
 6383TIP3    H219156   5.182   1.026   1.919 -0.4464 -0.8932 -1.5389
 6384TIP3   OH219157   3.147   2.107   1.768  0.1616 -0.8717  0.0116
 6384TIP3    H119158   3.149   2.052   1.847 -0.6149 -0.6217  0.2211
 6384TIP3    H219159   3.172   2.049   1.697 -1.6440 -1.7945  0.0791
 6385TIP3   OH219160   5.703   5.989   2.688  0.1909 -0.3083  0.3388
 6385TIP3    H119161   5.763   5.917   2.705 -2.4864 -2.7551  0.0816
 6385TIP3    H219162   5.707   6.003   2.594  0.4379 -0.3295  0.3445
 6386TIP3   OH219163   1.626   0.261   4.799  0.1416  0.4898 -0.0016
 6386TIP3    H119164   1.530   0.262   4.803  0.1693  0.4175  0.9166
 6386TIP3    H219165   1.648   0.337   4.746 -0.4531 -0.0681 -1.0811
 6387TIP3   OH219166   5.783   4.733   1.155 -0.5907  0.7277  0.0511
 6387TIP3    H119167   5.794   4.646   1.116 -2.3253 -0.0125  1.0884
 6387TIP3    H219168   5.709   4.771   1.107  0.0647  1.6020 -0.2939
 6388TIP3   OH219169   3.010   3.161   3.709  0.1312 -0.2482  0.6660
 6388TIP3    H119170   3.000   3.240   3.657  1.0162 -0.7053 -0.2495
 6388TIP3    H219171   3.105   3.151   3.719 -0.0021 -0.6494  1.6303
 6389TIP3   OH219172   0.221   0.337   2.548  0.0352 -0.7671  0.7187
 6389TIP3    H119173   0.188   0.377   2.628 -0.2136 -0.1201  0.3015
 6389TIP3    H219174   0.146   0.290   2.512 -0.6972  1.2169 -0.5579
 6390TIP3   OH219175   5.444   3.500   3.730  0.0218 -0.4676  0.2099
 6390TIP3    H119176   5.538   3.485   3.716 -0.0766  0.0678 -1.2070
 6390TIP3    H219177   5.411   3.417   3.765  1.0251 -0.6503  0.7630
 6391TIP3   OH219178   4.343   3.925   0.591 -0.4375  0.1301  0.5689
 6391TIP3    H119179   4.280   3.861   0.557 -2.4051  0.8134  2.6646
 6391TIP3    H219180   4.290   4.002   0.610  1.2710  1.1778  1.3185
 6392TIP3   OH219181   3.121   3.840   2.459 -0.1646  0.0149  0.3587
 6392TIP3    H119182   3.209   3.841   2.422  0.9948  1.3545  2.8915
 6392TIP3    H219183   3.107   3.749   2.486  0.5192 -0.1552  0.1600
 6393TIP3   OH219184   4.030   1.955   4.278 -0.1797  0.3459  0.4167
 6393TIP3    H119185   4.031   1.995   4.191 -1.8994 -0.3103  0.0656
 6393TIP3    H219186   4.087   1.878   4.269 -1.2436 -0.3633 -0.4755
 6394TIP3   OH219187   1.252   1.512   0.177 -0.5263  0.0673 -0.5004
 6394TIP3    H119188   1.192   1.583   0.199  1.0436  1.5123 -0.6375
 6394TIP3    H219189   1.331   1.556   0.144  0.4832 -1.7485 -0.6907
 6395TIP3   OH219190   6.311   0.892   0.997  0.2564 -0.2547  0.5361
 6395TIP3    H119191   6.372   0.957   0.962  1.2499 -0.8029  1.1861
 6395TIP3    H219192   6.273   0.850   0.920 -1.8350  2.3170  0.0399
 6396TIP3   OH219193   4.235   3.171   2.340  0.8166  0.8385 -0.3148
 6396TIP3    H119194   4.224   3.248   2.284 -1.3566  2.5993  2.2599
 6396TIP3    H219195   4.258   3.207   2.426  1.3982 -1.5236  0.6028
 6397TIP3   OH219196   3.768   3.665   3.006  0.2192 -0.1976  0.4172
 6397TIP3    H119197   3.819   3.745   2.994 -1.4171  0.6430 -1.7234
 6397TIP3    H219198   3.694   3.692   3.060  0.8823 -0.8755  1.6878
 6398TIP3   OH219199   4.715   2.813   2.478 -0.8960 -0.0700 -0.0344
 6398TIP3    H119200   4.628   2.822   2.516 -0.1776 -1.7561  2.2158
 6398TIP3    H219201   4.756   2.899   2.491 -1.4351  0.0433  1.0162
 6399TIP3   OH219202   0.854   1.640   2.478 -0.3728  0.4123 -0.5531
 6399TIP3    H119203   0.896   1.657   2.393  2.8694  0.3813  0.8992
 6399TIP3    H219204   0.882   1.712   2.534  0.0504 -1.0927  1.2757
 6400TIP3   OH219205   2.454   5.632   0.231 -0.5718  0.1661 -0.1337
 6400TIP3    H119206   2.438   5.539   0.246 -0.9431  0.5997  2.6725
 6400TIP3    H219207   2.398   5.654   0.157 -0.6374 -1.7803 -0.7185
 6401TIP3   OH219208   5.385   5.139   3.063  0.4392  0.7041  0.4341
 6401TIP3    H119209   5.375   5.225   3.021  0.1432  0.3953 -0.1435
 6401TIP3    H219210   5.339   5.147   3.146 -1.8289  0.3355 -0.7138
 6402TIP3   OH219211   1.564   4.599   2.375  0.1255 -0.1438  0.1340
 6402TIP3    H119212   1.504   4.529   2.348 -0.1918  0.3130 -0.3458
 6402TIP3    H219213   1.609   4.625   2.295 -0.2614  0.6788  0.1735
 6403TIP3   OH219214   4.776   0.890   4.757 -0.7355  0.8990 -0.3556
 6403TIP3    H119215   4.847   0.945   4.791 -0.2449  1.0451 -1.5479
 6403TIP3    H219216   4.791   0.889   4.662 -1.2443 -0.6053 -0.4346
 6404TIP3   OH219217   0.155   3.191   2.426  0.1381 -0.3473 -0.1645
 6404TIP3    H119218   0.201   3.241   2.493 -1.5132 -0.7107  1.3350
 6404TIP3    H219219   0.133   3.108   2.469 -0.4088 -0.8572 -1.3701
 6405TIP3   OH219220   3.834   5.653   2.565  0.0788  0.0960  0.3472
 6405TIP3    H119221   3.880   5.620   2.642  1.7073 -0.4127 -0.8039
 6405TIP3    H219222   3.742   5.634   2.582  0.3133  0.6105  2.4611
 6406TIP3   OH219223   5.234   2.972   3.463 -0.1953  0.3480 -0.4211
 6406TIP3    H119224   5.300   2.927   3.410 -0.8929 -0.1660 -0.8708
 6406TIP3    H219225   5.159   2.982   3.404 -1.1283 -0.5610  0.5590
 6407TIP3   OH219226   2.576   1.810   2.626  0.3637 -0.0498  0.1412
 6407TIP3    H119227   2.490   1.768   2.616  0.3565 -0.6669  2.3572
 6407TIP3    H219228   2.607   1.822   2.536 -2.2684  0.7204 -0.7593
 6408TIP3   OH219229   3.632   3.536   4.155  0.0213 -0.7478  0.4633
 6408TIP3    H119230   3.723   3.532   4.128 -0.3360  1.7577 -1.5010
 6408TIP3    H219231   3.623   3.622   4.197 -1.5230 -0.7221  0.1484
 6409TIP3   OH219232   1.704   1.958   4.900 -0.1804 -0.2814  0.1437
 6409TIP3    H119233   1.724   1.873   4.940 -1.4093 -1.3290 -1.3715
 6409TIP3    H219234   1.783   1.980   4.850 -0.4832 -1.4116 -0.8723
 6410TIP3   OH219235   3.638   0.015   4.638  0.0807  0.2085  0.7321
 6410TIP3    H119236   3.638  -0.067   4.588 -1.4580 -0.6631  2.0658
 6410TIP3    H219237   3.691   0.075   4.585  1.1329 -1.5888 -0.3513
 6411TIP3   OH219238   4.642   5.536   4.551 -0.3424  0.2075 -0.0864
 6411TIP3    H119239   4.672   5.624   4.526 -1.2765  0.3618 -0.6939
 6411TIP3    H219240   4.681   5.522   4.637 -0.9675  1.6201  0.4548
 6412TIP3   OH219241   2.104   0.638   2.059 -1.0155 -0.4538  0.6523
 6412TIP3    H119242   2.081   0.726   2.026  1.1004  0.0488  0.3612
 6412TIP3    H219243   2.039   0.620   2.127  0.2525  2.7008  2.9411
 6413TIP3   OH219244   4.679   1.435   0.598  0.2239 -0.4176  0.4715
 6413TIP3    H119245   4.702   1.446   0.690 -0.9119 -0.8567  0.8133
 6413TIP3    H219246   4.628   1.355   0.594 -0.5291  0.0830 -0.3965
 6414TIP3   OH219247   4.462   5.364   0.382  0.3362  0.1574  0.6907
 6414TIP3    H119248   4.553   5.371   0.351  0.2653  1.4199  0.7173
 6414TIP3    H219249   4.454   5.433   0.448 -1.2525  1.5597 -0.8744
 6415TIP3   OH219250   4.447   3.971   0.941  0.6040  0.0818  0.6375
 6415TIP3    H119251   4.487   4.011   0.863  1.0749 -1.0597  0.2729
 6415TIP3    H219252   4.510   3.989   1.011  0.5219  0.4889  0.6119
 6416TIP3   OH219253   2.968   1.979   1.222 -0.4170 -0.1415 -0.1287
 6416TIP3    H119254   2.999   1.918   1.289 -1.4601  0.1891  0.6716
 6416TIP3    H219255   2.994   1.938   1.139 -0.8311 -1.5277  0.4014
 6417TIP3   OH219256   0.266   0.895   4.487  0.3593 -0.0528  0.2994
 6417TIP3    H119257   0.239   0.826   4.548 -0.2342 -0.2869 -0.2157
 6417TIP3    H219258   0.362   0.892   4.490  0.3435 -0.7516  0.4600
 6418TIP3   OH219259   0.355   1.616   3.632  0.2868 -0.3375  0.2967
 6418TIP3    H119260   0.315   1.703   3.635  0.0843 -0.4211  0.0809
 6418TIP3    H219261   0.388   1.608   3.543 -0.2935 -0.7424  0.1137
 6419TIP3   OH219262   0.501   4.771   1.271  0.1018 -0.2967  0.4883
 6419TIP3    H119263   0.552   4.799   1.347 -1.4724  0.5042  1.3093
 6419TIP3    H219264   0.541   4.817   1.197  1.8308 -1.3028  0.7476
 6420TIP3   OH219265   3.198   4.791   1.682 -0.5618  0.0720 -0.3300
 6420TIP3    H119266   3.149   4.711   1.698 -1.4484  0.1832 -2.2010
 6420TIP3    H219267   3.155   4.831   1.606  1.9378  0.5775 -1.5835
 6421TIP3   OH219268   4.443   4.480   4.462 -0.2597  0.2341  0.7290
 6421TIP3    H119269   4.436   4.407   4.524  0.6650  0.3815  1.0145
 6421TIP3    H219270   4.466   4.439   4.379 -1.2064  0.0658  0.5376
 6422TIP3   OH219271   3.644   3.245   0.532 -0.3947 -0.1188  0.3032
 6422TIP3    H119272   3.656   3.298   0.612 -0.4618  0.7253 -0.2364
 6422TIP3    H219273   3.708   3.281   0.471  0.2592 -1.3411  0.2527
 6423TIP3   OH219274   5.550   4.224   2.578  0.2839  0.5951  0.6088
 6423TIP3    H119275   5.475   4.230   2.637  0.1457  0.7253  0.4226
 6423TIP3    H219276   5.611   4.165   2.622 -0.5477 -0.6908  0.1035
 6424TIP3   OH219277   6.297   3.245   2.759 -0.6609  0.2281  0.5919
 6424TIP3    H119278   6.260   3.166   2.720 -1.2422  0.5974  0.3663
 6424TIP3    H219279   6.232   3.272   2.824  0.0122 -0.0415  1.3937
 6425TIP3   OH219280   5.041   3.356   0.256  0.5291  0.2441 -0.2885
 6425TIP3    H119281   4.966   3.387   0.205 -0.5746 -0.8266  0.6206
 6425TIP3    H219282   5.101   3.430   0.258 -0.4837  1.1172 -1.0802
 6426TIP3   OH219283   2.745   3.399   4.888 -0.1654 -0.2579  0.4181
 6426TIP3    H119284   2.697   3.424   4.809  0.5623  0.8013  0.2975
 6426TIP3    H219285   2.706   3.315   4.914  0.3181 -1.1975 -1.6886
 6427TIP3   OH219286   0.921   5.043   1.443 -0.0534  0.0376  0.3369
 6427TIP3    H119287   0.939   5.102   1.516  1.6769  1.0186 -0.8198
 6427TIP3    H219288   0.936   5.097   1.365  0.9663 -1.7517 -0.7503
 6428TIP3   OH219289   1.767   4.836   3.193  0.4569 -0.2369 -0.4178
 6428TIP3    H119290   1.708   4.761   3.183  1.0445 -0.8523  0.5469
 6428TIP3    H219291   1.743   4.874   3.278  0.2646  0.6013 -0.8316
 6429TIP3   OH219292   6.021   0.029   2.807  0.0283  0.0862  0.1386
 6429TIP3    H119293   6.061   0.005   2.722  0.2919 -2.9749  0.9919
 6429TIP3    H219294   5.938   0.070   2.784  0.7053  0.5542 -1.6225
 6430TIP3   OH219295   1.581   3.450   2.235  0.2906  0.2020 -0.1695
 6430TIP3    H119296   1.504   3.395   2.251 -0.4007  1.2646  0.2703
 6430TIP3    H219297   1.652   3.407   2.284 -0.6616  0.7032  1.7644
 6431TIP3   OH219298   0.732   5.859   1.408  0.7965  0.9540  0.2906
 6431TIP3    H119299   0.680   5.928   1.367  2.4065  2.5001  0.7205
 6431TIP3    H219300   0.668   5.797   1.441 -0.6660  1.4768 -1.3987
 6432TIP3   OH219301   4.268   4.074   3.432  0.5232  0.2246 -0.6236
 6432TIP3    H119302   4.341   4.094   3.373 -1.7128  0.8135 -3.4012
 6432TIP3    H219303   4.193   4.059   3.374 -2.0857  1.6880  2.0630
 6433TIP3   OH219304   2.164   4.765   4.731 -0.1935 -0.4772 -0.3668
 6433TIP3    H119305   2.258   4.755   4.723 -0.1335 -1.3364  1.0631
 6433TIP3    H219306   2.152   4.854   4.765  0.2324 -0.9439  1.0693
 6434TIP3   OH219307   5.474   2.916   4.766 -0.1617 -0.0360  0.0049
 6434TIP3    H119308   5.456   2.869   4.684  0.1475  0.5303 -0.3935
 6434TIP3    H219309   5.414   2.876   4.829 -0.6192 -0.2779 -0.5634
 6435TIP3   OH219310   1.245   2.849   0.714 -0.3116  0.6536 -0.7157
 6435TIP3    H119311   1.168   2.876   0.663 -0.0281  0.5292 -1.2084
 6435TIP3    H219312   1.313   2.912   0.690 -0.5014  1.3008  0.3844
 6436TIP3   OH219313   5.056   0.476   1.983 -0.4359  0.3213  0.6039
 6436TIP3    H119314   4.985   0.431   1.936 -0.9037  0.5277  1.1011
 6436TIP3    H219315   5.094   0.535   1.918  1.8039 -2.4418 -0.8508
 6437TIP3   OH219316   4.073   5.983   0.416  0.1739  0.2716 -0.3278
 6437TIP3    H119317   4.064   5.913   0.479 -1.4248 -0.6884 -1.5361
 6437TIP3    H219318   4.152   6.031   0.443  1.5952 -2.2530  0.2423
 6438TIP3   OH219319   4.113   5.685   0.097 -0.2313 -0.0988 -0.1585
 6438TIP3    H119320   4.103   5.777   0.073 -1.0976 -0.0342  0.4085
 6438TIP3    H219321   4.099   5.637   0.016 -0.7580  0.2266 -0.2614
 6439TIP3   OH219322   2.301   1.596   0.847 -0.1172  0.0236 -0.3675
 6439TIP3    H119323   2.357   1.523   0.819  0.1727  0.4110 -0.8112
 6439TIP3    H219324   2.313   1.662   0.779 -0.4913  0.4297 -0.0391
 6440TIP3   OH219325   1.008   0.533   0.129  0.1582 -0.2580 -0.1442
 6440TIP3    H119326   0.973   0.529   0.218 -0.4446 -0.4713 -0.3892
 6440TIP3    H219327   0.967   0.460   0.084 -0.0745  0.2699 -0.7936
 6441TIP3   OH219328   2.885   2.573   4.869 -0.3875 -0.1980 -0.3089
 6441TIP3    H119329   2.946   2.501   4.859 -1.2175 -1.0573  0.5792
 6441TIP3    H219330   2.851   2.588   4.781  0.5273 -0.2127 -0.6730
 6442TIP3   OH219331   2.090   5.306   2.847 -0.2413  0.2965  0.2281
 6442TIP3    H119332   2.073   5.217   2.816 -0.0483  0.3561 -0.0524
 6442TIP3    H219333   2.038   5.314   2.927 -0.3031 -0.0493  0.2242
 6443TIP3   OH219334   4.720   0.341   2.541  0.1711  0.4851  0.1871
 6443TIP3    H119335   4.705   0.376   2.628 -1.9410  0.0579  0.0364
 6443TIP3    H219336   4.638   0.355   2.494 -0.1299 -2.7810 -0.5028
 6444TIP3   OH219337   1.568   1.408   4.527 -0.2106  0.0478 -0.4294
 6444TIP3    H119338   1.662   1.408   4.507  0.1165 -0.9743  1.0058
 6444TIP3    H219339   1.537   1.323   4.497 -0.2619 -0.4056  0.8625
 6445TIP3   OH219340   2.037   5.863   1.315  0.2360 -0.5025  0.1733
 6445TIP3    H119341   2.089   5.875   1.395 -0.1260  0.2544  0.3036
 6445TIP3    H219342   1.991   5.946   1.304 -0.4198 -0.9232 -0.3204
 6446TIP3   OH219343   1.670   5.443   4.332  0.1678 -0.1823 -0.1420
 6446TIP3    H119344   1.634   5.478   4.251  0.6843 -0.1375 -0.3494
 6446TIP3    H219345   1.596   5.445   4.393 -0.1562  0.0123 -0.5370
 6447TIP3   OH219346   3.799   3.208   4.249 -0.3401 -0.1442  0.1220
 6447TIP3    H119347   3.806   3.144   4.320  0.8552  0.8357  0.9313
 6447TIP3    H219348   3.744   3.278   4.285  1.2463  0.9245  0.5781
 6448TIP3   OH219349   0.383   1.744   2.951 -0.5828  0.3612  0.2239
 6448TIP3    H119350   0.370   1.838   2.938  1.8978  0.5207 -1.6624
 6448TIP3    H219351   0.463   1.738   3.003  0.0335 -0.6922 -0.8081
 6449TIP3   OH219352   2.133   4.634   1.503 -0.1653  0.0852  0.1794
 6449TIP3    H119353   2.176   4.709   1.463  0.4728 -1.0065 -1.2610
 6449TIP3    H219354   2.056   4.618   1.449 -0.4096 -0.1680  0.5980
 6450TIP3   OH219355   0.698   5.574   3.177  0.7333  0.3798 -0.2273
 6450TIP3    H119356   0.759   5.646   3.190  2.3618 -0.5210 -2.3388
 6450TIP3    H219357   0.729   5.506   3.236 -0.3663  1.0806  1.2259
 6451TIP3   OH219358   5.381   5.717   1.697 -0.4505 -0.3816 -0.0766
 6451TIP3    H119359   5.451   5.777   1.671  0.1355 -1.2207 -0.4585
 6451TIP3    H219360   5.338   5.693   1.615 -0.9824 -0.1371  0.1234
 6452TIP3   OH219361   0.840   2.606   0.575 -0.1702 -0.1730  0.2070
 6452TIP3    H119362   0.917   2.631   0.626  0.0006  2.0018 -1.0209
 6452TIP3    H219363   0.869   2.607   0.484 -1.0463 -1.8156 -0.1442
 6453TIP3   OH219364   0.330   4.953   4.784 -0.0934  0.7126  0.5254
 6453TIP3    H119365   0.255   4.903   4.752 -0.7776  1.3847  1.0429
 6453TIP3    H219366   0.368   4.898   4.853  1.8118 -1.0691 -1.7704
 6454TIP3   OH219367   3.125   2.008   2.429  0.4155  0.7292  0.4668
 6454TIP3    H119368   3.054   1.958   2.468  1.0823 -2.0734 -1.5392
 6454TIP3    H219369   3.204   1.978   2.475  0.7922 -0.0306 -0.6016
 6455TIP3   OH219370   1.169   2.239   2.195  0.1222  0.1055 -0.2425
 6455TIP3    H119371   1.161   2.324   2.152  1.2858  1.2226  1.6098
 6455TIP3    H219372   1.228   2.189   2.138  0.7974  1.1654 -0.5077
 6456TIP3   OH219373   3.953   1.314   0.009 -0.3780  0.1584 -0.0102
 6456TIP3    H119374   3.986   1.404   0.013 -0.5802  0.1822  1.8688
 6456TIP3    H219375   3.862   1.321   0.037 -0.3969 -0.6414  0.1365
 6457TIP3   OH219376   4.566   5.456   1.179  1.4311 -0.7068  0.6013
 6457TIP3    H119377   4.613   5.536   1.154 -0.5402  0.4975  0.5299
 6457TIP3    H219378   4.557   5.463   1.274  0.5352 -0.3937  0.5041
 6458TIP3   OH219379   1.965   5.063   1.104 -0.5296  0.0940  0.2313
 6458TIP3    H119380   1.989   5.137   1.048 -0.3345 -0.6463 -0.7002
 6458TIP3    H219381   1.910   5.008   1.049  0.3277 -1.0652  0.4804
 6459TIP3   OH219382   6.004   2.617   1.205  0.7949  0.5086 -0.1401
 6459TIP3    H119383   5.983   2.591   1.115  0.0324  1.8204 -0.3797
 6459TIP3    H219384   5.972   2.545   1.259  0.3572  0.1440 -0.8677
 6460TIP3   OH219385   4.054   3.381   4.202  0.6293  0.3700  0.0220
 6460TIP3    H119386   3.981   3.439   4.221 -0.0841  1.2109 -4.2905
 6460TIP3    H219387   4.022   3.293   4.224  0.0614  1.0554  2.2545
 6461TIP3   OH219388   0.576   2.983   2.853 -0.0663 -0.0639  0.0077
 6461TIP3    H119389   0.640   2.912   2.855 -2.1268 -2.0438  2.3476
 6461TIP3    H219390   0.609   3.047   2.916  1.6242  0.9954 -1.8543
 6462TIP3   OH219391   4.188   4.586   2.084  0.7558 -0.1403 -0.5229
 6462TIP3    H119392   4.163   4.678   2.089 -0.8281 -0.3359 -3.2069
 6462TIP3    H219393   4.109   4.538   2.108  0.8919 -0.8000 -1.3526
 6463TIP3   OH219394   1.801   2.726   3.542  0.3527  0.3458 -0.3160
 6463TIP3    H119395   1.721   2.778   3.536  1.9335  3.1220  0.8136
 6463TIP3    H219396   1.856   2.757   3.471  0.8602 -0.8322 -0.4691
 6464TIP3   OH219397   3.307   0.589   4.840 -0.1812  0.3011  0.0677
 6464TIP3    H119398   3.344   0.645   4.908 -1.5602  2.4908 -0.8898
 6464TIP3    H219399   3.217   0.619   4.829  0.0197  0.1683 -2.8158
 6465TIP3   OH219400   1.908   5.396   5.045  0.6195  0.7350  1.1962
 6465TIP3    H119401   1.882   5.306   5.066  0.5328  0.6891  0.8888
 6465TIP3    H219402   1.830   5.435   5.006  1.2878  0.2825 -0.6975
 6466TIP3   OH219403   5.206   5.117   1.040 -0.0231  0.0701 -0.2180
 6466TIP3    H119404   5.222   5.073   0.956  2.4598 -1.3397  0.8602
 6466TIP3    H219405   5.184   5.046   1.100  1.3632  0.5844  0.9763
 6467TIP3   OH219406   4.255   3.809   1.147 -0.4546 -0.2846 -0.1773
 6467TIP3    H119407   4.293   3.724   1.126  0.2330 -0.3515  1.1679
 6467TIP3    H219408   4.330   3.861   1.177 -0.9506  0.6188 -0.4848
 6468TIP3   OH219409   1.525   2.384   4.794  0.2782  0.2939 -0.0988
 6468TIP3    H119410   1.579   2.331   4.853  0.1233  0.0906 -0.1394
 6468TIP3    H219411   1.446   2.403   4.845  1.2715  2.4222  0.7840
 6469TIP3   OH219412   3.849   2.867   1.666  0.2362  0.3033  0.3962
 6469TIP3    H119413   3.825   2.792   1.721 -0.0172  0.3842  0.3981
 6469TIP3    H219414   3.778   2.873   1.602  0.0574  0.7796  0.6362
 6470TIP3   OH219415   1.126   4.691   1.714 -0.1980 -0.1026 -0.3925
 6470TIP3    H119416   1.219   4.695   1.691 -0.2560  2.6115 -0.5665
 6470TIP3    H219417   1.108   4.776   1.754 -2.8953 -0.0134 -1.5596
 6471TIP3   OH219418   3.359   2.347   1.760 -0.3675 -0.0027 -0.4341
 6471TIP3    H119419   3.413   2.274   1.789 -0.7731  0.2608  1.1213
 6471TIP3    H219420   3.269   2.314   1.766 -0.4735  0.1376 -1.2189
 6472TIP3   OH219421   3.205   1.663   2.405 -0.6382 -1.1062 -0.2050
 6472TIP3    H119422   3.231   1.657   2.313 -0.7565  1.2578 -0.4607
 6472TIP3    H219423   3.111   1.682   2.402 -0.1505  1.8623  0.2031
 6473TIP3   OH219424   3.144   3.062   4.824 -0.6334 -0.0091  0.6736
 6473TIP3    H119425   3.088   2.990   4.794 -0.3697  0.1330 -0.2103
 6473TIP3    H219426   3.094   3.141   4.804  0.5472  0.2161 -1.7785
 6474TIP3   OH219427   0.815   0.749   3.939 -0.2586 -0.0006  0.8217
 6474TIP3    H119428   0.781   0.659   3.938  0.4124 -0.2638  0.7939
 6474TIP3    H219429   0.795   0.783   3.852 -0.3780 -0.1747  0.7795
 6475TIP3   OH219430   5.008   1.454   4.096 -0.2986 -0.1413 -0.4866
 6475TIP3    H119431   4.992   1.424   4.006 -0.7522 -2.0256  0.1833
 6475TIP3    H219432   5.047   1.540   4.085  0.2348 -0.5792 -2.5203
 6476TIP3   OH219433   6.234   1.094   4.981  0.2153  0.2425 -0.1626
 6476TIP3    H119434   6.212   1.177   5.023 -0.5254  0.1359 -0.3321
 6476TIP3    H219435   6.330   1.096   4.973  0.1645  1.3120 -0.6503
 6477TIP3   OH219436   4.132   5.044   4.898  0.0497  0.5200  0.3154
 6477TIP3    H119437   4.219   5.073   4.871  0.1099  0.1263  0.0892
 6477TIP3    H219438   4.132   5.054   4.993  0.4630  0.1913  0.3519
 6478TIP3   OH219439   1.390   0.105   4.980  0.6239 -0.2898  0.2346
 6478TIP3    H119440   1.329   0.147   5.041  2.0630 -1.2747  2.4809
 6478TIP3    H219441   1.477   0.135   5.007  1.3874 -1.4860 -0.7481
 6479TIP3   OH219442   2.730   1.114   4.896  0.1111 -0.1912  0.1537
 6479TIP3    H119443   2.754   1.032   4.852  0.0868 -0.3635  0.4645
 6479TIP3    H219444   2.642   1.134   4.862 -0.7405 -1.3387  1.5540
 6480TIP3   OH219445   3.236   1.997   4.966 -0.3783 -0.3640 -0.1863
 6480TIP3    H119446   3.172   1.927   4.976 -0.4907 -0.2343  0.0057
 6480TIP3    H219447   3.213   2.061   5.033  0.0338 -0.3780 -0.0258
 6481TIP3   OH219448   2.918   4.393   3.502 -0.9449 -0.0089 -0.0051
 6481TIP3    H119449   2.890   4.386   3.411  0.6682 -0.1050 -0.5205
 6481TIP3    H219450   2.841   4.427   3.548 -2.3334 -1.5496 -1.0837
 6482TIP3   OH219451   3.429   2.971   3.740  0.7712 -0.3548  0.2732
 6482TIP3    H119452   3.496   2.960   3.673  0.6623  0.2441  0.0567
 6482TIP3    H219453   3.475   2.960   3.823  0.9929 -0.6631  0.1102
 6483TIP3   OH219454   4.312   3.484   3.668 -0.4024 -0.3163  0.0747
 6483TIP3    H119455   4.352   3.429   3.736 -1.6321 -1.0571  0.2513
 6483TIP3    H219456   4.364   3.564   3.667  0.2737 -0.7192  1.1709
 6484TIP3   OH219457   1.377   3.985   0.849 -0.5345  0.0884 -0.5548
 6484TIP3    H119458   1.410   3.932   0.776  0.5927  0.7450 -0.5342
 6484TIP3    H219459   1.386   4.076   0.819  1.1829  0.4405  0.8689
 6485TIP3   OH219460   5.194   3.617   0.170  0.1164  0.3913  0.0172
 6485TIP3    H119461   5.233   3.691   0.123  1.5821  0.4992  1.3481
 6485TIP3    H219462   5.148   3.568   0.102 -0.7876  2.4247 -0.9394
 6486TIP3   OH219463   3.422   3.003   1.268 -0.1724  0.2387 -0.3189
 6486TIP3    H119464   3.362   2.943   1.311  0.2825  0.7288  1.0558
 6486TIP3    H219465   3.377   3.028   1.187 -2.0685  0.9802  0.8984
 6487TIP3   OH219466   3.068   4.995   2.197 -0.9429  0.4209  0.2006
 6487TIP3    H119467   3.094   5.007   2.106 -1.4398 -1.4868 -0.2468
 6487TIP3    H219468   3.109   5.067   2.244  1.4271  0.0400 -1.1489
 6488TIP3   OH219469   3.767   2.613   2.447 -0.0145 -0.6251  0.2954
 6488TIP3    H119470   3.784   2.698   2.489  0.7241 -0.8220  0.4144
 6488TIP3    H219471   3.729   2.636   2.362  0.5618 -0.1478  0.1499
 6489TIP3   OH219472   2.647   1.792   4.288  0.3742 -0.3531  0.6112
 6489TIP3    H119473   2.734   1.766   4.317  0.2391 -0.1578  1.2199
 6489TIP3    H219474   2.659   1.826   4.200  0.9265 -0.2700  0.7168
 6490TIP3   OH219475   4.843   4.139   1.874 -0.0917 -0.3475 -0.6819
 6490TIP3    H119476   4.878   4.072   1.815  1.4098 -0.1181 -0.0826
 6490TIP3    H219477   4.893   4.218   1.854  0.8221 -0.3933  1.2305
 6491TIP3   OH219478   4.493   2.386   3.773 -0.0753  0.0974  0.3111
 6491TIP3    H119479   4.417   2.376   3.715 -1.3971 -0.8977  2.1079
 6491TIP3    H219480   4.563   2.338   3.729 -1.0550 -0.7033 -0.4455
 6492TIP3   OH219481   2.882   1.630   4.296  0.3107  0.2943  0.1897
 6492TIP3    H119482   2.948   1.573   4.334  0.1871 -0.6824 -1.0031
 6492TIP3    H219483   2.930   1.686   4.236  0.1528  0.0285 -0.1879
 6493TIP3   OH219484   5.305   4.525   2.840  0.0349  0.3260  0.0609
 6493TIP3    H119485   5.368   4.588   2.808  2.6028 -1.9974  0.1463
 6493TIP3    H219486   5.316   4.526   2.935  0.6138 -0.6957  0.0176
 6494TIP3   OH219487   5.252   2.637   4.171 -0.0121  0.1895  0.0277
 6494TIP3    H119488   5.190   2.615   4.102  0.6409 -1.2443 -0.1247
 6494TIP3    H219489   5.257   2.559   4.225  1.3721  0.4103  0.2471
 6495TIP3   OH219490   4.481   5.201   1.888  0.0701 -0.1508 -0.5014
 6495TIP3    H119491   4.442   5.136   1.947 -0.2142  1.2505  0.9007
 6495TIP3    H219492   4.526   5.262   1.946  3.1061 -0.8083 -1.9466
 6496TIP3   OH219493   0.190   5.779   0.840 -0.2004 -0.1676 -0.2772
 6496TIP3    H119494   0.209   5.744   0.927  0.0993 -0.2099 -0.3562
 6496TIP3    H219495   0.095   5.772   0.831 -0.2666  0.1471  0.1731
 6497TIP3   OH219496   0.379   2.506   0.714  0.1509  0.1885  0.4907
 6497TIP3    H119497   0.323   2.583   0.701 -2.5463 -1.6304  0.4226
 6497TIP3    H219498   0.442   2.533   0.781 -0.9795  2.3075  0.7881
 6498TIP3   OH219499   1.448   4.869   2.485  0.1190  0.1841 -0.4840
 6498TIP3    H119500   1.481   4.817   2.559  0.2933  1.5369  0.4287
 6498TIP3    H219501   1.459   4.812   2.409 -1.0664 -1.6814  0.6489
 6499TIP3   OH219502   1.308   4.209   2.097  0.2576 -0.5334 -0.5285
 6499TIP3    H119503   1.403   4.199   2.097  0.4038  0.6366 -0.4758
 6499TIP3    H219504   1.292   4.284   2.155 -0.9258 -2.4598  1.8253
 6500TIP3   OH219505   4.169   1.288   1.675 -0.5192 -0.1967 -0.4494
 6500TIP3    H119506   4.251   1.239   1.684  0.3129  1.3092  0.6762
 6500TIP3    H219507   4.101   1.230   1.708  0.1481 -1.2959 -0.9777
 6501TIP3   OH219508   1.935   0.353   1.710  0.8029 -0.3395  0.3408
 6501TIP3    H119509   1.883   0.306   1.645 -0.2898  1.8553 -0.4558
 6501TIP3    H219510   1.888   0.340   1.792  0.4431 -0.5044  0.1094
 6502TIP3   OH219511   0.428   5.515   3.339  0.1979 -0.3941  0.2945
 6502TIP3    H119512   0.406   5.491   3.249  2.5448 -0.4369 -0.3508
 6502TIP3    H219513   0.506   5.462   3.359  1.6425  1.9046  1.1585
 6503TIP3   OH219514   2.868   5.546   4.965 -0.5488  0.6875 -0.0195
 6503TIP3    H119515   2.896   5.540   4.874  1.9050  2.3906  0.5191
 6503TIP3    H219516   2.817   5.627   4.969 -0.0976  0.9570  0.2549
 6504TIP3   OH219517   0.696   5.500   0.381 -0.2540  0.0309  0.3214
 6504TIP3    H119518   0.783   5.466   0.359 -0.3934 -0.9852  1.2579
 6504TIP3    H219519   0.713   5.567   0.447 -0.2071 -0.4100  0.7582
 6505TIP3   OH219520   2.826   4.023   1.115  0.0349  0.2069  0.2757
 6505TIP3    H119521   2.881   4.022   1.194 -0.4180  0.6218  0.6066
 6505TIP3    H219522   2.757   3.959   1.133 -0.9919  1.4402  0.9120
 6506TIP3   OH219523   1.523   4.699   0.644  0.5221  0.0815 -0.2491
 6506TIP3    H119524   1.566   4.778   0.675  2.4562 -1.7190  2.0597
 6506TIP3    H219525   1.595   4.641   0.617 -0.7857 -1.1383 -1.3052
 6507TIP3   OH219526   1.783   0.662   0.848 -0.2763  0.2680  0.5170
 6507TIP3    H119527   1.836   0.713   0.909 -2.0396  1.3296  1.2416
 6507TIP3    H219528   1.811   0.572   0.862  0.5928  0.6752  1.6230
 6508TIP3   OH219529   3.131   3.546   2.447  0.8698 -0.2746  0.5268
 6508TIP3    H119530   3.163   3.552   2.357 -1.5421  1.2801 -0.3034
 6508TIP3    H219531   3.165   3.462   2.478  2.4237 -0.4997 -1.5227
 6509TIP3   OH219532   4.386   3.338   4.861 -0.3563  0.0017  0.2785
 6509TIP3    H119533   4.425   3.271   4.916 -0.6982  1.1503  2.0207
 6509TIP3    H219534   4.453   3.406   4.854 -1.9165  2.2234  3.7007
 6510TIP3   OH219535   5.635   2.235   3.229 -0.7414  0.2199  0.0604
 6510TIP3    H119536   5.729   2.248   3.216 -0.1621 -2.6314  0.8924
 6510TIP3    H219537   5.619   2.264   3.318 -0.2383 -0.9882  0.5663
 6511TIP3   OH219538   4.715   3.946   3.369  0.1670  0.0176 -0.4929
 6511TIP3    H119539   4.632   3.973   3.330 -1.3817 -3.3461  0.0768
 6511TIP3    H219540   4.767   3.913   3.296 -0.6677 -1.4883 -0.4628
 6512TIP3   OH219541   4.978   3.111   2.684 -0.0751 -0.0482 -0.4400
 6512TIP3    H119542   5.029   3.192   2.692 -0.2228 -0.0209  0.2949
 6512TIP3    H219543   4.899   3.127   2.735 -0.0812 -0.6747 -0.2415
 6513TIP3   OH219544   0.167   4.720   2.672  0.3049 -0.4349  0.0264
 6513TIP3    H119545   0.150   4.646   2.730  0.0236 -0.7033 -0.3998
 6513TIP3    H219546   0.091   4.725   2.615  0.9019 -0.6400 -0.8205
 6514TIP3   OH219547   0.375   2.343   4.100  0.5993 -0.1822 -0.0785
 6514TIP3    H119548   0.457   2.311   4.061  1.5479  0.2601  1.4564
 6514TIP3    H219549   0.313   2.271   4.087  1.3317 -0.6896 -0.9312
 6515TIP3   OH219550   3.831   5.329   3.446 -0.2189  0.4852  0.0063
 6515TIP3    H119551   3.860   5.238   3.454  0.3070  0.6476  0.0050
 6515TIP3    H219552   3.898   5.380   3.493  0.2689  0.9953 -1.2023
 6516TIP3   OH219553   1.895   1.614   0.483 -0.3064  0.5237 -0.6850
 6516TIP3    H119554   1.842   1.549   0.530 -0.7835  0.0340 -1.8463
 6516TIP3    H219555   1.881   1.695   0.531 -1.2671  0.1737 -0.3362
 6517TIP3   OH219556   0.304   3.597   0.964  0.5340 -0.2239 -1.0000
 6517TIP3    H119557   0.337   3.610   1.053 -0.9932  0.5666 -0.5086
 6517TIP3    H219558   0.383   3.593   0.909  1.4561  0.7543  0.1993
 6518TIP3   OH219559   3.944   1.729   2.149  0.1197 -0.4849  0.0158
 6518TIP3    H119560   3.886   1.804   2.132  0.9074  0.2507  0.4691
 6518TIP3    H219561   3.932   1.710   2.242  1.6756  0.6550  0.5005
 6519TIP3   OH219562   1.063   0.127   3.906 -0.8232  0.0152 -0.1181
 6519TIP3    H119563   1.091   0.075   3.981 -0.3990  1.3262  0.6594
 6519TIP3    H219564   1.043   0.063   3.838 -0.5245 -1.1594  0.8788
 6520TIP3   OH219565   5.289   1.088   4.352 -0.0331 -0.3789  0.1817
 6520TIP3    H119566   5.277   1.123   4.263  0.6306 -0.2904  0.1260
 6520TIP3    H219567   5.344   1.152   4.396  0.7097 -1.0593  0.2576
 6521TIP3   OH219568   1.959   3.667   1.912  0.4458 -0.0534  0.1700
 6521TIP3    H119569   1.905   3.646   1.988 -0.7617  1.5108 -0.2065
 6521TIP3    H219570   1.897   3.685   1.842  1.4623  1.1747 -0.4613
 6522TIP3   OH219571   0.833   5.612   5.153 -0.1976  0.0990 -0.0465
 6522TIP3    H119572   0.913   5.664   5.165 -0.0992 -0.1692  0.4887
 6522TIP3    H219573   0.828   5.596   5.059  0.1324  0.5048 -0.1371
 6523TIP3   OH219574   5.301   5.565   5.147 -0.0741  0.0397 -0.7758
 6523TIP3    H119575   5.334   5.582   5.059  0.1648 -0.7045 -0.8321
 6523TIP3    H219576   5.338   5.635   5.200  1.1550 -0.4569 -0.9437
 6524TIP3   OH219577   2.751   4.752   4.360  0.6627  0.0509 -0.0145
 6524TIP3    H119578   2.838   4.787   4.374  1.1568 -1.3785  0.7022
 6524TIP3    H219579   2.756   4.661   4.390 -1.0000 -0.1440 -0.1971
 6525TIP3   OH219580   4.453   3.701   0.939  0.5031  0.0817  0.1513
 6525TIP3    H119581   4.439   3.796   0.946 -0.4179 -0.1019  1.0725
 6525TIP3    H219582   4.548   3.691   0.935  0.5892  1.1600 -2.2381
 6526TIP3   OH219583   2.224   5.272   1.923  0.2661  0.7653 -0.3332
 6526TIP3    H119584   2.202   5.247   2.013  1.0426  0.3159 -0.2599
 6526TIP3    H219585   2.240   5.189   1.879 -0.8165  0.9365 -1.0896
 6527TIP3   OH219586   0.101   4.522   2.438 -0.1478  0.5803  0.0203
 6527TIP3    H119587   0.047   4.506   2.361  0.2043 -1.7355  0.1920
 6527TIP3    H219588   0.047   4.491   2.511  0.8988 -0.5985  0.3140
 6528TIP3   OH219589   5.114   2.830   1.704  0.3680 -0.1343  0.1855
 6528TIP3    H119590   5.030   2.857   1.668 -0.0041  0.4835  1.4707
 6528TIP3    H219591   5.093   2.786   1.786  1.3495  1.6907  1.4994
 6529TIP3   OH219592   1.267   3.251   1.834 -0.3681  0.2765  0.6789
 6529TIP3    H119593   1.285   3.339   1.800  1.2071  0.5027  1.9868
 6529TIP3    H219594   1.297   3.254   1.925 -4.4276 -0.2987  2.2204
 6530TIP3   OH219595   1.391   3.103   1.633 -0.0215  1.2622 -0.3182
 6530TIP3    H119596   1.335   3.122   1.708  0.4326  0.1384  0.3395
 6530TIP3    H219597   1.480   3.123   1.664 -0.0470  3.4650 -1.4927
 6531TIP3   OH219598   0.495   3.572   5.103 -0.1181 -0.3604 -0.5262
 6531TIP3    H119599   0.555   3.501   5.125 -0.3603 -0.5905 -0.6006
 6531TIP3    H219600   0.499   3.579   5.008  0.1858 -0.0252 -0.4886
 6532TIP3   OH219601   2.019   1.241   4.667 -0.4818  0.2420 -0.3159
 6532TIP3    H119602   2.053   1.266   4.581  0.7386  2.9917  0.8475
 6532TIP3    H219603   2.021   1.145   4.667  0.5892  0.1945 -2.9146
 6533TIP3   OH219604   4.506   2.847   2.882 -0.6603  0.4612 -0.1055
 6533TIP3    H119605   4.435   2.884   2.933 -0.0198  1.0334  0.3838
 6533TIP3    H219606   4.486   2.870   2.791 -1.3578  0.1695 -0.0296
 6534TIP3   OH219607   6.196   1.732   3.570  0.5906  0.0539  0.3330
 6534TIP3    H119608   6.122   1.783   3.603  0.0527 -0.4666 -0.0651
 6534TIP3    H219609   6.273   1.784   3.594  0.0959  0.6394  0.6744
 6535TIP3   OH219610   2.546   3.779   1.534  0.3420  0.2826 -0.1782
 6535TIP3    H119611   2.497   3.758   1.455  1.7775 -0.4169 -0.9266
 6535TIP3    H219612   2.496   3.850   1.575  0.1013  1.4215 -2.2748
 6536TIP3   OH219613   3.401   3.781   4.729  0.3989  0.3326 -0.2974
 6536TIP3    H119614   3.319   3.736   4.707  0.6484 -0.1764 -0.2132
 6536TIP3    H219615   3.449   3.785   4.646  0.7463 -0.3416 -0.1361
 6537TIP3   OH219616   0.301   2.042   3.147  0.3368 -0.0574 -0.3960
 6537TIP3    H119617   0.330   2.027   3.057 -0.0508 -0.7781 -0.4025
 6537TIP3    H219618   0.237   1.974   3.164 -0.1795  0.5506  0.1664
 6538TIP3   OH219619   1.212   5.501   3.627  0.0569  0.0483 -0.0034
 6538TIP3    H119620   1.176   5.582   3.663 -0.5171 -0.4395  0.5667
 6538TIP3    H219621   1.274   5.529   3.560  0.7544  0.9728  1.0149
 6539TIP3   OH219622   1.027   3.562   2.833 -0.3359  0.2559  0.0651
 6539TIP3    H119623   1.006   3.473   2.863  0.3334 -0.1141 -0.5274
 6539TIP3    H219624   0.994   3.564   2.743  1.9922 -0.3001 -0.8529
 6540TIP3   OH219625   4.613   5.982   3.477  0.1357  1.1146  0.0294
 6540TIP3    H119626   4.617   5.941   3.563  2.9916  0.9464 -0.0728
 6540TIP3    H219627   4.598   5.909   3.416 -0.3923  1.0323  0.2525
 6541TIP3   OH219628   0.936   2.148   1.543  0.0012  0.2302 -0.5400
 6541TIP3    H119629   0.906   2.076   1.488  0.6916  0.6635 -1.5056
 6541TIP3    H219630   0.916   2.120   1.632 -0.0478 -1.0092 -0.9223
 6542TIP3   OH219631   4.455   1.534   4.541 -0.7286 -0.0017 -1.1902
 6542TIP3    H119632   4.419   1.467   4.599 -0.6902  0.4417 -0.6442
 6542TIP3    H219633   4.434   1.616   4.584 -0.3685  0.3223 -1.6262
 6543TIP3   OH219634   0.804   4.443   3.304 -0.3825 -0.1920  0.5900
 6543TIP3    H119635   0.892   4.430   3.269 -0.7125  0.1652 -0.4123
 6543TIP3    H219636   0.789   4.538   3.296 -0.6818 -0.1843  1.1890
 6544TIP3   OH219637   3.743   4.199   2.741 -0.0126 -0.3718 -0.1797
 6544TIP3    H119638   3.818   4.200   2.800 -0.5877  1.6501  0.5965
 6544TIP3    H219639   3.777   4.161   2.660  0.9518 -2.5953  1.1911
 6545TIP3   OH219640   6.059   0.065   5.056 -0.0669  0.5123  0.2978
 6545TIP3    H119641   6.143   0.060   5.100  0.0156  1.7377  0.3012
 6545TIP3    H219642   6.080   0.086   4.965 -0.3192 -0.2979  0.0470
 6546TIP3   OH219643   1.893   2.415   3.368 -0.2279  0.0608  0.0843
 6546TIP3    H119644   1.848   2.418   3.452 -1.8095  1.8502 -0.7534
 6546TIP3    H219645   1.822   2.422   3.303  0.8150 -2.3739 -1.4881
 6547TIP3   OH219646   0.889   0.512   0.381  0.2040  0.5259  0.0246
 6547TIP3    H119647   0.810   0.479   0.424  0.5121 -0.1083  0.1121
 6547TIP3    H219648   0.940   0.551   0.452  1.2593 -1.5693  0.4800
 6548TIP3   OH219649   2.894   3.816   4.882 -0.9343 -0.3562  0.0111
 6548TIP3    H119650   2.896   3.899   4.835 -1.2039 -0.0551  0.5294
 6548TIP3    H219651   2.833   3.762   4.832 -2.0444  0.3242  0.6040
 6549TIP3   OH219652   1.347   2.308   2.625 -0.4739 -0.1949 -0.3839
 6549TIP3    H119653   1.274   2.355   2.584  0.2897  0.4307 -1.0581
 6549TIP3    H219654   1.402   2.280   2.552 -0.3728 -1.2630  0.0737
 6550TIP3   OH219655   2.474   3.484   1.737  0.0208 -0.3755  0.4381
 6550TIP3    H119656   2.432   3.455   1.819  0.4554  0.6218  1.0339
 6550TIP3    H219657   2.457   3.578   1.734  4.3717  0.7391  2.1373
 6551TIP3   OH219658   3.261   2.288   0.299  0.2613 -0.0092  0.5229
 6551TIP3    H119659   3.268   2.232   0.376  1.6865  1.1377  1.2768
 6551TIP3    H219660   3.281   2.229   0.225 -0.3093 -0.9348  1.0903
 6552TIP3   OH219661   4.253   1.584   3.270  0.0319  0.0682 -0.6057
 6552TIP3    H119662   4.264   1.502   3.318  0.3497 -0.4208 -1.4938
 6552TIP3    H219663   4.336   1.594   3.223 -0.1979  0.6500 -0.8833
 6553TIP3   OH219664   5.860   4.697   4.035  0.6900  0.4912 -0.1772
 6553TIP3    H119665   5.847   4.674   3.943  0.7887 -0.6311  0.0866
 6553TIP3    H219666   5.851   4.615   4.083  0.3653  1.1080  0.8539
 6554TIP3   OH219667   4.518   0.679   1.727 -0.1397 -0.2909 -0.6282
 6554TIP3    H119668   4.513   0.707   1.819 -1.3866 -0.0804 -0.7369
 6554TIP3    H219669   4.545   0.588   1.730  0.4118 -0.1109 -0.0781
 6555TIP3   OH219670   4.893   1.351   3.335 -0.0406 -0.4398 -0.1756
 6555TIP3    H119671   4.984   1.375   3.346 -0.5752  1.2382  0.9458
 6555TIP3    H219672   4.854   1.362   3.422 -1.2461 -1.4925 -0.5363
 6556TIP3   OH219673   5.618   3.847   3.584 -0.6042 -0.3338 -0.0602
 6556TIP3    H119674   5.613   3.756   3.553 -1.5334 -0.1881 -0.3664
 6556TIP3    H219675   5.527   3.876   3.587 -0.4650  0.0026  1.8165
 6557TIP3   OH219676   2.631   0.918   4.202 -0.5654 -0.4318 -0.1814
 6557TIP3    H119677   2.715   0.873   4.204  0.0848  0.7599  0.5990
 6557TIP3    H219678   2.575   0.864   4.146 -0.2269 -2.8577  1.6836
 6558TIP3   OH219679   0.162   3.132   4.143  0.2308 -0.4838 -0.3197
 6558TIP3    H119680   0.223   3.162   4.211 -1.7160 -0.1284  1.3903
 6558TIP3    H219681   0.093   3.087   4.192 -1.7718  0.6366 -1.9606
 6559TIP3   OH219682   0.845   3.405   4.646  0.6612 -0.1848  0.1386
 6559TIP3    H119683   0.920   3.453   4.680 -0.1067  0.8003  0.4857
 6559TIP3    H219684   0.840   3.430   4.554  0.5325  0.0527  0.2090
 6560TIP3   OH219685   5.267   0.912   4.092 -0.7256  0.7931 -0.6435
 6560TIP3    H119686   5.189   0.877   4.135  0.1343  0.8013  0.9921
 6560TIP3    H219687   5.326   0.837   4.084 -0.3445  1.0875 -0.5940
 6561TIP3   OH219688   3.066   1.062   0.238  0.1081 -0.1366  0.2433
 6561TIP3    H119689   3.063   0.970   0.212 -1.8459 -0.1033  0.2004
 6561TIP3    H219690   3.001   1.105   0.182  2.0403  1.5972 -0.8143
 6562TIP3   OH219691   1.515   0.162   2.965  0.0031 -0.0119  0.1683
 6562TIP3    H119692   1.434   0.171   3.016 -0.3436  1.1740 -0.5527
 6562TIP3    H219693   1.526   0.068   2.954  0.5837 -0.3819  3.1772
 6563TIP3   OH219694   4.136   5.212   4.421 -0.1224 -0.1093 -0.1631
 6563TIP3    H119695   4.158   5.220   4.328 -0.0652  0.8004 -0.0856
 6563TIP3    H219696   4.146   5.119   4.440 -0.1649 -0.3119 -1.0748
 6564TIP3   OH219697   3.403   2.644   0.778 -0.3985 -0.4149  0.3054
 6564TIP3    H119698   3.343   2.718   0.768 -0.1537 -0.3364 -0.6267
 6564TIP3    H219699   3.353   2.568   0.751 -0.1734 -0.3902 -0.1826
 6565TIP3   OH219700   0.945   1.799   2.687  0.0391  0.0029  0.4261
 6565TIP3    H119701   0.923   1.801   2.780  0.8396 -0.5792  0.6350
 6565TIP3    H219702   1.035   1.830   2.682  0.3385 -0.8863 -0.0413
 6566TIP3   OH219703   2.886   5.204   1.687 -0.1698 -0.0599  0.0672
 6566TIP3    H119704   2.840   5.286   1.668 -0.7086 -0.3580  0.0658
 6566TIP3    H219705   2.891   5.159   1.603 -0.9066 -0.5443  0.2744
 6567TIP3   OH219706   5.442   4.542   4.621 -0.4062  0.3150  0.3187
 6567TIP3    H119707   5.368   4.534   4.560 -0.2019  0.8112  0.0035
 6567TIP3    H219708   5.482   4.455   4.621 -1.3026 -0.1144  0.8993
 6568TIP3   OH219709   4.877   4.560   2.127  0.2342 -0.1031  0.0443
 6568TIP3    H119710   4.875   4.572   2.222 -0.6433 -1.4875  0.2298
 6568TIP3    H219711   4.826   4.634   2.093 -0.3639 -0.1898  0.7268
 6569TIP3   OH219712   2.116   1.539   1.777 -0.8512  0.1228  0.2777
 6569TIP3    H119713   2.176   1.466   1.793  0.7394  0.9889 -1.4000
 6569TIP3    H219714   2.043   1.500   1.729  0.9210 -0.1546 -2.4183
 6570TIP3   OH219715   0.151   5.170   1.082  0.2208  0.1785  0.6319
 6570TIP3    H119716   0.201   5.156   1.162  1.8920  1.0759 -0.1931
 6570TIP3    H219717   0.169   5.093   1.028  1.1000  0.6909  0.1687
 6571TIP3   OH219718   6.336   4.684   0.761  0.5121 -0.6817  0.1641
 6571TIP3    H119719   6.380   4.622   0.820  0.6333 -0.1775  0.6133
 6571TIP3    H219720   6.245   4.655   0.761  0.2850 -0.0560  1.4735
 6572TIP3   OH219721   1.164   4.061   0.632  0.0846  0.0614 -0.0479
 6572TIP3    H119722   1.200   4.127   0.691  1.1875 -0.5917  0.0360
 6572TIP3    H219723   1.077   4.095   0.609  0.5689  1.4642  0.0907
 6573TIP3   OH219724   3.565   5.598   2.567  0.3980  0.6066 -0.1733
 6573TIP3    H119725   3.484   5.596   2.618  1.6394 -0.3387  1.9230
 6573TIP3    H219726   3.537   5.610   2.477 -1.9402  2.6848  0.7034
 6574TIP3   OH219727   1.168   5.549   4.771  0.3213 -0.0300 -0.2261
 6574TIP3    H119728   1.137   5.468   4.730  0.6255 -0.7448  0.9143
 6574TIP3    H219729   1.092   5.607   4.767 -0.0929 -0.5749 -0.5086
 6575TIP3   OH219730   5.211   4.854   3.805  0.2492  0.6852 -0.4590
 6575TIP3    H119731   5.184   4.763   3.803 -0.2043  0.8117 -0.1539
 6575TIP3    H219732   5.222   4.874   3.898  1.0620  0.7382 -0.5534
 6576TIP3   OH219733   4.412   3.075   4.271  0.1469  0.0871 -0.0462
 6576TIP3    H119734   4.468   3.016   4.221 -0.1518 -1.3953  1.2869
 6576TIP3    H219735   4.370   3.019   4.336 -0.4973  1.7022  0.9953
 6577TIP3   OH219736   4.047   5.261   4.681 -0.7630 -0.2586 -0.3108
 6577TIP3    H119737   4.091   5.249   4.597 -0.7854  0.5313 -0.4448
 6577TIP3    H219738   4.102   5.214   4.744 -1.0598 -1.3432 -0.8469
 6578TIP3   OH219739   2.866   5.150   3.595 -0.3005 -0.3464 -0.2318
 6578TIP3    H119740   2.829   5.188   3.515 -0.4545 -1.1350 -0.5492
 6578TIP3    H219741   2.901   5.066   3.567  0.6775 -0.1357  0.3124
 6579TIP3   OH219742   2.169   5.204   2.464  0.5822  0.2013  0.6741
 6579TIP3    H119743   2.139   5.149   2.536  0.0315  0.6377  0.7881
 6579TIP3    H219744   2.088   5.238   2.425  0.7912 -1.0294 -0.9566
 6580TIP3   OH219745   4.755   1.908   3.342 -0.5419  0.2652 -0.0314
 6580TIP3    H119746   4.849   1.920   3.330 -0.5695  0.5878  0.0793
 6580TIP3    H219747   4.746   1.884   3.435 -0.5802  0.3573 -0.0112
 6581TIP3   OH219748   4.600   0.191   3.728 -0.3502 -0.3016 -0.4739
 6581TIP3    H119749   4.672   0.128   3.734 -1.3296 -1.4406 -0.4523
 6581TIP3    H219750   4.521   0.138   3.726 -1.1793  0.9066 -1.1353
 6582TIP3   OH219751   2.220   2.639   0.529  0.3688  0.6741  0.1118
 6582TIP3    H119752   2.207   2.644   0.623 -0.2672  1.8591 -0.0107
 6582TIP3    H219753   2.293   2.699   0.511 -0.0523  1.0984 -0.2264
 6583TIP3   OH219754   2.647   3.967   3.044  0.1725  0.5676 -0.1977
 6583TIP3    H119755   2.701   3.894   3.013  0.4676  0.1188  1.2880
 6583TIP3    H219756   2.650   4.031   2.973 -0.0233 -0.8154 -1.4987
 6584TIP3   OH219757   0.970   1.474   4.881  0.3061  0.1376  0.2519
 6584TIP3    H119758   1.007   1.476   4.969 -0.0025 -0.8844  0.4117
 6584TIP3    H219759   0.910   1.549   4.878  0.3353  0.1922  0.8979
 6585TIP3   OH219760   4.696   4.605   3.777  0.5958  0.6345 -0.1232
 6585TIP3    H119761   4.744   4.553   3.712  0.3649  0.8204 -0.4475
 6585TIP3    H219762   4.608   4.615   3.740  0.0438 -0.3927  0.8471
 6586TIP3   OH219763   2.158   5.327   1.469  0.4560  0.4007 -0.6871
 6586TIP3    H119764   2.068   5.297   1.451  1.1303 -0.3027 -3.2931
 6586TIP3    H219765   2.153   5.422   1.466 -0.2268  0.3690 -0.7126
 6587TIP3   OH219766   0.063   0.265   3.004  0.1336  0.7251  0.1464
 6587TIP3    H119767  -0.009   0.223   3.051  0.5643  0.6702  0.7666
 6587TIP3    H219768   0.077   0.208   2.928  0.6474 -0.2387  0.9299
 6588TIP3   OH219769   4.342   2.100   3.721  0.1790  0.0459  0.0417
 6588TIP3    H119770   4.423   2.119   3.674 -0.2594 -0.1308 -0.8001
 6588TIP3    H219771   4.308   2.021   3.679  0.1523 -0.5538  1.1453
 6589TIP3   OH219772   6.234   0.531   2.004 -0.2669  0.1991  0.4914
 6589TIP3    H119773   6.182   0.460   2.041 -1.0618  0.1031 -0.7683
 6589TIP3    H219774   6.245   0.592   2.078 -1.0501 -0.4024  1.1320
 6590TIP3   OH219775   0.978   5.645   3.399 -0.2685  0.1670  0.2493
 6590TIP3    H119776   1.059   5.682   3.434 -0.8335  0.9036  0.8275
 6590TIP3    H219777   1.005   5.567   3.351  0.8891  0.9332 -0.3901
 6591TIP3   OH219778   0.983   5.455   0.313 -0.8971  0.3466 -0.0858
 6591TIP3    H119779   1.062   5.405   0.336 -0.8602  0.4618  0.0418
 6591TIP3    H219780   1.005   5.546   0.334 -0.8436  0.4634 -0.6453
 6592TIP3   OH219781   5.444   5.432   3.143  0.0695  0.1578  0.4960
 6592TIP3    H119782   5.427   5.505   3.203  1.8853  0.4845  0.6449
 6592TIP3    H219783   5.508   5.378   3.188  0.4551 -0.3134 -0.5949
 6593TIP3   OH219784   4.793   4.961   3.092 -0.3694 -0.3049 -0.2318
 6593TIP3    H119785   4.832   4.912   3.164  0.5331  0.8351  0.0867
 6593TIP3    H219786   4.725   5.014   3.133  0.2975  0.5142 -0.1730
 6594TIP3   OH219787   1.948   3.214   3.316 -0.4756  0.1839  0.0225
 6594TIP3    H119788   1.875   3.268   3.288 -1.6429 -1.1912  0.2858
 6594TIP3    H219789   1.920   3.176   3.399  0.2584 -0.8839 -0.1920
 6595TIP3   OH219790   3.852   2.349   2.525 -0.2529  0.4928  0.2169
 6595TIP3    H119791   3.824   2.259   2.505 -0.2180  0.3032  0.9819
 6595TIP3    H219792   3.787   2.404   2.481  1.6768  0.2460 -3.3512
 6596TIP3   OH219793   1.232   1.040   0.195 -0.3265 -0.1673  0.3786
 6596TIP3    H119794   1.143   1.065   0.169 -0.6475  0.4207  1.9558
 6596TIP3    H219795   1.226   0.946   0.213 -0.6642 -0.1095  0.5909
 6597TIP3   OH219796   5.200   1.192   2.996  0.3000  0.0823 -0.2470
 6597TIP3    H119797   5.267   1.189   3.065  0.2515  0.9686 -0.1546
 6597TIP3    H219798   5.117   1.197   3.043  0.2693  0.7180 -0.3663
 6598TIP3   OH219799   2.093   4.130   3.012  0.4913  0.3948 -0.0817
 6598TIP3    H119800   2.124   4.221   3.010  0.6396  0.3472  0.0622
 6598TIP3    H219801   2.080   4.108   2.919 -0.1040  0.7516 -0.0914
 6599TIP3   OH219802   2.544   1.980   0.142 -0.1332  0.0670  0.0310
 6599TIP3    H119803   2.620   1.951   0.093 -1.0582 -0.6212 -1.0609
 6599TIP3    H219804   2.483   1.906   0.138 -0.8902  0.6135  0.8274
 6600TIP3   OH219805   2.320   5.171   1.618  0.1102 -0.2985 -0.4743
 6600TIP3    H119806   2.342   5.094   1.565 -0.3800  0.4048 -1.7426
 6600TIP3    H219807   2.261   5.222   1.563 -2.7758 -0.8996  1.7961
 6601TIP3   OH219808   4.132   5.816   0.611  0.0862  0.0177 -0.5699
 6601TIP3    H119809   4.198   5.822   0.680 -2.3342 -2.8145  2.3606
 6601TIP3    H219810   4.170   5.757   0.546  0.9482 -0.5007  0.3762
 6602TIP3   OH219811   5.121   1.269   4.522  0.1176  0.1180  0.0010
 6602TIP3    H119812   5.201   1.320   4.529  0.8281 -0.9441 -0.0909
 6602TIP3    H219813   5.137   1.192   4.577 -0.1113 -0.9938 -1.4168
 6603TIP3   OH219814   3.272   1.692   1.102  0.0535 -0.5996 -0.3849
 6603TIP3    H119815   3.339   1.650   1.156 -1.1596  0.7052  2.3586
 6603TIP3    H219816   3.300   1.783   1.096 -0.2229 -0.5669 -1.3763
 6604TIP3   OH219817   4.079   5.676   5.120  0.7753  0.9842  0.1142
 6604TIP3    H119818   4.091   5.742   5.052 -0.8448  2.2819  0.9959
 6604TIP3    H219819   3.986   5.682   5.142  1.1014  0.0562  1.8904
 6605TIP3   OH219820   4.213   3.698   0.550  0.4338  0.5381 -0.2997
 6605TIP3    H119821   4.259   3.644   0.614  2.6610  1.6718 -0.8230
 6605TIP3    H219822   4.122   3.696   0.578  0.7692 -1.7268  0.9051
 6606TIP3   OH219823   0.791   0.839   1.113 -0.0557  1.0060 -0.5636
 6606TIP3    H119824   0.702   0.831   1.078  0.5074 -0.7142 -1.6923
 6606TIP3    H219825   0.843   0.874   1.041  0.4893  0.4762 -0.4398
 6607TIP3   OH219826   0.946   5.250   1.878 -0.4233  0.1987  0.0112
 6607TIP3    H119827   0.952   5.281   1.788 -2.5603  3.0780  0.7025
 6607TIP3    H219828   0.856   5.269   1.904  0.8719  2.4573  3.6503
 6608TIP3   OH219829   1.874   2.957   3.849  0.2272  0.1008 -0.2648
 6608TIP3    H119830   1.903   2.981   3.937  0.2322 -0.3315 -0.1465
 6608TIP3    H219831   1.778   2.964   3.853  0.2927  2.2696 -0.8696
 6609TIP3   OH219832   1.972   2.198   1.076  0.0023 -0.6686  0.1981
 6609TIP3    H119833   1.988   2.117   1.124  1.0118 -1.0892 -0.8096
 6609TIP3    H219834   1.933   2.170   0.993 -0.3971 -0.0558  0.1719
 6610TIP3   OH219835   2.226   5.855   3.506  0.3796  0.2911  0.4456
 6610TIP3    H119836   2.261   5.801   3.434  0.5471  1.6962 -0.5799
 6610TIP3    H219837   2.304   5.892   3.547  0.2385  0.2910  0.7108
 6611TIP3   OH219838   0.001   2.900   2.914  0.1436 -0.5204 -0.0793
 6611TIP3    H119839   0.096   2.914   2.911  0.2318  1.9615  4.4653
 6611TIP3    H219840  -0.015   2.868   3.003 -3.4570  2.1537  0.4552
 6612TIP3   OH219841   1.656   2.697   4.849  0.4997 -0.7724 -0.1822
 6612TIP3    H119842   1.717   2.769   4.868 -0.6884  0.6815 -1.6116
 6612TIP3    H219843   1.586   2.706   4.914  1.3593 -1.9870  0.9798
 6613TIP3   OH219844   6.018   0.184   3.433  0.2156 -0.2453 -0.3406
 6613TIP3    H119845   6.009   0.101   3.480 -1.9638 -0.1788 -0.5521
 6613TIP3    H219846   6.012   0.251   3.501  0.4387 -0.2095 -0.3532
 6614TIP3   OH219847   3.958   4.779   3.798  0.8753  0.1673 -0.5606
 6614TIP3    H119848   3.994   4.801   3.712 -0.0185 -1.6318 -1.4641
 6614TIP3    H219849   3.960   4.684   3.801 -0.3263  0.1510  0.8702
 6615TIP3   OH219850   2.316   2.916   0.062 -0.1092 -0.4307  0.0596
 6615TIP3    H119851   2.264   2.837   0.052 -1.0903  0.0748  0.9491
 6615TIP3    H219852   2.402   2.885   0.092 -0.5818 -1.1381  0.7012
 6616TIP3   OH219853   0.694   3.269   2.209  0.4207 -0.1042 -1.0643
 6616TIP3    H119854   0.695   3.258   2.114  1.1511  1.4778 -1.2766
 6616TIP3    H219855   0.631   3.203   2.240 -1.2999  0.5926 -2.8258
 6617TIP3   OH219856   1.374   2.158   4.421  0.5627 -0.1700  0.7861
 6617TIP3    H119857   1.443   2.196   4.367  0.8337  0.4063  1.5302
 6617TIP3    H219858   1.393   2.187   4.510 -0.3510 -0.4238  1.0827
 6618TIP3   OH219859   3.264   3.179   3.830  0.4771 -0.1951  0.1622
 6618TIP3    H119860   3.325   3.119   3.787  1.2381 -0.3264  1.3751
 6618TIP3    H219861   3.301   3.191   3.917  0.6975  2.5488 -0.2275
 6619TIP3   OH219862   1.093   3.593   1.111  0.4193 -0.4500 -0.4362
 6619TIP3    H119863   1.164   3.630   1.058  0.1119  0.0075 -0.5363
 6619TIP3    H219864   1.029   3.562   1.046  0.6556 -1.1240 -0.3523
 6620TIP3   OH219865   3.763   0.805   1.112 -0.3707  0.3178  0.2580
 6620TIP3    H119866   3.817   0.726   1.107 -0.3562  0.3474 -0.1286
 6620TIP3    H219867   3.788   0.846   1.195  1.9211  1.5505 -0.9427
 6621TIP3   OH219868   2.522   0.616   4.358 -0.2601  0.3279 -0.1180
 6621TIP3    H119869   2.438   0.661   4.354  0.3066  1.4025 -0.3917
 6621TIP3    H219870   2.570   0.661   4.427  0.5016  0.4791 -0.7282
 6622TIP3   OH219871   6.292   4.890   5.070  0.3511 -0.2188  0.4222
 6622TIP3    H119872   6.368   4.947   5.082  1.2273 -0.7952 -1.9040
 6622TIP3    H219873   6.325   4.803   5.093  0.4559 -0.4925 -0.7433
 6623TIP3   OH219874   4.424   5.548   0.100  0.0687  0.1077 -0.2276
 6623TIP3    H119875   4.434   5.635   0.061  1.5297 -0.2400 -0.7061
 6623TIP3    H219876   4.331   5.543   0.124 -0.0890  1.7049 -0.3820
 6624TIP3   OH219877   0.430   1.894   1.951 -1.0890  0.0262  0.1504
 6624TIP3    H119878   0.382   1.976   1.962  0.1043  0.5271  2.2831
 6624TIP3    H219879   0.509   1.905   2.004 -1.0958 -2.6655  0.9026
 6625TIP3   OH219880   6.167   4.720   3.721  1.2563  0.2561 -0.0596
 6625TIP3    H119881   6.109   4.645   3.725  2.8614 -1.3205 -2.9609
 6625TIP3    H219882   6.234   4.702   3.787  2.2479 -1.5351 -1.4701
 6626TIP3   OH219883   3.440   5.965   4.465 -0.0906  0.0531  0.6743
 6626TIP3    H119884   3.466   6.049   4.503 -0.5933  0.0156  1.1208
 6626TIP3    H219885   3.515   5.907   4.480  0.7064  0.7012 -0.6098
 6627TIP3   OH219886   6.104   0.956   2.331 -0.2945  0.3220  0.0364
 6627TIP3    H119887   6.079   1.023   2.267 -0.5814  0.7162  0.5492
 6627TIP3    H219888   6.021   0.925   2.367 -0.0974  1.6939  1.8035
 6628TIP3   OH219889   0.382   4.030   1.622 -0.4002  0.2740 -0.0587
 6628TIP3    H119890   0.398   3.936   1.630  0.1004  0.2658 -0.9791
 6628TIP3    H219891   0.425   4.055   1.540 -1.4569  1.0997 -0.3887
 6629TIP3   OH219892   5.297   4.555   1.050  0.5784  0.6861 -0.1303
 6629TIP3    H119893   5.374   4.564   1.106  2.2064  0.4220 -2.2012
 6629TIP3    H219894   5.281   4.460   1.046 -1.9445  0.8276  2.8261
 6630TIP3   OH219895   1.675   5.528   1.044 -0.1998  0.2037  0.0955
 6630TIP3    H119896   1.664   5.439   1.011 -0.6815  0.2669  0.0801
 6630TIP3    H219897   1.769   5.546   1.034  0.3574 -1.1380  2.1831
 6631TIP3   OH219898   5.943   5.877   5.083 -0.1443  0.3244  0.1305
 6631TIP3    H119899   5.892   5.857   5.004 -0.3432  0.7616  0.1443
 6631TIP3    H219900   6.024   5.827   5.072 -0.2693  0.1979 -0.2424
 6632TIP3   OH219901   6.123   5.776   2.394  0.5147 -0.5486  0.6141
 6632TIP3    H119902   6.165   5.698   2.360 -0.0210 -0.8463  0.6177
 6632TIP3    H219903   6.151   5.846   2.335  2.0209 -0.4929  1.3564
 6633TIP3   OH219904   4.227   2.473   1.579 -0.3802  0.5147  0.4894
 6633TIP3    H119905   4.180   2.398   1.615  0.7903  0.2929  1.6293
 6633TIP3    H219906   4.302   2.434   1.533  0.1828  0.9566  1.0070
 6634TIP3   OH219907   5.945   4.900   0.675  0.1859 -0.0235  0.7659
 6634TIP3    H119908   5.955   4.989   0.710 -0.1363 -0.1116  1.0857
 6634TIP3    H219909   5.861   4.870   0.709 -0.0965 -0.1427 -0.0201
 6635TIP3   OH219910   0.228   4.476   1.862  0.1207  0.9203  0.2739
 6635TIP3    H119911   0.191   4.447   1.779 -0.3787  0.6191  0.5988
 6635TIP3    H219912   0.322   4.485   1.844 -0.1878  2.4994 -0.7921
 6636TIP3   OH219913   4.110   2.786   0.019  0.5507  0.1585 -0.0921
 6636TIP3    H119914   4.119   2.807   0.112 -0.2036 -1.0375  0.2687
 6636TIP3    H219915   4.190   2.737  -0.002  0.3701 -0.2485  0.1413
 6637TIP3   OH219916   2.606   4.050   5.005  0.0184 -0.3190 -0.3521
 6637TIP3    H119917   2.525   4.061   5.055  0.2181  0.7026 -0.2365
 6637TIP3    H219918   2.671   4.024   5.069 -0.1953 -1.0777 -0.4342
 6638TIP3   OH219919   6.163   1.026   1.901  0.1650  0.0013 -0.2120
 6638TIP3    H119920   6.220   1.072   1.963  0.8758 -0.7676 -0.2793
 6638TIP3    H219921   6.078   1.021   1.945 -0.2474  2.2925 -0.6233
 6639TIP3   OH219922   4.767   2.523   1.065  0.3271  0.0150 -0.1931
 6639TIP3    H119923   4.786   2.601   1.118  1.2591  0.1275 -0.6641
 6639TIP3    H219924   4.678   2.537   1.033  0.6347  1.1235 -0.6327
 6640TIP3   OH219925   1.638   3.150   3.867  0.1874 -0.0702 -0.7134
 6640TIP3    H119926   1.586   3.175   3.790  0.6399  0.1010 -0.9645
 6640TIP3    H219927   1.575   3.151   3.939  0.0523  1.1852 -0.8208
   6.34562   5.98270   5.18118   0.00000   0.00000  -2.11521   0.00000  -2.11521  -2.99136
