Generated by CHARMM-GUI FF-Converter
29212
    1ASP      N    1   5.186   3.880   3.250
    1ASP    HT1    2   5.238   3.866   3.339
    1ASP    HT2    3   5.232   3.954   3.191
    1ASP    HT3    4   5.184   3.792   3.194
    1ASP     CA    5   5.049   3.927   3.271
    1ASP     HA    6   5.054   4.020   3.326
    1ASP     CB    7   4.980   3.951   3.137
    1ASP    HB1    8   4.874   3.984   3.152
    1ASP    HB2    9   4.977   3.858   3.076
    1ASP     CG   10   5.046   4.059   3.053
    1ASP    OD1   11   5.128   4.136   3.108
    1ASP    OD2   12   5.017   4.067   2.932
    1ASP      C   13   4.969   3.828   3.355
    1ASP      O   14   4.987   3.707   3.343
    2GLY      N   15   4.903   3.841   3.483
    2GLY     HN   16   4.902   3.937   3.513
    2GLY     CA   17   4.824   3.761   3.576
    2GLY    HA1   18   4.809   3.820   3.665
    2GLY    HA2   19   4.878   3.670   3.593
    2GLY      C   20   4.688   3.725   3.522
    2GLY      O   21   4.644   3.778   3.420
    3ASP      N   22   4.630   3.638   3.588
    3ASP     HN   23   4.669   3.585   3.664
    3ASP     CA   24   4.493   3.606   3.551
    3ASP     HA   25   4.490   3.577   3.447
    3ASP     CB   26   4.440   3.488   3.634
    3ASP    HB1   27   4.337   3.462   3.603
    3ASP    HB2   28   4.439   3.516   3.742
    3ASP     CG   29   4.525   3.363   3.620
    3ASP    OD1   30   4.525   3.302   3.511
    3ASP    OD2   31   4.592   3.325   3.718
    3ASP      C   32   4.401   3.727   3.568
    3ASP      O   33   4.429   3.815   3.651
    4GLY      N   34   4.322   3.772   3.467
    4GLY     HN   35   4.312   3.716   3.385
    4GLY     CA   36   4.219   3.873   3.485
    4GLY    HA1   37   4.153   3.867   3.400
    4GLY    HA2   38   4.269   3.968   3.495
    4GLY      C   39   4.136   3.852   3.611
    4GLY      O   40   4.154   3.752   3.682
    5PRO      N   41   4.035   3.946   3.651
    5PRO     CD   42   4.007   4.059   3.568
    5PRO    HD1   43   3.986   4.027   3.463
    5PRO    HD2   44   4.094   4.129   3.570
    5PRO     CA   45   3.943   3.930   3.764
    5PRO     HA   46   4.003   3.909   3.851
    5PRO     CB   47   3.869   4.063   3.768
    5PRO    HB1   48   3.920   4.129   3.842
    5PRO    HB2   49   3.762   4.054   3.798
    5PRO     CG   50   3.886   4.121   3.631
    5PRO    HG1   51   3.797   4.093   3.569
    5PRO    HG2   52   3.894   4.232   3.633
    5PRO      C   53   3.846   3.813   3.744
    5PRO      O   54   3.825   3.769   3.631
    6GLY      N   55   3.815   3.762   3.847
    6GLY     HN   56   3.843   3.796   3.936
    6GLY     CA   57   3.723   3.650   3.842
    6GLY    HA1   58   3.697   3.623   3.943
    6GLY    HA2   59   3.768   3.568   3.787
    6GLY      C   60   3.591   3.685   3.775
    6GLY      O   61   3.557   3.802   3.762
    7ASP      N   62   3.512   3.587   3.718
    7ASP     HN   63   3.546   3.494   3.710
    7ASP     CA   64   3.376   3.602   3.665
    7ASP     HA   65   3.385   3.673   3.584
    7ASP     CB   66   3.324   3.467   3.613
    7ASP    HB1   67   3.214   3.472   3.596
    7ASP    HB2   68   3.341   3.388   3.688
    7ASP     CG   69   3.384   3.428   3.480
    7ASP    OD1   70   3.449   3.512   3.415
    7ASP    OD2   71   3.366   3.311   3.439
    7ASP      C   72   3.282   3.658   3.771
    7ASP      O   73   3.303   3.637   3.891
    8PRO      N   74   3.176   3.729   3.742
    8PRO     CD   75   3.150   3.774   3.614
    8PRO    HD1   76   3.114   3.688   3.553
    8PRO    HD2   77   3.238   3.822   3.566
    8PRO     CA   78   3.077   3.764   3.844
    8PRO     HA   79   3.127   3.818   3.923
    8PRO     CB   80   2.974   3.847   3.766
    8PRO    HB1   81   2.949   3.941   3.821
    8PRO    HB2   82   2.880   3.790   3.749
    8PRO     CG   83   3.039   3.874   3.634
    8PRO    HG1   84   2.966   3.871   3.551
    8PRO    HG2   85   3.083   3.976   3.636
    8PRO      C   86   3.011   3.641   3.907
    8PRO      O   87   2.999   3.537   3.841
    9GLY      N   88   2.988   3.647   4.044
    9GLY     HN   89   3.011   3.728   4.097
    9GLY     CA   90   2.919   3.541   4.114
    9GLY    HA1   91   2.910   3.571   4.218
    9GLY    HA2   92   2.974   3.449   4.100
    9GLY      C   93   2.777   3.519   4.064
    9GLY      O   94   2.720   3.605   3.997
   10ASP      N   95   2.713   3.411   4.069
   10ASP     HN   96   2.763   3.332   4.102
   10ASP     CA   97   2.574   3.380   4.039
   10ASP     HA   98   2.555   3.407   3.936
   10ASP     CB   99   2.546   3.231   4.061
   10ASP    HB1  100   2.437   3.212   4.056
   10ASP    HB2  101   2.584   3.200   4.160
   10ASP     CG  102   2.609   3.143   3.954
   10ASP    OD1  103   2.643   3.194   3.845
   10ASP    OD2  104   2.623   3.021   3.979
   10ASP      C  105   2.479   3.464   4.124
   10ASP      O  106   2.502   3.481   4.245
   11GLY      N  107   2.392   3.588   4.067
   11GLY     HN  108   2.397   3.601   3.968
   11GLY     CA  109   2.296   3.670   4.139
   11GLY    HA1  110   2.245   3.733   4.068
   11GLY    HA2  111   2.351   3.724   4.214
   11GLY      C  112   2.191   3.588   4.211
   11GLY    OT1  113   2.197   3.462   4.203
   11GLY    OT2  114   2.103   3.650   4.277
   12LIT    LIT  115   1.159   4.997   2.190
   13LIT    LIT  116   1.190   2.161   2.305
   14LIT    LIT  117   2.981  -0.323   3.311
   15LIT    LIT  118   5.483   1.669   5.635
   16LIT    LIT  119   5.358   7.078   2.366
   17LIT    LIT  120   0.304   4.576   1.824
   18LIT    LIT  121   7.376   4.687   5.302
   19LIT    LIT  122   2.351   6.768   2.046
   20LIT    LIT  123   4.521   0.406   5.605
   21LIT    LIT  124   7.404   3.410   3.548
   22LIT    LIT  125   0.007   3.844   2.452
   23LIT    LIT  126   4.334   7.083   4.726
   24LIT    LIT  127   5.728   6.074   2.208
   25LIT    LIT  128   3.323   5.159   0.475
   26LIT    LIT  129   4.453   3.557   2.551
   27LIT    LIT  130   1.221   5.938   6.132
   28LIT    LIT  131   3.744   7.238   6.241
   29LIT    LIT  132   5.107   0.263   1.752
   30LIT    LIT  133   4.402   4.805   6.109
   31LIT    LIT  134   5.111   2.074  -0.080
   32LIT    LIT  135   0.380   4.810   4.433
   33LIT    LIT  136   2.083   2.724   1.191
   34LIT    LIT  137   4.343   2.370   4.936
   35LIT    LIT  138   1.879   4.036   4.127
   36LIT    LIT  139   6.303   4.956   4.717
   37LIT    LIT  140   2.253   1.700   4.107
   38LIT    LIT  141   6.884   2.096   6.076
   39LIT    LIT  142   5.271   1.761   4.008
   40LIT    LIT  143   3.851   2.883   4.015
   41LIT    LIT  144   3.705   0.879   1.960
   42LIT    LIT  145   1.302   4.515   5.949
   43CLA    CLA  146   3.875   7.066   6.310
   44CLA    CLA  147   3.270   4.522   0.143
   45CLA    CLA  148   1.745   0.905   2.461
   46CLA    CLA  149   0.473   5.306   1.739
   47CLA    CLA  150   4.867   6.747   2.847
   48CLA    CLA  151   2.000   1.852   2.742
   49CLA    CLA  152   6.748   3.115   5.601
   50CLA    CLA  153   0.281   5.179   3.898
   51CLA    CLA  154   6.474   3.663   1.578
   52CLA    CLA  155   0.738   4.323   1.921
   53CLA    CLA  156   1.256   3.469   5.850
   54CLA    CLA  157   1.041   6.045   6.029
   55CLA    CLA  158   6.000   6.501   2.091
   56CLA    CLA  159   3.721   5.690   2.478
   57CLA    CLA  160   1.228   2.795   4.956
   58CLA    CLA  161   0.788   3.728   2.781
   59CLA    CLA  162   3.574   2.873   4.686
   60CLA    CLA  163   1.673   6.627   1.804
   61CLA    CLA  164  -0.231   3.578   2.726
   62CLA    CLA  165   3.762   6.975   5.097
   63CLA    CLA  166   1.658   5.061   2.342
   64CLA    CLA  167   2.236   3.903   1.623
   65CLA    CLA  168   1.673   6.412   3.499
   66CLA    CLA  169   6.158   5.082   4.823
   67CLA    CLA  170   5.340   3.152   1.937
   68CLA    CLA  171   1.914   4.335   5.793
   69CLA    CLA  172   4.116   1.210   0.840
   70TIP3   OH2  173   3.450  -0.403   1.975
   70TIP3    H1  174   3.381  -0.349   1.931
   70TIP3    H2  175   3.436  -0.370   2.065
   71TIP3   OH2  176   2.884   0.398   1.627
   71TIP3    H1  177   2.805   0.393   1.687
   71TIP3    H2  178   2.865   0.478   1.574
   72TIP3   OH2  179   3.088   0.289   1.950
   72TIP3    H1  180   3.068   0.213   1.892
   72TIP3    H2  181   3.076   0.365   1.889
   73TIP3   OH2  182   3.290  -0.059   1.814
   73TIP3    H1  183   3.206  -0.015   1.792
   73TIP3    H2  184   3.310  -0.110   1.734
   74TIP3   OH2  185   2.952  -0.171   2.058
   74TIP3    H1  186   2.952  -0.092   2.115
   74TIP3    H2  187   2.861  -0.174   2.028
   75TIP3   OH2  188   2.656   0.395   1.762
   75TIP3    H1  189   2.638   0.492   1.766
   75TIP3    H2  190   2.617   0.370   1.848
   76TIP3   OH2  191   2.179   0.330   2.363
   76TIP3    H1  192   2.222   0.406   2.406
   76TIP3    H2  193   2.124   0.297   2.436
   77TIP3   OH2  194   1.964   0.490   2.307
   77TIP3    H1  195   2.034   0.423   2.300
   77TIP3    H2  196   1.983   0.521   2.398
   78TIP3   OH2  197   3.334   0.656   1.990
   78TIP3    H1  198   3.339   0.558   1.999
   78TIP3    H2  199   3.248   0.671   2.035
   79TIP3   OH2  200   2.445   0.411   2.161
   79TIP3    H1  201   2.441   0.508   2.178
   79TIP3    H2  202   2.352   0.389   2.179
   80TIP3   OH2  203   3.217  -0.195   2.303
   80TIP3    H1  204   3.128  -0.187   2.266
   80TIP3    H2  205   3.242  -0.284   2.270
   81TIP3   OH2  206   2.986  -0.412   2.237
   81TIP3    H1  207   2.937  -0.433   2.320
   81TIP3    H2  208   2.921  -0.355   2.192
   82TIP3   OH2  209   2.719  -0.213   2.414
   82TIP3    H1  210   2.685  -0.296   2.452
   82TIP3    H2  211   2.813  -0.218   2.442
   83TIP3   OH2  212   3.020   0.985   2.091
   83TIP3    H1  213   3.011   1.012   1.998
   83TIP3    H2  214   3.085   1.048   2.125
   84TIP3   OH2  215   3.039   0.076   1.770
   84TIP3    H1  216   3.090   0.135   1.710
   84TIP3    H2  217   2.956   0.070   1.720
   85TIP3   OH2  218   2.608   0.191   2.176
   85TIP3    H1  219   2.627   0.212   2.270
   85TIP3    H2  220   2.550   0.266   2.152
   86TIP3   OH2  221   2.496  -0.074   2.469
   86TIP3    H1  222   2.471  -0.055   2.375
   86TIP3    H2  223   2.585  -0.114   2.452
   87TIP3   OH2  224   2.705   0.453   2.042
   87TIP3    H1  225   2.613   0.440   2.070
   87TIP3    H2  226   2.744   0.488   2.126
   88TIP3   OH2  227   3.339   0.361   2.033
   88TIP3    H1  228   3.241   0.350   2.028
   88TIP3    H2  229   3.364   0.323   1.946
   89TIP3   OH2  230   6.518   4.698   6.204
   89TIP3    H1  231   6.587   4.634   6.181
   89TIP3    H2  232   6.569   4.778   6.220
   90TIP3   OH2  233   2.855   0.672   1.930
   90TIP3    H1  234   2.780   0.609   1.935
   90TIP3    H2  235   2.829   0.729   1.855
   91TIP3   OH2  236   3.256  -0.441   2.205
   91TIP3    H1  237   3.159  -0.443   2.219
   91TIP3    H2  238   3.263  -0.493   2.124
   92TIP3   OH2  239   2.871   0.645   1.507
   92TIP3    H1  240   2.824   0.708   1.448
   92TIP3    H2  241   2.964   0.669   1.487
   93TIP3   OH2  242   1.635   0.665   2.602
   93TIP3    H1  243   1.678   0.747   2.568
   93TIP3    H2  244   1.659   0.604   2.531
   94TIP3   OH2  245   2.137   0.614   2.497
   94TIP3    H1  246   2.218   0.623   2.549
   94TIP3    H2  247   2.098   0.703   2.506
   95TIP3   OH2  248   2.767   0.548   2.286
   95TIP3    H1  249   2.757   0.479   2.356
   95TIP3    H2  250   2.842   0.602   2.321
   96TIP3   OH2  251   2.400   0.180   2.483
   96TIP3    H1  252   2.365   0.172   2.393
   96TIP3    H2  253   2.448   0.096   2.493
   97TIP3   OH2  254   2.869   0.153   2.069
   97TIP3    H1  255   2.924   0.227   2.037
   97TIP3    H2  256   2.783   0.196   2.088
   98TIP3   OH2  257   2.752   0.107   2.477
   98TIP3    H1  258   2.826   0.072   2.426
   98TIP3    H2  259   2.745   0.042   2.550
   99TIP3   OH2  260   2.964  -0.216   2.532
   99TIP3    H1  261   3.000  -0.298   2.574
   99TIP3    H2  262   3.044  -0.177   2.495
  100TIP3   OH2  263   3.001   0.035   2.270
  100TIP3    H1  264   2.944   0.082   2.205
  100TIP3    H2  265   3.089   0.056   2.231
  101TIP3   OH2  266   2.590  -0.423   2.553
  101TIP3    H1  267   2.661  -0.447   2.614
  101TIP3    H2  268   2.513  -0.459   2.601
  102TIP3   OH2  269   2.869  -0.512   2.466
  102TIP3    H1  270   2.786  -0.562   2.475
  102TIP3    H2  271   2.934  -0.575   2.502
  103TIP3   OH2  272   3.124   0.738   1.480
  103TIP3    H1  273   3.147   0.769   1.570
  103TIP3    H2  274   3.191   0.784   1.425
  104TIP3   OH2  275   3.157   0.765   1.759
  104TIP3    H1  276   3.108   0.679   1.759
  104TIP3    H2  277   3.231   0.738   1.815
  105TIP3   OH2  278   3.197   0.434   2.338
  105TIP3    H1  279   3.125   0.444   2.403
  105TIP3    H2  280   3.238   0.523   2.340
  106TIP3   OH2  281   3.192   0.221   1.608
  106TIP3    H1  282   3.269   0.177   1.567
  106TIP3    H2  283   3.132   0.234   1.531
  107TIP3   OH2  284   3.048   0.520   1.802
  107TIP3    H1  285   2.974   0.561   1.851
  107TIP3    H2  286   3.001   0.473   1.729
  108TIP3   OH2  287   3.244   0.103   2.161
  108TIP3    H1  288   3.313   0.036   2.144
  108TIP3    H2  289   3.259   0.168   2.091
  109TIP3   OH2  290   3.431  -0.091   2.166
  109TIP3    H1  291   3.356  -0.128   2.216
  109TIP3    H2  292   3.500  -0.157   2.190
  110TIP3   OH2  293   3.207  -0.269   1.967
  110TIP3    H1  294   3.115  -0.249   1.993
  110TIP3    H2  295   3.231  -0.191   1.914
  111TIP3   OH2  296   1.915   0.346   2.561
  111TIP3    H1  297   1.818   0.343   2.558
  111TIP3    H2  298   1.932   0.408   2.633
  112TIP3   OH2  299   2.432   0.678   2.205
  112TIP3    H1  300   2.465   0.681   2.298
  112TIP3    H2  301   2.504   0.727   2.159
  113TIP3   OH2  302   2.634   0.819   2.087
  113TIP3    H1  303   2.709   0.771   2.049
  113TIP3    H2  304   2.681   0.880   2.149
  114TIP3   OH2  305   2.392   0.763   1.660
  114TIP3    H1  306   2.295   0.742   1.651
  114TIP3    H2  307   2.382   0.847   1.706
  115TIP3   OH2  308   2.601   0.656   1.792
  115TIP3    H1  309   2.515   0.676   1.749
  115TIP3    H2  310   2.647   0.739   1.776
  116TIP3   OH2  311   2.800   0.836   1.711
  116TIP3    H1  312   2.782   0.923   1.669
  116TIP3    H2  313   2.818   0.780   1.632
  117TIP3   OH2  314   3.082   0.717   2.088
  117TIP3    H1  315   3.004   0.686   2.038
  117TIP3    H2  316   3.059   0.811   2.098
  118TIP3   OH2  317   3.663  -0.001   1.597
  118TIP3    H1  318   3.664  -0.087   1.643
  118TIP3    H2  319   3.728   0.047   1.652
  119TIP3   OH2  320   3.610   0.387   1.324
  119TIP3    H1  321   3.603   0.289   1.327
  119TIP3    H2  322   3.706   0.397   1.305
  120TIP3   OH2  323   4.197   0.761   0.966
  120TIP3    H1  324   4.276   0.738   0.914
  120TIP3    H2  325   4.208   0.857   0.979
  121TIP3   OH2  326   4.132   0.311   1.286
  121TIP3    H1  327   4.166   0.260   1.211
  121TIP3    H2  328   4.217   0.350   1.319
  122TIP3   OH2  329   3.988   0.238   1.511
  122TIP3    H1  330   3.928   0.308   1.543
  122TIP3    H2  331   4.031   0.281   1.434
  123TIP3   OH2  332   3.721  -0.404   1.538
  123TIP3    H1  333   3.801  -0.351   1.548
  123TIP3    H2  334   3.744  -0.463   1.465
  124TIP3   OH2  335   3.820   0.434   1.611
  124TIP3    H1  336   3.798   0.522   1.573
  124TIP3    H2  337   3.739   0.419   1.664
  125TIP3   OH2  338   4.673   0.648   1.091
  125TIP3    H1  339   4.584   0.625   1.126
  125TIP3    H2  340   4.652   0.729   1.040
  126TIP3   OH2  341   4.391   0.677   0.774
  126TIP3    H1  342   4.428   0.614   0.711
  126TIP3    H2  343   4.400   0.759   0.722
  127TIP3   OH2  344   4.882   0.543   1.438
  127TIP3    H1  345   4.861   0.476   1.369
  127TIP3    H2  346   4.863   0.626   1.390
  128TIP3   OH2  347   4.747   0.077   1.579
  128TIP3    H1  348   4.713   0.165   1.602
  128TIP3    H2  349   4.673   0.048   1.519
  129TIP3   OH2  350   3.765   0.015   1.071
  129TIP3    H1  351   3.746  -0.023   0.984
  129TIP3    H2  352   3.860   0.001   1.071
  130TIP3   OH2  353   3.870   0.410   1.224
  130TIP3    H1  354   3.856   0.387   1.130
  130TIP3    H2  355   3.961   0.379   1.238
  131TIP3   OH2  356   3.911  -0.000   1.404
  131TIP3    H1  357   3.950   0.036   1.324
  131TIP3    H2  358   3.926   0.075   1.464
  132TIP3   OH2  359   4.432   0.622   1.211
  132TIP3    H1  360   4.401   0.708   1.245
  132TIP3    H2  361   4.398   0.558   1.275
  133TIP3   OH2  362   4.034   0.539   1.744
  133TIP3    H1  363   3.972   0.599   1.787
  133TIP3    H2  364   3.973   0.485   1.691
  134TIP3   OH2  365   3.783   0.111   1.850
  134TIP3    H1  366   3.787   0.196   1.897
  134TIP3    H2  367   3.693   0.081   1.876
  135TIP3   OH2  368   4.055   0.613   0.785
  135TIP3    H1  369   4.095   0.658   0.863
  135TIP3    H2  370   3.993   0.681   0.754
  136TIP3   OH2  371   3.410   0.252   1.797
  136TIP3    H1  372   3.344   0.232   1.728
  136TIP3    H2  373   3.448   0.164   1.816
  137TIP3   OH2  374   3.250   0.446   1.392
  137TIP3    H1  375   3.345   0.427   1.403
  137TIP3    H2  376   3.237   0.514   1.460
  138TIP3   OH2  377   5.120   0.899   1.483
  138TIP3    H1  378   5.117   0.803   1.492
  138TIP3    H2  379   5.035   0.924   1.525
  139TIP3   OH2  380   4.231   0.677   1.611
  139TIP3    H1  381   4.222   0.769   1.643
  139TIP3    H2  382   4.158   0.632   1.660
  140TIP3   OH2  383   3.932   0.831   0.577
  140TIP3    H1  384   3.959   0.773   0.504
  140TIP3    H2  385   4.006   0.893   0.581
  141TIP3   OH2  386   3.415   0.662   0.952
  141TIP3    H1  387   3.476   0.639   1.026
  141TIP3    H2  388   3.397   0.577   0.910
  142TIP3   OH2  389   5.036   0.091   1.731
  142TIP3    H1  390   4.949   0.078   1.687
  142TIP3    H2  391   5.051  -0.003   1.753
  143TIP3   OH2  392   3.604   0.444   1.785
  143TIP3    H1  393   3.659   0.413   1.860
  143TIP3    H2  394   3.531   0.377   1.786
  144TIP3   OH2  395   4.851  -0.113   1.753
  144TIP3    H1  396   4.776  -0.135   1.811
  144TIP3    H2  397   4.805  -0.066   1.680
  145TIP3   OH2  398   3.927  -0.213   1.584
  145TIP3    H1  399   3.865  -0.196   1.658
  145TIP3    H2  400   3.906  -0.139   1.523
  146TIP3   OH2  401   4.498   0.049   1.906
  146TIP3    H1  402   4.465  -0.024   1.963
  146TIP3    H2  403   4.592   0.052   1.934
  147TIP3   OH2  404   3.750  -0.182   1.785
  147TIP3    H1  405   3.771  -0.135   1.866
  147TIP3    H2  406   3.739  -0.273   1.821
  148TIP3   OH2  407   4.508   0.012   1.462
  148TIP3    H1  408   4.460  -0.040   1.396
  148TIP3    H2  409   4.473  -0.025   1.546
  149TIP3   OH2  410   4.815   1.241   1.577
  149TIP3    H1  411   4.810   1.268   1.484
  149TIP3    H2  412   4.895   1.289   1.607
  150TIP3   OH2  413   3.769   0.358   1.997
  150TIP3    H1  414   3.850   0.378   2.049
  150TIP3    H2  415   3.705   0.345   2.070
  151TIP3   OH2  416   4.175  -0.289   1.502
  151TIP3    H1  417   4.099  -0.244   1.544
  151TIP3    H2  418   4.243  -0.290   1.572
  152TIP3   OH2  419   4.831   0.328   1.274
  152TIP3    H1  420   4.909   0.292   1.229
  152TIP3    H2  421   4.768   0.254   1.265
  153TIP3   OH2  422   4.338   0.411   1.638
  153TIP3    H1  423   4.365   0.396   1.729
  153TIP3    H2  424   4.311   0.504   1.638
  154TIP3   OH2  425   3.626   0.105   1.306
  154TIP3    H1  426   3.681   0.076   1.231
  154TIP3    H2  427   3.666   0.059   1.381
  155TIP3   OH2  428   3.528   0.034   1.926
  155TIP3    H1  429   3.531   0.012   2.022
  155TIP3    H2  430   3.452  -0.021   1.898
  156TIP3   OH2  431   4.244   0.156   1.945
  156TIP3    H1  432   4.181   0.092   1.905
  156TIP3    H2  433   4.329   0.123   1.910
  157TIP3   OH2  434   4.502   0.659   1.542
  157TIP3    H1  435   4.406   0.669   1.546
  157TIP3    H2  436   4.530   0.720   1.613
  158TIP3   OH2  437   5.143   0.597   1.516
  158TIP3    H1  438   5.046   0.581   1.511
  158TIP3    H2  439   5.169   0.584   1.424
  159TIP3   OH2  440   3.728   0.432   0.937
  159TIP3    H1  441   3.742   0.519   0.893
  159TIP3    H2  442   3.649   0.403   0.891
  160TIP3   OH2  443   3.926   0.231   0.976
  160TIP3    H1  444   3.896   0.305   0.921
  160TIP3    H2  445   3.846   0.177   0.979
  161TIP3   OH2  446   4.010   0.767   1.398
  161TIP3    H1  447   4.048   0.840   1.344
  161TIP3    H2  448   4.091   0.730   1.437
  162TIP3   OH2  449   3.672   0.671   0.798
  162TIP3    H1  450   3.580   0.690   0.820
  162TIP3    H2  451   3.707   0.762   0.794
  163TIP3   OH2  452   4.381   0.385   1.371
  163TIP3    H1  453   4.370   0.390   1.469
  163TIP3    H2  454   4.471   0.350   1.364
  164TIP3   OH2  455   4.638   0.929   1.410
  164TIP3    H1  456   4.556   0.879   1.396
  164TIP3    H2  457   4.630   0.996   1.339
  165TIP3   OH2  458   3.727  -0.396   1.948
  165TIP3    H1  459   3.630  -0.406   1.951
  165TIP3    H2  460   3.759  -0.476   1.993
  166TIP3   OH2  461   3.438   0.620   1.556
  166TIP3    H1  462   3.498   0.555   1.596
  166TIP3    H2  463   3.466   0.702   1.600
  167TIP3   OH2  464   4.417  -0.099   1.688
  167TIP3    H1  465   4.445  -0.053   1.769
  167TIP3    H2  466   4.417  -0.192   1.716
  168TIP3   OH2  467   3.675   0.494   0.570
  168TIP3    H1  468   3.713   0.517   0.484
  168TIP3    H2  469   3.675   0.578   0.619
  169TIP3   OH2  470   4.654   0.913   1.002
  169TIP3    H1  471   4.610   0.950   0.922
  169TIP3    H2  472   4.748   0.934   0.981
  170TIP3   OH2  473   3.441   0.920   1.989
  170TIP3    H1  474   3.447   0.907   2.085
  170TIP3    H2  475   3.394   0.838   1.964
  171TIP3   OH2  476   4.552   0.807   1.769
  171TIP3    H1  477   4.546   0.738   1.839
  171TIP3    H2  478   4.631   0.858   1.798
  172TIP3   OH2  479   3.567   0.341   2.187
  172TIP3    H1  480   3.580   0.244   2.197
  172TIP3    H2  481   3.479   0.344   2.143
  173TIP3   OH2  482   4.170   0.426   1.960
  173TIP3    H1  483   4.134   0.445   1.872
  173TIP3    H2  484   4.199   0.332   1.951
  174TIP3   OH2  485   4.660   0.437   1.570
  174TIP3    H1  486   4.733   0.481   1.524
  174TIP3    H2  487   4.590   0.506   1.559
  175TIP3   OH2  488   3.697   0.084   2.170
  175TIP3    H1  489   3.774   0.033   2.143
  175TIP3    H2  490   3.724   0.116   2.259
  176TIP3   OH2  491   4.026  -0.032   1.844
  176TIP3    H1  492   3.942   0.017   1.832
  176TIP3    H2  493   4.075  -0.005   1.763
  177TIP3   OH2  494   4.546   0.363   1.971
  177TIP3    H1  495   4.590   0.303   1.909
  177TIP3    H2  496   4.523   0.302   2.043
  178TIP3   OH2  497   4.135  -0.244   1.971
  178TIP3    H1  498   4.120  -0.331   1.931
  178TIP3    H2  499   4.090  -0.183   1.908
  179TIP3   OH2  500   4.163   0.072   1.643
  179TIP3    H1  501   4.250   0.071   1.600
  179TIP3    H2  502   4.113   0.138   1.591
  180TIP3   OH2  503   4.748   0.047   2.016
  180TIP3    H1  504   4.752  -0.049   2.035
  180TIP3    H2  505   4.841   0.066   1.996
  181TIP3   OH2  506   4.838   0.319   1.733
  181TIP3    H1  507   4.750   0.363   1.724
  181TIP3    H2  508   4.859   0.318   1.639
  182TIP3   OH2  509   4.008  -0.111   2.189
  182TIP3    H1  510   3.939  -0.179   2.199
  182TIP3    H2  511   4.049  -0.138   2.104
  183TIP3   OH2  512   4.393  -0.163   2.029
  183TIP3    H1  513   4.412  -0.226   2.102
  183TIP3    H2  514   4.301  -0.190   2.008
  184TIP3   OH2  515   4.698  -0.225   1.991
  184TIP3    H1  516   4.606  -0.242   2.018
  184TIP3    H2  517   4.747  -0.289   2.046
  185TIP3   OH2  518   3.851  -0.329   2.243
  185TIP3    H1  519   3.861  -0.411   2.189
  185TIP3    H2  520   3.913  -0.348   2.315
  186TIP3   OH2  521   3.649   0.745   0.336
  186TIP3    H1  522   3.738   0.720   0.310
  186TIP3    H2  523   3.611   0.777   0.254
  187TIP3   OH2  524   3.065   0.742   0.996
  187TIP3    H1  525   2.975   0.768   1.025
  187TIP3    H2  526   3.088   0.673   1.060
  188TIP3   OH2  527   3.187   0.540   1.150
  188TIP3    H1  528   3.199   0.509   1.244
  188TIP3    H2  529   3.246   0.617   1.154
  189TIP3   OH2  530   4.907   1.005   0.967
  189TIP3    H1  531   4.945   1.036   1.050
  189TIP3    H2  532   4.981   1.015   0.904
  190TIP3   OH2  533   4.946   1.018   1.253
  190TIP3    H1  534   4.902   0.930   1.245
  190TIP3    H2  535   5.025   0.993   1.303
  191TIP3   OH2  536   4.999   0.662   1.840
  191TIP3    H1  537   4.923   0.685   1.897
  191TIP3    H2  538   5.041   0.749   1.830
  192TIP3   OH2  539   4.825   0.766   1.284
  192TIP3    H1  540   4.750   0.812   1.325
  192TIP3    H2  541   4.781   0.721   1.208
  193TIP3   OH2  542   3.407   0.082   1.540
  193TIP3    H1  543   3.386   0.001   1.488
  193TIP3    H2  544   3.503   0.067   1.556
  194TIP3   OH2  545   3.581  -0.307   2.234
  194TIP3    H1  546   3.679  -0.309   2.229
  194TIP3    H2  547   3.558  -0.400   2.224
  195TIP3   OH2  548   4.442   0.883   0.602
  195TIP3    H1  549   4.534   0.852   0.585
  195TIP3    H2  550   4.461   0.951   0.670
  196TIP3   OH2  551   3.634   0.712   2.027
  196TIP3    H1  552   3.558   0.664   1.988
  196TIP3    H2  553   3.642   0.662   2.110
  197TIP3   OH2  554   3.790   0.703   1.552
  197TIP3    H1  555   3.742   0.780   1.515
  197TIP3    H2  556   3.875   0.717   1.505
  198TIP3   OH2  557   4.214   0.946   1.694
  198TIP3    H1  558   4.260   0.943   1.780
  198TIP3    H2  559   4.280   0.995   1.640
  199TIP3   OH2  560   4.398   1.096   1.557
  199TIP3    H1  561   4.466   1.051   1.506
  199TIP3    H2  562   4.453   1.152   1.616
  200TIP3   OH2  563   3.449   0.949   1.589
  200TIP3    H1  564   3.362   0.977   1.554
  200TIP3    H2  565   3.456   1.011   1.663
  201TIP3   OH2  566   3.690   0.934   1.445
  201TIP3    H1  567   3.600   0.946   1.482
  201TIP3    H2  568   3.676   0.965   1.352
  202TIP3   OH2  569   4.117   0.964   1.234
  202TIP3    H1  570   4.049   0.975   1.164
  202TIP3    H2  571   4.129   1.056   1.263
  203TIP3   OH2  572   4.385   0.895   1.290
  203TIP3    H1  573   4.291   0.914   1.269
  203TIP3    H2  574   4.430   0.965   1.239
  204TIP3   OH2  575   4.592   1.092   1.199
  204TIP3    H1  576   4.576   1.177   1.153
  204TIP3    H2  577   4.618   1.033   1.125
  205TIP3   OH2  578   3.362   0.745   1.313
  205TIP3    H1  579   3.385   0.712   1.402
  205TIP3    H2  580   3.434   0.702   1.262
  206TIP3   OH2  581   3.556   0.612   1.179
  206TIP3    H1  582   3.575   0.530   1.229
  206TIP3    H2  583   3.646   0.652   1.175
  207TIP3   OH2  584   3.816   0.712   1.189
  207TIP3    H1  585   3.862   0.632   1.159
  207TIP3    H2  586   3.871   0.735   1.267
  208TIP3   OH2  587   4.865   0.970   1.578
  208TIP3    H1  588   4.789   0.943   1.523
  208TIP3    H2  589   4.850   1.067   1.581
  209TIP3   OH2  590   5.800   0.797   1.317
  209TIP3    H1  591   5.757   0.882   1.339
  209TIP3    H2  592   5.794   0.799   1.220
  210TIP3   OH2  593   5.603   0.998   1.334
  210TIP3    H1  594   5.573   0.994   1.240
  210TIP3    H2  595   5.525   0.963   1.383
  211TIP3   OH2  596   5.359   0.677   1.279
  211TIP3    H1  597   5.431   0.680   1.344
  211TIP3    H2  598   5.398   0.623   1.207
  212TIP3   OH2  599   5.562   0.613   1.485
  212TIP3    H1  600   5.645   0.639   1.529
  212TIP3    H2  601   5.498   0.630   1.555
  213TIP3   OH2  602   5.256   0.888   1.077
  213TIP3    H1  603   5.287   0.831   1.150
  213TIP3    H2  604   5.287   0.976   1.107
  214TIP3   OH2  605   5.234   1.198   1.475
  214TIP3    H1  606   5.321   1.201   1.522
  214TIP3    H2  607   5.217   1.102   1.474
  215TIP3   OH2  608   5.707   1.149   1.531
  215TIP3    H1  609   5.801   1.126   1.524
  215TIP3    H2  610   5.672   1.101   1.453
  216TIP3   OH2  611   5.358   0.590   1.685
  216TIP3    H1  612   5.375   0.496   1.667
  216TIP3    H2  613   5.276   0.605   1.632
  217TIP3   OH2  614   5.437   0.285   1.697
  217TIP3    H1  615   5.500   0.278   1.624
  217TIP3    H2  616   5.489   0.337   1.762
  218TIP3   OH2  617   5.399   0.917   1.504
  218TIP3    H1  618   5.308   0.894   1.479
  218TIP3    H2  619   5.392   0.926   1.600
  219TIP3   OH2  620   5.558   0.967   1.062
  219TIP3    H1  621   5.544   1.047   1.007
  219TIP3    H2  622   5.634   0.926   1.017
  220TIP3   OH2  623   5.993   1.231   1.211
  220TIP3    H1  624   6.048   1.221   1.290
  220TIP3    H2  625   6.050   1.190   1.144
  221TIP3   OH2  626   6.186   1.407   1.023
  221TIP3    H1  627   6.272   1.389   0.979
  221TIP3    H2  628   6.218   1.450   1.104
  222TIP3   OH2  629   5.247   1.209   1.068
  222TIP3    H1  630   5.156   1.242   1.050
  222TIP3    H2  631   5.272   1.267   1.141
  223TIP3   OH2  632   5.489   1.195   0.924
  223TIP3    H1  633   5.401   1.205   0.965
  223TIP3    H2  634   5.470   1.224   0.832
  224TIP3   OH2  635   5.156   1.019   0.827
  224TIP3    H1  636   5.185   1.006   0.919
  224TIP3    H2  637   5.232   0.984   0.778
  225TIP3   OH2  638   0.981   1.850   2.097
  225TIP3    H1  639   0.997   1.791   2.022
  225TIP3    H2  640   0.954   1.933   2.053
  226TIP3   OH2  641   1.060   1.325   2.452
  226TIP3    H1  642   0.976   1.336   2.403
  226TIP3    H2  643   1.091   1.241   2.413
  227TIP3   OH2  644   0.864   2.534   2.244
  227TIP3    H1  645   0.854   2.562   2.151
  227TIP3    H2  646   0.938   2.591   2.273
  228TIP3   OH2  647   0.607   1.992   2.169
  228TIP3    H1  648   0.516   1.962   2.184
  228TIP3    H2  649   0.628   2.023   2.260
  229TIP3   OH2  650   0.695   2.241   2.080
  229TIP3    H1  651   0.627   2.172   2.088
  229TIP3    H2  652   0.665   2.293   2.003
  230TIP3   OH2  653  -0.022   2.191   2.709
  230TIP3    H1  654   0.070   2.164   2.727
  230TIP3    H2  655  -0.033   2.154   2.620
  231TIP3   OH2  656   0.616   2.095   2.427
  231TIP3    H1  657   0.593   2.030   2.497
  231TIP3    H2  658   0.676   2.156   2.474
  232TIP3   OH2  659   0.592   1.661   2.639
  232TIP3    H1  660   0.677   1.655   2.592
  232TIP3    H2  661   0.614   1.615   2.723
  233TIP3   OH2  662   0.859   1.389   2.676
  233TIP3    H1  663   0.832   1.297   2.693
  233TIP3    H2  664   0.938   1.378   2.620
  234TIP3   OH2  665   0.864   1.622   2.446
  234TIP3    H1  666   0.792   1.623   2.381
  234TIP3    H2  667   0.942   1.631   2.388
  235TIP3   OH2  668   0.951   2.301   1.615
  235TIP3    H1  669   0.969   2.337   1.704
  235TIP3    H2  670   1.025   2.336   1.564
  236TIP3   OH2  671   0.978   2.319   1.903
  236TIP3    H1  672   0.941   2.229   1.908
  236TIP3    H2  673   1.073   2.303   1.914
  237TIP3   OH2  674   0.861   2.061   1.949
  237TIP3    H1  675   0.798   2.109   2.007
  237TIP3    H2  676   0.804   2.039   1.874
  238TIP3   OH2  677   1.088   1.656   2.285
  238TIP3    H1  678   1.168   1.598   2.282
  238TIP3    H2  679   1.101   1.715   2.209
  239TIP3   OH2  680   1.267   1.460   2.329
  239TIP3    H1  681   1.199   1.410   2.376
  239TIP3    H2  682   1.345   1.401   2.340
  240TIP3   OH2  683   1.459   0.866   2.663
  240TIP3    H1  684   1.507   0.781   2.652
  240TIP3    H2  685   1.483   0.910   2.581
  241TIP3   OH2  686   1.365   1.036   2.455
  241TIP3    H1  687   1.288   1.012   2.509
  241TIP3    H2  688   1.388   0.950   2.412
  242TIP3   OH2  689   0.255   2.270   2.363
  242TIP3    H1  690   0.303   2.249   2.446
  242TIP3    H2  691   0.330   2.304   2.309
  243TIP3   OH2  692   0.466   2.387   2.223
  243TIP3    H1  693   0.549   2.343   2.200
  243TIP3    H2  694   0.500   2.456   2.284
  244TIP3   OH2  695   0.661   2.398   1.854
  244TIP3    H1  696   0.626   2.486   1.829
  244TIP3    H2  697   0.688   2.366   1.767
  245TIP3   OH2  698   0.938   2.264   2.253
  245TIP3    H1  699   0.863   2.236   2.197
  245TIP3    H2  700   0.916   2.360   2.258
  246TIP3   OH2  701   2.214   1.651   1.012
  246TIP3    H1  702   2.196   1.746   0.994
  246TIP3    H2  703   2.139   1.611   0.967
  247TIP3   OH2  704   2.185   1.663   1.398
  247TIP3    H1  705   2.225   1.653   1.487
  247TIP3    H2  706   2.135   1.579   1.393
  248TIP3   OH2  707   1.490   1.570   1.748
  248TIP3    H1  708   1.483   1.490   1.803
  248TIP3    H2  709   1.576   1.604   1.778
  249TIP3   OH2  710   2.426   1.947   1.077
  249TIP3    H1  711   2.419   1.882   1.148
  249TIP3    H2  712   2.460   2.025   1.124
  250TIP3   OH2  713   1.443   1.953   1.475
  250TIP3    H1  714   1.425   1.867   1.517
  250TIP3    H2  715   1.539   1.952   1.466
  251TIP3   OH2  716   2.095   2.401   1.102
  251TIP3    H1  717   2.131   2.338   1.035
  251TIP3    H2  718   2.080   2.342   1.176
  252TIP3   OH2  719   1.985   1.875   1.433
  252TIP3    H1  720   2.033   1.798   1.399
  252TIP3    H2  721   2.063   1.928   1.460
  253TIP3   OH2  722   3.002   1.193   1.433
  253TIP3    H1  723   3.028   1.275   1.479
  253TIP3    H2  724   3.027   1.214   1.341
  254TIP3   OH2  725   2.429   1.383   1.507
  254TIP3    H1  726   2.461   1.294   1.528
  254TIP3    H2  727   2.393   1.368   1.417
  255TIP3   OH2  728   3.071   1.402   1.605
  255TIP3    H1  729   2.986   1.447   1.585
  255TIP3    H2  730   3.092   1.441   1.692
  256TIP3   OH2  731   2.071   1.855   0.899
  256TIP3    H1  732   2.029   1.835   0.813
  256TIP3    H2  733   2.045   1.949   0.907
  257TIP3   OH2  734   1.840   1.803   1.667
  257TIP3    H1  735   1.776   1.868   1.703
  257TIP3    H2  736   1.877   1.852   1.591
  258TIP3   OH2  737   2.651   1.120   1.233
  258TIP3    H1  738   2.636   1.077   1.319
  258TIP3    H2  739   2.684   1.208   1.261
  259TIP3   OH2  740   1.657   1.992   1.761
  259TIP3    H1  741   1.628   2.079   1.726
  259TIP3    H2  742   1.582   1.971   1.820
  260TIP3   OH2  743   2.491   2.195   1.234
  260TIP3    H1  744   2.401   2.186   1.272
  260TIP3    H2  745   2.484   2.282   1.190
  261TIP3   OH2  746   2.795   1.095   1.605
  261TIP3    H1  747   2.706   1.116   1.572
  261TIP3    H2  748   2.852   1.124   1.531
  262TIP3   OH2  749   2.188   2.241   0.903
  262TIP3    H1  750   2.236   2.156   0.886
  262TIP3    H2  751   2.254   2.303   0.864
  263TIP3   OH2  752   2.329   2.023   0.826
  263TIP3    H1  753   2.340   1.951   0.762
  263TIP3    H2  754   2.370   1.985   0.907
  264TIP3   OH2  755   2.721   2.103   1.580
  264TIP3    H1  756   2.710   2.026   1.520
  264TIP3    H2  757   2.705   2.178   1.519
  265TIP3   OH2  758   2.916   1.741   1.425
  265TIP3    H1  759   2.833   1.793   1.429
  265TIP3    H2  760   2.949   1.768   1.336
  266TIP3   OH2  761   2.375   1.588   0.802
  266TIP3    H1  762   2.330   1.612   0.886
  266TIP3    H2  763   2.459   1.552   0.837
  267TIP3   OH2  764   2.596   1.620   1.727
  267TIP3    H1  765   2.596   1.700   1.782
  267TIP3    H2  766   2.511   1.630   1.680
  268TIP3   OH2  767   1.729   1.983   1.372
  268TIP3    H1  768   1.712   1.939   1.288
  268TIP3    H2  769   1.819   1.951   1.393
  269TIP3   OH2  770   1.759   1.553   1.580
  269TIP3    H1  771   1.838   1.532   1.529
  269TIP3    H2  772   1.787   1.634   1.627
  270TIP3   OH2  773   2.249   2.187   1.356
  270TIP3    H1  774   2.244   2.266   1.414
  270TIP3    H2  775   2.237   2.114   1.420
  271TIP3   OH2  776   1.875   2.103   1.898
  271TIP3    H1  777   1.818   2.167   1.946
  271TIP3    H2  778   1.807   2.051   1.850
  272TIP3   OH2  779   1.620   1.690   1.989
  272TIP3    H1  780   1.623   1.759   2.058
  272TIP3    H2  781   1.536   1.646   2.011
  273TIP3   OH2  782   1.943   2.101   0.875
  273TIP3    H1  783   2.014   2.166   0.893
  273TIP3    H2  784   1.863   2.155   0.875
  274TIP3   OH2  785   1.668   2.270   1.980
  274TIP3    H1  786   1.644   2.286   1.886
  274TIP3    H2  787   1.602   2.205   2.006
  275TIP3   OH2  788   2.532   2.089   0.260
  275TIP3    H1  789   2.541   2.181   0.226
  275TIP3    H2  790   2.626   2.059   0.254
  276TIP3   OH2  791   1.257   1.823   1.960
  276TIP3    H1  792   1.206   1.820   1.876
  276TIP3    H2  793   1.279   1.729   1.977
  277TIP3   OH2  794   1.161   2.057   1.479
  277TIP3    H1  795   1.247   2.026   1.512
  277TIP3    H2  796   1.121   2.096   1.559
  278TIP3   OH2  797   2.961   2.452   1.630
  278TIP3    H1  798   2.959   2.356   1.647
  278TIP3    H2  799   2.878   2.480   1.675
  279TIP3   OH2  800   2.061   2.239   1.754
  279TIP3    H1  801   2.061   2.329   1.792
  279TIP3    H2  802   1.995   2.194   1.812
  280TIP3   OH2  803   1.855   2.405   0.682
  280TIP3    H1  804   1.768   2.391   0.641
  280TIP3    H2  805   1.834   2.483   0.738
  281TIP3   OH2  806   2.080   2.284   0.600
  281TIP3    H1  807   1.998   2.320   0.642
  281TIP3    H2  808   2.135   2.267   0.679
  282TIP3   OH2  809   2.849   1.576   1.904
  282TIP3    H1  810   2.762   1.587   1.863
  282TIP3    H2  811   2.863   1.480   1.895
  283TIP3   OH2  812   1.451   2.010   1.953
  283TIP3    H1  813   1.501   1.969   2.027
  283TIP3    H2  814   1.375   1.948   1.949
  284TIP3   OH2  815   2.426   0.944   1.947
  284TIP3    H1  816   2.502   0.904   1.994
  284TIP3    H2  817   2.366   0.963   2.019
  285TIP3   OH2  818   2.621   1.361   1.831
  285TIP3    H1  819   2.565   1.355   1.912
  285TIP3    H2  820   2.592   1.444   1.790
  286TIP3   OH2  821   1.802   1.324   1.739
  286TIP3    H1  822   1.753   1.341   1.823
  286TIP3    H2  823   1.759   1.390   1.681
  287TIP3   OH2  824   2.321   1.573   2.057
  287TIP3    H1  825   2.297   1.506   2.124
  287TIP3    H2  826   2.414   1.590   2.082
  288TIP3   OH2  827   2.320   1.362   1.258
  288TIP3    H1  828   2.266   1.412   1.193
  288TIP3    H2  829   2.335   1.280   1.209
  289TIP3   OH2  830   1.652   1.389   1.958
  289TIP3    H1  831   1.667   1.408   2.052
  289TIP3    H2  832   1.595   1.310   1.965
  290TIP3   OH2  833   2.303   1.582   1.635
  290TIP3    H1  834   2.354   1.514   1.587
  290TIP3    H2  835   2.277   1.530   1.713
  291TIP3   OH2  836   2.487   1.107   1.507
  291TIP3    H1  837   2.462   1.118   1.601
  291TIP3    H2  838   2.414   1.053   1.475
  292TIP3   OH2  839   2.657   2.799   1.730
  292TIP3    H1  840   2.657   2.830   1.638
  292TIP3    H2  841   2.735   2.846   1.765
  293TIP3   OH2  842   1.595   1.912   2.168
  293TIP3    H1  843   1.678   1.947   2.207
  293TIP3    H2  844   1.568   1.851   2.239
  294TIP3   OH2  845   2.080   1.409   1.432
  294TIP3    H1  846   2.173   1.385   1.424
  294TIP3    H2  847   2.060   1.378   1.523
  295TIP3   OH2  848   2.065   1.304   1.678
  295TIP3    H1  849   1.976   1.329   1.715
  295TIP3    H2  850   2.126   1.350   1.739
  296TIP3   OH2  851   2.684   1.888   1.411
  296TIP3    H1  852   2.709   1.940   1.332
  296TIP3    H2  853   2.599   1.847   1.383
  297TIP3   OH2  854   2.182   1.967   1.784
  297TIP3    H1  855   2.216   1.942   1.871
  297TIP3    H2  856   2.144   2.055   1.801
  298TIP3   OH2  857   1.363   1.587   2.086
  298TIP3    H1  858   1.412   1.598   2.170
  298TIP3    H2  859   1.329   1.497   2.099
  299TIP3   OH2  860   2.087   1.727   2.084
  299TIP3    H1  861   2.018   1.658   2.068
  299TIP3    H2  862   2.168   1.676   2.064
  300TIP3   OH2  863   2.338   2.235   1.675
  300TIP3    H1  864   2.243   2.232   1.693
  300TIP3    H2  865   2.370   2.282   1.755
  301TIP3   OH2  866   2.971   2.161   1.669
  301TIP3    H1  867   2.874   2.156   1.661
  301TIP3    H2  868   2.997   2.131   1.579
  302TIP3   OH2  869   2.434   2.123   0.516
  302TIP3    H1  870   2.414   2.041   0.565
  302TIP3    H2  871   2.465   2.089   0.430
  303TIP3   OH2  872   2.449   1.759   1.322
  303TIP3    H1  873   2.356   1.733   1.336
  303TIP3    H2  874   2.485   1.678   1.281
  304TIP3   OH2  875   1.847   2.305   1.568
  304TIP3    H1  876   1.880   2.394   1.551
  304TIP3    H2  877   1.923   2.265   1.614
  305TIP3   OH2  878   2.233   1.957   1.518
  305TIP3    H1  879   2.219   1.956   1.615
  305TIP3    H2  880   2.316   1.909   1.511
  306TIP3   OH2  881   2.484   2.483   1.563
  306TIP3    H1  882   2.405   2.425   1.566
  306TIP3    H2  883   2.461   2.547   1.493
  307TIP3   OH2  884   2.550   2.353   0.200
  307TIP3    H1  885   2.606   2.431   0.180
  307TIP3    H2  886   2.470   2.398   0.232
  308TIP3   OH2  887   1.593   1.139   2.101
  308TIP3    H1  888   1.498   1.131   2.118
  308TIP3    H2  889   1.622   1.047   2.104
  309TIP3   OH2  890   2.383   1.819   0.647
  309TIP3    H1  891   2.372   1.736   0.699
  309TIP3    H2  892   2.476   1.806   0.618
  310TIP3   OH2  893   1.277   2.196   1.731
  310TIP3    H1  894   1.303   2.109   1.767
  310TIP3    H2  895   1.349   2.253   1.760
  311TIP3   OH2  896   2.425   1.153   1.763
  311TIP3    H1  897   2.492   1.198   1.817
  311TIP3    H2  898   2.402   1.077   1.822
  312TIP3   OH2  899   2.254   1.414   1.843
  312TIP3    H1  900   2.269   1.471   1.922
  312TIP3    H2  901   2.304   1.335   1.868
  313TIP3   OH2  902   2.883   1.306   1.824
  313TIP3    H1  903   2.786   1.308   1.836
  313TIP3    H2  904   2.889   1.271   1.735
  314TIP3   OH2  905   2.546   1.517   1.216
  314TIP3    H1  906   2.471   1.463   1.248
  314TIP3    H2  907   2.621   1.470   1.258
  315TIP3   OH2  908   2.506   2.465   1.157
  315TIP3    H1  909   2.466   2.514   1.082
  315TIP3    H2  910   2.601   2.483   1.139
  316TIP3   OH2  911   1.287   2.510   2.136
  316TIP3    H1  912   1.373   2.522   2.182
  316TIP3    H2  913   1.253   2.434   2.183
  317TIP3   OH2  914   1.747   2.461   2.176
  317TIP3    H1  915   1.840   2.447   2.200
  317TIP3    H2  916   1.735   2.394   2.106
  318TIP3   OH2  917   2.400   2.358   1.910
  318TIP3    H1  918   2.390   2.293   1.983
  318TIP3    H2  919   2.474   2.413   1.944
  319TIP3   OH2  920   2.012   1.990   2.115
  319TIP3    H1  921   1.974   2.008   2.027
  319TIP3    H2  922   2.047   1.899   2.104
  320TIP3   OH2  923   2.503   1.997   1.717
  320TIP3    H1  924   2.581   2.039   1.676
  320TIP3    H2  925   2.436   2.066   1.702
  321TIP3   OH2  926   1.554   1.620   2.291
  321TIP3    H1  927   1.636   1.566   2.293
  321TIP3    H2  928   1.552   1.653   2.383
  322TIP3   OH2  929   1.900   1.546   1.990
  322TIP3    H1  930   1.805   1.566   1.980
  322TIP3    H2  931   1.935   1.563   1.900
  323TIP3   OH2  932   2.379   1.924   2.108
  323TIP3    H1  933   2.460   1.888   2.069
  323TIP3    H2  934   2.369   1.866   2.187
  324TIP3   OH2  935   1.992   1.324   2.118
  324TIP3    H1  936   1.981   1.248   2.058
  324TIP3    H2  937   1.955   1.398   2.064
  325TIP3   OH2  938   1.982   1.121   1.930
  325TIP3    H1  939   2.017   1.158   1.848
  325TIP3    H2  940   1.900   1.081   1.896
  326TIP3   OH2  941   2.016   1.613   1.750
  326TIP3    H1  942   2.106   1.645   1.733
  326TIP3    H2  943   1.962   1.692   1.730
  327TIP3   OH2  944   2.591   1.587   2.161
  327TIP3    H1  945   2.643   1.508   2.185
  327TIP3    H2  946   2.659   1.648   2.132
  328TIP3   OH2  947   2.636   1.846   1.899
  328TIP3    H1  948   2.577   1.902   1.844
  328TIP3    H2  949   2.723   1.871   1.861
  329TIP3   OH2  950   1.787   1.435   2.287
  329TIP3    H1  951   1.763   1.354   2.338
  329TIP3    H2  952   1.866   1.403   2.241
  330TIP3   OH2  953   2.055   0.836   1.990
  330TIP3    H1  954   1.993   0.898   2.029
  330TIP3    H2  955   2.016   0.748   2.011
  331TIP3   OH2  956   2.251   1.352   2.202
  331TIP3    H1  957   2.234   1.356   2.298
  331TIP3    H2  958   2.159   1.334   2.172
  332TIP3   OH2  959   2.476   1.298   2.049
  332TIP3    H1  960   2.403   1.310   2.114
  332TIP3    H2  961   2.551   1.276   2.108
  333TIP3   OH2  962   2.720   1.255   2.198
  333TIP3    H1  963   2.728   1.159   2.217
  333TIP3    H2  964   2.709   1.293   2.289
  334TIP3   OH2  965   1.716   1.199   2.399
  334TIP3    H1  966   1.732   1.114   2.354
  334TIP3    H2  967   1.729   1.165   2.488
  335TIP3   OH2  968   2.239   0.873   2.214
  335TIP3    H1  969   2.305   0.801   2.219
  335TIP3    H2  970   2.164   0.826   2.172
  336TIP3   OH2  971   2.282   1.082   2.399
  336TIP3    H1  972   2.260   1.018   2.329
  336TIP3    H2  973   2.203   1.140   2.400
  337TIP3   OH2  974   2.759   2.555   1.119
  337TIP3    H1  975   2.786   2.586   1.207
  337TIP3    H2  976   2.828   2.592   1.062
  338TIP3   OH2  977   2.785   2.571   1.401
  338TIP3    H1  978   2.743   2.482   1.398
  338TIP3    H2  979   2.861   2.552   1.457
  339TIP3   OH2  980   2.833   2.248   1.974
  339TIP3    H1  981   2.762   2.260   2.040
  339TIP3    H2  982   2.877   2.336   1.976
  340TIP3   OH2  983   2.644   1.774   0.595
  340TIP3    H1  984   2.715   1.827   0.552
  340TIP3    H2  985   2.697   1.718   0.655
  341TIP3   OH2  986   2.780   1.620   0.789
  341TIP3    H1  987   2.709   1.589   0.849
  341TIP3    H2  988   2.842   1.664   0.850
  342TIP3   OH2  989   2.835   2.025   1.225
  342TIP3    H1  990   2.887   1.956   1.179
  342TIP3    H2  991   2.835   2.098   1.160
  343TIP3   OH2  992   2.661   2.321   1.420
  343TIP3    H1  993   2.591   2.364   1.473
  343TIP3    H2  994   2.610   2.277   1.349
  344TIP3   OH2  995   2.590   1.485   0.946
  344TIP3    H1  996   2.624   1.395   0.954
  344TIP3    H2  997   2.572   1.507   1.040
  345TIP3   OH2  998   2.883   1.915   1.798
  345TIP3    H1  999   2.953   1.847   1.785
  345TIP3    H2 1000   2.910   1.985   1.736
  346TIP3   OH2 1001   3.061   1.711   1.801
  346TIP3    H1 1002   2.987   1.664   1.844
  346TIP3    H2 1003   3.135   1.649   1.820
  347TIP3   OH2 1004   2.749   1.372   1.330
  347TIP3    H1 1005   2.836   1.396   1.291
  347TIP3    H2 1006   2.762   1.410   1.420
  348TIP3   OH2 1007   2.820   1.519   1.559
  348TIP3    H1 1008   2.744   1.552   1.611
  348TIP3    H2 1009   2.852   1.602   1.516
  349TIP3   OH2 1010   1.454   1.271   2.362
  349TIP3    H1 1011   1.550   1.256   2.355
  349TIP3    H2 1012   1.430   1.188   2.409
  350TIP3   OH2 1013   3.284   1.126   2.108
  350TIP3    H1 1014   3.325   1.055   2.058
  350TIP3    H2 1015   3.236   1.177   2.038
  351TIP3   OH2 1016   3.135   1.249   1.924
  351TIP3    H1 1017   3.056   1.298   1.954
  351TIP3    H2 1018   3.092   1.185   1.864
  352TIP3   OH2 1019   2.339   2.424   0.771
  352TIP3    H1 1020   2.387   2.411   0.686
  352TIP3    H2 1021   2.402   2.481   0.819
  353TIP3   OH2 1022   1.358   2.204   2.221
  353TIP3    H1 1023   1.400   2.207   2.129
  353TIP3    H2 1024   1.441   2.210   2.275
  354TIP3   OH2 1025   1.614   2.262   1.708
  354TIP3    H1 1026   1.571   2.339   1.664
  354TIP3    H2 1027   1.701   2.268   1.663
  355TIP3   OH2 1028   2.060   2.503   1.838
  355TIP3    H1 1029   2.100   2.499   1.928
  355TIP3    H2 1030   2.129   2.555   1.791
  356TIP3   OH2 1031   2.246   2.656   1.706
  356TIP3    H1 1032   2.320   2.603   1.673
  356TIP3    H2 1033   2.294   2.716   1.767
  357TIP3   OH2 1034   3.038   1.016   1.800
  357TIP3    H1 1035   2.948   1.012   1.763
  357TIP3    H2 1036   3.067   0.922   1.789
  358TIP3   OH2 1037   1.307   2.525   1.744
  358TIP3    H1 1038   1.216   2.541   1.712
  358TIP3    H2 1039   1.312   2.591   1.815
  359TIP3   OH2 1040   1.531   2.490   1.588
  359TIP3    H1 1041   1.446   2.506   1.635
  359TIP3    H2 1042   1.509   2.522   1.498
  360TIP3   OH2 1043   1.983   2.614   1.310
  360TIP3    H1 1044   1.892   2.575   1.294
  360TIP3    H2 1045   1.972   2.649   1.402
  361TIP3   OH2 1046   2.227   2.461   1.435
  361TIP3    H1 1047   2.143   2.496   1.403
  361TIP3    H2 1048   2.290   2.527   1.403
  362TIP3   OH2 1049   2.415   2.644   1.343
  362TIP3    H1 1050   2.410   2.728   1.293
  362TIP3    H2 1051   2.455   2.584   1.276
  363TIP3   OH2 1052   1.227   2.349   1.500
  363TIP3    H1 1053   1.244   2.303   1.584
  363TIP3    H2 1054   1.279   2.292   1.439
  364TIP3   OH2 1055   1.397   2.198   1.344
  364TIP3    H1 1056   1.408   2.107   1.379
  364TIP3    H2 1057   1.488   2.223   1.321
  365TIP3   OH2 1058   1.675   2.265   1.337
  365TIP3    H1 1059   1.702   2.173   1.325
  365TIP3    H2 1060   1.718   2.284   1.423
  366TIP3   OH2 1061   2.765   0.842   1.358
  366TIP3    H1 1062   2.828   0.885   1.296
  366TIP3    H2 1063   2.700   0.811   1.291
  367TIP3   OH2 1064   2.913   0.919   1.140
  367TIP3    H1 1065   3.007   0.921   1.117
  367TIP3    H2 1066   2.890   1.011   1.117
  368TIP3   OH2 1067   2.483   2.389   0.541
  368TIP3    H1 1068   2.470   2.291   0.539
  368TIP3    H2 1069   2.440   2.415   0.457
  369TIP3   OH2 1070   2.785   0.985   2.241
  369TIP3    H1 1071   2.801   0.957   2.334
  369TIP3    H2 1072   2.875   0.978   2.202
  370TIP3   OH2 1073   2.713   2.530   1.725
  370TIP3    H1 1074   2.634   2.502   1.675
  370TIP3    H2 1075   2.695   2.626   1.735
  371TIP3   OH2 1076   3.984   1.908   0.486
  371TIP3    H1 1077   3.949   1.997   0.465
  371TIP3    H2 1078   3.908   1.853   0.461
  372TIP3   OH2 1079   3.979   1.904   0.880
  372TIP3    H1 1080   4.017   1.880   0.967
  372TIP3    H2 1081   3.942   1.818   0.851
  373TIP3   OH2 1082   3.274   1.796   1.242
  373TIP3    H1 1083   3.305   1.726   1.303
  373TIP3    H2 1084   3.356   1.846   1.228
  374TIP3   OH2 1085   4.226   2.212   0.555
  374TIP3    H1 1086   4.207   2.142   0.619
  374TIP3    H2 1087   4.256   2.284   0.613
  375TIP3   OH2 1088   3.251   2.207   0.959
  375TIP3    H1 1089   3.244   2.109   0.960
  375TIP3    H2 1090   3.348   2.218   0.954
  376TIP3   OH2 1091   2.957   1.398   0.748
  376TIP3    H1 1092   2.918   1.487   0.752
  376TIP3    H2 1093   2.879   1.347   0.722
  377TIP3   OH2 1094   3.012   1.697   0.925
  377TIP3    H1 1095   3.064   1.619   0.956
  377TIP3    H2 1096   3.075   1.740   0.865
  378TIP3   OH2 1097   3.877   2.668   0.574
  378TIP3    H1 1098   3.917   2.594   0.524
  378TIP3    H2 1099   3.865   2.628   0.661
  379TIP3   OH2 1100   3.777   2.129   0.923
  379TIP3    H1 1101   3.820   2.051   0.885
  379TIP3    H2 1102   3.858   2.178   0.948
  380TIP3   OH2 1103   4.794   1.450   0.923
  380TIP3    H1 1104   4.825   1.532   0.967
  380TIP3    H2 1105   4.813   1.470   0.830
  381TIP3   OH2 1106   4.193   1.628   0.951
  381TIP3    H1 1107   4.239   1.544   0.972
  381TIP3    H2 1108   4.155   1.607   0.864
  382TIP3   OH2 1109   3.520   1.283   0.925
  382TIP3    H1 1110   3.517   1.357   0.861
  382TIP3    H2 1111   3.478   1.213   0.871
  383TIP3   OH2 1112   4.219   1.387   0.536
  383TIP3    H1 1113   4.272   1.342   0.604
  383TIP3    H2 1114   4.287   1.410   0.470
  384TIP3   OH2 1115   3.163   1.491   1.026
  384TIP3    H1 1116   3.246   1.476   1.075
  384TIP3    H2 1117   3.181   1.437   0.946
  385TIP3   OH2 1118   3.604   1.691   0.828
  385TIP3    H1 1119   3.699   1.667   0.836
  385TIP3    H2 1120   3.566   1.606   0.796
  386TIP3   OH2 1121   4.868   1.660   1.091
  386TIP3    H1 1122   4.782   1.703   1.073
  386TIP3    H2 1123   4.888   1.695   1.179
  387TIP3   OH2 1124   3.523   1.277   1.357
  387TIP3    H1 1125   3.467   1.314   1.286
  387TIP3    H2 1126   3.467   1.298   1.435
  388TIP3   OH2 1127   3.875   2.131   0.354
  388TIP3    H1 1128   3.825   2.112   0.273
  388TIP3    H2 1129   3.825   2.209   0.388
  389TIP3   OH2 1130   3.632   2.049   1.143
  389TIP3    H1 1131   3.574   2.120   1.179
  389TIP3    H2 1132   3.676   2.095   1.068
  390TIP3   OH2 1133   4.439   1.378   0.726
  390TIP3    H1 1134   4.383   1.361   0.803
  390TIP3    H2 1135   4.480   1.464   0.750
  391TIP3   OH2 1136   3.395   1.389   1.140
  391TIP3    H1 1137   3.458   1.461   1.162
  391TIP3    H2 1138   3.441   1.348   1.064
  392TIP3   OH2 1139   3.463   2.247   1.245
  392TIP3    H1 1140   3.438   2.336   1.210
  392TIP3    H2 1141   3.383   2.229   1.299
  393TIP3   OH2 1142   2.854   1.934   0.492
  393TIP3    H1 1143   2.821   1.968   0.406
  393TIP3    H2 1144   2.889   2.016   0.531
  394TIP3   OH2 1145   4.291   2.452   0.718
  394TIP3    H1 1146   4.202   2.442   0.760
  394TIP3    H2 1147   4.282   2.540   0.676
  395TIP3   OH2 1148   4.583   1.345   1.087
  395TIP3    H1 1149   4.493   1.366   1.054
  395TIP3    H2 1150   4.640   1.381   1.016
  396TIP3   OH2 1151   3.865   0.970   1.091
  396TIP3    H1 1152   3.843   0.876   1.103
  396TIP3    H2 1153   3.788   1.014   1.133
  397TIP3   OH2 1154   3.990   2.489   0.391
  397TIP3    H1 1155   4.043   2.407   0.375
  397TIP3    H2 1156   4.053   2.556   0.357
  398TIP3   OH2 1157   4.143   2.275   0.301
  398TIP3    H1 1158   4.080   2.202   0.286
  398TIP3    H2 1159   4.182   2.248   0.387
  399TIP3   OH2 1160   4.516   2.359   1.066
  399TIP3    H1 1161   4.503   2.282   1.006
  399TIP3    H2 1162   4.499   2.434   1.006
  400TIP3   OH2 1163   3.810   1.757   0.329
  400TIP3    H1 1164   3.731   1.809   0.305
  400TIP3    H2 1165   3.854   1.747   0.243
  401TIP3   OH2 1166   3.764   1.527   0.048
  401TIP3    H1 1167   3.833   1.587   0.080
  401TIP3    H2 1168   3.813   1.446   0.032
  402TIP3   OH2 1169   4.712   2.001   0.913
  402TIP3    H1 1170   4.627   2.050   0.917
  402TIP3    H2 1171   4.742   2.026   0.823
  403TIP3   OH2 1172   4.161   1.837   0.292
  403TIP3    H1 1173   4.106   1.860   0.371
  403TIP3    H2 1174   4.244   1.810   0.337
  404TIP3   OH2 1175   4.391   1.874   1.212
  404TIP3    H1 1176   4.388   1.957   1.262
  404TIP3    H2 1177   4.305   1.877   1.166
  405TIP3   OH2 1178   3.392   1.833   0.713
  405TIP3    H1 1179   3.352   1.774   0.646
  405TIP3    H2 1180   3.468   1.779   0.745
  406TIP3   OH2 1181   3.520   2.246   0.860
  406TIP3    H1 1182   3.502   2.213   0.770
  406TIP3    H2 1183   3.609   2.208   0.877
  407TIP3   OH2 1184   3.520   1.808   1.066
  407TIP3    H1 1185   3.557   1.778   0.980
  407TIP3    H2 1186   3.568   1.892   1.082
  408TIP3   OH2 1187   4.053   2.444   0.843
  408TIP3    H1 1188   4.040   2.525   0.896
  408TIP3    H2 1189   4.035   2.372   0.908
  409TIP3   OH2 1190   3.667   2.361   1.392
  409TIP3    H1 1191   3.605   2.422   1.438
  409TIP3    H2 1192   3.604   2.308   1.340
  410TIP3   OH2 1193   3.987   1.702   0.123
  410TIP3    H1 1194   4.049   1.761   0.171
  410TIP3    H2 1195   4.016   1.717   0.029
  411TIP3   OH2 1196   3.423   1.913   1.502
  411TIP3    H1 1197   3.427   2.004   1.538
  411TIP3    H2 1198   3.327   1.895   1.512
  412TIP3   OH2 1199   3.743   2.370   0.398
  412TIP3    H1 1200   3.826   2.421   0.404
  412TIP3    H2 1201   3.683   2.432   0.354
  413TIP3   OH2 1202   3.459   2.524   1.479
  413TIP3    H1 1203   3.423   2.532   1.389
  413TIP3    H2 1204   3.379   2.504   1.532
  414TIP3   OH2 1205   3.259   1.680   0.514
  414TIP3    H1 1206   3.191   1.729   0.463
  414TIP3    H2 1207   3.218   1.593   0.520
  415TIP3   OH2 1208   3.036   2.062   1.426
  415TIP3    H1 1209   2.970   2.041   1.357
  415TIP3    H2 1210   3.076   1.975   1.445
  416TIP3   OH2 1211   2.894   2.254   1.057
  416TIP3    H1 1212   2.990   2.246   1.046
  416TIP3    H2 1213   2.889   2.331   1.115
  417TIP3   OH2 1214   4.756   2.708   1.117
  417TIP3    H1 1215   4.754   2.612   1.135
  417TIP3    H2 1216   4.673   2.736   1.162
  418TIP3   OH2 1217   3.861   2.490   1.248
  418TIP3    H1 1218   3.857   2.583   1.281
  418TIP3    H2 1219   3.790   2.449   1.303
  419TIP3   OH2 1220   3.627   2.619   0.197
  419TIP3    H1 1221   3.576   2.606   0.115
  419TIP3    H2 1222   3.592   2.703   0.231
  420TIP3   OH2 1223   3.062   2.466   0.587
  420TIP3    H1 1224   3.108   2.459   0.673
  420TIP3    H2 1225   3.017   2.380   0.582
  421TIP3   OH2 1226   3.808   2.540  -0.154
  421TIP3    H1 1227   3.867   2.474  -0.197
  421TIP3    H2 1228   3.848   2.545  -0.065
  422TIP3   OH2 1229   3.879   2.570   0.115
  422TIP3    H1 1230   3.788   2.580   0.152
  422TIP3    H2 1231   3.927   2.537   0.193
  423TIP3   OH2 1232   4.643   1.833   1.390
  423TIP3    H1 1233   4.560   1.843   1.342
  423TIP3    H2 1234   4.660   1.737   1.380
  424TIP3   OH2 1235   3.241   2.244   1.406
  424TIP3    H1 1236   3.289   2.231   1.490
  424TIP3    H2 1237   3.166   2.182   1.416
  425TIP3   OH2 1238   3.632   1.060   1.211
  425TIP3    H1 1239   3.543   1.038   1.178
  425TIP3    H2 1240   3.615   1.149   1.247
  426TIP3   OH2 1241   4.179   1.186   1.393
  426TIP3    H1 1242   4.248   1.153   1.454
  426TIP3    H2 1243   4.096   1.162   1.438
  427TIP3   OH2 1244   4.413   1.612   1.312
  427TIP3    H1 1245   4.359   1.609   1.394
  427TIP3    H2 1246   4.389   1.698   1.273
  428TIP3   OH2 1247   4.070   1.747  -0.131
  428TIP3    H1 1248   4.028   1.755  -0.217
  428TIP3    H2 1249   4.154   1.794  -0.143
  429TIP3   OH2 1250   3.774   1.145   0.165
  429TIP3    H1 1251   3.742   1.127   0.256
  429TIP3    H2 1252   3.766   1.059   0.122
  430TIP3   OH2 1253   3.570   1.587   1.216
  430TIP3    H1 1254   3.521   1.609   1.298
  430TIP3    H2 1255   3.555   1.668   1.163
  431TIP3   OH2 1256   3.457   1.476   0.742
  431TIP3    H1 1257   3.365   1.448   0.758
  431TIP3    H2 1258   3.476   1.431   0.657
  432TIP3   OH2 1259   3.948   1.557   0.465
  432TIP3    H1 1260   3.898   1.625   0.415
  432TIP3    H2 1261   4.005   1.518   0.395
  433TIP3   OH2 1262   4.123   1.828   1.542
  433TIP3    H1 1263   4.103   1.755   1.603
  433TIP3    H2 1264   4.217   1.844   1.563
  434TIP3   OH2 1265   4.103   1.584   0.694
  434TIP3    H1 1266   4.038   1.602   0.623
  434TIP3    H2 1267   4.139   1.500   0.658
  435TIP3   OH2 1268   3.391   1.614   1.425
  435TIP3    H1 1269   3.422   1.680   1.489
  435TIP3    H2 1270   3.383   1.534   1.480
  436TIP3   OH2 1271   3.001   1.133   1.000
  436TIP3    H1 1272   3.058   1.170   1.070
  436TIP3    H2 1273   3.044   1.166   0.920
  437TIP3   OH2 1274   4.116   1.825   1.116
  437TIP3    H1 1275   4.149   1.754   1.056
  437TIP3    H2 1276   4.083   1.770   1.190
  438TIP3   OH2 1277   3.787   1.304   0.790
  438TIP3    H1 1278   3.728   1.287   0.865
  438TIP3    H2 1279   3.873   1.267   0.819
  439TIP3   OH2 1280   3.220   1.347   0.801
  439TIP3    H1 1281   3.129   1.354   0.763
  439TIP3    H2 1282   3.252   1.260   0.769
  440TIP3   OH2 1283   3.497   1.341   0.512
  440TIP3    H1 1284   3.594   1.348   0.496
  440TIP3    H2 1285   3.458   1.369   0.426
  441TIP3   OH2 1286   4.308   1.378   1.006
  441TIP3    H1 1287   4.254   1.384   1.087
  441TIP3    H2 1288   4.250   1.318   0.953
  442TIP3   OH2 1289   3.358   1.394   0.285
  442TIP3    H1 1290   3.271   1.372   0.248
  442TIP3    H2 1291   3.406   1.429   0.208
  443TIP3   OH2 1292   4.449   3.055   1.215
  443TIP3    H1 1293   4.448   3.082   1.122
  443TIP3    H2 1294   4.531   3.099   1.246
  444TIP3   OH2 1295   3.405   2.165   1.632
  444TIP3    H1 1296   3.485   2.196   1.680
  444TIP3    H2 1297   3.340   2.166   1.705
  445TIP3   OH2 1298   3.868   1.623   0.889
  445TIP3    H1 1299   3.930   1.576   0.831
  445TIP3    H2 1300   3.873   1.569   0.970
  446TIP3   OH2 1301   3.378   1.114   0.754
  446TIP3    H1 1302   3.366   1.029   0.800
  446TIP3    H2 1303   3.417   1.087   0.669
  447TIP3   OH2 1304   3.839   1.516   1.190
  447TIP3    H1 1305   3.751   1.558   1.195
  447TIP3    H2 1306   3.899   1.583   1.229
  448TIP3   OH2 1307   3.580   1.910   0.270
  448TIP3    H1 1308   3.508   1.844   0.259
  448TIP3    H2 1309   3.560   1.943   0.361
  449TIP3   OH2 1310   4.477   2.143   0.898
  449TIP3    H1 1311   4.500   2.195   0.819
  449TIP3    H2 1312   4.393   2.099   0.871
  450TIP3   OH2 1313   4.035   1.220   0.142
  450TIP3    H1 1314   3.939   1.203   0.152
  450TIP3    H2 1315   4.045   1.312   0.174
  451TIP3   OH2 1316   3.974   2.225   1.272
  451TIP3    H1 1317   4.015   2.213   1.358
  451TIP3    H2 1318   3.940   2.316   1.276
  452TIP3   OH2 1319   4.103   1.471   0.244
  452TIP3    H1 1320   4.197   1.473   0.271
  452TIP3    H2 1321   4.092   1.556   0.198
  453TIP3   OH2 1322   3.273   1.928   0.945
  453TIP3    H1 1323   3.311   1.901   0.859
  453TIP3    H2 1324   3.326   1.875   1.006
  454TIP3   OH2 1325   3.729   2.058   0.095
  454TIP3    H1 1326   3.681   2.144   0.102
  454TIP3    H2 1327   3.676   2.003   0.157
  455TIP3   OH2 1328   3.157   1.848   1.562
  455TIP3    H1 1329   3.172   1.836   1.658
  455TIP3    H2 1330   3.086   1.784   1.546
  456TIP3   OH2 1331   3.885   1.966   1.582
  456TIP3    H1 1332   3.823   1.910   1.532
  456TIP3    H2 1333   3.971   1.930   1.553
  457TIP3   OH2 1334   4.137   2.484   1.169
  457TIP3    H1 1335   4.040   2.486   1.183
  457TIP3    H2 1336   4.167   2.537   1.246
  458TIP3   OH2 1337   4.506   1.554   0.098
  458TIP3    H1 1338   4.471   1.505   0.023
  458TIP3    H2 1339   4.520   1.642   0.057
  459TIP3   OH2 1340   4.767   2.417   1.156
  459TIP3    H1 1341   4.669   2.411   1.147
  459TIP3    H2 1342   4.794   2.387   1.066
  460TIP3   OH2 1343   4.262   2.357  -0.019
  460TIP3    H1 1344   4.233   2.333   0.071
  460TIP3    H2 1345   4.220   2.288  -0.071
  461TIP3   OH2 1346   4.245   2.006   0.813
  461TIP3    H1 1347   4.151   1.983   0.828
  461TIP3    H2 1348   4.277   1.924   0.771
  462TIP3   OH2 1349   3.376   2.236   0.573
  462TIP3    H1 1350   3.370   2.317   0.519
  462TIP3    H2 1351   3.283   2.217   0.589
  463TIP3   OH2 1352   2.991   1.531   0.288
  463TIP3    H1 1353   3.011   1.624   0.307
  463TIP3    H2 1354   2.896   1.527   0.308
  464TIP3   OH2 1355   3.504   1.997   0.512
  464TIP3    H1 1356   3.471   2.087   0.534
  464TIP3    H2 1357   3.472   1.946   0.589
  465TIP3   OH2 1358   3.645   2.577   1.041
  465TIP3    H1 1359   3.688   2.650   0.992
  465TIP3    H2 1360   3.722   2.539   1.088
  466TIP3   OH2 1361   3.291   2.474   0.425
  466TIP3    H1 1362   3.206   2.485   0.473
  466TIP3    H2 1363   3.325   2.567   0.428
  467TIP3   OH2 1364   4.026   2.211   1.004
  467TIP3    H1 1365   4.015   2.209   1.101
  467TIP3    H2 1366   4.106   2.158   0.993
  468TIP3   OH2 1367   4.013   2.132  -0.101
  468TIP3    H1 1368   4.069   2.089  -0.032
  468TIP3    H2 1369   3.925   2.106  -0.070
  469TIP3   OH2 1370   4.278   2.740   1.049
  469TIP3    H1 1371   4.196   2.687   1.044
  469TIP3    H2 1372   4.262   2.806   0.978
  470TIP3   OH2 1373   3.357   1.357   1.568
  470TIP3    H1 1374   3.260   1.363   1.578
  470TIP3    H2 1375   3.382   1.302   1.643
  471TIP3   OH2 1376   4.174   2.026   0.091
  471TIP3    H1 1377   4.159   1.969   0.169
  471TIP3    H2 1378   4.272   2.029   0.091
  472TIP3   OH2 1379   3.080   2.437   1.200
  472TIP3    H1 1380   3.138   2.370   1.240
  472TIP3    H2 1381   3.105   2.516   1.251
  473TIP3   OH2 1382   3.373   2.078  -0.125
  473TIP3    H1 1383   3.461   2.035  -0.129
  473TIP3    H2 1384   3.353   2.079  -0.030
  474TIP3   OH2 1385   3.329   2.090   0.151
  474TIP3    H1 1386   3.399   2.065   0.214
  474TIP3    H2 1387   3.329   2.188   0.161
  475TIP3   OH2 1388   3.057   1.795   0.364
  475TIP3    H1 1389   2.984   1.831   0.418
  475TIP3    H2 1390   3.062   1.864   0.294
  476TIP3   OH2 1391   4.194   1.432   1.265
  476TIP3    H1 1392   4.285   1.460   1.287
  476TIP3    H2 1393   4.186   1.347   1.312
  477TIP3   OH2 1394   4.093   1.141   0.417
  477TIP3    H1 1395   4.078   1.177   0.328
  477TIP3    H2 1396   4.106   1.221   0.471
  478TIP3   OH2 1397   3.586   2.283   0.108
  478TIP3    H1 1398   3.501   2.314   0.147
  478TIP3    H2 1399   3.593   2.343   0.033
  479TIP3   OH2 1400   3.774   1.347   0.522
  479TIP3    H1 1401   3.839   1.419   0.508
  479TIP3    H2 1402   3.782   1.335   0.620
  480TIP3   OH2 1403   4.039   1.665   1.322
  480TIP3    H1 1404   4.073   1.711   1.402
  480TIP3    H2 1405   4.092   1.582   1.320
  481TIP3   OH2 1406   3.332   2.361   0.179
  481TIP3    H1 1407   3.300   2.430   0.117
  481TIP3    H2 1408   3.314   2.403   0.266
  482TIP3   OH2 1409   3.429   1.078   0.462
  482TIP3    H1 1410   3.436   1.175   0.468
  482TIP3    H2 1411   3.518   1.057   0.429
  483TIP3   OH2 1412   4.678   1.566   1.310
  483TIP3    H1 1413   4.580   1.567   1.318
  483TIP3    H2 1414   4.688   1.522   1.225
  484TIP3   OH2 1415   4.329   1.761   0.694
  484TIP3    H1 1416   4.251   1.703   0.705
  484TIP3    H2 1417   4.398   1.713   0.744
  485TIP3   OH2 1418   3.069   1.995   0.162
  485TIP3    H1 1419   3.155   2.042   0.170
  485TIP3    H2 1420   3.092   1.934   0.089
  486TIP3   OH2 1421   4.300   2.722   0.641
  486TIP3    H1 1422   4.258   2.769   0.566
  486TIP3    H2 1423   4.395   2.740   0.622
  487TIP3   OH2 1424   3.365   0.990   1.174
  487TIP3    H1 1425   3.342   0.958   1.084
  487TIP3    H2 1426   3.362   0.908   1.227
  488TIP3   OH2 1427   2.915   2.209   0.550
  488TIP3    H1 1428   2.850   2.237   0.616
  488TIP3    H2 1429   2.878   2.251   0.468
  489TIP3   OH2 1430   3.076   2.756   1.623
  489TIP3    H1 1431   3.162   2.760   1.672
  489TIP3    H2 1432   3.059   2.661   1.624
  490TIP3   OH2 1433   3.548   2.706   1.671
  490TIP3    H1 1434   3.644   2.694   1.675
  490TIP3    H2 1435   3.524   2.644   1.599
  491TIP3   OH2 1436   3.532   2.293  -0.197
  491TIP3    H1 1437   3.458   2.231  -0.176
  491TIP3    H2 1438   3.585   2.236  -0.254
  492TIP3   OH2 1439   4.192   2.619   1.403
  492TIP3    H1 1440   4.185   2.550   1.473
  492TIP3    H2 1441   4.269   2.671   1.432
  493TIP3   OH2 1442   3.986   2.353  -0.260
  493TIP3    H1 1443   3.998   2.274  -0.201
  493TIP3    H2 1444   4.076   2.387  -0.268
  494TIP3   OH2 1445   3.203   2.155   1.824
  494TIP3    H1 1446   3.216   2.059   1.832
  494TIP3    H2 1447   3.115   2.160   1.779
  495TIP3   OH2 1448   3.208   1.805   0.012
  495TIP3    H1 1449   3.231   1.767   0.098
  495TIP3    H2 1450   3.292   1.844  -0.015
  496TIP3   OH2 1451   3.808   2.243   1.599
  496TIP3    H1 1452   3.769   2.266   1.512
  496TIP3    H2 1453   3.840   2.152   1.585
  497TIP3   OH2 1454   3.623   1.974  -0.142
  497TIP3    H1 1455   3.666   2.006  -0.060
  497TIP3    H2 1456   3.689   1.913  -0.177
  498TIP3   OH2 1457   4.300   2.256   1.207
  498TIP3    H1 1458   4.379   2.296   1.164
  498TIP3    H2 1459   4.233   2.325   1.189
  499TIP3   OH2 1460   3.322   1.891   1.812
  499TIP3    H1 1461   3.403   1.851   1.778
  499TIP3    H2 1462   3.352   1.926   1.899
  500TIP3   OH2 1463   3.384   1.716   0.235
  500TIP3    H1 1464   3.357   1.677   0.320
  500TIP3    H2 1465   3.424   1.640   0.189
  501TIP3   OH2 1466   3.656   1.770   1.470
  501TIP3    H1 1467   3.579   1.831   1.470
  501TIP3    H2 1468   3.709   1.806   1.395
  502TIP3   OH2 1469   3.492   1.507   0.078
  502TIP3    H1 1470   3.475   1.459  -0.004
  502TIP3    H2 1471   3.590   1.516   0.074
  503TIP3   OH2 1472   4.174   2.176   1.601
  503TIP3    H1 1473   4.252   2.145   1.553
  503TIP3    H2 1474   4.169   2.111   1.674
  504TIP3   OH2 1475   4.313   1.868  -0.203
  504TIP3    H1 1476   4.300   1.851  -0.299
  504TIP3    H2 1477   4.310   1.964  -0.198
  505TIP3   OH2 1478   3.782   1.562   1.590
  505TIP3    H1 1479   3.784   1.486   1.528
  505TIP3    H2 1480   3.739   1.631   1.535
  506TIP3   OH2 1481   3.784   1.348   1.406
  506TIP3    H1 1482   3.814   1.392   1.324
  506TIP3    H2 1483   3.690   1.328   1.383
  507TIP3   OH2 1484   3.803   1.884   1.280
  507TIP3    H1 1485   3.891   1.896   1.241
  507TIP3    H2 1486   3.749   1.949   1.230
  508TIP3   OH2 1487   4.389   1.851   1.652
  508TIP3    H1 1488   4.439   1.768   1.656
  508TIP3    H2 1489   4.455   1.912   1.617
  509TIP3   OH2 1490   4.430   2.105   1.390
  509TIP3    H1 1491   4.372   2.160   1.332
  509TIP3    H2 1492   4.518   2.127   1.352
  510TIP3   OH2 1493   3.660   1.669   1.826
  510TIP3    H1 1494   3.590   1.602   1.839
  510TIP3    H2 1495   3.690   1.647   1.735
  511TIP3   OH2 1496   3.917   1.115   1.481
  511TIP3    H1 1497   3.869   1.195   1.450
  511TIP3    H2 1498   3.854   1.044   1.455
  512TIP3   OH2 1499   4.042   1.609   1.686
  512TIP3    H1 1500   4.028   1.602   1.782
  512TIP3    H2 1501   3.952   1.588   1.652
  513TIP3   OH2 1502   4.282   1.571   1.544
  513TIP3    H1 1503   4.207   1.568   1.606
  513TIP3    H2 1504   4.357   1.540   1.599
  514TIP3   OH2 1505   4.507   1.507   1.692
  514TIP3    H1 1506   4.522   1.411   1.706
  514TIP3    H2 1507   4.505   1.543   1.783
  515TIP3   OH2 1508   3.493   1.449   1.880
  515TIP3    H1 1509   3.496   1.356   1.852
  515TIP3    H2 1510   3.520   1.443   1.973
  516TIP3   OH2 1511   3.986   1.104   1.743
  516TIP3    H1 1512   4.064   1.045   1.733
  516TIP3    H2 1513   3.961   1.112   1.649
  517TIP3   OH2 1514   4.069   1.334   1.887
  517TIP3    H1 1515   4.048   1.265   1.821
  517TIP3    H2 1516   3.993   1.396   1.878
  518TIP3   OH2 1517   3.283   2.556  -0.009
  518TIP3    H1 1518   3.376   2.557  -0.040
  518TIP3    H2 1519   3.240   2.619  -0.067
  519TIP3   OH2 1520   2.797   2.011   0.239
  519TIP3    H1 1521   2.885   2.028   0.199
  519TIP3    H2 1522   2.787   1.915   0.221
  520TIP3   OH2 1523   2.689   2.559   0.623
  520TIP3    H1 1524   2.627   2.497   0.580
  520TIP3    H2 1525   2.736   2.499   0.685
  521TIP3   OH2 1526   2.825   2.404   0.807
  521TIP3    H1 1527   2.817   2.334   0.874
  521TIP3    H2 1528   2.880   2.468   0.855
  522TIP3   OH2 1529   4.558   2.805   0.606
  522TIP3    H1 1530   4.578   2.835   0.697
  522TIP3    H2 1531   4.622   2.855   0.554
  523TIP3   OH2 1532   4.581   2.828   0.886
  523TIP3    H1 1533   4.539   2.739   0.886
  523TIP3    H2 1534   4.657   2.809   0.944
  524TIP3   OH2 1535   4.631   2.507   1.461
  524TIP3    H1 1536   4.559   2.519   1.526
  524TIP3    H2 1537   4.675   2.594   1.464
  525TIP3   OH2 1538   4.454   2.026   0.083
  525TIP3    H1 1539   4.526   2.088   0.062
  525TIP3    H2 1540   4.488   1.986   0.166
  526TIP3   OH2 1541   4.571   1.887   0.284
  526TIP3    H1 1542   4.505   1.841   0.341
  526TIP3    H2 1543   4.637   1.918   0.350
  527TIP3   OH2 1544   4.631   2.282   0.714
  527TIP3    H1 1545   4.684   2.213   0.669
  527TIP3    H2 1546   4.628   2.354   0.647
  528TIP3   OH2 1547   4.456   2.579   0.907
  528TIP3    H1 1548   4.385   2.622   0.959
  528TIP3    H2 1549   4.406   2.535   0.836
  529TIP3   OH2 1550   4.526   1.788  -0.047
  529TIP3    H1 1551   4.448   1.800  -0.105
  529TIP3    H2 1552   4.513   1.864   0.013
  530TIP3   OH2 1553   4.387   1.742   0.425
  530TIP3    H1 1554   4.386   1.645   0.415
  530TIP3    H2 1555   4.371   1.752   0.522
  531TIP3   OH2 1556   3.011   1.816   1.177
  531TIP3    H1 1557   3.008   1.782   1.085
  531TIP3    H2 1558   3.108   1.818   1.193
  532TIP3   OH2 1559   4.677   2.170   1.287
  532TIP3    H1 1560   4.748   2.103   1.274
  532TIP3    H2 1561   4.703   2.239   1.223
  533TIP3   OH2 1562   4.857   1.967   1.289
  533TIP3    H1 1563   4.784   1.919   1.333
  533TIP3    H2 1564   4.932   1.906   1.308
  534TIP3   OH2 1565   4.381   1.468   0.325
  534TIP3    H1 1566   4.419   1.377   0.338
  534TIP3    H2 1567   4.432   1.496   0.246
  535TIP3   OH2 1568   4.541   1.629   0.818
  535TIP3    H1 1569   4.626   1.654   0.777
  535TIP3    H2 1570   4.556   1.666   0.908
  536TIP3   OH2 1571   4.617   1.778   1.047
  536TIP3    H1 1572   4.539   1.811   1.096
  536TIP3    H2 1573   4.649   1.860   1.003
  537TIP3   OH2 1574   3.226   1.498   1.842
  537TIP3    H1 1575   3.324   1.497   1.849
  537TIP3    H2 1576   3.204   1.413   1.885
  538TIP3   OH2 1577   5.064   1.370   1.603
  538TIP3    H1 1578   5.127   1.308   1.560
  538TIP3    H2 1579   5.033   1.422   1.525
  539TIP3   OH2 1580   4.471   1.217   0.367
  539TIP3    H1 1581   4.524   1.189   0.444
  539TIP3    H2 1582   4.420   1.135   0.350
  540TIP3   OH2 1583   3.187   1.202   1.188
  540TIP3    H1 1584   3.250   1.126   1.190
  540TIP3    H2 1585   3.250   1.275   1.174
  541TIP3   OH2 1586   2.993   1.467   1.250
  541TIP3    H1 1587   3.045   1.471   1.168
  541TIP3    H2 1588   3.016   1.551   1.292
  542TIP3   OH2 1589   4.933   1.505   1.407
  542TIP3    H1 1590   4.849   1.552   1.425
  542TIP3    H2 1591   4.899   1.433   1.350
  543TIP3   OH2 1592   4.135   2.677   0.267
  543TIP3    H1 1593   4.185   2.672   0.183
  543TIP3    H2 1594   4.183   2.745   0.316
  544TIP3   OH2 1595   3.198   1.049   1.564
  544TIP3    H1 1596   3.146   1.048   1.646
  544TIP3    H2 1597   3.135   1.091   1.503
  545TIP3   OH2 1598   3.239   2.480   1.641
  545TIP3    H1 1599   3.144   2.459   1.628
  545TIP3    H2 1600   3.249   2.467   1.737
  546TIP3   OH2 1601   3.419   2.517   1.190
  546TIP3    H1 1602   3.372   2.594   1.152
  546TIP3    H2 1603   3.506   2.531   1.146
  547TIP3   OH2 1604   3.857   2.757   1.327
  547TIP3    H1 1605   3.899   2.756   1.416
  547TIP3    H2 1606   3.923   2.810   1.277
  548TIP3   OH2 1607   4.038   2.913   1.193
  548TIP3    H1 1608   4.110   2.863   1.151
  548TIP3    H2 1609   4.090   2.970   1.253
  549TIP3   OH2 1610   4.834   1.271   1.289
  549TIP3    H1 1611   4.746   1.262   1.248
  549TIP3    H2 1612   4.868   1.179   1.279
  550TIP3   OH2 1613   3.092   2.768   1.221
  550TIP3    H1 1614   3.001   2.799   1.199
  550TIP3    H2 1615   3.111   2.825   1.297
  551TIP3   OH2 1616   3.328   2.749   1.076
  551TIP3    H1 1617   3.240   2.761   1.119
  551TIP3    H2 1618   3.310   2.782   0.986
  552TIP3   OH2 1619   3.754   2.775   0.873
  552TIP3    H1 1620   3.683   2.794   0.809
  552TIP3    H2 1621   3.766   2.863   0.915
  553TIP3   OH2 1622   4.024   2.712   0.925
  553TIP3    H1 1623   3.930   2.733   0.906
  553TIP3    H2 1624   4.069   2.787   0.883
  554TIP3   OH2 1625   4.226   2.904   0.837
  554TIP3    H1 1626   4.214   2.989   0.790
  554TIP3    H2 1627   4.255   2.845   0.764
  555TIP3   OH2 1628   3.002   2.561   0.960
  555TIP3    H1 1629   3.030   2.534   1.050
  555TIP3    H2 1630   3.075   2.520   0.909
  556TIP3   OH2 1631   3.200   2.437   0.821
  556TIP3    H1 1632   3.215   2.353   0.871
  556TIP3    H2 1633   3.291   2.472   0.817
  557TIP3   OH2 1634   3.467   2.526   0.827
  557TIP3    H1 1635   3.497   2.434   0.818
  557TIP3    H2 1636   3.516   2.551   0.907
  558TIP3   OH2 1637   4.532   1.055   0.797
  558TIP3    H1 1638   4.589   1.103   0.732
  558TIP3    H2 1639   4.456   1.115   0.803
  559TIP3   OH2 1640   4.663   1.173   0.578
  559TIP3    H1 1641   4.744   1.140   0.537
  559TIP3    H2 1642   4.673   1.269   0.565
  560TIP3   OH2 1643   3.286   0.897   0.922
  560TIP3    H1 1644   3.197   0.858   0.917
  560TIP3    H2 1645   3.341   0.816   0.921
  561TIP3   OH2 1646   3.741   0.935   0.828
  561TIP3    H1 1647   3.802   0.961   0.758
  561TIP3    H2 1648   3.781   0.977   0.906
  562TIP3   OH2 1649   4.313   0.996   0.354
  562TIP3    H1 1650   4.228   1.040   0.374
  562TIP3    H2 1651   4.329   0.947   0.436
  563TIP3   OH2 1652   2.792   2.344   0.350
  563TIP3    H1 1653   2.718   2.296   0.310
  563TIP3    H2 1654   2.771   2.435   0.322
  564TIP3   OH2 1655   3.712   1.095   0.427
  564TIP3    H1 1656   3.761   1.035   0.484
  564TIP3    H2 1657   3.743   1.183   0.461
  565TIP3   OH2 1658   3.549   2.534  -0.074
  565TIP3    H1 1659   3.639   2.558  -0.104
  565TIP3    H2 1660   3.537   2.451  -0.126
  566TIP3   OH2 1661   4.272   2.632   0.031
  566TIP3    H1 1662   4.284   2.536   0.017
  566TIP3    H2 1663   4.220   2.655  -0.050
  567TIP3   OH2 1664   3.500   1.173   1.817
  567TIP3    H1 1665   3.452   1.113   1.877
  567TIP3    H2 1666   3.592   1.147   1.830
  568TIP3   OH2 1667   3.771   1.055   1.945
  568TIP3    H1 1668   3.835   1.087   1.877
  568TIP3    H2 1669   3.787   1.122   2.015
  569TIP3   OH2 1670   2.884   2.363  -0.001
  569TIP3    H1 1671   2.847   2.410   0.074
  569TIP3    H2 1672   2.965   2.326   0.033
  570TIP3   OH2 1673   4.574   1.236   1.720
  570TIP3    H1 1674   4.592   1.205   1.812
  570TIP3    H2 1675   4.664   1.232   1.680
  571TIP3   OH2 1676   4.507   2.786   1.211
  571TIP3    H1 1677   4.428   2.758   1.161
  571TIP3    H2 1678   4.489   2.882   1.220
  572TIP3   OH2 1679   5.700   2.145   0.023
  572TIP3    H1 1680   5.767   2.198  -0.023
  572TIP3    H2 1681   5.683   2.072  -0.037
  573TIP3   OH2 1682   5.769   2.173   0.370
  573TIP3    H1 1683   5.802   2.134   0.452
  573TIP3    H2 1684   5.742   2.095   0.318
  574TIP3   OH2 1685   5.075   2.057   0.722
  574TIP3    H1 1686   5.097   1.981   0.780
  574TIP3    H2 1687   5.148   2.116   0.745
  575TIP3   OH2 1688   6.018   2.420   0.103
  575TIP3    H1 1689   6.016   2.389   0.196
  575TIP3    H2 1690   6.027   2.515   0.115
  576TIP3   OH2 1691   5.044   2.462   0.441
  576TIP3    H1 1692   5.037   2.364   0.446
  576TIP3    H2 1693   5.140   2.474   0.447
  577TIP3   OH2 1694   4.747   1.662   0.224
  577TIP3    H1 1695   4.706   1.749   0.236
  577TIP3    H2 1696   4.671   1.605   0.244
  578TIP3   OH2 1697   4.806   1.950   0.414
  578TIP3    H1 1698   4.855   1.872   0.448
  578TIP3    H2 1699   4.873   1.992   0.358
  579TIP3   OH2 1700   5.575   2.385   0.405
  579TIP3    H1 1701   5.621   2.305   0.373
  579TIP3    H2 1702   5.654   2.436   0.432
  580TIP3   OH2 1703   5.948   1.869   0.439
  580TIP3    H1 1704   6.004   1.817   0.499
  580TIP3    H2 1705   6.011   1.902   0.371
  581TIP3   OH2 1706   5.293   1.535   0.414
  581TIP3    H1 1707   5.301   1.600   0.341
  581TIP3    H2 1708   5.281   1.451   0.367
  582TIP3   OH2 1709   4.957   1.746   0.509
  582TIP3    H1 1710   5.041   1.735   0.559
  582TIP3    H2 1711   4.974   1.685   0.435
  583TIP3   OH2 1712   5.400   1.956   0.307
  583TIP3    H1 1713   5.492   1.925   0.318
  583TIP3    H2 1714   5.356   1.877   0.273
  584TIP3   OH2 1715   5.319   1.535   0.843
  584TIP3    H1 1716   5.260   1.576   0.777
  584TIP3    H2 1717   5.267   1.551   0.925
  585TIP3   OH2 1718   5.428   2.308   0.630
  585TIP3    H1 1719   5.369   2.376   0.667
  585TIP3    H2 1720   5.473   2.357   0.557
  586TIP3   OH2 1721   5.186   1.653   0.632
  586TIP3    H1 1722   5.253   1.723   0.653
  586TIP3    H2 1723   5.230   1.610   0.554
  587TIP3   OH2 1724   5.255   2.503   0.728
  587TIP3    H1 1725   5.234   2.594   0.698
  587TIP3    H2 1726   5.177   2.486   0.784
  588TIP3   OH2 1727   4.675   2.188  -0.042
  588TIP3    H1 1728   4.602   2.225  -0.094
  588TIP3    H2 1729   4.699   2.268   0.010
  589TIP3   OH2 1730   6.107   2.675   0.247
  589TIP3    H1 1731   6.016   2.686   0.284
  589TIP3    H2 1732   6.090   2.693   0.152
  590TIP3   OH2 1733   6.305   2.612   0.553
  590TIP3    H1 1734   6.306   2.541   0.486
  590TIP3    H2 1735   6.292   2.692   0.498
  591TIP3   OH2 1736   6.503   2.221   0.401
  591TIP3    H1 1737   6.437   2.294   0.404
  591TIP3    H2 1738   6.558   2.250   0.327
  592TIP3   OH2 1739   6.179   2.128   0.702
  592TIP3    H1 1740   6.188   2.208   0.758
  592TIP3    H2 1741   6.092   2.143   0.661
  593TIP3   OH2 1742   5.321   2.505   0.345
  593TIP3    H1 1743   5.303   2.471   0.256
  593TIP3    H2 1744   5.409   2.465   0.364
  594TIP3   OH2 1745   5.325   2.065   0.549
  594TIP3    H1 1746   5.361   2.038   0.461
  594TIP3    H2 1747   5.371   2.150   0.566
  595TIP3   OH2 1748   5.856   2.695   0.341
  595TIP3    H1 1749   5.829   2.774   0.390
  595TIP3    H2 1750   5.830   2.622   0.401
  596TIP3   OH2 1751   5.464   2.617   0.876
  596TIP3    H1 1752   5.403   2.678   0.924
  596TIP3    H2 1753   5.399   2.564   0.826
  597TIP3   OH2 1754   5.215   2.175   0.978
  597TIP3    H1 1755   5.222   2.264   1.019
  597TIP3    H2 1756   5.122   2.153   1.001
  598TIP3   OH2 1757   5.256   2.778   0.965
  598TIP3    H1 1758   5.218   2.788   0.876
  598TIP3    H2 1759   5.176   2.760   1.019
  599TIP3   OH2 1760   4.832   2.318   0.913
  599TIP3    H1 1761   4.763   2.298   0.847
  599TIP3    H2 1762   4.870   2.230   0.934
  600TIP3   OH2 1763   4.688   2.514   0.539
  600TIP3    H1 1764   4.785   2.514   0.540
  600TIP3    H2 1765   4.669   2.590   0.596
  601TIP3   OH2 1766   6.538   2.955   0.607
  601TIP3    H1 1767   6.548   2.860   0.631
  601TIP3    H2 1768   6.459   2.978   0.661
  602TIP3   OH2 1769   5.656   2.748   0.733
  602TIP3    H1 1770   5.653   2.840   0.767
  602TIP3    H2 1771   5.586   2.706   0.788
  603TIP3   OH2 1772   4.852   2.737   0.075
  603TIP3    H1 1773   4.911   2.724   0.152
  603TIP3    H2 1774   4.773   2.692   0.108
  604TIP3   OH2 1775   6.446   2.082   0.827
  604TIP3    H1 1776   6.349   2.079   0.817
  604TIP3    H2 1777   6.461   2.020   0.899
  605TIP3   OH2 1778   5.037   2.500   0.892
  605TIP3    H1 1779   5.085   2.489   0.976
  605TIP3    H2 1780   4.962   2.437   0.904
  606TIP3   OH2 1781   5.409   1.316   0.693
  606TIP3    H1 1782   5.316   1.309   0.665
  606TIP3    H2 1783   5.408   1.404   0.736
  607TIP3   OH2 1784   5.966   1.440   0.851
  607TIP3    H1 1785   6.037   1.428   0.918
  607TIP3    H2 1786   5.887   1.414   0.902
  608TIP3   OH2 1787   6.224   1.873   0.805
  608TIP3    H1 1788   6.166   1.864   0.884
  608TIP3    H2 1789   6.193   1.957   0.766
  609TIP3   OH2 1790   5.368   1.846   0.703
  609TIP3    H1 1791   5.321   1.869   0.785
  609TIP3    H2 1792   5.352   1.927   0.649
  610TIP3   OH2 1793   5.254   1.722   0.208
  610TIP3    H1 1794   5.163   1.688   0.223
  610TIP3    H2 1795   5.277   1.685   0.122
  611TIP3   OH2 1796   5.921   2.086   1.027
  611TIP3    H1 1797   5.903   2.014   1.091
  611TIP3    H2 1798   6.014   2.107   1.047
  612TIP3   OH2 1799   5.184   1.869   0.910
  612TIP3    H1 1800   5.222   1.931   0.974
  612TIP3    H2 1801   5.176   1.787   0.963
  613TIP3   OH2 1802   4.790   1.412   0.479
  613TIP3    H1 1803   4.843   1.450   0.552
  613TIP3    H2 1804   4.846   1.336   0.453
  614TIP3   OH2 1805   5.903   2.081   0.603
  614TIP3    H1 1806   5.921   2.004   0.545
  614TIP3    H2 1807   5.877   2.033   0.685
  615TIP3   OH2 1808   5.007   1.601   0.270
  615TIP3    H1 1809   4.915   1.625   0.245
  615TIP3    H2 1810   4.997   1.505   0.282
  616TIP3   OH2 1811   6.250   3.315   0.721
  616TIP3    H1 1812   6.254   3.343   0.628
  616TIP3    H2 1813   6.327   3.363   0.758
  617TIP3   OH2 1814   5.203   2.422   1.119
  617TIP3    H1 1815   5.282   2.452   1.167
  617TIP3    H2 1816   5.137   2.423   1.191
  618TIP3   OH2 1817   5.651   1.858   0.374
  618TIP3    H1 1818   5.741   1.838   0.347
  618TIP3    H2 1819   5.654   1.832   0.468
  619TIP3   OH2 1820   5.639   1.782   0.662
  619TIP3    H1 1821   5.550   1.819   0.680
  619TIP3    H2 1822   5.698   1.840   0.713
  620TIP3   OH2 1823   6.281   2.410   0.361
  620TIP3    H1 1824   6.241   2.458   0.287
  620TIP3    H2 1825   6.207   2.353   0.387
  621TIP3   OH2 1826   5.767   2.480   0.761
  621TIP3    H1 1827   5.815   2.467   0.844
  621TIP3    H2 1828   5.735   2.571   0.768
  622TIP3   OH2 1829   5.069   2.172   0.445
  622TIP3    H1 1830   5.153   2.150   0.401
  622TIP3    H2 1831   5.084   2.131   0.532
  623TIP3   OH2 1832   4.954   2.105   1.050
  623TIP3    H1 1833   4.972   2.092   1.145
  623TIP3    H2 1834   4.883   2.039   1.035
  624TIP3   OH2 1835   5.682   2.223   1.068
  624TIP3    H1 1836   5.622   2.160   1.025
  624TIP3    H2 1837   5.769   2.188   1.041
  625TIP3   OH2 1838   5.930   2.738   0.656
  625TIP3    H1 1839   5.834   2.742   0.672
  625TIP3    H2 1840   5.964   2.790   0.732
  626TIP3   OH2 1841   6.556   2.673   0.650
  626TIP3    H1 1842   6.458   2.670   0.656
  626TIP3    H2 1843   6.569   2.627   0.564
  627TIP3   OH2 1844   6.027   2.274   0.337
  627TIP3    H1 1845   5.931   2.258   0.345
  627TIP3    H2 1846   6.057   2.185   0.311
  628TIP3   OH2 1847   5.177   2.481   0.058
  628TIP3    H1 1848   5.168   2.571   0.012
  628TIP3    H2 1849   5.093   2.477   0.103
  629TIP3   OH2 1850   4.750   1.787  -0.229
  629TIP3    H1 1851   4.751   1.882  -0.241
  629TIP3    H2 1852   4.676   1.772  -0.168
  630TIP3   OH2 1853   5.259   2.214   0.076
  630TIP3    H1 1854   5.248   2.254   0.025
  630TIP3    H2 1855   5.349   2.196   0.091
  631TIP3   OH2 1856   5.440   2.831   0.530
  631TIP3    H1 1857   5.481   2.904   0.479
  631TIP3    H2 1858   5.517   2.798   0.579
  632TIP3   OH2 1859   3.685   1.296   7.071
  632TIP3    H1 1860   3.590   1.302   7.085
  632TIP3    H2 1861   3.706   1.367   7.010
  633TIP3   OH2 1862   5.822   2.465   0.495
  633TIP3    H1 1863   5.804   2.465   0.592
  633TIP3    H2 1864   5.906   2.418   0.492
  634TIP3   OH2 1865   6.070   2.998   0.539
  634TIP3    H1 1866   5.986   2.948   0.529
  634TIP3    H2 1867   6.064   3.060   0.465
  635TIP3   OH2 1868   5.157   1.612   1.055
  635TIP3    H1 1869   5.060   1.614   1.068
  635TIP3    H2 1870   5.186   1.559   1.131
  636TIP3   OH2 1871   4.880   2.692   0.687
  636TIP3    H1 1872   4.936   2.628   0.734
  636TIP3    H2 1873   4.898   2.773   0.738
  637TIP3   OH2 1874   4.932   2.088  -0.140
  637TIP3    H1 1875   4.850   2.113  -0.092
  637TIP3    H2 1876   4.892   2.072  -0.230
  638TIP3   OH2 1877   6.001   1.694   0.729
  638TIP3    H1 1878   6.089   1.714   0.764
  638TIP3    H2 1879   5.983   1.606   0.768
  639TIP3   OH2 1880   5.838   1.923   0.813
  639TIP3    H1 1881   5.867   1.972   0.893
  639TIP3    H2 1882   5.893   1.842   0.818
  640TIP3   OH2 1883   6.484   1.783   0.701
  640TIP3    H1 1884   6.407   1.782   0.760
  640TIP3    H2 1885   6.472   1.872   0.662
  641TIP3   OH2 1886   6.095   2.020   0.237
  641TIP3    H1 1887   6.097   2.016   0.139
  641TIP3    H2 1888   6.165   1.955   0.258
  642TIP3   OH2 1889   5.133   1.243   0.659
  642TIP3    H1 1890   5.060   1.217   0.599
  642TIP3    H2 1891   5.125   1.176   0.730
  643TIP3   OH2 1892   4.698   2.445   0.032
  643TIP3    H1 1893   4.631   2.481   0.092
  643TIP3    H2 1894   4.688   2.506  -0.043
  644TIP3   OH2 1895   4.874   3.016   1.111
  644TIP3    H1 1896   4.958   3.021   1.161
  644TIP3    H2 1897   4.858   2.921   1.113
  645TIP3   OH2 1898   5.341   2.965   1.156
  645TIP3    H1 1899   5.437   2.956   1.165
  645TIP3    H2 1900   5.323   2.901   1.085
  646TIP3   OH2 1901   5.993   2.872   0.885
  646TIP3    H1 1902   5.983   2.805   0.957
  646TIP3    H2 1903   6.067   2.927   0.919
  647TIP3   OH2 1904   4.999   2.411   1.309
  647TIP3    H1 1905   5.013   2.315   1.318
  647TIP3    H2 1906   4.912   2.415   1.265
  648TIP3   OH2 1907   5.606   2.500   1.086
  648TIP3    H1 1908   5.568   2.522   0.998
  648TIP3    H2 1909   5.639   2.409   1.072
  649TIP3   OH2 1910   6.089   2.507   0.686
  649TIP3    H1 1911   6.170   2.548   0.648
  649TIP3    H2 1912   6.025   2.580   0.674
  650TIP3   OH2 1913   5.121   2.145   1.296
  650TIP3    H1 1914   5.203   2.102   1.267
  650TIP3    H2 1915   5.148   2.182   1.383
  651TIP3   OH2 1916   5.449   2.026   0.952
  651TIP3    H1 1917   5.375   2.090   0.952
  651TIP3    H2 1918   5.505   2.061   0.878
  652TIP3   OH2 1919   5.971   2.432   1.086
  652TIP3    H1 1920   6.058   2.411   1.051
  652TIP3    H2 1921   5.964   2.369   1.160
  653TIP3   OH2 1922   5.575   1.820   1.080
  653TIP3    H1 1923   5.579   1.742   1.022
  653TIP3    H2 1924   5.532   1.887   1.022
  654TIP3   OH2 1925   5.579   1.609   0.889
  654TIP3    H1 1926   5.608   1.649   0.805
  654TIP3    H2 1927   5.485   1.587   0.870
  655TIP3   OH2 1928   5.599   2.135   0.759
  655TIP3    H1 1929   5.688   2.156   0.728
  655TIP3    H2 1930   5.545   2.203   0.713
  656TIP3   OH2 1931   6.200   2.110   1.142
  656TIP3    H1 1932   6.242   2.025   1.157
  656TIP3    H2 1933   6.278   2.167   1.127
  657TIP3   OH2 1934   6.221   2.354   0.870
  657TIP3    H1 1935   6.164   2.412   0.814
  657TIP3    H2 1936   6.309   2.374   0.832
  658TIP3   OH2 1937   5.453   1.925   1.314
  658TIP3    H1 1938   5.386   1.855   1.330
  658TIP3    H2 1939   5.488   1.899   1.226
  659TIP3   OH2 1940   5.710   1.369   0.959
  659TIP3    H1 1941   5.661   1.450   0.934
  659TIP3    H2 1942   5.643   1.299   0.945
  660TIP3   OH2 1943   5.839   1.869   1.173
  660TIP3    H1 1944   5.828   1.856   1.269
  660TIP3    H2 1945   5.748   1.846   1.143
  661TIP3   OH2 1946   6.072   1.821   1.022
  661TIP3    H1 1947   5.998   1.822   1.087
  661TIP3    H2 1948   6.147   1.793   1.078
  662TIP3   OH2 1949   6.292   1.761   1.176
  662TIP3    H1 1950   6.318   1.669   1.195
  662TIP3    H2 1951   6.295   1.802   1.265
  663TIP3   OH2 1952   5.292   1.704   1.370
  663TIP3    H1 1953   5.299   1.613   1.338
  663TIP3    H2 1954   5.332   1.695   1.460
  664TIP3   OH2 1955   5.769   1.388   1.229
  664TIP3    H1 1956   5.847   1.327   1.227
  664TIP3    H2 1957   5.744   1.384   1.134
  665TIP3   OH2 1958   5.869   1.594   1.380
  665TIP3    H1 1959   5.842   1.525   1.316
  665TIP3    H2 1960   5.792   1.655   1.375
  666TIP3   OH2 1961   4.472   2.807   0.108
  666TIP3    H1 1962   4.411   2.744   0.064
  666TIP3    H2 1963   4.519   2.746   0.169
  667TIP3   OH2 1964   4.632   2.664   0.280
  667TIP3    H1 1965   4.614   2.596   0.348
  667TIP3    H2 1966   4.682   2.728   0.335
  668TIP3   OH2 1967   6.382   3.082   0.406
  668TIP3    H1 1968   6.331   3.000   0.386
  668TIP3    H2 1969   6.425   3.051   0.488
  669TIP3   OH2 1970   6.409   2.772   0.936
  669TIP3    H1 1971   6.345   2.779   1.010
  669TIP3    H2 1972   6.460   2.855   0.945
  670TIP3   OH2 1973   6.253   2.841   0.407
  670TIP3    H1 1974   6.183   2.877   0.465
  670TIP3    H2 1975   6.201   2.789   0.342
  671TIP3   OH2 1976   4.808   2.074   0.664
  671TIP3    H1 1977   4.804   2.038   0.573
  671TIP3    H2 1978   4.905   2.075   0.680
  672TIP3   OH2 1979   6.465   2.422   0.762
  672TIP3    H1 1980   6.538   2.357   0.767
  672TIP3    H2 1981   6.505   2.494   0.710
  673TIP3   OH2 1982   6.662   2.247   0.813
  673TIP3    H1 1983   6.588   2.182   0.821
  673TIP3    H2 1984   6.712   2.222   0.895
  674TIP3   OH2 1985   6.390   2.000   0.529
  674TIP3    H1 1986   6.328   2.048   0.587
  674TIP3    H2 1987   6.442   2.074   0.492
  675TIP3   OH2 1988   5.026   1.756   1.334
  675TIP3    H1 1989   5.124   1.753   1.340
  675TIP3    H2 1990   5.004   1.670   1.373
  676TIP3   OH2 1991   4.975   1.473   0.677
  676TIP3    H1 1992   5.036   1.397   0.685
  676TIP3    H2 1993   5.039   1.546   0.666
  677TIP3   OH2 1994   4.786   1.725   0.738
  677TIP3    H1 1995   4.839   1.725   0.656
  677TIP3    H2 1996   4.815   1.805   0.782
  678TIP3   OH2 1997   4.994   1.309   1.054
  678TIP3    H1 1998   4.943   1.305   1.136
  678TIP3    H2 1999   4.928   1.346   0.992
  679TIP3   OH2 2000   5.034   2.737   1.126
  679TIP3    H1 2001   4.939   2.716   1.117
  679TIP3    H2 2002   5.049   2.726   1.221
  680TIP3   OH2 2003   5.215   2.771   0.675
  680TIP3    H1 2004   5.168   2.849   0.638
  680TIP3    H2 2005   5.302   2.786   0.632
  681TIP3   OH2 2006   5.653   3.014   0.812
  681TIP3    H1 2007   5.694   3.011   0.902
  681TIP3    H2 2008   5.717   3.071   0.765
  682TIP3   OH2 2009   5.834   3.172   0.679
  682TIP3    H1 2010   5.904   3.113   0.649
  682TIP3    H2 2011   5.884   3.229   0.742
  683TIP3   OH2 2012   4.887   3.025   0.706
  683TIP3    H1 2013   4.795   3.056   0.687
  683TIP3    H2 2014   4.908   3.081   0.783
  684TIP3   OH2 2015   5.124   3.003   0.563
  684TIP3    H1 2016   5.036   3.016   0.605
  684TIP3    H2 2017   5.109   3.039   0.473
  685TIP3   OH2 2018   5.549   3.025   0.370
  685TIP3    H1 2019   5.481   3.037   0.301
  685TIP3    H2 2020   5.561   3.117   0.402
  686TIP3   OH2 2021   5.819   2.964   0.411
  686TIP3    H1 2022   5.723   2.985   0.417
  686TIP3    H2 2023   5.832   2.976   0.314
  687TIP3   OH2 2024   6.035   3.183   0.323
  687TIP3    H1 2025   5.946   3.191   0.361
  687TIP3    H2 2026   6.016   3.119   0.251
  688TIP3   OH2 2027   4.802   2.817   0.447
  688TIP3    H1 2028   4.827   2.787   0.537
  688TIP3    H2 2029   4.875   2.775   0.396
  689TIP3   OH2 2030   4.996   2.692   0.301
  689TIP3    H1 2031   5.009   2.609   0.353
  689TIP3    H2 2032   5.087   2.729   0.303
  690TIP3   OH2 2033   5.259   2.779   0.323
  690TIP3    H1 2034   5.292   2.687   0.317
  690TIP3    H2 2035   5.311   2.809   0.400
  691TIP3   OH2 2036   4.538   2.606  -0.126
  691TIP3    H1 2037   4.482   2.558  -0.187
  691TIP3    H2 2038   4.551   2.691  -0.170
  692TIP3   OH2 2039   5.293   1.429   1.298
  692TIP3    H1 2040   5.256   1.360   1.355
  692TIP3    H2 2041   5.386   1.429   1.328
  693TIP3   OH2 2042   5.544   1.429   1.416
  693TIP3    H1 2043   5.625   1.413   1.363
  693TIP3    H2 2044   5.545   1.354   1.478
  694TIP3   OH2 2045   6.383   1.496   1.218
  694TIP3    H1 2046   6.390   1.465   1.310
  694TIP3    H2 2047   6.462   1.456   1.179
  695TIP3   OH2 2048   6.300   3.046   0.702
  695TIP3    H1 2049   6.217   3.019   0.658
  695TIP3    H2 2050   6.283   3.141   0.718
  696TIP3   OH2 2051   6.618   2.558   0.415
  696TIP3    H1 2052   6.570   2.580   0.335
  696TIP3    H2 2053   6.700   2.517   0.378
  697TIP3   OH2 2054   6.650   3.276   0.620
  697TIP3    H1 2055   6.744   3.262   0.635
  697TIP3    H2 2056   6.623   3.189   0.586
  698TIP3   OH2 2057   6.779   3.038   0.515
  698TIP3    H1 2058   6.687   3.007   0.530
  698TIP3    H2 2059   6.825   2.953   0.520
  699TIP3   OH2 2060   0.017   3.185   1.536
  699TIP3    H1 2061   0.057   3.184   1.626
  699TIP3    H2 2062   0.018   3.091   1.515
  700TIP3   OH2 2063   0.283   3.497   1.264
  700TIP3    H1 2064   0.274   3.437   1.340
  700TIP3    H2 2065   0.314   3.579   1.307
  701TIP3   OH2 2066  -0.050   4.054   1.165
  701TIP3    H1 2067   0.012   3.978   1.157
  701TIP3    H2 2068  -0.074   4.047   1.258
  702TIP3   OH2 2069  -0.168   3.437   1.644
  702TIP3    H1 2070  -0.178   3.441   1.547
  702TIP3    H2 2071  -0.075   3.466   1.656
  703TIP3   OH2 2072   0.839   2.750   1.589
  703TIP3    H1 2073   0.870   2.833   1.631
  703TIP3    H2 2074   0.861   2.768   1.496
  704TIP3   OH2 2075   0.229   2.914   1.633
  704TIP3    H1 2076   0.230   2.844   1.701
  704TIP3    H2 2077   0.226   2.863   1.550
  705TIP3   OH2 2078   0.915   2.962   1.756
  705TIP3    H1 2079   0.829   3.007   1.741
  705TIP3    H2 2080   0.941   3.001   1.842
  706TIP3   OH2 2081  -0.351   3.350   1.814
  706TIP3    H1 2082  -0.393   3.433   1.836
  706TIP3    H2 2083  -0.287   3.378   1.745
  707TIP3   OH2 2084   0.325   3.751   1.379
  707TIP3    H1 2085   0.235   3.746   1.419
  707TIP3    H2 2086   0.321   3.840   1.338
  708TIP3   OH2 2087   0.636   2.653   1.755
  708TIP3    H1 2088   0.553   2.694   1.728
  708TIP3    H2 2089   0.697   2.680   1.683
  709TIP3   OH2 2090   0.095   3.834   1.095
  709TIP3    H1 2091   0.126   3.744   1.119
  709TIP3    H2 2092   0.050   3.810   1.012
  710TIP3   OH2 2093   0.176   3.579   1.030
  710TIP3    H1 2094   0.177   3.495   0.981
  710TIP3    H2 2095   0.217   3.550   1.114
  711TIP3   OH2 2096   0.561   3.663   1.730
  711TIP3    H1 2097   0.552   3.586   1.670
  711TIP3    H2 2098   0.546   3.738   1.669
  712TIP3   OH2 2099   0.757   3.298   1.574
  712TIP3    H1 2100   0.673   3.350   1.579
  712TIP3    H2 2101   0.788   3.326   1.485
  713TIP3   OH2 2102   0.435   3.178   1.874
  713TIP3    H1 2103   0.434   3.257   1.931
  713TIP3    H2 2104   0.348   3.186   1.830
  714TIP3   OH2 2105   0.087   3.746   1.511
  714TIP3    H1 2106   0.097   3.821   1.572
  714TIP3    H2 2107   0.082   3.669   1.571
  715TIP3   OH2 2108  -0.302   3.685   2.016
  715TIP3    H1 2109  -0.341   3.694   2.106
  715TIP3    H2 2110  -0.371   3.634   1.972
  716TIP3   OH2 2111   0.798   3.994   1.762
  716TIP3    H1 2112   0.798   3.901   1.791
  716TIP3    H2 2113   0.731   4.032   1.822
  717TIP3   OH2 2114  -0.084   3.791   1.901
  717TIP3    H1 2115  -0.083   3.882   1.936
  717TIP3    H2 2116  -0.163   3.754   1.946
  718TIP3   OH2 2117   0.690   3.134   2.056
  718TIP3    H1 2118   0.604   3.143   2.013
  718TIP3    H2 2119   0.705   3.038   2.049
  719TIP3   OH2 2120   0.217   2.519   2.074
  719TIP3    H1 2121   0.268   2.499   2.153
  719TIP3    H2 2122   0.130   2.481   2.095
  720TIP3   OH2 2123   0.461   2.917   1.976
  720TIP3    H1 2124   0.407   2.909   2.058
  720TIP3    H2 2125   0.430   3.002   1.940
  721TIP3   OH2 2126   0.171   3.132   2.212
  721TIP3    H1 2127   0.151   3.060   2.276
  721TIP3    H2 2128   0.264   3.151   2.234
  722TIP3   OH2 2129   0.158   3.139   1.761
  722TIP3    H1 2130   0.193   3.063   1.710
  722TIP3    H2 2131   0.133   3.091   1.844
  723TIP3   OH2 2132   0.460   4.418   1.851
  723TIP3    H1 2133   0.490   4.387   1.763
  723TIP3    H2 2134   0.542   4.392   1.901
  724TIP3   OH2 2135   0.526   3.448   1.562
  724TIP3    H1 2136   0.551   3.499   1.482
  724TIP3    H2 2137   0.436   3.416   1.541
  725TIP3   OH2 2138   0.032   3.524   1.936
  725TIP3    H1 2139   0.067   3.499   2.023
  725TIP3    H2 2140  -0.012   3.608   1.953
  726TIP3   OH2 2141  -0.058   3.285   2.256
  726TIP3    H1 2142  -0.135   3.228   2.234
  726TIP3    H2 2143   0.017   3.233   2.221
  727TIP3   OH2 2144   0.186   3.788   1.831
  727TIP3    H1 2145   0.090   3.780   1.845
  727TIP3    H2 2146   0.212   3.841   1.908
  728TIP3   OH2 2147   0.811   3.711   1.823
  728TIP3    H1 2148   0.713   3.709   1.813
  728TIP3    H2 2149   0.838   3.686   1.732
  729TIP3   OH2 2150   0.272   3.341   1.492
  729TIP3    H1 2151   0.182   3.308   1.508
  729TIP3    H2 2152   0.314   3.262   1.452
  730TIP3   OH2 2153  -0.287   3.875   1.714
  730TIP3    H1 2154  -0.231   3.929   1.654
  730TIP3    H2 2155  -0.221   3.817   1.754
  731TIP3   OH2 2156   0.094   3.515   1.670
  731TIP3    H1 2157   0.083   3.514   1.768
  731TIP3    H2 2158   0.178   3.468   1.659
  732TIP3   OH2 2159   0.347   4.049   1.710
  732TIP3    H1 2160   0.261   4.003   1.716
  732TIP3    H2 2161   0.324   4.119   1.645
  733TIP3   OH2 2162   0.253   2.732   1.895
  733TIP3    H1 2163   0.328   2.771   1.941
  733TIP3    H2 2164   0.234   2.654   1.951
  734TIP3   OH2 2165   0.123   2.993   1.980
  734TIP3    H1 2166   0.135   3.035   2.067
  734TIP3    H2 2167   0.137   2.899   1.998
  735TIP3   OH2 2168   0.725   2.866   1.977
  735TIP3    H1 2169   0.627   2.866   1.983
  735TIP3    H2 2170   0.737   2.837   1.885
  736TIP3   OH2 2171   0.390   3.127   1.374
  736TIP3    H1 2172   0.356   3.044   1.338
  736TIP3    H2 2173   0.469   3.093   1.420
  737TIP3   OH2 2174   0.346   4.019   1.308
  737TIP3    H1 2175   0.304   4.081   1.245
  737TIP3    H2 2176   0.441   4.038   1.289
  738TIP3   OH2 2177  -0.287   3.997   2.307
  738TIP3    H1 2178  -0.327   3.967   2.390
  738TIP3    H2 2179  -0.363   4.026   2.257
  739TIP3   OH2 2180   0.231   3.922   2.073
  739TIP3    H1 2181   0.265   3.848   2.125
  739TIP3    H2 2182   0.301   3.989   2.091
  740TIP3   OH2 2183  -0.115   3.550   2.237
  740TIP3    H1 2184  -0.176   3.531   2.165
  740TIP3    H2 2185  -0.073   3.462   2.250
  741TIP3   OH2 2186   0.347   3.554   1.866
  741TIP3    H1 2187   0.425   3.597   1.826
  741TIP3    H2 2188   0.279   3.623   1.851
  742TIP3   OH2 2189  -0.275   3.124   2.183
  742TIP3    H1 2190  -0.370   3.143   2.184
  742TIP3    H2 2191  -0.252   3.127   2.088
  743TIP3   OH2 2192   0.220   3.476   2.252
  743TIP3    H1 2193   0.310   3.454   2.228
  743TIP3    H2 2194   0.204   3.418   2.328
  744TIP3   OH2 2195  -0.164   2.869   2.267
  744TIP3    H1 2196  -0.175   2.782   2.226
  744TIP3    H2 2197  -0.210   2.925   2.203
  745TIP3   OH2 2198  -0.153   3.172   1.916
  745TIP3    H1 2199  -0.065   3.194   1.883
  745TIP3    H2 2200  -0.209   3.239   1.874
  746TIP3   OH2 2201   0.432   3.152   2.317
  746TIP3    H1 2202   0.483   3.071   2.335
  746TIP3    H2 2203   0.500   3.212   2.283
  747TIP3   OH2 2204   0.478   3.402   2.049
  747TIP3    H1 2205   0.418   3.457   1.994
  747TIP3    H2 2206   0.565   3.426   2.010
  748TIP3   OH2 2207  -0.290   2.975   2.501
  748TIP3    H1 2208  -0.367   2.916   2.509
  748TIP3    H2 2209  -0.261   2.959   2.409
  749TIP3   OH2 2210   0.101   2.912   2.357
  749TIP3    H1 2211   0.093   2.913   2.454
  749TIP3    H2 2212   0.008   2.895   2.331
  750TIP3   OH2 2213   0.326   2.859   2.201
  750TIP3    H1 2214   0.253   2.867   2.266
  750TIP3    H2 2215   0.402   2.835   2.259
  751TIP3   OH2 2216   0.556   2.810   2.352
  751TIP3    H1 2217   0.570   2.715   2.371
  751TIP3    H2 2218   0.549   2.849   2.442
  752TIP3   OH2 2219  -0.475   2.778   2.568
  752TIP3    H1 2220  -0.473   2.704   2.506
  752TIP3    H2 2221  -0.416   2.748   2.640
  753TIP3   OH2 2222   0.043   2.436   2.402
  753TIP3    H1 2223   0.119   2.375   2.393
  753TIP3    H2 2224   0.001   2.423   2.315
  754TIP3   OH2 2225   0.121   2.641   2.561
  754TIP3    H1 2226   0.100   2.575   2.491
  754TIP3    H2 2227   0.045   2.704   2.551
  755TIP3   OH2 2228   0.601   4.110   1.272
  755TIP3    H1 2229   0.623   4.135   1.364
  755TIP3    H2 2230   0.663   4.164   1.221
  756TIP3   OH2 2231   0.632   4.123   1.552
  756TIP3    H1 2232   0.592   4.034   1.552
  756TIP3    H2 2233   0.706   4.107   1.614
  757TIP3   OH2 2234   0.675   3.810   2.132
  757TIP3    H1 2235   0.599   3.823   2.193
  757TIP3    H2 2236   0.715   3.899   2.130
  758TIP3   OH2 2237   0.616   3.138   0.975
  758TIP3    H1 2238   0.557   3.188   1.033
  758TIP3    H2 2239   0.701   3.184   0.990
  759TIP3   OH2 2240   0.673   3.582   1.372
  759TIP3    H1 2241   0.729   3.513   1.330
  759TIP3    H2 2242   0.673   3.653   1.306
  760TIP3   OH2 2243   0.503   3.875   1.565
  760TIP3    H1 2244   0.439   3.924   1.620
  760TIP3    H2 2245   0.446   3.834   1.497
  761TIP3   OH2 2246   0.724   3.471   1.947
  761TIP3    H1 2247   0.794   3.403   1.936
  761TIP3    H2 2248   0.755   3.543   1.890
  762TIP3   OH2 2249   0.902   3.267   1.949
  762TIP3    H1 2250   0.829   3.220   1.994
  762TIP3    H2 2251   0.977   3.207   1.969
  763TIP3   OH2 2252   0.583   2.960   1.486
  763TIP3    H1 2253   0.671   2.969   1.443
  763TIP3    H2 2254   0.605   2.989   1.577
  764TIP3   OH2 2255   0.665   3.082   1.720
  764TIP3    H1 2256   0.586   3.115   1.768
  764TIP3    H2 2257   0.696   3.164   1.675
  765TIP3   OH2 2258   1.111   2.675   2.263
  765TIP3    H1 2259   1.179   2.625   2.213
  765TIP3    H2 2260   1.072   2.731   2.192
  766TIP3   OH2 2261   0.978   2.810   2.075
  766TIP3    H1 2262   0.897   2.857   2.104
  766TIP3    H2 2263   0.938   2.742   2.017
  767TIP3   OH2 2264  -0.033   4.052   1.989
  767TIP3    H1 2265   0.006   4.035   2.076
  767TIP3    H2 2266   0.048   4.059   1.936
  768TIP3   OH2 2267   0.881   2.576   1.953
  768TIP3    H1 2268   0.791   2.575   1.915
  768TIP3    H2 2269   0.905   2.481   1.942
  769TIP3   OH2 2270  -0.171   4.066   1.549
  769TIP3    H1 2271  -0.257   4.076   1.503
  769TIP3    H2 2272  -0.159   4.157   1.581
  770TIP3   OH2 2273   0.093   4.012   1.607
  770TIP3    H1 2274   0.000   4.025   1.579
  770TIP3    H2 2275   0.140   4.080   1.555
  771TIP3   OH2 2276   0.268   4.208   1.498
  771TIP3    H1 2277   0.253   4.293   1.452
  771TIP3    H2 2278   0.300   4.152   1.425
  772TIP3   OH2 2279  -0.186   2.500   2.612
  772TIP3    H1 2280  -0.090   2.503   2.593
  772TIP3    H2 2281  -0.186   2.449   2.696
  773TIP3   OH2 2282   0.622   2.541   2.390
  773TIP3    H1 2283   0.639   2.511   2.483
  773TIP3    H2 2284   0.712   2.533   2.351
  774TIP3   OH2 2285   0.558   4.074   1.893
  774TIP3    H1 2286   0.487   4.080   1.825
  774TIP3    H2 2287   0.603   4.162   1.888
  775TIP3   OH2 2288   1.824   3.460   0.641
  775TIP3    H1 2289   1.795   3.552   0.624
  775TIP3    H2 2290   1.747   3.412   0.606
  776TIP3   OH2 2291   1.823   3.458   1.023
  776TIP3    H1 2292   1.854   3.450   1.115
  776TIP3    H2 2293   1.772   3.377   1.011
  777TIP3   OH2 2294   1.116   3.352   1.389
  777TIP3    H1 2295   1.145   3.282   1.450
  777TIP3    H2 2296   1.190   3.415   1.398
  778TIP3   OH2 2297   2.066   3.766   0.711
  778TIP3    H1 2298   2.052   3.701   0.782
  778TIP3    H2 2299   2.098   3.843   0.762
  779TIP3   OH2 2300   1.089   3.764   1.104
  779TIP3    H1 2301   1.083   3.666   1.107
  779TIP3    H2 2302   1.185   3.777   1.111
  780TIP3   OH2 2303   0.855   3.255   1.067
  780TIP3    H1 2304   0.904   3.178   1.103
  780TIP3    H2 2305   0.923   3.300   1.014
  781TIP3   OH2 2306   1.719   4.226   0.728
  781TIP3    H1 2307   1.758   4.154   0.675
  781TIP3    H2 2308   1.712   4.185   0.815
  782TIP3   OH2 2309   1.620   3.688   1.074
  782TIP3    H1 2310   1.662   3.616   1.026
  782TIP3    H2 2311   1.701   3.735   1.103
  783TIP3   OH2 2312   2.631   3.004   1.076
  783TIP3    H1 2313   2.658   3.085   1.122
  783TIP3    H2 2314   2.659   3.024   0.985
  784TIP3   OH2 2315   2.019   3.180   1.110
  784TIP3    H1 2316   2.072   3.105   1.138
  784TIP3    H2 2317   2.000   3.161   1.016
  785TIP3   OH2 2318   1.390   2.864   1.083
  785TIP3    H1 2319   1.357   2.929   1.018
  785TIP3    H2 2320   1.339   2.784   1.059
  786TIP3   OH2 2321   2.073   2.940   0.695
  786TIP3    H1 2322   2.142   2.933   0.764
  786TIP3    H2 2323   2.126   2.974   0.620
  787TIP3   OH2 2324   1.003   3.047   1.171
  787TIP3    H1 2325   1.084   3.031   1.223
  787TIP3    H2 2326   1.019   2.989   1.094
  788TIP3   OH2 2327   1.443   3.246   0.970
  788TIP3    H1 2328   1.537   3.220   0.981
  788TIP3    H2 2329   1.402   3.161   0.942
  789TIP3   OH2 2330   2.697   3.212   1.254
  789TIP3    H1 2331   2.622   3.270   1.230
  789TIP3    H2 2332   2.740   3.265   1.325
  790TIP3   OH2 2333   1.366   2.830   1.505
  790TIP3    H1 2334   1.306   2.869   1.439
  790TIP3    H2 2335   1.313   2.846   1.587
  791TIP3   OH2 2336   1.711   3.682   0.510
  791TIP3    H1 2337   1.666   3.670   0.425
  791TIP3    H2 2338   1.666   3.763   0.543
  792TIP3   OH2 2339   1.474   3.605   1.295
  792TIP3    H1 2340   1.416   3.675   1.333
  792TIP3    H2 2341   1.519   3.654   1.224
  793TIP3   OH2 2342   2.269   2.945   0.887
  793TIP3    H1 2343   2.335   2.888   0.927
  793TIP3    H2 2344   2.308   3.033   0.905
  794TIP3   OH2 2345   1.236   2.950   1.292
  794TIP3    H1 2346   1.292   3.025   1.322
  794TIP3    H2 2347   1.294   2.915   1.221
  795TIP3   OH2 2348   1.302   3.803   1.391
  795TIP3    H1 2349   1.279   3.893   1.361
  795TIP3    H2 2350   1.223   3.785   1.447
  796TIP3   OH2 2351   0.705   3.495   0.623
  796TIP3    H1 2352   0.696   3.521   0.530
  796TIP3    H2 2353   0.718   3.583   0.665
  797TIP3   OH2 2354   2.129   4.009   0.866
  797TIP3    H1 2355   2.041   3.999   0.910
  797TIP3    H2 2356   2.120   4.098   0.826
  798TIP3   OH2 2357   2.410   2.891   1.208
  798TIP3    H1 2358   2.368   2.974   1.234
  798TIP3    H2 2359   2.486   2.924   1.156
  799TIP3   OH2 2360   1.721   2.530   1.252
  799TIP3    H1 2361   1.693   2.437   1.266
  799TIP3    H2 2362   1.640   2.577   1.282
  800TIP3   OH2 2363   1.829   4.052   0.537
  800TIP3    H1 2364   1.881   3.969   0.523
  800TIP3    H2 2365   1.895   4.117   0.502
  801TIP3   OH2 2366   1.979   3.836   0.460
  801TIP3    H1 2367   1.933   3.757   0.428
  801TIP3    H2 2368   2.018   3.804   0.544
  802TIP3   OH2 2369   2.372   3.917   1.210
  802TIP3    H1 2370   2.342   3.838   1.161
  802TIP3    H2 2371   2.341   3.989   1.152
  803TIP3   OH2 2372   1.654   3.313   0.480
  803TIP3    H1 2373   1.574   3.367   0.464
  803TIP3    H2 2374   1.689   3.305   0.390
  804TIP3   OH2 2375   1.612   3.124   0.193
  804TIP3    H1 2376   1.693   3.166   0.226
  804TIP3    H2 2377   1.642   3.034   0.173
  805TIP3   OH2 2378   2.555   3.551   1.061
  805TIP3    H1 2379   2.472   3.604   1.067
  805TIP3    H2 2380   2.587   3.581   0.973
  806TIP3   OH2 2381   2.002   3.397   0.444
  806TIP3    H1 2382   1.946   3.420   0.523
  806TIP3    H2 2383   2.087   3.375   0.489
  807TIP3   OH2 2384   2.225   3.419   1.348
  807TIP3    H1 2385   2.240   3.495   1.410
  807TIP3    H2 2386   2.143   3.450   1.306
  808TIP3   OH2 2387   1.234   3.394   0.867
  808TIP3    H1 2388   1.193   3.336   0.800
  808TIP3    H2 2389   1.311   3.341   0.896
  809TIP3   OH2 2390   1.365   3.809   1.008
  809TIP3    H1 2391   1.347   3.770   0.921
  809TIP3    H2 2392   1.453   3.772   1.029
  810TIP3   OH2 2393   1.370   3.362   1.216
  810TIP3    H1 2394   1.402   3.342   1.126
  810TIP3    H2 2395   1.411   3.449   1.235
  811TIP3   OH2 2396   1.892   3.999   0.996
  811TIP3    H1 2397   1.884   4.080   1.049
  811TIP3    H2 2398   1.876   3.929   1.061
  812TIP3   OH2 2399   1.509   3.921   1.538
  812TIP3    H1 2400   1.449   3.979   1.590
  812TIP3    H2 2401   1.443   3.867   1.490
  813TIP3   OH2 2402   1.848   3.246   0.276
  813TIP3    H1 2403   1.901   3.312   0.326
  813TIP3    H2 2404   1.874   3.269   0.183
  814TIP3   OH2 2405   1.262   3.472   1.645
  814TIP3    H1 2406   1.270   3.562   1.685
  814TIP3    H2 2407   1.168   3.453   1.665
  815TIP3   OH2 2408   1.585   3.927   0.550
  815TIP3    H1 2409   1.668   3.979   0.554
  815TIP3    H2 2410   1.526   3.987   0.502
  816TIP3   OH2 2411   1.298   4.078   1.629
  816TIP3    H1 2412   1.260   4.086   1.540
  816TIP3    H2 2413   1.219   4.056   1.683
  817TIP3   OH2 2414   2.352   2.500   0.319
  817TIP3    H1 2415   2.271   2.523   0.370
  817TIP3    H2 2416   2.367   2.582   0.268
  818TIP3   OH2 2417   1.103   3.240   0.676
  818TIP3    H1 2418   1.039   3.293   0.625
  818TIP3    H2 2419   1.059   3.154   0.680
  819TIP3   OH2 2420   2.148   3.865  -0.139
  819TIP3    H1 2421   2.167   3.959  -0.156
  819TIP3    H2 2422   2.237   3.826  -0.145
  820TIP3   OH2 2423   0.876   3.619   1.578
  820TIP3    H1 2424   0.810   3.596   1.510
  820TIP3    H2 2425   0.917   3.532   1.600
  821TIP3   OH2 2426   0.735   3.814   1.205
  821TIP3    H1 2427   0.832   3.807   1.204
  821TIP3    H2 2428   0.723   3.887   1.267
  822TIP3   OH2 2429   2.598   4.269   1.263
  822TIP3    H1 2430   2.596   4.173   1.280
  822TIP3    H2 2431   2.515   4.295   1.310
  823TIP3   OH2 2432   1.698   4.051   1.395
  823TIP3    H1 2433   1.696   4.142   1.432
  823TIP3    H2 2434   1.630   4.008   1.451
  824TIP3   OH2 2435   1.467   4.176   0.348
  824TIP3    H1 2436   1.425   4.155   0.262
  824TIP3    H2 2437   1.427   4.262   0.371
  825TIP3   OH2 2438   0.895   4.018   0.747
  825TIP3    H1 2439   0.961   4.012   0.819
  825TIP3    H2 2440   0.814   4.000   0.798
  826TIP3   OH2 2441   1.668   4.087  -0.005
  826TIP3    H1 2442   1.725   4.022  -0.053
  826TIP3    H2 2443   1.708   4.088   0.084
  827TIP3   OH2 2444   1.722   4.131   0.266
  827TIP3    H1 2445   1.631   4.139   0.302
  827TIP3    H2 2446   1.768   4.093   0.342
  828TIP3   OH2 2447   2.497   3.393   1.547
  828TIP3    H1 2448   2.410   3.424   1.520
  828TIP3    H2 2449   2.492   3.296   1.539
  829TIP3   OH2 2450   1.081   3.801   1.551
  829TIP3    H1 2451   1.126   3.798   1.638
  829TIP3    H2 2452   1.006   3.740   1.566
  830TIP3   OH2 2453   1.482   2.627   1.352
  830TIP3    H1 2454   1.395   2.598   1.317
  830TIP3    H2 2455   1.453   2.705   1.403
  831TIP3   OH2 2456   2.018   2.733   1.552
  831TIP3    H1 2457   2.088   2.715   1.618
  831TIP3    H2 2458   1.937   2.723   1.606
  832TIP3   OH2 2459   2.238   3.156   1.437
  832TIP3    H1 2460   2.194   3.153   1.526
  832TIP3    H2 2461   2.226   3.250   1.413
  833TIP3   OH2 2462   1.920   3.303   0.022
  833TIP3    H1 2463   1.864   3.305  -0.056
  833TIP3    H2 2464   1.999   3.351  -0.007
  834TIP3   OH2 2465   1.418   3.143   1.368
  834TIP3    H1 2466   1.370   3.166   1.450
  834TIP3    H2 2467   1.402   3.224   1.314
  835TIP3   OH2 2468   1.292   3.025   0.889
  835TIP3    H1 2469   1.196   3.007   0.897
  835TIP3    H2 2470   1.306   3.004   0.793
  836TIP3   OH2 2471   1.792   3.114   0.609
  836TIP3    H1 2472   1.742   3.188   0.569
  836TIP3    H2 2473   1.845   3.083   0.533
  837TIP3   OH2 2474   1.957   3.388   1.686
  837TIP3    H1 2475   1.945   3.318   1.753
  837TIP3    H2 2476   2.046   3.420   1.709
  838TIP3   OH2 2477   1.943   3.136   0.851
  838TIP3    H1 2478   1.882   3.176   0.785
  838TIP3    H2 2479   1.975   3.061   0.796
  839TIP3   OH2 2480   1.234   3.168   1.573
  839TIP3    H1 2481   1.260   3.236   1.638
  839TIP3    H2 2482   1.223   3.089   1.629
  840TIP3   OH2 2483   0.899   2.721   1.091
  840TIP3    H1 2484   0.924   2.743   1.183
  840TIP3    H2 2485   0.845   2.641   1.104
  841TIP3   OH2 2486   1.927   3.382   1.267
  841TIP3    H1 2487   1.970   3.315   1.209
  841TIP3    H2 2488   1.915   3.329   1.348
  842TIP3   OH2 2489   1.635   2.850   0.949
  842TIP3    H1 2490   1.545   2.837   0.985
  842TIP3    H2 2491   1.675   2.894   1.025
  843TIP3   OH2 2492   1.049   2.894   0.940
  843TIP3    H1 2493   0.959   2.859   0.961
  843TIP3    H2 2494   1.095   2.808   0.935
  844TIP3   OH2 2495   1.340   2.928   0.639
  844TIP3    H1 2496   1.436   2.909   0.639
  844TIP3    H2 2497   1.320   2.930   0.545
  845TIP3   OH2 2498   2.291   4.616   1.367
  845TIP3    H1 2499   2.291   4.640   1.273
  845TIP3    H2 2500   2.372   4.661   1.399
  846TIP3   OH2 2501   1.247   3.722   1.782
  846TIP3    H1 2502   1.327   3.752   1.831
  846TIP3    H2 2503   1.181   3.728   1.854
  847TIP3   OH2 2504   1.703   3.171   1.034
  847TIP3    H1 2505   1.790   3.153   0.995
  847TIP3    H2 2506   1.715   3.144   1.127
  848TIP3   OH2 2507   1.261   2.670   0.949
  848TIP3    H1 2508   1.291   2.578   0.929
  848TIP3    H2 2509   1.296   2.716   0.872
  849TIP3   OH2 2510   1.689   3.081   1.327
  849TIP3    H1 2511   1.598   3.115   1.341
  849TIP3    H2 2512   1.744   3.142   1.380
  850TIP3   OH2 2513   1.435   3.481   0.424
  850TIP3    H1 2514   1.378   3.401   0.419
  850TIP3    H2 2515   1.412   3.513   0.515
  851TIP3   OH2 2516   2.324   3.695   1.047
  851TIP3    H1 2517   2.344   3.753   0.971
  851TIP3    H2 2518   2.235   3.662   1.025
  852TIP3   OH2 2519   1.870   2.776   0.282
  852TIP3    H1 2520   1.785   2.766   0.327
  852TIP3    H2 2521   1.897   2.867   0.307
  853TIP3   OH2 2522   1.816   3.782   1.427
  853TIP3    H1 2523   1.869   3.772   1.508
  853TIP3    H2 2524   1.780   3.872   1.437
  854TIP3   OH2 2525   1.951   3.016   0.389
  854TIP3    H1 2526   2.046   3.030   0.407
  854TIP3    H2 2527   1.926   3.098   0.341
  855TIP3   OH2 2528   1.112   3.487   1.098
  855TIP3    H1 2529   1.154   3.458   1.015
  855TIP3    H2 2530   1.159   3.433   1.164
  856TIP3   OH2 2531   1.577   3.621   0.238
  856TIP3    H1 2532   1.529   3.707   0.247
  856TIP3    H2 2533   1.527   3.566   0.303
  857TIP3   OH2 2534   1.000   3.406   1.712
  857TIP3    H1 2535   1.018   3.396   1.808
  857TIP3    H2 2536   0.928   3.341   1.701
  858TIP3   OH2 2537   1.722   3.523   1.732
  858TIP3    H1 2538   1.664   3.460   1.688
  858TIP3    H2 2539   1.811   3.492   1.703
  859TIP3   OH2 2540   1.968   4.075   1.311
  859TIP3    H1 2541   1.875   4.060   1.334
  859TIP3    H2 2542   2.004   4.106   1.397
  860TIP3   OH2 2543   2.382   3.124   0.232
  860TIP3    H1 2544   2.327   3.079   0.164
  860TIP3    H2 2545   2.381   3.214   0.192
  861TIP3   OH2 2546   2.611   3.980   1.310
  861TIP3    H1 2547   2.513   3.971   1.298
  861TIP3    H2 2548   2.639   3.947   1.221
  862TIP3   OH2 2549   2.097   3.935   0.132
  862TIP3    H1 2550   2.061   3.871   0.196
  862TIP3    H2 2551   2.096   3.885   0.048
  863TIP3   OH2 2552   2.086   3.569   0.957
  863TIP3    H1 2553   1.993   3.549   0.978
  863TIP3    H2 2554   2.114   3.486   0.914
  864TIP3   OH2 2555   1.220   3.793   0.721
  864TIP3    H1 2556   1.216   3.874   0.667
  864TIP3    H2 2557   1.128   3.779   0.743
  865TIP3   OH2 2558   1.349   3.555   0.668
  865TIP3    H1 2559   1.315   3.644   0.686
  865TIP3    H2 2560   1.313   3.504   0.743
  866TIP3   OH2 2561   1.488   4.134   1.192
  866TIP3    H1 2562   1.534   4.206   1.144
  866TIP3    H2 2563   1.561   4.095   1.243
  867TIP3   OH2 2564   1.131   4.032   0.578
  867TIP3    H1 2565   1.047   4.044   0.626
  867TIP3    H2 2566   1.167   4.123   0.579
  868TIP3   OH2 2567   1.870   3.764   1.160
  868TIP3    H1 2568   1.851   3.765   1.257
  868TIP3    H2 2569   1.966   3.748   1.164
  869TIP3   OH2 2570   1.836   3.668   0.046
  869TIP3    H1 2571   1.903   3.639   0.112
  869TIP3    H2 2572   1.754   3.657   0.098
  870TIP3   OH2 2573   2.119   4.298   1.205
  870TIP3    H1 2574   2.045   4.235   1.211
  870TIP3    H2 2575   2.093   4.356   1.131
  871TIP3   OH2 2576   2.186   4.149  -0.170
  871TIP3    H1 2577   2.240   4.232  -0.167
  871TIP3    H2 2578   2.103   4.183  -0.132
  872TIP3   OH2 2579   1.203   2.910   1.717
  872TIP3    H1 2580   1.107   2.915   1.731
  872TIP3    H2 2581   1.232   2.860   1.795
  873TIP3   OH2 2582   2.012   3.591   0.246
  873TIP3    H1 2583   2.001   3.530   0.322
  873TIP3    H2 2584   2.110   3.591   0.239
  874TIP3   OH2 2585   0.923   3.991   1.351
  874TIP3    H1 2586   0.982   3.927   1.395
  874TIP3    H2 2587   0.932   4.067   1.411
  875TIP3   OH2 2588   1.205   3.629   0.015
  875TIP3    H1 2589   1.292   3.583   0.013
  875TIP3    H2 2590   1.185   3.628   0.111
  876TIP3   OH2 2591   1.170   3.640   0.289
  876TIP3    H1 2592   1.240   3.610   0.349
  876TIP3    H2 2593   1.169   3.737   0.307
  877TIP3   OH2 2594   0.913   3.350   0.515
  877TIP3    H1 2595   0.835   3.377   0.567
  877TIP3    H2 2596   0.908   3.418   0.444
  878TIP3   OH2 2597   2.093   2.898   1.331
  878TIP3    H1 2598   2.125   2.986   1.360
  878TIP3    H2 2599   2.060   2.865   1.417
  879TIP3   OH2 2600   1.932   2.730   0.576
  879TIP3    H1 2601   1.933   2.753   0.482
  879TIP3    H2 2602   1.970   2.811   0.617
  880TIP3   OH2 2603   1.429   3.842   0.261
  880TIP3    H1 2604   1.343   3.867   0.301
  880TIP3    H2 2605   1.429   3.898   0.182
  881TIP3   OH2 2606   1.621   2.909   0.678
  881TIP3    H1 2607   1.677   2.986   0.655
  881TIP3    H2 2608   1.626   2.910   0.776
  882TIP3   OH2 2609   1.896   3.216   1.485
  882TIP3    H1 2610   1.895   3.293   1.546
  882TIP3    H2 2611   1.951   3.156   1.537
  883TIP3   OH2 2612   1.766   2.643   0.789
  883TIP3    H1 2613   1.723   2.722   0.827
  883TIP3    H2 2614   1.814   2.681   0.713
  884TIP3   OH2 2615   1.171   3.907   0.337
  884TIP3    H1 2616   1.146   3.978   0.274
  884TIP3    H2 2617   1.156   3.952   0.423
  885TIP3   OH2 2618   2.511   3.119   1.467
  885TIP3    H1 2619   2.414   3.116   1.454
  885TIP3    H2 2620   2.545   3.134   1.377
  886TIP3   OH2 2621   2.171   3.317   0.844
  886TIP3    H1 2622   2.095   3.261   0.863
  886TIP3    H2 2623   2.243   3.275   0.895
  887TIP3   OH2 2624   0.896   3.562   0.336
  887TIP3    H1 2625   0.952   3.637   0.360
  887TIP3    H2 2626   0.932   3.543   0.248
  888TIP3   OH2 2627   2.141   4.280   0.792
  888TIP3    H1 2628   2.098   4.328   0.717
  888TIP3    H2 2629   2.235   4.300   0.772
  889TIP3   OH2 2630   1.220   2.551   1.319
  889TIP3    H1 2631   1.189   2.495   1.245
  889TIP3    H2 2632   1.219   2.486   1.393
  890TIP3   OH2 2633   0.727   3.760   0.684
  890TIP3    H1 2634   0.707   3.798   0.771
  890TIP3    H2 2635   0.787   3.825   0.646
  891TIP3   OH2 2636   1.405   4.259   1.812
  891TIP3    H1 2637   1.496   4.224   1.817
  891TIP3    H2 2638   1.368   4.200   1.744
  892TIP3   OH2 2639   1.376   3.842  -0.034
  892TIP3    H1 2640   1.303   3.779  -0.018
  892TIP3    H2 2641   1.441   3.783  -0.076
  893TIP3   OH2 2642   2.036   4.171   1.561
  893TIP3    H1 2643   2.056   4.089   1.610
  893TIP3    H2 2644   2.117   4.223   1.582
  894TIP3   OH2 2645   1.829   3.892  -0.125
  894TIP3    H1 2646   1.828   3.810  -0.072
  894TIP3    H2 2647   1.920   3.891  -0.160
  895TIP3   OH2 2648   1.044   3.714   1.975
  895TIP3    H1 2649   1.059   3.618   1.983
  895TIP3    H2 2650   0.957   3.717   1.930
  896TIP3   OH2 2651   1.642   3.793   1.751
  896TIP3    H1 2652   1.614   3.822   1.662
  896TIP3    H2 2653   1.681   3.705   1.735
  897TIP3   OH2 2654   1.462   3.538   0.004
  897TIP3    H1 2655   1.507   3.567   0.086
  897TIP3    H2 2656   1.529   3.483  -0.037
  898TIP3   OH2 2657   2.125   3.799   1.302
  898TIP3    H1 2658   2.216   3.826   1.322
  898TIP3    H2 2659   2.077   3.867   1.353
  899TIP3   OH2 2660   1.164   3.447   1.959
  899TIP3    H1 2661   1.246   3.402   1.934
  899TIP3    H2 2662   1.190   3.483   2.047
  900TIP3   OH2 2663   1.286   3.256   0.423
  900TIP3    H1 2664   1.215   3.240   0.487
  900TIP3    H2 2665   1.268   3.189   0.356
  901TIP3   OH2 2666   1.499   3.329   1.613
  901TIP3    H1 2667   1.422   3.390   1.616
  901TIP3    H2 2668   1.551   3.366   1.538
  902TIP3   OH2 2669   2.005   3.734   1.731
  902TIP3    H1 2670   2.088   3.780   1.705
  902TIP3    H2 2671   2.032   3.682   1.808
  903TIP3   OH2 2672   2.144   3.402  -0.116
  903TIP3    H1 2673   2.156   3.371  -0.206
  903TIP3    H2 2674   2.149   3.498  -0.126
  904TIP3   OH2 2675   1.624   3.123   1.741
  904TIP3    H1 2676   1.622   3.045   1.682
  904TIP3    H2 2677   1.578   3.191   1.686
  905TIP3   OH2 2678   1.627   2.903   1.550
  905TIP3    H1 2679   1.651   2.951   1.469
  905TIP3    H2 2680   1.532   2.883   1.534
  906TIP3   OH2 2681   1.652   3.435   1.418
  906TIP3    H1 2682   1.738   3.465   1.385
  906TIP3    H2 2683   1.592   3.501   1.378
  907TIP3   OH2 2684   2.227   3.407   1.799
  907TIP3    H1 2685   2.288   3.336   1.825
  907TIP3    H2 2686   2.282   3.467   1.748
  908TIP3   OH2 2687   2.284   3.614   1.522
  908TIP3    H1 2688   2.235   3.694   1.551
  908TIP3    H2 2689   2.365   3.660   1.492
  909TIP3   OH2 2690   1.501   3.226   1.977
  909TIP3    H1 2691   1.432   3.159   1.994
  909TIP3    H2 2692   1.533   3.199   1.889
  910TIP3   OH2 2693   1.751   2.660   1.620
  910TIP3    H1 2694   1.705   2.744   1.596
  910TIP3    H2 2695   1.677   2.596   1.611
  911TIP3   OH2 2696   1.887   3.167   1.836
  911TIP3    H1 2697   1.875   3.158   1.932
  911TIP3    H2 2698   1.795   3.148   1.806
  912TIP3   OH2 2699   2.112   3.111   1.678
  912TIP3    H1 2700   2.043   3.123   1.747
  912TIP3    H2 2701   2.190   3.090   1.733
  913TIP3   OH2 2702   2.341   3.063   1.834
  913TIP3    H1 2703   2.358   2.969   1.854
  913TIP3    H2 2704   2.338   3.103   1.924
  914TIP3   OH2 2705   1.336   3.007   2.032
  914TIP3    H1 2706   1.341   2.914   2.003
  914TIP3    H2 2707   1.373   3.000   2.122
  915TIP3   OH2 2708   1.846   2.679   1.878
  915TIP3    H1 2709   1.914   2.609   1.873
  915TIP3    H2 2710   1.804   2.670   1.790
  916TIP3   OH2 2711   1.915   2.894   2.038
  916TIP3    H1 2712   1.892   2.825   1.973
  916TIP3    H2 2713   1.837   2.954   2.033
  917TIP3   OH2 2714   1.153   4.118   0.161
  917TIP3    H1 2715   1.243   4.101   0.126
  917TIP3    H2 2716   1.120   4.182   0.095
  918TIP3   OH2 2717   0.585   4.087   0.755
  918TIP3    H1 2718   0.518   4.032   0.712
  918TIP3    H2 2719   0.601   4.039   0.839
  919TIP3   OH2 2720   0.690   3.946   0.962
  919TIP3    H1 2721   0.675   3.881   1.034
  919TIP3    H2 2722   0.733   4.016   1.015
  920TIP3   OH2 2723   2.396   4.371   0.756
  920TIP3    H1 2724   2.422   4.394   0.847
  920TIP3    H2 2725   2.469   4.405   0.703
  921TIP3   OH2 2726   2.426   4.385   1.037
  921TIP3    H1 2727   2.377   4.300   1.034
  921TIP3    H2 2728   2.497   4.360   1.098
  922TIP3   OH2 2729   2.290   3.575   0.226
  922TIP3    H1 2730   2.353   3.644   0.197
  922TIP3    H2 2731   2.335   3.541   0.307
  923TIP3   OH2 2732   2.417   3.443   0.431
  923TIP3    H1 2733   2.350   3.405   0.492
  923TIP3    H2 2734   2.484   3.480   0.492
  924TIP3   OH2 2735   2.474   3.841   0.863
  924TIP3    H1 2736   2.526   3.772   0.818
  924TIP3    H2 2737   2.470   3.912   0.796
  925TIP3   OH2 2738   2.295   4.140   1.055
  925TIP3    H1 2739   2.225   4.177   1.111
  925TIP3    H2 2740   2.244   4.093   0.986
  926TIP3   OH2 2741   2.347   3.352   0.078
  926TIP3    H1 2742   2.272   3.354   0.015
  926TIP3    H2 2743   2.324   3.429   0.135
  927TIP3   OH2 2744   2.232   3.026   0.031
  927TIP3    H1 2745   2.165   3.062  -0.028
  927TIP3    H2 2746   2.206   2.931   0.033
  928TIP3   OH2 2747   2.228   3.306   0.577
  928TIP3    H1 2748   2.236   3.210   0.569
  928TIP3    H2 2749   2.212   3.319   0.673
  929TIP3   OH2 2750   0.852   3.376   1.325
  929TIP3    H1 2751   0.849   3.342   1.233
  929TIP3    H2 2752   0.949   3.377   1.341
  930TIP3   OH2 2753   2.519   3.723   1.435
  930TIP3    H1 2754   2.598   3.666   1.424
  930TIP3    H2 2755   2.539   3.800   1.380
  931TIP3   OH2 2756   2.706   3.525   1.435
  931TIP3    H1 2757   2.632   3.481   1.483
  931TIP3    H2 2758   2.778   3.461   1.455
  932TIP3   OH2 2759   2.160   2.766   0.052
  932TIP3    H1 2760   2.249   2.729   0.070
  932TIP3    H2 2761   2.104   2.717   0.112
  933TIP3   OH2 2762   2.227   3.019   0.471
  933TIP3    H1 2763   2.267   2.930   0.481
  933TIP3    H2 2764   2.283   3.056   0.400
  934TIP3   OH2 2765   2.382   3.187   0.970
  934TIP3    H1 2766   2.468   3.210   0.926
  934TIP3    H2 2767   2.398   3.232   1.056
  935TIP3   OH2 2768   2.452   3.335   1.197
  935TIP3    H1 2769   2.375   3.370   1.247
  935TIP3    H2 2770   2.486   3.417   1.155
  936TIP3   OH2 2771   1.070   3.055   1.989
  936TIP3    H1 2772   1.167   3.055   2.001
  936TIP3    H2 2773   1.047   2.971   2.034
  937TIP3   OH2 2774   2.906   2.928   1.754
  937TIP3    H1 2775   2.969   2.866   1.712
  937TIP3    H2 2776   2.874   2.980   1.677
  938TIP3   OH2 2777   2.330   2.766   0.509
  938TIP3    H1 2778   2.383   2.750   0.591
  938TIP3    H2 2779   2.269   2.690   0.511
  939TIP3   OH2 2780   1.028   2.753   1.340
  939TIP3    H1 2781   1.090   2.677   1.340
  939TIP3    H2 2782   1.091   2.827   1.334
  940TIP3   OH2 2783   0.835   3.022   1.401
  940TIP3    H1 2784   0.885   3.026   1.317
  940TIP3    H2 2785   0.861   3.105   1.444
  941TIP3   OH2 2786   2.773   3.064   1.560
  941TIP3    H1 2787   2.693   3.109   1.594
  941TIP3    H2 2788   2.732   2.997   1.502
  942TIP3   OH2 2789   2.422   2.699   0.131
  942TIP3    H1 2790   2.484   2.648   0.078
  942TIP3    H2 2791   2.473   2.782   0.144
  943TIP3   OH2 2792   1.980   4.238   0.411
  943TIP3    H1 2793   2.033   4.229   0.329
  943TIP3    H2 2794   2.034   4.300   0.464
  944TIP3   OH2 2795   1.044   2.606   1.718
  944TIP3    H1 2796   0.993   2.608   1.800
  944TIP3    H2 2797   0.980   2.646   1.655
  945TIP3   OH2 2798   1.075   4.033   1.782
  945TIP3    H1 2799   0.978   4.028   1.766
  945TIP3    H2 2800   1.077   4.044   1.878
  946TIP3   OH2 2801   1.260   4.073   1.338
  946TIP3    H1 2802   1.213   4.151   1.302
  946TIP3    H2 2803   1.347   4.087   1.296
  947TIP3   OH2 2804   1.700   4.316   1.480
  947TIP3    H1 2805   1.742   4.311   1.568
  947TIP3    H2 2806   1.767   4.368   1.430
  948TIP3   OH2 2807   1.880   4.471   1.340
  948TIP3    H1 2808   1.951   4.415   1.304
  948TIP3    H2 2809   1.931   4.527   1.402
  949TIP3   OH2 2810   2.679   2.825   1.440
  949TIP3    H1 2811   2.587   2.812   1.414
  949TIP3    H2 2812   2.715   2.734   1.431
  950TIP3   OH2 2813   0.934   4.331   1.366
  950TIP3    H1 2814   0.841   4.360   1.348
  950TIP3    H2 2815   0.951   4.380   1.448
  951TIP3   OH2 2816   1.169   4.308   1.226
  951TIP3    H1 2817   1.082   4.319   1.270
  951TIP3    H2 2818   1.151   4.341   1.136
  952TIP3   OH2 2819   1.595   4.335   1.023
  952TIP3    H1 2820   1.522   4.355   0.961
  952TIP3    H2 2821   1.606   4.421   1.068
  953TIP3   OH2 2822   1.864   4.271   1.069
  953TIP3    H1 2823   1.771   4.292   1.051
  953TIP3    H2 2824   1.910   4.349   1.033
  954TIP3   OH2 2825   2.068   4.463   0.987
  954TIP3    H1 2826   2.057   4.547   0.937
  954TIP3    H2 2827   2.097   4.401   0.916
  955TIP3   OH2 2828   0.849   4.119   1.109
  955TIP3    H1 2829   0.871   4.093   1.201
  955TIP3    H2 2830   0.925   4.077   1.062
  956TIP3   OH2 2831   1.046   3.994   0.968
  956TIP3    H1 2832   1.058   3.910   1.018
  956TIP3    H2 2833   1.138   4.030   0.969
  957TIP3   OH2 2834   1.310   4.085   0.978
  957TIP3    H1 2835   1.339   3.992   0.971
  957TIP3    H2 2836   1.359   4.110   1.059
  958TIP3   OH2 2837   2.404   2.626   0.966
  958TIP3    H1 2838   2.442   2.670   0.886
  958TIP3    H2 2839   2.310   2.643   0.956
  959TIP3   OH2 2840   2.493   2.722   0.729
  959TIP3    H1 2841   2.566   2.667   0.692
  959TIP3    H2 2842   2.533   2.811   0.711
  960TIP3   OH2 2843   1.553   2.513   0.943
  960TIP3    H1 2844   1.622   2.547   0.884
  960TIP3    H2 2845   1.597   2.514   1.029
  961TIP3   OH2 2846   2.110   2.654   1.009
  961TIP3    H1 2847   2.088   2.661   0.914
  961TIP3    H2 2848   2.101   2.556   1.022
  962TIP3   OH2 2849   2.144   2.550   0.501
  962TIP3    H1 2850   2.060   2.591   0.531
  962TIP3    H2 2851   2.134   2.460   0.537
  963TIP3   OH2 2852   1.499   2.661   0.628
  963TIP3    H1 2853   1.559   2.588   0.605
  963TIP3    H2 2854   1.559   2.738   0.634
  964TIP3   OH2 2855   1.411   4.084   0.081
  964TIP3    H1 2856   1.502   4.105   0.048
  964TIP3    H2 2857   1.392   4.007   0.022
  965TIP3   OH2 2858   2.127   4.201   0.179
  965TIP3    H1 2859   2.123   4.103   0.172
  965TIP3    H2 2860   2.077   4.228   0.100
  966TIP3   OH2 2861   1.340   2.731   1.959
  966TIP3    H1 2862   1.302   2.662   2.016
  966TIP3    H2 2863   1.433   2.731   1.991
  967TIP3   OH2 2864   1.589   2.723   2.084
  967TIP3    H1 2865   1.676   2.710   2.044
  967TIP3    H2 2866   1.587   2.651   2.149
  968TIP3   OH2 2867   2.415   2.793   1.871
  968TIP3    H1 2868   2.430   2.764   1.963
  968TIP3    H2 2869   2.505   2.790   1.834
  969TIP3   OH2 2870   2.351   4.348   1.357
  969TIP3    H1 2871   2.271   4.314   1.311
  969TIP3    H2 2872   2.327   4.442   1.369
  970TIP3   OH2 2873   3.605   3.726   0.144
  970TIP3    H1 2874   3.574   3.815   0.122
  970TIP3    H2 2875   3.536   3.671   0.104
  971TIP3   OH2 2876   3.622   3.721   0.514
  971TIP3    H1 2877   3.653   3.693   0.602
  971TIP3    H2 2878   3.578   3.641   0.481
  972TIP3   OH2 2879   2.913   3.608   0.877
  972TIP3    H1 2880   2.942   3.539   0.939
  972TIP3    H2 2881   2.989   3.667   0.877
  973TIP3   OH2 2882   3.835   4.035   0.209
  973TIP3    H1 2883   3.835   3.959   0.268
  973TIP3    H2 2884   3.868   4.106   0.266
  974TIP3   OH2 2885   2.887   4.020   0.598
  974TIP3    H1 2886   2.881   3.922   0.599
  974TIP3    H2 2887   2.984   4.031   0.586
  975TIP3   OH2 2888   2.595   3.217   0.381
  975TIP3    H1 2889   2.554   3.302   0.404
  975TIP3    H2 2890   2.520   3.173   0.336
  976TIP3   OH2 2891   2.651   3.510   0.560
  976TIP3    H1 2892   2.702   3.433   0.593
  976TIP3    H2 2893   2.717   3.558   0.508
  977TIP3   OH2 2894   3.577   4.492   0.246
  977TIP3    H1 2895   3.604   4.413   0.196
  977TIP3    H2 2896   3.480   4.491   0.230
  978TIP3   OH2 2897   3.414   3.943   0.559
  978TIP3    H1 2898   3.457   3.868   0.516
  978TIP3    H2 2899   3.495   3.991   0.588
  979TIP3   OH2 2900   4.430   3.264   0.562
  979TIP3    H1 2901   4.461   3.346   0.607
  979TIP3    H2 2902   4.449   3.286   0.469
  980TIP3   OH2 2903   3.827   3.442   0.590
  980TIP3    H1 2904   3.869   3.356   0.610
  980TIP3    H2 2905   3.795   3.427   0.499
  981TIP3   OH2 2906   3.171   3.102   0.554
  981TIP3    H1 2907   3.151   3.176   0.493
  981TIP3    H2 2908   3.121   3.030   0.511
  982TIP3   OH2 2909   3.853   3.188   0.201
  982TIP3    H1 2910   3.925   3.172   0.266
  982TIP3    H2 2911   3.908   3.222   0.127
  983TIP3   OH2 2912   2.798   3.304   0.664
  983TIP3    H1 2913   2.882   3.289   0.713
  983TIP3    H2 2914   2.816   3.250   0.584
  984TIP3   OH2 2915   3.239   3.503   0.460
  984TIP3    H1 2916   3.334   3.479   0.471
  984TIP3    H2 2917   3.201   3.419   0.427
  985TIP3   OH2 2918   4.503   3.473   0.728
  985TIP3    H1 2919   4.418   3.518   0.711
  985TIP3    H2 2920   4.524   3.507   0.817
  986TIP3   OH2 2921   3.162   3.087   0.990
  986TIP3    H1 2922   3.104   3.126   0.923
  986TIP3    H2 2923   3.109   3.104   1.071
  987TIP3   OH2 2924   3.488   3.942  -0.038
  987TIP3    H1 2925   3.401   3.898  -0.038
  987TIP3    H2 2926   3.462   4.031  -0.005
  988TIP3   OH2 2927   3.269   3.864   0.781
  988TIP3    H1 2928   3.210   3.934   0.817
  988TIP3    H2 2929   3.310   3.910   0.705
  989TIP3   OH2 2930   4.070   3.199   0.363
  989TIP3    H1 2931   4.042   3.165   0.449
  989TIP3    H2 2932   4.115   3.283   0.389
  990TIP3   OH2 2933   3.034   3.202   0.773
  990TIP3    H1 2934   3.095   3.275   0.798
  990TIP3    H2 2935   3.085   3.163   0.699
  991TIP3   OH2 2936   3.100   4.061   0.883
  991TIP3    H1 2937   3.075   4.148   0.845
  991TIP3    H2 2938   3.020   4.044   0.937
  992TIP3   OH2 2939   2.487   3.748   0.121
  992TIP3    H1 2940   2.448   3.776   0.036
  992TIP3    H2 2941   2.520   3.833   0.156
  993TIP3   OH2 2942   3.935   4.268   0.359
  993TIP3    H1 2943   3.851   4.253   0.409
  993TIP3    H2 2944   3.915   4.351   0.314
  994TIP3   OH2 2945   4.223   3.158   0.722
  994TIP3    H1 2946   4.136   3.188   0.690
  994TIP3    H2 2947   4.284   3.194   0.655
  995TIP3   OH2 2948   3.513   2.802   0.707
  995TIP3    H1 2949   3.496   2.708   0.725
  995TIP3    H2 2950   3.437   2.843   0.754
  996TIP3   OH2 2951   3.631   4.311   0.035
  996TIP3    H1 2952   3.682   4.235  -0.001
  996TIP3    H2 2953   3.677   4.387  -0.008
  997TIP3   OH2 2954   3.767   4.079  -0.046
  997TIP3    H1 2955   3.720   4.000  -0.075
  997TIP3    H2 2956   3.783   4.060   0.049
  998TIP3   OH2 2957   4.155   4.174   0.702
  998TIP3    H1 2958   4.140   4.096   0.645
  998TIP3    H2 2959   4.136   4.248   0.641
  999TIP3   OH2 2960   3.471   3.562  -0.046
  999TIP3    H1 2961   3.383   3.607  -0.051
  999TIP3    H2 2962   3.517   3.603  -0.120
 1000TIP3   OH2 2963   4.348   3.813   0.553
 1000TIP3    H1 2964   4.262   3.862   0.559
 1000TIP3    H2 2965   4.378   3.843   0.464
 1001TIP3   OH2 2966   3.787   3.639  -0.048
 1001TIP3    H1 2967   3.733   3.673   0.026
 1001TIP3    H2 2968   3.877   3.641  -0.010
 1002TIP3   OH2 2969   4.029   3.688   0.851
 1002TIP3    H1 2970   4.027   3.772   0.901
 1002TIP3    H2 2971   3.942   3.693   0.805
 1003TIP3   OH2 2972   3.025   3.645   0.352
 1003TIP3    H1 2973   2.989   3.588   0.281
 1003TIP3    H2 2974   3.104   3.595   0.381
 1004TIP3   OH2 2975   3.153   4.044   0.502
 1004TIP3    H1 2976   3.136   4.027   0.408
 1004TIP3    H2 2977   3.244   4.012   0.514
 1005TIP3   OH2 2978   3.162   3.621   0.703
 1005TIP3    H1 2979   3.196   3.596   0.615
 1005TIP3    H2 2980   3.206   3.707   0.720
 1006TIP3   OH2 2981   3.707   4.253   0.492
 1006TIP3    H1 2982   3.672   4.334   0.533
 1006TIP3    H2 2983   3.675   4.182   0.552
 1007TIP3   OH2 2984   3.304   4.176   1.029
 1007TIP3    H1 2985   3.241   4.237   1.075
 1007TIP3    H2 2986   3.240   4.123   0.977
 1008TIP3   OH2 2987   3.059   3.727   1.134
 1008TIP3    H1 2988   3.064   3.817   1.172
 1008TIP3    H2 2989   2.964   3.708   1.151
 1009TIP3   OH2 2990   3.385   4.194   0.033
 1009TIP3    H1 2991   3.469   4.244   0.039
 1009TIP3    H2 2992   3.322   4.259   0.068
 1010TIP3   OH2 2993   3.096   4.340   1.117
 1010TIP3    H1 2994   3.060   4.345   1.026
 1010TIP3    H2 2995   3.015   4.319   1.169
 1011TIP3   OH2 2996   4.138   2.728  -0.190
 1011TIP3    H1 2997   4.059   2.760  -0.141
 1011TIP3    H2 2998   4.179   2.813  -0.218
 1012TIP3   OH2 2999   2.897   3.487   0.148
 1012TIP3    H1 3000   2.827   3.536   0.099
 1012TIP3    H2 3001   2.854   3.403   0.165
 1013TIP3   OH2 3002   2.676   3.878   1.066
 1013TIP3    H1 3003   2.604   3.858   1.002
 1013TIP3    H2 3004   2.712   3.789   1.085
 1014TIP3   OH2 3005   2.531   4.070   0.688
 1014TIP3    H1 3006   2.628   4.063   0.682
 1014TIP3    H2 3007   2.522   4.144   0.751
 1015TIP3   OH2 3008   4.393   4.523   0.752
 1015TIP3    H1 3009   4.392   4.427   0.769
 1015TIP3    H2 3010   4.310   4.550   0.797
 1016TIP3   OH2 3011   3.499   4.303   0.887
 1016TIP3    H1 3012   3.494   4.396   0.918
 1016TIP3    H2 3013   3.427   4.263   0.940
 1017TIP3   OH2 3014   2.697   4.283   0.224
 1017TIP3    H1 3015   2.746   4.275   0.309
 1017TIP3    H2 3016   2.652   4.197   0.222
 1018TIP3   OH2 3017   4.282   3.649   1.027
 1018TIP3    H1 3018   4.197   3.658   0.981
 1018TIP3    H2 3019   4.298   3.553   1.019
 1019TIP3   OH2 3020   2.879   4.060   1.044
 1019TIP3    H1 3021   2.927   4.045   1.128
 1019TIP3    H2 3022   2.803   3.998   1.054
 1020TIP3   OH2 3023   3.278   2.881   0.838
 1020TIP3    H1 3024   3.189   2.852   0.807
 1020TIP3    H2 3025   3.252   2.962   0.887
 1021TIP3   OH2 3026   3.815   2.994   1.031
 1021TIP3    H1 3027   3.885   2.968   1.095
 1021TIP3    H2 3028   3.733   2.977   1.080
 1022TIP3   OH2 3029   4.045   3.426   0.947
 1022TIP3    H1 3030   3.995   3.424   1.032
 1022TIP3    H2 3031   4.025   3.514   0.912
 1023TIP3   OH2 3032   3.395   2.947  -0.216
 1023TIP3    H1 3033   3.371   2.954  -0.122
 1023TIP3    H2 3034   3.349   2.865  -0.239
 1024TIP3   OH2 3035   3.209   3.399   0.853
 1024TIP3    H1 3036   3.160   3.421   0.935
 1024TIP3    H2 3037   3.194   3.481   0.800
 1025TIP3   OH2 3038   3.095   3.285   0.371
 1025TIP3    H1 3039   3.002   3.261   0.388
 1025TIP3    H2 3040   3.107   3.244   0.282
 1026TIP3   OH2 3041   3.577   3.370   0.114
 1026TIP3    H1 3042   3.537   3.442   0.059
 1026TIP3    H2 3043   3.632   3.326   0.046
 1027TIP3   OH2 3044   3.759   3.642   1.178
 1027TIP3    H1 3045   3.738   3.571   1.242
 1027TIP3    H2 3046   3.852   3.659   1.201
 1028TIP3   OH2 3047   3.739   3.401   0.336
 1028TIP3    H1 3048   3.673   3.425   0.267
 1028TIP3    H2 3049   3.773   3.319   0.294
 1029TIP3   OH2 3050   3.030   3.425   1.062
 1029TIP3    H1 3051   3.055   3.494   1.126
 1029TIP3    H2 3052   3.023   3.346   1.117
 1030TIP3   OH2 3053   3.088   2.846  -0.209
 1030TIP3    H1 3054   3.067   2.881  -0.120
 1030TIP3    H2 3055   3.048   2.912  -0.267
 1031TIP3   OH2 3056   2.623   2.941   0.647
 1031TIP3    H1 3057   2.694   2.979   0.703
 1031TIP3    H2 3058   2.669   2.924   0.564
 1032TIP3   OH2 3059   2.578   2.929   0.161
 1032TIP3    H1 3060   2.634   2.963   0.087
 1032TIP3    H2 3061   2.525   3.009   0.178
 1033TIP3   OH2 3062   3.752   3.640   0.755
 1033TIP3    H1 3063   3.785   3.569   0.696
 1033TIP3    H2 3064   3.720   3.585   0.830
 1034TIP3   OH2 3065   3.427   3.098   0.426
 1034TIP3    H1 3066   3.346   3.102   0.480
 1034TIP3    H2 3067   3.496   3.102   0.494
 1035TIP3   OH2 3068   2.856   3.164   0.435
 1035TIP3    H1 3069   2.762   3.171   0.406
 1035TIP3    H2 3070   2.880   3.072   0.411
 1036TIP3   OH2 3071   3.123   3.156   0.134
 1036TIP3    H1 3072   3.215   3.175   0.109
 1036TIP3    H2 3073   3.072   3.174   0.052
 1037TIP3   OH2 3074   3.914   3.180   0.626
 1037TIP3    H1 3075   3.888   3.194   0.720
 1037TIP3    H2 3076   3.841   3.122   0.597
 1038TIP3   OH2 3077   2.958   3.169  -0.078
 1038TIP3    H1 3078   2.866   3.146  -0.098
 1038TIP3    H2 3079   2.990   3.206  -0.163
 1039TIP3   OH2 3080   4.090   4.871   0.858
 1039TIP3    H1 3081   4.089   4.894   0.764
 1039TIP3    H2 3082   4.171   4.917   0.888
 1040TIP3   OH2 3083   3.044   3.979   1.267
 1040TIP3    H1 3084   3.122   4.010   1.317
 1040TIP3    H2 3085   2.977   3.976   1.338
 1041TIP3   OH2 3086   3.501   3.433   0.525
 1041TIP3    H1 3087   3.580   3.401   0.477
 1041TIP3    H2 3088   3.509   3.389   0.612
 1042TIP3   OH2 3089   3.020   2.922   0.409
 1042TIP3    H1 3090   2.985   2.845   0.459
 1042TIP3    H2 3091   3.057   2.879   0.330
 1043TIP3   OH2 3092   3.480   3.335   0.816
 1043TIP3    H1 3093   3.390   3.372   0.829
 1043TIP3    H2 3094   3.536   3.398   0.865
 1044TIP3   OH2 3095   3.247   3.710  -0.062
 1044TIP3    H1 3096   3.168   3.667  -0.100
 1044TIP3    H2 3097   3.208   3.751   0.019
 1045TIP3   OH2 3098   4.112   3.953   0.542
 1045TIP3    H1 3099   4.134   4.007   0.463
 1045TIP3    H2 3100   4.028   3.910   0.514
 1046TIP3   OH2 3101   3.665   3.006  -0.184
 1046TIP3    H1 3102   3.575   2.983  -0.214
 1046TIP3    H2 3103   3.665   3.104  -0.186
 1047TIP3   OH2 3104   3.615   4.040   0.911
 1047TIP3    H1 3105   3.648   4.027   1.000
 1047TIP3    H2 3106   3.577   4.130   0.914
 1048TIP3   OH2 3107   3.731   3.260  -0.082
 1048TIP3    H1 3108   3.819   3.238  -0.049
 1048TIP3    H2 3109   3.755   3.333  -0.143
 1049TIP3   OH2 3110   2.906   3.739   0.584
 1049TIP3    H1 3111   2.947   3.714   0.499
 1049TIP3    H2 3112   2.959   3.688   0.647
 1050TIP3   OH2 3113   2.796   3.661   1.199
 1050TIP3    H1 3114   2.811   3.651   1.295
 1050TIP3    H2 3115   2.721   3.600   1.185
 1051TIP3   OH2 3116   3.520   3.782   1.217
 1051TIP3    H1 3117   3.458   3.721   1.175
 1051TIP3    H2 3118   3.606   3.744   1.188
 1052TIP3   OH2 3119   3.777   4.299   0.809
 1052TIP3    H1 3120   3.680   4.299   0.820
 1052TIP3    H2 3121   3.804   4.353   0.886
 1053TIP3   OH2 3122   4.405   4.234   0.791
 1053TIP3    H1 3123   4.308   4.227   0.783
 1053TIP3    H2 3124   4.432   4.203   0.701
 1054TIP3   OH2 3125   3.882   3.823   0.452
 1054TIP3    H1 3126   3.788   3.799   0.468
 1054TIP3    H2 3127   3.914   3.742   0.409
 1055TIP3   OH2 3128   3.015   4.053   0.219
 1055TIP3    H1 3129   3.012   4.129   0.157
 1055TIP3    H2 3130   2.923   4.025   0.218
 1056TIP3   OH2 3131   2.578   3.354  -0.080
 1056TIP3    H1 3132   2.621   3.440  -0.061
 1056TIP3    H2 3133   2.499   3.357  -0.022
 1057TIP3   OH2 3134   3.150   3.817   0.167
 1057TIP3    H1 3135   3.109   3.905   0.178
 1057TIP3    H2 3136   3.106   3.766   0.237
 1058TIP3   OH2 3137   3.282   4.389   0.679
 1058TIP3    H1 3138   3.325   4.460   0.627
 1058TIP3    H2 3139   3.359   4.351   0.725
 1059TIP3   OH2 3140   2.925   4.279   0.059
 1059TIP3    H1 3141   2.843   4.295   0.110
 1059TIP3    H2 3142   2.969   4.366   0.066
 1060TIP3   OH2 3143   3.662   4.022   0.643
 1060TIP3    H1 3144   3.652   4.021   0.741
 1060TIP3    H2 3145   3.743   3.970   0.632
 1061TIP3   OH2 3146   3.917   4.555   0.687
 1061TIP3    H1 3147   3.834   4.502   0.684
 1061TIP3    H2 3148   3.897   4.623   0.618
 1062TIP3   OH2 3149   3.003   3.166   1.207
 1062TIP3    H1 3150   2.907   3.167   1.225
 1062TIP3    H2 3151   3.036   3.115   1.282
 1063TIP3   OH2 3152   2.718   4.251   0.837
 1063TIP3    H1 3153   2.776   4.180   0.871
 1063TIP3    H2 3154   2.740   4.323   0.897
 1064TIP3   OH2 3155   2.913   3.916  -0.133
 1064TIP3    H1 3156   2.990   3.878  -0.179
 1064TIP3    H2 3157   2.918   4.010  -0.157
 1065TIP3   OH2 3158   2.687   3.597   0.004
 1065TIP3    H1 3159   2.620   3.644   0.056
 1065TIP3    H2 3160   2.710   3.665  -0.062
 1066TIP3   OH2 3161   3.847   3.228   0.886
 1066TIP3    H1 3162   3.922   3.273   0.929
 1066TIP3    H2 3163   3.833   3.150   0.944
 1067TIP3   OH2 3164   3.724   2.968   0.076
 1067TIP3    H1 3165   3.702   2.985  -0.018
 1067TIP3    H2 3166   3.753   3.056   0.107
 1068TIP3   OH2 3167   3.403   3.164   0.158
 1068TIP3    H1 3168   3.463   3.241   0.145
 1068TIP3    H2 3169   3.410   3.153   0.256
 1069TIP3   OH2 3170   3.678   3.480   0.963
 1069TIP3    H1 3171   3.702   3.535   1.041
 1069TIP3    H2 3172   3.731   3.399   0.978
 1070TIP3   OH2 3173   3.542   2.880   0.262
 1070TIP3    H1 3174   3.533   2.960   0.317
 1070TIP3    H2 3175   3.611   2.912   0.198
 1071TIP3   OH2 3176   2.878   4.188  -0.203
 1071TIP3    H1 3177   2.918   4.260  -0.257
 1071TIP3    H2 3178   2.893   4.221  -0.112
 1072TIP3   OH2 3179   3.065   2.894   0.070
 1072TIP3    H1 3180   3.062   2.987   0.100
 1072TIP3    H2 3181   3.162   2.881   0.069
 1073TIP3   OH2 3182   4.312   3.383   0.948
 1073TIP3    H1 3183   4.214   3.381   0.954
 1073TIP3    H2 3184   4.325   3.339   0.863
 1074TIP3   OH2 3185   3.966   3.580   0.335
 1074TIP3    H1 3186   3.888   3.522   0.346
 1074TIP3    H2 3187   4.035   3.530   0.384
 1075TIP3   OH2 3188   2.679   3.804  -0.199
 1075TIP3    H1 3189   2.750   3.859  -0.157
 1075TIP3    H2 3190   2.724   3.781  -0.281
 1076TIP3   OH2 3191   2.640   3.092  -0.059
 1076TIP3    H1 3192   2.627   3.189  -0.067
 1076TIP3    H2 3193   2.577   3.060  -0.125
 1077TIP3   OH2 3194   3.927   4.546   0.277
 1077TIP3    H1 3195   3.874   4.531   0.197
 1077TIP3    H2 3196   4.015   4.568   0.241
 1078TIP3   OH2 3197   3.012   2.802   0.807
 1078TIP3    H1 3198   2.983   2.766   0.720
 1078TIP3    H2 3199   3.002   2.724   0.865
 1079TIP3   OH2 3200   2.550   4.014   0.187
 1079TIP3    H1 3201   2.489   4.047   0.254
 1079TIP3    H2 3202   2.516   4.059   0.106
 1080TIP3   OH2 3203   2.712   4.571   1.258
 1080TIP3    H1 3204   2.797   4.571   1.307
 1080TIP3    H2 3205   2.690   4.477   1.261
 1081TIP3   OH2 3206   3.187   4.523   1.305
 1081TIP3    H1 3207   3.282   4.503   1.310
 1081TIP3    H2 3208   3.159   4.460   1.235
 1082TIP3   OH2 3209   3.828   4.435   1.041
 1082TIP3    H1 3210   3.822   4.366   1.111
 1082TIP3    H2 3211   3.906   4.487   1.072
 1083TIP3   OH2 3212   2.843   3.972   1.459
 1083TIP3    H1 3213   2.850   3.878   1.479
 1083TIP3    H2 3214   2.754   3.977   1.419
 1084TIP3   OH2 3215   3.447   4.059   1.235
 1084TIP3    H1 3216   3.404   4.081   1.150
 1084TIP3    H2 3217   3.476   3.966   1.222
 1085TIP3   OH2 3218   3.939   4.069   0.844
 1085TIP3    H1 3219   4.015   4.112   0.801
 1085TIP3    H2 3220   3.870   4.137   0.829
 1086TIP3   OH2 3221   2.965   3.703   1.446
 1086TIP3    H1 3222   3.046   3.657   1.421
 1086TIP3    H2 3223   2.990   3.740   1.533
 1087TIP3   OH2 3224   3.047   3.512  -0.106
 1087TIP3    H1 3225   3.003   3.490  -0.021
 1087TIP3    H2 3226   3.041   3.429  -0.156
 1088TIP3   OH2 3227   3.295   3.587   1.105
 1088TIP3    H1 3228   3.216   3.646   1.105
 1088TIP3    H2 3229   3.347   3.623   1.029
 1089TIP3   OH2 3230   3.087   3.284  -0.291
 1089TIP3    H1 3231   3.087   3.230  -0.371
 1089TIP3    H2 3232   3.162   3.344  -0.309
 1090TIP3   OH2 3233   3.812   3.991   1.238
 1090TIP3    H1 3234   3.889   3.957   1.191
 1090TIP3    H2 3235   3.804   3.927   1.312
 1091TIP3   OH2 3236   3.419   3.379   1.228
 1091TIP3    H1 3237   3.419   3.301   1.168
 1091TIP3    H2 3238   3.375   3.447   1.172
 1092TIP3   OH2 3239   3.421   3.164   1.039
 1092TIP3    H1 3240   3.449   3.207   0.957
 1092TIP3    H2 3241   3.327   3.142   1.020
 1093TIP3   OH2 3242   3.443   3.697   0.911
 1093TIP3    H1 3243   3.529   3.718   0.874
 1093TIP3    H2 3244   3.385   3.762   0.865
 1094TIP3   OH2 3245   4.025   3.662   1.288
 1094TIP3    H1 3246   4.075   3.581   1.304
 1094TIP3    H2 3247   4.093   3.722   1.254
 1095TIP3   OH2 3248   4.068   3.918   1.027
 1095TIP3    H1 3249   4.010   3.974   0.970
 1095TIP3    H2 3250   4.156   3.941   0.989
 1096TIP3   OH2 3251   3.298   3.481   1.465
 1096TIP3    H1 3252   3.229   3.414   1.481
 1096TIP3    H2 3253   3.329   3.456   1.376
 1097TIP3   OH2 3254   3.552   2.924   1.110
 1097TIP3    H1 3255   3.502   3.006   1.086
 1097TIP3    H2 3256   3.483   2.855   1.099
 1098TIP3   OH2 3257   3.678   3.426   1.323
 1098TIP3    H1 3258   3.663   3.411   1.419
 1098TIP3    H2 3259   3.589   3.404   1.289
 1099TIP3   OH2 3260   3.914   3.376   1.177
 1099TIP3    H1 3261   3.841   3.380   1.242
 1099TIP3    H2 3262   3.990   3.349   1.232
 1100TIP3   OH2 3263   4.142   3.321   1.326
 1100TIP3    H1 3264   4.158   3.226   1.341
 1100TIP3    H2 3265   4.140   3.358   1.417
 1101TIP3   OH2 3266   3.132   3.263   1.520
 1101TIP3    H1 3267   3.139   3.170   1.490
 1101TIP3    H2 3268   3.171   3.256   1.610
 1102TIP3   OH2 3269   3.644   2.935   1.368
 1102TIP3    H1 3270   3.710   2.863   1.361
 1102TIP3    H2 3271   3.605   2.931   1.279
 1103TIP3   OH2 3272   3.712   3.150   1.526
 1103TIP3    H1 3273   3.691   3.079   1.462
 1103TIP3    H2 3274   3.634   3.208   1.519
 1104TIP3   OH2 3275   2.411   3.763  -0.158
 1104TIP3    H1 3276   2.504   3.795  -0.169
 1104TIP3    H2 3277   2.410   3.694  -0.225
 1105TIP3   OH2 3278   2.331   4.375   0.255
 1105TIP3    H1 3279   2.266   4.312   0.217
 1105TIP3    H2 3280   2.376   4.317   0.320
 1106TIP3   OH2 3281   2.462   4.220   0.442
 1106TIP3    H1 3282   2.452   4.150   0.509
 1106TIP3    H2 3283   2.517   4.283   0.494
 1107TIP3   OH2 3284   4.198   4.632   0.245
 1107TIP3    H1 3285   4.201   4.634   0.343
 1107TIP3    H2 3286   4.274   4.687   0.224
 1108TIP3   OH2 3287   4.218   4.638   0.521
 1108TIP3    H1 3288   4.172   4.551   0.530
 1108TIP3    H2 3289   4.298   4.620   0.573
 1109TIP3   OH2 3290   4.267   4.321   1.097
 1109TIP3    H1 3291   4.195   4.332   1.163
 1109TIP3    H2 3292   4.310   4.408   1.101
 1110TIP3   OH2 3293   4.262   4.096   0.361
 1110TIP3    H1 3294   4.312   4.024   0.319
 1110TIP3    H2 3295   4.267   4.166   0.294
 1111TIP3   OH2 3296   4.093   4.395   0.545
 1111TIP3    H1 3297   4.021   4.435   0.597
 1111TIP3    H2 3298   4.044   4.348   0.474
 1112TIP3   OH2 3299   4.033   3.544   0.071
 1112TIP3    H1 3300   4.007   3.451   0.074
 1112TIP3    H2 3301   4.013   3.573   0.162
 1113TIP3   OH2 3302   2.648   3.629   0.813
 1113TIP3    H1 3303   2.646   3.597   0.721
 1113TIP3    H2 3304   2.746   3.631   0.829
 1114TIP3   OH2 3305   4.316   3.985   0.923
 1114TIP3    H1 3306   4.386   3.917   0.911
 1114TIP3    H2 3307   4.340   4.052   0.857
 1115TIP3   OH2 3308   4.496   3.782   0.927
 1115TIP3    H1 3309   4.423   3.734   0.970
 1115TIP3    H2 3310   4.570   3.720   0.945
 1116TIP3   OH2 3311   4.005   3.265  -0.007
 1116TIP3    H1 3312   4.057   3.181  -0.003
 1116TIP3    H2 3313   4.042   3.307  -0.086
 1117TIP3   OH2 3314   4.173   3.439   0.459
 1117TIP3    H1 3315   4.260   3.464   0.418
 1117TIP3    H2 3316   4.187   3.478   0.547
 1118TIP3   OH2 3317   4.250   3.590   0.683
 1118TIP3    H1 3318   4.175   3.625   0.734
 1118TIP3    H2 3319   4.284   3.672   0.639
 1119TIP3   OH2 3320   2.867   3.306   1.467
 1119TIP3    H1 3321   2.964   3.307   1.483
 1119TIP3    H2 3322   2.843   3.224   1.515
 1120TIP3   OH2 3323   4.692   3.181   1.237
 1120TIP3    H1 3324   4.762   3.123   1.200
 1120TIP3    H2 3325   4.670   3.237   1.160
 1121TIP3   OH2 3326   4.119   3.021  -0.007
 1121TIP3    H1 3327   4.177   3.006   0.070
 1121TIP3    H2 3328   4.059   2.944  -0.001
 1122TIP3   OH2 3329   2.827   3.011   0.821
 1122TIP3    H1 3330   2.890   2.936   0.826
 1122TIP3    H2 3331   2.889   3.085   0.810
 1123TIP3   OH2 3332   2.627   3.280   0.888
 1123TIP3    H1 3333   2.680   3.284   0.806
 1123TIP3    H2 3334   2.646   3.366   0.929
 1124TIP3   OH2 3335   4.571   3.323   1.038
 1124TIP3    H1 3336   4.487   3.367   1.064
 1124TIP3    H2 3337   4.535   3.248   0.986
 1125TIP3   OH2 3338   2.618   2.784   0.386
 1125TIP3    H1 3339   2.526   2.782   0.418
 1125TIP3    H2 3340   2.611   2.845   0.310
 1126TIP3   OH2 3341   2.837   2.863   1.203
 1126TIP3    H1 3342   2.788   2.865   1.287
 1126TIP3    H2 3343   2.771   2.902   1.142
 1127TIP3   OH2 3344   2.875   4.298   1.281
 1127TIP3    H1 3345   2.782   4.275   1.265
 1127TIP3    H2 3346   2.885   4.276   1.374
 1128TIP3   OH2 3347   3.057   4.333   0.829
 1128TIP3    H1 3348   3.010   4.409   0.789
 1128TIP3    H2 3349   3.143   4.344   0.782
 1129TIP3   OH2 3350   3.494   4.571   0.966
 1129TIP3    H1 3351   3.536   4.569   1.054
 1129TIP3    H2 3352   3.558   4.627   0.916
 1130TIP3   OH2 3353   3.669   4.732   0.830
 1130TIP3    H1 3354   3.733   4.678   0.782
 1130TIP3    H2 3355   3.728   4.784   0.889
 1131TIP3   OH2 3356   4.473   3.084   0.925
 1131TIP3    H1 3357   4.383   3.074   0.890
 1131TIP3    H2 3358   4.507   2.992   0.917
 1132TIP3   OH2 3359   2.728   4.588   0.851
 1132TIP3    H1 3360   2.637   4.621   0.832
 1132TIP3    H2 3361   2.742   4.627   0.939
 1133TIP3   OH2 3362   2.967   4.568   0.716
 1133TIP3    H1 3363   2.879   4.578   0.759
 1133TIP3    H2 3364   2.946   4.592   0.624
 1134TIP3   OH2 3365   3.396   4.585   0.528
 1134TIP3    H1 3366   3.318   4.603   0.471
 1134TIP3    H2 3367   3.411   4.674   0.565
 1135TIP3   OH2 3368   3.663   4.527   0.568
 1135TIP3    H1 3369   3.567   4.534   0.550
 1135TIP3    H2 3370   3.699   4.572   0.490
 1136TIP3   OH2 3371   3.884   4.733   0.475
 1136TIP3    H1 3372   3.858   4.810   0.420
 1136TIP3    H2 3373   3.899   4.664   0.406
 1137TIP3   OH2 3374   2.639   4.376   0.600
 1137TIP3    H1 3375   2.668   4.348   0.689
 1137TIP3    H2 3376   2.709   4.332   0.547
 1138TIP3   OH2 3377   2.828   4.245   0.459
 1138TIP3    H1 3378   2.844   4.161   0.508
 1138TIP3    H2 3379   2.919   4.282   0.459
 1139TIP3   OH2 3380   3.085   4.333   0.477
 1139TIP3    H1 3381   3.130   4.252   0.453
 1139TIP3    H2 3382   3.145   4.368   0.545
 1140TIP3   OH2 3383   3.680   3.001   0.550
 1140TIP3    H1 3384   3.636   2.929   0.598
 1140TIP3    H2 3385   3.754   2.954   0.505
 1141TIP3   OH2 3386   4.197   2.880   0.445
 1141TIP3    H1 3387   4.230   2.939   0.374
 1141TIP3    H2 3388   4.102   2.902   0.446
 1142TIP3   OH2 3389   4.290   2.989   0.208
 1142TIP3    H1 3390   4.362   2.931   0.176
 1142TIP3    H2 3391   4.328   3.077   0.190
 1143TIP3   OH2 3392   2.924   2.706   0.559
 1143TIP3    H1 3393   2.831   2.675   0.565
 1143TIP3    H2 3394   2.971   2.620   0.555
 1144TIP3   OH2 3395   2.704   2.578   0.212
 1144TIP3    H1 3396   2.752   2.630   0.144
 1144TIP3    H2 3397   2.686   2.648   0.278
 1145TIP3   OH2 3398   3.374   2.737   0.444
 1145TIP3    H1 3399   3.427   2.786   0.378
 1145TIP3    H2 3400   3.400   2.781   0.526
 1146TIP3   OH2 3401   3.912   2.889   0.425
 1146TIP3    H1 3402   3.913   2.849   0.337
 1146TIP3    H2 3403   3.902   2.810   0.483
 1147TIP3   OH2 3404   3.943   2.811  -0.005
 1147TIP3    H1 3405   3.859   2.858   0.011
 1147TIP3    H2 3406   3.926   2.727   0.041
 1148TIP3   OH2 3407   2.423   4.146  -0.007
 1148TIP3    H1 3408   2.341   4.110  -0.044
 1148TIP3    H2 3409   2.419   4.237  -0.041
 1149TIP3   OH2 3410   2.841   2.721   0.030
 1149TIP3    H1 3411   2.854   2.697  -0.063
 1149TIP3    H2 3412   2.915   2.784   0.045
 1150TIP3   OH2 3413   3.345   2.917   0.063
 1150TIP3    H1 3414   3.403   2.870   0.125
 1150TIP3    H2 3415   3.364   3.009   0.092
 1151TIP3   OH2 3416   3.133   2.987   1.448
 1151TIP3    H1 3417   3.095   2.919   1.506
 1151TIP3    H2 3418   3.226   2.986   1.479
 1152TIP3   OH2 3419   3.382   2.985   1.570
 1152TIP3    H1 3420   3.469   2.962   1.532
 1152TIP3    H2 3421   3.371   2.915   1.637
 1153TIP3   OH2 3422   4.211   3.051   1.358
 1153TIP3    H1 3423   4.228   3.020   1.449
 1153TIP3    H2 3424   4.301   3.047   1.319
 1154TIP3   OH2 3425   4.145   4.600   0.848
 1154TIP3    H1 3426   4.065   4.571   0.799
 1154TIP3    H2 3427   4.124   4.695   0.860
 1155TIP3   OH2 3428   4.698   3.862   0.381
 1155TIP3    H1 3429   4.729   3.796   0.446
 1155TIP3    H2 3430   4.780   3.908   0.361
 1156TIP3   OH2 3431   4.483   3.775   0.065
 1156TIP3    H1 3432   4.473   3.681   0.089
 1156TIP3    H2 3433   4.404   3.792   0.009
 1157TIP3   OH2 3434   4.584   3.532   0.165
 1157TIP3    H1 3435   4.674   3.528   0.201
 1157TIP3    H2 3436   4.601   3.512   0.071
 1158TIP3   OH2 3437   4.956   3.344   0.479
 1158TIP3    H1 3438   4.896   3.381   0.412
 1158TIP3    H2 3439   4.905   3.360   0.561
 1159TIP3   OH2 3440   5.083   4.144   0.291
 1159TIP3    H1 3441   5.004   4.187   0.330
 1159TIP3    H2 3442   5.152   4.206   0.320
 1160TIP3   OH2 3443   4.837   3.451   0.248
 1160TIP3    H1 3444   4.888   3.528   0.283
 1160TIP3    H2 3445   4.901   3.417   0.183
 1161TIP3   OH2 3446   4.881   4.308   0.370
 1161TIP3    H1 3447   4.855   4.394   0.334
 1161TIP3    H2 3448   4.803   4.292   0.428
 1162TIP3   OH2 3449   5.309   3.038   0.209
 1162TIP3    H1 3450   5.281   2.947   0.231
 1162TIP3    H2 3451   5.233   3.089   0.243
 1163TIP3   OH2 3452   5.022   3.876   0.195
 1163TIP3    H1 3453   4.931   3.870   0.157
 1163TIP3    H2 3454   5.028   3.966   0.231
 1164TIP3   OH2 3455   5.077   4.421   0.531
 1164TIP3    H1 3456   5.021   4.486   0.579
 1164TIP3    H2 3457   5.008   4.373   0.482
 1165TIP3   OH2 3458   4.857   3.997   0.617
 1165TIP3    H1 3459   4.859   4.082   0.666
 1165TIP3    H2 3460   4.764   3.971   0.632
 1166TIP3   OH2 3461   4.886   4.602   0.611
 1166TIP3    H1 3462   4.849   4.605   0.520
 1166TIP3    H2 3463   4.806   4.581   0.664
 1167TIP3   OH2 3464   4.472   4.133   0.549
 1167TIP3    H1 3465   4.401   4.112   0.485
 1167TIP3    H2 3466   4.509   4.046   0.572
 1168TIP3   OH2 3467   4.346   4.321   0.201
 1168TIP3    H1 3468   4.435   4.353   0.226
 1168TIP3    H2 3469   4.293   4.387   0.246
 1169TIP3   OH2 3470   5.292   4.519   0.402
 1169TIP3    H1 3471   5.291   4.616   0.407
 1169TIP3    H2 3472   5.213   4.493   0.453
 1170TIP3   OH2 3473   6.059   3.896   0.564
 1170TIP3    H1 3474   6.025   3.873   0.475
 1170TIP3    H2 3475   6.085   3.810   0.600
 1171TIP3   OH2 3476   4.669   4.320   0.537
 1171TIP3    H1 3477   4.719   4.303   0.619
 1171TIP3    H2 3478   4.598   4.253   0.542
 1172TIP3   OH2 3479   5.074   3.140   0.329
 1172TIP3    H1 3480   4.983   3.111   0.305
 1172TIP3    H2 3481   5.051   3.220   0.381
 1173TIP3   OH2 3482   5.614   3.253   0.512
 1173TIP3    H1 3483   5.684   3.228   0.577
 1173TIP3    H2 3484   5.532   3.235   0.561
 1174TIP3   OH2 3485   5.853   3.636   0.470
 1174TIP3    H1 3486   5.805   3.644   0.556
 1174TIP3    H2 3487   5.802   3.699   0.414
 1175TIP3   OH2 3488   4.998   3.648   0.342
 1175TIP3    H1 3489   4.956   3.678   0.425
 1175TIP3    H2 3490   5.012   3.733   0.294
 1176TIP3   OH2 3491   5.555   3.901   0.665
 1176TIP3    H1 3492   5.535   3.827   0.726
 1176TIP3    H2 3493   5.650   3.913   0.684
 1177TIP3   OH2 3494   4.820   3.682   0.557
 1177TIP3    H1 3495   4.874   3.737   0.617
 1177TIP3    H2 3496   4.814   3.598   0.607
 1178TIP3   OH2 3497   4.433   3.207   0.112
 1178TIP3    H1 3498   4.478   3.247   0.189
 1178TIP3    H2 3499   4.509   3.175   0.063
 1179TIP3   OH2 3500   4.838   4.242   0.756
 1179TIP3    H1 3501   4.918   4.268   0.806
 1179TIP3    H2 3502   4.773   4.238   0.830
 1180TIP3   OH2 3503   5.270   3.572   0.321
 1180TIP3    H1 3504   5.185   3.620   0.323
 1180TIP3    H2 3505   5.332   3.638   0.359
 1181TIP3   OH2 3506   5.373   4.265   0.382
 1181TIP3    H1 3507   5.433   4.262   0.458
 1181TIP3    H2 3508   5.354   4.362   0.379
 1182TIP3   OH2 3509   4.591   3.923   0.687
 1182TIP3    H1 3510   4.611   3.910   0.782
 1182TIP3    H2 3511   4.522   3.855   0.673
 1183TIP3   OH2 3512   5.320   4.038   0.705
 1183TIP3    H1 3513   5.263   3.977   0.656
 1183TIP3    H2 3514   5.408   4.003   0.681
 1184TIP3   OH2 3515   4.796   3.424   0.692
 1184TIP3    H1 3516   4.700   3.427   0.708
 1184TIP3    H2 3517   4.828   3.374   0.769
 1185TIP3   OH2 3518   4.526   4.483   0.343
 1185TIP3    H1 3519   4.576   4.445   0.419
 1185TIP3    H2 3520   4.522   4.578   0.366
 1186TIP3   OH2 3521   5.609   3.514   0.418
 1186TIP3    H1 3522   5.702   3.534   0.434
 1186TIP3    H2 3523   5.604   3.421   0.448
 1187TIP3   OH2 3524   5.447   3.734   0.453
 1187TIP3    H1 3525   5.497   3.785   0.519
 1187TIP3    H2 3526   5.507   3.656   0.440
 1188TIP3   OH2 3527   6.118   3.599   0.442
 1188TIP3    H1 3528   6.023   3.605   0.466
 1188TIP3    H2 3529   6.124   3.665   0.372
 1189TIP3   OH2 3530   4.810   3.064   0.315
 1189TIP3    H1 3531   4.762   3.031   0.236
 1189TIP3    H2 3532   4.805   2.986   0.374
 1190TIP3   OH2 3533   4.508   4.826   0.752
 1190TIP3    H1 3534   4.594   4.825   0.799
 1190TIP3    H2 3535   4.489   4.731   0.746
 1191TIP3   OH2 3536   4.987   4.787   0.787
 1191TIP3    H1 3537   5.079   4.760   0.799
 1191TIP3    H2 3538   4.957   4.720   0.722
 1192TIP3   OH2 3539   5.634   4.698   0.541
 1192TIP3    H1 3540   5.616   4.620   0.597
 1192TIP3    H2 3541   5.708   4.740   0.587
 1193TIP3   OH2 3542   4.636   4.228   0.947
 1193TIP3    H1 3543   4.650   4.132   0.959
 1193TIP3    H2 3544   4.549   4.230   0.902
 1194TIP3   OH2 3545   5.244   4.314   0.726
 1194TIP3    H1 3546   5.202   4.333   0.640
 1194TIP3    H2 3547   5.278   4.223   0.714
 1195TIP3   OH2 3548   4.760   3.964   0.930
 1195TIP3    H1 3549   4.837   3.912   0.906
 1195TIP3    H2 3550   4.786   3.997   1.019
 1196TIP3   OH2 3551   5.071   3.829   0.591
 1196TIP3    H1 3552   5.005   3.901   0.596
 1196TIP3    H2 3553   5.136   3.867   0.527
 1197TIP3   OH2 3554   5.611   4.247   0.727
 1197TIP3    H1 3555   5.694   4.218   0.686
 1197TIP3    H2 3556   5.600   4.181   0.797
 1198TIP3   OH2 3557   5.212   3.632   0.719
 1198TIP3    H1 3558   5.219   3.553   0.661
 1198TIP3    H2 3559   5.167   3.697   0.660
 1199TIP3   OH2 3560   5.215   3.414   0.536
 1199TIP3    H1 3561   5.247   3.460   0.455
 1199TIP3    H2 3562   5.122   3.396   0.512
 1200TIP3   OH2 3563   5.236   3.945   0.420
 1200TIP3    H1 3564   5.327   3.922   0.394
 1200TIP3    H2 3565   5.210   4.015   0.357
 1201TIP3   OH2 3566   5.824   3.924   0.777
 1201TIP3    H1 3567   5.862   3.836   0.790
 1201TIP3    H2 3568   5.895   3.968   0.727
 1202TIP3   OH2 3569   5.884   4.197   0.532
 1202TIP3    H1 3570   5.841   4.260   0.470
 1202TIP3    H2 3571   5.952   4.157   0.476
 1203TIP3   OH2 3572   5.090   3.740   0.951
 1203TIP3    H1 3573   5.024   3.670   0.969
 1203TIP3    H2 3574   5.125   3.712   0.864
 1204TIP3   OH2 3575   5.352   3.180   0.596
 1204TIP3    H1 3576   5.301   3.262   0.575
 1204TIP3    H2 3577   5.283   3.111   0.584
 1205TIP3   OH2 3578   5.467   3.688   0.817
 1205TIP3    H1 3579   5.448   3.670   0.911
 1205TIP3    H2 3580   5.380   3.664   0.779
 1206TIP3   OH2 3581   5.711   3.640   0.699
 1206TIP3    H1 3582   5.629   3.642   0.752
 1206TIP3    H2 3583   5.777   3.605   0.761
 1207TIP3   OH2 3584   5.953   3.575   0.822
 1207TIP3    H1 3585   5.961   3.479   0.838
 1207TIP3    H2 3586   5.944   3.612   0.912
 1208TIP3   OH2 3587   4.931   3.519   1.007
 1208TIP3    H1 3588   4.937   3.427   0.976
 1208TIP3    H2 3589   4.971   3.511   1.096
 1209TIP3   OH2 3590   5.440   3.191   0.855
 1209TIP3    H1 3591   5.506   3.119   0.849
 1209TIP3    H2 3592   5.403   3.189   0.765
 1210TIP3   OH2 3593   5.509   3.409   1.010
 1210TIP3    H1 3594   5.488   3.336   0.947
 1210TIP3    H2 3595   5.429   3.465   1.004
 1211TIP3   OH2 3596   6.075   4.565   0.589
 1211TIP3    H1 3597   6.000   4.575   0.651
 1211TIP3    H2 3598   6.103   4.658   0.580
 1212TIP3   OH2 3599   4.443   3.899   0.308
 1212TIP3    H1 3600   4.454   3.861   0.219
 1212TIP3    H2 3601   4.537   3.896   0.338
 1213TIP3   OH2 3602   6.263   4.083   0.534
 1213TIP3    H1 3603   6.190   4.019   0.527
 1213TIP3    H2 3604   6.341   4.029   0.514
 1214TIP3   OH2 3605   4.666   3.573   0.968
 1214TIP3    H1 3606   4.763   3.568   0.978
 1214TIP3    H2 3607   4.642   3.486   1.007
 1215TIP3   OH2 3608   6.487   3.454   0.742
 1215TIP3    H1 3609   6.550   3.389   0.703
 1215TIP3    H2 3610   6.463   3.508   0.663
 1216TIP3   OH2 3611   4.618   3.266   0.308
 1216TIP3    H1 3612   4.682   3.193   0.324
 1216TIP3    H2 3613   4.679   3.340   0.290
 1217TIP3   OH2 3614   4.419   3.534   0.389
 1217TIP3    H1 3615   4.475   3.534   0.309
 1217TIP3    H2 3616   4.447   3.616   0.433
 1218TIP3   OH2 3617   6.376   3.603   0.547
 1218TIP3    H1 3618   6.293   3.638   0.586
 1218TIP3    H2 3619   6.338   3.538   0.485
 1219TIP3   OH2 3620   4.631   3.117   0.687
 1219TIP3    H1 3621   4.583   3.118   0.772
 1219TIP3    H2 3622   4.565   3.160   0.628
 1220TIP3   OH2 3623   4.669   4.555   0.769
 1220TIP3    H1 3624   4.575   4.532   0.754
 1220TIP3    H2 3625   4.681   4.531   0.862
 1221TIP3   OH2 3626   4.837   4.584   0.331
 1221TIP3    H1 3627   4.762   4.613   0.276
 1221TIP3    H2 3628   4.912   4.588   0.270
 1222TIP3   OH2 3629   5.267   4.857   0.477
 1222TIP3    H1 3630   5.307   4.833   0.564
 1222TIP3    H2 3631   5.333   4.816   0.416
 1223TIP3   OH2 3632   6.279   3.336   0.441
 1223TIP3    H1 3633   6.185   3.331   0.417
 1223TIP3    H2 3634   6.308   3.243   0.428
 1224TIP3   OH2 3635   4.508   4.808   0.395
 1224TIP3    H1 3636   4.460   4.869   0.338
 1224TIP3    H2 3637   4.550   4.872   0.456
 1225TIP3   OH2 3638   4.672   2.989   0.094
 1225TIP3    H1 3639   4.596   2.927   0.101
 1225TIP3    H2 3640   4.730   2.941   0.034
 1226TIP3   OH2 3641   4.930   3.242   0.934
 1226TIP3    H1 3642   4.892   3.174   0.993
 1226TIP3    H2 3643   5.023   3.242   0.965
 1227TIP3   OH2 3644   5.178   3.241   1.058
 1227TIP3    H1 3645   5.265   3.218   1.023
 1227TIP3    H2 3646   5.166   3.173   1.128
 1228TIP3   OH2 3647   6.005   3.303   0.849
 1228TIP3    H1 3648   6.021   3.274   0.942
 1228TIP3    H2 3649   6.097   3.303   0.814
 1229TIP3   OH2 3650   6.706   3.753   0.475
 1229TIP3    H1 3651   6.749   3.827   0.425
 1229TIP3    H2 3652   6.758   3.749   0.557
 1230TIP3   OH2 3653   6.475   3.884   0.540
 1230TIP3    H1 3654   6.557   3.844   0.505
 1230TIP3    H2 3655   6.443   3.811   0.596
 1231TIP3   OH2 3656   6.671   3.448   0.398
 1231TIP3    H1 3657   6.655   3.392   0.476
 1231TIP3    H2 3658   6.691   3.534   0.438
 1232TIP3   OH2 3659   0.469   4.548   1.221
 1232TIP3    H1 3660   0.509   4.635   1.238
 1232TIP3    H2 3661   0.474   4.543   1.123
 1233TIP3   OH2 3662   0.543   4.769   1.408
 1233TIP3    H1 3663   0.464   4.824   1.393
 1233TIP3    H2 3664   0.593   4.823   1.473
 1234TIP3   OH2 3665   0.272   4.460   1.387
 1234TIP3    H1 3666   0.191   4.500   1.351
 1234TIP3    H2 3667   0.339   4.492   1.322
 1235TIP3   OH2 3668   0.305   4.916   1.734
 1235TIP3    H1 3669   0.320   5.003   1.692
 1235TIP3    H2 3670   0.370   4.859   1.690
 1236TIP3   OH2 3671  -0.164   4.307   1.695
 1236TIP3    H1 3672  -0.110   4.276   1.769
 1236TIP3    H2 3673  -0.251   4.311   1.736
 1237TIP3   OH2 3674   0.071   4.726   1.600
 1237TIP3    H1 3675   0.037   4.705   1.690
 1237TIP3    H2 3676   0.013   4.800   1.577
 1238TIP3   OH2 3677  -0.147   4.931   1.897
 1238TIP3    H1 3678  -0.174   4.920   1.989
 1238TIP3    H2 3679  -0.053   4.956   1.908
 1239TIP3   OH2 3680  -0.032   4.475   1.503
 1239TIP3    H1 3681  -0.006   4.548   1.561
 1239TIP3    H2 3682  -0.059   4.406   1.566
 1240TIP3   OH2 3683   0.330   4.636   1.645
 1240TIP3    H1 3684   0.251   4.678   1.603
 1240TIP3    H2 3685   0.385   4.619   1.566
 1241TIP3   OH2 3686  -0.112   5.293   1.978
 1241TIP3    H1 3687  -0.067   5.303   1.892
 1241TIP3    H2 3688  -0.081   5.206   2.008
 1242TIP3   OH2 3689   0.123   4.967   1.939
 1242TIP3    H1 3690   0.179   4.899   1.978
 1242TIP3    H2 3691   0.175   4.985   1.857
 1243TIP3   OH2 3692   0.210   5.177   1.684
 1243TIP3    H1 3693   0.174   5.247   1.628
 1243TIP3    H2 3694   0.300   5.214   1.701
 1244TIP3   OH2 3695  -0.015   4.629   1.839
 1244TIP3    H1 3696  -0.111   4.627   1.839
 1244TIP3    H2 3697   0.006   4.646   1.932
 1245TIP3   OH2 3698   0.228   4.606   2.002
 1245TIP3    H1 3699   0.214   4.510   2.042
 1245TIP3    H2 3700   0.204   4.659   2.067
 1246TIP3   OH2 3701  -0.281   4.198   1.989
 1246TIP3    H1 3702  -0.204   4.140   2.009
 1246TIP3    H2 3703  -0.356   4.137   2.010
 1247TIP3   OH2 3704  -0.259   4.458   2.208
 1247TIP3    H1 3705  -0.243   4.367   2.177
 1247TIP3    H2 3706  -0.324   4.488   2.142
 1248TIP3   OH2 3707   0.258   5.646   1.730
 1248TIP3    H1 3708   0.223   5.623   1.819
 1248TIP3    H2 3709   0.336   5.700   1.754
 1249TIP3   OH2 3710   0.314   4.922   1.370
 1249TIP3    H1 3711   0.234   4.962   1.406
 1249TIP3    H2 3712   0.350   4.994   1.314
 1250TIP3   OH2 3713   0.622   4.636   1.708
 1250TIP3    H1 3714   0.533   4.647   1.743
 1250TIP3    H2 3715   0.629   4.540   1.700
 1251TIP3   OH2 3716   0.520   4.374   1.585
 1251TIP3    H1 3717   0.436   4.363   1.536
 1251TIP3    H2 3718   0.560   4.285   1.576
 1252TIP3   OH2 3719   0.243   4.207   1.144
 1252TIP3    H1 3720   0.295   4.270   1.093
 1252TIP3    H2 3721   0.196   4.157   1.075
 1253TIP3   OH2 3722   0.250   4.328   2.018
 1253TIP3    H1 3723   0.270   4.297   2.107
 1253TIP3    H2 3724   0.338   4.327   1.975
 1254TIP3   OH2 3725   1.461   5.258   0.669
 1254TIP3    H1 3726   1.505   5.253   0.756
 1254TIP3    H2 3727   1.419   5.170   0.665
 1255TIP3   OH2 3728   0.795   5.175   1.027
 1255TIP3    H1 3729   0.798   5.091   1.076
 1255TIP3    H2 3730   0.835   5.235   1.093
 1256TIP3   OH2 3731   1.711   5.532   0.355
 1256TIP3    H1 3732   1.683   5.499   0.442
 1256TIP3    H2 3733   1.751   5.617   0.377
 1257TIP3   OH2 3734   1.270   5.466   0.772
 1257TIP3    H1 3735   1.300   5.397   0.711
 1257TIP3    H2 3736   1.349   5.524   0.773
 1258TIP3   OH2 3737   2.271   4.823   0.707
 1258TIP3    H1 3738   2.303   4.905   0.750
 1258TIP3    H2 3739   2.295   4.839   0.615
 1259TIP3   OH2 3740   1.665   5.002   0.737
 1259TIP3    H1 3741   1.712   4.919   0.761
 1259TIP3    H2 3742   1.636   4.980   0.646
 1260TIP3   OH2 3743   1.019   4.683   0.700
 1260TIP3    H1 3744   0.971   4.739   0.638
 1260TIP3    H2 3745   0.982   4.596   0.673
 1261TIP3   OH2 3746   1.699   4.755   0.340
 1261TIP3    H1 3747   1.778   4.742   0.398
 1261TIP3    H2 3748   1.743   4.791   0.260
 1262TIP3   OH2 3749   1.103   4.982   0.548
 1262TIP3    H1 3750   1.178   4.988   0.612
 1262TIP3    H2 3751   1.030   5.013   0.605
 1263TIP3   OH2 3752   2.346   5.032   0.875
 1263TIP3    H1 3753   2.260   5.076   0.857
 1263TIP3    H2 3754   2.356   5.053   0.970
 1264TIP3   OH2 3755   1.003   4.646   1.140
 1264TIP3    H1 3756   0.935   4.678   1.077
 1264TIP3    H2 3757   0.952   4.655   1.224
 1265TIP3   OH2 3758   1.076   5.433   0.958
 1265TIP3    H1 3759   1.048   5.516   1.000
 1265TIP3    H2 3760   1.139   5.465   0.889
 1266TIP3   OH2 3761   1.912   4.760   0.506
 1266TIP3    H1 3762   1.894   4.719   0.592
 1266TIP3    H2 3763   1.962   4.840   0.532
 1267TIP3   OH2 3764   0.888   4.777   0.919
 1267TIP3    H1 3765   0.950   4.842   0.958
 1267TIP3    H2 3766   0.943   4.739   0.848
 1268TIP3   OH2 3767   1.797   5.805   0.554
 1268TIP3    H1 3768   1.706   5.808   0.589
 1268TIP3    H2 3769   1.798   5.884   0.496
 1269TIP3   OH2 3770   2.065   4.721   0.873
 1269TIP3    H1 3771   1.979   4.750   0.839
 1269TIP3    H2 3772   2.127   4.754   0.804
 1270TIP3   OH2 3773   1.353   4.361   0.855
 1270TIP3    H1 3774   1.340   4.267   0.877
 1270TIP3    H2 3775   1.279   4.402   0.905
 1271TIP3   OH2 3776   1.999   5.720   0.862
 1271TIP3    H1 3777   1.984   5.647   0.798
 1271TIP3    H2 3778   1.987   5.800   0.805
 1272TIP3   OH2 3779   2.191   5.375   0.702
 1272TIP3    H1 3780   2.106   5.424   0.704
 1272TIP3    H2 3781   2.222   5.398   0.612
 1273TIP3   OH2 3782   1.545   5.124   0.247
 1273TIP3    H1 3783   1.552   5.184   0.170
 1273TIP3    H2 3784   1.637   5.092   0.246
 1274TIP3   OH2 3785   1.870   5.247   1.002
 1274TIP3    H1 3786   1.868   5.328   1.056
 1274TIP3    H2 3787   1.785   5.255   0.955
 1275TIP3   OH2 3788   1.057   5.189   0.833
 1275TIP3    H1 3789   1.095   5.238   0.759
 1275TIP3    H2 3790   1.060   5.258   0.902
 1276TIP3   OH2 3791   1.536   5.823   0.638
 1276TIP3    H1 3792   1.468   5.867   0.691
 1276TIP3    H2 3793   1.533   5.734   0.681
 1277TIP3   OH2 3794   1.120   5.725   1.168
 1277TIP3    H1 3795   1.085   5.793   1.228
 1277TIP3    H2 3796   1.048   5.661   1.174
 1278TIP3   OH2 3797   0.904   5.291   1.272
 1278TIP3    H1 3798   0.922   5.378   1.312
 1278TIP3    H2 3799   0.813   5.278   1.305
 1279TIP3   OH2 3800   0.935   5.882   1.284
 1279TIP3    H1 3801   0.886   5.947   1.230
 1279TIP3    H2 3802   0.865   5.851   1.346
 1280TIP3   OH2 3803   1.996   4.308  -0.042
 1280TIP3    H1 3804   1.911   4.322   0.006
 1280TIP3    H2 3805   2.015   4.399  -0.070
 1281TIP3   OH2 3806   2.237   6.080   0.912
 1281TIP3    H1 3807   2.234   5.983   0.922
 1281TIP3    H2 3808   2.152   6.105   0.955
 1282TIP3   OH2 3809   1.361   5.842   1.057
 1282TIP3    H1 3810   1.354   5.939   1.073
 1282TIP3    H2 3811   1.272   5.813   1.087
 1283TIP3   OH2 3812   2.125   5.209   1.176
 1283TIP3    H1 3813   2.038   5.215   1.133
 1283TIP3    H2 3814   2.142   5.112   1.169
 1284TIP3   OH2 3815   0.810   5.583   1.178
 1284TIP3    H1 3816   0.828   5.570   1.273
 1284TIP3    H2 3817   0.730   5.638   1.178
 1285TIP3   OH2 3818   1.124   4.445   0.988
 1285TIP3    H1 3819   1.037   4.411   0.958
 1285TIP3    H2 3820   1.093   4.522   1.041
 1286TIP3   OH2 3821   1.657   4.552   1.182
 1286TIP3    H1 3822   1.728   4.525   1.244
 1286TIP3    H2 3823   1.576   4.534   1.233
 1287TIP3   OH2 3824   1.887   4.983   1.098
 1287TIP3    H1 3825   1.838   4.980   1.183
 1287TIP3    H2 3826   1.865   5.073   1.065
 1288TIP3   OH2 3827   1.062   4.969   1.009
 1288TIP3    H1 3828   1.008   4.989   1.088
 1288TIP3    H2 3829   1.058   5.052   0.958
 1289TIP3   OH2 3830   1.600   5.202   1.328
 1289TIP3    H1 3831   1.579   5.129   1.392
 1289TIP3    H2 3832   1.694   5.217   1.351
 1290TIP3   OH2 3833   1.581   4.961   0.480
 1290TIP3    H1 3834   1.553   5.018   0.405
 1290TIP3    H2 3835   1.608   4.880   0.432
 1291TIP3   OH2 3836   0.878   4.977   1.217
 1291TIP3    H1 3837   0.897   5.035   1.291
 1291TIP3    H2 3838   0.863   4.892   1.262
 1292TIP3   OH2 3839   1.589   5.198   0.904
 1292TIP3    H1 3840   1.623   5.128   0.845
 1292TIP3    H2 3841   1.560   5.143   0.981
 1293TIP3   OH2 3842   1.271   4.669   0.592
 1293TIP3    H1 3843   1.194   4.674   0.653
 1293TIP3    H2 3844   1.343   4.638   0.650
 1294TIP3   OH2 3845   1.759   4.744   0.780
 1294TIP3    H1 3846   1.728   4.755   0.873
 1294TIP3    H2 3847   1.695   4.679   0.748
 1295TIP3   OH2 3848   1.917   6.428   1.000
 1295TIP3    H1 3849   1.916   6.444   0.904
 1295TIP3    H2 3850   2.000   6.476   1.023
 1296TIP3   OH2 3851   0.894   5.531   1.437
 1296TIP3    H1 3852   0.968   5.558   1.496
 1296TIP3    H2 3853   0.819   5.534   1.500
 1297TIP3   OH2 3854   1.346   4.994   0.678
 1297TIP3    H1 3855   1.427   4.959   0.639
 1297TIP3    H2 3856   1.346   4.954   0.767
 1298TIP3   OH2 3857   0.868   4.490   0.580
 1298TIP3    H1 3858   0.839   4.417   0.639
 1298TIP3    H2 3859   0.864   4.442   0.495
 1299TIP3   OH2 3860   1.325   4.904   0.950
 1299TIP3    H1 3861   1.235   4.933   0.976
 1299TIP3    H2 3862   1.382   4.957   1.010
 1300TIP3   OH2 3863   1.952   5.513   0.689
 1300TIP3    H1 3864   1.981   5.565   0.611
 1300TIP3    H2 3865   1.869   5.472   0.657
 1301TIP3   OH2 3866   1.460   5.590   1.061
 1301TIP3    H1 3867   1.500   5.581   1.149
 1301TIP3    H2 3868   1.425   5.681   1.064
 1302TIP3   OH2 3869   1.574   4.830   0.085
 1302TIP3    H1 3870   1.666   4.823   0.057
 1302TIP3    H2 3871   1.542   4.901   0.026
 1303TIP3   OH2 3872   0.651   5.266   1.368
 1303TIP3    H1 3873   0.679   5.264   1.462
 1303TIP3    H2 3874   0.597   5.185   1.363
 1304TIP3   OH2 3875   1.360   5.339   1.371
 1304TIP3    H1 3876   1.298   5.272   1.338
 1304TIP3    H2 3877   1.446   5.301   1.342
 1305TIP3   OH2 3878   1.616   5.890   0.947
 1305TIP3    H1 3879   1.524   5.866   0.969
 1305TIP3    H2 3880   1.645   5.925   1.035
 1306TIP3   OH2 3881   2.015   4.907  -0.123
 1306TIP3    H1 3882   1.950   4.854  -0.173
 1306TIP3    H2 3883   2.013   4.990  -0.172
 1307TIP3   OH2 3884   2.248   5.795   0.941
 1307TIP3    H1 3885   2.151   5.783   0.937
 1307TIP3    H2 3886   2.273   5.762   0.851
 1308TIP3   OH2 3887   1.718   5.379   0.603
 1308TIP3    H1 3888   1.625   5.351   0.612
 1308TIP3    H2 3889   1.756   5.302   0.557
 1309TIP3   OH2 3890   1.519   5.588   0.794
 1309TIP3    H1 3891   1.503   5.583   0.891
 1309TIP3    H2 3892   1.594   5.528   0.783
 1310TIP3   OH2 3893   1.758   6.102   0.839
 1310TIP3    H1 3894   1.697   6.029   0.865
 1310TIP3    H2 3895   1.706   6.152   0.775
 1311TIP3   OH2 3896   0.848   4.723   1.360
 1311TIP3    H1 3897   0.751   4.717   1.373
 1311TIP3    H2 3898   0.880   4.668   1.434
 1312TIP3   OH2 3899   1.685   4.787   1.040
 1312TIP3    H1 3900   1.762   4.829   1.080
 1312TIP3    H2 3901   1.672   4.708   1.096
 1313TIP3   OH2 3902   1.551   4.553   0.204
 1313TIP3    H1 3903   1.504   4.592   0.128
 1313TIP3    H2 3904   1.600   4.632   0.237
 1314TIP3   OH2 3905   1.262   4.772   0.348
 1314TIP3    H1 3906   1.319   4.728   0.289
 1314TIP3    H2 3907   1.273   4.722   0.434
 1315TIP3   OH2 3908   1.522   5.038   1.113
 1315TIP3    H1 3909   1.547   5.091   1.192
 1315TIP3    H2 3910   1.573   4.957   1.127
 1316TIP3   OH2 3911   1.400   4.448   0.410
 1316TIP3    H1 3912   1.433   4.498   0.487
 1316TIP3    H2 3913   1.460   4.481   0.339
 1317TIP3   OH2 3914   2.154   4.942   1.093
 1317TIP3    H1 3915   2.057   4.942   1.104
 1317TIP3    H2 3916   2.163   4.885   1.015
 1318TIP3   OH2 3917   1.812   5.134   0.487
 1318TIP3    H1 3918   1.739   5.076   0.512
 1318TIP3    H2 3919   1.888   5.091   0.531
 1319TIP3   OH2 3920   1.788   6.045   0.424
 1319TIP3    H1 3921   1.764   6.126   0.376
 1319TIP3    H2 3922   1.885   6.060   0.429
 1320TIP3   OH2 3923   0.866   4.358   0.954
 1320TIP3    H1 3924   0.829   4.325   0.869
 1320TIP3    H2 3925   0.850   4.283   1.014
 1321TIP3   OH2 3926   1.040   6.083   1.456
 1321TIP3    H1 3927   1.129   6.044   1.463
 1321TIP3    H2 3928   1.002   6.027   1.386
 1322TIP3   OH2 3929   1.676   5.988   1.192
 1322TIP3    H1 3930   1.665   5.920   1.263
 1322TIP3    H2 3931   1.750   6.042   1.226
 1323TIP3   OH2 3932   0.669   5.513   1.621
 1323TIP3    H1 3933   0.703   5.422   1.618
 1323TIP3    H2 3934   0.579   5.489   1.653
 1324TIP3   OH2 3935   1.284   5.613   1.383
 1324TIP3    H1 3936   1.255   5.626   1.291
 1324TIP3    H2 3937   1.320   5.522   1.380
 1325TIP3   OH2 3938   1.777   5.627   0.995
 1325TIP3    H1 3939   1.857   5.664   0.953
 1325TIP3    H2 3940   1.711   5.694   0.972
 1326TIP3   OH2 3941   0.812   5.249   1.601
 1326TIP3    H1 3942   0.890   5.193   1.591
 1326TIP3    H2 3943   0.828   5.287   1.690
 1327TIP3   OH2 3944   1.145   5.153   1.258
 1327TIP3    H1 3945   1.062   5.205   1.253
 1327TIP3    H2 3946   1.193   5.185   1.178
 1328TIP3   OH2 3947   1.653   5.548   1.388
 1328TIP3    H1 3948   1.731   5.513   1.343
 1328TIP3    H2 3949   1.644   5.486   1.463
 1329TIP3   OH2 3950   1.257   4.938   1.382
 1329TIP3    H1 3951   1.258   4.859   1.325
 1329TIP3    H2 3952   1.215   5.005   1.324
 1330TIP3   OH2 3953   1.260   4.726   1.189
 1330TIP3    H1 3954   1.289   4.761   1.103
 1330TIP3    H2 3955   1.167   4.703   1.171
 1331TIP3   OH2 3956   1.282   5.255   1.051
 1331TIP3    H1 3957   1.374   5.264   1.022
 1331TIP3    H2 3958   1.240   5.335   1.016
 1332TIP3   OH2 3959   1.862   5.220   1.437
 1332TIP3    H1 3960   1.905   5.143   1.477
 1332TIP3    H2 3961   1.937   5.271   1.404
 1333TIP3   OH2 3962   1.910   5.477   1.177
 1333TIP3    H1 3963   1.852   5.532   1.120
 1333TIP3    H2 3964   1.998   5.499   1.139
 1334TIP3   OH2 3965   1.132   5.041   1.616
 1334TIP3    H1 3966   1.067   4.970   1.630
 1334TIP3    H2 3967   1.168   5.017   1.528
 1335TIP3   OH2 3968   1.392   4.482   1.257
 1335TIP3    H1 3969   1.340   4.563   1.237
 1335TIP3    H2 3970   1.324   4.412   1.249
 1336TIP3   OH2 3971   1.519   4.987   1.474
 1336TIP3    H1 3972   1.509   4.968   1.569
 1336TIP3    H2 3973   1.429   4.962   1.444
 1337TIP3   OH2 3974   1.754   4.934   1.326
 1337TIP3    H1 3975   1.684   4.936   1.394
 1337TIP3    H2 3976   1.832   4.906   1.379
 1338TIP3   OH2 3977   1.987   4.875   1.467
 1338TIP3    H1 3978   2.000   4.781   1.489
 1338TIP3    H2 3979   1.979   4.917   1.555
 1339TIP3   OH2 3980   0.971   4.825   1.669
 1339TIP3    H1 3981   0.973   4.734   1.634
 1339TIP3    H2 3982   1.014   4.812   1.756
 1340TIP3   OH2 3983   1.489   4.496   1.514
 1340TIP3    H1 3984   1.555   4.423   1.512
 1340TIP3    H2 3985   1.449   4.487   1.426
 1341TIP3   OH2 3986   1.556   4.709   1.672
 1341TIP3    H1 3987   1.537   4.636   1.610
 1341TIP3    H2 3988   1.476   4.764   1.664
 1342TIP3   OH2 3989   2.048   6.118   0.418
 1342TIP3    H1 3990   2.095   6.177   0.481
 1342TIP3    H2 3991   2.048   6.172   0.336
 1343TIP3   OH2 3992   2.095   6.180   0.695
 1343TIP3    H1 3993   2.046   6.097   0.679
 1343TIP3    H2 3994   2.163   6.145   0.756
 1344TIP3   OH2 3995   2.106   5.878   1.246
 1344TIP3    H1 3996   2.035   5.888   1.314
 1344TIP3    H2 3997   2.150   5.966   1.252
 1345TIP3   OH2 3998   1.900   5.292  -0.133
 1345TIP3    H1 3999   1.934   5.385  -0.132
 1345TIP3    H2 4000   1.966   5.253  -0.072
 1346TIP3   OH2 4001   2.059   5.227   0.078
 1346TIP3    H1 4002   1.990   5.206   0.143
 1346TIP3    H2 4003   2.119   5.287   0.128
 1347TIP3   OH2 4004   2.109   5.639   0.510
 1347TIP3    H1 4005   2.160   5.577   0.456
 1347TIP3    H2 4006   2.120   5.723   0.459
 1348TIP3   OH2 4007   1.955   5.947   0.719
 1348TIP3    H1 4008   1.880   5.996   0.758
 1348TIP3    H2 4009   1.910   5.894   0.649
 1349TIP3   OH2 4010   1.846   5.109   0.217
 1349TIP3    H1 4011   1.866   5.015   0.203
 1349TIP3    H2 4012   1.845   5.118   0.315
 1350TIP3   OH2 4013   2.158   5.542   1.075
 1350TIP3    H1 4014   2.228   5.474   1.062
 1350TIP3    H2 4015   2.179   5.606   1.005
 1351TIP3   OH2 4016   2.340   5.341   1.076
 1351TIP3    H1 4017   2.265   5.293   1.118
 1351TIP3    H2 4018   2.412   5.278   1.096
 1352TIP3   OH2 4019   1.785   4.507  -0.308
 1352TIP3    H1 4020   1.843   4.531  -0.234
 1352TIP3    H2 4021   1.707   4.474  -0.263
 1353TIP3   OH2 4022   1.871   4.832   0.124
 1353TIP3    H1 4023   1.913   4.744   0.137
 1353TIP3    H2 4024   1.915   4.859   0.041
 1354TIP3   OH2 4025   2.022   5.003   0.604
 1354TIP3    H1 4026   2.108   5.026   0.563
 1354TIP3    H2 4027   2.038   5.041   0.693
 1355TIP3   OH2 4028   2.094   5.151   0.831
 1355TIP3    H1 4029   2.019   5.184   0.884
 1355TIP3    H2 4030   2.127   5.233   0.790
 1356TIP3   OH2 4031   0.705   4.871   1.605
 1356TIP3    H1 4032   0.801   4.870   1.621
 1356TIP3    H2 4033   0.678   4.788   1.651
 1357TIP3   OH2 4034   2.543   4.747   1.388
 1357TIP3    H1 4035   2.605   4.681   1.350
 1357TIP3    H2 4036   2.514   4.796   1.308
 1358TIP3   OH2 4037   1.978   4.576   0.144
 1358TIP3    H1 4038   2.020   4.563   0.231
 1358TIP3    H2 4039   1.910   4.505   0.145
 1359TIP3   OH2 4040   0.714   4.584   1.035
 1359TIP3    H1 4041   0.763   4.506   1.005
 1359TIP3    H2 4042   0.746   4.653   0.975
 1360TIP3   OH2 4043   2.413   4.880   1.188
 1360TIP3    H1 4044   2.329   4.922   1.217
 1360TIP3    H2 4045   2.376   4.805   1.136
 1361TIP3   OH2 4046   2.062   4.530  -0.220
 1361TIP3    H1 4047   2.103   4.449  -0.253
 1361TIP3    H2 4048   2.051   4.579  -0.304
 1362TIP3   OH2 4049   0.678   4.418   1.353
 1362TIP3    H1 4050   0.628   4.426   1.437
 1362TIP3    H2 4051   0.615   4.460   1.291
 1363TIP3   OH2 4052   0.722   5.838   1.449
 1363TIP3    H1 4053   0.632   5.872   1.443
 1363TIP3    H2 4054   0.737   5.838   1.544
 1364TIP3   OH2 4055   1.348   6.110   1.106
 1364TIP3    H1 4056   1.382   6.130   1.195
 1364TIP3    H2 4057   1.403   6.170   1.051
 1365TIP3   OH2 4058   1.539   6.258   0.976
 1365TIP3    H1 4059   1.620   6.212   0.951
 1365TIP3    H2 4060   1.575   6.330   1.032
 1366TIP3   OH2 4061   2.314   4.639   1.076
 1366TIP3    H1 4062   2.223   4.622   1.045
 1366TIP3    H2 4063   2.351   4.548   1.070
 1367TIP3   OH2 4064   1.503   4.541   0.675
 1367TIP3    H1 4065   1.472   4.475   0.739
 1367TIP3    H2 4066   1.591   4.507   0.649
 1368TIP3   OH2 4067   2.035   4.439   0.599
 1368TIP3    H1 4068   2.072   4.491   0.524
 1368TIP3    H2 4069   1.940   4.461   0.594
 1369TIP3   OH2 4070   2.133   4.537   0.365
 1369TIP3    H1 4071   2.209   4.485   0.330
 1369TIP3    H2 4072   2.167   4.629   0.351
 1370TIP3   OH2 4073   0.780   4.268   0.707
 1370TIP3    H1 4074   0.690   4.229   0.715
 1370TIP3    H2 4075   0.831   4.186   0.696
 1371TIP3   OH2 4076   1.216   4.294   0.596
 1371TIP3    H1 4077   1.266   4.345   0.530
 1371TIP3    H2 4078   1.247   4.334   0.679
 1372TIP3   OH2 4079   1.748   4.446   0.577
 1372TIP3    H1 4080   1.763   4.402   0.492
 1372TIP3    H2 4081   1.740   4.367   0.637
 1373TIP3   OH2 4082   1.785   4.374   0.139
 1373TIP3    H1 4083   1.699   4.417   0.152
 1373TIP3    H2 4084   1.770   4.288   0.184
 1374TIP3   OH2 4085   1.192   4.513   0.223
 1374TIP3    H1 4086   1.248   4.452   0.273
 1374TIP3    H2 4087   1.157   4.570   0.291
 1375TIP3   OH2 4088   0.970   4.555   1.599
 1375TIP3    H1 4089   0.923   4.509   1.671
 1375TIP3    H2 4090   1.064   4.544   1.628
 1376TIP3   OH2 4091   1.226   4.551   1.709
 1376TIP3    H1 4092   1.310   4.520   1.672
 1376TIP3    H2 4093   1.220   4.495   1.791
 1377TIP3   OH2 4094   2.051   4.607   1.509
 1377TIP3    H1 4095   2.067   4.574   1.600
 1377TIP3    H2 4096   2.141   4.602   1.471
 1378TIP3   OH2 4097   1.987   6.160   1.007
 1378TIP3    H1 4098   1.913   6.130   0.950
 1378TIP3    H2 4099   1.965   6.256   1.012
 1379TIP3   OH2 4100   3.202   5.523   0.170
 1379TIP3    H1 4101   3.235   5.507   0.260
 1379TIP3    H2 4102   3.180   5.432   0.141
 1380TIP3   OH2 4103   2.558   5.424   0.511
 1380TIP3    H1 4104   2.585   5.350   0.569
 1380TIP3    H2 4105   2.625   5.490   0.533
 1381TIP3   OH2 4106   2.498   5.826   0.279
 1381TIP3    H1 4107   2.473   5.733   0.269
 1381TIP3    H2 4108   2.594   5.819   0.262
 1382TIP3   OH2 4109   2.240   5.023   0.013
 1382TIP3    H1 4110   2.193   5.103   0.043
 1382TIP3    H2 4111   2.165   4.970  -0.017
 1383TIP3   OH2 4112   2.285   5.329   0.199
 1383TIP3    H1 4113   2.340   5.253   0.227
 1383TIP3    H2 4114   2.338   5.368   0.128
 1384TIP3   OH2 4115   3.025   5.749   0.188
 1384TIP3    H1 4116   3.065   5.666   0.154
 1384TIP3    H2 4117   3.107   5.786   0.230
 1385TIP3   OH2 4118   3.412   5.210   0.307
 1385TIP3    H1 4119   3.491   5.151   0.305
 1385TIP3    H2 4120   3.383   5.197   0.213
 1386TIP3   OH2 4121   2.794   4.922   0.200
 1386TIP3    H1 4122   2.788   4.989   0.130
 1386TIP3    H2 4123   2.755   4.844   0.154
 1387TIP3   OH2 4124   2.437   5.120   0.296
 1387TIP3    H1 4125   2.516   5.099   0.349
 1387TIP3    H2 4126   2.454   5.064   0.217
 1388TIP3   OH2 4127   2.890   5.328   0.087
 1388TIP3    H1 4128   2.975   5.288   0.114
 1388TIP3    H2 4129   2.839   5.251   0.057
 1389TIP3   OH2 4130   4.119   5.273   0.354
 1389TIP3    H1 4131   4.033   5.314   0.378
 1389TIP3    H2 4132   4.174   5.294   0.430
 1390TIP3   OH2 4133   2.794   4.907   0.636
 1390TIP3    H1 4134   2.734   4.945   0.569
 1390TIP3    H2 4135   2.740   4.922   0.717
 1391TIP3   OH2 4136   2.909   5.672   0.433
 1391TIP3    H1 4137   2.846   5.738   0.470
 1391TIP3    H2 4138   2.942   5.720   0.355
 1392TIP3   OH2 4139   2.667   5.019   0.417
 1392TIP3    H1 4140   2.731   5.090   0.438
 1392TIP3    H2 4141   2.713   4.976   0.341
 1393TIP3   OH2 4142   2.735   5.869   0.525
 1393TIP3    H1 4143   2.711   5.952   0.479
 1393TIP3    H2 4144   2.653   5.857   0.578
 1394TIP3   OH2 4145   3.852   4.986   0.344
 1394TIP3    H1 4146   3.755   5.002   0.341
 1394TIP3    H2 4147   3.873   4.992   0.251
 1395TIP3   OH2 4148   3.166   4.669   0.398
 1395TIP3    H1 4149   3.172   4.601   0.327
 1395TIP3    H2 4150   3.072   4.667   0.423
 1396TIP3   OH2 4151   3.651   5.506   0.492
 1396TIP3    H1 4152   3.662   5.578   0.558
 1396TIP3    H2 4153   3.584   5.545   0.434
 1397TIP3   OH2 4154   2.753   5.801   0.185
 1397TIP3    H1 4155   2.749   5.875   0.120
 1397TIP3    H2 4156   2.848   5.781   0.185
 1398TIP3   OH2 4157   2.812   5.430   0.337
 1398TIP3    H1 4158   2.843   5.417   0.245
 1398TIP3    H2 4159   2.846   5.520   0.358
 1399TIP3   OH2 4160   2.930   5.985   0.677
 1399TIP3    H1 4161   2.868   6.049   0.717
 1399TIP3    H2 4162   2.869   5.934   0.620
 1400TIP3   OH2 4163   2.695   5.541   0.768
 1400TIP3    H1 4164   2.702   5.630   0.809
 1400TIP3    H2 4165   2.602   5.521   0.789
 1401TIP3   OH2 4166   2.731   6.160   0.753
 1401TIP3    H1 4167   2.699   6.161   0.661
 1401TIP3    H2 4168   2.649   6.138   0.804
 1402TIP3   OH2 4169   2.312   5.690   0.700
 1402TIP3    H1 4170   2.246   5.673   0.631
 1402TIP3    H2 4171   2.349   5.601   0.717
 1403TIP3   OH2 4172   2.165   5.864   0.381
 1403TIP3    H1 4173   2.233   5.883   0.314
 1403TIP3    H2 4174   2.138   5.956   0.404
 1404TIP3   OH2 4175   3.140   6.106   0.555
 1404TIP3    H1 4176   3.125   6.200   0.577
 1404TIP3    H2 4177   3.062   6.065   0.597
 1405TIP3   OH2 4178   3.916   5.456   0.671
 1405TIP3    H1 4179   3.849   5.472   0.604
 1405TIP3    H2 4180   3.937   5.361   0.657
 1406TIP3   OH2 4181   2.516   5.875   0.689
 1406TIP3    H1 4182   2.565   5.852   0.770
 1406TIP3    H2 4183   2.440   5.813   0.692
 1407TIP3   OH2 4184   2.893   4.697   0.485
 1407TIP3    H1 4185   2.808   4.664   0.450
 1407TIP3    H2 4186   2.862   4.770   0.541
 1408TIP3   OH2 4187   3.451   4.812   0.675
 1408TIP3    H1 4188   3.521   4.780   0.736
 1408TIP3    H2 4189   3.368   4.786   0.721
 1409TIP3   OH2 4190   3.668   5.236   0.575
 1409TIP3    H1 4191   3.630   5.234   0.665
 1409TIP3    H2 4192   3.658   5.330   0.550
 1410TIP3   OH2 4193   2.855   5.209   0.484
 1410TIP3    H1 4194   2.806   5.227   0.567
 1410TIP3    H2 4195   2.837   5.291   0.434
 1411TIP3   OH2 4196   2.743   5.089  -0.022
 1411TIP3    H1 4197   2.650   5.074   0.005
 1411TIP3    H2 4198   2.762   5.007  -0.071
 1412TIP3   OH2 4199   3.392   5.465   0.816
 1412TIP3    H1 4200   3.373   5.393   0.880
 1412TIP3    H2 4201   3.486   5.483   0.838
 1413TIP3   OH2 4202   2.677   5.235   0.694
 1413TIP3    H1 4203   2.688   5.302   0.763
 1413TIP3    H2 4204   2.659   5.154   0.747
 1414TIP3   OH2 4205   2.259   4.758   0.279
 1414TIP3    H1 4206   2.330   4.795   0.336
 1414TIP3    H2 4207   2.305   4.735   0.198
 1415TIP3   OH2 4208   3.351   5.470   0.405
 1415TIP3    H1 4209   3.392   5.396   0.356
 1415TIP3    H2 4210   3.365   5.441   0.496
 1416TIP3   OH2 4211   3.061   4.931   0.086
 1416TIP3    H1 4212   2.992   4.900   0.147
 1416TIP3    H2 4213   3.142   4.892   0.125
 1417TIP3   OH2 4214   2.503   4.981   0.064
 1417TIP3    H1 4215   2.409   4.990   0.037
 1417TIP3    H2 4216   2.520   4.886   0.050
 1418TIP3   OH2 4217   3.586   4.997   0.272
 1418TIP3    H1 4218   3.534   4.956   0.343
 1418TIP3    H2 4219   3.573   4.930   0.200
 1419TIP3   OH2 4220   2.680   5.793   0.906
 1419TIP3    H1 4221   2.760   5.823   0.955
 1419TIP3    H2 4222   2.616   5.788   0.980
 1420TIP3   OH2 4223   3.134   5.242   0.164
 1420TIP3    H1 4224   3.200   5.200   0.105
 1420TIP3    H2 4225   3.126   5.175   0.233
 1421TIP3   OH2 4226   2.669   4.734   0.044
 1421TIP3    H1 4227   2.627   4.660   0.093
 1421TIP3    H2 4228   2.738   4.685  -0.005
 1422TIP3   OH2 4229   3.128   5.177   0.467
 1422TIP3    H1 4230   3.034   5.168   0.440
 1422TIP3    H2 4231   3.113   5.245   0.535
 1423TIP3   OH2 4232   3.258   5.859   0.583
 1423TIP3    H1 4233   3.287   5.859   0.675
 1423TIP3    H2 4234   3.226   5.952   0.572
 1424TIP3   OH2 4235   2.534   5.541   0.239
 1424TIP3    H1 4236   2.604   5.541   0.173
 1424TIP3    H2 4237   2.573   5.490   0.311
 1425TIP3   OH2 4238   2.434   5.472   0.835
 1425TIP3    H1 4239   2.445   5.459   0.931
 1425TIP3    H2 4240   2.360   5.412   0.816
 1426TIP3   OH2 4241   3.152   5.597   0.855
 1426TIP3    H1 4242   3.090   5.529   0.823
 1426TIP3    H2 4243   3.238   5.562   0.826
 1427TIP3   OH2 4244   3.427   6.098   0.461
 1427TIP3    H1 4245   3.335   6.104   0.431
 1427TIP3    H2 4246   3.429   6.159   0.537
 1428TIP3   OH2 4247   4.026   6.017   0.409
 1428TIP3    H1 4248   3.993   6.088   0.466
 1428TIP3    H2 4249   4.100   6.057   0.361
 1429TIP3   OH2 4250   2.938   6.204   0.349
 1429TIP3    H1 4251   2.965   6.256   0.272
 1429TIP3    H2 4252   3.020   6.155   0.369
 1430TIP3   OH2 4253   3.257   5.787   0.323
 1430TIP3    H1 4254   3.254   5.812   0.418
 1430TIP3    H2 4255   3.333   5.726   0.322
 1431TIP3   OH2 4256   2.634   4.985   0.845
 1431TIP3    H1 4257   2.537   4.985   0.856
 1431TIP3    H2 4258   2.662   4.929   0.919
 1432TIP3   OH2 4259   2.361   6.066   0.495
 1432TIP3    H1 4260   2.403   5.980   0.505
 1432TIP3    H2 4261   2.405   6.118   0.563
 1433TIP3   OH2 4262   3.463   5.036   0.531
 1433TIP3    H1 4263   3.549   5.074   0.560
 1433TIP3    H2 4264   3.461   4.953   0.586
 1434TIP3   OH2 4265   3.352   5.283   0.624
 1434TIP3    H1 4266   3.333   5.361   0.679
 1434TIP3    H2 4267   3.412   5.238   0.688
 1435TIP3   OH2 4268   3.939   5.191   0.581
 1435TIP3    H1 4269   3.841   5.192   0.586
 1435TIP3    H2 4270   3.952   5.136   0.503
 1436TIP3   OH2 4271   2.631   4.613   0.447
 1436TIP3    H1 4272   2.608   4.576   0.359
 1436TIP3    H2 4273   2.626   4.534   0.505
 1437TIP3   OH2 4274   2.343   6.362   0.925
 1437TIP3    H1 4275   2.432   6.353   0.965
 1437TIP3    H2 4276   2.316   6.269   0.915
 1438TIP3   OH2 4277   2.825   6.338   0.942
 1438TIP3    H1 4278   2.918   6.315   0.947
 1438TIP3    H2 4279   2.795   6.278   0.870
 1439TIP3   OH2 4280   3.453   6.260   0.688
 1439TIP3    H1 4281   3.451   6.185   0.752
 1439TIP3    H2 4282   3.536   6.305   0.713
 1440TIP3   OH2 4283   2.477   5.788   1.098
 1440TIP3    H1 4284   2.491   5.692   1.109
 1440TIP3    H2 4285   2.390   5.789   1.052
 1441TIP3   OH2 4286   3.085   5.874   0.875
 1441TIP3    H1 4287   3.039   5.896   0.791
 1441TIP3    H2 4288   3.112   5.781   0.860
 1442TIP3   OH2 4289   3.585   5.874   0.482
 1442TIP3    H1 4290   3.625   5.928   0.412
 1442TIP3    H2 4291   3.505   5.927   0.495
 1443TIP3   OH2 4292   2.600   5.525   1.081
 1443TIP3    H1 4293   2.672   5.466   1.059
 1443TIP3    H2 4294   2.627   5.556   1.171
 1444TIP3   OH2 4295   2.939   5.409   0.738
 1444TIP3    H1 4296   2.856   5.460   0.741
 1444TIP3    H2 4297   2.985   5.446   0.660
 1445TIP3   OH2 4298   3.446   5.803   0.875
 1445TIP3    H1 4299   3.532   5.778   0.838
 1445TIP3    H2 4300   3.439   5.742   0.951
 1446TIP3   OH2 4301   3.056   5.196   0.864
 1446TIP3    H1 4302   3.052   5.116   0.809
 1446TIP3    H2 4303   3.007   5.263   0.811
 1447TIP3   OH2 4304   3.051   4.980   0.679
 1447TIP3    H1 4305   3.075   4.989   0.586
 1447TIP3    H2 4306   2.957   4.954   0.671
 1448TIP3   OH2 4307   3.095   5.501   0.536
 1448TIP3    H1 4308   3.175   5.536   0.494
 1448TIP3    H2 4309   3.028   5.565   0.501
 1449TIP3   OH2 4310   3.659   5.475   0.924
 1449TIP3    H1 4311   3.710   5.398   0.955
 1449TIP3    H2 4312   3.730   5.531   0.889
 1450TIP3   OH2 4313   3.709   5.721   0.665
 1450TIP3    H1 4314   3.656   5.783   0.608
 1450TIP3    H2 4315   3.799   5.741   0.629
 1451TIP3   OH2 4316   2.933   5.298   1.100
 1451TIP3    H1 4317   2.866   5.229   1.119
 1451TIP3    H2 4318   2.967   5.268   1.014
 1452TIP3   OH2 4319   3.190   4.741   0.749
 1452TIP3    H1 4320   3.134   4.818   0.728
 1452TIP3    H2 4321   3.128   4.667   0.733
 1453TIP3   OH2 4322   3.315   5.245   0.960
 1453TIP3    H1 4323   3.307   5.228   1.056
 1453TIP3    H2 4324   3.224   5.220   0.932
 1454TIP3   OH2 4325   3.542   5.189   0.810
 1454TIP3    H1 4326   3.476   5.193   0.883
 1454TIP3    H2 4327   3.622   5.162   0.860
 1455TIP3   OH2 4328   3.771   5.133   0.954
 1455TIP3    H1 4329   3.791   5.039   0.973
 1455TIP3    H2 4330   3.771   5.173   1.044
 1456TIP3   OH2 4331   2.774   5.078   1.156
 1456TIP3    H1 4332   2.774   4.985   1.126
 1456TIP3    H2 4333   2.813   5.067   1.246
 1457TIP3   OH2 4334   3.284   4.751   1.007
 1457TIP3    H1 4335   3.348   4.678   1.001
 1457TIP3    H2 4336   3.243   4.746   0.918
 1458TIP3   OH2 4337   3.352   4.968   1.160
 1458TIP3    H1 4338   3.331   4.894   1.099
 1458TIP3    H2 4339   3.271   5.022   1.155
 1459TIP3   OH2 4340   2.156   6.007   0.145
 1459TIP3    H1 4341   2.090   5.939   0.164
 1459TIP3    H2 4342   2.104   6.089   0.148
 1460TIP3   OH2 4343   3.904   6.135   0.721
 1460TIP3    H1 4344   3.834   6.140   0.790
 1460TIP3    H2 4345   3.946   6.222   0.731
 1461TIP3   OH2 4346   2.289   5.437   0.453
 1461TIP3    H1 4347   2.282   5.410   0.359
 1461TIP3    H2 4348   2.387   5.443   0.463
 1462TIP3   OH2 4349   3.948   5.783   0.542
 1462TIP3    H1 4350   4.027   5.725   0.550
 1462TIP3    H2 4351   3.981   5.857   0.487
 1463TIP3   OH2 4352   4.137   5.606   0.629
 1463TIP3    H1 4353   4.059   5.549   0.644
 1463TIP3    H2 4354   4.206   5.536   0.619
 1464TIP3   OH2 4355   3.889   5.425   0.351
 1464TIP3    H1 4356   3.798   5.431   0.387
 1464TIP3    H2 4357   3.879   5.471   0.267
 1465TIP3   OH2 4358   2.509   5.133   1.126
 1465TIP3    H1 4359   2.606   5.126   1.131
 1465TIP3    H2 4360   2.483   5.045   1.160
 1466TIP3   OH2 4361   4.338   5.002   0.876
 1466TIP3    H1 4362   4.400   4.937   0.837
 1466TIP3    H2 4363   4.309   5.052   0.797
 1467TIP3   OH2 4364   2.460   4.829   0.454
 1467TIP3    H1 4365   2.516   4.750   0.462
 1467TIP3    H2 4366   2.527   4.900   0.449
 1468TIP3   OH2 4367   2.266   5.098   0.523
 1468TIP3    H1 4368   2.316   5.098   0.439
 1468TIP3    H2 4369   2.290   5.183   0.561
 1469TIP3   OH2 4370   4.206   5.138   0.679
 1469TIP3    H1 4371   4.127   5.183   0.714
 1469TIP3    H2 4372   4.165   5.067   0.626
 1470TIP3   OH2 4373   2.241   4.611   0.014
 1470TIP3    H1 4374   2.164   4.590   0.070
 1470TIP3    H2 4375   2.199   4.667  -0.053
 1471TIP3   OH2 4376   2.474   4.686   0.843
 1471TIP3    H1 4377   2.421   4.676   0.924
 1471TIP3    H2 4378   2.406   4.719   0.781
 1472TIP3   OH2 4379   2.513   6.119   0.922
 1472TIP3    H1 4380   2.422   6.090   0.902
 1472TIP3    H2 4381   2.526   6.081   1.010
 1473TIP3   OH2 4382   2.695   6.150   0.471
 1473TIP3    H1 4383   2.641   6.213   0.422
 1473TIP3    H2 4384   2.783   6.166   0.430
 1474TIP3   OH2 4385   3.118   6.379   0.618
 1474TIP3    H1 4386   3.153   6.374   0.709
 1474TIP3    H2 4387   3.197   6.417   0.573
 1475TIP3   OH2 4388   3.330   6.497   0.493
 1475TIP3    H1 4389   3.406   6.436   0.490
 1475TIP3    H2 4390   3.365   6.566   0.554
 1476TIP3   OH2 4391   4.105   4.886   0.575
 1476TIP3    H1 4392   4.014   4.863   0.547
 1476TIP3    H2 4393   4.147   4.798   0.567
 1477TIP3   OH2 4394   2.386   6.377   0.499
 1477TIP3    H1 4395   2.291   6.387   0.476
 1477TIP3    H2 4396   2.390   6.433   0.579
 1478TIP3   OH2 4397   2.580   6.379   0.316
 1478TIP3    H1 4398   2.513   6.391   0.388
 1478TIP3    H2 4399   2.524   6.328   0.254
 1479TIP3   OH2 4400   2.379   6.186   0.241
 1479TIP3    H1 4401   2.356   6.185   0.335
 1479TIP3    H2 4402   2.327   6.108   0.210
 1480TIP3   OH2 4403   2.590   6.023   0.091
 1480TIP3    H1 4404   2.534   5.950   0.123
 1480TIP3    H2 4405   2.577   6.087   0.162
 1481TIP3   OH2 4406   3.311   4.842   0.204
 1481TIP3    H1 4407   3.275   4.763   0.249
 1481TIP3    H2 4408   3.387   4.801   0.158
 1482TIP3   OH2 4409   2.560   4.522   0.192
 1482TIP3    H1 4410   2.469   4.486   0.201
 1482TIP3    H2 4411   2.611   4.439   0.189
 1483TIP3   OH2 4412   2.334   4.381  -0.137
 1483TIP3    H1 4413   2.397   4.425  -0.195
 1483TIP3    H2 4414   2.309   4.455  -0.077
 1484TIP3   OH2 4415   2.968   4.584   0.077
 1484TIP3    H1 4416   3.041   4.585   0.013
 1484TIP3    H2 4417   3.019   4.571   0.157
 1485TIP3   OH2 4418   3.585   4.738   0.127
 1485TIP3    H1 4419   3.591   4.698   0.039
 1485TIP3    H2 4420   3.592   4.655   0.181
 1486TIP3   OH2 4421   2.770   4.806   1.091
 1486TIP3    H1 4422   2.732   4.735   1.144
 1486TIP3    H2 4423   2.863   4.803   1.120
 1487TIP3   OH2 4424   3.022   4.801   1.208
 1487TIP3    H1 4425   3.106   4.771   1.172
 1487TIP3    H2 4426   3.006   4.733   1.277
 1488TIP3   OH2 4427   3.848   4.866   0.995
 1488TIP3    H1 4428   3.863   4.835   1.087
 1488TIP3    H2 4429   3.939   4.861   0.958
 1489TIP3   OH2 4430   3.777   6.434   0.521
 1489TIP3    H1 4431   3.698   6.403   0.472
 1489TIP3    H2 4432   3.815   6.497   0.458
 1490TIP3   OH2 4433   4.240   5.726   0.369
 1490TIP3    H1 4434   4.280   5.747   0.455
 1490TIP3    H2 4435   4.290   5.644   0.347
 1491TIP3   OH2 4436   4.426   5.240   0.389
 1491TIP3    H1 4437   4.381   5.194   0.316
 1491TIP3    H2 4438   4.491   5.173   0.416
 1492TIP3   OH2 4439   4.244   6.029   0.636
 1492TIP3    H1 4440   4.316   5.971   0.609
 1492TIP3    H2 4441   4.204   6.050   0.550
 1493TIP3   OH2 4442   4.443   5.776   0.562
 1493TIP3    H1 4443   4.505   5.702   0.574
 1493TIP3    H2 4444   4.445   5.815   0.652
 1494TIP3   OH2 4445   4.729   5.574   0.576
 1494TIP3    H1 4446   4.677   5.492   0.590
 1494TIP3    H2 4447   4.779   5.554   0.495
 1495TIP3   OH2 4448   4.577   5.345   0.641
 1495TIP3    H1 4449   4.564   5.256   0.603
 1495TIP3    H2 4450   4.613   5.323   0.729
 1496TIP3   OH2 4451   5.052   5.018   0.461
 1496TIP3    H1 4452   5.129   4.961   0.486
 1496TIP3    H2 4453   5.013   4.961   0.394
 1497TIP3   OH2 4454   5.145   5.220   0.638
 1497TIP3    H1 4455   5.115   5.158   0.569
 1497TIP3    H2 4456   5.065   5.275   0.652
 1498TIP3   OH2 4457   4.302   5.393   0.615
 1498TIP3    H1 4458   4.399   5.384   0.604
 1498TIP3    H2 4459   4.280   5.301   0.643
 1499TIP3   OH2 4460   4.220   4.954   0.320
 1499TIP3    H1 4461   4.215   4.916   0.409
 1499TIP3    H2 4462   4.140   5.007   0.319
 1500TIP3   OH2 4463   4.571   5.036   0.572
 1500TIP3    H1 4464   4.533   4.974   0.637
 1500TIP3    H2 4465   4.661   5.047   0.609
 1501TIP3   OH2 4466   4.816   5.054   0.698
 1501TIP3    H1 4467   4.906   5.028   0.675
 1501TIP3    H2 4468   4.795   4.988   0.767
 1502TIP3   OH2 4469   1.209   6.452   1.279
 1502TIP3    H1 4470   1.152   6.380   1.248
 1502TIP3    H2 4471   1.151   6.499   1.343
 1503TIP3   OH2 4472   2.163   6.546   1.020
 1503TIP3    H1 4473   2.220   6.471   0.993
 1503TIP3    H2 4474   2.216   6.621   0.993
 1504TIP3   OH2 4475   1.973   6.420   0.720
 1504TIP3    H1 4476   1.902   6.408   0.655
 1504TIP3    H2 4477   2.018   6.332   0.718
 1505TIP3   OH2 4478   1.669   6.434   1.135
 1505TIP3    H1 4479   1.690   6.414   1.228
 1505TIP3    H2 4480   1.758   6.438   1.095
 1506TIP3   OH2 4481   3.076   6.501   0.357
 1506TIP3    H1 4482   3.169   6.488   0.384
 1506TIP3    H2 4483   3.030   6.456   0.428
 1507TIP3   OH2 4484   2.776   6.554   0.405
 1507TIP3    H1 4485   2.800   6.594   0.320
 1507TIP3    H2 4486   2.719   6.479   0.377
 1508TIP3   OH2 4487   2.903   6.550   0.655
 1508TIP3    H1 4488   2.963   6.474   0.643
 1508TIP3    H2 4489   2.855   6.550   0.569
 1509TIP3   OH2 4490   3.030   6.756   0.781
 1509TIP3    H1 4491   2.998   6.678   0.731
 1509TIP3    H2 4492   2.946   6.786   0.824
 1510TIP3   OH2 4493   2.130   6.453   0.478
 1510TIP3    H1 4494   2.081   6.469   0.560
 1510TIP3    H2 4495   2.114   6.534   0.428
 1511TIP3   OH2 4496   2.407   6.531   0.720
 1511TIP3    H1 4497   2.375   6.464   0.785
 1511TIP3    H2 4498   2.503   6.533   0.746
 1512TIP3   OH2 4499   2.652   6.585   0.819
 1512TIP3    H1 4500   2.744   6.575   0.789
 1512TIP3    H2 4501   2.654   6.541   0.906
 1513TIP3   OH2 4502   3.446   6.690   0.650
 1513TIP3    H1 4503   3.492   6.667   0.734
 1513TIP3    H2 4504   3.517   6.730   0.596
 1514TIP3   OH2 4505   1.197   0.022   3.667
 1514TIP3    H1 4506   1.161   0.106   3.629
 1514TIP3    H2 4507   1.116  -0.023   3.691
 1515TIP3   OH2 4508   1.446   0.327   3.725
 1515TIP3    H1 4509   1.429   0.261   3.794
 1515TIP3    H2 4510   1.475   0.404   3.776
 1516TIP3   OH2 4511   1.088   0.785   3.740
 1516TIP3    H1 4512   1.133   0.714   3.689
 1516TIP3    H2 4513   1.082   0.745   3.828
 1517TIP3   OH2 4514   1.014   0.242   4.070
 1517TIP3    H1 4515   1.062   0.184   4.010
 1517TIP3    H2 4516   1.088   0.288   4.113
 1518TIP3   OH2 4517   1.996  -0.403   4.062
 1518TIP3    H1 4518   2.003  -0.332   4.129
 1518TIP3    H2 4519   1.981  -0.352   3.982
 1519TIP3   OH2 4520   2.053  -0.215   4.263
 1519TIP3    H1 4521   1.967  -0.168   4.257
 1519TIP3    H2 4522   2.101  -0.164   4.331
 1520TIP3   OH2 4523   1.069   0.232   3.548
 1520TIP3    H1 4524   1.056   0.229   3.452
 1520TIP3    H2 4525   1.034   0.322   3.566
 1521TIP3   OH2 4526   1.507   0.568   3.887
 1521TIP3    H1 4527   1.417   0.560   3.928
 1521TIP3    H2 4528   1.498   0.654   3.841
 1522TIP3   OH2 4529   1.206   0.611   3.559
 1522TIP3    H1 4530   1.252   0.526   3.540
 1522TIP3    H2 4531   1.273   0.674   3.522
 1523TIP3   OH2 4532   1.340   0.388   3.476
 1523TIP3    H1 4533   1.347   0.311   3.417
 1523TIP3    H2 4534   1.382   0.353   3.558
 1524TIP3   OH2 4535   1.733   0.481   4.235
 1524TIP3    H1 4536   1.720   0.402   4.178
 1524TIP3    H2 4537   1.714   0.554   4.172
 1525TIP3   OH2 4538   1.931   0.121   4.079
 1525TIP3    H1 4539   1.847   0.172   4.082
 1525TIP3    H2 4540   1.961   0.143   3.988
 1526TIP3   OH2 4541   1.382  -0.034   3.463
 1526TIP3    H1 4542   1.319  -0.021   3.537
 1526TIP3    H2 4543   1.461  -0.067   3.508
 1527TIP3   OH2 4544   1.622   0.010   4.376
 1527TIP3    H1 4545   1.603   0.088   4.430
 1527TIP3    H2 4546   1.533  -0.020   4.352
 1528TIP3   OH2 4547   1.268   0.560   4.012
 1528TIP3    H1 4548   1.257   0.644   4.062
 1528TIP3    H2 4549   1.247   0.492   4.079
 1529TIP3   OH2 4550   0.959   0.483   3.551
 1529TIP3    H1 4551   1.034   0.544   3.564
 1529TIP3    H2 4552   0.882   0.540   3.548
 1530TIP3   OH2 4553   1.569   0.439   2.943
 1530TIP3    H1 4554   1.573   0.531   2.908
 1530TIP3    H2 4555   1.654   0.402   2.913
 1531TIP3   OH2 4556   1.970   0.828   4.282
 1531TIP3    H1 4557   1.970   0.732   4.296
 1531TIP3    H2 4558   1.887   0.853   4.328
 1532TIP3   OH2 4559   1.076   0.607   4.413
 1532TIP3    H1 4560   1.080   0.703   4.435
 1532TIP3    H2 4561   1.003   0.580   4.469
 1533TIP3   OH2 4562   0.826   0.752   3.339
 1533TIP3    H1 4563   0.735   0.717   3.340
 1533TIP3    H2 4564   0.815   0.835   3.388
 1534TIP3   OH2 4565   1.144   0.647   3.030
 1534TIP3    H1 4566   1.180   0.558   3.018
 1534TIP3    H2 4567   1.151   0.659   3.127
 1535TIP3   OH2 4568   1.093   0.691   3.296
 1535TIP3    H1 4569   0.997   0.697   3.317
 1535TIP3    H2 4570   1.129   0.652   3.377
 1536TIP3   OH2 4571   1.857  -0.028   4.576
 1536TIP3    H1 4572   1.770   0.002   4.544
 1536TIP3    H2 4573   1.854  -0.121   4.544
 1537TIP3   OH2 4574   1.667   1.172   4.383
 1537TIP3    H1 4575   1.662   1.197   4.289
 1537TIP3    H2 4576   1.744   1.223   4.413
 1538TIP3   OH2 4577   1.698   0.265   4.068
 1538TIP3    H1 4578   1.721   0.316   3.987
 1538TIP3    H2 4579   1.616   0.218   4.040
 1539TIP3   OH2 4580   1.229   0.371   4.434
 1539TIP3    H1 4581   1.168   0.307   4.474
 1539TIP3    H2 4582   1.173   0.451   4.435
 1540TIP3   OH2 4583   1.356   0.626   4.318
 1540TIP3    H1 4584   1.263   0.609   4.341
 1540TIP3    H2 4585   1.388   0.668   4.401
 1541TIP3   OH2 4586   1.984   0.539   4.320
 1541TIP3    H1 4587   1.886   0.532   4.312
 1541TIP3    H2 4588   2.010   0.506   4.231
 1542TIP3   OH2 4589   1.434   0.497   3.168
 1542TIP3    H1 4590   1.421   0.415   3.219
 1542TIP3    H2 4591   1.480   0.464   3.088
 1543TIP3   OH2 4592   1.473   0.126   3.983
 1543TIP3    H1 4593   1.379   0.109   3.995
 1543TIP3    H2 4594   1.502   0.046   3.935
 1544TIP3   OH2 4595   0.867   0.684   4.184
 1544TIP3    H1 4596   0.912   0.763   4.148
 1544TIP3    H2 4597   0.930   0.654   4.251
 1545TIP3   OH2 4598   0.594   0.623   3.562
 1545TIP3    H1 4599   0.504   0.587   3.575
 1545TIP3    H2 4600   0.581   0.717   3.581
 1546TIP3   OH2 4601   1.261   0.317   4.170
 1546TIP3    H1 4602   1.251   0.330   4.267
 1546TIP3    H2 4603   1.356   0.299   4.165
 1547TIP3   OH2 4604   1.496   0.860   4.218
 1547TIP3    H1 4605   1.419   0.798   4.219
 1547TIP3    H2 4606   1.472   0.920   4.144
 1548TIP3   OH2 4607   1.558   0.702   2.890
 1548TIP3    H1 4608   1.605   0.754   2.823
 1548TIP3    H2 4609   1.483   0.763   2.909
 1549TIP3   OH2 4610   1.394   0.173   3.284
 1549TIP3    H1 4611   1.373   0.094   3.339
 1549TIP3    H2 4612   1.490   0.158   3.268
 1550TIP3   OH2 4613   1.845  -0.281   4.473
 1550TIP3    H1 4614   1.778  -0.349   4.485
 1550TIP3    H2 4615   1.915  -0.329   4.426
 1551TIP3   OH2 4616   1.533  -0.115   3.864
 1551TIP3    H1 4617   1.470  -0.186   3.886
 1551TIP3    H2 4618   1.616  -0.150   3.905
 1552TIP3   OH2 4619   1.515   0.838   3.810
 1552TIP3    H1 4620   1.472   0.886   3.736
 1552TIP3    H2 4621   1.610   0.856   3.788
 1553TIP3   OH2 4622   0.775   0.849   4.840
 1553TIP3    H1 4623   0.870   0.835   4.825
 1553TIP3    H2 4624   0.737   0.776   4.787
 1554TIP3   OH2 4625   1.414   0.739   4.559
 1554TIP3    H1 4626   1.402   0.674   4.632
 1554TIP3    H2 4627   1.487   0.794   4.594
 1555TIP3   OH2 4628   1.515   0.357   4.363
 1555TIP3    H1 4629   1.580   0.419   4.324
 1555TIP3    H2 4630   1.436   0.412   4.375
 1556TIP3   OH2 4631   1.416   0.313   4.761
 1556TIP3    H1 4632   1.500   0.313   4.713
 1556TIP3    H2 4633   1.396   0.218   4.764
 1557TIP3   OH2 4634   1.614  -0.025   4.802
 1557TIP3    H1 4635   1.654  -0.108   4.830
 1557TIP3    H2 4636   1.687   0.037   4.809
 1558TIP3   OH2 4637   1.647   0.236   4.563
 1558TIP3    H1 4638   1.589   0.280   4.496
 1558TIP3    H2 4639   1.735   0.254   4.522
 1559TIP3   OH2 4640   1.773   0.921   3.773
 1559TIP3    H1 4641   1.800   0.954   3.861
 1559TIP3    H2 4642   1.836   0.964   3.714
 1560TIP3   OH2 4643   1.799   0.946   4.055
 1560TIP3    H1 4644   1.750   0.861   4.049
 1560TIP3    H2 4645   1.871   0.918   4.114
 1561TIP3   OH2 4646   1.847   0.622   4.628
 1561TIP3    H1 4647   1.775   0.633   4.693
 1561TIP3    H2 4648   1.889   0.710   4.630
 1562TIP3   OH2 4649   1.664   0.130   3.241
 1562TIP3    H1 4650   1.726   0.199   3.212
 1562TIP3    H2 4651   1.711   0.094   3.319
 1563TIP3   OH2 4652   1.793   0.001   3.449
 1563TIP3    H1 4653   1.723  -0.037   3.507
 1563TIP3    H2 4654   1.854   0.042   3.513
 1564TIP3   OH2 4655   1.848   0.400   3.881
 1564TIP3    H1 4656   1.899   0.331   3.834
 1564TIP3    H2 4657   1.847   0.472   3.815
 1565TIP3   OH2 4658   1.671   0.699   4.073
 1565TIP3    H1 4659   1.599   0.740   4.124
 1565TIP3    H2 4660   1.622   0.653   4.001
 1566TIP3   OH2 4661   1.750  -0.078   3.076
 1566TIP3    H1 4662   1.688  -0.080   3.001
 1566TIP3    H2 4663   1.708  -0.013   3.136
 1567TIP3   OH2 4664   1.608  -0.135   3.603
 1567TIP3    H1 4665   1.607  -0.231   3.606
 1567TIP3    H2 4666   1.583  -0.111   3.695
 1568TIP3   OH2 4667   1.891   0.292   4.453
 1568TIP3    H1 4668   1.960   0.224   4.438
 1568TIP3    H2 4669   1.911   0.357   4.384
 1569TIP3   OH2 4670   2.071   0.092   4.456
 1569TIP3    H1 4671   1.998   0.049   4.505
 1569TIP3    H2 4672   2.142   0.026   4.472
 1570TIP3   OH2 4673   1.749  -0.221   3.977
 1570TIP3    H1 4674   1.837  -0.206   3.937
 1570TIP3    H2 4675   1.767  -0.192   4.069
 1571TIP3   OH2 4676   1.817  -0.092   4.208
 1571TIP3    H1 4677   1.750  -0.057   4.271
 1571TIP3    H2 4678   1.852  -0.010   4.168
 1572TIP3   OH2 4679   1.355   0.797   3.430
 1572TIP3    H1 4680   1.400   0.785   3.344
 1572TIP3    H2 4681   1.409   0.866   3.471
 1573TIP3   OH2 4682   1.076   0.871   4.491
 1573TIP3    H1 4683   1.116   0.874   4.581
 1573TIP3    H2 4684   1.138   0.928   4.442
 1574TIP3   OH2 4685   1.253   1.030   4.359
 1574TIP3    H1 4686   1.324   0.979   4.316
 1574TIP3    H2 4687   1.306   1.087   4.420
 1575TIP3   OH2 4688   0.571   0.886   4.235
 1575TIP3    H1 4689   0.499   0.916   4.294
 1575TIP3    H2 4690   0.538   0.912   4.146
 1576TIP3   OH2 4691   0.973   0.898   4.036
 1576TIP3    H1 4692   0.900   0.914   3.974
 1576TIP3    H2 4693   0.982   0.986   4.078
 1577TIP3   OH2 4694   1.238   0.830   4.088
 1577TIP3    H1 4695   1.144   0.851   4.070
 1577TIP3    H2 4696   1.284   0.905   4.047
 1578TIP3   OH2 4697   1.444   1.023   4.003
 1578TIP3    H1 4698   1.430   1.107   3.955
 1578TIP3    H2 4699   1.471   0.962   3.930
 1579TIP3   OH2 4700   0.696   0.686   3.976
 1579TIP3    H1 4701   0.699   0.596   3.941
 1579TIP3    H2 4702   0.751   0.679   4.057
 1580TIP3   OH2 4703   1.497   0.762   3.197
 1580TIP3    H1 4704   1.478   0.665   3.191
 1580TIP3    H2 4705   1.456   0.793   3.114
 1581TIP3   OH2 4706   1.722   0.902   4.381
 1581TIP3    H1 4707   1.644   0.873   4.329
 1581TIP3    H2 4708   1.702   0.998   4.388
 1582TIP3   OH2 4709   2.995   0.267   3.147
 1582TIP3    H1 4710   2.961   0.357   3.128
 1582TIP3    H2 4711   2.923   0.214   3.105
 1583TIP3   OH2 4712   3.001   0.270   3.528
 1583TIP3    H1 4713   3.028   0.254   3.621
 1583TIP3    H2 4714   2.944   0.194   3.510
 1584TIP3   OH2 4715   2.286   0.172   3.891
 1584TIP3    H1 4716   2.317   0.097   3.946
 1584TIP3    H2 4717   2.366   0.227   3.892
 1585TIP3   OH2 4718   3.238   0.581   3.212
 1585TIP3    H1 4719   3.217   0.517   3.281
 1585TIP3    H2 4720   3.268   0.658   3.265
 1586TIP3   OH2 4721   2.264   0.582   3.616
 1586TIP3    H1 4722   2.255   0.485   3.616
 1586TIP3    H2 4723   2.361   0.591   3.607
 1587TIP3   OH2 4724   1.959  -0.226   3.403
 1587TIP3    H1 4725   1.929  -0.135   3.419
 1587TIP3    H2 4726   1.878  -0.264   3.368
 1588TIP3   OH2 4727   2.025   0.074   3.580
 1588TIP3    H1 4728   2.074  -0.006   3.610
 1588TIP3    H2 4729   2.087   0.114   3.519
 1589TIP3   OH2 4730   2.889   1.043   3.227
 1589TIP3    H1 4731   2.930   0.970   3.176
 1589TIP3    H2 4732   2.872   1.000   3.312
 1590TIP3   OH2 4733   2.786   0.505   3.576
 1590TIP3    H1 4734   2.825   0.432   3.527
 1590TIP3    H2 4735   2.869   0.550   3.604
 1591TIP3   OH2 4736   3.790  -0.168   3.515
 1591TIP3    H1 4737   3.766  -0.121   3.598
 1591TIP3    H2 4738   3.795  -0.089   3.456
 1592TIP3   OH2 4739   3.201   0.001   3.614
 1592TIP3    H1 4740   3.239  -0.082   3.644
 1592TIP3    H2 4741   3.164  -0.021   3.527
 1593TIP3   OH2 4742   2.524  -0.337   3.582
 1593TIP3    H1 4743   2.515  -0.271   3.511
 1593TIP3    H2 4744   2.516  -0.420   3.534
 1594TIP3   OH2 4745   3.233  -0.199   3.211
 1594TIP3    H1 4746   3.259  -0.286   3.245
 1594TIP3    H2 4747   3.257  -0.208   3.117
 1595TIP3   OH2 4748   2.163  -0.139   3.671
 1595TIP3    H1 4749   2.244  -0.152   3.727
 1595TIP3    H2 4750   2.191  -0.191   3.593
 1596TIP3   OH2 4751   2.613   0.066   3.477
 1596TIP3    H1 4752   2.705   0.036   3.492
 1596TIP3    H2 4753   2.570  -0.018   3.449
 1597TIP3   OH2 4754   3.835   0.019   3.738
 1597TIP3    H1 4755   3.759   0.081   3.726
 1597TIP3    H2 4756   3.891   0.069   3.800
 1598TIP3   OH2 4757   2.886   0.497   3.012
 1598TIP3    H1 4758   2.838   0.481   2.930
 1598TIP3    H2 4759   2.840   0.578   3.044
 1599TIP3   OH2 4760   2.644   0.422   3.799
 1599TIP3    H1 4761   2.584   0.491   3.836
 1599TIP3    H2 4762   2.685   0.470   3.724
 1600TIP3   OH2 4763   2.395  -0.202   3.785
 1600TIP3    H1 4764   2.471  -0.152   3.817
 1600TIP3    H2 4765   2.435  -0.263   3.719
 1601TIP3   OH2 4766   2.474   0.620   3.900
 1601TIP3    H1 4767   2.448   0.707   3.864
 1601TIP3    H2 4768   2.394   0.601   3.954
 1602TIP3   OH2 4769   1.863   0.307   3.146
 1602TIP3    H1 4770   1.825   0.326   3.058
 1602TIP3    H2 4771   1.891   0.396   3.175
 1603TIP3   OH2 4772   3.303   0.825   3.372
 1603TIP3    H1 4773   3.215   0.816   3.414
 1603TIP3    H2 4774   3.294   0.912   3.329
 1604TIP3   OH2 4775   3.005   0.866   3.046
 1604TIP3    H1 4776   3.055   0.783   3.029
 1604TIP3    H2 4777   3.068   0.931   3.008
 1605TIP3   OH2 4778   3.150   0.649   2.960
 1605TIP3    H1 4779   3.093   0.574   2.937
 1605TIP3    H2 4780   3.191   0.617   3.044
 1606TIP3   OH2 4781   3.529   0.733   3.720
 1606TIP3    H1 4782   3.516   0.656   3.661
 1606TIP3    H2 4783   3.509   0.808   3.660
 1607TIP3   OH2 4784   2.824   0.131   2.989
 1607TIP3    H1 4785   2.745   0.182   2.961
 1607TIP3    H2 4786   2.867   0.112   2.904
 1608TIP3   OH2 4787   2.787  -0.086   2.696
 1608TIP3    H1 4788   2.854  -0.034   2.744
 1608TIP3    H2 4789   2.845  -0.142   2.641
 1609TIP3   OH2 4790   3.724   0.373   3.563
 1609TIP3    H1 4791   3.641   0.425   3.565
 1609TIP3    H2 4792   3.757   0.398   3.474
 1610TIP3   OH2 4793   3.171   0.214   2.945
 1610TIP3    H1 4794   3.115   0.235   3.023
 1610TIP3    H2 4795   3.256   0.192   2.988
 1611TIP3   OH2 4796   3.396   0.258   3.866
 1611TIP3    H1 4797   3.392   0.339   3.921
 1611TIP3    H2 4798   3.308   0.261   3.823
 1612TIP3   OH2 4799   2.402   0.207   3.366
 1612TIP3    H1 4800   2.361   0.149   3.298
 1612TIP3    H2 4801   2.478   0.154   3.396
 1613TIP3   OH2 4802   2.530   0.620   3.513
 1613TIP3    H1 4803   2.510   0.589   3.423
 1613TIP3    H2 4804   2.619   0.581   3.529
 1614TIP3   OH2 4805   2.542   0.175   3.725
 1614TIP3    H1 4806   2.570   0.152   3.634
 1614TIP3    H2 4807   2.582   0.263   3.739
 1615TIP3   OH2 4808   3.066   0.817   3.499
 1615TIP3    H1 4809   3.051   0.898   3.550
 1615TIP3    H2 4810   3.046   0.746   3.563
 1616TIP3   OH2 4811   2.677   0.736   4.045
 1616TIP3    H1 4812   2.615   0.796   4.091
 1616TIP3    H2 4813   2.614   0.682   3.992
 1617TIP3   OH2 4814   3.008   0.062   2.779
 1617TIP3    H1 4815   3.065   0.126   2.827
 1617TIP3    H2 4816   3.035   0.081   2.686
 1618TIP3   OH2 4817   2.434   0.289   4.152
 1618TIP3    H1 4818   2.438   0.379   4.191
 1618TIP3    H2 4819   2.339   0.269   4.164
 1619TIP3   OH2 4820   2.758   0.741   3.050
 1619TIP3    H1 4821   2.837   0.797   3.057
 1619TIP3    H2 4822   2.694   0.801   3.008
 1620TIP3   OH2 4823   2.469   0.900   4.133
 1620TIP3    H1 4824   2.435   0.904   4.042
 1620TIP3    H2 4825   2.389   0.878   4.185
 1621TIP3   OH2 4826   2.271   0.054   3.164
 1621TIP3    H1 4827   2.201   0.103   3.116
 1621TIP3    H2 4828   2.229  -0.031   3.178
 1622TIP3   OH2 4829   3.325   0.676   2.369
 1622TIP3    H1 4830   3.333   0.773   2.358
 1622TIP3    H2 4831   3.418   0.647   2.355
 1623TIP3   OH2 4832   2.049   0.436   4.079
 1623TIP3    H1 4833   1.980   0.417   4.011
 1623TIP3    H2 4834   2.086   0.348   4.098
 1624TIP3   OH2 4835   1.902   0.627   3.712
 1624TIP3    H1 4836   1.999   0.627   3.702
 1624TIP3    H2 4837   1.888   0.707   3.765
 1625TIP3   OH2 4838   3.768   1.084   3.771
 1625TIP3    H1 4839   3.766   0.988   3.785
 1625TIP3    H2 4840   3.684   1.110   3.815
 1626TIP3   OH2 4841   2.873   0.864   3.903
 1626TIP3    H1 4842   2.867   0.956   3.935
 1626TIP3    H2 4843   2.800   0.822   3.956
 1627TIP3   OH2 4844   2.642   0.993   2.854
 1627TIP3    H1 4845   2.590   0.980   2.773
 1627TIP3    H2 4846   2.605   1.077   2.888
 1628TIP3   OH2 4847   2.075   0.841   3.239
 1628TIP3    H1 4848   2.118   0.830   3.326
 1628TIP3    H2 4849   2.020   0.761   3.235
 1629TIP3   OH2 4850   2.840   0.897   2.492
 1629TIP3    H1 4851   2.899   0.826   2.459
 1629TIP3    H2 4852   2.872   0.908   2.584
 1630TIP3   OH2 4853   2.890   0.944   2.759
 1630TIP3    H1 4854   2.800   0.955   2.798
 1630TIP3    H2 4855   2.938   0.908   2.836
 1631TIP3   OH2 4856   3.653   0.233   4.072
 1631TIP3    H1 4857   3.568   0.253   4.029
 1631TIP3    H2 4858   3.665   0.138   4.046
 1632TIP3   OH2 4859   2.253   0.619   4.063
 1632TIP3    H1 4860   2.302   0.601   4.145
 1632TIP3    H2 4861   2.178   0.556   4.069
 1633TIP3   OH2 4862   3.406  -0.016   3.952
 1633TIP3    H1 4863   3.359  -0.036   4.036
 1633TIP3    H2 4864   3.380   0.076   3.934
 1634TIP3   OH2 4865   3.087   0.108   2.523
 1634TIP3    H1 4866   3.052   0.084   2.435
 1634TIP3    H2 4867   3.168   0.155   2.498
 1635TIP3   OH2 4868   2.602  -0.044   3.878
 1635TIP3    H1 4869   2.542  -0.026   3.953
 1635TIP3    H2 4870   2.584   0.036   3.822
 1636TIP3   OH2 4871   2.469  -0.151   3.390
 1636TIP3    H1 4872   2.377  -0.185   3.397
 1636TIP3    H2 4873   2.494  -0.181   3.299
 1637TIP3   OH2 4874   3.144   0.226   4.176
 1637TIP3    H1 4875   3.112   0.158   4.240
 1637TIP3    H2 4876   3.237   0.234   4.205
 1638TIP3   OH2 4877   3.097  -0.024   3.363
 1638TIP3    H1 4878   3.062   0.047   3.306
 1638TIP3    H2 4879   3.151  -0.077   3.300
 1639TIP3   OH2 4880   2.409  -0.003   4.068
 1639TIP3    H1 4881   2.426   0.061   4.139
 1639TIP3    H2 4882   2.391  -0.085   4.119
 1640TIP3   OH2 4883   2.476  -0.545   2.881
 1640TIP3    H1 4884   2.450  -0.589   2.964
 1640TIP3    H2 4885   2.393  -0.510   2.846
 1641TIP3   OH2 4886   3.121   0.201   3.775
 1641TIP3    H1 4887   3.157   0.132   3.715
 1641TIP3    H2 4888   3.094   0.144   3.850
 1642TIP3   OH2 4889   2.224  -0.285   3.444
 1642TIP3    H1 4890   2.130  -0.270   3.420
 1642TIP3    H2 4891   2.223  -0.379   3.473
 1643TIP3   OH2 4892   2.540  -0.250   3.146
 1643TIP3    H1 4893   2.604  -0.285   3.083
 1643TIP3    H2 4894   2.460  -0.246   3.088
 1644TIP3   OH2 4895   2.361  -0.237   2.941
 1644TIP3    H1 4896   2.276  -0.255   2.897
 1644TIP3    H2 4897   2.416  -0.206   2.866
 1645TIP3   OH2 4898   3.463   1.429   3.868
 1645TIP3    H1 4899   3.458   1.455   3.775
 1645TIP3    H2 4900   3.540   1.479   3.899
 1646TIP3   OH2 4901   2.416   0.541   4.286
 1646TIP3    H1 4902   2.496   0.569   4.336
 1646TIP3    H2 4903   2.351   0.537   4.359
 1647TIP3   OH2 4904   2.867  -0.013   3.550
 1647TIP3    H1 4905   2.954  -0.040   3.515
 1647TIP3    H2 4906   2.868  -0.053   3.640
 1648TIP3   OH2 4907   2.866  -0.099   3.816
 1648TIP3    H1 4908   2.774  -0.079   3.846
 1648TIP3    H2 4909   2.920  -0.049   3.880
 1649TIP3   OH2 4910   2.593   0.278   2.927
 1649TIP3    H1 4911   2.521   0.214   2.915
 1649TIP3    H2 4912   2.572   0.313   3.017
 1650TIP3   OH2 4913   3.490   0.516   3.552
 1650TIP3    H1 4914   3.513   0.570   3.473
 1650TIP3    H2 4915   3.405   0.475   3.526
 1651TIP3   OH2 4916   3.050  -0.392   2.747
 1651TIP3    H1 4917   2.976  -0.428   2.796
 1651TIP3    H2 4918   3.079  -0.317   2.803
 1652TIP3   OH2 4919   2.990   0.601   3.924
 1652TIP3    H1 4920   3.020   0.582   4.014
 1652TIP3    H2 4921   2.951   0.689   3.932
 1653TIP3   OH2 4922   3.130  -0.170   2.888
 1653TIP3    H1 4923   3.221  -0.140   2.906
 1653TIP3    H2 4924   3.087  -0.088   2.856
 1654TIP3   OH2 4925   2.287   0.305   3.600
 1654TIP3    H1 4926   2.325   0.274   3.516
 1654TIP3    H2 4927   2.326   0.245   3.665
 1655TIP3   OH2 4928   2.734   0.432   2.749
 1655TIP3    H1 4929   2.685   0.518   2.753
 1655TIP3    H2 4930   2.680   0.377   2.812
 1656TIP3   OH2 4931   2.170   0.222   4.215
 1656TIP3    H1 4932   2.183   0.208   4.311
 1656TIP3    H2 4933   2.100   0.158   4.195
 1657TIP3   OH2 4934   2.894   0.343   4.233
 1657TIP3    H1 4935   2.832   0.278   4.197
 1657TIP3    H2 4936   2.979   0.312   4.196
 1658TIP3   OH2 4937   3.149   0.858   3.823
 1658TIP3    H1 4938   3.052   0.858   3.837
 1658TIP3    H2 4939   3.177   0.912   3.900
 1659TIP3   OH2 4940   3.550  -0.067   2.731
 1659TIP3    H1 4941   3.495  -0.115   2.664
 1659TIP3    H2 4942   3.544   0.022   2.691
 1660TIP3   OH2 4943   3.780   0.795   3.807
 1660TIP3    H1 4944   3.682   0.788   3.799
 1660TIP3    H2 4945   3.806   0.763   3.718
 1661TIP3   OH2 4946   3.266   0.751   2.640
 1661TIP3    H1 4947   3.231   0.690   2.706
 1661TIP3    H2 4948   3.271   0.697   2.560
 1662TIP3   OH2 4949   3.256   0.383   3.468
 1662TIP3    H1 4950   3.163   0.358   3.485
 1662TIP3    H2 4951   3.288   0.304   3.421
 1663TIP3   OH2 4952   2.387   0.610   3.228
 1663TIP3    H1 4953   2.379   0.691   3.174
 1663TIP3    H2 4954   2.294   0.589   3.243
 1664TIP3   OH2 4955   1.994  -0.102   2.945
 1664TIP3    H1 4956   2.022  -0.009   2.957
 1664TIP3    H2 4957   1.910  -0.100   2.997
 1665TIP3   OH2 4958   2.515   0.372   3.167
 1665TIP3    H1 4959   2.482   0.461   3.188
 1665TIP3    H2 4960   2.481   0.321   3.243
 1666TIP3   OH2 4961   2.656   0.951   3.695
 1666TIP3    H1 4962   2.698   1.024   3.644
 1666TIP3    H2 4963   2.733   0.913   3.741
 1667TIP3   OH2 4964   2.305   0.843   3.080
 1667TIP3    H1 4965   2.219   0.856   3.125
 1667TIP3    H2 4966   2.341   0.935   3.083
 1668TIP3   OH2 4967   3.038   0.582   3.657
 1668TIP3    H1 4968   3.026   0.583   3.755
 1668TIP3    H2 4969   3.121   0.534   3.649
 1669TIP3   OH2 4970   3.019   0.482   2.539
 1669TIP3    H1 4971   3.074   0.454   2.616
 1669TIP3    H2 4972   2.932   0.454   2.569
 1670TIP3   OH2 4973   3.290   1.114   3.703
 1670TIP3    H1 4974   3.208   1.061   3.698
 1670TIP3    H2 4975   3.274   1.180   3.632
 1671TIP3   OH2 4976   3.359   0.957   2.348
 1671TIP3    H1 4977   3.399   1.043   2.325
 1671TIP3    H2 4978   3.275   0.990   2.387
 1672TIP3   OH2 4979   2.371  -0.221   4.230
 1672TIP3    H1 4980   2.294  -0.277   4.208
 1672TIP3    H2 4981   2.418  -0.280   4.292
 1673TIP3   OH2 4982   3.182   0.406   2.745
 1673TIP3    H1 4983   3.169   0.345   2.820
 1673TIP3    H2 4984   3.280   0.405   2.739
 1674TIP3   OH2 4985   2.095   0.811   3.853
 1674TIP3    H1 4986   2.148   0.738   3.889
 1674TIP3    H2 4987   2.120   0.884   3.911
 1675TIP3   OH2 4988   2.391   0.449   2.536
 1675TIP3    H1 4989   2.406   0.354   2.520
 1675TIP3    H2 4990   2.369   0.448   2.632
 1676TIP3   OH2 4991   2.334   0.465   2.804
 1676TIP3    H1 4992   2.396   0.436   2.872
 1676TIP3    H2 4993   2.334   0.563   2.817
 1677TIP3   OH2 4994   2.066   0.165   3.020
 1677TIP3    H1 4995   1.995   0.205   3.075
 1677TIP3    H2 4996   2.073   0.234   2.950
 1678TIP3   OH2 4997   2.598   0.665   2.758
 1678TIP3    H1 4998   2.509   0.681   2.795
 1678TIP3    H2 4999   2.609   0.747   2.707
 1679TIP3   OH2 5000   3.066   0.033   3.984
 1679TIP3    H1 5001   3.078   0.100   4.054
 1679TIP3    H2 5002   3.115  -0.042   4.020
 1680TIP3   OH2 5003   2.342   0.733   2.832
 1680TIP3    H1 5004   2.314   0.804   2.770
 1680TIP3    H2 5005   2.323   0.775   2.919
 1681TIP3   OH2 5006   3.677  -0.020   3.980
 1681TIP3    H1 5007   3.582  -0.036   3.962
 1681TIP3    H2 5008   3.721  -0.054   3.901
 1682TIP3   OH2 5009   3.337   0.139   3.348
 1682TIP3    H1 5010   3.266   0.086   3.386
 1682TIP3    H2 5011   3.415   0.099   3.393
 1683TIP3   OH2 5012   2.059   0.368   2.816
 1683TIP3    H1 5013   2.123   0.441   2.820
 1683TIP3    H2 5014   2.107   0.306   2.756
 1684TIP3   OH2 5015   3.313   1.094   3.297
 1684TIP3    H1 5016   3.269   1.141   3.222
 1684TIP3    H2 5017   3.407   1.112   3.275
 1685TIP3   OH2 5018   1.922   0.574   3.202
 1685TIP3    H1 5019   1.861   0.606   3.271
 1685TIP3    H2 5020   1.886   0.620   3.122
 1686TIP3   OH2 5021   2.085   1.128   4.275
 1686TIP3    H1 5022   2.172   1.126   4.320
 1686TIP3    H2 5023   2.062   1.034   4.275
 1687TIP3   OH2 5024   2.562   1.085   4.316
 1687TIP3    H1 5025   2.655   1.062   4.325
 1687TIP3    H2 5026   2.534   1.020   4.249
 1688TIP3   OH2 5027   2.544   0.658   2.449
 1688TIP3    H1 5028   2.488   0.586   2.487
 1688TIP3    H2 5029   2.622   0.607   2.421
 1689TIP3   OH2 5030   3.202   0.993   4.057
 1689TIP3    H1 5031   3.196   0.924   4.126
 1689TIP3    H2 5032   3.279   1.046   4.087
 1690TIP3   OH2 5033   2.986   0.698   2.366
 1690TIP3    H1 5034   3.020   0.630   2.427
 1690TIP3    H2 5035   3.044   0.690   2.288
 1691TIP3   OH2 5036   2.213   0.530   4.477
 1691TIP3    H1 5037   2.226   0.434   4.489
 1691TIP3    H2 5038   2.127   0.533   4.431
 1692TIP3   OH2 5039   2.210   0.190   2.684
 1692TIP3    H1 5040   2.264   0.157   2.758
 1692TIP3    H2 5041   2.274   0.185   2.610
 1693TIP3   OH2 5042   2.820   0.618   4.253
 1693TIP3    H1 5043   2.778   0.639   4.167
 1693TIP3    H2 5044   2.849   0.525   4.241
 1694TIP3   OH2 5045   2.714   0.376   2.482
 1694TIP3    H1 5046   2.708   0.392   2.579
 1694TIP3    H2 5047   2.721   0.277   2.482
 1695TIP3   OH2 5048   3.312   0.628   3.860
 1695TIP3    H1 5049   3.388   0.670   3.817
 1695TIP3    H2 5050   3.242   0.695   3.845
 1696TIP3   OH2 5051   2.340   0.264   4.462
 1696TIP3    H1 5052   2.423   0.225   4.430
 1696TIP3    H2 5053   2.367   0.300   4.549
 1697TIP3   OH2 5054   2.395   0.086   2.891
 1697TIP3    H1 5055   2.367   0.052   2.978
 1697TIP3    H2 5056   2.436   0.007   2.850
 1698TIP3   OH2 5057   2.676   0.154   4.127
 1698TIP3    H1 5058   2.593   0.206   4.122
 1698TIP3    H2 5059   2.724   0.184   4.046
 1699TIP3   OH2 5060   2.517  -0.122   2.745
 1699TIP3    H1 5061   2.504  -0.098   2.650
 1699TIP3    H2 5062   2.615  -0.125   2.746
 1700TIP3   OH2 5063   3.189   0.552   4.256
 1700TIP3    H1 5064   3.258   0.509   4.205
 1700TIP3    H2 5065   3.175   0.488   4.328
 1701TIP3   OH2 5066   3.321   0.204   2.401
 1701TIP3    H1 5067   3.300   0.162   2.315
 1701TIP3    H2 5068   3.286   0.295   2.382
 1702TIP3   OH2 5069   2.781  -0.054   4.263
 1702TIP3    H1 5070   2.769  -0.140   4.220
 1702TIP3    H2 5071   2.739   0.008   4.199
 1703TIP3   OH2 5072   2.822   0.255   3.925
 1703TIP3    H1 5073   2.906   0.278   3.884
 1703TIP3    H2 5074   2.760   0.318   3.881
 1704TIP3   OH2 5075   3.393   0.227   4.302
 1704TIP3    H1 5076   3.429   0.158   4.363
 1704TIP3    H2 5077   3.473   0.268   4.269
 1705TIP3   OH2 5078   3.442   0.480   4.044
 1705TIP3    H1 5079   3.383   0.535   3.987
 1705TIP3    H2 5080   3.529   0.505   4.005
 1706TIP3   OH2 5081   2.652   0.075   4.481
 1706TIP3    H1 5082   2.581   0.008   4.488
 1706TIP3    H2 5083   2.697   0.046   4.399
 1707TIP3   OH2 5084   3.043   0.021   4.315
 1707TIP3    H1 5085   3.064  -0.039   4.390
 1707TIP3    H2 5086   2.948  -0.001   4.302
 1708TIP3   OH2 5087   3.292  -0.071   4.200
 1708TIP3    H1 5088   3.219  -0.050   4.261
 1708TIP3    H2 5089   3.355  -0.116   4.260
 1709TIP3   OH2 5090   2.493  -0.145   4.534
 1709TIP3    H1 5091   2.516  -0.228   4.488
 1709TIP3    H2 5092   2.553  -0.150   4.610
 1710TIP3   OH2 5093   2.303   0.918   2.633
 1710TIP3    H1 5094   2.397   0.927   2.609
 1710TIP3    H2 5095   2.263   0.983   2.573
 1711TIP3   OH2 5096   1.801   0.315   2.878
 1711TIP3    H1 5097   1.894   0.335   2.851
 1711TIP3    H2 5098   1.773   0.253   2.810
 1712TIP3   OH2 5099   1.703   0.933   3.276
 1712TIP3    H1 5100   1.640   0.874   3.230
 1712TIP3    H2 5101   1.747   0.870   3.336
 1713TIP3   OH2 5102   1.841   0.774   3.456
 1713TIP3    H1 5103   1.825   0.707   3.525
 1713TIP3    H2 5104   1.892   0.839   3.508
 1714TIP3   OH2 5105   3.570   1.176   3.260
 1714TIP3    H1 5106   3.592   1.211   3.349
 1714TIP3    H2 5107   3.629   1.228   3.203
 1715TIP3   OH2 5108   3.592   1.201   3.541
 1715TIP3    H1 5109   3.547   1.114   3.537
 1715TIP3    H2 5110   3.667   1.178   3.598
 1716TIP3   OH2 5111   3.643   0.878   4.117
 1716TIP3    H1 5112   3.570   0.890   4.181
 1716TIP3    H2 5113   3.684   0.967   4.118
 1717TIP3   OH2 5114   3.461   0.391   2.731
 1717TIP3    H1 5115   3.526   0.458   2.702
 1717TIP3    H2 5116   3.506   0.355   2.810
 1718TIP3   OH2 5117   3.587   0.258   2.936
 1718TIP3    H1 5118   3.519   0.219   2.996
 1718TIP3    H2 5119   3.652   0.296   2.998
 1719TIP3   OH2 5120   3.645   0.656   3.369
 1719TIP3    H1 5121   3.695   0.587   3.321
 1719TIP3    H2 5122   3.640   0.728   3.302
 1720TIP3   OH2 5123   3.467   0.953   3.562
 1720TIP3    H1 5124   3.395   0.996   3.611
 1720TIP3    H2 5125   3.418   0.909   3.489
 1721TIP3   OH2 5126   3.520   0.166   2.582
 1721TIP3    H1 5127   3.450   0.172   2.513
 1721TIP3    H2 5128   3.493   0.242   2.638
 1722TIP3   OH2 5129   3.393  -0.174   2.535
 1722TIP3    H1 5130   3.361  -0.105   2.474
 1722TIP3    H2 5131   3.349  -0.251   2.497
 1723TIP3   OH2 5132   3.397   0.118   3.080
 1723TIP3    H1 5133   3.397   0.022   3.069
 1723TIP3    H2 5134   3.378   0.129   3.176
 1724TIP3   OH2 5135   2.022   0.191   3.830
 1724TIP3    H1 5136   2.019   0.156   3.739
 1724TIP3    H2 5137   2.119   0.191   3.846
 1725TIP3   OH2 5138   3.687   0.549   3.938
 1725TIP3    H1 5139   3.757   0.481   3.925
 1725TIP3    H2 5140   3.710   0.616   3.872
 1726TIP3   OH2 5141   3.866   0.348   3.943
 1726TIP3    H1 5142   3.794   0.307   3.995
 1726TIP3    H2 5143   3.936   0.281   3.956
 1727TIP3   OH2 5144   3.406  -0.165   2.968
 1727TIP3    H1 5145   3.416  -0.261   2.963
 1727TIP3    H2 5146   3.462  -0.134   2.894
 1728TIP3   OH2 5147   3.549   0.029   3.472
 1728TIP3    H1 5148   3.635   0.050   3.431
 1728TIP3    H2 5149   3.561   0.067   3.561
 1729TIP3   OH2 5150   3.609   0.166   3.701
 1729TIP3    H1 5151   3.535   0.198   3.756
 1729TIP3    H2 5152   3.643   0.248   3.661
 1730TIP3   OH2 5153   2.221  -0.129   4.497
 1730TIP3    H1 5154   2.319  -0.125   4.498
 1730TIP3    H2 5155   2.205  -0.218   4.530
 1731TIP3   OH2 5156   2.003  -0.165   3.899
 1731TIP3    H1 5157   2.058  -0.154   3.819
 1731TIP3    H2 5158   2.033  -0.091   3.954
 1732TIP3   OH2 5159   3.153   1.048   2.914
 1732TIP3    H1 5160   3.206   1.045   2.832
 1732TIP3    H2 5161   3.197   1.119   2.963
 1733TIP3   OH2 5162   2.248   0.861   4.299
 1733TIP3    H1 5163   2.156   0.835   4.281
 1733TIP3    H2 5164   2.260   0.832   4.390
 1734TIP3   OH2 5165   2.432   0.892   3.847
 1734TIP3    H1 5166   2.382   0.966   3.807
 1734TIP3    H2 5167   2.517   0.906   3.801
 1735TIP3   OH2 5168   2.867   1.131   3.984
 1735TIP3    H1 5169   2.911   1.129   4.072
 1735TIP3    H2 5170   2.933   1.183   3.932
 1736TIP3   OH2 5171   3.047   1.285   3.848
 1736TIP3    H1 5172   3.117   1.237   3.801
 1736TIP3    H2 5173   3.102   1.342   3.907
 1737TIP3   OH2 5174   2.103   1.146   3.871
 1737TIP3    H1 5175   2.014   1.177   3.846
 1737TIP3    H2 5176   2.112   1.186   3.958
 1738TIP3   OH2 5177   2.341   1.123   3.730
 1738TIP3    H1 5178   2.252   1.136   3.772
 1738TIP3    H2 5179   2.323   1.155   3.639
 1739TIP3   OH2 5180   2.766   1.148   3.527
 1739TIP3    H1 5181   2.694   1.163   3.463
 1739TIP3    H2 5182   2.776   1.238   3.565
 1740TIP3   OH2 5183   3.035   1.087   3.581
 1740TIP3    H1 5184   2.941   1.106   3.561
 1740TIP3    H2 5185   3.080   1.159   3.534
 1741TIP3   OH2 5186   3.239   1.278   3.490
 1741TIP3    H1 5187   3.226   1.363   3.443
 1741TIP3    H2 5188   3.267   1.219   3.417
 1742TIP3   OH2 5189   2.014   0.936   3.614
 1742TIP3    H1 5190   2.042   0.907   3.704
 1742TIP3    H2 5191   2.086   0.894   3.562
 1743TIP3   OH2 5192   2.210   0.810   3.476
 1743TIP3    H1 5193   2.225   0.727   3.526
 1743TIP3    H2 5194   2.301   0.846   3.470
 1744TIP3   OH2 5195   2.478   0.900   3.480
 1744TIP3    H1 5196   2.507   0.807   3.470
 1744TIP3    H2 5197   2.527   0.924   3.561
 1745TIP3   OH2 5198   1.804   0.716   3.011
 1745TIP3    H1 5199   1.713   0.689   2.987
 1745TIP3    H2 5200   1.803   0.804   2.968
 1746TIP3   OH2 5201   2.579   0.893   2.588
 1746TIP3    H1 5202   2.667   0.916   2.550
 1746TIP3    H2 5203   2.555   0.819   2.528
 1747TIP3   OH2 5204   3.300   1.020   2.680
 1747TIP3    H1 5205   3.291   0.922   2.672
 1747TIP3    H2 5206   3.247   1.048   2.602
 1748TIP3   OH2 5207   3.518   1.159   3.867
 1748TIP3    H1 5208   3.440   1.129   3.815
 1748TIP3    H2 5209   3.499   1.255   3.874
 1749TIP3   OH2 5210   4.789   0.537   2.627
 1749TIP3    H1 5211   4.757   0.627   2.606
 1749TIP3    H2 5212   4.712   0.484   2.602
 1750TIP3   OH2 5213   4.785   0.532   3.021
 1750TIP3    H1 5214   4.823   0.510   3.108
 1750TIP3    H2 5215   4.750   0.447   2.993
 1751TIP3   OH2 5216   4.082   0.430   3.380
 1751TIP3    H1 5217   4.112   0.356   3.437
 1751TIP3    H2 5218   4.165   0.479   3.369
 1752TIP3   OH2 5219   5.033   0.839   2.700
 1752TIP3    H1 5220   5.016   0.771   2.767
 1752TIP3    H2 5221   5.065   0.913   2.754
 1753TIP3   OH2 5222   4.060   0.837   3.099
 1753TIP3    H1 5223   4.051   0.740   3.101
 1753TIP3    H2 5224   4.156   0.847   3.095
 1754TIP3   OH2 5225   3.753   0.029   2.894
 1754TIP3    H1 5226   3.710   0.115   2.913
 1754TIP3    H2 5227   3.685  -0.012   2.837
 1755TIP3   OH2 5228   3.820   0.329   3.064
 1755TIP3    H1 5229   3.868   0.248   3.095
 1755TIP3    H2 5230   3.886   0.370   3.007
 1756TIP3   OH2 5231   4.684   1.296   2.714
 1756TIP3    H1 5232   4.725   1.224   2.662
 1756TIP3    H2 5233   4.673   1.254   2.800
 1757TIP3   OH2 5234   4.584   0.760   3.064
 1757TIP3    H1 5235   4.626   0.681   3.024
 1757TIP3    H2 5236   4.666   0.808   3.088
 1758TIP3   OH2 5237   5.586   0.110   3.038
 1758TIP3    H1 5238   5.598   0.183   3.102
 1758TIP3    H2 5239   5.575   0.160   2.956
 1759TIP3   OH2 5240   4.990   0.258   3.097
 1759TIP3    H1 5241   5.022   0.172   3.125
 1759TIP3    H2 5242   4.959   0.240   3.006
 1760TIP3   OH2 5243   4.324  -0.080   3.061
 1760TIP3    H1 5244   4.301  -0.014   2.992
 1760TIP3    H2 5245   4.274  -0.158   3.031
 1761TIP3   OH2 5246   5.037   0.038   2.694
 1761TIP3    H1 5247   5.082  -0.028   2.748
 1761TIP3    H2 5248   5.075   0.025   2.606
 1762TIP3   OH2 5249   3.956   0.115   3.161
 1762TIP3    H1 5250   4.041   0.104   3.211
 1762TIP3    H2 5251   3.980   0.063   3.082
 1763TIP3   OH2 5252   4.411   0.320   2.967
 1763TIP3    H1 5253   4.505   0.293   2.976
 1763TIP3    H2 5254   4.370   0.236   2.935
 1764TIP3   OH2 5255   5.647   0.302   3.227
 1764TIP3    H1 5256   5.562   0.350   3.224
 1764TIP3    H2 5257   5.691   0.344   3.303
 1765TIP3   OH2 5258   4.682   0.760   2.494
 1765TIP3    H1 5259   4.632   0.742   2.413
 1765TIP3    H2 5260   4.633   0.839   2.527
 1766TIP3   OH2 5261   4.440   0.678   3.285
 1766TIP3    H1 5262   4.382   0.748   3.321
 1766TIP3    H2 5263   4.483   0.725   3.210
 1767TIP3   OH2 5264   4.194   0.053   3.264
 1767TIP3    H1 5265   4.268   0.106   3.299
 1767TIP3    H2 5266   4.238  -0.007   3.201
 1768TIP3   OH2 5267   4.270   0.877   3.386
 1768TIP3    H1 5268   4.245   0.965   3.351
 1768TIP3    H2 5269   4.190   0.858   3.439
 1769TIP3   OH2 5270   3.658   0.566   2.619
 1769TIP3    H1 5271   3.612   0.604   2.543
 1769TIP3    H2 5272   3.693   0.648   2.661
 1770TIP3   OH2 5273   5.098   1.082   2.859
 1770TIP3    H1 5274   5.009   1.073   2.900
 1770TIP3    H2 5275   5.090   1.169   2.815
 1771TIP3   OH2 5276   4.799   1.121   2.530
 1771TIP3    H1 5277   4.852   1.039   2.513
 1771TIP3    H2 5278   4.862   1.187   2.493
 1772TIP3   OH2 5279   4.944   0.902   2.448
 1772TIP3    H1 5280   4.878   0.831   2.436
 1772TIP3    H2 5281   4.987   0.874   2.532
 1773TIP3   OH2 5282   5.325   0.989   3.207
 1773TIP3    H1 5283   5.313   0.912   3.147
 1773TIP3    H2 5284   5.306   1.064   3.147
 1774TIP3   OH2 5285   4.618   0.385   2.461
 1774TIP3    H1 5286   4.536   0.437   2.448
 1774TIP3    H2 5287   4.659   0.389   2.374
 1775TIP3   OH2 5288   4.572   0.174   2.183
 1775TIP3    H1 5289   4.636   0.224   2.236
 1775TIP3    H2 5290   4.634   0.120   2.129
 1776TIP3   OH2 5291   5.519   0.632   3.051
 1776TIP3    H1 5292   5.436   0.683   3.052
 1776TIP3    H2 5293   5.552   0.654   2.961
 1777TIP3   OH2 5294   4.968   0.466   2.436
 1777TIP3    H1 5295   4.912   0.490   2.514
 1777TIP3    H2 5296   5.052   0.444   2.481
 1778TIP3   OH2 5297   5.191   0.515   3.355
 1778TIP3    H1 5298   5.185   0.597   3.407
 1778TIP3    H2 5299   5.105   0.516   3.309
 1779TIP3   OH2 5300   4.200   0.465   2.854
 1779TIP3    H1 5301   4.157   0.406   2.789
 1779TIP3    H2 5302   4.275   0.410   2.885
 1780TIP3   OH2 5303   4.329   0.877   3.000
 1780TIP3    H1 5304   4.310   0.842   2.912
 1780TIP3    H2 5305   4.418   0.839   3.018
 1781TIP3   OH2 5306   4.331   0.435   3.209
 1781TIP3    H1 5307   4.365   0.407   3.122
 1781TIP3    H2 5308   4.377   0.520   3.224
 1782TIP3   OH2 5309   4.859   1.075   2.984
 1782TIP3    H1 5310   4.847   1.155   3.038
 1782TIP3    H2 5311   4.842   1.002   3.047
 1783TIP3   OH2 5312   4.473   0.993   3.533
 1783TIP3    H1 5313   4.410   1.053   3.577
 1783TIP3    H2 5314   4.411   0.939   3.480
 1784TIP3   OH2 5315   4.816   0.328   2.254
 1784TIP3    H1 5316   4.867   0.387   2.314
 1784TIP3    H2 5317   4.856   0.350   2.167
 1785TIP3   OH2 5318   4.232   0.545   3.642
 1785TIP3    H1 5319   4.234   0.636   3.679
 1785TIP3    H2 5320   4.136   0.526   3.650
 1786TIP3   OH2 5321   4.552   1.001   2.536
 1786TIP3    H1 5322   4.635   1.052   2.542
 1786TIP3    H2 5323   4.491   1.066   2.497
 1787TIP3   OH2 5324   4.266   1.157   3.620
 1787TIP3    H1 5325   4.231   1.163   3.529
 1787TIP3    H2 5326   4.185   1.135   3.672
 1788TIP3   OH2 5327   4.063   0.310   2.660
 1788TIP3    H1 5328   3.990   0.348   2.607
 1788TIP3    H2 5329   4.042   0.216   2.661
 1789TIP3   OH2 5330   5.118   0.923   1.861
 1789TIP3    H1 5331   5.124   1.020   1.844
 1789TIP3    H2 5332   5.211   0.897   1.849
 1790TIP3   OH2 5333   3.844   0.694   3.566
 1790TIP3    H1 5334   3.776   0.674   3.498
 1790TIP3    H2 5335   3.883   0.606   3.584
 1791TIP3   OH2 5336   3.698   0.886   3.196
 1791TIP3    H1 5337   3.795   0.884   3.192
 1791TIP3    H2 5338   3.683   0.965   3.250
 1792TIP3   OH2 5339   5.561   1.339   3.259
 1792TIP3    H1 5340   5.561   1.242   3.271
 1792TIP3    H2 5341   5.477   1.362   3.303
 1793TIP3   OH2 5342   4.669   1.119   3.390
 1793TIP3    H1 5343   4.664   1.212   3.422
 1793TIP3    H2 5344   4.596   1.078   3.443
 1794TIP3   OH2 5345   4.434   1.247   2.342
 1794TIP3    H1 5346   4.388   1.235   2.257
 1794TIP3    H2 5347   4.401   1.335   2.371
 1795TIP3   OH2 5348   3.870   1.098   2.728
 1795TIP3    H1 5349   3.918   1.090   2.814
 1795TIP3    H2 5350   3.815   1.018   2.732
 1796TIP3   OH2 5351   4.628   1.150   1.979
 1796TIP3    H1 5352   4.687   1.080   1.943
 1796TIP3    H2 5353   4.665   1.163   2.069
 1797TIP3   OH2 5354   4.684   1.201   2.248
 1797TIP3    H1 5355   4.596   1.209   2.291
 1797TIP3    H2 5356   4.738   1.169   2.322
 1798TIP3   OH2 5357   5.444   0.490   3.560
 1798TIP3    H1 5358   5.364   0.509   3.509
 1798TIP3    H2 5359   5.460   0.397   3.532
 1799TIP3   OH2 5360   4.049   0.875   3.548
 1799TIP3    H1 5361   4.097   0.859   3.631
 1799TIP3    H2 5362   3.974   0.812   3.556
 1800TIP3   OH2 5363   5.203   0.242   3.440
 1800TIP3    H1 5364   5.157   0.225   3.524
 1800TIP3    H2 5365   5.179   0.334   3.419
 1801TIP3   OH2 5366   4.939   0.379   1.983
 1801TIP3    H1 5367   4.884   0.354   1.907
 1801TIP3    H2 5368   4.925   0.475   1.985
 1802TIP3   OH2 5369   4.393   0.216   3.362
 1802TIP3    H1 5370   4.334   0.234   3.438
 1802TIP3    H2 5371   4.375   0.295   3.307
 1803TIP3   OH2 5372   4.256   0.108   2.877
 1803TIP3    H1 5373   4.164   0.076   2.884
 1803TIP3    H2 5374   4.278   0.077   2.785
 1804TIP3   OH2 5375   4.755   0.190   2.605
 1804TIP3    H1 5376   4.704   0.258   2.555
 1804TIP3    H2 5377   4.808   0.148   2.534
 1805TIP3   OH2 5378   4.939   0.481   3.666
 1805TIP3    H1 5379   4.910   0.412   3.729
 1805TIP3    H2 5380   5.033   0.489   3.692
 1806TIP3   OH2 5381   4.905   0.223   2.840
 1806TIP3    H1 5382   4.840   0.245   2.770
 1806TIP3    H2 5383   4.948   0.148   2.793
 1807TIP3   OH2 5384   4.203   0.255   3.555
 1807TIP3    H1 5385   4.227   0.319   3.624
 1807TIP3    H2 5386   4.188   0.173   3.609
 1808TIP3   OH2 5387   4.224  -0.271   2.314
 1808TIP3    H1 5388   4.209  -0.254   2.408
 1808TIP3    H2 5389   4.157  -0.215   2.272
 1809TIP3   OH2 5390   3.787  -0.229   2.687
 1809TIP3    H1 5391   3.809  -0.184   2.602
 1809TIP3    H2 5392   3.708  -0.179   2.711
 1810TIP3   OH2 5393   4.917   0.457   3.260
 1810TIP3    H1 5394   4.952   0.389   3.198
 1810TIP3    H2 5395   4.891   0.400   3.335
 1811TIP3   OH2 5396   4.567  -0.051   2.915
 1811TIP3    H1 5397   4.504  -0.040   2.989
 1811TIP3    H2 5398   4.653  -0.035   2.958
 1812TIP3   OH2 5399   4.016  -0.029   2.932
 1812TIP3    H1 5400   3.923  -0.011   2.906
 1812TIP3    H2 5401   4.014  -0.126   2.940
 1813TIP3   OH2 5402   4.304   0.005   2.633
 1813TIP3    H1 5403   4.396  -0.019   2.609
 1813TIP3    H2 5404   4.255  -0.004   2.549
 1814TIP3   OH2 5405   4.137   0.014   2.407
 1814TIP3    H1 5406   4.063  -0.017   2.351
 1814TIP3    H2 5407   4.194   0.053   2.338
 1815TIP3   OH2 5408   5.256   1.686   3.353
 1815TIP3    H1 5409   5.249   1.709   3.258
 1815TIP3    H2 5410   5.337   1.735   3.377
 1816TIP3   OH2 5411   4.212   0.797   3.773
 1816TIP3    H1 5412   4.291   0.826   3.822
 1816TIP3    H2 5413   4.146   0.796   3.846
 1817TIP3   OH2 5414   4.672   0.241   3.033
 1817TIP3    H1 5415   4.742   0.198   2.981
 1817TIP3    H2 5416   4.682   0.198   3.119
 1818TIP3   OH2 5417   4.654   0.130   3.340
 1818TIP3    H1 5418   4.565   0.170   3.352
 1818TIP3    H2 5419   4.712   0.196   3.383
 1819TIP3   OH2 5420   4.385   0.536   2.412
 1819TIP3    H1 5421   4.312   0.470   2.401
 1819TIP3    H2 5422   4.364   0.571   2.502
 1820TIP3   OH2 5423   5.285   0.775   3.039
 1820TIP3    H1 5424   5.309   0.826   2.959
 1820TIP3    H2 5425   5.201   0.731   3.011
 1821TIP3   OH2 5426   4.848  -0.135   2.247
 1821TIP3    H1 5427   4.767  -0.170   2.287
 1821TIP3    H2 5428   4.866  -0.055   2.301
 1822TIP3   OH2 5429   4.784   0.856   3.410
 1822TIP3    H1 5430   4.818   0.839   3.499
 1822TIP3    H2 5431   4.747   0.945   3.418
 1823TIP3   OH2 5432   4.913   0.097   2.385
 1823TIP3    H1 5433   5.008   0.106   2.407
 1823TIP3    H2 5434   4.894   0.180   2.337
 1824TIP3   OH2 5435   4.080   0.559   3.086
 1824TIP3    H1 5436   4.120   0.531   3.001
 1824TIP3    H2 5437   4.128   0.504   3.150
 1825TIP3   OH2 5438   4.534   0.686   2.238
 1825TIP3    H1 5439   4.483   0.771   2.239
 1825TIP3    H2 5440   4.478   0.631   2.298
 1826TIP3   OH2 5441   3.965   0.480   3.702
 1826TIP3    H1 5442   3.981   0.466   3.798
 1826TIP3    H2 5443   3.896   0.414   3.685
 1827TIP3   OH2 5444   4.691   0.600   3.721
 1827TIP3    H1 5445   4.630   0.537   3.680
 1827TIP3    H2 5446   4.777   0.569   3.685
 1828TIP3   OH2 5447   4.944   1.117   3.310
 1828TIP3    H1 5448   4.848   1.114   3.323
 1828TIP3    H2 5449   4.971   1.171   3.387
 1829TIP3   OH2 5450   5.346   0.196   2.223
 1829TIP3    H1 5451   5.294   0.132   2.174
 1829TIP3    H2 5452   5.327   0.279   2.175
 1830TIP3   OH2 5453   5.575   1.052   3.294
 1830TIP3    H1 5454   5.478   1.043   3.285
 1830TIP3    H2 5455   5.603   1.020   3.205
 1831TIP3   OH2 5456   5.053   1.009   2.124
 1831TIP3    H1 5457   5.030   0.941   2.188
 1831TIP3    H2 5458   5.071   0.958   2.042
 1832TIP3   OH2 5459   5.049   0.640   2.955
 1832TIP3    H1 5460   4.956   0.615   2.970
 1832TIP3    H2 5461   5.083   0.560   2.910
 1833TIP3   OH2 5462   4.183   0.866   2.713
 1833TIP3    H1 5463   4.177   0.947   2.658
 1833TIP3    H2 5464   4.090   0.850   2.733
 1834TIP3   OH2 5465   3.746   0.171   2.422
 1834TIP3    H1 5466   3.789   0.256   2.446
 1834TIP3    H2 5467   3.668   0.173   2.483
 1835TIP3   OH2 5468   4.311   0.627   2.653
 1835TIP3    H1 5469   4.278   0.716   2.674
 1835TIP3    H2 5470   4.280   0.576   2.730
 1836TIP3   OH2 5471   4.453   1.208   3.181
 1836TIP3    H1 5472   4.495   1.280   3.131
 1836TIP3    H2 5473   4.529   1.169   3.226
 1837TIP3   OH2 5474   4.098   1.104   2.564
 1837TIP3    H1 5475   4.013   1.114   2.613
 1837TIP3    H2 5476   4.132   1.197   2.569
 1838TIP3   OH2 5477   4.835   0.842   3.143
 1838TIP3    H1 5478   4.823   0.840   3.241
 1838TIP3    H2 5479   4.914   0.788   3.132
 1839TIP3   OH2 5480   4.809   0.713   2.030
 1839TIP3    H1 5481   4.864   0.697   2.110
 1839TIP3    H2 5482   4.720   0.710   2.066
 1840TIP3   OH2 5483   5.085   1.373   3.192
 1840TIP3    H1 5484   5.005   1.318   3.185
 1840TIP3    H2 5485   5.070   1.437   3.119
 1841TIP3   OH2 5486   5.150   1.203   1.844
 1841TIP3    H1 5487   5.188   1.275   1.790
 1841TIP3    H2 5488   5.072   1.249   1.879
 1842TIP3   OH2 5489   4.169   0.038   3.720
 1842TIP3    H1 5490   4.096  -0.023   3.698
 1842TIP3    H2 5491   4.220  -0.019   3.780
 1843TIP3   OH2 5492   4.979   0.651   2.232
 1843TIP3    H1 5493   4.969   0.598   2.314
 1843TIP3    H2 5494   5.077   0.658   2.227
 1844TIP3   OH2 5495   3.891   1.066   3.339
 1844TIP3    H1 5496   3.946   0.998   3.381
 1844TIP3    H2 5497   3.912   1.144   3.391
 1845TIP3   OH2 5498   4.175   0.706   2.021
 1845TIP3    H1 5499   4.194   0.612   2.003
 1845TIP3    H2 5500   4.153   0.704   2.116
 1846TIP3   OH2 5501   4.118   0.721   2.297
 1846TIP3    H1 5502   4.195   0.693   2.349
 1846TIP3    H2 5503   4.124   0.819   2.306
 1847TIP3   OH2 5504   3.854   0.412   2.503
 1847TIP3    H1 5505   3.787   0.459   2.558
 1847TIP3    H2 5506   3.873   0.481   2.436
 1848TIP3   OH2 5507   4.389   0.913   2.245
 1848TIP3    H1 5508   4.303   0.938   2.283
 1848TIP3    H2 5509   4.407   0.991   2.191
 1849TIP3   OH2 5510   4.585  -0.029   2.645
 1849TIP3    H1 5511   4.647   0.046   2.639
 1849TIP3    H2 5512   4.576  -0.038   2.742
 1850TIP3   OH2 5513   4.859   0.291   3.469
 1850TIP3    H1 5514   4.877   0.354   3.542
 1850TIP3    H2 5515   4.912   0.214   3.497
 1851TIP3   OH2 5516   4.136   0.992   2.318
 1851TIP3    H1 5517   4.105   1.062   2.256
 1851TIP3    H2 5518   4.121   1.034   2.405
 1852TIP3   OH2 5519   5.475   0.243   3.459
 1852TIP3    H1 5520   5.380   0.224   3.442
 1852TIP3    H2 5521   5.520   0.186   3.395
 1853TIP3   OH2 5522   5.127   0.404   2.831
 1853TIP3    H1 5523   5.054   0.341   2.846
 1853TIP3    H2 5524   5.201   0.360   2.879
 1854TIP3   OH2 5525   3.856   0.620   2.296
 1854TIP3    H1 5526   3.934   0.677   2.314
 1854TIP3    H2 5527   3.899   0.556   2.235
 1855TIP3   OH2 5528   3.790  -0.097   2.447
 1855TIP3    H1 5529   3.790   0.001   2.443
 1855TIP3    H2 5530   3.725  -0.120   2.380
 1856TIP3   OH2 5531   5.108   1.351   2.783
 1856TIP3    H1 5532   5.065   1.398   2.708
 1856TIP3    H2 5533   5.203   1.371   2.763
 1857TIP3   OH2 5534   3.714   0.828   2.691
 1857TIP3    H1 5535   3.658   0.861   2.762
 1857TIP3    H2 5536   3.676   0.875   2.612
 1858TIP3   OH2 5537   3.882   1.385   3.765
 1858TIP3    H1 5538   3.969   1.385   3.811
 1858TIP3    H2 5539   3.862   1.290   3.763
 1859TIP3   OH2 5540   4.359   1.335   3.812
 1859TIP3    H1 5541   4.453   1.315   3.812
 1859TIP3    H2 5542   4.328   1.275   3.740
 1860TIP3   OH2 5543   4.337   0.914   1.934
 1860TIP3    H1 5544   4.282   0.841   1.970
 1860TIP3    H2 5545   4.413   0.865   1.901
 1861TIP3   OH2 5546   4.995   1.252   3.547
 1861TIP3    H1 5547   4.990   1.180   3.615
 1861TIP3    H2 5548   5.075   1.300   3.575
 1862TIP3   OH2 5549   4.777   0.954   1.849
 1862TIP3    H1 5550   4.838   0.904   1.905
 1862TIP3    H2 5551   4.824   0.955   1.763
 1863TIP3   OH2 5552   4.009   0.786   3.965
 1863TIP3    H1 5553   4.021   0.690   3.975
 1863TIP3    H2 5554   3.923   0.790   3.918
 1864TIP3   OH2 5555   3.991   0.429   2.164
 1864TIP3    H1 5556   4.048   0.397   2.237
 1864TIP3    H2 5557   4.058   0.434   2.092
 1865TIP3   OH2 5558   4.615   0.875   3.740
 1865TIP3    H1 5559   4.574   0.895   3.653
 1865TIP3    H2 5560   4.645   0.782   3.728
 1866TIP3   OH2 5561   4.500   0.635   1.970
 1866TIP3    H1 5562   4.503   0.648   2.067
 1866TIP3    H2 5563   4.507   0.537   1.964
 1867TIP3   OH2 5564   5.108   0.886   3.348
 1867TIP3    H1 5565   5.185   0.925   3.303
 1867TIP3    H2 5566   5.040   0.954   3.329
 1868TIP3   OH2 5567   4.135   0.519   3.949
 1868TIP3    H1 5568   4.218   0.485   3.914
 1868TIP3    H2 5569   4.163   0.556   4.036
 1869TIP3   OH2 5570   4.188   0.341   2.377
 1869TIP3    H1 5571   4.168   0.300   2.462
 1869TIP3    H2 5572   4.230   0.267   2.328
 1870TIP3   OH2 5573   4.471   0.407   3.614
 1870TIP3    H1 5574   4.390   0.462   3.610
 1870TIP3    H2 5575   4.520   0.438   3.534
 1871TIP3   OH2 5576   4.296   0.139   2.222
 1871TIP3    H1 5577   4.273   0.142   2.127
 1871TIP3    H2 5578   4.394   0.136   2.217
 1872TIP3   OH2 5579   4.986   0.808   3.742
 1872TIP3    H1 5580   5.055   0.767   3.688
 1872TIP3    H2 5581   4.974   0.742   3.813
 1873TIP3   OH2 5582   4.577   0.199   3.749
 1873TIP3    H1 5583   4.577   0.116   3.699
 1873TIP3    H2 5584   4.536   0.262   3.685
 1874TIP3   OH2 5585   4.616   0.512   3.415
 1874TIP3    H1 5586   4.702   0.528   3.372
 1874TIP3    H2 5587   4.558   0.576   3.369
 1875TIP3   OH2 5588   5.191   0.485   3.790
 1875TIP3    H1 5589   5.229   0.411   3.841
 1875TIP3    H2 5590   5.270   0.522   3.747
 1876TIP3   OH2 5591   5.237   0.740   3.534
 1876TIP3    H1 5592   5.180   0.795   3.475
 1876TIP3    H2 5593   5.325   0.761   3.495
 1877TIP3   OH2 5594   4.452   0.327   3.969
 1877TIP3    H1 5595   4.378   0.264   3.976
 1877TIP3    H2 5596   4.492   0.301   3.884
 1878TIP3   OH2 5597   4.839   0.275   3.807
 1878TIP3    H1 5598   4.858   0.218   3.885
 1878TIP3    H2 5599   4.745   0.252   3.791
 1879TIP3   OH2 5600   5.093   0.192   3.691
 1879TIP3    H1 5601   5.018   0.203   3.751
 1879TIP3    H2 5602   5.155   0.140   3.744
 1880TIP3   OH2 5603   4.287   0.110   4.023
 1880TIP3    H1 5604   4.314   0.030   3.974
 1880TIP3    H2 5605   4.348   0.107   4.098
 1881TIP3   OH2 5606   4.098   1.185   2.118
 1881TIP3    H1 5607   4.195   1.173   2.109
 1881TIP3    H2 5608   4.083   1.245   2.043
 1882TIP3   OH2 5609   3.585   0.586   2.323
 1882TIP3    H1 5610   3.682   0.600   2.322
 1882TIP3    H2 5611   3.578   0.492   2.294
 1883TIP3   OH2 5612   3.506   1.188   2.758
 1883TIP3    H1 5613   3.438   1.129   2.718
 1883TIP3    H2 5614   3.547   1.127   2.822
 1884TIP3   OH2 5615   3.638   1.030   2.943
 1884TIP3    H1 5616   3.621   0.965   3.014
 1884TIP3    H2 5617   3.690   1.096   2.993
 1885TIP3   OH2 5618   5.364   1.438   2.747
 1885TIP3    H1 5619   5.391   1.474   2.833
 1885TIP3    H2 5620   5.428   1.477   2.686
 1886TIP3   OH2 5621   5.387   1.459   3.031
 1886TIP3    H1 5622   5.344   1.372   3.025
 1886TIP3    H2 5623   5.467   1.434   3.080
 1887TIP3   OH2 5624   5.440   1.140   3.605
 1887TIP3    H1 5625   5.367   1.149   3.670
 1887TIP3    H2 5626   5.482   1.228   3.612
 1888TIP3   OH2 5627   5.259   0.646   2.216
 1888TIP3    H1 5628   5.322   0.715   2.186
 1888TIP3    H2 5629   5.304   0.616   2.299
 1889TIP3   OH2 5630   5.383   0.513   2.421
 1889TIP3    H1 5631   5.318   0.474   2.484
 1889TIP3    H2 5632   5.451   0.551   2.480
 1890TIP3   OH2 5633   5.439   0.912   2.854
 1890TIP3    H1 5634   5.491   0.842   2.809
 1890TIP3    H2 5635   5.439   0.984   2.787
 1891TIP3   OH2 5636   5.263   1.209   3.048
 1891TIP3    H1 5637   5.190   1.251   3.096
 1891TIP3    H2 5638   5.216   1.164   2.974
 1892TIP3   OH2 5639   5.294   0.422   2.062
 1892TIP3    H1 5640   5.220   0.463   2.015
 1892TIP3    H2 5641   5.300   0.487   2.136
 1893TIP3   OH2 5642   5.194   0.374   2.569
 1893TIP3    H1 5643   5.189   0.277   2.569
 1893TIP3    H2 5644   5.175   0.394   2.663
 1894TIP3   OH2 5645   3.818   0.445   3.316
 1894TIP3    H1 5646   3.817   0.412   3.224
 1894TIP3    H2 5647   3.915   0.448   3.333
 1895TIP3   OH2 5648   5.483   0.805   3.426
 1895TIP3    H1 5649   5.552   0.736   3.414
 1895TIP3    H2 5650   5.506   0.870   3.357
 1896TIP3   OH2 5651   5.661   0.605   3.436
 1896TIP3    H1 5652   5.588   0.561   3.485
 1896TIP3    H2 5653   5.732   0.538   3.450
 1897TIP3   OH2 5654   5.192   0.082   2.458
 1897TIP3    H1 5655   5.232  -0.002   2.486
 1897TIP3    H2 5656   5.263   0.121   2.405
 1898TIP3   OH2 5657   5.340   0.293   2.952
 1898TIP3    H1 5658   5.429   0.310   2.914
 1898TIP3    H2 5659   5.356   0.316   3.046
 1899TIP3   OH2 5660   5.406   0.422   3.190
 1899TIP3    H1 5661   5.330   0.456   3.241
 1899TIP3    H2 5662   5.439   0.502   3.144
 1900TIP3   OH2 5663   4.015   0.126   3.980
 1900TIP3    H1 5664   4.113   0.127   3.983
 1900TIP3    H2 5665   3.996   0.040   4.019
 1901TIP3   OH2 5666   3.805   0.082   3.392
 1901TIP3    H1 5667   3.854   0.096   3.308
 1901TIP3    H2 5668   3.827   0.162   3.441
 1902TIP3   OH2 5669   4.944   1.308   2.400
 1902TIP3    H1 5670   4.997   1.301   2.317
 1902TIP3    H2 5671   4.993   1.375   2.450
 1903TIP3   OH2 5672   4.045   1.113   3.783
 1903TIP3    H1 5673   3.952   1.090   3.767
 1903TIP3    H2 5674   4.055   1.093   3.877
 1904TIP3   OH2 5675   4.228   1.149   3.333
 1904TIP3    H1 5676   4.179   1.224   3.294
 1904TIP3    H2 5677   4.313   1.163   3.287
 1905TIP3   OH2 5678   4.665   1.385   3.472
 1905TIP3    H1 5679   4.708   1.387   3.560
 1905TIP3    H2 5680   4.729   1.438   3.419
 1906TIP3   OH2 5681   4.843   1.541   3.334
 1906TIP3    H1 5682   4.911   1.494   3.285
 1906TIP3    H2 5683   4.898   1.598   3.392
 1907TIP3   OH2 5684   3.899   1.399   3.360
 1907TIP3    H1 5685   3.808   1.429   3.336
 1907TIP3    H2 5686   3.914   1.452   3.440
 1908TIP3   OH2 5687   4.136   1.380   3.217
 1908TIP3    H1 5688   4.048   1.391   3.259
 1908TIP3    H2 5689   4.118   1.412   3.127
 1909TIP3   OH2 5690   4.561   1.405   3.014
 1909TIP3    H1 5691   4.491   1.422   2.948
 1909TIP3    H2 5692   4.573   1.494   3.054
 1910TIP3   OH2 5693   4.831   1.344   3.069
 1910TIP3    H1 5694   4.738   1.364   3.047
 1910TIP3    H2 5695   4.878   1.415   3.021
 1911TIP3   OH2 5696   5.033   1.533   2.977
 1911TIP3    H1 5697   5.021   1.619   2.930
 1911TIP3    H2 5698   5.063   1.475   2.904
 1912TIP3   OH2 5699   3.812   1.193   3.098
 1912TIP3    H1 5700   3.836   1.164   3.188
 1912TIP3    H2 5701   3.885   1.149   3.048
 1913TIP3   OH2 5702   4.009   1.066   2.960
 1913TIP3    H1 5703   4.023   0.982   3.011
 1913TIP3    H2 5704   4.100   1.101   2.958
 1914TIP3   OH2 5705   4.275   1.155   2.967
 1914TIP3    H1 5706   4.305   1.063   2.959
 1914TIP3    H2 5707   4.323   1.181   3.048
 1915TIP3   OH2 5708   3.597   0.968   2.492
 1915TIP3    H1 5709   3.510   0.940   2.459
 1915TIP3    H2 5710   3.597   1.061   2.464
 1916TIP3   OH2 5711   4.369   1.147   2.076
 1916TIP3    H1 5712   4.456   1.172   2.040
 1916TIP3    H2 5713   4.349   1.072   2.016
 1917TIP3   OH2 5714   5.091   1.275   2.169
 1917TIP3    H1 5715   5.082   1.178   2.157
 1917TIP3    H2 5716   5.045   1.307   2.088
 1918TIP3   OH2 5717   5.309   1.415   3.360
 1918TIP3    H1 5718   5.235   1.386   3.303
 1918TIP3    H2 5719   5.293   1.512   3.360
 1919TIP3   OH2 5720   6.583   0.802   2.122
 1919TIP3    H1 5721   6.546   0.883   2.082
 1919TIP3    H2 5722   6.523   0.735   2.085
 1920TIP3   OH2 5723   6.522   0.798   2.517
 1920TIP3    H1 5724   6.586   0.776   2.588
 1920TIP3    H2 5725   6.537   0.725   2.455
 1921TIP3   OH2 5726   5.877   0.689   2.870
 1921TIP3    H1 5727   5.907   0.615   2.927
 1921TIP3    H2 5728   5.962   0.730   2.848
 1922TIP3   OH2 5729   5.855   1.092   2.587
 1922TIP3    H1 5730   5.847   0.994   2.589
 1922TIP3    H2 5731   5.952   1.102   2.578
 1923TIP3   OH2 5732   5.555   0.286   2.374
 1923TIP3    H1 5733   5.524   0.373   2.403
 1923TIP3    H2 5734   5.475   0.252   2.330
 1924TIP3   OH2 5735   5.617   0.585   2.546
 1924TIP3    H1 5736   5.665   0.505   2.580
 1924TIP3    H2 5737   5.689   0.636   2.506
 1925TIP3   OH2 5738   6.470   1.534   2.202
 1925TIP3    H1 5739   6.542   1.477   2.172
 1925TIP3    H2 5740   6.470   1.516   2.297
 1926TIP3   OH2 5741   6.373   1.023   2.557
 1926TIP3    H1 5742   6.416   0.937   2.532
 1926TIP3    H2 5743   6.455   1.075   2.570
 1927TIP3   OH2 5744   6.120   0.178   2.551
 1927TIP3    H1 5745   6.098   0.243   2.481
 1927TIP3    H2 5746   6.074   0.098   2.520
 1928TIP3   OH2 5747   5.754   0.375   2.644
 1928TIP3    H1 5748   5.837   0.363   2.698
 1928TIP3    H2 5749   5.780   0.320   2.567
 1929TIP3   OH2 5750   6.207   0.576   2.456
 1929TIP3    H1 5751   6.303   0.553   2.462
 1929TIP3    H2 5752   6.169   0.492   2.424
 1930TIP3   OH2 5753   6.477   1.018   1.989
 1930TIP3    H1 5754   6.440   1.000   1.900
 1930TIP3    H2 5755   6.425   1.096   2.015
 1931TIP3   OH2 5756   6.237   0.933   2.774
 1931TIP3    H1 5757   6.179   1.005   2.808
 1931TIP3    H2 5758   6.281   0.978   2.698
 1932TIP3   OH2 5759   5.988   0.311   2.753
 1932TIP3    H1 5760   6.064   0.363   2.786
 1932TIP3    H2 5761   6.031   0.249   2.691
 1933TIP3   OH2 5762   6.066   1.135   2.873
 1933TIP3    H1 5763   6.042   1.222   2.836
 1933TIP3    H2 5764   5.986   1.117   2.927
 1934TIP3   OH2 5765   5.451   0.821   2.108
 1934TIP3    H1 5766   5.414   0.853   2.025
 1934TIP3    H2 5767   5.485   0.905   2.147
 1935TIP3   OH2 5768   6.624   1.398   1.996
 1935TIP3    H1 5769   6.655   1.311   2.022
 1935TIP3    H2 5770   6.692   1.455   2.040
 1936TIP3   OH2 5771   6.421   0.652   1.937
 1936TIP3    H1 5772   6.333   0.695   1.939
 1936TIP3    H2 5773   6.455   0.685   1.853
 1937TIP3   OH2 5774   5.996   0.719   2.343
 1937TIP3    H1 5775   5.961   0.661   2.273
 1937TIP3    H2 5776   6.073   0.666   2.376
 1938TIP3   OH2 5777   6.121   1.129   2.489
 1938TIP3    H1 5778   6.109   1.099   2.398
 1938TIP3    H2 5779   6.211   1.094   2.510
 1939TIP3   OH2 5780   6.120   0.696   2.695
 1939TIP3    H1 5781   6.159   0.664   2.610
 1939TIP3    H2 5782   6.172   0.777   2.712
 1940TIP3   OH2 5783   6.628   1.331   2.455
 1940TIP3    H1 5784   6.644   1.413   2.505
 1940TIP3    H2 5785   6.633   1.261   2.523
 1941TIP3   OH2 5786   6.269   1.247   3.022
 1941TIP3    H1 5787   6.206   1.309   3.065
 1941TIP3    H2 5788   6.207   1.195   2.968
 1942TIP3   OH2 5789   6.029   0.800   3.133
 1942TIP3    H1 5790   6.031   0.892   3.167
 1942TIP3    H2 5791   5.933   0.782   3.134
 1943TIP3   OH2 5792   6.348   1.263   2.018
 1943TIP3    H1 5793   6.412   1.330   2.043
 1943TIP3    H2 5794   6.277   1.316   1.979
 1944TIP3   OH2 5795   6.062   1.414   3.105
 1944TIP3    H1 5796   6.029   1.421   3.013
 1944TIP3    H2 5797   5.979   1.394   3.155
 1945TIP3   OH2 5798   5.866   0.572   2.130
 1945TIP3    H1 5799   5.783   0.604   2.089
 1945TIP3    H2 5800   5.848   0.478   2.143
 1946TIP3   OH2 5801   5.640   0.950   3.053
 1946TIP3    H1 5802   5.574   0.928   2.984
 1946TIP3    H2 5803   5.679   0.862   3.074
 1947TIP3   OH2 5804   5.497   1.140   2.684
 1947TIP3    H1 5805   5.593   1.135   2.674
 1947TIP3    H2 5806   5.488   1.219   2.740
 1948TIP3   OH2 5807   6.467   1.371   2.881
 1948TIP3    H1 5808   6.462   1.465   2.909
 1948TIP3    H2 5809   6.393   1.333   2.933
 1949TIP3   OH2 5810   6.230   1.506   1.826
 1949TIP3    H1 5811   6.181   1.494   1.743
 1949TIP3    H2 5812   6.198   1.594   1.857
 1950TIP3   OH2 5813   5.666   1.354   2.216
 1950TIP3    H1 5814   5.716   1.347   2.300
 1950TIP3    H2 5815   5.609   1.275   2.222
 1951TIP3   OH2 5816   6.435   1.396   1.476
 1951TIP3    H1 5817   6.507   1.338   1.448
 1951TIP3    H2 5818   6.458   1.409   1.570
 1952TIP3   OH2 5819   6.478   1.433   1.747
 1952TIP3    H1 5820   6.388   1.450   1.785
 1952TIP3    H2 5821   6.528   1.413   1.829
 1953TIP3   OH2 5822   5.844   1.133   3.036
 1953TIP3    H1 5823   5.894   1.114   3.118
 1953TIP3    H2 5824   5.770   1.069   3.043
 1954TIP3   OH2 5825   6.188   0.476   2.845
 1954TIP3    H1 5826   6.129   0.492   2.922
 1954TIP3    H2 5827   6.169   0.555   2.791
 1955TIP3   OH2 5828   6.050   0.364   2.365
 1955TIP3    H1 5829   5.960   0.327   2.375
 1955TIP3    H2 5830   6.073   0.332   2.275
 1956TIP3   OH2 5831   6.541   0.421   2.056
 1956TIP3    H1 5832   6.501   0.502   2.018
 1956TIP3    H2 5833   6.635   0.433   2.035
 1957TIP3   OH2 5834   6.725   0.726   3.143
 1957TIP3    H1 5835   6.694   0.665   3.215
 1957TIP3    H2 5836   6.806   0.762   3.180
 1958TIP3   OH2 5837   6.000   0.511   3.042
 1958TIP3    H1 5838   6.026   0.574   3.111
 1958TIP3    H2 5839   5.982   0.430   3.094
 1959TIP3   OH2 5840   5.579   0.025   2.158
 1959TIP3    H1 5841   5.623   0.071   2.084
 1959TIP3    H2 5842   5.531   0.097   2.201
 1960TIP3   OH2 5843   6.678   0.716   2.728
 1960TIP3    H1 5844   6.766   0.706   2.688
 1960TIP3    H2 5845   6.680   0.649   2.799
 1961TIP3   OH2 5846   6.357   0.206   2.399
 1961TIP3    H1 5847   6.298   0.217   2.475
 1961TIP3    H2 5848   6.446   0.219   2.440
 1962TIP3   OH2 5849   5.816   0.221   2.422
 1962TIP3    H1 5850   5.723   0.239   2.395
 1962TIP3    H2 5851   5.813   0.125   2.441
 1963TIP3   OH2 5852   6.099   0.256   2.125
 1963TIP3    H1 5853   6.195   0.235   2.121
 1963TIP3    H2 5854   6.072   0.251   2.033
 1964TIP3   OH2 5855   5.884   0.291   1.918
 1964TIP3    H1 5856   5.814   0.226   1.905
 1964TIP3    H2 5857   5.945   0.272   1.843
 1965TIP3   OH2 5858   6.007   1.054   3.260
 1965TIP3    H1 5859   6.087   1.083   3.307
 1965TIP3    H2 5860   5.943   1.053   3.334
 1966TIP3   OH2 5861   6.465   0.481   2.511
 1966TIP3    H1 5862   6.533   0.432   2.463
 1966TIP3    H2 5863   6.487   0.457   2.602
 1967TIP3   OH2 5864   6.442   0.369   2.864
 1967TIP3    H1 5865   6.357   0.416   2.850
 1967TIP3    H2 5866   6.504   0.442   2.879
 1968TIP3   OH2 5867   6.173   0.784   1.906
 1968TIP3    H1 5868   6.100   0.720   1.895
 1968TIP3    H2 5869   6.153   0.820   1.996
 1969TIP3   OH2 5870   6.587   1.116   2.902
 1969TIP3    H1 5871   6.607   1.100   2.995
 1969TIP3    H2 5872   6.544   1.203   2.903
 1970TIP3   OH2 5873   5.872   0.808   2.572
 1970TIP3    H1 5874   5.913   0.784   2.486
 1970TIP3    H2 5875   5.931   0.762   2.634
 1971TIP3   OH2 5876   6.333   0.955   1.764
 1971TIP3    H1 5877   6.279   1.037   1.754
 1971TIP3    H2 5878   6.272   0.896   1.813
 1972TIP3   OH2 5879   5.759   0.739   3.191
 1972TIP3    H1 5880   5.777   0.723   3.286
 1972TIP3    H2 5881   5.693   0.669   3.172
 1973TIP3   OH2 5882   6.482   0.854   3.207
 1973TIP3    H1 5883   6.418   0.794   3.165
 1973TIP3    H2 5884   6.565   0.826   3.164
 1974TIP3   OH2 5885   6.736   1.401   2.788
 1974TIP3    H1 5886   6.645   1.370   2.796
 1974TIP3    H2 5887   6.755   1.426   2.881
 1975TIP3   OH2 5888   5.980   1.125   2.201
 1975TIP3    H1 5889   5.976   1.206   2.146
 1975TIP3    H2 5890   5.886   1.110   2.217
 1976TIP3   OH2 5891   5.546   0.418   1.913
 1976TIP3    H1 5892   5.597   0.501   1.928
 1976TIP3    H2 5893   5.468   0.435   1.968
 1977TIP3   OH2 5894   6.100   0.884   2.143
 1977TIP3    H1 5895   6.070   0.974   2.165
 1977TIP3    H2 5896   6.074   0.835   2.223
 1978TIP3   OH2 5897   6.249   1.463   2.668
 1978TIP3    H1 5898   6.290   1.537   2.617
 1978TIP3    H2 5899   6.327   1.423   2.708
 1979TIP3   OH2 5900   5.896   1.361   2.052
 1979TIP3    H1 5901   5.811   1.372   2.099
 1979TIP3    H2 5902   5.931   1.453   2.055
 1980TIP3   OH2 5903   6.629   1.107   2.632
 1980TIP3    H1 5904   6.617   1.102   2.730
 1980TIP3    H2 5905   6.699   1.042   2.619
 1981TIP3   OH2 5906   6.806   1.655   2.722
 1981TIP3    H1 5907   6.792   1.561   2.750
 1981TIP3    H2 5908   6.753   1.652   2.639
 1982TIP3   OH2 5909   5.962   0.294   3.206
 1982TIP3    H1 5910   5.885   0.239   3.181
 1982TIP3    H2 5911   6.009   0.233   3.265
 1983TIP3   OH2 5912   5.684   1.324   2.827
 1983TIP3    H1 5913   5.741   1.256   2.867
 1983TIP3    H2 5914   5.715   1.403   2.874
 1984TIP3   OH2 5915   5.958   0.992   1.520
 1984TIP3    H1 5916   6.036   0.937   1.498
 1984TIP3    H2 5917   5.952   0.981   1.617
 1985TIP3   OH2 5918   5.926   0.973   1.790
 1985TIP3    H1 5919   6.000   0.954   1.850
 1985TIP3    H2 5920   5.920   1.071   1.797
 1986TIP3   OH2 5921   5.646   0.667   1.989
 1986TIP3    H1 5922   5.583   0.716   2.046
 1986TIP3    H2 5923   5.662   0.735   1.920
 1987TIP3   OH2 5924   6.178   1.173   1.731
 1987TIP3    H1 5925   6.090   1.199   1.767
 1987TIP3    H2 5926   6.197   1.250   1.675
 1988TIP3   OH2 5927   6.365   0.222   2.127
 1988TIP3    H1 5928   6.433   0.290   2.106
 1988TIP3    H2 5929   6.372   0.219   2.225
 1989TIP3   OH2 5930   6.651   0.544   2.946
 1989TIP3    H1 5931   6.668   0.612   3.015
 1989TIP3    H2 5932   6.701   0.468   2.980
 1990TIP3   OH2 5933   5.925   1.244   1.804
 1990TIP3    H1 5934   5.897   1.314   1.740
 1990TIP3    H2 5935   5.911   1.290   1.890
 1991TIP3   OH2 5936   5.646   0.871   1.795
 1991TIP3    H1 5937   5.707   0.946   1.810
 1991TIP3    H2 5938   5.691   0.828   1.719
 1992TIP3   OH2 5939   5.623   0.157   1.905
 1992TIP3    H1 5940   5.619   0.255   1.916
 1992TIP3    H2 5941   5.536   0.141   1.868
 1993TIP3   OH2 5942   5.509   1.082   2.174
 1993TIP3    H1 5943   5.452   1.118   2.243
 1993TIP3    H2 5944   5.476   1.131   2.095
 1994TIP3   OH2 5945   5.677   1.642   3.260
 1994TIP3    H1 5946   5.766   1.642   3.303
 1994TIP3    H2 5947   5.662   1.546   3.250
 1995TIP3   OH2 5948   6.150   1.591   3.299
 1995TIP3    H1 5949   6.246   1.581   3.302
 1995TIP3    H2 5950   6.127   1.530   3.226
 1996TIP3   OH2 5951   6.147   1.168   1.426
 1996TIP3    H1 5952   6.072   1.118   1.465
 1996TIP3    H2 5953   6.213   1.097   1.422
 1997TIP3   OH2 5954   6.788   1.503   3.041
 1997TIP3    H1 5955   6.778   1.433   3.109
 1997TIP3    H2 5956   6.883   1.502   3.024
 1998TIP3   OH2 5957   5.804   1.043   3.453
 1998TIP3    H1 5958   5.819   0.947   3.460
 1998TIP3    H2 5959   5.719   1.046   3.404
 1999TIP3   OH2 5960   5.793   0.695   1.633
 1999TIP3    H1 5961   5.853   0.662   1.703
 1999TIP3    H2 5962   5.850   0.758   1.586
 2000TIP3   OH2 5963   6.410   1.130   3.228
 2000TIP3    H1 5964   6.370   1.154   3.142
 2000TIP3    H2 5965   6.439   1.038   3.214
 2001TIP3   OH2 5966   6.228   0.896   1.489
 2001TIP3    H1 5967   6.290   0.927   1.558
 2001TIP3    H2 5968   6.287   0.833   1.446
 2002TIP3   OH2 5969   5.927   0.778   3.436
 2002TIP3    H1 5970   6.009   0.744   3.398
 2002TIP3    H2 5971   5.958   0.813   3.522
 2003TIP3   OH2 5972   5.977   0.590   1.876
 2003TIP3    H1 5973   5.938   0.592   1.965
 2003TIP3    H2 5974   6.006   0.497   1.873
 2004TIP3   OH2 5975   6.269   0.665   3.100
 2004TIP3    H1 5976   6.188   0.719   3.095
 2004TIP3    H2 5977   6.318   0.696   3.020
 2005TIP3   OH2 5978   6.770   1.059   3.242
 2005TIP3    H1 5979   6.855   1.052   3.198
 2005TIP3    H2 5980   6.776   0.991   3.312
 2006TIP3   OH2 5981   6.376   0.455   3.231
 2006TIP3    H1 5982   6.373   0.374   3.177
 2006TIP3    H2 5983   6.336   0.521   3.169
 2007TIP3   OH2 5984   6.418   0.769   2.902
 2007TIP3    H1 5985   6.499   0.770   2.849
 2007TIP3    H2 5986   6.361   0.833   2.854
 2008TIP3   OH2 5987   6.256   0.582   3.454
 2008TIP3    H1 5988   6.182   0.519   3.464
 2008TIP3    H2 5989   6.290   0.555   3.366
 2009TIP3   OH2 5990   6.627   0.543   3.314
 2009TIP3    H1 5991   6.656   0.473   3.375
 2009TIP3    H2 5992   6.536   0.513   3.290
 2010TIP3   OH2 5993   6.085   0.371   3.507
 2010TIP3    H1 5994   6.102   0.288   3.458
 2010TIP3    H2 5995   6.146   0.361   3.581
 2011TIP3   OH2 5996   5.903   1.447   1.616
 2011TIP3    H1 5997   5.998   1.441   1.594
 2011TIP3    H2 5998   5.873   1.501   1.540
 2012TIP3   OH2 5999   5.378   0.833   1.828
 2012TIP3    H1 6000   5.473   0.854   1.814
 2012TIP3    H2 6001   5.373   0.743   1.790
 2013TIP3   OH2 6002   5.298   1.443   2.248
 2013TIP3    H1 6003   5.233   1.384   2.205
 2013TIP3    H2 6004   5.342   1.382   2.310
 2014TIP3   OH2 6005   5.434   1.285   2.430
 2014TIP3    H1 6006   5.420   1.220   2.501
 2014TIP3    H2 6007   5.487   1.352   2.478
 2015TIP3   OH2 6008   5.614   0.705   2.802
 2015TIP3    H1 6009   5.614   0.671   2.710
 2015TIP3    H2 6010   5.711   0.708   2.820
 2016TIP3   OH2 6011   5.811   0.383   3.475
 2016TIP3    H1 6012   5.909   0.387   3.476
 2016TIP3    H2 6013   5.795   0.292   3.503
 2017TIP3   OH2 6014   5.596   0.347   2.874
 2017TIP3    H1 6015   5.650   0.358   2.793
 2017TIP3    H2 6016   5.629   0.420   2.929
 2018TIP3   OH2 6017   5.839   1.374   3.268
 2018TIP3    H1 6018   5.747   1.346   3.254
 2018TIP3    H2 6019   5.855   1.349   3.360
 2019TIP3   OH2 6020   6.024   1.406   2.819
 2019TIP3    H1 6021   5.977   1.483   2.779
 2019TIP3    H2 6022   6.110   1.418   2.774
 2020TIP3   OH2 6023   6.453   1.638   2.962
 2020TIP3    H1 6024   6.498   1.640   3.050
 2020TIP3    H2 6025   6.510   1.701   2.913
 2021TIP3   OH2 6026   6.618   1.817   2.839
 2021TIP3    H1 6027   6.688   1.760   2.798
 2021TIP3    H2 6028   6.676   1.878   2.889
 2022TIP3   OH2 6029   5.693   1.653   2.848
 2022TIP3    H1 6030   5.603   1.684   2.824
 2022TIP3    H2 6031   5.712   1.712   2.923
 2023TIP3   OH2 6032   5.930   1.635   2.704
 2023TIP3    H1 6033   5.842   1.648   2.744
 2023TIP3    H2 6034   5.915   1.669   2.613
 2024TIP3   OH2 6035   6.350   1.664   2.498
 2024TIP3    H1 6036   6.279   1.684   2.434
 2024TIP3    H2 6037   6.364   1.751   2.541
 2025TIP3   OH2 6038   6.618   1.604   2.532
 2025TIP3    H1 6039   6.524   1.624   2.520
 2025TIP3    H2 6040   6.662   1.673   2.479
 2026TIP3   OH2 6041   6.815   1.788   2.441
 2026TIP3    H1 6042   6.797   1.884   2.426
 2026TIP3    H2 6043   6.835   1.760   2.350
 2027TIP3   OH2 6044   5.606   1.447   2.586
 2027TIP3    H1 6045   5.632   1.421   2.676
 2027TIP3    H2 6046   5.679   1.406   2.535
 2028TIP3   OH2 6047   5.804   1.322   2.449
 2028TIP3    H1 6048   5.820   1.238   2.498
 2028TIP3    H2 6049   5.895   1.359   2.445
 2029TIP3   OH2 6050   6.069   1.412   2.455
 2029TIP3    H1 6051   6.102   1.321   2.445
 2029TIP3    H2 6052   6.120   1.438   2.535
 2030TIP3   OH2 6053   5.394   1.229   1.978
 2030TIP3    H1 6054   5.307   1.198   1.946
 2030TIP3    H2 6055   5.389   1.322   1.949
 2031TIP3   OH2 6056   6.170   1.406   1.559
 2031TIP3    H1 6057   6.257   1.429   1.523
 2031TIP3    H2 6058   6.149   1.331   1.498
 2032TIP3   OH2 6059   5.467   1.237   1.615
 2032TIP3    H1 6060   5.478   1.273   1.704
 2032TIP3    H2 6061   5.557   1.199   1.598
 2033TIP3   OH2 6062   0.834   1.837   3.294
 2033TIP3    H1 6063   0.802   1.927   3.272
 2033TIP3    H2 6064   0.758   1.784   3.264
 2034TIP3   OH2 6065   0.832   1.835   3.683
 2034TIP3    H1 6066   0.869   1.813   3.771
 2034TIP3    H2 6067   0.792   1.751   3.657
 2035TIP3   OH2 6068   0.138   1.734   4.050
 2035TIP3    H1 6069   0.164   1.659   4.107
 2035TIP3    H2 6070   0.224   1.768   4.022
 2036TIP3   OH2 6071   1.077   2.144   3.360
 2036TIP3    H1 6072   1.060   2.075   3.426
 2036TIP3    H2 6073   1.108   2.218   3.415
 2037TIP3   OH2 6074   0.106   2.140   3.766
 2037TIP3    H1 6075   0.097   2.043   3.766
 2037TIP3    H2 6076   0.202   2.150   3.755
 2038TIP3   OH2 6077  -0.191   1.340   3.560
 2038TIP3    H1 6078  -0.203   1.429   3.598
 2038TIP3    H2 6079  -0.278   1.301   3.571
 2039TIP3   OH2 6080  -0.136   1.614   3.713
 2039TIP3    H1 6081  -0.076   1.549   3.754
 2039TIP3    H2 6082  -0.075   1.672   3.666
 2040TIP3   OH2 6083   0.727   2.596   3.377
 2040TIP3    H1 6084   0.769   2.524   3.327
 2040TIP3    H2 6085   0.719   2.558   3.465
 2041TIP3   OH2 6086   0.628   2.060   3.728
 2041TIP3    H1 6087   0.672   1.984   3.686
 2041TIP3    H2 6088   0.710   2.109   3.754
 2042TIP3   OH2 6089   1.649   1.379   3.724
 2042TIP3    H1 6090   1.677   1.466   3.758
 2042TIP3    H2 6091   1.671   1.388   3.630
 2043TIP3   OH2 6092   1.043   1.558   3.756
 2043TIP3    H1 6093   1.086   1.473   3.776
 2043TIP3    H2 6094   1.010   1.541   3.665
 2044TIP3   OH2 6095   0.383   1.218   3.727
 2044TIP3    H1 6096   0.365   1.290   3.663
 2044TIP3    H2 6097   0.337   1.144   3.682
 2045TIP3   OH2 6098   1.079   1.317   3.341
 2045TIP3    H1 6099   1.150   1.301   3.408
 2045TIP3    H2 6100   1.134   1.348   3.267
 2046TIP3   OH2 6101   0.024   1.425   3.824
 2046TIP3    H1 6102   0.104   1.412   3.877
 2046TIP3    H2 6103   0.045   1.368   3.747
 2047TIP3   OH2 6104   0.455   1.621   3.634
 2047TIP3    H1 6105   0.550   1.597   3.640
 2047TIP3    H2 6106   0.416   1.537   3.599
 2048TIP3   OH2 6107   1.725   1.595   3.894
 2048TIP3    H1 6108   1.643   1.639   3.862
 2048TIP3    H2 6109   1.710   1.603   3.989
 2049TIP3   OH2 6110   0.376   1.213   4.161
 2049TIP3    H1 6111   0.325   1.260   4.093
 2049TIP3    H2 6112   0.331   1.243   4.243
 2050TIP3   OH2 6113   0.724   2.059   3.162
 2050TIP3    H1 6114   0.676   2.042   3.080
 2050TIP3    H2 6115   0.678   2.140   3.194
 2051TIP3   OH2 6116   0.482   1.982   3.948
 2051TIP3    H1 6117   0.425   2.053   3.984
 2051TIP3    H2 6118   0.527   2.028   3.874
 2052TIP3   OH2 6119   1.280   1.320   3.523
 2052TIP3    H1 6120   1.265   1.276   3.607
 2052TIP3    H2 6121   1.332   1.398   3.549
 2053TIP3   OH2 6122   0.257   1.329   3.941
 2053TIP3    H1 6123   0.318   1.402   3.965
 2053TIP3    H2 6124   0.307   1.287   3.867
 2054TIP3   OH2 6125   0.309   2.179   4.054
 2054TIP3    H1 6126   0.288   2.266   4.014
 2054TIP3    H2 6127   0.227   2.165   4.106
 2055TIP3   OH2 6128  -0.289   1.852   3.299
 2055TIP3    H1 6129  -0.321   1.855   3.207
 2055TIP3    H2 6130  -0.267   1.946   3.318
 2056TIP3   OH2 6131   1.143   2.382   3.522
 2056TIP3    H1 6132   1.053   2.374   3.563
 2056TIP3    H2 6133   1.135   2.470   3.479
 2057TIP3   OH2 6134   1.440   1.282   3.892
 2057TIP3    H1 6135   1.352   1.303   3.857
 2057TIP3    H2 6136   1.499   1.313   3.820
 2058TIP3   OH2 6137   0.724   0.931   3.869
 2058TIP3    H1 6138   0.714   0.836   3.897
 2058TIP3    H2 6139   0.649   0.969   3.918
 2059TIP3   OH2 6140   0.843   2.422   3.194
 2059TIP3    H1 6141   0.895   2.340   3.177
 2059TIP3    H2 6142   0.907   2.488   3.157
 2060TIP3   OH2 6143   0.993   2.209   3.106
 2060TIP3    H1 6144   0.939   2.132   3.083
 2060TIP3    H2 6145   1.033   2.179   3.191
 2061TIP3   OH2 6146   1.369   2.289   3.871
 2061TIP3    H1 6147   1.357   2.213   3.810
 2061TIP3    H2 6148   1.350   2.366   3.812
 2062TIP3   OH2 6149   0.663   1.684   3.137
 2062TIP3    H1 6150   0.587   1.742   3.116
 2062TIP3    H2 6151   0.711   1.683   3.052
 2063TIP3   OH2 6152   0.651   1.469   2.826
 2063TIP3    H1 6153   0.694   1.514   2.900
 2063TIP3    H2 6154   0.731   1.444   2.774
 2064TIP3   OH2 6155   1.566   1.934   3.719
 2064TIP3    H1 6156   1.481   1.983   3.722
 2064TIP3    H2 6157   1.596   1.957   3.629
 2065TIP3   OH2 6158   1.013   1.772   3.099
 2065TIP3    H1 6159   0.959   1.795   3.178
 2065TIP3    H2 6160   1.098   1.747   3.141
 2066TIP3   OH2 6161   1.244   1.805   4.017
 2066TIP3    H1 6162   1.242   1.888   4.068
 2066TIP3    H2 6163   1.158   1.811   3.970
 2067TIP3   OH2 6164   0.247   1.768   3.522
 2067TIP3    H1 6165   0.206   1.710   3.454
 2067TIP3    H2 6166   0.323   1.714   3.552
 2068TIP3   OH2 6167   0.372   2.174   3.665
 2068TIP3    H1 6168   0.354   2.145   3.574
 2068TIP3    H2 6169   0.461   2.138   3.682
 2069TIP3   OH2 6170   0.373   1.740   3.873
 2069TIP3    H1 6171   0.408   1.711   3.786
 2069TIP3    H2 6172   0.421   1.825   3.887
 2070TIP3   OH2 6173   0.904   2.375   3.648
 2070TIP3    H1 6174   0.891   2.457   3.699
 2070TIP3    H2 6175   0.886   2.305   3.713
 2071TIP3   OH2 6176   0.520   2.292   4.195
 2071TIP3    H1 6177   0.459   2.353   4.241
 2071TIP3    H2 6178   0.455   2.239   4.143
 2072TIP3   OH2 6179   0.845   1.634   2.938
 2072TIP3    H1 6180   0.907   1.692   2.988
 2072TIP3    H2 6181   0.872   1.658   2.846
 2073TIP3   OH2 6182   0.276   1.845   4.309
 2073TIP3    H1 6183   0.279   1.935   4.348
 2073TIP3    H2 6184   0.181   1.835   4.292
 2074TIP3   OH2 6185   0.596   2.302   3.200
 2074TIP3    H1 6186   0.679   2.353   3.207
 2074TIP3    H2 6187   0.536   2.367   3.160
 2075TIP3   OH2 6188   0.309   2.455   4.281
 2075TIP3    H1 6189   0.281   2.466   4.188
 2075TIP3    H2 6190   0.223   2.447   4.327
 2076TIP3   OH2 6191   1.367   0.877   2.980
 2076TIP3    H1 6192   1.280   0.888   3.023
 2076TIP3    H2 6193   1.375   0.960   2.930
 2077TIP3   OH2 6194   0.121   1.613   3.331
 2077TIP3    H1 6195   0.049   1.661   3.284
 2077TIP3    H2 6196   0.084   1.525   3.339
 2078TIP3   OH2 6197   1.210   2.238   2.476
 2078TIP3    H1 6198   1.184   2.334   2.483
 2078TIP3    H2 6199   1.260   2.232   2.560
 2079TIP3   OH2 6200  -0.103   1.982   4.218
 2079TIP3    H1 6201  -0.128   1.935   4.137
 2079TIP3    H2 6202  -0.081   1.907   4.277
 2080TIP3   OH2 6203  -0.246   2.172   3.911
 2080TIP3    H1 6204  -0.179   2.145   3.846
 2080TIP3    H2 6205  -0.219   2.263   3.931
 2081TIP3   OH2 6206   1.609   2.641   3.923
 2081TIP3    H1 6207   1.605   2.545   3.939
 2081TIP3    H2 6208   1.525   2.669   3.967
 2082TIP3   OH2 6209   0.714   2.422   4.052
 2082TIP3    H1 6210   0.710   2.515   4.084
 2082TIP3    H2 6211   0.644   2.380   4.107
 2083TIP3   OH2 6212   0.479   2.550   3.005
 2083TIP3    H1 6213   0.431   2.540   2.921
 2083TIP3    H2 6214   0.448   2.637   3.036
 2084TIP3   OH2 6215  -0.079   2.401   3.396
 2084TIP3    H1 6216  -0.023   2.393   3.476
 2084TIP3    H2 6217  -0.160   2.358   3.432
 2085TIP3   OH2 6218   0.677   2.453   2.646
 2085TIP3    H1 6219   0.738   2.384   2.613
 2085TIP3    H2 6220   0.709   2.466   2.737
 2086TIP3   OH2 6221   0.729   2.501   2.912
 2086TIP3    H1 6222   0.640   2.511   2.954
 2086TIP3    H2 6223   0.781   2.470   2.988
 2087TIP3   OH2 6224   1.497   1.766   4.194
 2087TIP3    H1 6225   1.412   1.780   4.150
 2087TIP3    H2 6226   1.510   1.670   4.181
 2088TIP3   OH2 6227   0.085   2.181   4.227
 2088TIP3    H1 6228   0.143   2.145   4.297
 2088TIP3    H2 6229   0.013   2.114   4.223
 2089TIP3   OH2 6230   0.483   1.004   3.999
 2089TIP3    H1 6231   0.414   0.986   3.933
 2089TIP3    H2 6232   0.446   1.080   4.048
 2090TIP3   OH2 6233   1.037   1.116   4.196
 2090TIP3    H1 6234   1.104   1.086   4.261
 2090TIP3    H2 6235   0.952   1.097   4.243
 2091TIP3   OH2 6236   1.266   1.545   4.119
 2091TIP3    H1 6237   1.212   1.542   4.201
 2091TIP3    H2 6238   1.242   1.631   4.081
 2092TIP3   OH2 6239   0.928   1.703   2.696
 2092TIP3    H1 6240   0.900   1.658   2.613
 2092TIP3    H2 6241   1.019   1.727   2.673
 2093TIP3   OH2 6242   0.431   1.521   4.023
 2093TIP3    H1 6243   0.385   1.545   4.106
 2093TIP3    H2 6244   0.415   1.602   3.969
 2094TIP3   OH2 6245   0.311   1.404   3.543
 2094TIP3    H1 6246   0.219   1.372   3.556
 2094TIP3    H2 6247   0.324   1.379   3.448
 2095TIP3   OH2 6248   0.802   1.482   3.265
 2095TIP3    H1 6249   0.751   1.554   3.221
 2095TIP3    H2 6250   0.857   1.449   3.191
 2096TIP3   OH2 6251   0.974   1.758   4.345
 2096TIP3    H1 6252   0.953   1.687   4.410
 2096TIP3    H2 6253   1.066   1.777   4.369
 2097TIP3   OH2 6254   0.954   1.511   3.500
 2097TIP3    H1 6255   0.891   1.538   3.430
 2097TIP3    H2 6256   0.992   1.433   3.454
 2098TIP3   OH2 6257   0.248   1.544   4.233
 2098TIP3    H1 6258   0.293   1.606   4.293
 2098TIP3    H2 6259   0.232   1.467   4.289
 2099TIP3   OH2 6260   0.965   1.756   3.920
 2099TIP3    H1 6261   0.999   1.685   3.861
 2099TIP3    H2 6262   0.934   1.701   3.996
 2100TIP3   OH2 6263   0.646   1.224   3.594
 2100TIP3    H1 6264   0.564   1.217   3.647
 2100TIP3    H2 6265   0.715   1.216   3.662
 2101TIP3   OH2 6266   0.074   1.279   3.596
 2101TIP3    H1 6267  -0.019   1.283   3.562
 2101TIP3    H2 6268   0.092   1.183   3.597
 2102TIP3   OH2 6269   0.350   1.312   3.289
 2102TIP3    H1 6270   0.445   1.295   3.301
 2102TIP3    H2 6271   0.339   1.295   3.195
 2103TIP3   OH2 6272   1.131   1.298   3.800
 2103TIP3    H1 6273   1.099   1.312   3.892
 2103TIP3    H2 6274   1.062   1.239   3.766
 2104TIP3   OH2 6275   1.303   2.986   4.019
 2104TIP3    H1 6276   1.301   3.013   3.926
 2104TIP3    H2 6277   1.384   3.032   4.051
 2105TIP3   OH2 6278   0.256   2.098   4.438
 2105TIP3    H1 6279   0.340   2.125   4.480
 2105TIP3    H2 6280   0.197   2.097   4.515
 2106TIP3   OH2 6281   0.719   1.554   3.692
 2106TIP3    H1 6282   0.793   1.515   3.642
 2106TIP3    H2 6283   0.725   1.507   3.777
 2107TIP3   OH2 6284   0.253   1.040   3.566
 2107TIP3    H1 6285   0.203   0.960   3.588
 2107TIP3    H2 6286   0.310   1.009   3.494
 2108TIP3   OH2 6287   0.697   1.453   3.982
 2108TIP3    H1 6288   0.608   1.490   3.997
 2108TIP3    H2 6289   0.755   1.514   4.031
 2109TIP3   OH2 6290   0.448   1.852   3.082
 2109TIP3    H1 6291   0.390   1.773   3.076
 2109TIP3    H2 6292   0.423   1.885   3.172
 2110TIP3   OH2 6293   1.330   2.074   3.702
 2110TIP3    H1 6294   1.354   2.127   3.622
 2110TIP3    H2 6295   1.246   2.032   3.674
 2111TIP3   OH2 6296   0.928   1.138   2.951
 2111TIP3    H1 6297   0.854   1.137   2.887
 2111TIP3    H2 6298   0.935   1.233   2.973
 2112TIP3   OH2 6299   0.824   2.154   4.078
 2112TIP3    H1 6300   0.871   2.145   4.162
 2112TIP3    H2 6301   0.794   2.246   4.080
 2113TIP3   OH2 6302   0.962   1.399   3.042
 2113TIP3    H1 6303   1.057   1.409   3.061
 2113TIP3    H2 6304   0.941   1.479   2.991
 2114TIP3   OH2 6305   0.124   1.861   3.750
 2114TIP3    H1 6306   0.163   1.836   3.664
 2114TIP3    H2 6307   0.176   1.807   3.811
 2115TIP3   OH2 6308   0.578   1.992   2.889
 2115TIP3    H1 6309   0.530   2.078   2.895
 2115TIP3    H2 6310   0.529   1.940   2.957
 2116TIP3   OH2 6311  -0.004   1.785   4.383
 2116TIP3    H1 6312   0.041   1.780   4.469
 2116TIP3    H2 6313  -0.036   1.694   4.371
 2117TIP3   OH2 6314   0.737   1.898   4.384
 2117TIP3    H1 6315   0.678   1.838   4.336
 2117TIP3    H2 6316   0.825   1.863   4.357
 2118TIP3   OH2 6317   0.988   2.411   3.975
 2118TIP3    H1 6318   0.892   2.417   3.988
 2118TIP3    H2 6319   1.019   2.466   4.050
 2119TIP3   OH2 6320   1.394   1.489   2.883
 2119TIP3    H1 6321   1.334   1.444   2.819
 2119TIP3    H2 6322   1.395   1.578   2.841
 2120TIP3   OH2 6323   1.619   2.347   3.961
 2120TIP3    H1 6324   1.521   2.344   3.951
 2120TIP3    H2 6325   1.646   2.318   3.871
 2121TIP3   OH2 6326   1.104   2.291   2.780
 2121TIP3    H1 6327   1.087   2.274   2.874
 2121TIP3    H2 6328   1.067   2.211   2.740
 2122TIP3   OH2 6329   1.097   1.938   3.618
 2122TIP3    H1 6330   1.003   1.916   3.632
 2122TIP3    H2 6331   1.129   1.857   3.575
 2123TIP3   OH2 6332   0.227   2.168   3.378
 2123TIP3    H1 6333   0.222   2.249   3.323
 2123TIP3    H2 6334   0.134   2.151   3.395
 2124TIP3   OH2 6335   0.358   1.931   3.322
 2124TIP3    H1 6336   0.322   2.020   3.342
 2124TIP3    H2 6337   0.324   1.879   3.397
 2125TIP3   OH2 6338   0.498   2.507   3.846
 2125TIP3    H1 6339   0.539   2.581   3.797
 2125TIP3    H2 6340   0.575   2.471   3.893
 2126TIP3   OH2 6341   0.144   2.405   3.227
 2126TIP3    H1 6342   0.060   2.412   3.277
 2126TIP3    H2 6343   0.176   2.498   3.233
 2127TIP3   OH2 6344   0.878   2.142   3.809
 2127TIP3    H1 6345   0.866   2.139   3.907
 2127TIP3    H2 6346   0.961   2.094   3.798
 2128TIP3   OH2 6347   0.862   2.049   2.694
 2128TIP3    H1 6348   0.920   2.014   2.765
 2128TIP3    H2 6349   0.776   2.020   2.728
 2129TIP3   OH2 6350   1.130   2.672   3.852
 2129TIP3    H1 6351   1.047   2.620   3.845
 2129TIP3    H2 6352   1.116   2.739   3.781
 2130TIP3   OH2 6353   1.189   2.506   2.500
 2130TIP3    H1 6354   1.228   2.586   2.460
 2130TIP3    H2 6355   1.109   2.547   2.541
 2131TIP3   OH2 6356   0.214   1.269   4.380
 2131TIP3    H1 6357   0.123   1.279   4.413
 2131TIP3    H2 6358   0.257   1.231   4.459
 2132TIP3   OH2 6359   1.023   1.964   2.897
 2132TIP3    H1 6360   1.010   1.902   2.971
 2132TIP3    H2 6361   1.121   1.962   2.890
 2133TIP3   OH2 6362  -0.071   2.377   4.006
 2133TIP3    H1 6363  -0.018   2.303   4.041
 2133TIP3    H2 6364  -0.033   2.452   4.053
 2134TIP3   OH2 6365   0.216   2.029   2.679
 2134TIP3    H1 6366   0.267   1.950   2.656
 2134TIP3    H2 6367   0.208   2.018   2.777
 2135TIP3   OH2 6368   0.199   2.023   2.946
 2135TIP3    H1 6369   0.250   1.989   3.020
 2135TIP3    H2 6370   0.191   2.119   2.968
 2136TIP3   OH2 6371  -0.082   1.709   3.181
 2136TIP3    H1 6372  -0.160   1.740   3.231
 2136TIP3    H2 6373  -0.080   1.777   3.110
 2137TIP3   OH2 6374   1.058   1.352   4.059
 2137TIP3    H1 6375   1.138   1.390   4.099
 2137TIP3    H2 6376   1.046   1.270   4.112
 2138TIP3   OH2 6377   0.939   1.095   3.236
 2138TIP3    H1 6378   0.927   1.110   3.140
 2138TIP3    H2 6379   0.977   1.180   3.266
 2139TIP3   OH2 6380   0.439   2.224   2.905
 2139TIP3    H1 6381   0.352   2.240   2.946
 2139TIP3    H2 6382   0.451   2.307   2.857
 2140TIP3   OH2 6383   0.619   1.283   3.326
 2140TIP3    H1 6384   0.683   1.355   3.308
 2140TIP3    H2 6385   0.629   1.271   3.423
 2141TIP3   OH2 6386   0.893   1.597   4.129
 2141TIP3    H1 6387   0.920   1.649   4.208
 2141TIP3    H2 6388   0.945   1.515   4.140
 2142TIP3   OH2 6389   0.771   1.008   3.436
 2142TIP3    H1 6390   0.762   1.091   3.485
 2142TIP3    H2 6391   0.832   1.036   3.363
 2143TIP3   OH2 6392   0.180   2.292   2.981
 2143TIP3    H1 6393   0.152   2.364   2.920
 2143TIP3    H2 6394   0.166   2.335   3.068
 2144TIP3   OH2 6395   1.531   1.499   4.104
 2144TIP3    H1 6396   1.434   1.502   4.121
 2144TIP3    H2 6397   1.531   1.444   4.024
 2145TIP3   OH2 6398   1.183   1.692   3.500
 2145TIP3    H1 6399   1.106   1.633   3.513
 2145TIP3    H2 6400   1.253   1.645   3.549
 2146TIP3   OH2 6401  -0.078   1.908   2.992
 2146TIP3    H1 6402  -0.057   1.995   3.026
 2146TIP3    H2 6403  -0.080   1.926   2.897
 2147TIP3   OH2 6404   1.153   2.651   3.446
 2147TIP3    H1 6405   1.110   2.698   3.371
 2147TIP3    H2 6406   1.247   2.671   3.426
 2148TIP3   OH2 6407  -0.257   2.118   3.345
 2148TIP3    H1 6408  -0.281   2.163   3.428
 2148TIP3    H2 6409  -0.286   2.183   3.278
 2149TIP3   OH2 6410  -0.055   2.704   4.417
 2149TIP3    H1 6411   0.022   2.713   4.478
 2149TIP3    H2 6412  -0.053   2.609   4.402
 2150TIP3   OH2 6413   0.398   2.637   4.475
 2150TIP3    H1 6414   0.494   2.632   4.485
 2150TIP3    H2 6415   0.383   2.575   4.401
 2151TIP3   OH2 6416   0.391   2.219   2.592
 2151TIP3    H1 6417   0.330   2.154   2.633
 2151TIP3    H2 6418   0.463   2.161   2.564
 2152TIP3   OH2 6419   1.046   2.549   4.205
 2152TIP3    H1 6420   1.037   2.481   4.276
 2152TIP3    H2 6421   1.121   2.603   4.237
 2153TIP3   OH2 6422   0.823   2.254   2.522
 2153TIP3    H1 6423   0.851   2.178   2.579
 2153TIP3    H2 6424   0.875   2.241   2.441
 2154TIP3   OH2 6425   0.046   2.071   4.620
 2154TIP3    H1 6426   0.082   1.982   4.636
 2154TIP3    H2 6427  -0.031   2.049   4.567
 2155TIP3   OH2 6428   0.657   2.173   4.405
 2155TIP3    H1 6429   0.624   2.198   4.316
 2155TIP3    H2 6430   0.692   2.083   4.390
 2156TIP3   OH2 6431   0.530   1.934   2.629
 2156TIP3    H1 6432   0.548   1.948   2.724
 2156TIP3    H2 6433   0.540   1.836   2.623
 2157TIP3   OH2 6434   1.152   2.187   4.010
 2157TIP3    H1 6435   1.230   2.226   3.967
 2157TIP3    H2 6436   1.086   2.258   3.994
 2158TIP3   OH2 6437   0.156   1.816   4.615
 2158TIP3    H1 6438   0.231   1.764   4.582
 2158TIP3    H2 6439   0.190   1.846   4.702
 2159TIP3   OH2 6440   0.296   1.628   3.074
 2159TIP3    H1 6441   0.234   1.616   3.148
 2159TIP3    H2 6442   0.266   1.561   3.012
 2160TIP3   OH2 6443   0.504   1.697   4.267
 2160TIP3    H1 6444   0.432   1.763   4.272
 2160TIP3    H2 6445   0.560   1.735   4.195
 2161TIP3   OH2 6446   1.024   2.105   4.404
 2161TIP3    H1 6447   1.106   2.078   4.361
 2161TIP3    H2 6448   1.019   2.044   4.480
 2162TIP3   OH2 6449   1.153   1.764   2.543
 2162TIP3    H1 6450   1.148   1.712   2.461
 2162TIP3    H2 6451   1.093   1.837   2.524
 2163TIP3   OH2 6452   0.634   1.497   4.398
 2163TIP3    H1 6453   0.637   1.417   4.341
 2163TIP3    H2 6454   0.589   1.562   4.339
 2164TIP3   OH2 6455   0.639   1.285   4.209
 2164TIP3    H1 6456   0.668   1.325   4.125
 2164TIP3    H2 6457   0.547   1.258   4.188
 2165TIP3   OH2 6458   0.655   1.814   4.080
 2165TIP3    H1 6459   0.744   1.831   4.045
 2165TIP3    H2 6460   0.601   1.880   4.033
 2166TIP3   OH2 6461   1.238   1.781   4.455
 2166TIP3    H1 6462   1.290   1.701   4.469
 2166TIP3    H2 6463   1.305   1.844   4.424
 2167TIP3   OH2 6464   1.283   2.034   4.190
 2167TIP3    H1 6465   1.224   2.091   4.135
 2167TIP3    H2 6466   1.370   2.059   4.152
 2168TIP3   OH2 6467   0.511   1.607   4.629
 2168TIP3    H1 6468   0.442   1.539   4.642
 2168TIP3    H2 6469   0.548   1.580   4.542
 2169TIP3   OH2 6470   0.782   1.052   4.276
 2169TIP3    H1 6471   0.727   1.130   4.256
 2169TIP3    H2 6472   0.717   0.979   4.262
 2170TIP3   OH2 6473   0.893   1.543   4.493
 2170TIP3    H1 6474   0.877   1.529   4.588
 2170TIP3    H2 6475   0.804   1.522   4.459
 2171TIP3   OH2 6476   1.130   1.494   4.346
 2171TIP3    H1 6477   1.056   1.497   4.410
 2171TIP3    H2 6478   1.205   1.466   4.402
 2172TIP3   OH2 6479   1.366   1.441   4.493
 2172TIP3    H1 6480   1.376   1.344   4.508
 2172TIP3    H2 6481   1.358   1.476   4.584
 2173TIP3   OH2 6482   0.336   1.403   4.684
 2173TIP3    H1 6483   0.328   1.306   4.676
 2173TIP3    H2 6484   0.391   1.403   4.766
 2174TIP3   OH2 6485   0.867   1.054   4.535
 2174TIP3    H1 6486   0.928   0.978   4.526
 2174TIP3    H2 6487   0.826   1.054   4.446
 2175TIP3   OH2 6488   0.931   1.269   4.690
 2175TIP3    H1 6489   0.909   1.197   4.627
 2175TIP3    H2 6490   0.850   1.325   4.686
 2176TIP3   OH2 6491   0.149   2.492   2.791
 2176TIP3    H1 6492   0.244   2.479   2.775
 2176TIP3    H2 6493   0.130   2.553   2.717
 2177TIP3   OH2 6494  -0.283   2.337   3.567
 2177TIP3    H1 6495  -0.375   2.304   3.585
 2177TIP3    H2 6496  -0.264   2.391   3.645
 2178TIP3   OH2 6497   1.409   2.737   3.411
 2178TIP3    H1 6498   1.432   2.771   3.499
 2178TIP3    H2 6499   1.471   2.785   3.354
 2179TIP3   OH2 6500   1.432   2.760   3.692
 2179TIP3    H1 6501   1.390   2.672   3.689
 2179TIP3    H2 6502   1.510   2.741   3.746
 2180TIP3   OH2 6503   1.483   2.435   4.266
 2180TIP3    H1 6504   1.410   2.448   4.330
 2180TIP3    H2 6505   1.525   2.524   4.267
 2181TIP3   OH2 6506   1.297   1.949   2.879
 2181TIP3    H1 6507   1.355   2.024   2.853
 2181TIP3    H2 6508   1.345   1.916   2.959
 2182TIP3   OH2 6509   1.425   1.820   3.086
 2182TIP3    H1 6510   1.358   1.778   3.145
 2182TIP3    H2 6511   1.491   1.854   3.150
 2183TIP3   OH2 6512   1.486   2.213   3.518
 2183TIP3    H1 6513   1.535   2.144   3.470
 2183TIP3    H2 6514   1.483   2.286   3.453
 2184TIP3   OH2 6515   1.308   2.509   3.713
 2184TIP3    H1 6516   1.237   2.554   3.762
 2184TIP3    H2 6517   1.259   2.466   3.640
 2185TIP3   OH2 6518   1.361   1.722   2.732
 2185TIP3    H1 6519   1.290   1.727   2.666
 2185TIP3    H2 6520   1.338   1.798   2.789
 2186TIP3   OH2 6521   1.229   1.387   2.689
 2186TIP3    H1 6522   1.197   1.422   2.605
 2186TIP3    H2 6523   1.203   1.293   2.680
 2187TIP3   OH2 6524   1.238   1.678   3.231
 2187TIP3    H1 6525   1.246   1.582   3.221
 2187TIP3    H2 6526   1.223   1.688   3.328
 2188TIP3   OH2 6527  -0.131   1.721   3.993
 2188TIP3    H1 6528  -0.142   1.726   3.897
 2188TIP3    H2 6529  -0.035   1.738   4.003
 2189TIP3   OH2 6530   1.530   2.100   4.089
 2189TIP3    H1 6531   1.603   2.036   4.074
 2189TIP3    H2 6532   1.553   2.172   4.028
 2190TIP3   OH2 6533   1.714   1.895   4.091
 2190TIP3    H1 6534   1.636   1.852   4.134
 2190TIP3    H2 6535   1.786   1.837   4.123
 2191TIP3   OH2 6536   1.168   1.112   2.689
 2191TIP3    H1 6537   1.260   1.104   2.721
 2191TIP3    H2 6538   1.119   1.105   2.772
 2192TIP3   OH2 6539   1.238   1.395   3.121
 2192TIP3    H1 6540   1.277   1.306   3.136
 2192TIP3    H2 6541   1.296   1.427   3.050
 2193TIP3   OH2 6542   1.396   1.560   3.622
 2193TIP3    H1 6543   1.481   1.584   3.580
 2193TIP3    H2 6544   1.411   1.600   3.710
 2194TIP3   OH2 6545   1.470   1.709   3.849
 2194TIP3    H1 6546   1.393   1.742   3.899
 2194TIP3    H2 6547   1.502   1.792   3.806
 2195TIP3   OH2 6548   0.075   1.459   4.637
 2195TIP3    H1 6549   0.173   1.454   4.641
 2195TIP3    H2 6550   0.053   1.386   4.697
 2196TIP3   OH2 6551   1.921   1.307   4.405
 2196TIP3    H1 6552   1.980   1.241   4.364
 2196TIP3    H2 6553   1.887   1.355   4.326
 2197TIP3   OH2 6554   1.343   1.146   3.165
 2197TIP3    H1 6555   1.392   1.128   3.248
 2197TIP3    H2 6556   1.283   1.069   3.163
 2198TIP3   OH2 6557   0.068   1.131   3.881
 2198TIP3    H1 6558   0.080   1.073   3.958
 2198TIP3    H2 6559   0.127   1.205   3.904
 2199TIP3   OH2 6560  -0.131   1.452   4.067
 2199TIP3    H1 6561  -0.081   1.430   3.986
 2199TIP3    H2 6562  -0.143   1.549   4.053
 2200TIP3   OH2 6563   1.784   1.438   4.208
 2200TIP3    H1 6564   1.700   1.479   4.238
 2200TIP3    H2 6565   1.747   1.366   4.153
 2201TIP3   OH2 6566   1.413   1.091   2.805
 2201TIP3    H1 6567   1.444   1.013   2.755
 2201TIP3    H2 6568   1.488   1.153   2.799
 2202TIP3   OH2 6569   0.991   2.606   3.062
 2202TIP3    H1 6570   1.047   2.604   2.982
 2202TIP3    H2 6571   1.034   2.675   3.116
 2203TIP3   OH2 6572   0.065   2.424   4.448
 2203TIP3    H1 6573   0.046   2.333   4.419
 2203TIP3    H2 6574   0.105   2.411   4.535
 2204TIP3   OH2 6575   0.272   2.450   3.996
 2204TIP3    H1 6576   0.226   2.527   3.955
 2204TIP3    H2 6577   0.358   2.462   3.951
 2205TIP3   OH2 6578   0.707   2.689   4.130
 2205TIP3    H1 6579   0.749   2.687   4.219
 2205TIP3    H2 6580   0.774   2.742   4.081
 2206TIP3   OH2 6581   0.891   2.844   3.997
 2206TIP3    H1 6582   0.962   2.795   3.955
 2206TIP3    H2 6583   0.942   2.901   4.059
 2207TIP3   OH2 6584   1.687   1.200   4.093
 2207TIP3    H1 6585   1.597   1.189   4.057
 2207TIP3    H2 6586   1.721   1.108   4.085
 2208TIP3   OH2 6587  -0.050   2.695   4.031
 2208TIP3    H1 6588  -0.131   2.715   3.983
 2208TIP3    H2 6589  -0.056   2.756   4.106
 2209TIP3   OH2 6590   0.184   2.680   3.879
 2209TIP3    H1 6591   0.099   2.695   3.924
 2209TIP3    H2 6592   0.164   2.705   3.787
 2210TIP3   OH2 6593   0.606   2.705   3.678
 2210TIP3    H1 6594   0.537   2.724   3.611
 2210TIP3    H2 6595   0.618   2.794   3.719
 2211TIP3   OH2 6596   0.876   2.643   3.729
 2211TIP3    H1 6597   0.783   2.665   3.711
 2211TIP3    H2 6598   0.922   2.717   3.686
 2212TIP3   OH2 6599   1.077   2.835   3.640
 2212TIP3    H1 6600   1.065   2.921   3.594
 2212TIP3    H2 6601   1.107   2.777   3.567
 2213TIP3   OH2 6602  -0.141   2.495   3.766
 2213TIP3    H1 6603  -0.120   2.467   3.857
 2213TIP3    H2 6604  -0.069   2.449   3.717
 2214TIP3   OH2 6605   0.057   2.370   3.627
 2214TIP3    H1 6606   0.070   2.285   3.676
 2214TIP3    H2 6607   0.148   2.405   3.624
 2215TIP3   OH2 6608   0.321   2.457   3.631
 2215TIP3    H1 6609   0.352   2.364   3.623
 2215TIP3    H2 6610   0.370   2.483   3.711
 2216TIP3   OH2 6611   0.893   1.119   3.717
 2216TIP3    H1 6612   0.849   1.046   3.765
 2216TIP3    H2 6613   0.966   1.073   3.671
 2217TIP3   OH2 6614   1.411   1.003   3.621
 2217TIP3    H1 6615   1.447   1.050   3.543
 2217TIP3    H2 6616   1.315   1.017   3.611
 2218TIP3   OH2 6617   1.506   1.093   3.383
 2218TIP3    H1 6618   1.579   1.042   3.343
 2218TIP3    H2 6619   1.540   1.185   3.369
 2219TIP3   OH2 6620   0.587   0.895   3.616
 2219TIP3    H1 6621   0.645   0.938   3.551
 2219TIP3    H2 6622   0.632   0.914   3.700
 2220TIP3   OH2 6623   1.127   1.006   3.592
 2220TIP3    H1 6624   1.131   0.966   3.504
 2220TIP3    H2 6625   1.114   0.926   3.648
 2221TIP3   OH2 6626   1.159   0.935   3.165
 2221TIP3    H1 6627   1.074   0.979   3.183
 2221TIP3    H2 6628   1.146   0.849   3.209
 2222TIP3   OH2 6629  -0.358   2.281   3.151
 2222TIP3    H1 6630  -0.438   2.243   3.110
 2222TIP3    H2 6631  -0.363   2.374   3.121
 2223TIP3   OH2 6632   0.554   1.020   3.258
 2223TIP3    H1 6633   0.622   0.988   3.319
 2223TIP3    H2 6634   0.578   1.115   3.256
 2224TIP3   OH2 6635   0.416   2.450   2.738
 2224TIP3    H1 6636   0.504   2.476   2.704
 2224TIP3    H2 6637   0.397   2.376   2.676
 2225TIP3   OH2 6638   1.140   2.569   2.828
 2225TIP3    H1 6639   1.134   2.473   2.809
 2225TIP3    H2 6640   1.088   2.606   2.752
 2226TIP3   OH2 6641   6.030   6.827   1.832
 2226TIP3    H1 6642   6.000   6.759   1.896
 2226TIP3    H2 6643   6.126   6.812   1.836
 2227TIP3   OH2 6644   0.599   1.081   4.756
 2227TIP3    H1 6645   0.685   1.063   4.715
 2227TIP3    H2 6646   0.587   0.998   4.806
 2228TIP3   OH2 6647  -0.212   2.362   2.843
 2228TIP3    H1 6648  -0.238   2.384   2.933
 2228TIP3    H2 6649  -0.124   2.322   2.852
 2229TIP3   OH2 6650   1.426   1.168   4.525
 2229TIP3    H1 6651   1.441   1.137   4.617
 2229TIP3    H2 6652   1.516   1.161   4.486
 2230TIP3   OH2 6653   1.359   2.717   4.016
 2230TIP3    H1 6654   1.280   2.689   3.965
 2230TIP3    H2 6655   1.341   2.813   4.024
 2231TIP3   OH2 6656   2.631   2.092   2.779
 2231TIP3    H1 6657   2.600   2.183   2.762
 2231TIP3    H2 6658   2.555   2.041   2.746
 2232TIP3   OH2 6659   2.634   2.088   3.165
 2232TIP3    H1 6660   2.664   2.070   3.256
 2232TIP3    H2 6661   2.586   2.007   3.143
 2233TIP3   OH2 6662   1.924   1.988   3.529
 2233TIP3    H1 6663   1.958   1.916   3.584
 2233TIP3    H2 6664   2.004   2.040   3.513
 2234TIP3   OH2 6665   2.876   2.398   2.849
 2234TIP3    H1 6666   2.854   2.334   2.919
 2234TIP3    H2 6667   2.905   2.475   2.901
 2235TIP3   OH2 6668   1.899   2.396   3.249
 2235TIP3    H1 6669   1.893   2.298   3.249
 2235TIP3    H2 6670   1.996   2.408   3.246
 2236TIP3   OH2 6671   1.602   1.592   3.039
 2236TIP3    H1 6672   1.556   1.676   3.054
 2236TIP3    H2 6673   1.532   1.542   2.993
 2237TIP3   OH2 6674   1.661   1.882   3.216
 2237TIP3    H1 6675   1.711   1.804   3.248
 2237TIP3    H2 6676   1.718   1.914   3.145
 2238TIP3   OH2 6677   2.523   2.855   2.864
 2238TIP3    H1 6678   2.566   2.781   2.817
 2238TIP3    H2 6679   2.516   2.820   2.954
 2239TIP3   OH2 6680   2.423   2.317   3.215
 2239TIP3    H1 6681   2.466   2.244   3.167
 2239TIP3    H2 6682   2.504   2.364   3.243
 2240TIP3   OH2 6683   3.445   1.636   3.214
 2240TIP3    H1 6684   3.473   1.720   3.255
 2240TIP3    H2 6685   3.461   1.655   3.120
 2241TIP3   OH2 6686   2.840   1.814   3.243
 2241TIP3    H1 6687   2.881   1.727   3.262
 2241TIP3    H2 6688   2.805   1.799   3.153
 2242TIP3   OH2 6689   2.183   1.475   3.205
 2242TIP3    H1 6690   2.159   1.548   3.142
 2242TIP3    H2 6691   2.136   1.401   3.161
 2243TIP3   OH2 6692   2.876   1.569   2.830
 2243TIP3    H1 6693   2.946   1.555   2.897
 2243TIP3    H2 6694   2.928   1.605   2.756
 2244TIP3   OH2 6695   1.809   1.677   3.321
 2244TIP3    H1 6696   1.894   1.661   3.365
 2244TIP3    H2 6697   1.822   1.622   3.240
 2245TIP3   OH2 6698   2.247   1.874   3.119
 2245TIP3    H1 6699   2.342   1.850   3.125
 2245TIP3    H2 6700   2.209   1.793   3.079
 2246TIP3   OH2 6701   3.516   1.847   3.383
 2246TIP3    H1 6702   3.432   1.893   3.361
 2246TIP3    H2 6703   3.536   1.887   3.469
 2247TIP3   OH2 6704   2.170   1.465   3.649
 2247TIP3    H1 6705   2.115   1.500   3.577
 2247TIP3    H2 6706   2.114   1.481   3.726
 2248TIP3   OH2 6707   2.523   2.316   2.646
 2248TIP3    H1 6708   2.473   2.298   2.565
 2248TIP3    H2 6709   2.475   2.395   2.679
 2249TIP3   OH2 6710   2.281   2.236   3.438
 2249TIP3    H1 6711   2.223   2.307   3.473
 2249TIP3    H2 6712   2.326   2.282   3.364
 2250TIP3   OH2 6713   3.079   1.574   3.011
 2250TIP3    H1 6714   3.052   1.536   3.095
 2250TIP3    H2 6715   3.127   1.654   3.039
 2251TIP3   OH2 6716   2.049   1.573   3.426
 2251TIP3    H1 6717   2.111   1.647   3.448
 2251TIP3    H2 6718   2.095   1.535   3.348
 2252TIP3   OH2 6719   2.110   2.435   3.535
 2252TIP3    H1 6720   2.088   2.523   3.500
 2252TIP3    H2 6721   2.029   2.418   3.588
 2253TIP3   OH2 6722   1.478   2.141   2.793
 2253TIP3    H1 6723   1.534   2.125   2.715
 2253TIP3    H2 6724   1.520   2.221   2.830
 2254TIP3   OH2 6725   2.938   2.637   3.005
 2254TIP3    H1 6726   2.850   2.629   3.049
 2254TIP3    H2 6727   2.931   2.726   2.965
 2255TIP3   OH2 6728   3.235   1.532   3.376
 2255TIP3    H1 6729   3.148   1.559   3.344
 2255TIP3    H2 6730   3.295   1.568   3.307
 2256TIP3   OH2 6731   2.530   1.177   3.368
 2256TIP3    H1 6732   2.507   1.083   3.376
 2256TIP3    H2 6733   2.451   1.217   3.411
 2257TIP3   OH2 6734   2.640   2.678   2.681
 2257TIP3    H1 6735   2.692   2.597   2.664
 2257TIP3    H2 6736   2.702   2.745   2.643
 2258TIP3   OH2 6737   2.788   2.463   2.597
 2258TIP3    H1 6738   2.730   2.388   2.577
 2258TIP3    H2 6739   2.829   2.433   2.681
 2259TIP3   OH2 6740   3.167   2.544   3.360
 2259TIP3    H1 6741   3.153   2.470   3.298
 2259TIP3    H2 6742   3.147   2.622   3.304
 2260TIP3   OH2 6743   2.461   1.944   2.618
 2260TIP3    H1 6744   2.375   1.989   2.602
 2260TIP3    H2 6745   2.499   1.942   2.529
 2261TIP3   OH2 6746   2.426   1.747   2.316
 2261TIP3    H1 6747   2.496   1.794   2.366
 2261TIP3    H2 6748   2.477   1.675   2.276
 2262TIP3   OH2 6749   3.362   2.187   3.204
 2262TIP3    H1 6750   3.277   2.237   3.208
 2262TIP3    H2 6751   3.393   2.213   3.115
 2263TIP3   OH2 6752   2.810   2.028   2.584
 2263TIP3    H1 6753   2.754   2.051   2.662
 2263TIP3    H2 6754   2.894   2.006   2.629
 2264TIP3   OH2 6755   3.040   2.063   3.503
 2264TIP3    H1 6756   3.038   2.147   3.552
 2264TIP3    H2 6757   2.953   2.068   3.458
 2265TIP3   OH2 6758   2.037   2.014   3.000
 2265TIP3    H1 6759   2.014   1.960   2.920
 2265TIP3    H2 6760   2.115   1.965   3.033
 2266TIP3   OH2 6761   2.169   2.435   3.150
 2266TIP3    H1 6762   2.151   2.399   3.062
 2266TIP3    H2 6763   2.257   2.398   3.170
 2267TIP3   OH2 6764   2.172   1.993   3.361
 2267TIP3    H1 6765   2.203   1.967   3.271
 2267TIP3    H2 6766   2.217   2.080   3.374
 2268TIP3   OH2 6767   2.701   2.629   3.133
 2268TIP3    H1 6768   2.688   2.715   3.179
 2268TIP3    H2 6769   2.682   2.564   3.203
 2269TIP3   OH2 6770   2.320   2.543   3.687
 2269TIP3    H1 6771   2.266   2.606   3.738
 2269TIP3    H2 6772   2.250   2.497   3.636
 2270TIP3   OH2 6773   2.651   1.883   2.412
 2270TIP3    H1 6774   2.707   1.947   2.463
 2270TIP3    H2 6775   2.678   1.904   2.320
 2271TIP3   OH2 6776   2.067   2.096   3.797
 2271TIP3    H1 6777   2.075   2.188   3.829
 2271TIP3    H2 6778   1.970   2.084   3.804
 2272TIP3   OH2 6779   2.393   2.558   2.684
 2272TIP3    H1 6780   2.476   2.609   2.693
 2272TIP3    H2 6781   2.332   2.624   2.650
 2273TIP3   OH2 6782   2.107   2.709   3.768
 2273TIP3    H1 6783   2.072   2.719   3.678
 2273TIP3    H2 6784   2.026   2.689   3.821
 2274TIP3   OH2 6785   3.160   1.118   2.460
 2274TIP3    H1 6786   3.079   1.141   2.511
 2274TIP3    H2 6787   3.177   1.203   2.415
 2275TIP3   OH2 6788   2.962   2.488   2.008
 2275TIP3    H1 6789   2.970   2.585   1.996
 2275TIP3    H2 6790   3.055   2.460   1.997
 2276TIP3   OH2 6791   1.683   2.248   3.718
 2276TIP3    H1 6792   1.616   2.233   3.649
 2276TIP3    H2 6793   1.723   2.159   3.730
 2277TIP3   OH2 6794   1.541   2.443   3.347
 2277TIP3    H1 6795   1.637   2.440   3.340
 2277TIP3    H2 6796   1.529   2.522   3.403
 2278TIP3   OH2 6797   3.405   2.882   3.403
 2278TIP3    H1 6798   3.396   2.790   3.431
 2278TIP3    H2 6799   3.326   2.922   3.445
 2279TIP3   OH2 6800   2.507   2.687   3.542
 2279TIP3    H1 6801   2.514   2.774   3.587
 2279TIP3    H2 6802   2.440   2.643   3.600
 2280TIP3   OH2 6803   2.275   2.806   2.491
 2280TIP3    H1 6804   2.226   2.795   2.408
 2280TIP3    H2 6805   2.242   2.892   2.523
 2281TIP3   OH2 6806   1.710   2.656   2.880
 2281TIP3    H1 6807   1.760   2.650   2.964
 2281TIP3    H2 6808   1.658   2.574   2.884
 2282TIP3   OH2 6809   2.470   2.709   2.128
 2282TIP3    H1 6810   2.531   2.640   2.094
 2282TIP3    H2 6811   2.505   2.723   2.219
 2283TIP3   OH2 6812   2.524   2.758   2.396
 2283TIP3    H1 6813   2.437   2.768   2.439
 2283TIP3    H2 6814   2.578   2.727   2.471
 2284TIP3   OH2 6815   3.293   2.021   3.684
 2284TIP3    H1 6816   3.210   2.037   3.636
 2284TIP3    H2 6817   3.306   1.926   3.669
 2285TIP3   OH2 6818   1.888   2.430   3.695
 2285TIP3    H1 6819   1.936   2.421   3.780
 2285TIP3    H2 6820   1.813   2.368   3.707
 2286TIP3   OH2 6821   2.290   1.253   3.491
 2286TIP3    H1 6822   2.201   1.224   3.460
 2286TIP3    H2 6823   2.265   1.336   3.536
 2287TIP3   OH2 6824   2.826   1.369   3.685
 2287TIP3    H1 6825   2.894   1.341   3.748
 2287TIP3    H2 6826   2.742   1.349   3.732
 2288TIP3   OH2 6827   3.063   1.802   3.595
 2288TIP3    H1 6828   3.012   1.797   3.679
 2288TIP3    H2 6829   3.040   1.890   3.561
 2289TIP3   OH2 6830   2.723   1.919   2.155
 2289TIP3    H1 6831   2.688   1.901   2.066
 2289TIP3    H2 6832   2.804   1.969   2.133
 2290TIP3   OH2 6833   2.442   1.300   2.459
 2290TIP3    H1 6834   2.406   1.297   2.550
 2290TIP3    H2 6835   2.395   1.223   2.421
 2291TIP3   OH2 6836   2.223   1.771   3.508
 2291TIP3    H1 6837   2.172   1.793   3.588
 2291TIP3    H2 6838   2.209   1.853   3.454
 2292TIP3   OH2 6839   2.108   1.656   3.020
 2292TIP3    H1 6840   2.012   1.645   3.033
 2292TIP3    H2 6841   2.114   1.636   2.924
 2293TIP3   OH2 6842   2.598   1.746   2.754
 2293TIP3    H1 6843   2.546   1.817   2.710
 2293TIP3    H2 6844   2.649   1.710   2.680
 2294TIP3   OH2 6845   2.782   2.018   3.818
 2294TIP3    H1 6846   2.772   1.949   3.886
 2294TIP3    H2 6847   2.870   2.052   3.840
 2295TIP3   OH2 6848   2.750   1.768   2.988
 2295TIP3    H1 6849   2.687   1.798   2.919
 2295TIP3    H2 6850   2.785   1.690   2.941
 2296TIP3   OH2 6851   2.041   1.805   3.711
 2296TIP3    H1 6852   2.046   1.883   3.769
 2296TIP3    H2 6853   2.019   1.733   3.773
 2297TIP3   OH2 6854   2.089   1.274   2.437
 2297TIP3    H1 6855   2.074   1.263   2.533
 2297TIP3    H2 6856   2.023   1.342   2.416
 2298TIP3   OH2 6857   1.631   1.318   3.307
 2298TIP3    H1 6858   1.710   1.354   3.351
 2298TIP3    H2 6859   1.663   1.295   3.218
 2299TIP3   OH2 6860   1.600   1.298   2.818
 2299TIP3    H1 6861   1.640   1.336   2.736
 2299TIP3    H2 6862   1.538   1.370   2.838
 2300TIP3   OH2 6863   2.761   2.011   3.409
 2300TIP3    H1 6864   2.795   1.940   3.349
 2300TIP3    H2 6865   2.726   1.956   3.482
 2301TIP3   OH2 6866   2.439   1.469   3.083
 2301TIP3    H1 6867   2.353   1.475   3.128
 2301TIP3    H2 6868   2.501   1.478   3.157
 2302TIP3   OH2 6869   1.863   1.534   3.097
 2302TIP3    H1 6870   1.771   1.546   3.062
 2302TIP3    H2 6871   1.888   1.447   3.062
 2303TIP3   OH2 6872   2.127   1.546   2.761
 2303TIP3    H1 6873   2.219   1.565   2.737
 2303TIP3    H2 6874   2.080   1.626   2.730
 2304TIP3   OH2 6875   2.924   1.552   3.284
 2304TIP3    H1 6876   2.895   1.569   3.376
 2304TIP3    H2 6877   2.852   1.492   3.255
 2305TIP3   OH2 6878   3.124   3.236   3.463
 2305TIP3    H1 6879   3.101   3.277   3.377
 2305TIP3    H2 6880   3.220   3.263   3.465
 2306TIP3   OH2 6881   2.054   2.349   3.923
 2306TIP3    H1 6882   2.134   2.382   3.968
 2306TIP3    H2 6883   1.989   2.358   3.995
 2307TIP3   OH2 6884   2.514   1.807   3.179
 2307TIP3    H1 6885   2.590   1.772   3.131
 2307TIP3    H2 6886   2.520   1.763   3.265
 2308TIP3   OH2 6887   2.042   1.292   3.056
 2308TIP3    H1 6888   2.003   1.215   3.103
 2308TIP3    H2 6889   2.053   1.258   2.966
 2309TIP3   OH2 6890   2.491   1.706   3.472
 2309TIP3    H1 6891   2.400   1.741   3.484
 2309TIP3    H2 6892   2.546   1.771   3.522
 2310TIP3   OH2 6893   2.217   2.081   2.571
 2310TIP3    H1 6894   2.156   2.007   2.589
 2310TIP3    H2 6895   2.208   2.128   2.658
 2311TIP3   OH2 6896   3.128   2.328   3.189
 2311TIP3    H1 6897   3.150   2.383   3.111
 2311TIP3    H2 6898   3.042   2.288   3.162
 2312TIP3   OH2 6899   2.687   1.407   2.426
 2312TIP3    H1 6900   2.592   1.383   2.438
 2312TIP3    H2 6901   2.691   1.500   2.458
 2313TIP3   OH2 6902   2.620   2.414   3.566
 2313TIP3    H1 6903   2.664   2.413   3.652
 2313TIP3    H2 6904   2.586   2.505   3.562
 2314TIP3   OH2 6905   2.753   1.655   2.536
 2314TIP3    H1 6906   2.848   1.664   2.552
 2314TIP3    H2 6907   2.732   1.738   2.488
 2315TIP3   OH2 6908   1.924   2.119   3.232
 2315TIP3    H1 6909   1.957   2.086   3.145
 2315TIP3    H2 6910   1.968   2.058   3.294
 2316TIP3   OH2 6911   2.366   2.238   2.389
 2316TIP3    H1 6912   2.319   2.325   2.390
 2316TIP3    H2 6913   2.311   2.185   2.450
 2317TIP3   OH2 6914   1.805   2.026   3.850
 2317TIP3    H1 6915   1.807   2.017   3.947
 2317TIP3    H2 6916   1.727   1.972   3.827
 2318TIP3   OH2 6917   2.534   2.142   3.875
 2318TIP3    H1 6918   2.470   2.095   3.818
 2318TIP3    H2 6919   2.619   2.116   3.834
 2319TIP3   OH2 6920   2.779   2.655   3.451
 2319TIP3    H1 6921   2.685   2.672   3.468
 2319TIP3    H2 6922   2.818   2.706   3.526
 2320TIP3   OH2 6923   3.194   1.749   2.365
 2320TIP3    H1 6924   3.134   1.706   2.300
 2320TIP3    H2 6925   3.190   1.840   2.328
 2321TIP3   OH2 6926   3.418   2.594   3.453
 2321TIP3    H1 6927   3.320   2.595   3.442
 2321TIP3    H2 6928   3.444   2.571   3.361
 2322TIP3   OH2 6929   2.898   2.567   2.276
 2322TIP3    H1 6930   2.868   2.502   2.342
 2322TIP3    H2 6931   2.910   2.514   2.195
 2323TIP3   OH2 6932   2.894   2.195   3.105
 2323TIP3    H1 6933   2.800   2.173   3.121
 2323TIP3    H2 6934   2.924   2.113   3.060
 2324TIP3   OH2 6935   2.023   2.423   2.862
 2324TIP3    H1 6936   2.018   2.505   2.808
 2324TIP3    H2 6937   1.931   2.408   2.883
 2325TIP3   OH2 6938   1.572   1.724   2.545
 2325TIP3    H1 6939   1.613   1.810   2.568
 2325TIP3    H2 6940   1.506   1.716   2.617
 2326TIP3   OH2 6941   2.162   2.190   2.809
 2326TIP3    H1 6942   2.120   2.276   2.830
 2326TIP3    H2 6943   2.120   2.131   2.874
 2327TIP3   OH2 6944   2.295   2.764   3.333
 2327TIP3    H1 6945   2.339   2.838   3.285
 2327TIP3    H2 6946   2.370   2.731   3.387
 2328TIP3   OH2 6947   1.938   2.663   2.714
 2328TIP3    H1 6948   1.854   2.672   2.763
 2328TIP3    H2 6949   1.972   2.755   2.719
 2329TIP3   OH2 6950   2.672   2.393   3.298
 2329TIP3    H1 6951   2.661   2.396   3.395
 2329TIP3    H2 6952   2.760   2.355   3.289
 2330TIP3   OH2 6953   2.657   2.295   2.176
 2330TIP3    H1 6954   2.712   2.268   2.253
 2330TIP3    H2 6955   2.569   2.267   2.206
 2331TIP3   OH2 6956   2.928   2.924   3.335
 2331TIP3    H1 6957   2.843   2.876   3.332
 2331TIP3    H2 6958   2.912   2.994   3.269
 2332TIP3   OH2 6959   2.993   2.765   1.995
 2332TIP3    H1 6960   3.030   2.841   1.947
 2332TIP3    H2 6961   2.913   2.807   2.031
 2333TIP3   OH2 6962   2.017   1.555   3.900
 2333TIP3    H1 6963   1.920   1.551   3.882
 2333TIP3    H2 6964   2.032   1.470   3.943
 2334TIP3   OH2 6965   2.819   2.217   2.382
 2334TIP3    H1 6966   2.808   2.160   2.460
 2334TIP3    H2 6967   2.917   2.218   2.376
 2335TIP3   OH2 6968   1.729   2.626   3.490
 2335TIP3    H1 6969   1.788   2.560   3.531
 2335TIP3    H2 6970   1.753   2.706   3.539
 2336TIP3   OH2 6971   2.015   2.270   2.176
 2336TIP3    H1 6972   2.031   2.176   2.156
 2336TIP3    H2 6973   1.995   2.265   2.272
 2337TIP3   OH2 6974   1.962   2.278   2.447
 2337TIP3    H1 6975   2.034   2.248   2.505
 2337TIP3    H2 6976   1.965   2.376   2.460
 2338TIP3   OH2 6977   1.658   1.982   2.630
 2338TIP3    H1 6978   1.669   1.966   2.725
 2338TIP3    H2 6979   1.749   1.998   2.604
 2339TIP3   OH2 6980   2.856   1.608   3.545
 2339TIP3    H1 6981   2.936   1.646   3.584
 2339TIP3    H2 6982   2.842   1.527   3.600
 2340TIP3   OH2 6983   2.741   1.349   2.714
 2340TIP3    H1 6984   2.719   1.373   2.623
 2340TIP3    H2 6985   2.775   1.434   2.750
 2341TIP3   OH2 6986   2.230   2.472   2.391
 2341TIP3    H1 6987   2.144   2.493   2.431
 2341TIP3    H2 6988   2.249   2.556   2.347
 2342TIP3   OH2 6989   2.430   1.535   2.813
 2342TIP3    H1 6990   2.486   1.614   2.799
 2342TIP3    H2 6991   2.426   1.531   2.911
 2343TIP3   OH2 6992   2.688   1.850   3.616
 2343TIP3    H1 6993   2.722   1.907   3.688
 2343TIP3    H2 6994   2.745   1.772   3.622
 2344TIP3   OH2 6995   2.561   1.260   2.916
 2344TIP3    H1 6996   2.537   1.343   2.964
 2344TIP3    H2 6997   2.624   1.295   2.849
 2345TIP3   OH2 6998   1.977   2.550   2.467
 2345TIP3    H1 6999   1.947   2.621   2.407
 2345TIP3    H2 7000   1.961   2.591   2.555
 2346TIP3   OH2 7001   2.092   1.275   2.715
 2346TIP3    H1 7002   2.090   1.371   2.735
 2346TIP3    H2 7003   2.189   1.259   2.716
 2347TIP3   OH2 7004   3.327   1.754   3.603
 2347TIP3    H1 7005   3.229   1.754   3.607
 2347TIP3    H2 7006   3.340   1.719   3.514
 2348TIP3   OH2 7007   2.979   1.947   2.986
 2348TIP3    H1 7008   2.901   1.891   3.000
 2348TIP3    H2 7009   3.048   1.900   3.037
 2349TIP3   OH2 7010   1.683   2.217   2.398
 2349TIP3    H1 7011   1.763   2.259   2.435
 2349TIP3    H2 7012   1.721   2.131   2.373
 2350TIP3   OH2 7013   1.626   1.451   2.597
 2350TIP3    H1 7014   1.657   1.543   2.587
 2350TIP3    H2 7015   1.562   1.444   2.525
 2351TIP3   OH2 7016   2.950   2.906   2.931
 2351TIP3    H1 7017   2.907   2.953   2.856
 2351TIP3    H2 7018   3.045   2.925   2.912
 2352TIP3   OH2 7019   2.025   1.176   3.460
 2352TIP3    H1 7020   1.994   1.143   3.372
 2352TIP3    H2 7021   2.012   1.097   3.516
 2353TIP3   OH2 7022   1.565   2.400   2.843
 2353TIP3    H1 7023   1.499   2.425   2.910
 2353TIP3    H2 7024   1.524   2.436   2.761
 2354TIP3   OH2 7025   1.725   2.946   3.917
 2354TIP3    H1 7026   1.811   2.950   3.964
 2354TIP3    H2 7027   1.709   2.851   3.916
 2355TIP3   OH2 7028   2.197   2.897   3.960
 2355TIP3    H1 7029   2.293   2.884   3.965
 2355TIP3    H2 7030   2.177   2.832   3.890
 2356TIP3   OH2 7031   2.177   2.471   2.081
 2356TIP3    H1 7032   2.121   2.402   2.123
 2356TIP3    H2 7033   2.257   2.420   2.062
 2357TIP3   OH2 7034   2.843   2.786   3.672
 2357TIP3    H1 7035   2.814   2.743   3.755
 2357TIP3    H2 7036   2.912   2.848   3.707
 2358TIP3   OH2 7037   2.616   2.511   2.001
 2358TIP3    H1 7038   2.655   2.447   2.064
 2358TIP3    H2 7039   2.678   2.507   1.926
 2359TIP3   OH2 7040   1.849   2.347   4.116
 2359TIP3    H1 7041   1.865   2.251   4.115
 2359TIP3    H2 7042   1.762   2.351   4.070
 2360TIP3   OH2 7043   1.818   1.986   2.309
 2360TIP3    H1 7044   1.858   1.929   2.376
 2360TIP3    H2 7045   1.893   1.996   2.247
 2361TIP3   OH2 7046   2.460   2.419   3.889
 2361TIP3    H1 7047   2.420   2.453   3.806
 2361TIP3    H2 7048   2.487   2.329   3.867
 2362TIP3   OH2 7049   2.344   2.195   2.117
 2362TIP3    H1 7050   2.344   2.204   2.215
 2362TIP3    H2 7051   2.346   2.098   2.109
 2363TIP3   OH2 7052   2.949   2.440   3.497
 2363TIP3    H1 7053   3.027   2.483   3.456
 2363TIP3    H2 7054   2.881   2.509   3.481
 2364TIP3   OH2 7055   1.955   2.091   4.110
 2364TIP3    H1 7056   2.021   2.026   4.086
 2364TIP3    H2 7057   1.991   2.126   4.194
 2365TIP3   OH2 7058   2.308   1.961   3.785
 2365TIP3    H1 7059   2.228   2.017   3.777
 2365TIP3    H2 7060   2.357   1.986   3.704
 2366TIP3   OH2 7061   2.164   1.638   2.344
 2366TIP3    H1 7062   2.119   1.691   2.277
 2366TIP3    H2 7063   2.248   1.684   2.355
 2367TIP3   OH2 7064   2.814   2.355   3.897
 2367TIP3    H1 7065   2.895   2.342   3.847
 2367TIP3    H2 7066   2.821   2.291   3.969
 2368TIP3   OH2 7067   2.956   2.019   2.039
 2368TIP3    H1 7068   2.936   1.978   1.952
 2368TIP3    H2 7069   2.923   2.110   2.021
 2369TIP3   OH2 7070   2.436   1.523   3.690
 2369TIP3    H1 7071   2.464   1.580   3.615
 2369TIP3    H2 7072   2.340   1.514   3.672
 2370TIP3   OH2 7073   2.450   2.070   3.580
 2370TIP3    H1 7074   2.535   2.091   3.539
 2370TIP3    H2 7075   2.390   2.133   3.532
 2371TIP3   OH2 7076   3.039   2.042   3.943
 2371TIP3    H1 7077   3.094   1.962   3.946
 2371TIP3    H2 7078   3.102   2.107   3.908
 2372TIP3   OH2 7079   3.077   2.289   3.679
 2372TIP3    H1 7080   3.019   2.346   3.623
 2372TIP3    H2 7081   3.165   2.314   3.641
 2373TIP3   OH2 7082   2.565   1.294   3.767
 2373TIP3    H1 7083   2.516   1.374   3.736
 2373TIP3    H2 7084   2.497   1.225   3.753
 2374TIP3   OH2 7085   2.723   1.805   3.978
 2374TIP3    H1 7086   2.731   1.805   4.076
 2374TIP3    H2 7087   2.629   1.795   3.961
 2375TIP3   OH2 7088   2.941   1.746   3.825
 2375TIP3    H1 7089   2.867   1.756   3.889
 2375TIP3    H2 7090   3.016   1.722   3.883
 2376TIP3   OH2 7091   3.162   1.696   3.984
 2376TIP3    H1 7092   3.173   1.600   3.998
 2376TIP3    H2 7093   3.153   1.731   4.075
 2377TIP3   OH2 7094   2.658   1.309   4.023
 2377TIP3    H1 7095   2.722   1.236   4.015
 2377TIP3    H2 7096   2.618   1.305   3.933
 2378TIP3   OH2 7097   2.715   1.524   4.179
 2378TIP3    H1 7098   2.720   1.449   4.116
 2378TIP3    H2 7099   2.619   1.531   4.187
 2379TIP3   OH2 7100   1.945   2.749   2.275
 2379TIP3    H1 7101   2.041   2.740   2.259
 2379TIP3    H2 7102   1.921   2.807   2.200
 2380TIP3   OH2 7103   1.346   2.743   2.908
 2380TIP3    H1 7104   1.279   2.683   2.869
 2380TIP3    H2 7105   1.389   2.683   2.973
 2381TIP3   OH2 7106   1.477   2.588   3.095
 2381TIP3    H1 7107   1.465   2.522   3.166
 2381TIP3    H2 7108   1.531   2.654   3.143
 2382TIP3   OH2 7109   3.208   2.988   2.897
 2382TIP3    H1 7110   3.222   3.015   2.991
 2382TIP3    H2 7111   3.262   3.054   2.850
 2383TIP3   OH2 7112   3.232   3.012   3.172
 2383TIP3    H1 7113   3.199   2.921   3.182
 2383TIP3    H2 7114   3.299   3.015   3.242
 2384TIP3   OH2 7115   3.282   2.685   3.749
 2384TIP3    H1 7116   3.206   2.697   3.810
 2384TIP3    H2 7117   3.320   2.775   3.751
 2385TIP3   OH2 7118   3.098   2.204   2.367
 2385TIP3    H1 7119   3.162   2.272   2.338
 2385TIP3    H2 7120   3.143   2.169   2.447
 2386TIP3   OH2 7121   3.225   2.070   2.572
 2386TIP3    H1 7122   3.156   2.033   2.632
 2386TIP3    H2 7123   3.288   2.110   2.636
 2387TIP3   OH2 7124   3.282   2.471   3.007
 2387TIP3    H1 7125   3.330   2.404   2.955
 2387TIP3    H2 7126   3.276   2.545   2.944
 2388TIP3   OH2 7127   3.105   2.761   3.202
 2388TIP3    H1 7128   3.038   2.812   3.252
 2388TIP3    H2 7129   3.053   2.722   3.129
 2389TIP3   OH2 7130   3.160   1.981   2.217
 2389TIP3    H1 7131   3.088   1.985   2.150
 2389TIP3    H2 7132   3.132   2.057   2.273
 2390TIP3   OH2 7133   3.037   1.650   2.167
 2390TIP3    H1 7134   2.982   1.692   2.100
 2390TIP3    H2 7135   3.012   1.556   2.154
 2391TIP3   OH2 7136   3.035   1.935   2.718
 2391TIP3    H1 7137   3.040   1.838   2.711
 2391TIP3    H2 7138   3.019   1.947   2.815
 2392TIP3   OH2 7139   1.659   1.999   3.469
 2392TIP3    H1 7140   1.656   1.967   3.376
 2392TIP3    H2 7141   1.756   2.005   3.482
 2393TIP3   OH2 7142   3.324   2.355   3.578
 2393TIP3    H1 7143   3.397   2.291   3.563
 2393TIP3    H2 7144   3.346   2.428   3.518
 2394TIP3   OH2 7145   3.507   2.154   3.580
 2394TIP3    H1 7146   3.433   2.108   3.626
 2394TIP3    H2 7147   3.580   2.092   3.600
 2395TIP3   OH2 7148   2.977   1.381   2.143
 2395TIP3    H1 7149   3.041   1.356   2.213
 2395TIP3    H2 7150   2.895   1.335   2.168
 2396TIP3   OH2 7151   3.033   1.649   2.611
 2396TIP3    H1 7152   3.074   1.561   2.624
 2396TIP3    H2 7153   3.091   1.684   2.540
 2397TIP3   OH2 7154   3.192   1.814   3.110
 2397TIP3    H1 7155   3.277   1.840   3.068
 2397TIP3    H2 7156   3.205   1.856   3.198
 2398TIP3   OH2 7157   3.265   1.966   3.337
 2398TIP3    H1 7158   3.187   2.000   3.386
 2398TIP3    H2 7159   3.297   2.048   3.293
 2399TIP3   OH2 7160   1.895   1.689   4.164
 2399TIP3    H1 7161   1.963   1.641   4.116
 2399TIP3    H2 7162   1.843   1.613   4.197
 2400TIP3   OH2 7163   3.718   1.562   3.894
 2400TIP3    H1 7164   3.778   1.498   3.851
 2400TIP3    H2 7165   3.682   1.611   3.817
 2401TIP3   OH2 7166   3.144   1.398   2.647
 2401TIP3    H1 7167   3.189   1.383   2.733
 2401TIP3    H2 7168   3.080   1.325   2.647
 2402TIP3   OH2 7169   1.842   1.386   3.481
 2402TIP3    H1 7170   1.903   1.309   3.480
 2402TIP3    H2 7171   1.905   1.458   3.461
 2403TIP3   OH2 7172   1.642   1.656   3.546
 2403TIP3    H1 7173   1.691   1.651   3.461
 2403TIP3    H2 7174   1.662   1.746   3.574
 2404TIP3   OH2 7175   3.580   1.691   3.700
 2404TIP3    H1 7176   3.497   1.739   3.718
 2404TIP3    H2 7177   3.546   1.621   3.641
 2405TIP3   OH2 7178   3.218   1.329   2.288
 2405TIP3    H1 7179   3.264   1.264   2.232
 2405TIP3    H2 7180   3.281   1.404   2.289
 2406TIP3   OH2 7181   1.630   1.175   3.056
 2406TIP3    H1 7182   1.536   1.156   3.075
 2406TIP3    H2 7183   1.624   1.226   2.973
 2407TIP3   OH2 7184   2.783   2.864   2.547
 2407TIP3    H1 7185   2.841   2.862   2.468
 2407TIP3    H2 7186   2.827   2.929   2.604
 2408TIP3   OH2 7187   1.852   1.250   3.862
 2408TIP3    H1 7188   1.796   1.238   3.940
 2408TIP3    H2 7189   1.786   1.283   3.797
 2409TIP3   OH2 7190   1.886   2.662   3.931
 2409TIP3    H1 7191   1.790   2.645   3.921
 2409TIP3    H2 7192   1.897   2.661   4.027
 2410TIP3   OH2 7193   2.067   2.703   3.477
 2410TIP3    H1 7194   2.021   2.781   3.440
 2410TIP3    H2 7195   2.154   2.717   3.436
 2411TIP3   OH2 7196   2.520   2.954   3.653
 2411TIP3    H1 7197   2.556   2.979   3.741
 2411TIP3    H2 7198   2.582   3.002   3.595
 2412TIP3   OH2 7199   2.690   3.103   3.487
 2412TIP3    H1 7200   2.773   3.058   3.463
 2412TIP3    H2 7201   2.717   3.154   3.565
 2413TIP3   OH2 7202   3.483   1.457   3.579
 2413TIP3    H1 7203   3.394   1.450   3.541
 2413TIP3    H2 7204   3.515   1.365   3.570
 2414TIP3   OH2 7205   1.739   2.955   3.512
 2414TIP3    H1 7206   1.648   2.986   3.491
 2414TIP3    H2 7207   1.761   3.013   3.586
 2415TIP3   OH2 7208   1.975   2.936   3.367
 2415TIP3    H1 7209   1.888   2.947   3.409
 2415TIP3    H2 7210   1.958   2.970   3.277
 2416TIP3   OH2 7211   2.403   2.964   3.163
 2416TIP3    H1 7212   2.331   2.985   3.101
 2416TIP3    H2 7213   2.415   3.050   3.209
 2417TIP3   OH2 7214   2.672   2.895   3.210
 2417TIP3    H1 7215   2.579   2.921   3.196
 2417TIP3    H2 7216   2.720   2.974   3.178
 2418TIP3   OH2 7217   2.868   3.091   3.125
 2418TIP3    H1 7218   2.853   3.175   3.077
 2418TIP3    H2 7219   2.899   3.031   3.053
 2419TIP3   OH2 7220   1.652   2.750   3.248
 2419TIP3    H1 7221   1.677   2.723   3.339
 2419TIP3    H2 7222   1.726   2.707   3.198
 2420TIP3   OH2 7223   1.850   2.625   3.111
 2420TIP3    H1 7224   1.864   2.541   3.161
 2420TIP3    H2 7225   1.942   2.660   3.109
 2421TIP3   OH2 7226   2.116   2.714   3.119
 2421TIP3    H1 7227   2.146   2.621   3.112
 2421TIP3    H2 7228   2.165   2.741   3.199
 2422TIP3   OH2 7229   2.698   1.377   3.216
 2422TIP3    H1 7230   2.648   1.307   3.260
 2422TIP3    H2 7231   2.760   1.327   3.160
 2423TIP3   OH2 7232   3.209   1.251   3.101
 2423TIP3    H1 7233   3.244   1.306   3.028
 2423TIP3    H2 7234   3.113   1.272   3.097
 2424TIP3   OH2 7235   3.305   1.349   2.865
 2424TIP3    H1 7236   3.381   1.300   2.828
 2424TIP3    H2 7237   3.338   1.442   2.853
 2425TIP3   OH2 7238   1.935   1.082   3.215
 2425TIP3    H1 7239   1.841   1.052   3.218
 2425TIP3    H2 7240   1.980   0.995   3.207
 2426TIP3   OH2 7241   1.735   0.943   2.878
 2426TIP3    H1 7242   1.758   0.971   2.788
 2426TIP3    H2 7243   1.716   1.026   2.924
 2427TIP3   OH2 7244   2.395   1.103   3.097
 2427TIP3    H1 7245   2.444   1.158   3.033
 2427TIP3    H2 7246   2.396   1.159   3.176
 2428TIP3   OH2 7247   2.928   1.262   3.076
 2428TIP3    H1 7248   2.917   1.222   2.988
 2428TIP3    H2 7249   2.916   1.184   3.135
 2429TIP3   OH2 7250   2.959   1.188   2.642
 2429TIP3    H1 7251   2.876   1.236   2.663
 2429TIP3    H2 7252   2.941   1.102   2.686
 2430TIP3   OH2 7253   1.433   2.526   2.642
 2430TIP3    H1 7254   1.345   2.503   2.609
 2430TIP3    H2 7255   1.435   2.621   2.623
 2431TIP3   OH2 7256   2.365   1.288   2.722
 2431TIP3    H1 7257   2.420   1.246   2.790
 2431TIP3    H2 7258   2.381   1.383   2.745
 2432TIP3   OH2 7259   2.212   2.706   2.224
 2432TIP3    H1 7260   2.300   2.729   2.189
 2432TIP3    H2 7261   2.190   2.631   2.165
 2433TIP3   OH2 7262   2.936   2.834   2.318
 2433TIP3    H1 7263   2.927   2.736   2.310
 2433TIP3    H2 7264   2.887   2.864   2.239
 2434TIP3   OH2 7265   2.142   1.364   4.108
 2434TIP3    H1 7266   2.100   1.294   4.161
 2434TIP3    H2 7267   2.234   1.359   4.141
 2435TIP3   OH2 7268   2.406   1.366   4.217
 2435TIP3    H1 7269   2.483   1.319   4.178
 2435TIP3    H2 7270   2.383   1.303   4.289
 2436TIP3   OH2 7271   1.509   2.532   2.282
 2436TIP3    H1 7272   1.515   2.563   2.374
 2436TIP3    H2 7273   1.599   2.494   2.267
 2437TIP3   OH2 7274   3.222   1.424   4.012
 2437TIP3    H1 7275   3.239   1.393   4.103
 2437TIP3    H2 7276   3.312   1.419   3.972
 2438TIP3   OH2 7277   3.162   2.973   3.499
 2438TIP3    H1 7278   3.080   2.944   3.456
 2438TIP3    H2 7279   3.149   3.071   3.496
 2439TIP3   OH2 7280   4.424   2.346   2.268
 2439TIP3    H1 7281   4.395   2.437   2.248
 2439TIP3    H2 7282   4.348   2.296   2.234
 2440TIP3   OH2 7283   4.426   2.348   2.655
 2440TIP3    H1 7284   4.461   2.326   2.743
 2440TIP3    H2 7285   4.383   2.266   2.629
 2441TIP3   OH2 7286   3.723   2.239   3.015
 2441TIP3    H1 7287   3.753   2.170   3.076
 2441TIP3    H2 7288   3.796   2.302   3.019
 2442TIP3   OH2 7289   4.668   2.652   2.338
 2442TIP3    H1 7290   4.655   2.586   2.407
 2442TIP3    H2 7291   4.705   2.727   2.388
 2443TIP3   OH2 7292   3.696   2.651   2.732
 2443TIP3    H1 7293   3.688   2.554   2.736
 2443TIP3    H2 7294   3.792   2.662   2.735
 2444TIP3   OH2 7295   3.403   1.849   2.519
 2444TIP3    H1 7296   3.359   1.933   2.543
 2444TIP3    H2 7297   3.329   1.803   2.476
 2445TIP3   OH2 7298   3.458   2.141   2.702
 2445TIP3    H1 7299   3.510   2.064   2.734
 2445TIP3    H2 7300   3.522   2.186   2.645
 2446TIP3   OH2 7301   4.332   3.113   2.359
 2446TIP3    H1 7302   4.368   3.043   2.301
 2446TIP3    H2 7303   4.297   3.061   2.433
 2447TIP3   OH2 7304   4.221   2.574   2.700
 2447TIP3    H1 7305   4.264   2.499   2.656
 2447TIP3    H2 7306   4.302   2.622   2.727
 2448TIP3   OH2 7307   5.240   1.891   2.699
 2448TIP3    H1 7308   5.268   1.976   2.739
 2448TIP3    H2 7309   5.263   1.906   2.606
 2449TIP3   OH2 7310   4.633   2.070   2.730
 2449TIP3    H1 7311   4.678   1.986   2.750
 2449TIP3    H2 7312   4.602   2.054   2.639
 2450TIP3   OH2 7313   3.978   1.733   2.694
 2450TIP3    H1 7314   3.958   1.807   2.633
 2450TIP3    H2 7315   3.926   1.661   2.652
 2451TIP3   OH2 7316   4.671   1.826   2.315
 2451TIP3    H1 7317   4.742   1.812   2.382
 2451TIP3    H2 7318   4.725   1.861   2.241
 2452TIP3   OH2 7319   3.607   1.935   2.804
 2452TIP3    H1 7320   3.689   1.919   2.853
 2452TIP3    H2 7321   3.623   1.880   2.725
 2453TIP3   OH2 7322   4.047   2.132   2.598
 2453TIP3    H1 7323   4.141   2.108   2.610
 2453TIP3    H2 7324   4.009   2.048   2.565
 2454TIP3   OH2 7325   5.311   2.101   2.874
 2454TIP3    H1 7326   5.228   2.148   2.851
 2454TIP3    H2 7327   5.339   2.149   2.953
 2455TIP3   OH2 7328   3.969   1.718   3.132
 2455TIP3    H1 7329   3.911   1.756   3.064
 2455TIP3    H2 7330   3.915   1.736   3.212
 2456TIP3   OH2 7331   4.306   2.564   2.139
 2456TIP3    H1 7332   4.271   2.558   2.049
 2456TIP3    H2 7333   4.265   2.647   2.170
 2457TIP3   OH2 7334   4.077   2.493   2.921
 2457TIP3    H1 7335   4.019   2.563   2.958
 2457TIP3    H2 7336   4.120   2.540   2.847
 2458TIP3   OH2 7337   4.873   1.832   2.498
 2458TIP3    H1 7338   4.853   1.795   2.585
 2458TIP3    H2 7339   4.925   1.911   2.521
 2459TIP3   OH2 7340   3.843   1.832   2.914
 2459TIP3    H1 7341   3.903   1.906   2.939
 2459TIP3    H2 7342   3.893   1.793   2.839
 2460TIP3   OH2 7343   3.909   2.690   3.020
 2460TIP3    H1 7344   3.884   2.780   2.988
 2460TIP3    H2 7345   3.828   2.671   3.073
 2461TIP3   OH2 7346   3.295   2.378   2.258
 2461TIP3    H1 7347   3.254   2.410   2.176
 2461TIP3    H2 7348   3.327   2.463   2.296
 2462TIP3   OH2 7349   4.733   2.893   2.498
 2462TIP3    H1 7350   4.643   2.887   2.537
 2462TIP3    H2 7351   4.728   2.980   2.453
 2463TIP3   OH2 7352   5.032   1.786   2.862
 2463TIP3    H1 7353   4.946   1.817   2.830
 2463TIP3    H2 7354   5.093   1.823   2.795
 2464TIP3   OH2 7355   4.321   1.432   2.849
 2464TIP3    H1 7356   4.303   1.337   2.867
 2464TIP3    H2 7357   4.246   1.473   2.896
 2465TIP3   OH2 7358   4.433   2.942   2.164
 2465TIP3    H1 7359   4.483   2.858   2.149
 2465TIP3    H2 7360   4.500   3.007   2.131
 2466TIP3   OH2 7361   4.576   2.723   2.088
 2466TIP3    H1 7362   4.549   2.642   2.044
 2466TIP3    H2 7363   4.616   2.690   2.171
 2467TIP3   OH2 7364   4.963   2.799   2.846
 2467TIP3    H1 7365   4.951   2.723   2.785
 2467TIP3    H2 7366   4.949   2.875   2.784
 2468TIP3   OH2 7367   4.254   2.197   2.104
 2468TIP3    H1 7368   4.176   2.253   2.085
 2468TIP3    H2 7369   4.300   2.198   2.019
 2469TIP3   OH2 7370   4.212   1.986   1.814
 2469TIP3    H1 7371   4.277   2.040   1.863
 2469TIP3    H2 7372   4.274   1.926   1.766
 2470TIP3   OH2 7373   5.157   2.442   2.692
 2470TIP3    H1 7374   5.073   2.495   2.693
 2470TIP3    H2 7375   5.190   2.468   2.603
 2471TIP3   OH2 7376   4.603   2.281   2.070
 2471TIP3    H1 7377   4.549   2.305   2.149
 2471TIP3    H2 7378   4.689   2.260   2.113
 2472TIP3   OH2 7379   4.835   2.318   2.991
 2472TIP3    H1 7380   4.835   2.402   3.040
 2472TIP3    H2 7381   4.750   2.323   2.945
 2473TIP3   OH2 7382   3.834   2.276   2.492
 2473TIP3    H1 7383   3.797   2.219   2.422
 2473TIP3    H2 7384   3.912   2.223   2.521
 2474TIP3   OH2 7385   3.968   2.694   2.635
 2474TIP3    H1 7386   3.947   2.660   2.547
 2474TIP3    H2 7387   4.056   2.655   2.653
 2475TIP3   OH2 7388   3.974   2.249   2.844
 2475TIP3    H1 7389   4.006   2.226   2.754
 2475TIP3    H2 7390   4.015   2.336   2.861
 2476TIP3   OH2 7391   4.492   2.888   2.626
 2476TIP3    H1 7392   4.489   2.959   2.692
 2476TIP3    H2 7393   4.478   2.808   2.681
 2477TIP3   OH2 7394   4.113   2.802   3.171
 2477TIP3    H1 7395   4.055   2.864   3.220
 2477TIP3    H2 7396   4.046   2.753   3.119
 2478TIP3   OH2 7397   4.439   2.141   1.899
 2478TIP3    H1 7398   4.499   2.202   1.948
 2478TIP3    H2 7399   4.467   2.159   1.806
 2479TIP3   OH2 7400   3.865   2.355   3.277
 2479TIP3    H1 7401   3.871   2.446   3.312
 2479TIP3    H2 7402   3.770   2.338   3.290
 2480TIP3   OH2 7403   4.190   2.815   2.175
 2480TIP3    H1 7404   4.273   2.866   2.176
 2480TIP3    H2 7405   4.129   2.876   2.131
 2481TIP3   OH2 7406   3.902   2.965   3.259
 2481TIP3    H1 7407   3.865   2.976   3.169
 2481TIP3    H2 7408   3.824   2.937   3.311
 2482TIP3   OH2 7409   4.958   1.377   1.949
 2482TIP3    H1 7410   4.877   1.403   1.997
 2482TIP3    H2 7411   4.976   1.459   1.897
 2483TIP3   OH2 7412   3.704   2.120   2.286
 2483TIP3    H1 7413   3.634   2.167   2.236
 2483TIP3    H2 7414   3.660   2.038   2.309
 2484TIP3   OH2 7415   4.760   2.747   1.498
 2484TIP3    H1 7416   4.769   2.844   1.482
 2484TIP3    H2 7417   4.854   2.718   1.486
 2485TIP3   OH2 7418   3.480   2.506   3.205
 2485TIP3    H1 7419   3.409   2.491   3.138
 2485TIP3    H2 7420   3.516   2.417   3.219
 2486TIP3   OH2 7421   3.335   2.701   2.835
 2486TIP3    H1 7422   3.432   2.707   2.836
 2486TIP3    H2 7423   3.312   2.780   2.886
 2487TIP3   OH2 7424   5.206   3.154   2.895
 2487TIP3    H1 7425   5.201   3.057   2.907
 2487TIP3    H2 7426   5.121   3.181   2.935
 2488TIP3   OH2 7427   4.303   2.933   3.025
 2488TIP3    H1 7428   4.308   3.024   3.063
 2488TIP3    H2 7429   4.234   2.894   3.082
 2489TIP3   OH2 7430   4.073   3.063   1.979
 2489TIP3    H1 7431   4.024   3.047   1.897
 2489TIP3    H2 7432   4.037   3.148   2.009
 2490TIP3   OH2 7433   3.507   2.913   2.365
 2490TIP3    H1 7434   3.555   2.906   2.451
 2490TIP3    H2 7435   3.450   2.834   2.370
 2491TIP3   OH2 7436   4.268   2.966   1.615
 2491TIP3    H1 7437   4.327   2.896   1.579
 2491TIP3    H2 7438   4.305   2.978   1.705
 2492TIP3   OH2 7439   4.323   3.016   1.884
 2492TIP3    H1 7440   4.234   3.026   1.925
 2492TIP3    H2 7441   4.373   2.976   1.958
 2493TIP3   OH2 7442   5.086   2.277   3.171
 2493TIP3    H1 7443   5.005   2.291   3.120
 2493TIP3    H2 7444   5.101   2.181   3.158
 2494TIP3   OH2 7445   3.685   2.686   3.176
 2494TIP3    H1 7446   3.724   2.689   3.266
 2494TIP3    H2 7447   3.609   2.626   3.190
 2495TIP3   OH2 7448   4.086   1.511   2.979
 2495TIP3    H1 7449   3.998   1.482   2.948
 2495TIP3    H2 7450   4.060   1.592   3.027
 2496TIP3   OH2 7451   4.621   1.625   3.171
 2496TIP3    H1 7452   4.690   1.597   3.236
 2496TIP3    H2 7453   4.538   1.607   3.219
 2497TIP3   OH2 7454   4.855   2.055   3.087
 2497TIP3    H1 7455   4.803   2.055   3.171
 2497TIP3    H2 7456   4.835   2.143   3.050
 2498TIP3   OH2 7457   4.518   2.177   1.644
 2498TIP3    H1 7458   4.483   2.159   1.554
 2498TIP3    H2 7459   4.601   2.223   1.622
 2499TIP3   OH2 7460   4.224   1.560   1.948
 2499TIP3    H1 7461   4.194   1.554   2.041
 2499TIP3    H2 7462   4.189   1.476   1.913
 2500TIP3   OH2 7463   4.018   2.029   2.995
 2500TIP3    H1 7464   3.967   2.050   3.075
 2500TIP3    H2 7465   4.003   2.110   2.941
 2501TIP3   OH2 7466   3.903   1.913   2.508
 2501TIP3    H1 7467   3.809   1.890   2.528
 2501TIP3    H2 7468   3.912   1.872   2.419
 2502TIP3   OH2 7469   4.391   1.996   2.237
 2502TIP3    H1 7470   4.342   2.069   2.193
 2502TIP3    H2 7471   4.448   1.964   2.164
 2503TIP3   OH2 7472   4.567   2.270   3.317
 2503TIP3    H1 7473   4.546   2.200   3.382
 2503TIP3    H2 7474   4.659   2.290   3.340
 2504TIP3   OH2 7475   4.546   2.024   2.474
 2504TIP3    H1 7476   4.484   2.055   2.405
 2504TIP3    H2 7477   4.582   1.946   2.427
 2505TIP3   OH2 7478   3.839   2.056   3.201
 2505TIP3    H1 7479   3.855   2.126   3.266
 2505TIP3    H2 7480   3.827   1.978   3.257
 2506TIP3   OH2 7481   3.871   1.520   1.916
 2506TIP3    H1 7482   3.873   1.541   2.011
 2506TIP3    H2 7483   3.806   1.586   1.883
 2507TIP3   OH2 7484   3.432   1.571   2.784
 2507TIP3    H1 7485   3.502   1.609   2.841
 2507TIP3    H2 7486   3.479   1.552   2.702
 2508TIP3   OH2 7487   3.393   1.559   2.301
 2508TIP3    H1 7488   3.434   1.599   2.222
 2508TIP3    H2 7489   3.331   1.631   2.324
 2509TIP3   OH2 7490   4.556   2.269   2.894
 2509TIP3    H1 7491   4.591   2.198   2.835
 2509TIP3    H2 7492   4.524   2.215   2.969
 2510TIP3   OH2 7493   4.234   1.727   2.566
 2510TIP3    H1 7494   4.153   1.732   2.620
 2510TIP3    H2 7495   4.304   1.731   2.634
 2511TIP3   OH2 7496   3.663   1.795   2.574
 2511TIP3    H1 7497   3.569   1.804   2.546
 2511TIP3    H2 7498   3.684   1.702   2.552
 2512TIP3   OH2 7499   3.927   1.784   2.269
 2512TIP3    H1 7500   4.021   1.804   2.248
 2512TIP3    H2 7501   3.881   1.807   2.184
 2513TIP3   OH2 7502   4.722   1.810   2.770
 2513TIP3    H1 7503   4.692   1.825   2.863
 2513TIP3    H2 7504   4.651   1.752   2.738
 2514TIP3   OH2 7505   3.785   1.814   2.040
 2514TIP3    H1 7506   3.711   1.777   1.988
 2514TIP3    H2 7507   3.835   1.860   1.969
 2515TIP3   OH2 7508   4.900   3.499   2.987
 2515TIP3    H1 7509   4.903   3.523   2.893
 2515TIP3    H2 7510   4.954   3.570   3.025
 2516TIP3   OH2 7511   3.853   2.603   3.412
 2516TIP3    H1 7512   3.929   2.640   3.460
 2516TIP3    H2 7513   3.782   2.619   3.478
 2517TIP3   OH2 7514   4.310   2.063   2.664
 2517TIP3    H1 7515   4.389   2.030   2.618
 2517TIP3    H2 7516   4.318   2.020   2.751
 2518TIP3   OH2 7517   3.827   1.551   2.550
 2518TIP3    H1 7518   3.791   1.475   2.601
 2518TIP3    H2 7519   3.877   1.506   2.481
 2519TIP3   OH2 7520   4.287   1.964   2.958
 2519TIP3    H1 7521   4.197   2.001   2.970
 2519TIP3    H2 7522   4.343   2.028   3.005
 2520TIP3   OH2 7523   4.025   2.349   2.051
 2520TIP3    H1 7524   3.951   2.286   2.038
 2520TIP3    H2 7525   4.004   2.385   2.141
 2521TIP3   OH2 7526   4.922   2.586   2.677
 2521TIP3    H1 7527   4.950   2.638   2.599
 2521TIP3    H2 7528   4.838   2.545   2.647
 2522TIP3   OH2 7529   4.481   1.658   1.925
 2522TIP3    H1 7530   4.384   1.644   1.927
 2522TIP3    H2 7531   4.491   1.753   1.943
 2523TIP3   OH2 7532   4.424   2.673   3.048
 2523TIP3    H1 7533   4.457   2.663   3.138
 2523TIP3    H2 7534   4.381   2.761   3.052
 2524TIP3   OH2 7535   4.550   1.913   2.019
 2524TIP3    H1 7536   4.646   1.920   2.035
 2524TIP3    H2 7537   4.530   1.994   1.969
 2525TIP3   OH2 7538   3.716   2.371   2.725
 2525TIP3    H1 7539   3.757   2.343   2.640
 2525TIP3    H2 7540   3.763   2.316   2.789
 2526TIP3   OH2 7541   4.169   2.500   1.874
 2526TIP3    H1 7542   4.120   2.586   1.876
 2526TIP3    H2 7543   4.116   2.447   1.936
 2527TIP3   OH2 7544   3.603   2.285   3.337
 2527TIP3    H1 7545   3.613   2.273   3.433
 2527TIP3    H2 7546   3.526   2.229   3.318
 2528TIP3   OH2 7547   4.326   2.406   3.359
 2528TIP3    H1 7548   4.262   2.348   3.315
 2528TIP3    H2 7549   4.411   2.371   3.326
 2529TIP3   OH2 7550   4.579   2.938   2.934
 2529TIP3    H1 7551   4.485   2.933   2.958
 2529TIP3    H2 7552   4.615   2.979   3.016
 2530TIP3   OH2 7553   4.987   2.008   1.855
 2530TIP3    H1 7554   4.927   1.964   1.790
 2530TIP3    H2 7555   4.985   2.098   1.815
 2531TIP3   OH2 7556   5.213   2.862   2.934
 2531TIP3    H1 7557   5.115   2.857   2.925
 2531TIP3    H2 7558   5.239   2.832   2.844
 2532TIP3   OH2 7559   4.682   2.822   1.758
 2532TIP3    H1 7560   4.670   2.749   1.821
 2532TIP3    H2 7561   4.706   2.777   1.675
 2533TIP3   OH2 7562   4.688   2.452   2.592
 2533TIP3    H1 7563   4.595   2.428   2.606
 2533TIP3    H2 7564   4.721   2.371   2.548
 2534TIP3   OH2 7565   3.821   2.680   2.349
 2534TIP3    H1 7566   3.814   2.761   2.295
 2534TIP3    H2 7567   3.728   2.665   2.372
 2535TIP3   OH2 7568   3.387   1.980   2.061
 2535TIP3    H1 7569   3.429   2.067   2.081
 2535TIP3    H2 7570   3.309   1.984   2.121
 2536TIP3   OH2 7571   3.947   2.440   2.291
 2536TIP3    H1 7572   3.915   2.531   2.310
 2536TIP3    H2 7573   3.913   2.392   2.369
 2537TIP3   OH2 7574   4.090   3.020   2.822
 2537TIP3    H1 7575   4.134   3.094   2.776
 2537TIP3    H2 7576   4.164   2.981   2.872
 2538TIP3   OH2 7577   3.735   2.917   2.202
 2538TIP3    H1 7578   3.651   2.927   2.250
 2538TIP3    H2 7579   3.769   3.009   2.205
 2539TIP3   OH2 7580   4.472   2.654   2.780
 2539TIP3    H1 7581   4.461   2.655   2.878
 2539TIP3    H2 7582   4.554   2.604   2.771
 2540TIP3   OH2 7583   4.455   2.550   1.665
 2540TIP3    H1 7584   4.508   2.525   1.744
 2540TIP3    H2 7585   4.366   2.523   1.694
 2541TIP3   OH2 7586   4.724   3.172   2.835
 2541TIP3    H1 7587   4.650   3.111   2.854
 2541TIP3    H2 7588   4.694   3.209   2.751
 2542TIP3   OH2 7589   4.785   3.028   1.480
 2542TIP3    H1 7590   4.829   3.106   1.442
 2542TIP3    H2 7591   4.702   3.070   1.510
 2543TIP3   OH2 7592   3.805   1.797   3.345
 2543TIP3    H1 7593   3.708   1.802   3.356
 2543TIP3    H2 7594   3.831   1.742   3.420
 2544TIP3   OH2 7595   4.615   2.483   1.880
 2544TIP3    H1 7596   4.604   2.416   1.950
 2544TIP3    H2 7597   4.712   2.478   1.866
 2545TIP3   OH2 7598   3.529   2.880   2.974
 2545TIP3    H1 7599   3.587   2.818   3.022
 2545TIP3    H2 7600   3.529   2.956   3.034
 2546TIP3   OH2 7601   3.815   2.529   1.663
 2546TIP3    H1 7602   3.828   2.436   1.639
 2546TIP3    H2 7603   3.794   2.522   1.758
 2547TIP3   OH2 7604   3.759   2.535   1.934
 2547TIP3    H1 7605   3.833   2.510   1.991
 2547TIP3    H2 7606   3.760   2.633   1.942
 2548TIP3   OH2 7607   3.492   2.226   2.140
 2548TIP3    H1 7608   3.425   2.272   2.196
 2548TIP3    H2 7609   3.504   2.294   2.071
 2549TIP3   OH2 7610   4.652   1.861   3.030
 2549TIP3    H1 7611   4.731   1.903   3.068
 2549TIP3    H2 7612   4.640   1.782   3.087
 2550TIP3   OH2 7613   4.532   1.608   2.202
 2550TIP3    H1 7614   4.517   1.630   2.108
 2550TIP3    H2 7615   4.570   1.692   2.236
 2551TIP3   OH2 7616   4.028   2.730   1.882
 2551TIP3    H1 7617   3.940   2.753   1.919
 2551TIP3    H2 7618   4.043   2.808   1.826
 2552TIP3   OH2 7619   4.209   1.796   2.298
 2552TIP3    H1 7620   4.273   1.869   2.280
 2552TIP3    H2 7621   4.219   1.787   2.395
 2553TIP3   OH2 7622   4.484   2.109   3.102
 2553TIP3    H1 7623   4.510   2.164   3.179
 2553TIP3    H2 7624   4.538   2.029   3.113
 2554TIP3   OH2 7625   4.355   1.513   2.397
 2554TIP3    H1 7626   4.345   1.591   2.454
 2554TIP3    H2 7627   4.420   1.547   2.331
 2555TIP3   OH2 7628   3.774   2.806   1.953
 2555TIP3    H1 7629   3.744   2.877   1.892
 2555TIP3    H2 7630   3.757   2.848   2.041
 2556TIP3   OH2 7631   3.872   1.526   2.193
 2556TIP3    H1 7632   3.871   1.616   2.230
 2556TIP3    H2 7633   3.968   1.508   2.199
 2557TIP3   OH2 7634   5.123   2.011   3.095
 2557TIP3    H1 7635   5.024   2.007   3.095
 2557TIP3    H2 7636   5.142   1.984   3.004
 2558TIP3   OH2 7637   4.775   2.206   2.475
 2558TIP3    H1 7638   4.699   2.146   2.488
 2558TIP3    H2 7639   4.847   2.160   2.523
 2559TIP3   OH2 7640   3.489   2.429   1.943
 2559TIP3    H1 7641   3.558   2.497   1.953
 2559TIP3    H2 7642   3.534   2.373   1.876
 2560TIP3   OH2 7643   3.427   1.708   2.075
 2560TIP3    H1 7644   3.437   1.806   2.077
 2560TIP3    H2 7645   3.341   1.700   2.032
 2561TIP3   OH2 7646   4.736   3.164   2.427
 2561TIP3    H1 7647   4.697   3.227   2.363
 2561TIP3    H2 7648   4.831   3.187   2.414
 2562TIP3   OH2 7649   3.822   1.431   2.946
 2562TIP3    H1 7650   3.791   1.397   2.860
 2562TIP3    H2 7651   3.811   1.353   3.004
 2563TIP3   OH2 7652   3.350   2.640   2.325
 2563TIP3    H1 7653   3.297   2.676   2.397
 2563TIP3    H2 7654   3.314   2.689   2.247
 2564TIP3   OH2 7655   4.009   3.149   3.440
 2564TIP3    H1 7656   4.099   3.112   3.443
 2564TIP3    H2 7657   3.970   3.090   3.373
 2565TIP3   OH2 7658   3.977   2.731   1.570
 2565TIP3    H1 7659   3.923   2.659   1.609
 2565TIP3    H2 7660   4.054   2.681   1.538
 2566TIP3   OH2 7661   4.644   3.058   3.166
 2566TIP3    H1 7662   4.617   3.006   3.245
 2566TIP3    H2 7663   4.702   3.126   3.207
 2567TIP3   OH2 7664   4.413   2.769   1.487
 2567TIP3    H1 7665   4.457   2.709   1.550
 2567TIP3    H2 7666   4.473   2.765   1.410
 2568TIP3   OH2 7667   3.650   2.590   3.606
 2568TIP3    H1 7668   3.662   2.494   3.595
 2568TIP3    H2 7669   3.563   2.603   3.562
 2569TIP3   OH2 7670   3.626   2.244   1.799
 2569TIP3    H1 7671   3.685   2.220   1.873
 2569TIP3    H2 7672   3.692   2.251   1.726
 2570TIP3   OH2 7673   4.250   2.682   3.379
 2570TIP3    H1 7674   4.211   2.711   3.294
 2570TIP3    H2 7675   4.280   2.591   3.360
 2571TIP3   OH2 7676   4.141   2.449   1.605
 2571TIP3    H1 7677   4.143   2.460   1.702
 2571TIP3    H2 7678   4.141   2.351   1.599
 2572TIP3   OH2 7679   4.745   2.698   2.985
 2572TIP3    H1 7680   4.822   2.739   2.941
 2572TIP3    H2 7681   4.677   2.765   2.968
 2573TIP3   OH2 7682   3.765   2.325   3.584
 2573TIP3    H1 7683   3.848   2.292   3.547
 2573TIP3    H2 7684   3.793   2.356   3.673
 2574TIP3   OH2 7685   3.826   2.157   2.014
 2574TIP3    H1 7686   3.801   2.120   2.100
 2574TIP3    H2 7687   3.867   2.080   1.969
 2575TIP3   OH2 7688   4.106   2.220   3.250
 2575TIP3    H1 7689   4.024   2.275   3.248
 2575TIP3    H2 7690   4.155   2.254   3.171
 2576TIP3   OH2 7691   3.936   1.948   1.857
 2576TIP3    H1 7692   3.911   1.961   1.763
 2576TIP3    H2 7693   4.034   1.951   1.850
 2577TIP3   OH2 7694   4.615   2.617   3.383
 2577TIP3    H1 7695   4.693   2.594   3.331
 2577TIP3    H2 7696   4.615   2.549   3.453
 2578TIP3   OH2 7697   4.750   2.275   1.528
 2578TIP3    H1 7698   4.731   2.234   1.441
 2578TIP3    H2 7699   4.718   2.366   1.508
 2579TIP3   OH2 7700   4.229   2.010   3.368
 2579TIP3    H1 7701   4.226   1.932   3.308
 2579TIP3    H2 7702   4.184   2.078   3.314
 2580TIP3   OH2 7703   4.228   1.794   3.181
 2580TIP3    H1 7704   4.256   1.838   3.098
 2580TIP3    H2 7705   4.134   1.773   3.161
 2581TIP3   OH2 7706   4.250   2.328   3.053
 2581TIP3    H1 7707   4.336   2.350   3.015
 2581TIP3    H2 7708   4.191   2.392   3.007
 2582TIP3   OH2 7709   4.837   2.295   3.430
 2582TIP3    H1 7710   4.890   2.214   3.427
 2582TIP3    H2 7711   4.898   2.361   3.394
 2583TIP3   OH2 7712   4.876   2.547   3.167
 2583TIP3    H1 7713   4.817   2.603   3.111
 2583TIP3    H2 7714   4.963   2.572   3.130
 2584TIP3   OH2 7715   4.110   2.110   3.610
 2584TIP3    H1 7716   4.039   2.043   3.623
 2584TIP3    H2 7717   4.136   2.092   3.518
 2585TIP3   OH2 7718   4.359   1.555   3.252
 2585TIP3    H1 7719   4.309   1.636   3.227
 2585TIP3    H2 7720   4.291   1.486   3.240
 2586TIP3   OH2 7721   4.486   2.054   3.464
 2586TIP3    H1 7722   4.463   2.040   3.558
 2586TIP3    H2 7723   4.398   2.034   3.424
 2587TIP3   OH2 7724   4.724   2.009   3.320
 2587TIP3    H1 7725   4.649   2.012   3.383
 2587TIP3    H2 7726   4.798   1.982   3.377
 2588TIP3   OH2 7727   4.956   1.954   3.470
 2588TIP3    H1 7728   4.967   1.858   3.484
 2588TIP3    H2 7729   4.953   1.989   3.561
 2589TIP3   OH2 7730   3.942   1.893   3.660
 2589TIP3    H1 7731   3.944   1.801   3.627
 2589TIP3    H2 7732   3.978   1.881   3.750
 2590TIP3   OH2 7733   4.452   1.564   3.510
 2590TIP3    H1 7734   4.517   1.492   3.501
 2590TIP3    H2 7735   4.412   1.563   3.420
 2591TIP3   OH2 7736   4.520   1.778   3.668
 2591TIP3    H1 7737   4.498   1.708   3.602
 2591TIP3    H2 7738   4.442   1.838   3.660
 2592TIP3   OH2 7739   3.744   3.009   1.765
 2592TIP3    H1 7740   3.839   2.998   1.746
 2592TIP3    H2 7741   3.717   3.063   1.688
 2593TIP3   OH2 7742   3.220   2.393   1.975
 2593TIP3    H1 7743   3.315   2.414   1.963
 2593TIP3    H2 7744   3.214   2.304   1.936
 2594TIP3   OH2 7745   3.142   3.002   2.396
 2594TIP3    H1 7746   3.075   2.943   2.357
 2594TIP3    H2 7747   3.184   2.942   2.461
 2595TIP3   OH2 7748   3.276   2.845   2.581
 2595TIP3    H1 7749   3.260   2.781   2.652
 2595TIP3    H2 7750   3.326   2.912   2.632
 2596TIP3   OH2 7751   4.991   3.258   2.385
 2596TIP3    H1 7752   5.042   3.298   2.457
 2596TIP3    H2 7753   5.052   3.267   2.310
 2597TIP3   OH2 7754   5.022   3.271   2.673
 2597TIP3    H1 7755   4.982   3.183   2.660
 2597TIP3    H2 7756   5.104   3.247   2.718
 2598TIP3   OH2 7757   5.079   2.950   3.241
 2598TIP3    H1 7758   5.003   2.963   3.301
 2598TIP3    H2 7759   5.118   3.040   3.240
 2599TIP3   OH2 7760   4.890   2.462   1.854
 2599TIP3    H1 7761   4.954   2.528   1.820
 2599TIP3    H2 7762   4.938   2.427   1.933
 2600TIP3   OH2 7763   5.020   2.329   2.058
 2600TIP3    H1 7764   4.953   2.292   2.120
 2600TIP3    H2 7765   5.088   2.365   2.118
 2601TIP3   OH2 7766   5.075   2.719   2.495
 2601TIP3    H1 7767   5.126   2.653   2.444
 2601TIP3    H2 7768   5.085   2.799   2.437
 2602TIP3   OH2 7769   4.904   3.015   2.686
 2602TIP3    H1 7770   4.832   3.051   2.741
 2602TIP3    H2 7771   4.856   2.974   2.611
 2603TIP3   OH2 7772   4.955   2.239   1.705
 2603TIP3    H1 7773   4.884   2.241   1.637
 2603TIP3    H2 7774   4.927   2.315   1.760
 2604TIP3   OH2 7775   4.826   1.911   1.658
 2604TIP3    H1 7776   4.781   1.948   1.582
 2604TIP3    H2 7777   4.804   1.816   1.649
 2605TIP3   OH2 7778   4.829   2.193   2.206
 2605TIP3    H1 7779   4.839   2.096   2.197
 2605TIP3    H2 7780   4.815   2.204   2.302
 2606TIP3   OH2 7781   3.457   2.254   2.956
 2606TIP3    H1 7782   3.452   2.224   2.863
 2606TIP3    H2 7783   3.554   2.258   2.970
 2607TIP3   OH2 7784   5.122   2.615   3.065
 2607TIP3    H1 7785   5.193   2.548   3.051
 2607TIP3    H2 7786   5.144   2.683   3.000
 2608TIP3   OH2 7787   5.301   2.411   3.071
 2608TIP3    H1 7788   5.227   2.363   3.115
 2608TIP3    H2 7789   5.375   2.349   3.090
 2609TIP3   OH2 7790   4.770   1.645   1.640
 2609TIP3    H1 7791   4.843   1.613   1.697
 2609TIP3    H2 7792   4.696   1.586   1.661
 2610TIP3   OH2 7793   4.829   1.907   2.096
 2610TIP3    H1 7794   4.871   1.818   2.110
 2610TIP3    H2 7795   4.886   1.941   2.025
 2611TIP3   OH2 7796   4.988   2.073   2.596
 2611TIP3    H1 7797   5.073   2.097   2.553
 2611TIP3    H2 7798   5.003   2.113   2.684
 2612TIP3   OH2 7799   5.061   2.222   2.825
 2612TIP3    H1 7800   4.984   2.258   2.872
 2612TIP3    H2 7801   5.095   2.303   2.779
 2613TIP3   OH2 7802   3.674   1.942   3.625
 2613TIP3    H1 7803   3.772   1.939   3.630
 2613TIP3    H2 7804   3.651   1.856   3.664
 2614TIP3   OH2 7805   5.504   1.811   3.388
 2614TIP3    H1 7806   5.569   1.752   3.344
 2614TIP3    H2 7807   5.474   1.867   3.312
 2615TIP3   OH2 7808   4.938   1.657   2.137
 2615TIP3    H1 7809   4.986   1.640   2.220
 2615TIP3    H2 7810   4.876   1.580   2.136
 2616TIP3   OH2 7811   3.637   1.640   2.954
 2616TIP3    H1 7812   3.700   1.566   2.964
 2616TIP3    H2 7813   3.699   1.716   2.947
 2617TIP3   OH2 7814   3.437   1.911   3.031
 2617TIP3    H1 7815   3.487   1.914   2.947
 2617TIP3    H2 7816   3.454   1.998   3.067
 2618TIP3   OH2 7817   5.376   1.946   3.189
 2618TIP3    H1 7818   5.291   1.994   3.199
 2618TIP3    H2 7819   5.347   1.874   3.130
 2619TIP3   OH2 7820   5.013   1.585   1.774
 2619TIP3    H1 7821   5.055   1.518   1.715
 2619TIP3    H2 7822   5.079   1.657   1.773
 2620TIP3   OH2 7823   3.422   1.408   2.524
 2620TIP3    H1 7824   3.333   1.408   2.562
 2620TIP3    H2 7825   3.414   1.474   2.452
 2621TIP3   OH2 7826   4.588   3.133   2.043
 2621TIP3    H1 7827   4.623   3.111   1.954
 2621TIP3    H2 7828   4.662   3.183   2.078
 2622TIP3   OH2 7829   3.644   1.492   3.343
 2622TIP3    H1 7830   3.593   1.492   3.425
 2622TIP3    H2 7831   3.580   1.535   3.282
 2623TIP3   OH2 7832   3.683   2.903   3.420
 2623TIP3    H1 7833   3.586   2.897   3.401
 2623TIP3    H2 7834   3.684   2.969   3.490
 2624TIP3   OH2 7835   3.864   2.958   2.968
 2624TIP3    H1 7836   3.812   3.033   2.932
 2624TIP3    H2 7837   3.948   2.977   2.923
 2625TIP3   OH2 7838   4.321   3.194   3.116
 2625TIP3    H1 7839   4.356   3.202   3.206
 2625TIP3    H2 7840   4.381   3.254   3.067
 2626TIP3   OH2 7841   4.489   3.359   2.968
 2626TIP3    H1 7842   4.560   3.300   2.940
 2626TIP3    H2 7843   4.538   3.421   3.026
 2627TIP3   OH2 7844   5.278   1.713   3.067
 2627TIP3    H1 7845   5.190   1.706   3.026
 2627TIP3    H2 7846   5.312   1.621   3.057
 2628TIP3   OH2 7847   3.537   3.216   3.000
 2628TIP3    H1 7848   3.447   3.249   2.978
 2628TIP3    H2 7849   3.545   3.247   3.091
 2629TIP3   OH2 7850   3.772   3.193   2.855
 2629TIP3    H1 7851   3.687   3.207   2.902
 2629TIP3    H2 7852   3.751   3.227   2.766
 2630TIP3   OH2 7853   4.201   3.220   2.647
 2630TIP3    H1 7854   4.127   3.235   2.585
 2630TIP3    H2 7855   4.204   3.304   2.696
 2631TIP3   OH2 7856   4.473   3.165   2.695
 2631TIP3    H1 7857   4.376   3.175   2.693
 2631TIP3    H2 7858   4.494   3.158   2.600
 2632TIP3   OH2 7859   3.452   3.009   2.732
 2632TIP3    H1 7860   3.474   2.981   2.824
 2632TIP3    H2 7861   3.525   2.963   2.684
 2633TIP3   OH2 7862   3.647   2.880   2.595
 2633TIP3    H1 7863   3.660   2.797   2.647
 2633TIP3    H2 7864   3.739   2.915   2.594
 2634TIP3   OH2 7865   3.914   2.972   2.603
 2634TIP3    H1 7866   3.943   2.879   2.596
 2634TIP3    H2 7867   3.959   2.996   2.686
 2635TIP3   OH2 7868   4.487   1.631   2.690
 2635TIP3    H1 7869   4.444   1.558   2.738
 2635TIP3    H2 7870   4.562   1.586   2.646
 2636TIP3   OH2 7871   5.002   1.508   2.589
 2636TIP3    H1 7872   5.040   1.561   2.515
 2636TIP3    H2 7873   4.908   1.533   2.585
 2637TIP3   OH2 7874   5.100   1.605   2.354
 2637TIP3    H1 7875   5.175   1.554   2.316
 2637TIP3    H2 7876   5.135   1.697   2.341
 2638TIP3   OH2 7877   3.733   1.337   2.698
 2638TIP3    H1 7878   3.640   1.305   2.705
 2638TIP3    H2 7879   3.780   1.251   2.695
 2639TIP3   OH2 7880   3.509   1.207   2.351
 2639TIP3    H1 7881   3.544   1.265   2.282
 2639TIP3    H2 7882   3.485   1.273   2.421
 2640TIP3   OH2 7883   4.180   1.368   2.583
 2640TIP3    H1 7884   4.235   1.416   2.519
 2640TIP3    H2 7885   4.204   1.412   2.666
 2641TIP3   OH2 7886   4.716   1.519   2.567
 2641TIP3    H1 7887   4.723   1.480   2.478
 2641TIP3    H2 7888   4.707   1.438   2.623
 2642TIP3   OH2 7889   4.753   1.445   2.130
 2642TIP3    H1 7890   4.669   1.491   2.149
 2642TIP3    H2 7891   4.737   1.358   2.173
 2643TIP3   OH2 7892   3.237   2.786   2.126
 2643TIP3    H1 7893   3.150   2.754   2.094
 2643TIP3    H2 7894   3.229   2.880   2.104
 2644TIP3   OH2 7895   3.648   1.369   2.112
 2644TIP3    H1 7896   3.714   1.372   2.042
 2644TIP3    H2 7897   3.690   1.431   2.175
 2645TIP3   OH2 7898   4.148   1.544   2.213
 2645TIP3    H1 7899   4.212   1.502   2.274
 2645TIP3    H2 7900   4.167   1.639   2.236
 2646TIP3   OH2 7901   4.010   2.963   1.713
 2646TIP3    H1 7902   4.098   2.986   1.676
 2646TIP3    H2 7903   3.988   2.889   1.651
 2647TIP3   OH2 7904   4.720   3.087   1.805
 2647TIP3    H1 7905   4.713   2.989   1.793
 2647TIP3    H2 7906   4.679   3.118   1.722
 2648TIP3   OH2 7907   3.939   1.618   3.593
 2648TIP3    H1 7908   3.902   1.548   3.649
 2648TIP3    H2 7909   4.033   1.617   3.623
 2649TIP3   OH2 7910   4.191   1.618   3.712
 2649TIP3    H1 7911   4.275   1.591   3.671
 2649TIP3    H2 7912   4.178   1.546   3.779
 2650TIP3   OH2 7913   3.310   2.802   1.764
 2650TIP3    H1 7914   3.313   2.823   1.858
 2650TIP3    H2 7915   3.398   2.759   1.749
 2651TIP3   OH2 7916   5.020   1.681   3.498
 2651TIP3    H1 7917   5.044   1.652   3.588
 2651TIP3    H2 7918   5.107   1.678   3.452
 2652TIP3   OH2 7919   4.959   3.229   2.987
 2652TIP3    H1 7920   4.878   3.198   2.943
 2652TIP3    H2 7921   4.940   3.325   2.993
 2653TIP3   OH2 7922   6.219   2.604   1.755
 2653TIP3    H1 7923   6.188   2.695   1.734
 2653TIP3    H2 7924   6.144   2.553   1.721
 2654TIP3   OH2 7925   6.220   2.608   2.143
 2654TIP3    H1 7926   6.256   2.582   2.230
 2654TIP3    H2 7927   6.183   2.525   2.111
 2655TIP3   OH2 7928   5.516   2.498   2.511
 2655TIP3    H1 7929   5.551   2.429   2.570
 2655TIP3    H2 7930   5.596   2.549   2.490
 2656TIP3   OH2 7931   6.468   2.908   1.822
 2656TIP3    H1 7932   6.448   2.841   1.888
 2656TIP3    H2 7933   6.496   2.983   1.876
 2657TIP3   OH2 7934   5.488   2.893   2.279
 2657TIP3    H1 7935   5.488   2.798   2.257
 2657TIP3    H2 7936   5.567   2.923   2.230
 2658TIP3   OH2 7937   5.197   2.102   2.007
 2658TIP3    H1 7938   5.157   2.188   2.030
 2658TIP3    H2 7939   5.123   2.059   1.960
 2659TIP3   OH2 7940   5.253   2.397   2.187
 2659TIP3    H1 7941   5.306   2.321   2.219
 2659TIP3    H2 7942   5.322   2.452   2.145
 2660TIP3   OH2 7943   6.122   3.366   1.844
 2660TIP3    H1 7944   6.164   3.298   1.788
 2660TIP3    H2 7945   6.105   3.317   1.926
 2661TIP3   OH2 7946   6.018   2.829   2.190
 2661TIP3    H1 7947   6.062   2.754   2.146
 2661TIP3    H2 7948   6.099   2.878   2.216
 2662TIP3   OH2 7949   6.421   2.326   2.218
 2662TIP3    H1 7950   6.478   2.249   2.238
 2662TIP3    H2 7951   6.397   2.307   2.125
 2663TIP3   OH2 7952   5.773   1.989   2.183
 2663TIP3    H1 7953   5.755   2.063   2.121
 2663TIP3    H2 7954   5.723   1.918   2.138
 2664TIP3   OH2 7955   6.451   2.083   1.802
 2664TIP3    H1 7956   6.520   2.071   1.873
 2664TIP3    H2 7957   6.509   2.114   1.730
 2665TIP3   OH2 7958   5.402   2.191   2.292
 2665TIP3    H1 7959   5.486   2.176   2.339
 2665TIP3    H2 7960   5.419   2.137   2.211
 2666TIP3   OH2 7961   5.842   2.387   2.092
 2666TIP3    H1 7962   5.938   2.364   2.100
 2666TIP3    H2 7963   5.806   2.304   2.055
 2667TIP3   OH2 7964   5.765   1.974   2.619
 2667TIP3    H1 7965   5.708   2.013   2.549
 2667TIP3    H2 7966   5.711   1.995   2.698
 2668TIP3   OH2 7967   6.107   2.824   1.625
 2668TIP3    H1 7968   6.069   2.816   1.537
 2668TIP3    H2 7969   6.065   2.907   1.655
 2669TIP3   OH2 7970   5.872   2.748   2.408
 2669TIP3    H1 7971   5.815   2.819   2.445
 2669TIP3    H2 7972   5.914   2.794   2.332
 2670TIP3   OH2 7973   6.651   2.086   1.979
 2670TIP3    H1 7974   6.683   2.006   2.026
 2670TIP3    H2 7975   6.736   2.133   1.970
 2671TIP3   OH2 7976   5.638   2.088   2.401
 2671TIP3    H1 7977   5.699   2.162   2.425
 2671TIP3    H2 7978   5.688   2.050   2.326
 2672TIP3   OH2 7979   5.707   2.945   2.517
 2672TIP3    H1 7980   5.678   3.020   2.463
 2672TIP3    H2 7981   5.625   2.931   2.569
 2673TIP3   OH2 7982   5.081   2.635   1.738
 2673TIP3    H1 7983   5.046   2.660   1.650
 2673TIP3    H2 7984   5.111   2.720   1.773
 2674TIP3   OH2 7985   6.534   3.159   1.980
 2674TIP3    H1 7986   6.447   3.144   2.023
 2674TIP3    H2 7987   6.517   3.243   1.933
 2675TIP3   OH2 7988   6.779   2.040   2.346
 2675TIP3    H1 7989   6.689   2.061   2.314
 2675TIP3    H2 7990   6.831   2.053   2.266
 2676TIP3   OH2 7991   6.115   1.688   2.333
 2676TIP3    H1 7992   6.099   1.594   2.351
 2676TIP3    H2 7993   6.039   1.729   2.380
 2677TIP3   OH2 7994   6.236   3.194   1.656
 2677TIP3    H1 7995   6.288   3.113   1.634
 2677TIP3    H2 7996   6.299   3.263   1.623
 2678TIP3   OH2 7997   6.381   2.977   1.568
 2678TIP3    H1 7998   6.340   2.897   1.533
 2678TIP3    H2 7999   6.417   2.944   1.654
 2679TIP3   OH2 8000   6.746   3.059   2.329
 2679TIP3    H1 8001   6.742   2.982   2.269
 2679TIP3    H2 8002   6.734   3.134   2.268
 2680TIP3   OH2 8003   6.051   2.455   1.591
 2680TIP3    H1 8004   5.973   2.511   1.571
 2680TIP3    H2 8005   6.098   2.454   1.506
 2681TIP3   OH2 8006   6.011   2.242   1.295
 2681TIP3    H1 8007   6.073   2.297   1.347
 2681TIP3    H2 8008   6.075   2.184   1.249
 2682TIP3   OH2 8009   6.960   2.682   2.190
 2682TIP3    H1 8010   6.885   2.744   2.186
 2682TIP3    H2 8011   6.987   2.678   2.097
 2683TIP3   OH2 8012   6.396   2.539   1.557
 2683TIP3    H1 8013   6.343   2.563   1.637
 2683TIP3    H2 8014   6.478   2.509   1.600
 2684TIP3   OH2 8015   6.629   2.574   2.481
 2684TIP3    H1 8016   6.626   2.656   2.534
 2684TIP3    H2 8017   6.546   2.582   2.432
 2685TIP3   OH2 8018   5.633   2.532   1.977
 2685TIP3    H1 8019   5.595   2.474   1.908
 2685TIP3    H2 8020   5.709   2.480   2.008
 2686TIP3   OH2 8021   5.745   2.930   2.134
 2686TIP3    H1 8022   5.731   2.919   2.039
 2686TIP3    H2 8023   5.838   2.904   2.144
 2687TIP3   OH2 8024   5.758   2.510   2.330
 2687TIP3    H1 8025   5.795   2.482   2.244
 2687TIP3    H2 8026   5.805   2.594   2.348
 2688TIP3   OH2 8027   6.299   3.145   2.110
 2688TIP3    H1 8028   6.281   3.226   2.161
 2688TIP3    H2 8029   6.277   3.073   2.173
 2689TIP3   OH2 8030   5.908   3.065   2.659
 2689TIP3    H1 8031   5.844   3.126   2.701
 2689TIP3    H2 8032   5.846   3.011   2.605
 2690TIP3   OH2 8033   6.231   2.399   1.386
 2690TIP3    H1 8034   6.293   2.459   1.434
 2690TIP3    H2 8035   6.256   2.421   1.292
 2691TIP3   OH2 8036   5.664   2.611   2.770
 2691TIP3    H1 8037   5.668   2.703   2.802
 2691TIP3    H2 8038   5.568   2.595   2.774
 2692TIP3   OH2 8039   5.987   3.072   1.659
 2692TIP3    H1 8040   6.069   3.125   1.667
 2692TIP3    H2 8041   5.925   3.135   1.622
 2693TIP3   OH2 8042   5.700   3.229   2.742
 2693TIP3    H1 8043   5.668   3.234   2.650
 2693TIP3    H2 8044   5.618   3.206   2.791
 2694TIP3   OH2 8045   5.501   2.377   1.774
 2694TIP3    H1 8046   5.431   2.424   1.724
 2694TIP3    H2 8047   5.459   2.292   1.791
 2695TIP3   OH2 8048   6.549   3.003   0.975
 2695TIP3    H1 8049   6.544   3.101   0.964
 2695TIP3    H2 8050   6.645   2.991   0.981
 2696TIP3   OH2 8051   5.276   2.764   2.691
 2696TIP3    H1 8052   5.212   2.747   2.619
 2696TIP3    H2 8053   5.316   2.676   2.706
 2697TIP3   OH2 8054   5.144   2.935   2.343
 2697TIP3    H1 8055   5.234   2.942   2.309
 2697TIP3    H2 8056   5.126   3.027   2.368
 2698TIP3   OH2 8057   6.975   3.396   2.375
 2698TIP3    H1 8058   6.988   3.306   2.410
 2698TIP3    H2 8059   6.894   3.424   2.422
 2699TIP3   OH2 8060   6.105   3.190   2.517
 2699TIP3    H1 8061   6.098   3.283   2.547
 2699TIP3    H2 8062   6.031   3.149   2.568
 2700TIP3   OH2 8063   5.868   3.318   1.464
 2700TIP3    H1 8064   5.817   3.308   1.382
 2700TIP3    H2 8065   5.837   3.404   1.497
 2701TIP3   OH2 8066   6.063   3.222   1.105
 2701TIP3    H1 8067   6.123   3.153   1.070
 2701TIP3    H2 8068   6.098   3.236   1.195
 2702TIP3   OH2 8069   6.119   3.271   1.371
 2702TIP3    H1 8070   6.031   3.285   1.413
 2702TIP3    H2 8071   6.170   3.240   1.447
 2703TIP3   OH2 8072   6.887   2.525   2.645
 2703TIP3    H1 8073   6.808   2.534   2.590
 2703TIP3    H2 8074   6.913   2.433   2.626
 2704TIP3   OH2 8075   5.483   2.945   2.677
 2704TIP3    H1 8076   5.531   2.924   2.760
 2704TIP3    H2 8077   5.406   2.885   2.681
 2705TIP3   OH2 8078   5.882   1.766   2.466
 2705TIP3    H1 8079   5.793   1.739   2.435
 2705TIP3    H2 8080   5.857   1.849   2.512
 2706TIP3   OH2 8081   6.417   1.881   2.654
 2706TIP3    H1 8082   6.486   1.861   2.721
 2706TIP3    H2 8083   6.335   1.866   2.705
 2707TIP3   OH2 8084   6.655   2.309   2.574
 2707TIP3    H1 8085   6.603   2.310   2.658
 2707TIP3    H2 8086   6.637   2.397   2.537
 2708TIP3   OH2 8087   6.296   2.443   1.127
 2708TIP3    H1 8088   6.273   2.407   1.040
 2708TIP3    H2 8089   6.386   2.477   1.109
 2709TIP3   OH2 8090   6.023   1.818   1.435
 2709TIP3    H1 8091   5.989   1.812   1.526
 2709TIP3    H2 8092   5.985   1.735   1.398
 2710TIP3   OH2 8093   5.812   2.287   2.478
 2710TIP3    H1 8094   5.764   2.309   2.561
 2710TIP3    H2 8095   5.796   2.369   2.426
 2711TIP3   OH2 8096   5.699   2.170   1.995
 2711TIP3    H1 8097   5.606   2.147   2.014
 2711TIP3    H2 8098   5.710   2.129   1.906
 2712TIP3   OH2 8099   6.186   2.252   1.722
 2712TIP3    H1 8100   6.139   2.325   1.677
 2712TIP3    H2 8101   6.245   2.220   1.651
 2713TIP3   OH2 8102   6.364   2.531   2.807
 2713TIP3    H1 8103   6.346   2.458   2.870
 2713TIP3    H2 8104   6.459   2.546   2.824
 2714TIP3   OH2 8105   6.333   2.279   1.962
 2714TIP3    H1 8106   6.274   2.307   1.889
 2714TIP3    H2 8107   6.373   2.201   1.918
 2715TIP3   OH2 8108   5.636   2.314   2.689
 2715TIP3    H1 8109   5.666   2.381   2.752
 2715TIP3    H2 8110   5.627   2.234   2.745
 2716TIP3   OH2 8111   5.680   1.791   1.401
 2716TIP3    H1 8112   5.670   1.793   1.498
 2716TIP3    H2 8113   5.606   1.848   1.374
 2717TIP3   OH2 8114   5.228   1.827   2.275
 2717TIP3    H1 8115   5.299   1.866   2.330
 2717TIP3    H2 8116   5.271   1.812   2.190
 2718TIP3   OH2 8117   5.187   1.813   1.789
 2718TIP3    H1 8118   5.233   1.849   1.710
 2718TIP3    H2 8119   5.128   1.889   1.808
 2719TIP3   OH2 8120   6.346   2.526   2.381
 2719TIP3    H1 8121   6.382   2.455   2.322
 2719TIP3    H2 8122   6.318   2.471   2.457
 2720TIP3   OH2 8123   6.030   1.983   2.052
 2720TIP3    H1 8124   5.951   1.989   2.110
 2720TIP3    H2 8125   6.103   1.987   2.117
 2721TIP3   OH2 8126   5.459   2.050   2.063
 2721TIP3    H1 8127   5.365   2.057   2.033
 2721TIP3    H2 8128   5.483   1.959   2.038
 2722TIP3   OH2 8129   5.722   2.041   1.755
 2722TIP3    H1 8130   5.816   2.059   1.735
 2722TIP3    H2 8131   5.677   2.064   1.670
 2723TIP3   OH2 8132   6.515   2.072   2.274
 2723TIP3    H1 8133   6.471   2.087   2.360
 2723TIP3    H2 8134   6.450   2.018   2.227
 2724TIP3   OH2 8135   5.577   2.075   1.527
 2724TIP3    H1 8136   5.506   2.034   1.474
 2724TIP3    H2 8137   5.630   2.117   1.456
 2725TIP3   OH2 8138   6.690   3.758   2.478
 2725TIP3    H1 8139   6.687   3.781   2.383
 2725TIP3    H2 8140   6.771   3.805   2.506
 2726TIP3   OH2 8141   5.645   2.863   2.899
 2726TIP3    H1 8142   5.725   2.896   2.945
 2726TIP3    H2 8143   5.580   2.867   2.972
 2727TIP3   OH2 8144   6.107   2.317   2.147
 2727TIP3    H1 8145   6.186   2.291   2.097
 2727TIP3    H2 8146   6.123   2.275   2.233
 2728TIP3   OH2 8147   5.624   1.810   2.035
 2728TIP3    H1 8148   5.590   1.731   2.084
 2728TIP3    H2 8149   5.669   1.769   1.960
 2729TIP3   OH2 8150   6.083   2.216   2.452
 2729TIP3    H1 8151   5.995   2.258   2.458
 2729TIP3    H2 8152   6.141   2.282   2.495
 2730TIP3   OH2 8153   5.821   2.607   1.538
 2730TIP3    H1 8154   5.747   2.544   1.525
 2730TIP3    H2 8155   5.799   2.643   1.627
 2731TIP3   OH2 8156   6.726   2.840   2.160
 2731TIP3    H1 8157   6.751   2.888   2.078
 2731TIP3    H2 8158   6.641   2.797   2.135
 2732TIP3   OH2 8159   6.279   1.914   1.408
 2732TIP3    H1 8160   6.181   1.901   1.414
 2732TIP3    H2 8161   6.291   2.009   1.428
 2733TIP3   OH2 8162   6.212   2.924   2.537
 2733TIP3    H1 8163   6.256   2.916   2.622
 2733TIP3    H2 8164   6.180   3.016   2.538
 2734TIP3   OH2 8165   6.348   2.169   1.504
 2734TIP3    H1 8166   6.445   2.176   1.519
 2734TIP3    H2 8167   6.330   2.247   1.449
 2735TIP3   OH2 8168   5.504   2.610   2.208
 2735TIP3    H1 8169   5.545   2.597   2.120
 2735TIP3    H2 8170   5.570   2.570   2.266
 2736TIP3   OH2 8171   5.962   2.756   1.356
 2736TIP3    H1 8172   5.914   2.842   1.360
 2736TIP3    H2 8173   5.911   2.703   1.421
 2737TIP3   OH2 8174   5.397   2.548   2.828
 2737TIP3    H1 8175   5.411   2.534   2.923
 2737TIP3    H2 8176   5.325   2.486   2.809
 2738TIP3   OH2 8177   6.124   2.666   2.848
 2738TIP3    H1 8178   6.064   2.611   2.795
 2738TIP3    H2 8179   6.211   2.631   2.819
 2739TIP3   OH2 8180   6.377   3.184   2.438
 2739TIP3    H1 8181   6.281   3.185   2.449
 2739TIP3    H2 8182   6.405   3.240   2.513
 2740TIP3   OH2 8183   6.997   3.105   2.428
 2740TIP3    H1 8184   6.899   3.109   2.421
 2740TIP3    H2 8185   7.018   3.068   2.338
 2741TIP3   OH2 8186   6.487   3.081   1.250
 2741TIP3    H1 8187   6.463   3.021   1.321
 2741TIP3    H2 8188   6.498   3.023   1.173
 2742TIP3   OH2 8189   6.482   2.714   2.080
 2742TIP3    H1 8190   6.388   2.690   2.096
 2742TIP3    H2 8191   6.511   2.635   2.031
 2743TIP3   OH2 8192   5.604   2.940   1.845
 2743TIP3    H1 8193   5.607   3.012   1.779
 2743TIP3    H2 8194   5.521   2.962   1.889
 2744TIP3   OH2 8195   5.181   2.238   1.545
 2744TIP3    H1 8196   5.225   2.323   1.566
 2744TIP3    H2 8197   5.104   2.242   1.606
 2745TIP3   OH2 8198   5.736   2.701   1.776
 2745TIP3    H1 8199   5.699   2.789   1.797
 2745TIP3    H2 8200   5.709   2.651   1.855
 2746TIP3   OH2 8201   5.889   3.277   2.317
 2746TIP3    H1 8202   5.924   3.346   2.258
 2746TIP3    H2 8203   5.970   3.242   2.356
 2747TIP3   OH2 8204   5.532   3.174   1.688
 2747TIP3    H1 8205   5.467   3.169   1.762
 2747TIP3    H2 8206   5.555   3.269   1.691
 2748TIP3   OH2 8207   6.268   2.913   2.269
 2748TIP3    H1 8208   6.257   2.908   2.366
 2748TIP3    H2 8209   6.349   2.862   2.256
 2749TIP3   OH2 8210   6.247   2.812   1.151
 2749TIP3    H1 8211   6.300   2.786   1.230
 2749TIP3    H2 8212   6.160   2.780   1.179
 2750TIP3   OH2 8213   6.519   3.444   2.313
 2750TIP3    H1 8214   6.436   3.392   2.304
 2750TIP3    H2 8215   6.506   3.510   2.241
 2751TIP3   OH2 8216   6.563   3.275   0.957
 2751TIP3    H1 8217   6.609   3.349   0.913
 2751TIP3    H2 8218   6.486   3.324   0.994
 2752TIP3   OH2 8219   5.602   2.055   2.833
 2752TIP3    H1 8220   5.505   2.057   2.843
 2752TIP3    H2 8221   5.629   1.999   2.907
 2753TIP3   OH2 8222   6.391   2.738   1.367
 2753TIP3    H1 8223   6.389   2.671   1.439
 2753TIP3    H2 8224   6.488   2.736   1.347
 2754TIP3   OH2 8225   5.323   3.144   2.459
 2754TIP3    H1 8226   5.376   3.065   2.478
 2754TIP3    H2 8227   5.365   3.211   2.514
 2755TIP3   OH2 8228   5.610   2.785   1.149
 2755TIP3    H1 8229   5.626   2.691   1.128
 2755TIP3    H2 8230   5.591   2.780   1.245
 2756TIP3   OH2 8231   5.556   2.791   1.419
 2756TIP3    H1 8232   5.626   2.767   1.481
 2756TIP3    H2 8233   5.555   2.889   1.428
 2757TIP3   OH2 8234   5.287   2.482   1.627
 2757TIP3    H1 8235   5.220   2.528   1.682
 2757TIP3    H2 8236   5.300   2.549   1.557
 2758TIP3   OH2 8237   6.437   2.129   2.531
 2758TIP3    H1 8238   6.526   2.163   2.552
 2758TIP3    H2 8239   6.434   2.044   2.580
 2759TIP3   OH2 8240   6.323   1.863   1.687
 2759TIP3    H1 8241   6.313   1.887   1.593
 2759TIP3    H2 8242   6.364   1.945   1.723
 2760TIP3   OH2 8243   5.822   2.987   1.366
 2760TIP3    H1 8244   5.735   3.008   1.404
 2760TIP3    H2 8245   5.841   3.072   1.323
 2761TIP3   OH2 8246   6.004   2.054   1.785
 2761TIP3    H1 8247   6.069   2.125   1.766
 2761TIP3    H2 8248   6.015   2.044   1.882
 2762TIP3   OH2 8249   6.280   2.365   2.590
 2762TIP3    H1 8250   6.311   2.415   2.669
 2762TIP3    H2 8251   6.336   2.285   2.593
 2763TIP3   OH2 8252   6.152   1.769   1.883
 2763TIP3    H1 8253   6.143   1.847   1.942
 2763TIP3    H2 8254   6.214   1.805   1.815
 2764TIP3   OH2 8255   5.567   3.062   1.439
 2764TIP3    H1 8256   5.537   3.134   1.380
 2764TIP3    H2 8257   5.551   3.102   1.528
 2765TIP3   OH2 8258   5.667   1.779   1.677
 2765TIP3    H1 8259   5.665   1.870   1.713
 2765TIP3    H2 8260   5.764   1.762   1.684
 2766TIP3   OH2 8261   6.925   2.252   2.551
 2766TIP3    H1 8262   6.828   2.248   2.566
 2766TIP3    H2 8263   6.927   2.281   2.459
 2767TIP3   OH2 8264   6.549   2.477   1.950
 2767TIP3    H1 8265   6.482   2.409   1.970
 2767TIP3    H2 8266   6.624   2.450   2.008
 2768TIP3   OH2 8267   5.283   2.685   1.431
 2768TIP3    H1 8268   5.345   2.759   1.445
 2768TIP3    H2 8269   5.334   2.634   1.365
 2769TIP3   OH2 8270   5.223   1.967   1.566
 2769TIP3    H1 8271   5.231   2.065   1.565
 2769TIP3    H2 8272   5.144   1.954   1.513
 2770TIP3   OH2 8273   6.534   3.435   1.893
 2770TIP3    H1 8274   6.500   3.465   1.807
 2770TIP3    H2 8275   6.631   3.447   1.880
 2771TIP3   OH2 8276   5.615   1.689   2.434
 2771TIP3    H1 8277   5.587   1.655   2.347
 2771TIP3    H2 8278   5.605   1.610   2.491
 2772TIP3   OH2 8279   5.311   3.452   2.905
 2772TIP3    H1 8280   5.402   3.448   2.940
 2772TIP3    H2 8281   5.292   3.358   2.890
 2773TIP3   OH2 8282   5.790   3.403   2.936
 2773TIP3    H1 8283   5.886   3.392   2.934
 2773TIP3    H2 8284   5.764   3.343   2.862
 2774TIP3   OH2 8285   5.771   2.986   1.054
 2774TIP3    H1 8286   5.714   2.917   1.096
 2774TIP3    H2 8287   5.850   2.933   1.035
 2775TIP3   OH2 8288   6.426   3.324   2.673
 2775TIP3    H1 8289   6.423   3.253   2.740
 2775TIP3    H2 8290   6.506   3.374   2.699
 2776TIP3   OH2 8291   6.208   3.024   0.978
 2776TIP3    H1 8292   6.242   2.958   1.042
 2776TIP3    H2 8293   6.273   3.018   0.906
 2777TIP3   OH2 8294   5.442   2.857   3.091
 2777TIP3    H1 8295   5.455   2.760   3.096
 2777TIP3    H2 8296   5.356   2.862   3.043
 2778TIP3   OH2 8297   5.424   2.501   1.287
 2778TIP3    H1 8298   5.482   2.476   1.361
 2778TIP3    H2 8299   5.490   2.507   1.214
 2779TIP3   OH2 8300   6.046   2.944   2.865
 2779TIP3    H1 8301   6.008   2.969   2.778
 2779TIP3    H2 8302   6.079   2.853   2.849
 2780TIP3   OH2 8303   5.936   2.706   1.089
 2780TIP3    H1 8304   5.938   2.717   1.186
 2780TIP3    H2 8305   5.937   2.608   1.083
 2781TIP3   OH2 8306   6.536   2.956   2.473
 2781TIP3    H1 8307   6.615   2.991   2.427
 2781TIP3    H2 8308   6.472   3.028   2.454
 2782TIP3   OH2 8309   5.562   2.589   3.078
 2782TIP3    H1 8310   5.644   2.562   3.034
 2782TIP3    H2 8311   5.595   2.625   3.163
 2783TIP3   OH2 8312   5.620   2.414   1.499
 2783TIP3    H1 8313   5.598   2.377   1.586
 2783TIP3    H2 8314   5.663   2.338   1.454
 2784TIP3   OH2 8315   5.898   2.471   2.732
 2784TIP3    H1 8316   5.821   2.532   2.733
 2784TIP3    H2 8317   5.951   2.508   2.658
 2785TIP3   OH2 8318   5.733   2.207   1.345
 2785TIP3    H1 8319   5.709   2.218   1.250
 2785TIP3    H2 8320   5.831   2.207   1.338
 2786TIP3   OH2 8321   6.416   2.876   2.865
 2786TIP3    H1 8322   6.491   2.846   2.812
 2786TIP3    H2 8323   6.412   2.809   2.935
 2787TIP3   OH2 8324   6.523   2.537   1.000
 2787TIP3    H1 8325   6.504   2.486   0.919
 2787TIP3    H2 8326   6.485   2.625   0.975
 2788TIP3   OH2 8327   6.021   2.265   2.858
 2788TIP3    H1 8328   6.023   2.188   2.797
 2788TIP3    H2 8329   5.979   2.333   2.801
 2789TIP3   OH2 8330   6.024   2.049   2.671
 2789TIP3    H1 8331   6.054   2.095   2.589
 2789TIP3    H2 8332   5.930   2.029   2.648
 2790TIP3   OH2 8333   6.046   2.586   2.543
 2790TIP3    H1 8334   6.133   2.602   2.504
 2790TIP3    H2 8335   5.990   2.650   2.494
 2791TIP3   OH2 8336   6.639   2.553   2.920
 2791TIP3    H1 8337   6.685   2.468   2.917
 2791TIP3    H2 8338   6.709   2.614   2.892
 2792TIP3   OH2 8339   6.659   2.806   2.661
 2792TIP3    H1 8340   6.605   2.862   2.599
 2792TIP3    H2 8341   6.748   2.822   2.623
 2793TIP3   OH2 8342   5.901   2.368   3.095
 2793TIP3    H1 8343   5.833   2.300   3.107
 2793TIP3    H2 8344   5.932   2.349   3.004
 2794TIP3   OH2 8345   6.155   1.812   2.740
 2794TIP3    H1 8346   6.106   1.893   2.715
 2794TIP3    H2 8347   6.087   1.743   2.726
 2795TIP3   OH2 8348   6.282   2.311   2.951
 2795TIP3    H1 8349   6.264   2.298   3.046
 2795TIP3    H2 8350   6.193   2.291   2.915
 2796TIP3   OH2 8351   6.520   2.272   2.807
 2796TIP3    H1 8352   6.446   2.270   2.870
 2796TIP3    H2 8353   6.596   2.242   2.862
 2797TIP3   OH2 8354   6.744   2.210   2.955
 2797TIP3    H1 8355   6.768   2.116   2.969
 2797TIP3    H2 8356   6.750   2.247   3.045
 2798TIP3   OH2 8357   5.735   2.150   3.148
 2798TIP3    H1 8358   5.742   2.059   3.113
 2798TIP3    H2 8359   5.774   2.138   3.237
 2799TIP3   OH2 8360   6.242   1.819   3.000
 2799TIP3    H1 8361   6.308   1.747   2.993
 2799TIP3    H2 8362   6.207   1.819   2.908
 2800TIP3   OH2 8363   6.314   2.034   3.156
 2800TIP3    H1 8364   6.294   1.965   3.090
 2800TIP3    H2 8365   6.237   2.094   3.146
 2801TIP3   OH2 8366   5.538   3.265   1.248
 2801TIP3    H1 8367   5.634   3.254   1.233
 2801TIP3    H2 8368   5.515   3.321   1.171
 2802TIP3   OH2 8369   5.015   2.646   1.463
 2802TIP3    H1 8370   5.109   2.670   1.450
 2802TIP3    H2 8371   5.012   2.557   1.421
 2803TIP3   OH2 8372   4.926   3.260   1.880
 2803TIP3    H1 8373   4.864   3.193   1.844
 2803TIP3    H2 8374   4.965   3.210   1.955
 2804TIP3   OH2 8375   5.035   3.131   2.087
 2804TIP3    H1 8376   5.070   3.042   2.075
 2804TIP3    H2 8377   5.117   3.179   2.108
 2805TIP3   OH2 8378   6.798   3.496   1.865
 2805TIP3    H1 8379   6.830   3.536   1.949
 2805TIP3    H2 8380   6.791   3.573   1.807
 2806TIP3   OH2 8381   6.816   3.532   2.153
 2806TIP3    H1 8382   6.774   3.443   2.149
 2806TIP3    H2 8383   6.896   3.509   2.203
 2807TIP3   OH2 8384   6.871   3.211   2.728
 2807TIP3    H1 8385   6.799   3.223   2.794
 2807TIP3    H2 8386   6.916   3.298   2.732
 2808TIP3   OH2 8387   6.657   2.729   1.328
 2808TIP3    H1 8388   6.710   2.811   1.311
 2808TIP3    H2 8389   6.701   2.697   1.410
 2809TIP3   OH2 8390   6.766   2.623   1.555
 2809TIP3    H1 8391   6.706   2.553   1.589
 2809TIP3    H2 8392   6.780   2.675   1.636
 2810TIP3   OH2 8393   6.869   2.983   1.970
 2810TIP3    H1 8394   6.936   2.936   1.916
 2810TIP3    H2 8395   6.855   3.063   1.917
 2811TIP3   OH2 8396   6.695   3.281   2.169
 2811TIP3    H1 8397   6.624   3.323   2.221
 2811TIP3    H2 8398   6.645   3.236   2.098
 2812TIP3   OH2 8399   6.732   2.514   1.166
 2812TIP3    H1 8400   6.649   2.502   1.116
 2812TIP3    H2 8401   6.703   2.579   1.233
 2813TIP3   OH2 8402   6.516   2.184   1.136
 2813TIP3    H1 8403   6.608   2.215   1.144
 2813TIP3    H2 8404   6.531   2.087   1.142
 2814TIP3   OH2 8405   6.615   2.439   1.685
 2814TIP3    H1 8406   6.628   2.343   1.675
 2814TIP3    H2 8407   6.600   2.449   1.782
 2815TIP3   OH2 8408   5.252   2.510   2.444
 2815TIP3    H1 8409   5.250   2.483   2.350
 2815TIP3    H2 8410   5.350   2.517   2.458
 2816TIP3   OH2 8411   6.908   2.865   2.554
 2816TIP3    H1 8412   6.983   2.804   2.542
 2816TIP3    H2 8413   6.935   2.941   2.500
 2817TIP3   OH2 8414   7.109   2.678   2.603
 2817TIP3    H1 8415   7.028   2.623   2.618
 2817TIP3    H2 8416   7.160   2.654   2.684
 2818TIP3   OH2 8417   6.556   1.914   1.150
 2818TIP3    H1 8418   6.643   1.877   1.174
 2818TIP3    H2 8419   6.497   1.838   1.156
 2819TIP3   OH2 8420   6.625   2.166   1.588
 2819TIP3    H1 8421   6.652   2.076   1.615
 2819TIP3    H2 8422   6.689   2.181   1.515
 2820TIP3   OH2 8423   6.759   2.396   2.095
 2820TIP3    H1 8424   6.812   2.323   2.057
 2820TIP3    H2 8425   6.807   2.416   2.178
 2821TIP3   OH2 8426   6.862   2.478   2.343
 2821TIP3    H1 8427   6.780   2.518   2.375
 2821TIP3    H2 8428   6.907   2.555   2.301
 2822TIP3   OH2 8429   5.468   2.197   3.109
 2822TIP3    H1 8430   5.565   2.196   3.115
 2822TIP3    H2 8431   5.446   2.112   3.152
 2823TIP3   OH2 8432   6.674   1.913   1.670
 2823TIP3    H1 8433   6.746   1.883   1.727
 2823TIP3    H2 8434   6.624   1.829   1.658
 2824TIP3   OH2 8435   5.432   1.899   2.449
 2824TIP3    H1 8436   5.494   1.824   2.454
 2824TIP3    H2 8437   5.494   1.973   2.437
 2825TIP3   OH2 8438   5.233   2.169   2.517
 2825TIP3    H1 8439   5.283   2.168   2.433
 2825TIP3    H2 8440   5.254   2.257   2.550
 2826TIP3   OH2 8441   5.220   1.667   2.013
 2826TIP3    H1 8442   5.128   1.666   2.046
 2826TIP3    H2 8443   5.214   1.730   1.938
 2827TIP3   OH2 8444   6.386   3.380   1.537
 2827TIP3    H1 8445   6.434   3.371   1.452
 2827TIP3    H2 8446   6.415   3.472   1.559
 2828TIP3   OH2 8447   5.439   1.751   2.832
 2828TIP3    H1 8448   5.386   1.752   2.913
 2828TIP3    H2 8449   5.376   1.791   2.769
 2829TIP3   OH2 8450   5.481   3.186   2.908
 2829TIP3    H1 8451   5.389   3.162   2.888
 2829TIP3    H2 8452   5.487   3.165   3.002
 2830TIP3   OH2 8453   5.659   3.225   2.462
 2830TIP3    H1 8454   5.614   3.300   2.419
 2830TIP3    H2 8455   5.747   3.235   2.418
 2831TIP3   OH2 8456   6.098   3.458   2.595
 2831TIP3    H1 8457   6.142   3.460   2.683
 2831TIP3    H2 8458   6.162   3.510   2.542
 2832TIP3   OH2 8459   6.277   3.613   2.458
 2832TIP3    H1 8460   6.345   3.566   2.408
 2832TIP3    H2 8461   6.332   3.669   2.517
 2833TIP3   OH2 8462   5.338   3.476   2.484
 2833TIP3    H1 8463   5.247   3.500   2.458
 2833TIP3    H2 8464   5.350   3.533   2.561
 2834TIP3   OH2 8465   5.572   3.454   2.341
 2834TIP3    H1 8466   5.483   3.463   2.382
 2834TIP3    H2 8467   5.554   3.480   2.248
 2835TIP3   OH2 8468   5.995   3.473   2.140
 2835TIP3    H1 8469   5.926   3.484   2.072
 2835TIP3    H2 8470   6.003   3.563   2.176
 2836TIP3   OH2 8471   6.266   3.414   2.193
 2836TIP3    H1 8472   6.172   3.433   2.172
 2836TIP3    H2 8473   6.311   3.484   2.143
 2837TIP3   OH2 8474   6.467   3.605   2.100
 2837TIP3    H1 8475   6.451   3.692   2.055
 2837TIP3    H2 8476   6.492   3.549   2.024
 2838TIP3   OH2 8477   5.250   3.259   2.215
 2838TIP3    H1 8478   5.290   3.224   2.298
 2838TIP3    H2 8479   5.305   3.216   2.146
 2839TIP3   OH2 8480   5.734   3.260   2.074
 2839TIP3    H1 8481   5.699   3.173   2.050
 2839TIP3    H2 8482   5.761   3.246   2.166
 2840TIP3   OH2 8483   6.277   1.887   2.173
 2840TIP3    H1 8484   6.236   1.814   2.223
 2840TIP3    H2 8485   6.357   1.845   2.135
 2841TIP3   OH2 8486   6.766   1.857   2.072
 2841TIP3    H1 8487   6.815   1.796   2.015
 2841TIP3    H2 8488   6.678   1.814   2.078
 2842TIP3   OH2 8489   5.529   1.594   2.187
 2842TIP3    H1 8490   5.436   1.563   2.191
 2842TIP3    H2 8491   5.575   1.508   2.182
 2843TIP3   OH2 8492   5.321   1.466   1.839
 2843TIP3    H1 8493   5.349   1.523   1.764
 2843TIP3    H2 8494   5.292   1.533   1.904
 2844TIP3   OH2 8495   5.979   1.624   2.072
 2844TIP3    H1 8496   6.028   1.673   2.004
 2844TIP3    H2 8497   6.008   1.668   2.153
 2845TIP3   OH2 8498   6.498   1.762   2.055
 2845TIP3    H1 8499   6.481   1.736   1.964
 2845TIP3    H2 8500   6.488   1.676   2.103
 2846TIP3   OH2 8501   6.542   1.678   1.645
 2846TIP3    H1 8502   6.456   1.721   1.630
 2846TIP3    H2 8503   6.516   1.587   1.669
 2847TIP3   OH2 8504   5.039   3.001   1.589
 2847TIP3    H1 8505   4.944   3.008   1.568
 2847TIP3    H2 8506   5.054   3.078   1.644
 2848TIP3   OH2 8507   5.438   1.619   1.600
 2848TIP3    H1 8508   5.485   1.559   1.540
 2848TIP3    H2 8509   5.511   1.675   1.634
 2849TIP3   OH2 8510   5.944   1.802   1.700
 2849TIP3    H1 8511   6.008   1.759   1.759
 2849TIP3    H2 8512   5.963   1.896   1.722
 2850TIP3   OH2 8513   5.803   3.220   1.197
 2850TIP3    H1 8514   5.893   3.242   1.164
 2850TIP3    H2 8515   5.783   3.144   1.138
 2851TIP3   OH2 8516   6.516   3.350   1.295
 2851TIP3    H1 8517   6.510   3.252   1.287
 2851TIP3    H2 8518   6.471   3.378   1.213
 2852TIP3   OH2 8519   5.735   1.872   3.079
 2852TIP3    H1 8520   5.700   1.803   3.136
 2852TIP3    H2 8521   5.829   1.873   3.107
 2853TIP3   OH2 8522   5.987   1.874   3.197
 2853TIP3    H1 8523   6.072   1.856   3.153
 2853TIP3    H2 8524   5.982   1.800   3.260
 2854TIP3   OH2 8525   5.106   3.058   1.255
 2854TIP3    H1 8526   5.105   3.063   1.352
 2854TIP3    H2 8527   5.194   3.018   1.238
 2855TIP3   OH2 8528   6.825   1.937   2.989
 2855TIP3    H1 8529   6.833   1.908   3.082
 2855TIP3    H2 8530   6.906   1.897   2.951
 2856TIP3   OH2 8531   6.737   3.487   2.485
 2856TIP3    H1 8532   6.663   3.460   2.427
 2856TIP3    H2 8533   6.725   3.584   2.486
 2857TIP3   OH2 8534   6.836   2.924   1.283
 2857TIP3    H1 8535   6.864   2.928   1.189
 2857TIP3    H2 8536   6.864   3.012   1.314
 2858TIP3   OH2 8537   7.055   3.015   2.181
 2858TIP3    H1 8538   6.983   3.012   2.116
 2858TIP3    H2 8539   7.128   2.972   2.130
 2859TIP3   OH2 8540   6.919   3.245   1.829
 2859TIP3    H1 8541   6.990   3.291   1.881
 2859TIP3    H2 8542   6.850   3.314   1.836
 2860TIP3   OH2 8543  -0.001   4.815   3.377
 2860TIP3    H1 8544   0.078   4.783   3.424
 2860TIP3    H2 8545  -0.004   4.909   3.406
 2861TIP3   OH2 8546   6.927   3.177   1.316
 2861TIP3    H1 8547   6.850   3.224   1.277
 2861TIP3    H2 8548   6.992   3.250   1.313
 2862TIP3   OH2 8549   7.108   3.731   2.383
 2862TIP3    H1 8550   7.201   3.742   2.413
 2862TIP3    H2 8551   7.111   3.636   2.361
 2863TIP3   OH2 8552   6.761   3.507   1.338
 2863TIP3    H1 8553   6.672   3.471   1.320
 2863TIP3    H2 8554   6.780   3.465   1.424
 2864TIP3   OH2 8555   6.858   3.380   1.563
 2864TIP3    H1 8556   6.832   3.316   1.630
 2864TIP3    H2 8557   6.938   3.419   1.603
 2865TIP3   OH2 8558   7.214   3.469   2.269
 2865TIP3    H1 8559   7.123   3.446   2.294
 2865TIP3    H2 8560   7.259   3.391   2.305
 2866TIP3   OH2 8561   7.091   3.671   1.990
 2866TIP3    H1 8562   7.014   3.714   1.946
 2866TIP3    H2 8563   7.110   3.740   2.055
 2867TIP3   OH2 8564   7.070   3.501   1.691
 2867TIP3    H1 8565   7.077   3.491   1.788
 2867TIP3    H2 8566   7.155   3.463   1.663
 2868TIP3   OH2 8567   6.780   3.310   1.124
 2868TIP3    H1 8568   6.697   3.279   1.085
 2868TIP3    H2 8569   6.776   3.403   1.094
 2869TIP3   OH2 8570   0.429   3.625   2.985
 2869TIP3    H1 8571   0.474   3.702   2.948
 2869TIP3    H2 8572   0.385   3.587   2.907
 2870TIP3   OH2 8573   0.445   3.663   3.327
 2870TIP3    H1 8574   0.496   3.618   3.396
 2870TIP3    H2 8575   0.435   3.596   3.258
 2871TIP3   OH2 8576   0.370   4.410   3.016
 2871TIP3    H1 8577   0.408   4.339   2.961
 2871TIP3    H2 8578   0.364   4.367   3.102
 2872TIP3   OH2 8579   0.267   3.874   3.369
 2872TIP3    H1 8580   0.311   3.792   3.338
 2872TIP3    H2 8581   0.347   3.926   3.389
 2873TIP3   OH2 8582   1.286   3.192   3.365
 2873TIP3    H1 8583   1.315   3.276   3.406
 2873TIP3    H2 8584   1.300   3.211   3.271
 2874TIP3   OH2 8585   0.661   3.367   3.402
 2874TIP3    H1 8586   0.712   3.285   3.415
 2874TIP3    H2 8587   0.656   3.371   3.304
 2875TIP3   OH2 8588   0.023   3.034   3.361
 2875TIP3    H1 8589   0.006   3.108   3.299
 2875TIP3    H2 8590  -0.028   2.963   3.316
 2876TIP3   OH2 8591   0.716   3.127   2.981
 2876TIP3    H1 8592   0.788   3.115   3.047
 2876TIP3    H2 8593   0.768   3.164   2.906
 2877TIP3   OH2 8594   0.095   3.430   3.271
 2877TIP3    H1 8595   0.190   3.405   3.279
 2877TIP3    H2 8596   0.056   3.348   3.235
 2878TIP3   OH2 8597   1.356   3.403   3.534
 2878TIP3    H1 8598   1.272   3.449   3.512
 2878TIP3    H2 8599   1.375   3.440   3.622
 2879TIP3   OH2 8600   0.048   2.986   3.790
 2879TIP3    H1 8601  -0.016   3.028   3.728
 2879TIP3    H2 8602   0.010   3.015   3.876
 2880TIP3   OH2 8603   0.364   3.883   2.770
 2880TIP3    H1 8604   0.296   3.814   2.775
 2880TIP3    H2 8605   0.323   3.954   2.823
 2881TIP3   OH2 8606   0.117   3.803   3.582
 2881TIP3    H1 8607   0.044   3.865   3.592
 2881TIP3    H2 8608   0.166   3.841   3.506
 2882TIP3   OH2 8609   0.919   3.127   3.164
 2882TIP3    H1 8610   0.890   3.101   3.253
 2882TIP3    H2 8611   0.970   3.209   3.183
 2883TIP3   OH2 8612  -0.097   3.114   3.596
 2883TIP3    H1 8613  -0.047   3.197   3.612
 2883TIP3    H2 8614  -0.051   3.083   3.515
 2884TIP3   OH2 8615   0.790   4.213   3.186
 2884TIP3    H1 8616   0.699   4.183   3.205
 2884TIP3    H2 8617   0.772   4.290   3.128
 2885TIP3   OH2 8618   1.076   3.089   3.526
 2885TIP3    H1 8619   0.989   3.117   3.492
 2885TIP3    H2 8620   1.137   3.125   3.459
 2886TIP3   OH2 8621   0.373   2.729   3.508
 2886TIP3    H1 8622   0.355   2.635   3.526
 2886TIP3    H2 8623   0.294   2.770   3.551
 2887TIP3   OH2 8624   0.476   4.233   2.826
 2887TIP3    H1 8625   0.532   4.152   2.817
 2887TIP3    H2 8626   0.540   4.299   2.791
 2888TIP3   OH2 8627   0.634   4.016   2.759
 2888TIP3    H1 8628   0.565   3.953   2.733
 2888TIP3    H2 8629   0.704   3.955   2.791
 2889TIP3   OH2 8630   1.010   4.103   3.508
 2889TIP3    H1 8631   0.996   4.027   3.447
 2889TIP3    H2 8632   0.991   4.179   3.450
 2890TIP3   OH2 8633   0.310   3.504   2.766
 2890TIP3    H1 8634   0.222   3.541   2.746
 2890TIP3    H2 8635   0.352   3.499   2.679
 2891TIP3   OH2 8636   0.262   3.297   2.478
 2891TIP3    H1 8637   0.328   3.341   2.533
 2891TIP3    H2 8638   0.318   3.234   2.428
 2892TIP3   OH2 8639   1.203   3.748   3.357
 2892TIP3    H1 8640   1.117   3.797   3.358
 2892TIP3    H2 8641   1.233   3.771   3.266
 2893TIP3   OH2 8642   0.881   3.619   3.652
 2893TIP3    H1 8643   0.874   3.704   3.699
 2893TIP3    H2 8644   0.796   3.620   3.603
 2894TIP3   OH2 8645  -0.098   3.586   3.149
 2894TIP3    H1 8646  -0.137   3.521   3.086
 2894TIP3    H2 8647  -0.023   3.534   3.185
 2895TIP3   OH2 8648   0.018   4.003   3.308
 2895TIP3    H1 8649  -0.015   3.972   3.221
 2895TIP3    H2 8650   0.104   3.955   3.315
 2896TIP3   OH2 8651   0.019   3.553   3.505
 2896TIP3    H1 8652   0.062   3.521   3.423
 2896TIP3    H2 8653   0.068   3.635   3.526
 2897TIP3   OH2 8654   0.531   4.189   3.278
 2897TIP3    H1 8655   0.535   4.266   3.338
 2897TIP3    H2 8656   0.522   4.113   3.340
 2898TIP3   OH2 8657   0.150   4.114   3.803
 2898TIP3    H1 8658   0.098   4.120   3.887
 2898TIP3    H2 8659   0.081   4.088   3.741
 2899TIP3   OH2 8660   0.504   3.458   2.568
 2899TIP3    H1 8661   0.560   3.529   2.602
 2899TIP3    H2 8662   0.522   3.466   2.471
 2900TIP3   OH2 8663   0.221   4.125   2.820
 2900TIP3    H1 8664   0.311   4.163   2.831
 2900TIP3    H2 8665   0.168   4.204   2.805
 2901TIP3   OH2 8666   1.002   2.677   2.612
 2901TIP3    H1 8667   0.921   2.702   2.662
 2901TIP3    H2 8668   1.020   2.760   2.565
 2902TIP3   OH2 8669  -0.195   3.407   2.970
 2902TIP3    H1 8670  -0.181   3.460   2.888
 2902TIP3    H2 8671  -0.279   3.366   2.947
 2903TIP3   OH2 8672   0.800   4.057   2.147
 2903TIP3    H1 8673   0.794   4.130   2.083
 2903TIP3    H2 8674   0.894   4.031   2.141
 2904TIP3   OH2 8675   1.245   4.457   3.558
 2904TIP3    H1 8676   1.243   4.359   3.568
 2904TIP3    H2 8677   1.160   4.480   3.602
 2905TIP3   OH2 8678   0.363   4.226   3.676
 2905TIP3    H1 8679   0.365   4.318   3.712
 2905TIP3    H2 8680   0.283   4.191   3.722
 2906TIP3   OH2 8681   0.114   4.364   2.639
 2906TIP3    H1 8682   0.066   4.381   2.557
 2906TIP3    H2 8683   0.107   4.452   2.683
 2907TIP3   OH2 8684   0.306   4.264   2.278
 2907TIP3    H1 8685   0.368   4.197   2.242
 2907TIP3    H2 8686   0.346   4.281   2.366
 2908TIP3   OH2 8687   0.363   4.314   2.544
 2908TIP3    H1 8688   0.278   4.325   2.592
 2908TIP3    H2 8689   0.422   4.285   2.616
 2909TIP3   OH2 8690   1.132   3.581   3.829
 2909TIP3    H1 8691   1.049   3.589   3.778
 2909TIP3    H2 8692   1.149   3.485   3.822
 2910TIP3   OH2 8693   0.135   2.789   3.628
 2910TIP3    H1 8694   0.043   2.768   3.600
 2910TIP3    H2 8695   0.116   2.869   3.681
 2911TIP3   OH2 8696   0.669   2.926   3.834
 2911TIP3    H1 8697   0.738   2.899   3.898
 2911TIP3    H2 8698   0.586   2.908   3.883
 2912TIP3   OH2 8699   0.899   3.356   3.751
 2912TIP3    H1 8700   0.847   3.356   3.835
 2912TIP3    H2 8701   0.877   3.443   3.713
 2913TIP3   OH2 8702   0.559   3.478   2.304
 2913TIP3    H1 8703   0.529   3.457   2.214
 2913TIP3    H2 8704   0.643   3.523   2.285
 2914TIP3   OH2 8705   0.275   2.862   2.615
 2914TIP3    H1 8706   0.241   2.858   2.706
 2914TIP3    H2 8707   0.236   2.780   2.579
 2915TIP3   OH2 8708   0.066   3.332   3.656
 2915TIP3    H1 8709   0.033   3.361   3.743
 2915TIP3    H2 8710   0.047   3.412   3.602
 2916TIP3   OH2 8711  -0.046   3.212   3.172
 2916TIP3    H1 8712  -0.142   3.202   3.180
 2916TIP3    H2 8713  -0.034   3.181   3.079
 2917TIP3   OH2 8714   0.432   3.291   2.897
 2917TIP3    H1 8715   0.389   3.371   2.859
 2917TIP3    H2 8716   0.490   3.263   2.824
 2918TIP3   OH2 8717   0.614   3.575   3.985
 2918TIP3    H1 8718   0.592   3.502   4.047
 2918TIP3    H2 8719   0.709   3.586   4.005
 2919TIP3   OH2 8720   0.585   3.330   3.136
 2919TIP3    H1 8721   0.527   3.368   3.067
 2919TIP3    H2 8722   0.617   3.251   3.088
 2920TIP3   OH2 8723  -0.058   3.394   3.892
 2920TIP3    H1 8724  -0.121   3.457   3.931
 2920TIP3    H2 8725  -0.100   3.308   3.910
 2921TIP3   OH2 8726  -0.073   2.829   2.582
 2921TIP3    H1 8727  -0.081   2.838   2.679
 2921TIP3    H2 8728  -0.140   2.894   2.552
 2922TIP3   OH2 8729   0.604   3.571   3.564
 2922TIP3    H1 8730   0.632   3.499   3.502
 2922TIP3    H2 8731   0.569   3.516   3.637
 2923TIP3   OH2 8732   0.279   3.022   3.230
 2923TIP3    H1 8733   0.200   3.032   3.287
 2923TIP3    H2 8734   0.350   3.038   3.294
 2924TIP3   OH2 8735  -0.299   3.093   3.226
 2924TIP3    H1 8736  -0.379   3.063   3.180
 2924TIP3    H2 8737  -0.243   3.013   3.222
 2925TIP3   OH2 8738  -0.028   3.084   2.929
 2925TIP3    H1 8739   0.064   3.108   2.907
 2925TIP3    H2 8740  -0.078   3.115   2.849
 2926TIP3   OH2 8741   0.770   3.111   3.435
 2926TIP3    H1 8742   0.738   3.127   3.527
 2926TIP3    H2 8743   0.697   3.056   3.401
 2927TIP3   OH2 8744  -0.178   3.119   2.706
 2927TIP3    H1 8745  -0.234   3.076   2.638
 2927TIP3    H2 8746  -0.120   3.171   2.646
 2928TIP3   OH2 8747   0.940   4.802   3.656
 2928TIP3    H1 8748   0.936   4.826   3.561
 2928TIP3    H2 8749   1.020   4.850   3.685
 2929TIP3   OH2 8750   0.353   3.346   3.323
 2929TIP3    H1 8751   0.438   3.336   3.275
 2929TIP3    H2 8752   0.375   3.314   3.411
 2930TIP3   OH2 8753  -0.134   2.862   3.212
 2930TIP3    H1 8754  -0.162   2.780   3.259
 2930TIP3    H2 8755  -0.086   2.826   3.136
 2931TIP3   OH2 8756   0.335   3.260   3.625
 2931TIP3    H1 8757   0.246   3.299   3.628
 2931TIP3    H2 8758   0.391   3.328   3.668
 2932TIP3   OH2 8759   0.081   3.650   2.716
 2932TIP3    H1 8760  -0.011   3.616   2.707
 2932TIP3    H2 8761   0.071   3.686   2.808
 2933TIP3   OH2 8762   0.969   3.889   3.343
 2933TIP3    H1 8763   0.983   3.939   3.260
 2933TIP3    H2 8764   0.882   3.845   3.325
 2934TIP3   OH2 8765   0.526   2.962   2.578
 2934TIP3    H1 8766   0.429   2.944   2.590
 2934TIP3    H2 8767   0.534   3.056   2.604
 2935TIP3   OH2 8768   0.464   3.965   3.714
 2935TIP3    H1 8769   0.506   3.960   3.800
 2935TIP3    H2 8770   0.434   4.057   3.709
 2936TIP3   OH2 8771   0.589   3.212   2.678
 2936TIP3    H1 8772   0.685   3.210   2.699
 2936TIP3    H2 8773   0.580   3.300   2.635
 2937TIP3   OH2 8774  -0.221   3.621   3.392
 2937TIP3    H1 8775  -0.191   3.621   3.298
 2937TIP3    H2 8776  -0.137   3.594   3.436
 2938TIP3   OH2 8777   0.181   3.788   2.509
 2938TIP3    H1 8778   0.226   3.861   2.556
 2938TIP3    H2 8779   0.163   3.725   2.584
 2939TIP3   OH2 8780   0.380   3.716   4.031
 2939TIP3    H1 8781   0.310   3.653   4.002
 2939TIP3    H2 8782   0.460   3.673   3.994
 2940TIP3   OH2 8783   0.633   4.234   3.610
 2940TIP3    H1 8784   0.536   4.229   3.617
 2940TIP3    H2 8785   0.654   4.289   3.689
 2941TIP3   OH2 8786   1.043   3.306   2.511
 2941TIP3    H1 8787   0.976   3.265   2.452
 2941TIP3    H2 8788   1.035   3.398   2.477
 2942TIP3   OH2 8789   1.260   4.169   3.594
 2942TIP3    H1 8790   1.163   4.159   3.586
 2942TIP3    H2 8791   1.287   4.135   3.505
 2943TIP3   OH2 8792   0.734   4.124   2.422
 2943TIP3    H1 8793   0.722   4.047   2.480
 2943TIP3    H2 8794   0.753   4.084   2.335
 2944TIP3   OH2 8795   0.733   3.757   3.296
 2944TIP3    H1 8796   0.640   3.748   3.271
 2944TIP3    H2 8797   0.769   3.674   3.255
 2945TIP3   OH2 8798  -0.083   3.968   3.041
 2945TIP3    H1 8799  -0.058   4.041   2.983
 2945TIP3    H2 8800  -0.172   3.946   3.007
 2946TIP3   OH2 8801   0.043   3.739   2.963
 2946TIP3    H1 8802   0.012   3.825   2.997
 2946TIP3    H2 8803  -0.007   3.680   3.023
 2947TIP3   OH2 8804   0.152   4.319   3.472
 2947TIP3    H1 8805   0.204   4.385   3.423
 2947TIP3    H2 8806   0.222   4.266   3.515
 2948TIP3   OH2 8807   0.521   3.959   3.442
 2948TIP3    H1 8808   0.511   3.948   3.539
 2948TIP3    H2 8809   0.594   3.898   3.423
 2949TIP3   OH2 8810   0.481   3.845   2.325
 2949TIP3    H1 8811   0.547   3.820   2.395
 2949TIP3    H2 8812   0.400   3.812   2.367
 2950TIP3   OH2 8813   0.770   4.492   3.497
 2950TIP3    H1 8814   0.690   4.436   3.488
 2950TIP3    H2 8815   0.755   4.555   3.422
 2951TIP3   OH2 8816  -0.067   3.086   4.012
 2951TIP3    H1 8817  -0.158   3.121   4.013
 2951TIP3    H2 8818  -0.065   3.041   4.098
 2952TIP3   OH2 8819   0.654   3.777   2.517
 2952TIP3    H1 8820   0.668   3.768   2.614
 2952TIP3    H2 8821   0.747   3.766   2.490
 2953TIP3   OH2 8822  -0.146   3.816   2.558
 2953TIP3    H1 8823  -0.175   3.737   2.610
 2953TIP3    H2 8824  -0.224   3.873   2.580
 2954TIP3   OH2 8825   0.695   3.165   3.696
 2954TIP3    H1 8826   0.776   3.204   3.731
 2954TIP3    H2 8827   0.684   3.084   3.751
 2955TIP3   OH2 8828   0.582   2.910   2.865
 2955TIP3    H1 8829   0.565   2.937   2.773
 2955TIP3    H2 8830   0.620   2.993   2.902
 2956TIP3   OH2 8831   0.055   4.033   2.474
 2956TIP3    H1 8832  -0.022   4.057   2.532
 2956TIP3    H2 8833   0.119   4.098   2.508
 2957TIP3   OH2 8834   0.253   3.095   2.962
 2957TIP3    H1 8835   0.317   3.167   2.943
 2957TIP3    H2 8836   0.263   3.086   3.060
 2958TIP3   OH2 8837   0.528   3.409   3.769
 2958TIP3    H1 8838   0.557   3.459   3.847
 2958TIP3    H2 8839   0.582   3.328   3.774
 2959TIP3   OH2 8840   0.401   2.814   3.059
 2959TIP3    H1 8841   0.387   2.891   3.118
 2959TIP3    H2 8842   0.466   2.851   2.995
 2960TIP3   OH2 8843  -0.145   4.120   2.621
 2960TIP3    H1 8844  -0.200   4.152   2.548
 2960TIP3    H2 8845  -0.181   4.172   2.694
 2961TIP3   OH2 8846  -0.086   2.826   2.859
 2961TIP3    H1 8847  -0.085   2.920   2.888
 2961TIP3    H2 8848   0.010   2.808   2.865
 2962TIP3   OH2 8849   1.166   3.316   3.754
 2962TIP3    H1 8850   1.068   3.312   3.758
 2962TIP3    H2 8851   1.181   3.276   3.667
 2963TIP3   OH2 8852   0.814   3.518   3.189
 2963TIP3    H1 8853   0.760   3.472   3.124
 2963TIP3    H2 8854   0.894   3.462   3.193
 2964TIP3   OH2 8855   0.788   4.477   3.083
 2964TIP3    H1 8856   0.746   4.521   3.006
 2964TIP3    H2 8857   0.883   4.492   3.062
 2965TIP3   OH2 8858  -0.140   2.731   3.617
 2965TIP3    H1 8859  -0.168   2.694   3.531
 2965TIP3    H2 8860  -0.149   2.654   3.676
 2966TIP3   OH2 8861   0.150   4.492   4.108
 2966TIP3    H1 8862   0.179   4.403   4.079
 2966TIP3    H2 8863   0.079   4.513   4.046
 2967TIP3   OH2 8864   0.674   4.369   3.851
 2967TIP3    H1 8865   0.673   4.296   3.917
 2967TIP3    H2 8866   0.755   4.418   3.876
 2968TIP3   OH2 8867   0.449   4.072   2.147
 2968TIP3    H1 8868   0.499   4.016   2.209
 2968TIP3    H2 8869   0.504   4.068   2.066
 2969TIP3   OH2 8870  -0.320   3.559   2.436
 2969TIP3    H1 8871  -0.296   3.557   2.532
 2969TIP3    H2 8872  -0.234   3.541   2.395
 2970TIP3   OH2 8873   0.312   3.984   4.016
 2970TIP3    H1 8874   0.277   3.992   3.925
 2970TIP3    H2 8875   0.344   3.891   4.016
 2971TIP3   OH2 8876   0.793   4.004   3.654
 2971TIP3    H1 8877   0.870   4.040   3.606
 2971TIP3    H2 8878   0.725   4.071   3.629
 2972TIP3   OH2 8879   0.194   3.545   3.929
 2972TIP3    H1 8880   0.098   3.547   3.912
 2972TIP3    H2 8881   0.231   3.568   3.841
 2973TIP3   OH2 8882  -0.010   3.220   2.521
 2973TIP3    H1 8883  -0.037   3.254   2.434
 2973TIP3    H2 8884   0.085   3.245   2.521
 2974TIP3   OH2 8885   0.670   3.923   4.044
 2974TIP3    H1 8886   0.737   3.883   3.986
 2974TIP3    H2 8887   0.659   3.854   4.112
 2975TIP3   OH2 8888   0.792   3.575   2.190
 2975TIP3    H1 8889   0.774   3.536   2.103
 2975TIP3    H2 8890   0.761   3.667   2.173
 2976TIP3   OH2 8891   0.272   3.307   4.041
 2976TIP3    H1 8892   0.270   3.231   3.979
 2976TIP3    H2 8893   0.239   3.380   3.984
 2977TIP3   OH2 8894   0.288   3.099   3.849
 2977TIP3    H1 8895   0.315   3.145   3.767
 2977TIP3    H2 8896   0.200   3.065   3.823
 2978TIP3   OH2 8897   0.298   3.628   3.696
 2978TIP3    H1 8898   0.386   3.647   3.660
 2978TIP3    H2 8899   0.244   3.700   3.658
 2979TIP3   OH2 8900   0.878   3.595   4.093
 2979TIP3    H1 8901   0.924   3.511   4.109
 2979TIP3    H2 8902   0.948   3.648   4.051
 2980TIP3   OH2 8903   0.919   3.855   3.840
 2980TIP3    H1 8904   0.863   3.909   3.779
 2980TIP3    H2 8905   1.007   3.872   3.800
 2981TIP3   OH2 8906   0.153   3.411   4.277
 2981TIP3    H1 8907   0.078   3.349   4.287
 2981TIP3    H2 8908   0.181   3.393   4.185
 2982TIP3   OH2 8909   0.406   2.855   3.915
 2982TIP3    H1 8910   0.360   2.938   3.893
 2982TIP3    H2 8911   0.336   2.788   3.901
 2983TIP3   OH2 8912   0.530   3.358   4.128
 2983TIP3    H1 8913   0.514   3.340   4.222
 2983TIP3    H2 8914   0.442   3.334   4.092
 2984TIP3   OH2 8915   0.769   3.315   3.984
 2984TIP3    H1 8916   0.695   3.314   4.048
 2984TIP3    H2 8917   0.845   3.284   4.038
 2985TIP3   OH2 8918   0.995   3.251   4.131
 2985TIP3    H1 8919   1.011   3.156   4.147
 2985TIP3    H2 8920   0.994   3.288   4.222
 2986TIP3   OH2 8921  -0.033   3.211   4.348
 2986TIP3    H1 8922  -0.044   3.131   4.295
 2986TIP3    H2 8923   0.024   3.178   4.420
 2987TIP3   OH2 8924   0.493   2.864   4.175
 2987TIP3    H1 8925   0.562   2.795   4.167
 2987TIP3    H2 8926   0.456   2.862   4.084
 2988TIP3   OH2 8927   0.567   3.080   4.329
 2988TIP3    H1 8928   0.545   3.009   4.265
 2988TIP3    H2 8929   0.488   3.139   4.322
 2989TIP3   OH2 8930  -0.208   4.334   2.447
 2989TIP3    H1 8931  -0.116   4.311   2.420
 2989TIP3    H2 8932  -0.227   4.402   2.379
 2990TIP3   OH2 8933   1.046   4.558   3.047
 2990TIP3    H1 8934   1.074   4.587   3.135
 2990TIP3    H2 8935   1.117   4.592   2.990
 2991TIP3   OH2 8936   1.074   4.578   3.329
 2991TIP3    H1 8937   1.026   4.493   3.326
 2991TIP3    H2 8938   1.151   4.551   3.382
 2992TIP3   OH2 8939   1.122   4.252   3.904
 2992TIP3    H1 8940   1.049   4.263   3.969
 2992TIP3    H2 8941   1.163   4.341   3.906
 2993TIP3   OH2 8942   0.931   3.764   2.499
 2993TIP3    H1 8943   1.011   3.821   2.494
 2993TIP3    H2 8944   0.916   3.757   2.596
 2994TIP3   OH2 8945   1.074   3.613   2.737
 2994TIP3    H1 8946   0.982   3.641   2.760
 2994TIP3    H2 8947   1.126   3.669   2.797
 2995TIP3   OH2 8948   1.127   4.031   3.159
 2995TIP3    H1 8949   1.171   3.957   3.113
 2995TIP3    H2 8950   1.112   4.095   3.087
 2996TIP3   OH2 8951   0.955   4.333   3.360
 2996TIP3    H1 8952   0.880   4.371   3.409
 2996TIP3    H2 8953   0.907   4.286   3.287
 2997TIP3   OH2 8954   1.002   3.537   2.364
 2997TIP3    H1 8955   0.927   3.542   2.301
 2997TIP3    H2 8956   0.978   3.613   2.422
 2998TIP3   OH2 8957   0.875   3.209   2.317
 2998TIP3    H1 8958   0.823   3.250   2.247
 2998TIP3    H2 8959   0.851   3.115   2.305
 2999TIP3   OH2 8960   1.167   3.915   3.730
 2999TIP3    H1 8961   1.237   3.847   3.717
 2999TIP3    H2 8962   1.183   3.976   3.657
 3000TIP3   OH2 8963   1.350   3.715   3.737
 3000TIP3    H1 8964   1.274   3.666   3.775
 3000TIP3    H2 8965   1.422   3.650   3.755
 3001TIP3   OH2 8966   0.819   2.940   2.294
 3001TIP3    H1 8967   0.887   2.916   2.360
 3001TIP3    H2 8968   0.740   2.891   2.323
 3002TIP3   OH2 8969   0.858   3.190   2.751
 3002TIP3    H1 8970   0.911   3.107   2.759
 3002TIP3    H2 8971   0.924   3.251   2.714
 3003TIP3   OH2 8972   1.040   3.362   3.257
 3003TIP3    H1 8973   1.125   3.390   3.216
 3003TIP3    H2 8974   1.049   3.406   3.343
 3004TIP3   OH2 8975   1.107   3.523   3.485
 3004TIP3    H1 8976   1.027   3.557   3.531
 3004TIP3    H2 8977   1.138   3.604   3.440
 3005TIP3   OH2 8978   1.549   3.116   4.042
 3005TIP3    H1 8979   1.615   3.054   4.003
 3005TIP3    H2 8980   1.522   3.169   3.964
 3006TIP3   OH2 8981   0.991   2.951   2.795
 3006TIP3    H1 8982   1.034   2.940   2.882
 3006TIP3    H2 8983   0.925   2.880   2.798
 3007TIP3   OH2 8984  -0.318   2.947   3.579
 3007TIP3    H1 8985  -0.267   2.874   3.617
 3007TIP3    H2 8986  -0.251   3.018   3.582
 3008TIP3   OH2 8987   1.422   3.253   3.843
 3008TIP3    H1 8988   1.336   3.296   3.860
 3008TIP3    H2 8989   1.391   3.177   3.790
 3009TIP3   OH2 8990   1.058   2.888   2.438
 3009TIP3    H1 8991   1.105   2.822   2.383
 3009TIP3    H2 8992   1.121   2.962   2.440
 3010TIP3   OH2 8993   0.623   4.421   2.695
 3010TIP3    H1 8994   0.678   4.415   2.615
 3010TIP3    H2 8995   0.673   4.485   2.749
 3011TIP3   OH2 8996   0.378   4.483   3.771
 3011TIP3    H1 8997   0.423   4.492   3.858
 3011TIP3    H2 8998   0.432   4.543   3.715
 3012TIP3   OH2 8999   0.527   4.663   3.625
 3012TIP3    H1 9000   0.596   4.614   3.578
 3012TIP3    H2 9001   0.582   4.719   3.685
 3013TIP3   OH2 9002   1.325   3.016   3.730
 3013TIP3    H1 9003   1.236   3.007   3.692
 3013TIP3    H2 9004   1.358   2.924   3.721
 3014TIP3   OH2 9005   0.266   4.520   3.329
 3014TIP3    H1 9006   0.193   4.529   3.262
 3014TIP3    H2 9007   0.261   4.606   3.374
 3015TIP3   OH2 9008   0.526   4.458   3.374
 3015TIP3    H1 9009   0.432   4.475   3.355
 3015TIP3    H2 9010   0.569   4.526   3.319
 3016TIP3   OH2 9011   0.720   4.653   3.280
 3016TIP3    H1 9012   0.704   4.736   3.231
 3016TIP3    H2 9013   0.746   4.592   3.207
 3017TIP3   OH2 9014  -0.042   4.271   3.282
 3017TIP3    H1 9015  -0.031   4.176   3.265
 3017TIP3    H2 9016   0.034   4.285   3.342
 3018TIP3   OH2 9017   0.533   2.932   3.355
 3018TIP3    H1 9018   0.489   2.860   3.401
 3018TIP3    H2 9019   0.608   2.887   3.311
 3019TIP3   OH2 9020   1.046   2.805   3.250
 3019TIP3    H1 9021   1.084   2.861   3.178
 3019TIP3    H2 9022   0.953   2.836   3.250
 3020TIP3   OH2 9023   1.148   2.906   3.017
 3020TIP3    H1 9024   1.223   2.857   2.979
 3020TIP3    H2 9025   1.180   2.998   3.004
 3021TIP3   OH2 9026  -0.222   2.631   3.367
 3021TIP3    H1 9027  -0.304   2.589   3.340
 3021TIP3    H2 9028  -0.162   2.554   3.368
 3022TIP3   OH2 9029  -0.389   2.523   3.034
 3022TIP3    H1 9030  -0.370   2.575   2.954
 3022TIP3    H2 9031  -0.486   2.517   3.033
 3023TIP3   OH2 9032   0.224   2.669   3.250
 3023TIP3    H1 9033   0.275   2.718   3.183
 3023TIP3    H2 9034   0.252   2.713   3.332
 3024TIP3   OH2 9035   0.761   2.820   3.232
 3024TIP3    H1 9036   0.764   2.783   3.143
 3024TIP3    H2 9037   0.751   2.739   3.287
 3025TIP3   OH2 9038   0.799   2.745   2.793
 3025TIP3    H1 9039   0.716   2.794   2.813
 3025TIP3    H2 9040   0.781   2.660   2.838
 3026TIP3   OH2 9041  -0.320   2.679   2.782
 3026TIP3    H1 9042  -0.261   2.626   2.724
 3026TIP3    H2 9043  -0.253   2.739   2.822
 3027TIP3   OH2 9044   0.192   2.844   2.877
 3027TIP3    H1 9045   0.257   2.803   2.937
 3027TIP3    H2 9046   0.208   2.938   2.900
 3028TIP3   OH2 9047   0.044   4.293   2.354
 3028TIP3    H1 9048   0.137   4.312   2.330
 3028TIP3    H2 9049   0.040   4.199   2.333
 3029TIP3   OH2 9050   0.779   4.390   2.467
 3029TIP3    H1 9051   0.764   4.292   2.457
 3029TIP3    H2 9052   0.732   4.422   2.386
 3030TIP3   OH2 9053  -0.018   2.925   4.263
 3030TIP3    H1 9054  -0.047   2.846   4.313
 3030TIP3    H2 9055   0.076   2.928   4.290
 3031TIP3   OH2 9056   0.236   2.921   4.382
 3031TIP3    H1 9057   0.320   2.904   4.336
 3031TIP3    H2 9058   0.232   2.844   4.442
 3032TIP3   OH2 9059   1.064   2.981   4.164
 3032TIP3    H1 9060   1.080   2.951   4.256
 3032TIP3    H2 9061   1.154   2.977   4.126
 3033TIP3   OH2 9062   0.994   4.532   3.658
 3033TIP3    H1 9063   0.918   4.502   3.604
 3033TIP3    H2 9064   0.976   4.628   3.662
 3034TIP3   OH2 9065   2.265   3.906   2.416
 3034TIP3    H1 9066   2.234   3.996   2.394
 3034TIP3    H2 9067   2.187   3.855   2.388
 3035TIP3   OH2 9068   2.267   3.906   2.808
 3035TIP3    H1 9069   2.303   3.883   2.896
 3035TIP3    H2 9070   2.225   3.823   2.781
 3036TIP3   OH2 9071   1.563   3.798   3.168
 3036TIP3    H1 9072   1.591   3.727   3.229
 3036TIP3    H2 9073   1.645   3.847   3.157
 3037TIP3   OH2 9074   2.514   4.206   2.486
 3037TIP3    H1 9075   2.492   4.142   2.554
 3037TIP3    H2 9076   2.542   4.283   2.538
 3038TIP3   OH2 9077   1.538   4.214   2.891
 3038TIP3    H1 9078   1.531   4.115   2.891
 3038TIP3    H2 9079   1.635   4.223   2.880
 3039TIP3   OH2 9080   1.245   3.404   2.674
 3039TIP3    H1 9081   1.193   3.482   2.706
 3039TIP3    H2 9082   1.175   3.358   2.625
 3040TIP3   OH2 9083   1.311   3.708   2.858
 3040TIP3    H1 9084   1.354   3.625   2.887
 3040TIP3    H2 9085   1.361   3.732   2.779
 3041TIP3   OH2 9086   2.167   4.677   2.504
 3041TIP3    H1 9087   2.204   4.605   2.449
 3041TIP3    H2 9088   2.142   4.630   2.584
 3042TIP3   OH2 9089   2.062   4.133   2.851
 3042TIP3    H1 9090   2.103   4.056   2.808
 3042TIP3    H2 9091   2.144   4.180   2.877
 3043TIP3   OH2 9092   3.078   3.453   2.852
 3043TIP3    H1 9093   3.108   3.534   2.899
 3043TIP3    H2 9094   3.096   3.476   2.760
 3044TIP3   OH2 9095   2.475   3.633   2.878
 3044TIP3    H1 9096   2.517   3.548   2.902
 3044TIP3    H2 9097   2.443   3.613   2.788
 3045TIP3   OH2 9098   1.818   3.291   2.845
 3045TIP3    H1 9099   1.799   3.365   2.783
 3045TIP3    H2 9100   1.767   3.219   2.802
 3046TIP3   OH2 9101   2.513   3.382   2.466
 3046TIP3    H1 9102   2.582   3.368   2.535
 3046TIP3    H2 9103   2.568   3.419   2.394
 3047TIP3   OH2 9104   1.447   3.491   2.954
 3047TIP3    H1 9105   1.530   3.474   3.003
 3047TIP3    H2 9106   1.463   3.437   2.874
 3048TIP3   OH2 9107   1.887   3.690   2.752
 3048TIP3    H1 9108   1.981   3.667   2.763
 3048TIP3    H2 9109   1.849   3.606   2.718
 3049TIP3   OH2 9110   3.156   3.666   3.013
 3049TIP3    H1 9111   3.068   3.705   3.000
 3049TIP3    H2 9112   3.161   3.668   3.110
 3050TIP3   OH2 9113   1.810   3.275   3.282
 3050TIP3    H1 9114   1.751   3.313   3.214
 3050TIP3    H2 9115   1.758   3.292   3.362
 3051TIP3   OH2 9116   2.140   4.119   2.292
 3051TIP3    H1 9117   2.121   4.117   2.197
 3051TIP3    H2 9118   2.101   4.204   2.318
 3052TIP3   OH2 9119   1.917   4.052   3.071
 3052TIP3    H1 9120   1.859   4.122   3.107
 3052TIP3    H2 9121   1.960   4.098   2.996
 3053TIP3   OH2 9122   2.713   3.389   2.650
 3053TIP3    H1 9123   2.687   3.356   2.737
 3053TIP3    H2 9124   2.765   3.469   2.674
 3054TIP3   OH2 9125   1.683   3.390   3.064
 3054TIP3    H1 9126   1.745   3.462   3.089
 3054TIP3    H2 9127   1.734   3.351   2.989
 3055TIP3   OH2 9128   1.748   4.250   3.175
 3055TIP3    H1 9129   1.722   4.337   3.137
 3055TIP3    H2 9130   1.668   4.231   3.228
 3056TIP3   OH2 9131   1.145   3.940   2.411
 3056TIP3    H1 9132   1.098   3.964   2.329
 3056TIP3    H2 9133   1.175   4.027   2.443
 3057TIP3   OH2 9134   2.578   4.455   2.648
 3057TIP3    H1 9135   2.489   4.444   2.689
 3057TIP3    H2 9136   2.568   4.541   2.603
 3058TIP3   OH2 9137   2.864   3.340   3.006
 3058TIP3    H1 9138   2.782   3.383   2.977
 3058TIP3    H2 9139   2.932   3.381   2.949
 3059TIP3   OH2 9140   2.160   2.991   2.996
 3059TIP3    H1 9141   2.145   2.897   3.017
 3059TIP3    H2 9142   2.085   3.032   3.045
 3060TIP3   OH2 9143   2.275   4.496   2.321
 3060TIP3    H1 9144   2.323   4.411   2.302
 3060TIP3    H2 9145   2.341   4.559   2.283
 3061TIP3   OH2 9146   2.416   4.280   2.236
 3061TIP3    H1 9147   2.422   4.203   2.175
 3061TIP3    H2 9148   2.454   4.242   2.318
 3062TIP3   OH2 9149   2.803   4.361   2.994
 3062TIP3    H1 9150   2.790   4.284   2.935
 3062TIP3    H2 9151   2.785   4.436   2.933
 3063TIP3   OH2 9152   2.095   3.755   2.250
 3063TIP3    H1 9153   2.013   3.809   2.241
 3063TIP3    H2 9154   2.137   3.771   2.164
 3064TIP3   OH2 9155   2.055   3.543   1.964
 3064TIP3    H1 9156   2.117   3.594   2.018
 3064TIP3    H2 9157   2.117   3.485   1.915
 3065TIP3   OH2 9158   2.999   4.005   2.841
 3065TIP3    H1 9159   2.914   4.054   2.844
 3065TIP3    H2 9160   3.029   4.029   2.750
 3066TIP3   OH2 9161   2.444   3.830   2.224
 3066TIP3    H1 9162   2.388   3.858   2.301
 3066TIP3    H2 9163   2.529   3.812   2.269
 3067TIP3   OH2 9164   2.678   3.875   3.144
 3067TIP3    H1 9165   2.674   3.958   3.196
 3067TIP3    H2 9166   2.592   3.881   3.097
 3068TIP3   OH2 9167   1.674   3.833   2.643
 3068TIP3    H1 9168   1.636   3.776   2.573
 3068TIP3    H2 9169   1.751   3.781   2.673
 3069TIP3   OH2 9170   1.805   4.246   2.788
 3069TIP3    H1 9171   1.786   4.216   2.698
 3069TIP3    H2 9172   1.894   4.208   2.804
 3070TIP3   OH2 9173   1.812   3.807   2.998
 3070TIP3    H1 9174   1.843   3.782   2.908
 3070TIP3    H2 9175   1.855   3.894   3.012
 3071TIP3   OH2 9176   2.340   4.446   2.774
 3071TIP3    H1 9177   2.326   4.526   2.827
 3071TIP3    H2 9178   2.321   4.374   2.836
 3072TIP3   OH2 9179   1.952   4.366   3.321
 3072TIP3    H1 9180   1.888   4.426   3.364
 3072TIP3    H2 9181   1.890   4.311   3.267
 3073TIP3   OH2 9182   2.290   3.708   2.036
 3073TIP3    H1 9183   2.345   3.757   2.102
 3073TIP3    H2 9184   2.299   3.766   1.959
 3074TIP3   OH2 9185   1.707   3.917   3.428
 3074TIP3    H1 9186   1.709   4.008   3.464
 3074TIP3    H2 9187   1.612   3.896   3.437
 3075TIP3   OH2 9188   2.029   4.376   2.329
 3075TIP3    H1 9189   2.114   4.424   2.332
 3075TIP3    H2 9190   1.971   4.437   2.283
 3076TIP3   OH2 9191   1.744   4.530   3.406
 3076TIP3    H1 9192   1.711   4.536   3.314
 3076TIP3    H2 9193   1.662   4.508   3.456
 3077TIP3   OH2 9194   2.797   2.935   2.099
 3077TIP3    H1 9195   2.717   2.959   2.149
 3077TIP3    H2 9196   2.814   3.019   2.050
 3078TIP3   OH2 9197   1.544   3.679   2.439
 3078TIP3    H1 9198   1.475   3.724   2.387
 3078TIP3    H2 9199   1.501   3.595   2.460
 3079TIP3   OH2 9200   2.599   4.308   1.652
 3079TIP3    H1 9201   2.613   4.402   1.632
 3079TIP3    H2 9202   2.687   4.270   1.634
 3080TIP3   OH2 9203   1.323   4.066   3.353
 3080TIP3    H1 9204   1.253   4.050   3.286
 3080TIP3    H2 9205   1.359   3.977   3.369
 3081TIP3   OH2 9206   1.178   4.263   2.974
 3081TIP3    H1 9207   1.273   4.247   2.970
 3081TIP3    H2 9208   1.172   4.336   3.038
 3082TIP3   OH2 9209   3.040   4.711   3.044
 3082TIP3    H1 9210   3.040   4.615   3.059
 3082TIP3    H2 9211   2.957   4.736   3.090
 3083TIP3   OH2 9212   2.148   4.492   3.178
 3083TIP3    H1 9213   2.142   4.585   3.209
 3083TIP3    H2 9214   2.075   4.451   3.230
 3084TIP3   OH2 9215   1.913   4.613   2.119
 3084TIP3    H1 9216   1.869   4.591   2.035
 3084TIP3    H2 9217   1.872   4.696   2.144
 3085TIP3   OH2 9218   1.346   4.478   2.515
 3085TIP3    H1 9219   1.392   4.465   2.601
 3085TIP3    H2 9220   1.299   4.394   2.507
 3086TIP3   OH2 9221   2.112   4.518   1.762
 3086TIP3    H1 9222   2.172   4.446   1.731
 3086TIP3    H2 9223   2.146   4.532   1.853
 3087TIP3   OH2 9224   2.166   4.571   2.031
 3087TIP3    H1 9225   2.077   4.581   2.073
 3087TIP3    H2 9226   2.217   4.535   2.105
 3088TIP3   OH2 9227   2.924   3.840   3.296
 3088TIP3    H1 9228   2.838   3.846   3.252
 3088TIP3    H2 9229   2.948   3.746   3.279
 3089TIP3   OH2 9230   1.526   4.249   3.336
 3089TIP3    H1 9231   1.575   4.230   3.418
 3089TIP3    H2 9232   1.451   4.185   3.342
 3090TIP3   OH2 9233   1.926   3.069   3.129
 3090TIP3    H1 9234   1.838   3.040   3.099
 3090TIP3    H2 9235   1.901   3.150   3.179
 3091TIP3   OH2 9236   2.467   3.181   3.321
 3091TIP3    H1 9237   2.537   3.157   3.386
 3091TIP3    H2 9238   2.385   3.166   3.372
 3092TIP3   OH2 9239   2.688   3.607   3.239
 3092TIP3    H1 9240   2.644   3.606   3.327
 3092TIP3    H2 9241   2.671   3.697   3.208
 3093TIP3   OH2 9242   2.072   3.115   2.099
 3093TIP3    H1 9243   2.038   3.113   2.191
 3093TIP3    H2 9244   2.030   3.034   2.064
 3094TIP3   OH2 9245   1.860   3.585   3.146
 3094TIP3    H1 9246   1.809   3.607   3.227
 3094TIP3    H2 9247   1.845   3.667   3.093
 3095TIP3   OH2 9248   1.744   3.472   2.658
 3095TIP3    H1 9249   1.651   3.447   2.678
 3095TIP3    H2 9250   1.754   3.430   2.569
 3096TIP3   OH2 9251   2.232   3.556   2.387
 3096TIP3    H1 9252   2.182   3.627   2.342
 3096TIP3    H2 9253   2.288   3.523   2.314
 3097TIP3   OH2 9254   2.404   3.831   3.470
 3097TIP3    H1 9255   2.381   3.759   3.533
 3097TIP3    H2 9256   2.498   3.845   3.493
 3098TIP3   OH2 9257   2.387   3.582   2.623
 3098TIP3    H1 9258   2.324   3.611   2.555
 3098TIP3    H2 9259   2.423   3.503   2.578
 3099TIP3   OH2 9260   1.679   3.613   3.353
 3099TIP3    H1 9261   1.714   3.675   3.418
 3099TIP3    H2 9262   1.668   3.531   3.405
 3100TIP3   OH2 9263   1.725   3.090   2.063
 3100TIP3    H1 9264   1.716   3.092   2.160
 3100TIP3    H2 9265   1.652   3.149   2.037
 3101TIP3   OH2 9266   1.276   3.126   2.935
 3101TIP3    H1 9267   1.344   3.166   2.993
 3101TIP3    H2 9268   1.323   3.113   2.852
 3102TIP3   OH2 9269   1.234   3.113   2.450
 3102TIP3    H1 9270   1.280   3.152   2.373
 3102TIP3    H2 9271   1.173   3.188   2.471
 3103TIP3   OH2 9272   2.397   3.828   3.045
 3103TIP3    H1 9273   2.432   3.758   2.986
 3103TIP3    H2 9274   2.368   3.773   3.121
 3104TIP3   OH2 9275   2.074   3.289   2.716
 3104TIP3    H1 9276   1.994   3.291   2.772
 3104TIP3    H2 9277   2.145   3.285   2.783
 3105TIP3   OH2 9278   1.507   3.352   2.724
 3105TIP3    H1 9279   1.412   3.361   2.697
 3105TIP3    H2 9280   1.528   3.260   2.701
 3106TIP3   OH2 9281   1.768   3.341   2.419
 3106TIP3    H1 9282   1.861   3.360   2.397
 3106TIP3    H2 9283   1.721   3.364   2.335
 3107TIP3   OH2 9284   2.558   3.371   2.916
 3107TIP3    H1 9285   2.534   3.383   3.011
 3107TIP3    H2 9286   2.488   3.311   2.888
 3108TIP3   OH2 9287   1.624   3.375   2.192
 3108TIP3    H1 9288   1.550   3.335   2.142
 3108TIP3    H2 9289   1.675   3.417   2.119
 3109TIP3   OH2 9290   2.737   5.059   3.143
 3109TIP3    H1 9291   2.734   5.082   3.048
 3109TIP3    H2 9292   2.818   5.105   3.172
 3110TIP3   OH2 9293   1.688   4.169   3.560
 3110TIP3    H1 9294   1.768   4.197   3.607
 3110TIP3    H2 9295   1.623   4.167   3.633
 3111TIP3   OH2 9296   2.150   3.623   2.817
 3111TIP3    H1 9297   2.228   3.586   2.772
 3111TIP3    H2 9298   2.154   3.579   2.904
 3112TIP3   OH2 9299   1.669   3.109   2.701
 3112TIP3    H1 9300   1.632   3.033   2.751
 3112TIP3    H2 9301   1.717   3.064   2.630
 3113TIP3   OH2 9302   2.129   3.526   3.102
 3113TIP3    H1 9303   2.039   3.559   3.120
 3113TIP3    H2 9304   2.186   3.585   3.155
 3114TIP3   OH2 9305   1.862   3.902   2.206
 3114TIP3    H1 9306   1.788   3.841   2.192
 3114TIP3    H2 9307   1.840   3.940   2.295
 3115TIP3   OH2 9308   2.763   4.146   2.826
 3115TIP3    H1 9309   2.785   4.198   2.747
 3115TIP3    H2 9310   2.679   4.102   2.799
 3116TIP3   OH2 9311   2.322   3.221   2.062
 3116TIP3    H1 9312   2.226   3.200   2.074
 3116TIP3    H2 9313   2.329   3.314   2.091
 3117TIP3   OH2 9314   2.261   4.227   3.199
 3117TIP3    H1 9315   2.300   4.211   3.285
 3117TIP3    H2 9316   2.227   4.318   3.206
 3118TIP3   OH2 9317   2.389   3.472   2.167
 3118TIP3    H1 9318   2.485   3.478   2.187
 3118TIP3    H2 9319   2.374   3.553   2.114
 3119TIP3   OH2 9320   1.564   3.941   2.875
 3119TIP3    H1 9321   1.598   3.906   2.790
 3119TIP3    H2 9322   1.599   3.876   2.938
 3120TIP3   OH2 9323   2.010   4.055   2.034
 3120TIP3    H1 9324   1.961   4.141   2.032
 3120TIP3    H2 9325   1.955   4.003   2.096
 3121TIP3   OH2 9326   1.441   3.850   3.491
 3121TIP3    H1 9327   1.451   3.830   3.586
 3121TIP3    H2 9328   1.370   3.788   3.466
 3122TIP3   OH2 9329   2.168   3.970   3.507
 3122TIP3    H1 9330   2.107   3.908   3.465
 3122TIP3    H2 9331   2.255   3.932   3.480
 3123TIP3   OH2 9332   2.423   4.489   3.098
 3123TIP3    H1 9333   2.327   4.487   3.110
 3123TIP3    H2 9334   2.450   4.543   3.176
 3124TIP3   OH2 9335   2.830   3.565   2.003
 3124TIP3    H1 9336   2.769   3.521   1.939
 3124TIP3    H2 9337   2.826   3.655   1.964
 3125TIP3   OH2 9338   3.054   4.422   3.082
 3125TIP3    H1 9339   2.957   4.413   3.075
 3125TIP3    H2 9340   3.080   4.390   2.992
 3126TIP3   OH2 9341   2.540   4.377   1.915
 3126TIP3    H1 9342   2.501   4.307   1.969
 3126TIP3    H2 9343   2.549   4.335   1.828
 3127TIP3   OH2 9344   2.530   4.010   2.743
 3127TIP3    H1 9345   2.436   3.986   2.757
 3127TIP3    H2 9346   2.563   3.929   2.699
 3128TIP3   OH2 9347   1.663   4.240   2.506
 3128TIP3    H1 9348   1.659   4.319   2.448
 3128TIP3    H2 9349   1.569   4.217   2.514
 3129TIP3   OH2 9350   1.227   3.538   2.208
 3129TIP3    H1 9351   1.269   3.624   2.230
 3129TIP3    H2 9352   1.150   3.541   2.269
 3130TIP3   OH2 9353   1.786   3.998   2.445
 3130TIP3    H1 9354   1.758   4.089   2.465
 3130TIP3    H2 9355   1.752   3.949   2.522
 3131TIP3   OH2 9356   1.930   4.579   2.968
 3131TIP3    H1 9357   1.972   4.652   2.917
 3131TIP3    H2 9358   2.007   4.541   3.012
 3132TIP3   OH2 9359   1.579   4.479   2.353
 3132TIP3    H1 9360   1.495   4.491   2.400
 3132TIP3    H2 9361   1.613   4.571   2.352
 3133TIP3   OH2 9362   2.312   4.214   2.931
 3133TIP3    H1 9363   2.301   4.211   3.029
 3133TIP3    H2 9364   2.392   4.160   2.920
 3134TIP3   OH2 9365   2.564   4.745   2.979
 3134TIP3    H1 9366   2.483   4.691   2.973
 3134TIP3    H2 9367   2.549   4.809   2.907
 3135TIP3   OH2 9368   2.633   4.584   1.628
 3135TIP3    H1 9369   2.670   4.664   1.586
 3135TIP3    H2 9370   2.551   4.621   1.665
 3136TIP3   OH2 9371   1.648   3.357   3.495
 3136TIP3    H1 9372   1.551   3.357   3.507
 3136TIP3    H2 9373   1.678   3.304   3.571
 3137TIP3   OH2 9374   2.470   4.064   2.068
 3137TIP3    H1 9375   2.451   3.984   2.120
 3137TIP3    H2 9376   2.558   4.043   2.032
 3138TIP3   OH2 9377   1.366   4.440   3.128
 3138TIP3    H1 9378   1.420   4.367   3.161
 3138TIP3    H2 9379   1.398   4.513   3.181
 3139TIP3   OH2 9380   1.643   4.098   1.815
 3139TIP3    H1 9381   1.695   4.020   1.791
 3139TIP3    H2 9382   1.626   4.081   1.910
 3140TIP3   OH2 9383   1.598   4.094   2.090
 3140TIP3    H1 9384   1.679   4.069   2.137
 3140TIP3    H2 9385   1.602   4.192   2.094
 3141TIP3   OH2 9386   1.334   3.783   2.289
 3141TIP3    H1 9387   1.269   3.829   2.346
 3141TIP3    H2 9388   1.347   3.851   2.220
 3142TIP3   OH2 9389   2.492   3.416   3.177
 3142TIP3    H1 9390   2.570   3.462   3.214
 3142TIP3    H2 9391   2.483   3.338   3.236
 3143TIP3   OH2 9392   2.375   3.166   2.351
 3143TIP3    H1 9393   2.360   3.192   2.259
 3143TIP3    H2 9394   2.414   3.249   2.389
 3144TIP3   OH2 9395   1.866   4.284   2.033
 3144TIP3    H1 9396   1.779   4.313   2.069
 3144TIP3    H2 9397   1.884   4.357   1.972
 3145TIP3   OH2 9398   2.051   3.354   2.449
 3145TIP3    H1 9399   2.114   3.428   2.433
 3145TIP3    H2 9400   2.059   3.344   2.546
 3146TIP3   OH2 9401   2.328   3.668   3.254
 3146TIP3    H1 9402   2.352   3.721   3.333
 3146TIP3    H2 9403   2.380   3.586   3.267
 3147TIP3   OH2 9404   2.197   3.070   2.547
 3147TIP3    H1 9405   2.192   3.146   2.608
 3147TIP3    H2 9406   2.261   3.105   2.480
 3148TIP3   OH2 9407   1.614   4.366   2.103
 3148TIP3    H1 9408   1.581   4.436   2.042
 3148TIP3    H2 9409   1.598   4.408   2.191
 3149TIP3   OH2 9410   1.713   3.080   2.339
 3149TIP3    H1 9411   1.708   3.170   2.377
 3149TIP3    H2 9412   1.809   3.064   2.347
 3150TIP3   OH2 9413   2.963   3.581   3.220
 3150TIP3    H1 9414   2.866   3.570   3.226
 3150TIP3    H2 9415   2.991   3.494   3.188
 3151TIP3   OH2 9416   2.616   3.765   2.625
 3151TIP3    H1 9417   2.539   3.707   2.639
 3151TIP3    H2 9418   2.687   3.718   2.673
 3152TIP3   OH2 9419   1.331   3.990   2.094
 3152TIP3    H1 9420   1.406   4.052   2.104
 3152TIP3    H2 9421   1.371   3.931   2.026
 3153TIP3   OH2 9422   1.270   3.268   2.225
 3153TIP3    H1 9423   1.279   3.365   2.226
 3153TIP3    H2 9424   1.181   3.258   2.190
 3154TIP3   OH2 9425   2.588   4.726   2.574
 3154TIP3    H1 9426   2.545   4.771   2.498
 3154TIP3    H2 9427   2.682   4.742   2.552
 3155TIP3   OH2 9428   1.662   2.989   3.097
 3155TIP3    H1 9429   1.632   2.955   3.010
 3155TIP3    H2 9430   1.651   2.912   3.155
 3156TIP3   OH2 9431   1.197   4.215   2.472
 3156TIP3    H1 9432   1.134   4.243   2.540
 3156TIP3    H2 9433   1.157   4.256   2.390
 3157TIP3   OH2 9434   1.360   4.757   3.553
 3157TIP3    H1 9435   1.447   4.757   3.599
 3157TIP3    H2 9436   1.340   4.662   3.550
 3158TIP3   OH2 9437   1.834   4.706   3.600
 3158TIP3    H1 9438   1.930   4.692   3.601
 3158TIP3    H2 9439   1.808   4.646   3.527
 3159TIP3   OH2 9440   1.824   4.285   1.718
 3159TIP3    H1 9441   1.768   4.216   1.760
 3159TIP3    H2 9442   1.899   4.231   1.688
 3160TIP3   OH2 9443   2.472   4.624   3.335
 3160TIP3    H1 9444   2.468   4.553   3.403
 3160TIP3    H2 9445   2.552   4.673   3.362
 3161TIP3   OH2 9446   2.267   4.316   1.634
 3161TIP3    H1 9447   2.314   4.245   1.680
 3161TIP3    H2 9448   2.322   4.324   1.553
 3162TIP3   OH2 9449   1.488   4.154   3.756
 3162TIP3    H1 9450   1.502   4.058   3.753
 3162TIP3    H2 9451   1.402   4.162   3.707
 3163TIP3   OH2 9452   1.464   3.803   1.952
 3163TIP3    H1 9453   1.525   3.778   2.024
 3163TIP3    H2 9454   1.529   3.810   1.878
 3164TIP3   OH2 9455   2.089   4.244   3.529
 3164TIP3    H1 9456   2.053   4.268   3.441
 3164TIP3    H2 9457   2.123   4.153   3.514
 3165TIP3   OH2 9458   1.924   4.001   1.769
 3165TIP3    H1 9459   1.973   4.015   1.852
 3165TIP3    H2 9460   1.950   3.909   1.748
 3166TIP3   OH2 9461   2.587   4.259   3.135
 3166TIP3    H1 9462   2.664   4.298   3.091
 3166TIP3    H2 9463   2.519   4.327   3.116
 3167TIP3   OH2 9464   1.611   3.899   3.740
 3167TIP3    H1 9465   1.684   3.849   3.700
 3167TIP3    H2 9466   1.647   3.921   3.828
 3168TIP3   OH2 9467   1.664   3.712   2.166
 3168TIP3    H1 9468   1.639   3.674   2.251
 3168TIP3    H2 9469   1.706   3.637   2.119
 3169TIP3   OH2 9470   1.941   3.775   3.395
 3169TIP3    H1 9471   1.864   3.835   3.394
 3169TIP3    H2 9472   1.995   3.810   3.320
 3170TIP3   OH2 9473   1.777   3.507   2.008
 3170TIP3    H1 9474   1.752   3.522   1.914
 3170TIP3    H2 9475   1.875   3.512   2.000
 3171TIP3   OH2 9476   2.462   4.178   3.530
 3171TIP3    H1 9477   2.536   4.142   3.479
 3171TIP3    H2 9478   2.456   4.114   3.604
 3172TIP3   OH2 9479   2.601   3.850   1.666
 3172TIP3    H1 9480   2.555   3.802   1.595
 3172TIP3    H2 9481   2.538   3.923   1.680
 3173TIP3   OH2 9482   2.061   3.566   3.522
 3173TIP3    H1 9483   2.066   3.488   3.464
 3173TIP3    H2 9484   2.018   3.632   3.464
 3174TIP3   OH2 9485   2.069   3.353   3.330
 3174TIP3    H1 9486   2.098   3.393   3.246
 3174TIP3    H2 9487   1.976   3.331   3.311
 3175TIP3   OH2 9488   2.091   3.885   3.203
 3175TIP3    H1 9489   2.178   3.901   3.165
 3175TIP3    H2 9490   2.035   3.950   3.155
 3176TIP3   OH2 9491   2.662   3.849   3.573
 3176TIP3    H1 9492   2.699   3.759   3.583
 3176TIP3    H2 9493   2.738   3.899   3.541
 3177TIP3   OH2 9494   2.715   4.110   3.322
 3177TIP3    H1 9495   2.660   4.165   3.262
 3177TIP3    H2 9496   2.804   4.127   3.284
 3178TIP3   OH2 9497   1.936   3.675   3.760
 3178TIP3    H1 9498   1.875   3.600   3.772
 3178TIP3    H2 9499   1.981   3.648   3.677
 3179TIP3   OH2 9500   2.202   3.111   3.399
 3179TIP3    H1 9501   2.153   3.193   3.379
 3179TIP3    H2 9502   2.133   3.043   3.391
 3180TIP3   OH2 9503   2.317   3.622   3.618
 3180TIP3    H1 9504   2.315   3.573   3.702
 3180TIP3    H2 9505   2.229   3.597   3.584
 3181TIP3   OH2 9506   2.565   3.567   3.480
 3181TIP3    H1 9507   2.487   3.561   3.538
 3181TIP3    H2 9508   2.636   3.539   3.542
 3182TIP3   OH2 9509   2.770   3.517   3.656
 3182TIP3    H1 9510   2.798   3.426   3.649
 3182TIP3    H2 9511   2.802   3.536   3.746
 3183TIP3   OH2 9512   1.784   3.449   3.816
 3183TIP3    H1 9513   1.791   3.357   3.783
 3183TIP3    H2 9514   1.829   3.440   3.903
 3184TIP3   OH2 9515   2.277   3.110   3.671
 3184TIP3    H1 9516   2.356   3.054   3.673
 3184TIP3    H2 9517   2.254   3.107   3.576
 3185TIP3   OH2 9518   2.353   3.368   3.763
 3185TIP3    H1 9519   2.340   3.273   3.747
 3185TIP3    H2 9520   2.268   3.396   3.802
 3186TIP3   OH2 9521   1.588   4.580   1.920
 3186TIP3    H1 9522   1.681   4.559   1.899
 3186TIP3    H2 9523   1.561   4.623   1.837
 3187TIP3   OH2 9524   1.060   3.954   2.128
 3187TIP3    H1 9525   1.155   3.973   2.114
 3187TIP3    H2 9526   1.053   3.865   2.088
 3188TIP3   OH2 9527   0.980   4.567   2.548
 3188TIP3    H1 9528   0.917   4.505   2.505
 3188TIP3    H2 9529   1.023   4.505   2.612
 3189TIP3   OH2 9530   1.111   4.407   2.733
 3189TIP3    H1 9531   1.101   4.337   2.799
 3189TIP3    H2 9532   1.165   4.470   2.784
 3190TIP3   OH2 9533   2.844   4.809   2.535
 3190TIP3    H1 9534   2.870   4.841   2.624
 3190TIP3    H2 9535   2.909   4.852   2.478
 3191TIP3   OH2 9536   2.868   4.831   2.817
 3191TIP3    H1 9537   2.821   4.745   2.812
 3191TIP3    H2 9538   2.943   4.805   2.873
 3192TIP3   OH2 9539   2.912   4.512   3.385
 3192TIP3    H1 9540   2.843   4.521   3.454
 3192TIP3    H2 9541   2.957   4.598   3.392
 3193TIP3   OH2 9542   2.737   4.013   2.002
 3193TIP3    H1 9543   2.799   4.083   1.973
 3193TIP3    H2 9544   2.782   3.980   2.083
 3194TIP3   OH2 9545   2.863   3.886   2.212
 3194TIP3    H1 9546   2.794   3.847   2.270
 3194TIP3    H2 9547   2.925   3.924   2.277
 3195TIP3   OH2 9548   2.919   4.285   2.643
 3195TIP3    H1 9549   2.969   4.215   2.597
 3195TIP3    H2 9550   2.913   4.355   2.575
 3196TIP3   OH2 9551   2.742   4.583   2.835
 3196TIP3    H1 9552   2.669   4.623   2.886
 3196TIP3    H2 9553   2.694   4.538   2.762
 3197TIP3   OH2 9554   2.795   3.794   1.849
 3197TIP3    H1 9555   2.727   3.803   1.779
 3197TIP3    H2 9556   2.768   3.869   1.906
 3198TIP3   OH2 9557   2.671   3.465   1.805
 3198TIP3    H1 9558   2.622   3.507   1.733
 3198TIP3    H2 9559   2.647   3.371   1.793
 3199TIP3   OH2 9560   2.674   3.749   2.358
 3199TIP3    H1 9561   2.680   3.653   2.351
 3199TIP3    H2 9562   2.657   3.762   2.454
 3200TIP3   OH2 9563   1.297   3.815   3.109
 3200TIP3    H1 9564   1.293   3.784   3.016
 3200TIP3    H2 9565   1.394   3.818   3.123
 3201TIP3   OH2 9566   2.967   4.167   3.215
 3201TIP3    H1 9567   3.036   4.099   3.204
 3201TIP3    H2 9568   2.992   4.233   3.148
 3202TIP3   OH2 9569   3.155   3.963   3.220
 3202TIP3    H1 9570   3.075   3.920   3.259
 3202TIP3    H2 9571   3.222   3.897   3.246
 3203TIP3   OH2 9572   2.615   3.196   1.783
 3203TIP3    H1 9573   2.686   3.172   1.846
 3203TIP3    H2 9574   2.539   3.144   1.814
 3204TIP3   OH2 9575   2.669   3.463   2.247
 3204TIP3    H1 9576   2.711   3.375   2.260
 3204TIP3    H2 9577   2.727   3.498   2.177
 3205TIP3   OH2 9578   2.827   3.630   2.743
 3205TIP3    H1 9579   2.912   3.654   2.701
 3205TIP3    H2 9580   2.842   3.669   2.832
 3206TIP3   OH2 9581   2.898   3.780   2.966
 3206TIP3    H1 9582   2.825   3.813   3.021
 3206TIP3    H2 9583   2.934   3.863   2.928
 3207TIP3   OH2 9584   1.519   3.505   3.779
 3207TIP3    H1 9585   1.617   3.497   3.784
 3207TIP3    H2 9586   1.494   3.417   3.814
 3208TIP3   OH2 9587   2.779   3.214   2.285
 3208TIP3    H1 9588   2.827   3.199   2.369
 3208TIP3    H2 9589   2.717   3.138   2.286
 3209TIP3   OH2 9590   1.478   3.199   3.106
 3209TIP3    H1 9591   1.540   3.124   3.115
 3209TIP3    H2 9592   1.540   3.274   3.098
 3210TIP3   OH2 9593   1.281   3.469   3.182
 3210TIP3    H1 9594   1.328   3.469   3.096
 3210TIP3    H2 9595   1.300   3.557   3.214
 3211TIP3   OH2 9596   2.854   3.145   1.923
 3211TIP3    H1 9597   2.897   3.076   1.868
 3211TIP3    H2 9598   2.920   3.216   1.924
 3212TIP3   OH2 9599   1.263   2.960   2.671
 3212TIP3    H1 9600   1.174   2.963   2.711
 3212TIP3    H2 9601   1.256   3.027   2.601
 3213TIP3   OH2 9602   2.430   4.674   2.188
 3213TIP3    H1 9603   2.481   4.667   2.104
 3213TIP3    H2 9604   2.476   4.745   2.234
 3214TIP3   OH2 9605   1.485   3.049   3.493
 3214TIP3    H1 9606   1.434   3.051   3.576
 3214TIP3    H2 9607   1.421   3.091   3.432
 3215TIP3   OH2 9608   1.522   4.488   3.569
 3215TIP3    H1 9609   1.430   4.462   3.552
 3215TIP3    H2 9610   1.532   4.467   3.662
 3216TIP3   OH2 9611   1.706   4.523   3.121
 3216TIP3    H1 9612   1.659   4.599   3.081
 3216TIP3    H2 9613   1.792   4.534   3.075
 3217TIP3   OH2 9614   2.142   4.760   3.259
 3217TIP3    H1 9615   2.186   4.760   3.347
 3217TIP3    H2 9616   2.207   4.812   3.206
 3218TIP3   OH2 9617   2.321   4.915   3.121
 3218TIP3    H1 9618   2.389   4.864   3.074
 3218TIP3    H2 9619   2.377   4.970   3.180
 3219TIP3   OH2 9620   3.103   3.264   3.187
 3219TIP3    H1 9621   3.012   3.236   3.168
 3219TIP3    H2 9622   3.149   3.178   3.194
 3220TIP3   OH2 9623   1.377   4.774   3.144
 3220TIP3    H1 9624   1.286   4.805   3.123
 3220TIP3    H2 9625   1.392   4.820   3.227
 3221TIP3   OH2 9626   1.615   4.753   3.004
 3221TIP3    H1 9627   1.527   4.765   3.045
 3221TIP3    H2 9628   1.598   4.782   2.912
 3222TIP3   OH2 9629   2.045   4.774   2.805
 3222TIP3    H1 9630   1.971   4.782   2.741
 3222TIP3    H2 9631   2.051   4.866   2.838
 3223TIP3   OH2 9632   2.313   4.716   2.859
 3223TIP3    H1 9633   2.218   4.732   2.838
 3223TIP3    H2 9634   2.356   4.785   2.806
 3224TIP3   OH2 9635   2.518   4.910   2.765
 3224TIP3    H1 9636   2.501   4.993   2.716
 3224TIP3    H2 9637   2.544   4.848   2.693
 3225TIP3   OH2 9638   1.289   4.566   2.890
 3225TIP3    H1 9639   1.316   4.537   2.979
 3225TIP3    H2 9640   1.359   4.522   2.837
 3226TIP3   OH2 9641   1.481   4.438   2.749
 3226TIP3    H1 9642   1.496   4.354   2.799
 3226TIP3    H2 9643   1.574   4.471   2.745
 3227TIP3   OH2 9644   1.746   4.522   2.759
 3227TIP3    H1 9645   1.778   4.430   2.748
 3227TIP3    H2 9646   1.800   4.548   2.836
 3228TIP3   OH2 9647   2.322   3.186   2.833
 3228TIP3    H1 9648   2.282   3.115   2.887
 3228TIP3    H2 9649   2.401   3.142   2.796
 3229TIP3   OH2 9650   2.844   3.059   2.733
 3229TIP3    H1 9651   2.881   3.116   2.663
 3229TIP3    H2 9652   2.752   3.090   2.738
 3230TIP3   OH2 9653   2.942   3.166   2.501
 3230TIP3    H1 9654   3.018   3.116   2.466
 3230TIP3    H2 9655   2.975   3.258   2.489
 3231TIP3   OH2 9656   1.573   2.895   2.849
 3231TIP3    H1 9657   1.481   2.863   2.855
 3231TIP3    H2 9658   1.621   2.809   2.846
 3232TIP3   OH2 9659   1.355   2.764   2.496
 3232TIP3    H1 9660   1.388   2.824   2.426
 3232TIP3    H2 9661   1.329   2.829   2.565
 3233TIP3   OH2 9662   2.022   2.926   2.735
 3233TIP3    H1 9663   2.074   2.975   2.671
 3233TIP3    H2 9664   2.049   2.966   2.819
 3234TIP3   OH2 9665   2.556   3.077   2.718
 3234TIP3    H1 9666   2.564   3.036   2.631
 3234TIP3    H2 9667   2.547   2.998   2.776
 3235TIP3   OH2 9668   2.594   3.002   2.279
 3235TIP3    H1 9669   2.511   3.049   2.301
 3235TIP3    H2 9670   2.579   2.916   2.324
 3236TIP3   OH2 9671   1.073   4.335   2.264
 3236TIP3    H1 9672   0.986   4.305   2.236
 3236TIP3    H2 9673   1.068   4.430   2.237
 3237TIP3   OH2 9674   1.482   2.922   2.262
 3237TIP3    H1 9675   1.532   2.863   2.204
 3237TIP3    H2 9676   1.553   2.979   2.299
 3238TIP3   OH2 9677   1.990   3.103   2.362
 3238TIP3    H1 9678   2.051   3.060   2.424
 3238TIP3    H2 9679   2.008   3.197   2.386
 3239TIP3   OH2 9680   1.851   4.518   1.858
 3239TIP3    H1 9681   1.939   4.541   1.823
 3239TIP3    H2 9682   1.830   4.443   1.799
 3240TIP3   OH2 9683   2.576   4.645   1.954
 3240TIP3    H1 9684   2.568   4.547   1.947
 3240TIP3    H2 9685   2.524   4.672   1.875
 3241TIP3   OH2 9686   1.782   3.174   3.740
 3241TIP3    H1 9687   1.746   3.105   3.798
 3241TIP3    H2 9688   1.876   3.174   3.769
 3242TIP3   OH2 9689   2.034   3.174   3.857
 3242TIP3    H1 9690   2.119   3.154   3.814
 3242TIP3    H2 9691   2.028   3.102   3.923
 3243TIP3   OH2 9692   1.192   4.413   1.935
 3243TIP3    H1 9693   1.141   4.370   2.005
 3243TIP3    H2 9694   1.266   4.350   1.920
 3244TIP3   OH2 9695   2.791   4.788   3.142
 3244TIP3    H1 9696   2.714   4.758   3.090
 3244TIP3    H2 9697   2.771   4.884   3.149
 3245TIP3   OH2 9698   4.063   4.162   1.903
 3245TIP3    H1 9699   4.032   4.253   1.883
 3245TIP3    H2 9700   3.986   4.111   1.872
 3246TIP3   OH2 9701   4.066   4.160   2.291
 3246TIP3    H1 9702   4.097   4.142   2.381
 3246TIP3    H2 9703   4.017   4.079   2.269
 3247TIP3   OH2 9704   3.358   4.052   2.652
 3247TIP3    H1 9705   3.386   3.981   2.713
 3247TIP3    H2 9706   3.432   4.114   2.662
 3248TIP3   OH2 9707   4.308   4.468   1.974
 3248TIP3    H1 9708   4.289   4.401   2.041
 3248TIP3    H2 9709   4.338   4.543   2.027
 3249TIP3   OH2 9710   3.333   4.468   2.373
 3249TIP3    H1 9711   3.325   4.370   2.375
 3249TIP3    H2 9712   3.430   4.478   2.372
 3250TIP3   OH2 9713   3.041   3.666   2.155
 3250TIP3    H1 9714   2.994   3.748   2.180
 3250TIP3    H2 9715   2.968   3.617   2.113
 3251TIP3   OH2 9716   3.096   3.956   2.342
 3251TIP3    H1 9717   3.146   3.878   2.374
 3251TIP3    H2 9718   3.157   3.995   2.277
 3252TIP3   OH2 9719   3.959   4.928   1.990
 3252TIP3    H1 9720   4.000   4.855   1.940
 3252TIP3    H2 9721   3.944   4.888   2.076
 3253TIP3   OH2 9722   3.858   4.390   2.337
 3253TIP3    H1 9723   3.899   4.315   2.292
 3253TIP3    H2 9724   3.940   4.437   2.365
 3254TIP3   OH2 9725   4.884   3.705   2.338
 3254TIP3    H1 9726   4.910   3.789   2.379
 3254TIP3    H2 9727   4.910   3.718   2.246
 3255TIP3   OH2 9728   4.266   3.873   2.371
 3255TIP3    H1 9729   4.344   3.817   2.365
 3255TIP3    H2 9730   4.233   3.870   2.279
 3256TIP3   OH2 9731   3.618   3.548   2.329
 3256TIP3    H1 9732   3.594   3.621   2.269
 3256TIP3    H2 9733   3.565   3.475   2.289
 3257TIP3   OH2 9734   4.307   3.642   1.953
 3257TIP3    H1 9735   4.375   3.631   2.023
 3257TIP3    H2 9736   4.363   3.674   1.879
 3258TIP3   OH2 9737   3.245   3.751   2.440
 3258TIP3    H1 9738   3.327   3.732   2.490
 3258TIP3    H2 9739   3.261   3.694   2.361
 3259TIP3   OH2 9740   3.683   3.947   2.234
 3259TIP3    H1 9741   3.777   3.923   2.247
 3259TIP3    H2 9742   3.644   3.863   2.203
 3260TIP3   OH2 9743   4.946   3.922   2.515
 3260TIP3    H1 9744   4.866   3.972   2.489
 3260TIP3    H2 9745   4.963   3.955   2.605
 3261TIP3   OH2 9746   3.606   3.532   2.771
 3261TIP3    H1 9747   3.546   3.570   2.704
 3261TIP3    H2 9748   3.553   3.546   2.852
 3262TIP3   OH2 9749   3.951   4.383   1.772
 3262TIP3    H1 9750   3.907   4.370   1.687
 3262TIP3    H2 9751   3.906   4.464   1.804
 3263TIP3   OH2 9752   3.714   4.308   2.560
 3263TIP3    H1 9753   3.654   4.377   2.597
 3263TIP3    H2 9754   3.755   4.357   2.486
 3264TIP3   OH2 9755   4.506   3.653   2.138
 3264TIP3    H1 9756   4.553   3.580   2.179
 3264TIP3    H2 9757   4.561   3.730   2.163
 3265TIP3   OH2 9758   3.481   3.647   2.550
 3265TIP3    H1 9759   3.541   3.719   2.577
 3265TIP3    H2 9760   3.532   3.607   2.476
 3266TIP3   OH2 9761   3.543   4.505   2.660
 3266TIP3    H1 9762   3.518   4.594   2.626
 3266TIP3    H2 9763   3.464   4.487   2.714
 3267TIP3   OH2 9764   2.933   4.194   1.895
 3267TIP3    H1 9765   2.888   4.224   1.813
 3267TIP3    H2 9766   2.965   4.280   1.931
 3268TIP3   OH2 9767   4.373   4.711   2.134
 3268TIP3    H1 9768   4.285   4.701   2.175
 3268TIP3    H2 9769   4.364   4.798   2.090
 3269TIP3   OH2 9770   3.959   3.248   2.489
 3269TIP3    H1 9771   3.940   3.153   2.506
 3269TIP3    H2 9772   3.883   3.289   2.536
 3270TIP3   OH2 9773   4.073   4.752   1.806
 3270TIP3    H1 9774   4.124   4.669   1.789
 3270TIP3    H2 9775   4.136   4.817   1.768
 3271TIP3   OH2 9776   4.219   4.537   1.722
 3271TIP3    H1 9777   4.173   4.458   1.691
 3271TIP3    H2 9778   4.259   4.505   1.806
 3272TIP3   OH2 9779   4.599   4.618   2.480
 3272TIP3    H1 9780   4.586   4.541   2.420
 3272TIP3    H2 9781   4.581   4.693   2.420
 3273TIP3   OH2 9782   3.892   4.012   1.742
 3273TIP3    H1 9783   3.812   4.067   1.723
 3273TIP3    H2 9784   3.936   4.012   1.655
 3274TIP3   OH2 9785   3.850   3.802   1.448
 3274TIP3    H1 9786   3.914   3.855   1.498
 3274TIP3    H2 9787   3.910   3.739   1.403
 3275TIP3   OH2 9788   4.792   4.254   2.327
 3275TIP3    H1 9789   4.709   4.307   2.331
 3275TIP3    H2 9790   4.826   4.281   2.239
 3276TIP3   OH2 9791   4.241   4.097   1.706
 3276TIP3    H1 9792   4.186   4.120   1.785
 3276TIP3    H2 9793   4.326   4.075   1.750
 3277TIP3   OH2 9794   4.472   4.135   2.621
 3277TIP3    H1 9795   4.473   4.208   2.687
 3277TIP3    H2 9796   4.383   4.147   2.582
 3278TIP3   OH2 9797   3.472   4.092   2.127
 3278TIP3    H1 9798   3.432   4.034   2.059
 3278TIP3    H2 9799   3.548   4.038   2.158
 3279TIP3   OH2 9800   3.603   4.508   2.274
 3279TIP3    H1 9801   3.583   4.472   2.186
 3279TIP3    H2 9802   3.692   4.469   2.291
 3280TIP3   OH2 9803   3.613   4.062   2.482
 3280TIP3    H1 9804   3.643   4.041   2.391
 3280TIP3    H2 9805   3.653   4.150   2.499
 3281TIP3   OH2 9806   4.136   4.702   2.259
 3281TIP3    H1 9807   4.121   4.784   2.310
 3281TIP3    H2 9808   4.116   4.632   2.324
 3282TIP3   OH2 9809   3.747   4.621   2.806
 3282TIP3    H1 9810   3.685   4.682   2.852
 3282TIP3    H2 9811   3.684   4.568   2.754
 3283TIP3   OH2 9812   4.077   3.955   1.536
 3283TIP3    H1 9813   4.136   4.016   1.585
 3283TIP3    H2 9814   4.104   3.974   1.443
 3284TIP3   OH2 9815   3.501   4.175   2.907
 3284TIP3    H1 9816   3.508   4.262   2.951
 3284TIP3    H2 9817   3.408   4.153   2.928
 3285TIP3   OH2 9818   3.827   4.628   1.811
 3285TIP3    H1 9819   3.909   4.681   1.818
 3285TIP3    H2 9820   3.766   4.691   1.771
 3286TIP3   OH2 9821   3.540   4.785   2.894
 3286TIP3    H1 9822   3.505   4.791   2.803
 3286TIP3    H2 9823   3.459   4.765   2.946
 3287TIP3   OH2 9824   4.590   3.195   1.584
 3287TIP3    H1 9825   4.510   3.220   1.634
 3287TIP3    H2 9826   4.608   3.277   1.534
 3288TIP3   OH2 9827   3.341   3.936   1.925
 3288TIP3    H1 9828   3.270   3.981   1.875
 3288TIP3    H2 9829   3.300   3.851   1.945
 3289TIP3   OH2 9830   4.396   4.560   1.133
 3289TIP3    H1 9831   4.405   4.657   1.119
 3289TIP3    H2 9832   4.489   4.531   1.121
 3290TIP3   OH2 9833   3.119   4.320   2.840
 3290TIP3    H1 9834   3.050   4.301   2.774
 3290TIP3    H2 9835   3.156   4.232   2.861
 3291TIP3   OH2 9836   2.974   4.515   2.468
 3291TIP3    H1 9837   3.070   4.510   2.464
 3291TIP3    H2 9838   2.961   4.592   2.526
 3292TIP3   OH2 9839   4.836   4.967   2.530
 3292TIP3    H1 9840   4.835   4.871   2.546
 3292TIP3    H2 9841   4.753   4.993   2.576
 3293TIP3   OH2 9842   3.943   4.748   2.663
 3293TIP3    H1 9843   3.939   4.841   2.695
 3293TIP3    H2 9844   3.871   4.707   2.717
 3294TIP3   OH2 9845   3.710   4.878   1.614
 3294TIP3    H1 9846   3.659   4.862   1.533
 3294TIP3    H2 9847   3.674   4.963   1.645
 3295TIP3   OH2 9848   3.144   4.726   2.001
 3295TIP3    H1 9849   3.190   4.719   2.088
 3295TIP3    H2 9850   3.095   4.642   2.000
 3296TIP3   OH2 9851   3.905   4.781   1.252
 3296TIP3    H1 9852   3.964   4.711   1.217
 3296TIP3    H2 9853   3.939   4.793   1.343
 3297TIP3   OH2 9854   3.959   4.829   1.520
 3297TIP3    H1 9855   3.870   4.840   1.562
 3297TIP3    H2 9856   4.010   4.792   1.595
 3298TIP3   OH2 9857   4.681   4.096   2.825
 3298TIP3    H1 9858   4.656   4.092   2.732
 3298TIP3    H2 9859   4.773   4.065   2.826
 3299TIP3   OH2 9860   3.323   4.504   2.822
 3299TIP3    H1 9861   3.372   4.487   2.905
 3299TIP3    H2 9862   3.248   4.440   2.831
 3300TIP3   OH2 9863   3.723   3.328   2.616
 3300TIP3    H1 9864   3.635   3.298   2.585
 3300TIP3    H2 9865   3.695   3.407   2.667
 3301TIP3   OH2 9866   4.256   3.432   2.815
 3301TIP3    H1 9867   4.324   3.407   2.882
 3301TIP3    H2 9868   4.172   3.416   2.863
 3302TIP3   OH2 9869   4.494   3.876   2.723
 3302TIP3    H1 9870   4.455   3.875   2.813
 3302TIP3    H2 9871   4.479   3.968   2.695
 3303TIP3   OH2 9872   4.156   3.993   1.281
 3303TIP3    H1 9873   4.120   3.974   1.192
 3303TIP3    H2 9874   4.240   4.038   1.258
 3304TIP3   OH2 9875   3.867   3.373   1.585
 3304TIP3    H1 9876   3.831   3.368   1.676
 3304TIP3    H2 9877   3.826   3.292   1.548
 3305TIP3   OH2 9878   3.659   3.841   2.632
 3305TIP3    H1 9879   3.608   3.862   2.713
 3305TIP3    H2 9880   3.642   3.923   2.579
 3306TIP3   OH2 9881   3.539   3.729   2.144
 3306TIP3    H1 9882   3.446   3.704   2.165
 3306TIP3    H2 9883   3.548   3.687   2.056
 3307TIP3   OH2 9884   4.029   3.812   1.876
 3307TIP3    H1 9885   3.979   3.884   1.831
 3307TIP3    H2 9886   4.085   3.778   1.803
 3308TIP3   OH2 9887   4.200   4.090   2.957
 3308TIP3    H1 9888   4.178   4.020   3.023
 3308TIP3    H2 9889   4.293   4.108   2.982
 3309TIP3   OH2 9890   4.186   3.840   2.111
 3309TIP3    H1 9891   4.121   3.871   2.044
 3309TIP3    H2 9892   4.220   3.762   2.063
 3310TIP3   OH2 9893   3.475   3.868   2.836
 3310TIP3    H1 9894   3.499   3.932   2.905
 3310TIP3    H2 9895   3.460   3.787   2.889
 3311TIP3   OH2 9896   3.524   3.349   1.549
 3311TIP3    H1 9897   3.513   3.349   1.647
 3311TIP3    H2 9898   3.448   3.405   1.523
 3312TIP3   OH2 9899   3.069   3.388   2.418
 3312TIP3    H1 9900   3.139   3.424   2.477
 3312TIP3    H2 9901   3.118   3.363   2.339
 3313TIP3   OH2 9902   3.029   3.372   1.938
 3313TIP3    H1 9903   3.076   3.409   1.860
 3313TIP3    H2 9904   2.969   3.447   1.958
 3314TIP3   OH2 9905   4.190   4.082   2.530
 3314TIP3    H1 9906   4.224   4.009   2.473
 3314TIP3    H2 9907   4.164   4.029   2.609
 3315TIP3   OH2 9908   3.871   3.544   2.204
 3315TIP3    H1 9909   3.786   3.544   2.252
 3315TIP3    H2 9910   3.934   3.549   2.278
 3316TIP3   OH2 9911   3.301   3.609   2.211
 3316TIP3    H1 9912   3.207   3.618   2.183
 3316TIP3    H2 9913   3.321   3.516   2.190
 3317TIP3   OH2 9914   3.564   3.600   1.905
 3317TIP3    H1 9915   3.657   3.616   1.881
 3317TIP3    H2 9916   3.515   3.621   1.822
 3318TIP3   OH2 9917   4.334   3.592   2.409
 3318TIP3    H1 9918   4.265   3.645   2.453
 3318TIP3    H2 9919   4.277   3.539   2.349
 3319TIP3   OH2 9920   3.418   3.634   1.680
 3319TIP3    H1 9921   3.346   3.591   1.631
 3319TIP3    H2 9922   3.469   3.674   1.606
 3320TIP3   OH2 9923   4.533   5.314   2.630
 3320TIP3    H1 9924   4.528   5.341   2.537
 3320TIP3    H2 9925   4.610   5.365   2.661
 3321TIP3   OH2 9926   3.486   4.427   3.045
 3321TIP3    H1 9927   3.566   4.454   3.095
 3321TIP3    H2 9928   3.423   4.419   3.119
 3322TIP3   OH2 9929   3.945   3.880   2.303
 3322TIP3    H1 9930   4.022   3.842   2.260
 3322TIP3    H2 9931   3.948   3.840   2.392
 3323TIP3   OH2 9932   3.466   3.365   2.189
 3323TIP3    H1 9933   3.428   3.290   2.240
 3323TIP3    H2 9934   3.507   3.318   2.115
 3324TIP3   OH2 9935   3.928   3.787   2.587
 3324TIP3    H1 9936   3.836   3.815   2.603
 3324TIP3    H2 9937   3.979   3.849   2.643
 3325TIP3   OH2 9938   3.663   4.164   1.688
 3325TIP3    H1 9939   3.590   4.099   1.676
 3325TIP3    H2 9940   3.641   4.199   1.778
 3326TIP3   OH2 9941   4.561   4.401   2.313
 3326TIP3    H1 9942   4.584   4.454   2.233
 3326TIP3    H2 9943   4.476   4.359   2.286
 3327TIP3   OH2 9944   4.119   3.474   1.557
 3327TIP3    H1 9945   4.022   3.455   1.565
 3327TIP3    H2 9946   4.125   3.568   1.582
 3328TIP3   OH2 9947   4.059   4.484   2.686
 3328TIP3    H1 9948   4.093   4.468   2.775
 3328TIP3    H2 9949   4.021   4.574   2.693
 3329TIP3   OH2 9950   4.186   3.727   1.658
 3329TIP3    H1 9951   4.283   3.734   1.673
 3329TIP3    H2 9952   4.167   3.808   1.607
 3330TIP3   OH2 9953   3.357   4.192   2.362
 3330TIP3    H1 9954   3.395   4.159   2.278
 3330TIP3    H2 9955   3.396   4.132   2.428
 3331TIP3   OH2 9956   3.806   4.315   1.511
 3331TIP3    H1 9957   3.757   4.400   1.513
 3331TIP3    H2 9958   3.752   4.260   1.573
 3332TIP3   OH2 9959   3.240   4.105   2.978
 3332TIP3    H1 9960   3.253   4.091   3.073
 3332TIP3    H2 9961   3.169   4.040   2.959
 3333TIP3   OH2 9962   3.961   4.228   2.991
 3333TIP3    H1 9963   3.899   4.160   2.962
 3333TIP3    H2 9964   4.047   4.190   2.966
 3334TIP3   OH2 9965   4.218   4.745   2.583
 3334TIP3    H1 9966   4.122   4.744   2.598
 3334TIP3    H2 9967   4.248   4.797   2.661
 3335TIP3   OH2 9968   4.624   3.822   1.492
 3335TIP3    H1 9969   4.564   3.778   1.427
 3335TIP3    H2 9970   4.622   3.912   1.452
 3336TIP3   OH2 9971   4.850   4.669   2.573
 3336TIP3    H1 9972   4.752   4.664   2.565
 3336TIP3    H2 9973   4.875   4.643   2.481
 3337TIP3   OH2 9974   4.333   4.637   1.401
 3337TIP3    H1 9975   4.303   4.570   1.464
 3337TIP3    H2 9976   4.344   4.587   1.318
 3338TIP3   OH2 9977   4.327   4.267   2.229
 3338TIP3    H1 9978   4.233   4.244   2.243
 3338TIP3    H2 9979   4.358   4.186   2.183
 3339TIP3   OH2 9980   3.457   4.494   1.986
 3339TIP3    H1 9981   3.450   4.575   1.932
 3339TIP3    H2 9982   3.365   4.476   2.007
 3340TIP3   OH2 9983   3.023   3.796   1.696
 3340TIP3    H1 9984   3.064   3.882   1.718
 3340TIP3    H2 9985   2.944   3.798   1.755
 3341TIP3   OH2 9986   3.586   4.255   1.929
 3341TIP3    H1 9987   3.553   4.345   1.948
 3341TIP3    H2 9988   3.552   4.205   2.005
 3342TIP3   OH2 9989   3.726   4.836   2.456
 3342TIP3    H1 9990   3.768   4.910   2.408
 3342TIP3    H2 9991   3.803   4.798   2.503
 3343TIP3   OH2 9992   3.372   4.734   1.839
 3343TIP3    H1 9993   3.287   4.742   1.888
 3343TIP3    H2 9994   3.405   4.826   1.843
 3344TIP3   OH2 9995   4.108   4.468   2.419
 3344TIP3    H1 9996   4.096   4.469   2.516
 3344TIP3    H2 9997   4.192   4.421   2.411
 3345TIP3   OH2 9998   4.091   4.368   1.300
 3345TIP3    H1 9999   4.145   4.341   1.378
 3345TIP3    H210000   4.003   4.337   1.327
 3346TIP3   OH210001   4.360   4.999   2.465
 3346TIP3    H110002   4.279   4.944   2.461
 3346TIP3    H210003   4.343   5.064   2.394
 3347TIP3   OH210004   4.427   4.837   1.118
 3347TIP3    H110005   4.465   4.914   1.072
 3347TIP3    H210006   4.345   4.878   1.153
 3348TIP3   OH210007   3.438   3.622   2.980
 3348TIP3    H110008   3.341   3.627   2.990
 3348TIP3    H210009   3.462   3.581   3.065
 3349TIP3   OH210010   4.252   4.294   1.510
 3349TIP3    H110011   4.240   4.231   1.584
 3349TIP3    H210012   4.349   4.292   1.501
 3350TIP3   OH210013   3.164   4.696   2.614
 3350TIP3    H110014   3.218   4.626   2.655
 3350TIP3    H210015   3.189   4.773   2.666
 3351TIP3   OH210016   3.452   4.344   1.300
 3351TIP3    H110017   3.463   4.251   1.275
 3351TIP3    H210018   3.431   4.336   1.395
 3352TIP3   OH210019   3.396   4.350   1.571
 3352TIP3    H110020   3.469   4.323   1.629
 3352TIP3    H210021   3.399   4.448   1.580
 3353TIP3   OH210022   3.129   4.041   1.777
 3353TIP3    H110023   3.062   4.086   1.833
 3353TIP3    H210024   3.141   4.109   1.708
 3354TIP3   OH210025   4.347   3.645   2.679
 3354TIP3    H110026   4.360   3.730   2.725
 3354TIP3    H210027   4.292   3.595   2.744
 3355TIP3   OH210028   4.167   3.424   1.839
 3355TIP3    H110029   4.152   3.444   1.745
 3355TIP3    H210030   4.205   3.507   1.873
 3356TIP3   OH210031   3.665   4.545   1.518
 3356TIP3    H110032   3.578   4.567   1.557
 3356TIP3    H210033   3.679   4.623   1.463
 3357TIP3   OH210034   3.851   3.610   1.936
 3357TIP3    H110035   3.913   3.684   1.919
 3357TIP3    H210036   3.856   3.603   2.034
 3358TIP3   OH210037   4.133   3.925   2.749
 3358TIP3    H110038   4.136   4.000   2.813
 3358TIP3    H210039   4.175   3.857   2.803
 3359TIP3   OH210040   3.991   3.331   2.037
 3359TIP3    H110041   3.972   3.412   2.087
 3359TIP3    H210042   4.056   3.364   1.971
 3360TIP3   OH210043   3.412   4.622   1.591
 3360TIP3    H110044   3.381   4.692   1.530
 3360TIP3    H210045   3.395   4.663   1.679
 3361TIP3   OH210046   3.508   3.337   1.826
 3361TIP3    H110047   3.505   3.426   1.864
 3361TIP3    H210048   3.604   3.320   1.833
 3362TIP3   OH210049   4.759   3.793   2.706
 3362TIP3    H110050   4.667   3.823   2.722
 3362TIP3    H210051   4.776   3.825   2.617
 3363TIP3   OH210052   4.411   4.022   2.111
 3363TIP3    H110053   4.337   3.959   2.119
 3363TIP3    H210054   4.484   3.975   2.157
 3364TIP3   OH210055   3.129   4.244   1.580
 3364TIP3    H110056   3.200   4.310   1.590
 3364TIP3    H210057   3.171   4.186   1.513
 3365TIP3   OH210058   3.066   3.526   1.714
 3365TIP3    H110059   3.073   3.624   1.714
 3365TIP3    H210060   2.980   3.514   1.672
 3366TIP3   OH210061   4.382   4.981   2.057
 3366TIP3    H110062   4.339   5.027   1.982
 3366TIP3    H210063   4.476   5.000   2.036
 3367TIP3   OH210064   3.461   3.246   2.582
 3367TIP3    H110065   3.428   3.210   2.497
 3367TIP3    H210066   3.450   3.170   2.643
 3368TIP3   OH210067   2.991   4.463   1.963
 3368TIP3    H110068   2.931   4.493   2.033
 3368TIP3    H210069   2.953   4.508   1.883
 3369TIP3   OH210070   3.156   5.014   3.041
 3369TIP3    H110071   3.243   5.015   3.087
 3369TIP3    H210072   3.138   4.919   3.038
 3370TIP3   OH210073   3.630   4.963   3.087
 3370TIP3    H110074   3.725   4.949   3.089
 3370TIP3    H210075   3.604   4.903   3.015
 3371TIP3   OH210076   3.614   4.545   1.207
 3371TIP3    H110077   3.559   4.473   1.246
 3371TIP3    H210078   3.691   4.493   1.176
 3372TIP3   OH210079   4.273   4.878   2.818
 3372TIP3    H110080   4.266   4.808   2.888
 3372TIP3    H210081   4.350   4.930   2.849
 3373TIP3   OH210082   4.051   4.583   1.126
 3373TIP3    H110083   4.088   4.517   1.188
 3373TIP3    H210084   4.112   4.576   1.050
 3374TIP3   OH210085   3.284   4.418   3.240
 3374TIP3    H110086   3.305   4.322   3.245
 3374TIP3    H210087   3.198   4.416   3.193
 3375TIP3   OH210088   3.264   4.059   1.435
 3375TIP3    H110089   3.321   4.032   1.509
 3375TIP3    H210090   3.331   4.066   1.364
 3376TIP3   OH210091   3.890   4.504   3.014
 3376TIP3    H110092   3.849   4.524   2.927
 3376TIP3    H210093   3.920   4.411   3.002
 3377TIP3   OH210094   3.781   4.264   1.242
 3377TIP3    H110095   3.781   4.275   1.340
 3377TIP3    H210096   3.780   4.166   1.235
 3378TIP3   OH210097   4.382   4.513   2.617
 3378TIP3    H110098   4.459   4.556   2.575
 3378TIP3    H210099   4.314   4.582   2.604
 3379TIP3   OH210100   3.405   4.166   3.224
 3379TIP3    H110101   3.459   4.087   3.213
 3379TIP3    H210102   3.429   4.189   3.316
 3380TIP3   OH210103   3.466   3.971   1.653
 3380TIP3    H110104   3.437   3.934   1.738
 3380TIP3    H210105   3.504   3.893   1.607
 3381TIP3   OH210106   3.741   4.033   2.878
 3381TIP3    H110107   3.662   4.090   2.880
 3381TIP3    H210108   3.791   4.070   2.802
 3382TIP3   OH210109   3.572   3.764   1.494
 3382TIP3    H110110   3.547   3.776   1.399
 3382TIP3    H210111   3.670   3.765   1.487
 3383TIP3   OH210112   4.259   4.435   3.015
 3383TIP3    H110113   4.337   4.402   2.968
 3383TIP3    H210114   4.252   4.372   3.089
 3384TIP3   OH210115   4.388   4.090   1.163
 3384TIP3    H110116   4.369   4.048   1.077
 3384TIP3    H210117   4.354   4.181   1.144
 3385TIP3   OH210118   3.866   3.821   2.998
 3385TIP3    H110119   3.861   3.741   2.942
 3385TIP3    H210120   3.818   3.889   2.944
 3386TIP3   OH210121   3.867   3.605   2.811
 3386TIP3    H110122   3.888   3.651   2.728
 3386TIP3    H210123   3.772   3.583   2.798
 3387TIP3   OH210124   3.891   4.137   2.680
 3387TIP3    H110125   3.976   4.169   2.645
 3387TIP3    H210126   3.829   4.203   2.641
 3388TIP3   OH210127   4.471   4.104   3.059
 3388TIP3    H110128   4.518   4.022   3.081
 3388TIP3    H210129   4.537   4.150   3.004
 3389TIP3   OH210130   4.509   4.366   2.808
 3389TIP3    H110131   4.457   4.421   2.745
 3389TIP3    H210132   4.599   4.377   2.772
 3390TIP3   OH210133   3.749   3.936   3.233
 3390TIP3    H110134   3.666   3.901   3.265
 3390TIP3    H210135   3.768   3.887   3.151
 3391TIP3   OH210136   3.996   3.363   2.881
 3391TIP3    H110137   3.947   3.446   2.863
 3391TIP3    H210138   3.925   3.297   2.876
 3392TIP3   OH210139   4.117   3.873   3.102
 3392TIP3    H110140   4.111   3.825   3.187
 3392TIP3    H210141   4.026   3.854   3.068
 3393TIP3   OH210142   4.353   3.809   2.953
 3393TIP3    H110143   4.278   3.816   3.015
 3393TIP3    H210144   4.426   3.791   3.017
 3394TIP3   OH210145   4.557   3.769   3.146
 3394TIP3    H110146   4.588   3.677   3.134
 3394TIP3    H210147   4.579   3.783   3.240
 3395TIP3   OH210148   4.103   3.374   3.140
 3395TIP3    H110149   4.162   3.296   3.135
 3395TIP3    H210150   4.052   3.366   3.057
 3396TIP3   OH210151   4.161   3.623   3.260
 3396TIP3    H110152   4.141   3.533   3.226
 3396TIP3    H210153   4.074   3.649   3.297
 3397TIP3   OH210154   3.381   4.827   1.403
 3397TIP3    H110155   3.476   4.814   1.383
 3397TIP3    H210156   3.354   4.878   1.324
 3398TIP3   OH210157   2.858   4.208   1.611
 3398TIP3    H110158   2.954   4.227   1.599
 3398TIP3    H210159   2.852   4.118   1.572
 3399TIP3   OH210160   2.777   4.818   2.033
 3399TIP3    H110161   2.711   4.757   1.993
 3399TIP3    H210162   2.820   4.758   2.098
 3400TIP3   OH210163   2.910   4.662   2.219
 3400TIP3    H110164   2.894   4.594   2.287
 3400TIP3    H210165   2.963   4.726   2.270
 3401TIP3   OH210166   4.639   5.066   2.021
 3401TIP3    H110167   4.664   5.096   2.111
 3401TIP3    H210168   4.705   5.110   1.966
 3402TIP3   OH210169   4.666   5.086   2.302
 3402TIP3    H110170   4.618   5.001   2.297
 3402TIP3    H210171   4.738   5.060   2.362
 3403TIP3   OH210172   4.707   4.768   2.869
 3403TIP3    H110173   4.638   4.777   2.938
 3403TIP3    H210174   4.752   4.855   2.877
 3404TIP3   OH210175   4.529   4.277   1.492
 3404TIP3    H110176   4.595   4.343   1.462
 3404TIP3    H210177   4.575   4.241   1.572
 3405TIP3   OH210178   4.657   4.146   1.697
 3405TIP3    H110179   4.590   4.105   1.757
 3405TIP3    H210180   4.723   4.180   1.761
 3406TIP3   OH210181   4.714   4.541   2.128
 3406TIP3    H110182   4.765   4.471   2.083
 3406TIP3    H210183   4.710   4.611   2.061
 3407TIP3   OH210184   4.538   4.839   2.321
 3407TIP3    H110185   4.466   4.881   2.373
 3407TIP3    H210186   4.489   4.794   2.250
 3408TIP3   OH210187   4.592   4.054   1.342
 3408TIP3    H110188   4.520   4.056   1.275
 3408TIP3    H210189   4.564   4.130   1.398
 3409TIP3   OH210190   4.463   3.726   1.294
 3409TIP3    H110191   4.416   3.759   1.217
 3409TIP3    H210192   4.443   3.630   1.288
 3410TIP3   OH210193   4.467   4.007   1.841
 3410TIP3    H110194   4.475   3.910   1.832
 3410TIP3    H210195   4.452   4.018   1.938
 3411TIP3   OH210196   3.093   4.077   2.591
 3411TIP3    H110197   3.089   4.042   2.500
 3411TIP3    H210198   3.190   4.076   2.607
 3412TIP3   OH210199   4.769   4.411   2.705
 3412TIP3    H110200   4.838   4.344   2.696
 3412TIP3    H210201   4.797   4.480   2.642
 3413TIP3   OH210202   4.408   3.460   1.275
 3413TIP3    H110203   4.483   3.429   1.330
 3413TIP3    H210204   4.335   3.400   1.299
 3414TIP3   OH210205   4.467   3.721   1.734
 3414TIP3    H110206   4.508   3.632   1.748
 3414TIP3    H210207   4.524   3.754   1.662
 3415TIP3   OH210208   4.623   3.894   2.235
 3415TIP3    H110209   4.709   3.915   2.190
 3415TIP3    H210210   4.644   3.928   2.323
 3416TIP3   OH210211   4.698   4.040   2.471
 3416TIP3    H110212   4.614   4.076   2.508
 3416TIP3    H210213   4.729   4.117   2.417
 3417TIP3   OH210214   3.317   3.722   3.279
 3417TIP3    H110215   3.404   3.760   3.300
 3417TIP3    H210216   3.328   3.635   3.323
 3418TIP3   OH210217   5.179   3.646   3.048
 3418TIP3    H110218   5.228   3.581   2.993
 3418TIP3    H210219   5.125   3.689   2.977
 3419TIP3   OH210220   4.574   3.471   1.777
 3419TIP3    H110221   4.625   3.451   1.858
 3419TIP3    H210222   4.513   3.394   1.775
 3420TIP3   OH210223   3.274   3.455   2.587
 3420TIP3    H110224   3.336   3.380   2.601
 3420TIP3    H210225   3.337   3.529   2.584
 3421TIP3   OH210226   3.071   3.725   2.662
 3421TIP3    H110227   3.124   3.731   2.580
 3421TIP3    H210228   3.099   3.804   2.710
 3422TIP3   OH210229   5.019   3.738   2.854
 3422TIP3    H110230   4.978   3.826   2.845
 3422TIP3    H210231   4.973   3.688   2.783
 3423TIP3   OH210232   4.648   3.402   1.407
 3423TIP3    H110233   4.696   3.331   1.361
 3423TIP3    H210234   4.717   3.472   1.411
 3424TIP3   OH210235   3.061   3.223   2.162
 3424TIP3    H110236   2.971   3.223   2.199
 3424TIP3    H210237   3.052   3.287   2.088
 3425TIP3   OH210238   4.219   4.937   1.673
 3425TIP3    H110239   4.273   4.930   1.592
 3425TIP3    H210240   4.268   5.002   1.726
 3426TIP3   OH210241   3.282   3.308   2.977
 3426TIP3    H110242   3.236   3.307   3.063
 3426TIP3    H210243   3.212   3.349   2.922
 3427TIP3   OH210244   3.318   4.745   3.056
 3427TIP3    H110245   3.226   4.718   3.041
 3427TIP3    H210246   3.332   4.719   3.148
 3428TIP3   OH210247   3.502   4.775   2.607
 3428TIP3    H110248   3.453   4.850   2.567
 3428TIP3    H210249   3.587   4.789   2.562
 3429TIP3   OH210250   3.939   5.014   2.744
 3429TIP3    H110251   3.982   5.015   2.832
 3429TIP3    H210252   4.003   5.068   2.692
 3430TIP3   OH210253   4.119   5.170   2.608
 3430TIP3    H110254   4.190   5.120   2.565
 3430TIP3    H210255   4.171   5.227   2.669
 3431TIP3   OH210256   4.926   3.524   2.701
 3431TIP3    H110257   4.843   3.522   2.654
 3431TIP3    H210258   4.959   3.431   2.692
 3432TIP3   OH210259   3.172   5.028   2.634
 3432TIP3    H110260   3.082   5.060   2.611
 3432TIP3    H210261   3.190   5.080   2.713
 3433TIP3   OH210262   3.408   5.003   2.490
 3433TIP3    H110263   3.321   5.018   2.532
 3433TIP3    H210264   3.393   5.039   2.400
 3434TIP3   OH210265   3.836   5.033   2.286
 3434TIP3    H110266   3.763   5.053   2.224
 3434TIP3    H210267   3.846   5.120   2.331
 3435TIP3   OH210268   4.105   4.972   2.339
 3435TIP3    H110269   4.011   4.991   2.321
 3435TIP3    H210270   4.148   5.049   2.299
 3436TIP3   OH210271   4.313   5.164   2.253
 3436TIP3    H110272   4.298   5.249   2.206
 3436TIP3    H210273   4.338   5.104   2.179
 3437TIP3   OH210274   3.086   4.822   2.374
 3437TIP3    H110275   3.112   4.794   2.464
 3437TIP3    H210276   3.158   4.779   2.323
 3438TIP3   OH210277   3.282   4.696   2.235
 3438TIP3    H110278   3.296   4.612   2.286
 3438TIP3    H210279   3.374   4.731   2.232
 3439TIP3   OH210280   3.550   4.785   2.241
 3439TIP3    H110281   3.579   4.692   2.234
 3439TIP3    H210282   3.597   4.811   2.322
 3440TIP3   OH210283   4.122   3.439   2.330
 3440TIP3    H110284   4.073   3.371   2.380
 3440TIP3    H210285   4.184   3.387   2.276
 3441TIP3   OH210286   4.631   3.360   2.252
 3441TIP3    H110287   4.681   3.383   2.170
 3441TIP3    H210288   4.542   3.345   2.218
 3442TIP3   OH210289   4.736   3.419   2.000
 3442TIP3    H110290   4.808   3.366   1.959
 3442TIP3    H210291   4.772   3.509   1.982
 3443TIP3   OH210292   3.369   3.152   2.335
 3443TIP3    H110293   3.277   3.119   2.342
 3443TIP3    H210294   3.417   3.066   2.332
 3444TIP3   OH210295   3.157   3.025   1.987
 3444TIP3    H110296   3.186   3.083   1.915
 3444TIP3    H210297   3.129   3.090   2.055
 3445TIP3   OH210298   3.818   3.180   2.219
 3445TIP3    H110299   3.874   3.230   2.158
 3445TIP3    H210300   3.833   3.227   2.303
 3446TIP3   OH210301   4.351   3.329   2.197
 3446TIP3    H110302   4.359   3.287   2.110
 3446TIP3    H210303   4.346   3.250   2.257
 3447TIP3   OH210304   4.390   3.260   1.767
 3447TIP3    H110305   4.304   3.303   1.786
 3447TIP3    H210306   4.376   3.172   1.810
 3448TIP3   OH210307   2.876   4.599   1.760
 3448TIP3    H110308   2.790   4.564   1.729
 3448TIP3    H210309   2.864   4.693   1.738
 3449TIP3   OH210310   3.277   3.181   1.748
 3449TIP3    H110311   3.325   3.119   1.690
 3449TIP3    H210312   3.351   3.235   1.784
 3450TIP3   OH210313   3.785   3.360   1.848
 3450TIP3    H110314   3.844   3.312   1.908
 3450TIP3    H210315   3.807   3.452   1.873
 3451TIP3   OH210316   3.646   4.778   1.347
 3451TIP3    H110317   3.734   4.801   1.312
 3451TIP3    H210318   3.624   4.703   1.287
 3452TIP3   OH210319   4.369   4.904   1.442
 3452TIP3    H110320   4.361   4.806   1.434
 3452TIP3    H210321   4.320   4.933   1.362
 3453TIP3   OH210322   3.847   3.433   3.333
 3453TIP3    H110323   3.918   3.369   3.324
 3453TIP3    H210324   3.778   3.386   3.382
 3454TIP3   OH210325   2.950   4.620   1.402
 3454TIP3    H110326   2.948   4.631   1.498
 3454TIP3    H210327   3.037   4.577   1.387
 3455TIP3   OH210328   4.657   3.497   3.135
 3455TIP3    H110329   4.664   3.447   3.218
 3455TIP3    H210330   4.748   3.488   3.099
 3456TIP3   OH210331   4.588   5.044   2.627
 3456TIP3    H110332   4.510   5.014   2.577
 3456TIP3    H210333   4.568   5.140   2.636
 3457TIP3   OH210334   5.859   4.421   1.390
 3457TIP3    H110335   5.826   4.510   1.369
 3457TIP3    H210336   5.784   4.367   1.359
 3458TIP3   OH210337   5.854   4.422   1.784
 3458TIP3    H110338   5.893   4.396   1.869
 3458TIP3    H210339   5.817   4.337   1.754
 3459TIP3   OH210340   5.153   4.310   2.146
 3459TIP3    H110341   5.183   4.240   2.207
 3459TIP3    H210342   5.235   4.358   2.131
 3460TIP3   OH210343   6.103   4.726   1.459
 3460TIP3    H110344   6.086   4.654   1.521
 3460TIP3    H210345   6.135   4.797   1.518
 3461TIP3   OH210346   5.130   4.724   1.861
 3461TIP3    H110347   5.121   4.626   1.861
 3461TIP3    H210348   5.226   4.733   1.857
 3462TIP3   OH210349   4.835   3.921   1.643
 3462TIP3    H110350   4.789   4.004   1.664
 3462TIP3    H210351   4.763   3.872   1.600
 3463TIP3   OH210352   4.891   4.211   1.828
 3463TIP3    H110353   4.941   4.132   1.860
 3463TIP3    H210354   4.954   4.250   1.765
 3464TIP3   OH210355   5.757   5.183   1.478
 3464TIP3    H110356   5.796   5.113   1.422
 3464TIP3    H210357   5.746   5.137   1.562
 3465TIP3   OH210358   5.655   4.646   1.825
 3465TIP3    H110359   5.696   4.566   1.787
 3465TIP3    H210360   5.737   4.695   1.848
 3466TIP3   OH210361   6.665   3.966   1.830
 3466TIP3    H110362   6.700   4.057   1.839
 3466TIP3    H210363   6.673   3.954   1.733
 3467TIP3   OH210364   6.066   4.150   1.852
 3467TIP3    H110365   6.112   4.066   1.875
 3467TIP3    H210366   6.033   4.128   1.763
 3468TIP3   OH210367   5.406   3.804   1.820
 3468TIP3    H110368   5.390   3.874   1.754
 3468TIP3    H210369   5.359   3.729   1.778
 3469TIP3   OH210370   6.111   3.899   1.448
 3469TIP3    H110371   6.169   3.844   1.503
 3469TIP3    H210372   6.172   3.928   1.378
 3470TIP3   OH210373   5.040   4.004   1.927
 3470TIP3    H110374   5.123   3.986   1.976
 3470TIP3    H210375   5.056   3.949   1.847
 3471TIP3   OH210376   5.479   4.203   1.729
 3471TIP3    H110377   5.574   4.181   1.738
 3471TIP3    H210378   5.442   4.119   1.694
 3472TIP3   OH210379   6.756   4.190   1.996
 3472TIP3    H110380   6.668   4.226   1.972
 3472TIP3    H210381   6.758   4.211   2.091
 3473TIP3   OH210382   5.403   3.789   2.255
 3473TIP3    H110383   5.344   3.824   2.186
 3473TIP3    H210384   5.350   3.805   2.335
 3474TIP3   OH210385   5.744   4.640   1.261
 3474TIP3    H110386   5.704   4.626   1.174
 3474TIP3    H210387   5.698   4.721   1.290
 3475TIP3   OH210388   5.510   4.565   2.044
 3475TIP3    H110389   5.452   4.634   2.081
 3475TIP3    H210390   5.553   4.612   1.969
 3476TIP3   OH210391   5.275   3.903   2.038
 3476TIP3    H110392   5.338   3.974   2.063
 3476TIP3    H210393   5.323   3.862   1.963
 3477TIP3   OH210394   5.340   4.763   2.147
 3477TIP3    H110395   5.314   4.851   2.113
 3477TIP3    H210396   5.261   4.743   2.202
 3478TIP3   OH210397   4.728   4.451   1.382
 3478TIP3    H110398   4.688   4.482   1.299
 3478TIP3    H210399   4.762   4.535   1.419
 3479TIP3   OH210400   6.169   4.969   1.624
 3479TIP3    H110401   6.079   4.958   1.662
 3479TIP3    H210402   6.159   5.055   1.578
 3480TIP3   OH210403   6.459   3.858   1.986
 3480TIP3    H110404   6.375   3.878   1.942
 3480TIP3    H210405   6.523   3.890   1.919
 3481TIP3   OH210406   5.755   3.508   1.968
 3481TIP3    H110407   5.747   3.413   1.994
 3481TIP3    H210408   5.677   3.544   2.016
 3482TIP3   OH210409   5.867   5.010   1.289
 3482TIP3    H110410   5.916   4.926   1.275
 3482TIP3    H210411   5.933   5.073   1.253
 3483TIP3   OH210412   6.014   4.795   1.208
 3483TIP3    H110413   5.977   4.713   1.172
 3483TIP3    H210414   6.053   4.763   1.292
 3484TIP3   OH210415   6.397   4.875   1.967
 3484TIP3    H110416   6.382   4.797   1.908
 3484TIP3    H210417   6.378   4.949   1.906
 3485TIP3   OH210418   5.688   4.271   1.228
 3485TIP3    H110419   5.609   4.325   1.205
 3485TIP3    H210420   5.735   4.266   1.143
 3486TIP3   OH210421   5.646   4.058   0.936
 3486TIP3    H110422   5.712   4.111   0.985
 3486TIP3    H210423   5.706   3.998   0.887
 3487TIP3   OH210424   6.590   4.522   1.820
 3487TIP3    H110425   6.504   4.569   1.820
 3487TIP3    H210426   6.618   4.538   1.727
 3488TIP3   OH210427   6.038   4.355   1.193
 3488TIP3    H110428   5.984   4.377   1.273
 3488TIP3    H210429   6.122   4.330   1.236
 3489TIP3   OH210430   6.267   4.390   2.114
 3489TIP3    H110431   6.262   4.473   2.165
 3489TIP3    H210432   6.181   4.392   2.068
 3490TIP3   OH210433   5.270   4.349   1.615
 3490TIP3    H110434   5.229   4.291   1.548
 3490TIP3    H210435   5.345   4.294   1.647
 3491TIP3   OH210436   5.400   4.764   1.760
 3491TIP3    H110437   5.379   4.729   1.672
 3491TIP3    H210438   5.488   4.725   1.778
 3492TIP3   OH210439   5.397   4.323   1.969
 3492TIP3    H110440   5.433   4.293   1.883
 3492TIP3    H210441   5.446   4.407   1.984
 3493TIP3   OH210442   5.928   4.961   1.746
 3493TIP3    H110443   5.918   5.039   1.804
 3493TIP3    H210444   5.913   4.886   1.807
 3494TIP3   OH210445   5.544   4.879   2.293
 3494TIP3    H110446   5.481   4.938   2.339
 3494TIP3    H210447   5.481   4.824   2.241
 3495TIP3   OH210448   5.870   4.214   1.026
 3495TIP3    H110449   5.932   4.273   1.075
 3495TIP3    H210450   5.898   4.235   0.933
 3496TIP3   OH210451   5.301   4.436   2.396
 3496TIP3    H110452   5.306   4.522   2.441
 3496TIP3    H210453   5.206   4.416   2.404
 3497TIP3   OH210454   5.621   4.888   1.297
 3497TIP3    H110455   5.705   4.937   1.302
 3497TIP3    H210456   5.562   4.952   1.256
 3498TIP3   OH210457   5.335   5.043   2.381
 3498TIP3    H110458   5.300   5.047   2.290
 3498TIP3    H210459   5.255   5.022   2.434
 3499TIP3   OH210460   6.385   3.451   1.068
 3499TIP3    H110461   6.307   3.474   1.122
 3499TIP3    H210462   6.406   3.538   1.027
 3500TIP3   OH210463   5.136   4.195   1.417
 3500TIP3    H110464   5.063   4.234   1.364
 3500TIP3    H210465   5.105   4.105   1.430
 3501TIP3   OH210466   6.161   4.844   0.619
 3501TIP3    H110467   6.146   4.930   0.575
 3501TIP3    H210468   6.254   4.827   0.595
 3502TIP3   OH210469   4.914   4.581   2.325
 3502TIP3    H110470   4.846   4.559   2.258
 3502TIP3    H210471   4.951   4.494   2.349
 3503TIP3   OH210472   4.770   4.771   1.954
 3503TIP3    H110473   4.866   4.765   1.949
 3503TIP3    H210474   4.758   4.847   2.013
 3504TIP3   OH210475   6.630   5.226   2.013
 3504TIP3    H110476   6.632   5.129   2.028
 3504TIP3    H210477   6.547   5.249   2.061
 3505TIP3   OH210478   5.737   5.007   2.150
 3505TIP3    H110479   5.733   5.099   2.183
 3505TIP3    H210480   5.666   4.965   2.203
 3506TIP3   OH210481   5.503   5.133   1.102
 3506TIP3    H110482   5.455   5.119   1.019
 3506TIP3    H210483   5.468   5.218   1.133
 3507TIP3   OH210484   4.940   4.982   1.489
 3507TIP3    H110485   4.987   4.975   1.575
 3507TIP3    H210486   4.891   4.898   1.488
 3508TIP3   OH210487   5.688   5.053   0.745
 3508TIP3    H110488   5.747   4.986   0.705
 3508TIP3    H210489   5.727   5.061   0.835
 3509TIP3   OH210490   5.755   5.086   1.014
 3509TIP3    H110491   5.666   5.096   1.055
 3509TIP3    H210492   5.806   5.049   1.088
 3510TIP3   OH210493   6.519   4.348   2.289
 3510TIP3    H110494   6.438   4.357   2.237
 3510TIP3    H210495   6.539   4.253   2.277
 3511TIP3   OH210496   5.119   4.762   2.310
 3511TIP3    H110497   5.168   4.744   2.393
 3511TIP3    H210498   5.044   4.699   2.318
 3512TIP3   OH210499   5.518   3.582   2.102
 3512TIP3    H110500   5.433   3.548   2.068
 3512TIP3    H210501   5.486   3.660   2.152
 3513TIP3   OH210502   6.055   3.698   2.295
 3513TIP3    H110503   6.124   3.667   2.357
 3513TIP3    H210504   5.972   3.677   2.341
 3514TIP3   OH210505   6.291   4.127   2.215
 3514TIP3    H110506   6.237   4.125   2.297
 3514TIP3    H210507   6.267   4.213   2.175
 3515TIP3   OH210508   5.957   4.267   0.780
 3515TIP3    H110509   5.921   4.239   0.692
 3515TIP3    H210510   6.047   4.292   0.752
 3516TIP3   OH210511   5.663   3.629   1.072
 3516TIP3    H110512   5.630   3.625   1.164
 3516TIP3    H210513   5.621   3.548   1.037
 3517TIP3   OH210514   5.450   4.102   2.119
 3517TIP3    H110515   5.400   4.122   2.201
 3517TIP3    H210516   5.433   4.182   2.066
 3518TIP3   OH210517   5.333   3.987   1.632
 3518TIP3    H110518   5.242   3.958   1.652
 3518TIP3    H210519   5.346   3.945   1.544
 3519TIP3   OH210520   5.826   4.069   1.362
 3519TIP3    H110521   5.776   4.141   1.316
 3519TIP3    H210522   5.881   4.034   1.289
 3520TIP3   OH210523   6.000   4.346   2.447
 3520TIP3    H110524   5.978   4.272   2.508
 3520TIP3    H210525   6.095   4.356   2.466
 3521TIP3   OH210526   5.978   4.095   1.597
 3521TIP3    H110527   5.915   4.119   1.526
 3521TIP3    H210528   6.020   4.018   1.554
 3522TIP3   OH210529   5.269   4.127   2.329
 3522TIP3    H110530   5.313   4.185   2.394
 3522TIP3    H210531   5.262   4.043   2.379
 3523TIP3   OH210532   5.317   3.605   1.037
 3523TIP3    H110533   5.310   3.604   1.134
 3523TIP3    H210534   5.240   3.660   1.013
 3524TIP3   OH210535   4.860   3.641   1.913
 3524TIP3    H110536   4.936   3.676   1.965
 3524TIP3    H210537   4.901   3.613   1.830
 3525TIP3   OH210538   4.824   3.626   1.425
 3525TIP3    H110539   4.873   3.660   1.347
 3525TIP3    H210540   4.766   3.703   1.442
 3526TIP3   OH210541   5.990   4.344   2.020
 3526TIP3    H110542   6.023   4.274   1.958
 3526TIP3    H210543   5.959   4.288   2.094
 3527TIP3   OH210544   5.664   3.820   1.692
 3527TIP3    H110545   5.589   3.809   1.754
 3527TIP3    H210546   5.740   3.789   1.745
 3528TIP3   OH210547   5.097   3.862   1.699
 3528TIP3    H110548   5.003   3.868   1.669
 3528TIP3    H210549   5.121   3.769   1.680
 3529TIP3   OH210550   5.358   3.857   1.393
 3529TIP3    H110551   5.453   3.871   1.375
 3529TIP3    H210552   5.315   3.878   1.307
 3530TIP3   OH210553   6.152   3.894   1.906
 3530TIP3    H110554   6.105   3.899   1.991
 3530TIP3    H210555   6.109   3.820   1.862
 3531TIP3   OH210556   5.212   3.896   1.165
 3531TIP3    H110557   5.142   3.850   1.115
 3531TIP3    H210558   5.264   3.934   1.091
 3532TIP3   OH210559   6.329   5.573   2.116
 3532TIP3    H110560   6.327   5.598   2.021
 3532TIP3    H210561   6.408   5.621   2.147
 3533TIP3   OH210562   5.282   4.682   2.533
 3533TIP3    H110563   5.362   4.710   2.583
 3533TIP3    H210564   5.217   4.679   2.605
 3534TIP3   OH210565   5.744   4.141   1.792
 3534TIP3    H110566   5.814   4.097   1.739
 3534TIP3    H210567   5.746   4.090   1.874
 3535TIP3   OH210568   5.260   3.615   1.680
 3535TIP3    H110569   5.228   3.536   1.729
 3535TIP3    H210570   5.319   3.573   1.615
 3536TIP3   OH210571   5.720   4.037   2.078
 3536TIP3    H110572   5.629   4.071   2.094
 3536TIP3    H210573   5.776   4.098   2.129
 3537TIP3   OH210574   5.455   4.423   1.172
 3537TIP3    H110575   5.384   4.356   1.161
 3537TIP3    H210576   5.435   4.456   1.263
 3538TIP3   OH210577   6.353   4.661   1.800
 3538TIP3    H110578   6.377   4.711   1.719
 3538TIP3    H210579   6.271   4.615   1.773
 3539TIP3   OH210580   5.914   3.733   1.043
 3539TIP3    H110581   5.817   3.713   1.052
 3539TIP3    H210582   5.920   3.827   1.067
 3540TIP3   OH210583   5.857   4.743   2.170
 3540TIP3    H110584   5.889   4.722   2.259
 3540TIP3    H210585   5.817   4.831   2.181
 3541TIP3   OH210586   5.984   3.983   1.146
 3541TIP3    H110587   6.080   3.988   1.161
 3541TIP3    H210588   5.967   4.063   1.092
 3542TIP3   OH210589   5.151   4.446   1.847
 3542TIP3    H110590   5.189   4.417   1.761
 3542TIP3    H210591   5.201   4.391   1.909
 3543TIP3   OH210592   5.602   4.571   0.996
 3543TIP3    H110593   5.552   4.656   0.999
 3543TIP3    H210594   5.549   4.516   1.058
 3544TIP3   OH210595   5.034   4.374   2.466
 3544TIP3    H110596   5.073   4.367   2.556
 3544TIP3    H210597   4.981   4.294   2.456
 3545TIP3   OH210598   5.761   4.483   2.483
 3545TIP3    H110599   5.699   4.423   2.439
 3545TIP3    H210600   5.847   4.444   2.455
 3546TIP3   OH210601   6.014   5.008   2.067
 3546TIP3    H110602   5.918   5.001   2.083
 3546TIP3    H210603   6.042   5.057   2.148
 3547TIP3   OH210604   6.423   4.074   0.985
 3547TIP3    H110605   6.359   4.034   0.921
 3547TIP3    H210606   6.424   4.165   0.946
 3548TIP3   OH210607   6.647   4.939   2.053
 3548TIP3    H110608   6.550   4.928   2.046
 3548TIP3    H210609   6.674   4.906   1.964
 3549TIP3   OH210610   6.122   4.887   0.898
 3549TIP3    H110611   6.098   4.820   0.964
 3549TIP3    H210612   6.137   4.835   0.817
 3550TIP3   OH210613   6.121   4.525   1.716
 3550TIP3    H110614   6.028   4.499   1.730
 3550TIP3    H210615   6.154   4.443   1.672
 3551TIP3   OH210616   5.254   4.753   1.477
 3551TIP3    H110617   5.248   4.832   1.421
 3551TIP3    H210618   5.161   4.731   1.490
 3552TIP3   OH210619   4.816   4.053   1.182
 3552TIP3    H110620   4.861   4.137   1.205
 3552TIP3    H210621   4.740   4.055   1.244
 3553TIP3   OH210622   5.380   4.512   1.414
 3553TIP3    H110623   5.349   4.602   1.437
 3553TIP3    H210624   5.350   4.460   1.491
 3554TIP3   OH210625   5.524   5.093   1.943
 3554TIP3    H110626   5.568   5.164   1.893
 3554TIP3    H210627   5.599   5.052   1.989
 3555TIP3   OH210628   5.167   4.990   1.325
 3555TIP3    H110629   5.083   4.999   1.374
 3555TIP3    H210630   5.201   5.083   1.329
 3556TIP3   OH210631   5.906   4.729   1.903
 3556TIP3    H110632   5.895   4.726   2.001
 3556TIP3    H210633   5.982   4.670   1.891
 3557TIP3   OH210634   5.885   4.631   0.791
 3557TIP3    H110635   5.943   4.602   0.865
 3557TIP3    H210636   5.801   4.592   0.820
 3558TIP3   OH210637   6.156   5.258   1.955
 3558TIP3    H110638   6.077   5.201   1.951
 3558TIP3    H210639   6.138   5.321   1.881
 3559TIP3   OH210640   5.241   3.872   2.467
 3559TIP3    H110641   5.145   3.863   2.482
 3559TIP3    H210642   5.276   3.821   2.543
 3560TIP3   OH210643   6.048   4.557   1.000
 3560TIP3    H110644   6.036   4.489   1.070
 3560TIP3    H210645   6.145   4.550   0.988
 3561TIP3   OH210646   4.961   4.951   2.100
 3561TIP3    H110647   5.015   4.880   2.137
 3561TIP3    H210648   4.983   5.024   2.159
 3562TIP3   OH210649   5.244   4.600   0.787
 3562TIP3    H110650   5.263   4.508   0.763
 3562TIP3    H210651   5.225   4.591   0.883
 3563TIP3   OH210652   5.190   4.607   1.059
 3563TIP3    H110653   5.267   4.576   1.110
 3563TIP3    H210654   5.196   4.704   1.070
 3564TIP3   OH210655   4.924   4.296   1.264
 3564TIP3    H110656   4.858   4.342   1.320
 3564TIP3    H210657   4.938   4.364   1.196
 3565TIP3   OH210658   6.072   3.945   2.170
 3565TIP3    H110659   6.163   3.973   2.188
 3565TIP3    H210660   6.066   3.860   2.219
 3566TIP3   OH210661   5.967   3.683   1.323
 3566TIP3    H110662   5.953   3.704   1.229
 3566TIP3    H210663   6.001   3.768   1.358
 3567TIP3   OH210664   5.460   4.800   1.006
 3567TIP3    H110665   5.373   4.823   1.044
 3567TIP3    H210666   5.478   4.881   0.955
 3568TIP3   OH210667   5.640   3.871   1.423
 3568TIP3    H110668   5.706   3.942   1.408
 3568TIP3    H210669   5.649   3.858   1.520
 3569TIP3   OH210670   5.919   4.180   2.224
 3569TIP3    H110671   5.949   4.224   2.306
 3569TIP3    H210672   5.970   4.096   2.224
 3570TIP3   OH210673   5.791   3.583   1.520
 3570TIP3    H110674   5.809   3.647   1.590
 3570TIP3    H210675   5.856   3.614   1.452
 3571TIP3   OH210676   5.207   4.879   1.077
 3571TIP3    H110677   5.174   4.949   1.017
 3571TIP3    H210678   5.190   4.920   1.165
 3572TIP3   OH210679   5.305   3.594   1.311
 3572TIP3    H110680   5.302   3.682   1.354
 3572TIP3    H210681   5.400   3.575   1.321
 3573TIP3   OH210682   6.557   4.082   2.204
 3573TIP3    H110683   6.459   4.084   2.213
 3573TIP3    H210684   6.564   4.034   2.120
 3574TIP3   OH210685   6.200   4.286   1.594
 3574TIP3    H110686   6.129   4.222   1.611
 3574TIP3    H210687   6.275   4.245   1.644
 3575TIP3   OH210688   4.925   4.501   1.065
 3575TIP3    H110689   4.999   4.564   1.077
 3575TIP3    H210690   4.967   4.441   1.000
 3576TIP3   OH210691   4.862   3.782   1.202
 3576TIP3    H110692   4.867   3.880   1.200
 3576TIP3    H210693   4.780   3.766   1.154
 3577TIP3   OH210694   6.178   5.239   1.544
 3577TIP3    H110695   6.135   5.286   1.469
 3577TIP3    H210696   6.272   5.257   1.524
 3578TIP3   OH210697   5.249   3.502   2.071
 3578TIP3    H110698   5.233   3.460   1.983
 3578TIP3    H210699   5.248   3.422   2.128
 3579TIP3   OH210700   4.788   4.719   1.449
 3579TIP3    H110701   4.728   4.749   1.519
 3579TIP3    H210702   4.750   4.764   1.369
 3580TIP3   OH210703   4.953   5.271   2.524
 3580TIP3    H110704   5.039   5.269   2.571
 3580TIP3    H210705   4.930   5.176   2.524
 3581TIP3   OH210706   5.430   5.225   2.567
 3581TIP3    H110707   5.523   5.201   2.574
 3581TIP3    H210708   5.400   5.162   2.498
 3582TIP3   OH210709   5.412   4.798   0.697
 3582TIP3    H110710   5.363   4.724   0.739
 3582TIP3    H210711   5.491   4.751   0.664
 3583TIP3   OH210712   6.066   5.137   2.307
 3583TIP3    H110713   6.060   5.066   2.375
 3583TIP3    H210714   6.145   5.186   2.335
 3584TIP3   OH210715   5.862   4.862   0.646
 3584TIP3    H110716   5.882   4.790   0.710
 3584TIP3    H210717   5.950   4.903   0.638
 3585TIP3   OH210718   5.082   4.682   2.724
 3585TIP3    H110719   5.094   4.594   2.763
 3585TIP3    H210720   4.995   4.673   2.679
 3586TIP3   OH210721   5.060   4.315   0.924
 3586TIP3    H110722   5.116   4.285   0.998
 3586TIP3    H210723   5.127   4.321   0.853
 3587TIP3   OH210724   5.687   4.759   2.500
 3587TIP3    H110725   5.645   4.779   2.414
 3587TIP3    H210726   5.717   4.666   2.489
 3588TIP3   OH210727   5.568   4.518   0.728
 3588TIP3    H110728   5.574   4.527   0.825
 3588TIP3    H210729   5.571   4.420   0.720
 3589TIP3   OH210730   6.180   4.772   2.110
 3589TIP3    H110731   6.257   4.812   2.065
 3589TIP3    H210732   6.111   4.838   2.089
 3590TIP3   OH210733   5.172   4.384   2.707
 3590TIP3    H110734   5.240   4.316   2.704
 3590TIP3    H210735   5.196   4.426   2.793
 3591TIP3   OH210736   5.259   4.228   1.137
 3591TIP3    H110737   5.236   4.188   1.223
 3591TIP3    H210738   5.301   4.152   1.090
 3592TIP3   OH210739   5.531   4.286   2.370
 3592TIP3    H110740   5.455   4.349   2.370
 3592TIP3    H210741   5.585   4.323   2.296
 3593TIP3   OH210742   5.369   4.023   0.981
 3593TIP3    H110743   5.346   4.031   0.886
 3593TIP3    H210744   5.467   4.021   0.975
 3594TIP3   OH210745   6.056   4.693   2.502
 3594TIP3    H110746   6.129   4.655   2.450
 3594TIP3    H210747   6.046   4.627   2.573
 3595TIP3   OH210748   6.194   4.327   0.653
 3595TIP3    H110749   6.227   4.273   0.578
 3595TIP3    H210750   6.158   4.408   0.611
 3596TIP3   OH210751   5.664   4.082   2.491
 3596TIP3    H110752   5.661   4.002   2.435
 3596TIP3    H210753   5.615   4.147   2.435
 3597TIP3   OH210754   5.661   3.868   2.306
 3597TIP3    H110755   5.691   3.906   2.221
 3597TIP3    H210756   5.569   3.842   2.285
 3598TIP3   OH210757   5.682   4.400   2.181
 3598TIP3    H110758   5.769   4.409   2.140
 3598TIP3    H210759   5.628   4.464   2.130
 3599TIP3   OH210760   6.269   4.365   2.555
 3599TIP3    H110761   6.312   4.278   2.557
 3599TIP3    H210762   6.338   4.420   2.514
 3600TIP3   OH210763   6.306   4.623   2.297
 3600TIP3    H110764   6.250   4.678   2.237
 3600TIP3    H210765   6.395   4.643   2.258
 3601TIP3   OH210766   5.545   4.188   2.730
 3601TIP3    H110767   5.480   4.115   2.742
 3601TIP3    H210768   5.574   4.171   2.638
 3602TIP3   OH210769   5.794   3.628   2.377
 3602TIP3    H110770   5.742   3.708   2.352
 3602TIP3    H210771   5.727   3.557   2.363
 3603TIP3   OH210772   5.918   4.128   2.590
 3603TIP3    H110773   5.897   4.111   2.683
 3603TIP3    H210774   5.831   4.106   2.550
 3604TIP3   OH210775   6.160   4.091   2.449
 3604TIP3    H110776   6.084   4.085   2.510
 3604TIP3    H210777   6.234   4.056   2.502
 3605TIP3   OH210778   6.388   4.024   2.594
 3605TIP3    H110779   6.401   3.928   2.606
 3605TIP3    H210780   6.385   4.057   2.686
 3606TIP3   OH210781   5.393   3.968   2.772
 3606TIP3    H110782   5.372   3.877   2.745
 3606TIP3    H210783   5.394   3.960   2.869
 3607TIP3   OH210784   5.884   3.635   2.635
 3607TIP3    H110785   5.949   3.563   2.626
 3607TIP3    H210786   5.844   3.633   2.546
 3608TIP3   OH210787   5.953   3.850   2.792
 3608TIP3    H110788   5.932   3.779   2.727
 3608TIP3    H210789   5.875   3.908   2.784
 3609TIP3   OH210790   5.172   5.084   0.887
 3609TIP3    H110791   5.267   5.069   0.872
 3609TIP3    H210792   5.151   5.138   0.809
 3610TIP3   OH210793   4.654   4.465   1.099
 3610TIP3    H110794   4.750   4.485   1.086
 3610TIP3    H210795   4.648   4.375   1.061
 3611TIP3   OH210796   4.574   5.074   1.520
 3611TIP3    H110797   4.507   5.014   1.481
 3611TIP3    H210798   4.617   5.013   1.585
 3612TIP3   OH210799   4.706   4.918   1.707
 3612TIP3    H110800   4.693   4.850   1.775
 3612TIP3    H210801   4.758   4.982   1.757
 3613TIP3   OH210802   6.434   5.325   1.508
 3613TIP3    H110803   6.462   5.356   1.596
 3613TIP3    H210804   6.501   5.363   1.449
 3614TIP3   OH210805   6.461   5.343   1.791
 3614TIP3    H110806   6.414   5.257   1.784
 3614TIP3    H210807   6.534   5.316   1.849
 3615TIP3   OH210808   6.507   5.022   2.363
 3615TIP3    H110809   6.436   5.033   2.429
 3615TIP3    H210810   6.551   5.110   2.366
 3616TIP3   OH210811   6.325   4.537   0.980
 3616TIP3    H110812   6.394   4.600   0.949
 3616TIP3    H210813   6.369   4.498   1.059
 3617TIP3   OH210814   6.450   4.405   1.185
 3617TIP3    H110815   6.385   4.363   1.245
 3617TIP3    H210816   6.516   4.442   1.247
 3618TIP3   OH210817   6.512   4.796   1.615
 3618TIP3    H110818   6.562   4.725   1.571
 3618TIP3    H210819   6.507   4.865   1.546
 3619TIP3   OH210820   6.334   5.096   1.808
 3619TIP3    H110821   6.261   5.135   1.860
 3619TIP3    H210822   6.286   5.050   1.736
 3620TIP3   OH210823   6.392   4.308   0.836
 3620TIP3    H110824   6.320   4.302   0.770
 3620TIP3    H210825   6.360   4.386   0.886
 3621TIP3   OH210826   6.253   3.984   0.797
 3621TIP3    H110827   6.242   4.030   0.712
 3621TIP3    H210828   6.222   3.894   0.775
 3622TIP3   OH210829   6.264   4.262   1.328
 3622TIP3    H110830   6.272   4.166   1.322
 3622TIP3    H210831   6.245   4.275   1.424
 3623TIP3   OH210832   4.888   4.330   2.080
 3623TIP3    H110833   4.886   4.296   1.988
 3623TIP3    H210834   4.986   4.333   2.096
 3624TIP3   OH210835   6.553   4.689   2.189
 3624TIP3    H110836   6.622   4.619   2.179
 3624TIP3    H210837   6.576   4.751   2.119
 3625TIP3   OH210838   6.733   4.489   2.200
 3625TIP3    H110839   6.657   4.438   2.236
 3625TIP3    H210840   6.806   4.426   2.219
 3626TIP3   OH210841   6.200   3.713   0.750
 3626TIP3    H110842   6.273   3.694   0.813
 3626TIP3    H210843   6.127   3.659   0.786
 3627TIP3   OH210844   6.268   3.971   1.222
 3627TIP3    H110845   6.313   3.885   1.240
 3627TIP3    H210846   6.321   4.004   1.148
 3628TIP3   OH210847   6.414   4.181   1.722
 3628TIP3    H110848   6.503   4.192   1.683
 3628TIP3    H210849   6.436   4.192   1.816
 3629TIP3   OH210850   6.502   4.299   1.961
 3629TIP3    H110851   6.419   4.331   2.000
 3629TIP3    H210852   6.531   4.377   1.909
 3630TIP3   OH210853   6.932   3.894   2.509
 3630TIP3    H110854   6.998   3.832   2.471
 3630TIP3    H210855   6.904   3.944   2.429
 3631TIP3   OH210856   6.387   3.728   1.288
 3631TIP3    H110857   6.424   3.712   1.379
 3631TIP3    H210858   6.328   3.650   1.282
 3632TIP3   OH210859   5.067   3.712   2.084
 3632TIP3    H110860   5.126   3.633   2.088
 3632TIP3    H210861   5.134   3.782   2.072
 3633TIP3   OH210862   4.868   3.985   2.152
 3633TIP3    H110863   4.920   3.977   2.069
 3633TIP3    H210864   4.899   4.069   2.186
 3634TIP3   OH210865   6.806   4.021   2.304
 3634TIP3    H110866   6.716   4.062   2.306
 3634TIP3    H210867   6.785   3.943   2.249
 3635TIP3   OH210868   6.441   3.674   0.892
 3635TIP3    H110869   6.477   3.595   0.846
 3635TIP3    H210870   6.520   3.729   0.904
 3636TIP3   OH210871   4.857   3.493   1.657
 3636TIP3    H110872   4.764   3.484   1.683
 3636TIP3    H210873   4.851   3.548   1.576
 3637TIP3   OH210874   6.018   5.194   1.161
 3637TIP3    H110875   6.070   5.184   1.079
 3637TIP3    H210876   6.070   5.259   1.211
 3638TIP3   OH210877   5.084   3.568   2.469
 3638TIP3    H110878   5.035   3.567   2.553
 3638TIP3    H210879   5.015   3.602   2.407
 3639TIP3   OH210880   5.114   5.003   2.545
 3639TIP3    H110881   5.022   4.976   2.529
 3639TIP3    H210882   5.129   4.971   2.635
 3640TIP3   OH210883   5.298   5.035   2.094
 3640TIP3    H110884   5.250   5.110   2.054
 3640TIP3    H210885   5.383   5.047   2.049
 3641TIP3   OH210886   5.735   5.275   2.232
 3641TIP3    H110887   5.778   5.271   2.320
 3641TIP3    H210888   5.801   5.326   2.181
 3642TIP3   OH210889   5.915   5.430   2.094
 3642TIP3    H110890   5.982   5.377   2.048
 3642TIP3    H210891   5.971   5.483   2.154
 3643TIP3   OH210892   6.710   3.785   2.193
 3643TIP3    H110893   6.622   3.776   2.151
 3643TIP3    H210894   6.745   3.694   2.181
 3644TIP3   OH210895   4.969   5.288   2.116
 3644TIP3    H110896   4.879   5.320   2.095
 3644TIP3    H210897   4.980   5.326   2.204
 3645TIP3   OH210898   5.208   5.268   1.979
 3645TIP3    H110899   5.119   5.279   2.021
 3645TIP3    H210900   5.189   5.297   1.887
 3646TIP3   OH210901   5.632   5.293   1.776
 3646TIP3    H110902   5.561   5.306   1.710
 3646TIP3    H210903   5.641   5.382   1.814
 3647TIP3   OH210904   5.901   5.232   1.831
 3647TIP3    H110905   5.809   5.249   1.807
 3647TIP3    H210906   5.949   5.300   1.781
 3648TIP3   OH210907   6.103   5.419   1.738
 3648TIP3    H110908   6.092   5.503   1.689
 3648TIP3    H210909   6.133   5.359   1.666
 3649TIP3   OH210910   4.882   5.079   1.861
 3649TIP3    H110911   4.908   5.049   1.951
 3649TIP3    H210912   4.954   5.035   1.810
 3650TIP3   OH210913   5.079   4.952   1.722
 3650TIP3    H110914   5.092   4.868   1.772
 3650TIP3    H210915   5.170   4.986   1.718
 3651TIP3   OH210916   5.347   5.042   1.728
 3651TIP3    H110917   5.375   4.949   1.718
 3651TIP3    H210918   5.396   5.065   1.809
 3652TIP3   OH210919   5.885   3.696   1.794
 3652TIP3    H110920   5.860   3.626   1.858
 3652TIP3    H210921   5.968   3.660   1.756
 3653TIP3   OH210922   5.176   3.390   1.825
 3653TIP3    H110923   5.086   3.353   1.831
 3653TIP3    H210924   5.230   3.310   1.846
 3654TIP3   OH210925   4.925   3.287   1.456
 3654TIP3    H110926   4.976   3.340   1.394
 3654TIP3    H210927   4.925   3.342   1.536
 3655TIP3   OH210928   5.607   3.447   1.705
 3655TIP3    H110929   5.666   3.494   1.644
 3655TIP3    H210930   5.642   3.473   1.792
 3656TIP3   OH210931   6.110   3.587   1.683
 3656TIP3    H110932   6.201   3.584   1.646
 3656TIP3    H210933   6.110   3.506   1.738
 3657TIP3   OH210934   6.189   3.516   1.252
 3657TIP3    H110935   6.107   3.562   1.277
 3657TIP3    H210936   6.177   3.432   1.300
 3658TIP3   OH210937   4.670   4.856   1.248
 3658TIP3    H110938   4.584   4.823   1.217
 3658TIP3    H210939   4.660   4.951   1.226
 3659TIP3   OH210940   5.075   3.442   1.232
 3659TIP3    H110941   5.123   3.376   1.178
 3659TIP3    H210942   5.150   3.494   1.269
 3660TIP3   OH210943   5.582   3.618   1.336
 3660TIP3    H110944   5.641   3.572   1.398
 3660TIP3    H210945   5.603   3.711   1.361
 3661TIP3   OH210946   5.435   5.033   0.838
 3661TIP3    H110947   5.522   5.060   0.802
 3661TIP3    H210948   5.418   4.955   0.779
 3662TIP3   OH210949   6.164   5.152   0.929
 3662TIP3    H110950   6.156   5.054   0.928
 3662TIP3    H210951   6.110   5.174   0.850
 3663TIP3   OH210952   5.370   3.691   2.711
 3663TIP3    H110953   5.331   3.626   2.772
 3663TIP3    H210954   5.463   3.693   2.742
 3664TIP3   OH210955   5.619   3.690   2.837
 3664TIP3    H110956   5.703   3.669   2.792
 3664TIP3    H210957   5.613   3.618   2.903
 3665TIP3   OH210958   4.746   4.874   0.889
 3665TIP3    H110959   4.746   4.892   0.984
 3665TIP3    H210960   4.835   4.834   0.875
 3666TIP3   OH210961   6.452   3.753   2.621
 3666TIP3    H110962   6.470   3.722   2.712
 3666TIP3    H210963   6.542   3.749   2.580
 3667TIP3   OH210964   6.383   5.302   2.116
 3667TIP3    H110965   6.306   5.272   2.064
 3667TIP3    H210966   6.364   5.398   2.122
 3668TIP3   OH210967   6.954   4.586   1.623
 3668TIP3    H110968   6.980   4.505   1.669
 3668TIP3    H210969   6.999   4.653   1.678
 3669TIP3   OH210970   6.932   4.979   1.354
 3669TIP3    H110971   6.922   4.882   1.338
 3669TIP3    H210972   6.997   4.977   1.427
 3670TIP3   OH210973   6.636   4.201   1.127
 3670TIP3    H110974   6.576   4.277   1.140
 3670TIP3    H210975   6.571   4.130   1.112
 3671TIP3   OH210976   6.686   4.482   1.309
 3671TIP3    H110977   6.729   4.398   1.339
 3671TIP3    H210978   6.748   4.513   1.242
 3672TIP3   OH210979   6.811   4.259   1.404
 3672TIP3    H110980   6.896   4.236   1.446
 3672TIP3    H210981   6.815   4.199   1.327
 3673TIP3   OH210982   7.124   4.026   1.743
 3673TIP3    H110983   7.066   4.082   1.690
 3673TIP3    H210984   7.096   4.050   1.834
 3674TIP3   OH210985   7.041   4.160   1.512
 3674TIP3    H110986   7.085   4.248   1.508
 3674TIP3    H210987   7.119   4.104   1.494
 3675TIP3   OH210988   7.109   5.009   1.593
 3675TIP3    H110989   7.104   5.106   1.598
 3675TIP3    H210990   7.055   4.985   1.671
 3676TIP3   OH210991   6.528   4.713   0.871
 3676TIP3    H110992   6.486   4.761   0.799
 3676TIP3    H210993   6.567   4.787   0.922
 3677TIP3   OH210994   7.016   4.579   1.130
 3677TIP3    H110995   6.994   4.528   1.050
 3677TIP3    H210996   7.110   4.600   1.114
 3678TIP3   OH210997   7.063   4.694   1.857
 3678TIP3    H110998   7.090   4.774   1.906
 3678TIP3    H210999   6.978   4.673   1.902
 3679TIP3   OH211000   7.119   5.325   1.871
 3679TIP3    H111001   7.092   5.292   1.784
 3679TIP3    H211002   7.047   5.296   1.929
 3680TIP3   OH211003   6.929   4.428   0.910
 3680TIP3    H111004   6.873   4.484   0.853
 3680TIP3    H211005   6.874   4.350   0.918
 3681TIP3   OH211006   6.713   4.835   1.812
 3681TIP3    H111007   6.644   4.814   1.746
 3681TIP3    H211008   6.746   4.746   1.837
 3682TIP3   OH211009   6.564   5.029   1.441
 3682TIP3    H111010   6.660   5.021   1.439
 3682TIP3    H211011   6.552   5.105   1.500
 3683TIP3   OH211012   6.722   5.241   0.984
 3683TIP3    H111013   6.785   5.229   1.058
 3683TIP3    H211014   6.683   5.152   0.979
 3684TIP3   OH211015   6.915   5.021   1.794
 3684TIP3    H111016   6.968   5.000   1.874
 3684TIP3    H211017   6.843   4.956   1.800
 3685TIP3   OH211018   7.167   4.398   1.534
 3685TIP3    H111019   7.148   4.411   1.629
 3685TIP3    H211020   7.227   4.471   1.515
 3686TIP3   OH211021   7.116   4.236   1.088
 3686TIP3    H111022   7.032   4.213   1.131
 3686TIP3    H211023   7.088   4.301   1.020
 3687TIP3   OH211024   7.101   4.381   1.807
 3687TIP3    H111025   7.101   4.456   1.868
 3687TIP3    H211026   7.076   4.306   1.866
 3688TIP3   OH211027   6.710   3.939   1.331
 3688TIP3    H111028   6.724   3.966   1.423
 3688TIP3    H211029   6.672   3.851   1.344
 3689TIP3   OH211030   6.640   3.912   0.916
 3689TIP3    H111031   6.663   3.955   0.831
 3689TIP3    H211032   6.568   3.971   0.945
 3690TIP3   OH211033   6.880   4.102   1.173
 3690TIP3    H111034   6.794   4.139   1.143
 3690TIP3    H211035   6.847   4.023   1.221
 3691TIP3   OH211036   6.976   4.133   0.606
 3691TIP3    H111037   6.892   4.097   0.637
 3691TIP3    H211038   7.022   4.048   0.586
 3692TIP3   OH211039   7.067   4.935   2.014
 3692TIP3    H111040   7.147   4.964   2.061
 3692TIP3    H211041   7.004   4.930   2.089
 3693TIP3   OH211042   6.936   4.708   1.354
 3693TIP3    H111043   6.966   4.661   1.273
 3693TIP3    H211044   6.960   4.645   1.424
 3694TIP3   OH211045   6.820   4.620   1.958
 3694TIP3    H111046   6.836   4.598   2.052
 3694TIP3    H211047   6.750   4.556   1.936
 3695TIP3   OH211048   6.622   4.311   0.681
 3695TIP3    H111049   6.663   4.395   0.709
 3695TIP3    H211050   6.542   4.311   0.738
 3696TIP3   OH211051   7.026   4.139   1.975
 3696TIP3    H111052   6.928   4.149   1.981
 3696TIP3    H211053   7.042   4.068   2.040
 3697TIP3   OH211054   6.760   5.206   1.590
 3697TIP3    H111055   6.815   5.136   1.629
 3697TIP3    H211056   6.781   5.281   1.647
 3698TIP3   OH211057   6.730   4.554   0.757
 3698TIP3    H111058   6.668   4.613   0.803
 3698TIP3    H211059   6.713   4.577   0.663
 3699TIP3   OH211060   6.677   4.044   0.678
 3699TIP3    H111061   6.663   4.141   0.678
 3699TIP3    H211062   6.606   4.016   0.617
 3700TIP3   OH211063   6.938   3.739   1.623
 3700TIP3    H111064   6.929   3.720   1.528
 3700TIP3    H211065   6.972   3.653   1.655
 3701TIP3   OH211066   6.584   4.972   0.948
 3701TIP3    H111067   6.520   5.007   1.011
 3701TIP3    H211068   6.557   5.018   0.865
 3702TIP3   OH211069   6.748   5.523   2.013
 3702TIP3    H111070   6.835   5.512   2.056
 3702TIP3    H211071   6.720   5.429   2.008
 3703TIP3   OH211072   6.874   4.925   2.215
 3703TIP3    H111073   6.889   4.829   2.223
 3703TIP3    H211074   6.788   4.928   2.168
 3704TIP3   OH211075   7.009   4.663   2.192
 3704TIP3    H111076   7.091   4.623   2.161
 3704TIP3    H211077   7.034   4.694   2.281
 3705TIP3   OH211078   7.272   4.489   2.177
 3705TIP3    H111079   7.218   4.416   2.213
 3705TIP3    H211080   7.355   4.439   2.163
 3706TIP3   OH211081   7.162   4.249   2.263
 3706TIP3    H111082   7.221   4.194   2.209
 3706TIP3    H211083   7.176   4.209   2.351
 3707TIP3   OH211084   6.364   5.328   1.003
 3707TIP3    H111085   6.297   5.263   0.971
 3707TIP3    H211086   6.412   5.273   1.068
 3708TIP3   OH211087   6.494   5.176   1.194
 3708TIP3    H111088   6.488   5.107   1.263
 3708TIP3    H211089   6.551   5.240   1.240
 3709TIP3   OH211090   6.685   4.586   1.565
 3709TIP3    H111091   6.680   4.556   1.471
 3709TIP3    H211092   6.783   4.593   1.576
 3710TIP3   OH211093   6.893   4.278   2.251
 3710TIP3    H111094   6.990   4.271   2.241
 3710TIP3    H211095   6.872   4.188   2.283
 3711TIP3   OH211096   6.817   3.985   1.586
 3711TIP3    H111097   6.856   3.898   1.611
 3711TIP3    H211098   6.896   4.035   1.560
 3712TIP3   OH211099   6.668   4.245   1.649
 3712TIP3    H111100   6.709   4.218   1.565
 3712TIP3    H211101   6.707   4.331   1.663
 3713TIP3   OH211102   6.639   3.722   1.120
 3713TIP3    H111103   6.561   3.733   1.177
 3713TIP3    H211104   6.646   3.808   1.074
 3714TIP3   OH211105   6.863   3.821   1.956
 3714TIP3    H111106   6.817   3.828   2.041
 3714TIP3    H211107   6.802   3.871   1.897
 3715TIP3   OH211108   6.907   5.262   2.047
 3715TIP3    H111109   6.819   5.232   2.017
 3715TIP3    H211110   6.914   5.220   2.133
 3716TIP3   OH211111   7.086   5.285   1.579
 3716TIP3    H111112   7.033   5.356   1.537
 3716TIP3    H211113   7.174   5.310   1.549
 3717TIP3   OH211114   6.767   5.543   1.612
 3717TIP3    H111115   6.678   5.575   1.585
 3717TIP3    H211116   6.777   5.588   1.696
 3718TIP3   OH211117   6.983   5.506   1.451
 3718TIP3    H111118   6.909   5.523   1.513
 3718TIP3    H211119   6.947   5.545   1.370
 3719TIP3   OH211120   6.678   5.333   1.350
 3719TIP3    H111121   6.706   5.302   1.438
 3719TIP3    H211122   6.746   5.288   1.295
 3720TIP3   OH211123   6.873   5.200   1.213
 3720TIP3    H111124   6.878   5.111   1.258
 3720TIP3    H211125   6.966   5.224   1.216
 3721TIP3   OH211126   6.964   3.683   1.358
 3721TIP3    H111127   6.878   3.635   1.343
 3721TIP3    H211128   7.001   3.687   1.268
 3722TIP3   OH211129   6.724   3.526   0.960
 3722TIP3    H111130   6.750   3.581   0.884
 3722TIP3    H211131   6.699   3.595   1.027
 3723TIP3   OH211132   6.468   5.113   0.751
 3723TIP3    H111133   6.414   5.071   0.683
 3723TIP3    H211134   6.430   5.201   0.759
 3724TIP3   OH211135   6.811   3.688   0.748
 3724TIP3    H111136   6.906   3.666   0.743
 3724TIP3    H211137   6.812   3.777   0.787
 3725TIP3   OH211138   7.132   3.913   2.176
 3725TIP3    H111139   7.103   3.852   2.247
 3725TIP3    H211140   7.218   3.943   2.212
 3726TIP3   OH211141   0.119   5.423   2.581
 3726TIP3    H111142   0.100   5.518   2.591
 3726TIP3    H211143   0.034   5.392   2.545
 3727TIP3   OH211144   0.155   5.438   2.932
 3727TIP3    H111145   0.138   5.430   3.028
 3727TIP3    H211146   0.163   5.343   2.908
 3728TIP3   OH211147   0.352   5.758   2.633
 3728TIP3    H111148   0.344   5.688   2.700
 3728TIP3    H211149   0.391   5.830   2.685
 3729TIP3   OH211150   0.923   5.007   3.001
 3729TIP3    H111151   0.953   5.091   3.042
 3729TIP3    H211152   0.933   5.028   2.907
 3730TIP3   OH211153   0.371   5.193   3.030
 3730TIP3    H111154   0.406   5.102   3.034
 3730TIP3    H211155   0.277   5.175   3.008
 3731TIP3   OH211156   0.360   4.927   2.613
 3731TIP3    H111157   0.425   4.915   2.686
 3731TIP3    H211158   0.418   4.968   2.546
 3732TIP3   OH211159   0.998   5.219   3.167
 3732TIP3    H111160   0.912   5.261   3.145
 3732TIP3    H211161   1.007   5.247   3.260
 3733TIP3   OH211162   0.555   4.945   2.800
 3733TIP3    H111163   0.529   4.911   2.886
 3733TIP3    H211164   0.600   5.029   2.825
 3734TIP3   OH211165   0.407   6.018   2.805
 3734TIP3    H111166   0.313   6.002   2.815
 3734TIP3    H211167   0.407   6.105   2.759
 3735TIP3   OH211168   0.714   4.908   3.166
 3735TIP3    H111169   0.625   4.929   3.132
 3735TIP3    H211170   0.773   4.941   3.095
 3736TIP3   OH211171   0.056   4.551   3.158
 3736TIP3    H111172   0.029   4.476   3.100
 3736TIP3    H211173  -0.032   4.582   3.187
 3737TIP3   OH211174   0.161   6.051   2.501
 3737TIP3    H111175   0.202   5.972   2.460
 3737TIP3    H211176   0.192   6.120   2.439
 3738TIP3   OH211177   0.273   5.830   2.377
 3738TIP3    H111178   0.268   5.749   2.324
 3738TIP3    H211179   0.297   5.795   2.465
 3739TIP3   OH211180   0.649   5.919   3.144
 3739TIP3    H111181   0.631   5.841   3.088
 3739TIP3    H211182   0.630   5.992   3.081
 3740TIP3   OH211183  -0.069   5.308   2.398
 3740TIP3    H111184  -0.145   5.367   2.387
 3740TIP3    H211185  -0.018   5.321   2.316
 3741TIP3   OH211186  -0.040   5.066   2.137
 3741TIP3    H111187   0.015   5.135   2.180
 3741TIP3    H211188   0.029   5.023   2.082
 3742TIP3   OH211189   0.841   5.563   2.992
 3742TIP3    H111190   0.755   5.611   2.997
 3742TIP3    H211191   0.869   5.588   2.901
 3743TIP3   OH211192   0.297   5.399   2.377
 3743TIP3    H111193   0.241   5.408   2.458
 3743TIP3    H211194   0.382   5.372   2.419
 3744TIP3   OH211195   0.558   5.446   3.300
 3744TIP3    H111196   0.539   5.522   3.358
 3744TIP3    H211197   0.473   5.442   3.249
 3745TIP3   OH211198   0.137   5.262   2.205
 3745TIP3    H111199   0.197   5.323   2.254
 3745TIP3    H211200   0.164   5.280   2.111
 3746TIP3   OH211201   0.643   4.506   2.263
 3746TIP3    H111202   0.557   4.529   2.304
 3746TIP3    H211203   0.652   4.572   2.192
 3747TIP3   OH211204   0.440   5.853   1.806
 3747TIP3    H111205   0.449   5.947   1.779
 3747TIP3    H211206   0.531   5.821   1.789
 3748TIP3   OH211207   0.880   6.270   3.195
 3748TIP3    H111208   0.880   6.173   3.210
 3748TIP3    H211209   0.797   6.294   3.242
 3749TIP3   OH211210   0.768   5.394   3.473
 3749TIP3    H111211   0.690   5.406   3.414
 3749TIP3    H211212   0.785   5.299   3.458
 3750TIP3   OH211213   0.292   4.743   3.499
 3750TIP3    H111214   0.380   4.713   3.529
 3750TIP3    H211215   0.254   4.771   3.583
 3751TIP3   OH211216   0.537   5.167   3.396
 3751TIP3    H111217   0.482   5.155   3.477
 3751TIP3    H211218   0.497   5.247   3.357
 3752TIP3   OH211219   0.208   5.295   1.948
 3752TIP3    H111220   0.203   5.243   1.866
 3752TIP3    H211221   0.261   5.370   1.917
 3753TIP3   OH211222  -0.084   4.681   2.199
 3753TIP3    H111223  -0.077   4.679   2.297
 3753TIP3    H211224  -0.141   4.601   2.191
 3754TIP3   OH211225   0.046   5.098   2.532
 3754TIP3    H111226   0.006   5.176   2.489
 3754TIP3    H211227   0.113   5.072   2.465
 3755TIP3   OH211228   0.264   5.401   3.683
 3755TIP3    H111229   0.279   5.336   3.755
 3755TIP3    H211230   0.356   5.415   3.654
 3756TIP3   OH211231   0.263   5.167   2.716
 3756TIP3    H111232   0.181   5.181   2.666
 3756TIP3    H211233   0.283   5.074   2.695
 3757TIP3   OH211234   0.320   5.410   3.183
 3757TIP3    H111235   0.340   5.335   3.122
 3757TIP3    H211236   0.268   5.364   3.252
 3758TIP3   OH211237   0.413   4.919   3.067
 3758TIP3    H111238   0.382   4.935   3.160
 3758TIP3    H211239   0.339   4.865   3.035
 3759TIP3   OH211240   0.578   6.610   3.276
 3759TIP3    H111241   0.575   6.628   3.180
 3759TIP3    H211242   0.654   6.665   3.302
 3760TIP3   OH211243   0.100   5.168   2.983
 3760TIP3    H111244   0.057   5.116   2.913
 3760TIP3    H211245   0.023   5.194   3.037
 3761TIP3   OH211246   0.606   5.705   2.977
 3761TIP3    H111247   0.630   5.756   2.897
 3761TIP3    H211248   0.524   5.659   2.948
 3762TIP3   OH211249   0.166   4.793   2.170
 3762TIP3    H111250   0.073   4.775   2.190
 3762TIP3    H211251   0.182   4.880   2.223
 3763TIP3   OH211252   0.237   5.021   2.318
 3763TIP3    H111253   0.331   5.024   2.342
 3763TIP3    H211254   0.226   5.107   2.273
 3764TIP3   OH211255   0.677   5.115   2.150
 3764TIP3    H111256   0.610   5.077   2.088
 3764TIP3    H211257   0.675   5.207   2.115
 3765TIP3   OH211258   0.897   5.985   3.230
 3765TIP3    H111259   0.800   5.973   3.223
 3765TIP3    H211260   0.924   5.950   3.142
 3766TIP3   OH211261   0.388   5.937   2.070
 3766TIP3    H111262   0.346   5.876   2.133
 3766TIP3    H211263   0.399   5.882   1.990
 3767TIP3   OH211264   0.386   5.576   2.873
 3767TIP3    H111265   0.300   5.539   2.902
 3767TIP3    H211266   0.426   5.494   2.837
 3768TIP3   OH211267   0.257   5.784   3.164
 3768TIP3    H111268   0.167   5.775   3.199
 3768TIP3    H211269   0.259   5.714   3.098
 3769TIP3   OH211270   0.153   5.612   1.975
 3769TIP3    H111271   0.196   5.605   2.063
 3769TIP3    H211272   0.069   5.654   1.996
 3770TIP3   OH211273   0.413   6.298   3.120
 3770TIP3    H111274   0.333   6.282   3.172
 3770TIP3    H211275   0.385   6.372   3.063
 3771TIP3   OH211276   0.470   6.126   1.762
 3771TIP3    H111277   0.514   6.182   1.694
 3771TIP3    H211278   0.430   6.191   1.821
 3772TIP3   OH211279   0.306   5.608   2.204
 3772TIP3    H111280   0.298   5.535   2.269
 3772TIP3    H211281   0.401   5.600   2.180
 3773TIP3   OH211282   0.333   4.961   3.325
 3773TIP3    H111283   0.392   5.023   3.371
 3773TIP3    H211284   0.315   4.895   3.394
 3774TIP3   OH211285   0.229   4.730   2.482
 3774TIP3    H111286   0.202   4.776   2.402
 3774TIP3    H211287   0.270   4.804   2.534
 3775TIP3   OH211288  -0.072   4.858   2.617
 3775TIP3    H111289  -0.028   4.940   2.587
 3775TIP3    H211290  -0.159   4.890   2.649
 3776TIP3   OH211291   0.246   5.257   3.400
 3776TIP3    H111292   0.211   5.282   3.486
 3776TIP3    H211293   0.201   5.172   3.383
 3777TIP3   OH211294   0.111   4.625   2.711
 3777TIP3    H111295   0.111   4.704   2.768
 3777TIP3    H211296   0.130   4.664   2.623
 3778TIP3   OH211297   0.804   5.130   3.387
 3778TIP3    H111298   0.706   5.131   3.398
 3778TIP3    H211299   0.810   5.079   3.305
 3779TIP3   OH211300   0.473   5.334   2.775
 3779TIP3    H111301   0.391   5.280   2.774
 3779TIP3    H211302   0.532   5.278   2.830
 3780TIP3   OH211303   0.426   6.283   2.729
 3780TIP3    H111304   0.381   6.323   2.651
 3780TIP3    H211305   0.519   6.303   2.706
 3781TIP3   OH211306   0.306   6.220   3.482
 3781TIP3    H111307   0.304   6.124   3.481
 3781TIP3    H211308   0.395   6.240   3.516
 3782TIP3   OH211309   0.462   5.844   3.334
 3782TIP3    H111310   0.532   5.882   3.277
 3782TIP3    H211311   0.391   5.826   3.269
 3783TIP3   OH211312   0.349   5.708   3.679
 3783TIP3    H111313   0.430   5.685   3.630
 3783TIP3    H211314   0.351   5.644   3.752
 3784TIP3   OH211315   0.554   5.404   3.722
 3784TIP3    H111316   0.589   5.313   3.729
 3784TIP3    H211317   0.619   5.444   3.662
 3785TIP3   OH211318   0.572   5.659   3.492
 3785TIP3    H111319   0.519   5.727   3.443
 3785TIP3    H211320   0.658   5.674   3.448
 3786TIP3   OH211321   0.420   5.098   3.628
 3786TIP3    H111322   0.360   5.111   3.705
 3786TIP3    H211323   0.504   5.081   3.675
 3787TIP3   OH211324   0.653   5.075   3.780
 3787TIP3    H111325   0.658   4.977   3.790
 3787TIP3    H211326   0.628   5.104   3.870
 3788TIP3   OH211327   0.159   4.645   3.783
 3788TIP3    H111328   0.231   4.579   3.791
 3788TIP3    H211329   0.081   4.586   3.776
 3789TIP3   OH211330   0.147   4.909   4.021
 3789TIP3    H111331   0.179   4.859   3.944
 3789TIP3    H211332   0.186   4.997   4.002
 3790TIP3   OH211333   0.681   6.362   2.687
 3790TIP3    H111334   0.713   6.388   2.776
 3790TIP3    H211335   0.747   6.403   2.629
 3791TIP3   OH211336   0.735   6.365   2.964
 3791TIP3    H111337   0.683   6.282   2.958
 3791TIP3    H211338   0.803   6.337   3.028
 3792TIP3   OH211339   0.754   6.066   3.540
 3792TIP3    H111340   0.683   6.076   3.606
 3792TIP3    H211341   0.798   6.153   3.544
 3793TIP3   OH211342   0.575   5.576   2.154
 3793TIP3    H111343   0.642   5.640   2.123
 3793TIP3    H211344   0.620   5.535   2.230
 3794TIP3   OH211345   0.703   5.445   2.361
 3794TIP3    H111346   0.636   5.402   2.419
 3794TIP3    H211347   0.765   5.482   2.426
 3795TIP3   OH211348   0.758   5.843   2.790
 3795TIP3    H111349   0.810   5.772   2.748
 3795TIP3    H211350   0.758   5.913   2.722
 3796TIP3   OH211351   0.587   6.134   2.981
 3796TIP3    H111352   0.517   6.184   3.029
 3796TIP3    H211353   0.535   6.089   2.912
 3797TIP3   OH211354   0.636   5.350   1.996
 3797TIP3    H111355   0.577   5.334   1.919
 3797TIP3    H211356   0.592   5.425   2.040
 3798TIP3   OH211357   0.504   5.031   1.959
 3798TIP3    H111358   0.484   5.086   1.881
 3798TIP3    H211359   0.470   4.943   1.934
 3799TIP3   OH211360   0.518   5.304   2.507
 3799TIP3    H111361   0.518   5.207   2.503
 3799TIP3    H211362   0.504   5.320   2.604
 3800TIP3   OH211363   0.808   5.730   3.367
 3800TIP3    H111364   0.877   5.662   3.353
 3800TIP3    H211365   0.827   5.794   3.296
 3801TIP3   OH211366   0.984   5.526   3.370
 3801TIP3    H111367   0.910   5.477   3.411
 3801TIP3    H211368   1.058   5.463   3.390
 3802TIP3   OH211369   0.456   4.747   1.943
 3802TIP3    H111370   0.547   4.735   1.980
 3802TIP3    H211371   0.403   4.709   2.014
 3803TIP3   OH211372   0.509   5.020   2.394
 3803TIP3    H111373   0.550   4.931   2.410
 3803TIP3    H211374   0.568   5.053   2.325
 3804TIP3   OH211375   0.674   5.180   2.895
 3804TIP3    H111376   0.759   5.210   2.856
 3804TIP3    H211377   0.682   5.220   2.984
 3805TIP3   OH211378   0.751   5.335   3.120
 3805TIP3    H111379   0.680   5.368   3.178
 3805TIP3    H211380   0.780   5.417   3.076
 3806TIP3   OH211381   1.193   4.933   3.680
 3806TIP3    H111382   1.254   4.869   3.639
 3806TIP3    H211383   1.160   4.983   3.602
 3807TIP3   OH211384   0.618   4.773   2.436
 3807TIP3    H111385   0.664   4.757   2.521
 3807TIP3    H211386   0.558   4.695   2.435
 3808TIP3   OH211387   1.058   5.065   3.483
 3808TIP3    H111388   0.973   5.110   3.499
 3808TIP3    H211389   1.027   4.991   3.427
 3809TIP3   OH211390   0.703   4.687   2.049
 3809TIP3    H111391   0.740   4.606   2.008
 3809TIP3    H211392   0.775   4.750   2.039
 3810TIP3   OH211393   0.263   6.235   2.327
 3810TIP3    H111394   0.334   6.228   2.261
 3810TIP3    H211395   0.300   6.298   2.392
 3811TIP3   OH211396   0.960   4.829   3.368
 3811TIP3    H111397   0.872   4.817   3.330
 3811TIP3    H211398   0.996   4.737   3.359
 3812TIP3   OH211399   0.377   6.484   2.908
 3812TIP3    H111400   0.314   6.525   2.847
 3812TIP3    H211401   0.400   6.403   2.856
 3813TIP3   OH211402   0.173   4.750   2.996
 3813TIP3    H111403   0.131   4.677   3.044
 3813TIP3    H211404   0.245   4.704   2.949
 3814TIP3   OH211405   0.683   4.625   2.883
 3814TIP3    H111406   0.717   4.680   2.810
 3814TIP3    H211407   0.588   4.647   2.881
 3815TIP3   OH211408   0.782   4.732   2.651
 3815TIP3    H111409   0.857   4.679   2.617
 3815TIP3    H211410   0.815   4.824   2.640
 3816TIP3   OH211411  -0.100   4.447   2.956
 3816TIP3    H111412  -0.103   4.489   2.869
 3816TIP3    H211413  -0.183   4.478   2.994
 3817TIP3   OH211414   0.399   4.635   2.870
 3817TIP3    H111415   0.391   4.595   2.783
 3817TIP3    H211416   0.389   4.557   2.929
 3818TIP3   OH211417   0.432   4.562   2.430
 3818TIP3    H111418   0.350   4.611   2.451
 3818TIP3    H211419   0.415   4.476   2.474
 3819TIP3   OH211420  -0.080   4.622   2.464
 3819TIP3    H111421  -0.115   4.566   2.535
 3819TIP3    H211422  -0.098   4.710   2.504
 3820TIP3   OH211423   0.402   6.206   2.080
 3820TIP3    H111424   0.416   6.108   2.081
 3820TIP3    H211425   0.305   6.206   2.071
 3821TIP3   OH211426   0.699   4.798   3.796
 3821TIP3    H111427   0.716   4.766   3.887
 3821TIP3    H211428   0.788   4.793   3.756
 3822TIP3   OH211429   0.632   6.344   3.296
 3822TIP3    H111430   0.560   6.313   3.238
 3822TIP3    H211431   0.610   6.440   3.299
 3823TIP3   OH211432   1.906   5.725   2.052
 3823TIP3    H111433   1.869   5.813   2.028
 3823TIP3    H211434   1.832   5.668   2.024
 3824TIP3   OH211435   1.900   5.720   2.448
 3824TIP3    H111436   1.939   5.696   2.534
 3824TIP3    H211437   1.869   5.634   2.417
 3825TIP3   OH211438   1.197   5.611   2.806
 3825TIP3    H111439   1.224   5.539   2.866
 3825TIP3    H211440   1.276   5.667   2.809
 3826TIP3   OH211441   2.148   6.026   2.122
 3826TIP3    H111442   2.129   5.949   2.178
 3826TIP3    H211443   2.179   6.092   2.186
 3827TIP3   OH211444   1.173   6.025   2.521
 3827TIP3    H111445   1.164   5.927   2.523
 3827TIP3    H211446   1.269   6.034   2.524
 3828TIP3   OH211447   0.903   5.237   2.301
 3828TIP3    H111448   0.851   5.317   2.318
 3828TIP3    H211449   0.832   5.174   2.281
 3829TIP3   OH211450   0.936   5.519   2.491
 3829TIP3    H111451   0.986   5.440   2.520
 3829TIP3    H211452   0.996   5.559   2.427
 3830TIP3   OH211453   1.837   6.494   2.173
 3830TIP3    H111454   1.859   6.423   2.109
 3830TIP3    H211455   1.813   6.443   2.252
 3831TIP3   OH211456   1.701   5.946   2.487
 3831TIP3    H111457   1.742   5.866   2.451
 3831TIP3    H211458   1.782   5.995   2.511
 3832TIP3   OH211459   2.717   5.264   2.486
 3832TIP3    H111460   2.748   5.348   2.527
 3832TIP3    H211461   2.741   5.278   2.392
 3833TIP3   OH211462   2.117   5.449   2.514
 3833TIP3    H111463   2.160   5.364   2.534
 3833TIP3    H211464   2.077   5.429   2.427
 3834TIP3   OH211465   1.403   5.136   2.474
 3834TIP3    H111466   1.498   5.140   2.442
 3834TIP3    H211467   1.391   5.042   2.458
 3835TIP3   OH211468   2.146   5.196   2.103
 3835TIP3    H111469   2.217   5.183   2.170
 3835TIP3    H211470   2.199   5.226   2.028
 3836TIP3   OH211471   1.073   5.305   2.589
 3836TIP3    H111472   1.161   5.286   2.628
 3836TIP3    H211473   1.055   5.223   2.540
 3837TIP3   OH211474   1.532   5.501   2.386
 3837TIP3    H111475   1.629   5.500   2.403
 3837TIP3    H211476   1.519   5.406   2.370
 3838TIP3   OH211477   2.790   5.475   2.654
 3838TIP3    H111478   2.704   5.518   2.635
 3838TIP3    H211479   2.803   5.502   2.746
 3839TIP3   OH211480   1.448   5.092   2.920
 3839TIP3    H111481   1.388   5.130   2.853
 3839TIP3    H211482   1.396   5.107   3.001
 3840TIP3   OH211483   1.792   5.941   1.922
 3840TIP3    H111484   1.747   5.926   1.838
 3840TIP3    H211485   1.745   6.021   1.955
 3841TIP3   OH211486   1.555   5.867   2.708
 3841TIP3    H111487   1.495   5.935   2.746
 3841TIP3    H211488   1.597   5.915   2.634
 3842TIP3   OH211489   2.351   5.206   2.278
 3842TIP3    H111490   2.345   5.147   2.354
 3842TIP3    H211491   2.400   5.283   2.315
 3843TIP3   OH211492   1.310   5.213   2.708
 3843TIP3    H111493   1.377   5.281   2.734
 3843TIP3    H211494   1.347   5.188   2.620
 3844TIP3   OH211495   1.383   6.061   2.810
 3844TIP3    H111496   1.359   6.150   2.778
 3844TIP3    H211497   1.304   6.043   2.865
 3845TIP3   OH211498   0.774   5.752   2.045
 3845TIP3    H111499   0.732   5.782   1.962
 3845TIP3    H211500   0.808   5.836   2.082
 3846TIP3   OH211501   2.207   6.260   2.291
 3846TIP3    H111502   2.123   6.238   2.337
 3846TIP3    H211503   2.182   6.346   2.254
 3847TIP3   OH211504   2.508   5.167   2.653
 3847TIP3    H111505   2.420   5.190   2.617
 3847TIP3    H211506   2.568   5.199   2.582
 3848TIP3   OH211507   1.802   4.783   2.666
 3848TIP3    H111508   1.770   4.692   2.682
 3848TIP3    H211509   1.724   4.837   2.693
 3849TIP3   OH211510   1.911   6.318   1.972
 3849TIP3    H111511   1.955   6.231   1.957
 3849TIP3    H211512   1.975   6.375   1.923
 3850TIP3   OH211513   2.053   6.104   1.876
 3850TIP3    H111514   2.015   6.024   1.839
 3850TIP3    H211515   2.095   6.069   1.958
 3851TIP3   OH211516   2.442   6.174   2.632
 3851TIP3    H111517   2.428   6.095   2.575
 3851TIP3    H211518   2.425   6.246   2.569
 3852TIP3   OH211519   1.734   5.575   1.890
 3852TIP3    H111520   1.654   5.627   1.868
 3852TIP3    H211521   1.780   5.568   1.805
 3853TIP3   OH211522   1.687   5.362   1.598
 3853TIP3    H111523   1.753   5.410   1.650
 3853TIP3    H211524   1.745   5.297   1.551
 3854TIP3   OH211525   2.635   5.819   2.479
 3854TIP3    H111526   2.550   5.868   2.482
 3854TIP3    H211527   2.664   5.840   2.388
 3855TIP3   OH211528   2.083   5.657   1.856
 3855TIP3    H111529   2.028   5.678   1.935
 3855TIP3    H211530   2.167   5.630   1.900
 3856TIP3   OH211531   2.313   5.691   2.777
 3856TIP3    H111532   2.309   5.774   2.829
 3856TIP3    H211533   2.227   5.693   2.732
 3857TIP3   OH211534   1.319   5.647   2.280
 3857TIP3    H111535   1.275   5.588   2.215
 3857TIP3    H211536   1.395   5.593   2.309
 3858TIP3   OH211537   1.447   6.069   2.422
 3858TIP3    H111538   1.424   6.031   2.335
 3858TIP3    H211539   1.534   6.028   2.439
 3859TIP3   OH211540   1.447   5.624   2.630
 3859TIP3    H111541   1.483   5.599   2.543
 3859TIP3    H211542   1.492   5.710   2.648
 3860TIP3   OH211543   1.971   6.259   2.414
 3860TIP3    H111544   1.965   6.336   2.473
 3860TIP3    H211545   1.955   6.183   2.474
 3861TIP3   OH211546   1.591   6.176   2.953
 3861TIP3    H111547   1.532   6.237   3.003
 3861TIP3    H211548   1.524   6.124   2.904
 3862TIP3   OH211549   1.917   5.516   1.686
 3862TIP3    H111550   1.978   5.575   1.736
 3862TIP3    H211551   1.945   5.535   1.593
 3863TIP3   OH211552   1.343   5.735   3.061
 3863TIP3    H111553   1.347   5.824   3.102
 3863TIP3    H211554   1.249   5.713   3.078
 3864TIP3   OH211555   1.673   6.183   1.970
 3864TIP3    H111556   1.751   6.241   1.973
 3864TIP3    H211557   1.605   6.238   1.930
 3865TIP3   OH211558   1.383   6.338   3.043
 3865TIP3    H111559   1.346   6.343   2.953
 3865TIP3    H211560   1.303   6.324   3.098
 3866TIP3   OH211561   2.436   4.749   1.735
 3866TIP3    H111562   2.356   4.769   1.787
 3866TIP3    H211563   2.449   4.834   1.688
 3867TIP3   OH211564   1.174   5.494   2.086
 3867TIP3    H111565   1.116   5.546   2.026
 3867TIP3    H211566   1.119   5.417   2.101
 3868TIP3   OH211567   2.237   6.115   1.288
 3868TIP3    H111568   2.244   6.211   1.268
 3868TIP3    H211569   2.330   6.086   1.273
 3869TIP3   OH211570   0.960   5.879   2.990
 3869TIP3    H111571   0.891   5.858   2.924
 3869TIP3    H211572   0.998   5.791   3.011
 3870TIP3   OH211573   0.814   6.072   2.616
 3870TIP3    H111574   0.911   6.067   2.615
 3870TIP3    H211575   0.800   6.149   2.675
 3871TIP3   OH211576   2.675   6.526   2.676
 3871TIP3    H111577   2.678   6.430   2.694
 3871TIP3    H211578   2.593   6.550   2.723
 3872TIP3   OH211579   1.779   6.309   2.809
 3872TIP3    H111580   1.778   6.400   2.846
 3872TIP3    H211581   1.711   6.266   2.866
 3873TIP3   OH211582   1.433   6.437   1.760
 3873TIP3    H111583   1.450   6.406   1.670
 3873TIP3    H211584   1.514   6.489   1.776
 3874TIP3   OH211585   0.980   6.294   2.153
 3874TIP3    H111586   1.028   6.289   2.239
 3874TIP3    H211587   0.936   6.208   2.151
 3875TIP3   OH211588   1.747   6.346   1.393
 3875TIP3    H111589   1.802   6.274   1.354
 3875TIP3    H211590   1.782   6.348   1.485
 3876TIP3   OH211591   1.814   6.381   1.666
 3876TIP3    H111592   1.767   6.439   1.730
 3876TIP3    H211593   1.856   6.317   1.725
 3877TIP3   OH211594   2.565   5.651   2.953
 3877TIP3    H111595   2.481   5.658   2.906
 3877TIP3    H211596   2.584   5.555   2.944
 3878TIP3   OH211597   1.163   6.062   2.974
 3878TIP3    H111598   1.213   6.045   3.056
 3878TIP3    H211599   1.089   5.998   2.981
 3879TIP3   OH211600   1.556   4.879   2.767
 3879TIP3    H111601   1.465   4.851   2.742
 3879TIP3    H211602   1.534   4.963   2.814
 3880TIP3   OH211603   2.100   5.002   2.960
 3880TIP3    H111604   2.168   4.970   3.021
 3880TIP3    H211605   2.016   4.979   3.005
 3881TIP3   OH211606   2.336   5.430   2.879
 3881TIP3    H111607   2.282   5.426   2.962
 3881TIP3    H211608   2.310   5.515   2.840
 3882TIP3   OH211609   1.996   5.556   1.431
 3882TIP3    H111610   1.961   5.531   1.344
 3882TIP3    H211611   2.082   5.595   1.406
 3883TIP3   OH211612   1.708   4.933   1.735
 3883TIP3    H111613   1.674   4.932   1.827
 3883TIP3    H211614   1.670   4.849   1.703
 3884TIP3   OH211615   1.494   5.405   2.784
 3884TIP3    H111616   1.444   5.426   2.865
 3884TIP3    H211617   1.477   5.485   2.729
 3885TIP3   OH211618   1.877   5.382   2.030
 3885TIP3    H111619   1.821   5.445   1.980
 3885TIP3    H211620   1.924   5.336   1.958
 3886TIP3   OH211621   2.045   5.646   3.109
 3886TIP3    H111622   2.023   5.573   3.171
 3886TIP3    H211623   2.139   5.660   3.131
 3887TIP3   OH211624   2.033   5.400   2.256
 3887TIP3    H111625   1.966   5.420   2.188
 3887TIP3    H211626   2.068   5.317   2.216
 3888TIP3   OH211627   1.313   5.428   2.991
 3888TIP3    H111628   1.347   5.489   3.058
 3888TIP3    H211629   1.302   5.345   3.042
 3889TIP3   OH211630   1.361   4.902   1.694
 3889TIP3    H111631   1.348   4.892   1.790
 3889TIP3    H211632   1.284   4.958   1.671
 3890TIP3   OH211633   0.906   4.960   2.566
 3890TIP3    H111634   0.984   4.977   2.623
 3890TIP3    H211635   0.940   4.909   2.491
 3891TIP3   OH211636   0.918   4.970   2.110
 3891TIP3    H111637   0.927   4.987   2.013
 3891TIP3    H211638   0.833   5.017   2.123
 3892TIP3   OH211639   2.039   5.644   2.681
 3892TIP3    H111640   2.072   5.573   2.620
 3892TIP3    H211641   2.007   5.589   2.755
 3893TIP3   OH211642   2.211   5.190   2.564
 3893TIP3    H111643   2.166   5.200   2.651
 3893TIP3    H211644   2.164   5.113   2.527
 3894TIP3   OH211645   1.246   5.172   1.844
 3894TIP3    H111646   1.182   5.139   1.779
 3894TIP3    H211647   1.307   5.221   1.786
 3895TIP3   OH211648   2.363   6.875   2.776
 3895TIP3    H111649   2.351   6.907   2.685
 3895TIP3    H211650   2.447   6.921   2.797
 3896TIP3   OH211651   1.327   5.985   3.198
 3896TIP3    H111652   1.408   6.011   3.246
 3896TIP3    H211653   1.264   5.981   3.272
 3897TIP3   OH211654   1.786   5.437   2.461
 3897TIP3    H111655   1.829   5.371   2.405
 3897TIP3    H211656   1.782   5.389   2.546
 3898TIP3   OH211657   1.292   4.896   2.288
 3898TIP3    H111658   1.269   4.828   2.355
 3898TIP3    H211659   1.392   4.876   2.277
 3899TIP3   OH211660   1.763   5.345   2.744
 3899TIP3    H111661   1.673   5.378   2.761
 3899TIP3    H211662   1.820   5.406   2.794
 3900TIP3   OH211663   1.499   5.724   1.835
 3900TIP3    H111664   1.428   5.657   1.825
 3900TIP3    H211665   1.480   5.757   1.926
 3901TIP3   OH211666   2.398   5.961   2.464
 3901TIP3    H111667   2.422   6.011   2.382
 3901TIP3    H211668   2.316   5.914   2.437
 3902TIP3   OH211669   1.948   5.049   1.677
 3902TIP3    H111670   1.859   5.018   1.705
 3902TIP3    H211671   1.960   5.133   1.726
 3903TIP3   OH211672   1.909   6.050   2.834
 3903TIP3    H111673   1.934   6.022   2.923
 3903TIP3    H211674   1.859   6.132   2.850
 3904TIP3   OH211675   2.026   5.283   1.809
 3904TIP3    H111676   2.122   5.287   1.827
 3904TIP3    H211677   2.010   5.366   1.760
 3905TIP3   OH211678   1.196   5.748   2.511
 3905TIP3    H111679   1.237   5.716   2.428
 3905TIP3    H211680   1.241   5.693   2.577
 3906TIP3   OH211681   1.646   5.874   1.662
 3906TIP3    H111682   1.598   5.960   1.666
 3906TIP3    H211683   1.592   5.819   1.722
 3907TIP3   OH211684   1.079   5.666   3.128
 3907TIP3    H111685   1.094   5.649   3.224
 3907TIP3    H211686   1.009   5.601   3.108
 3908TIP3   OH211687   1.807   5.784   3.145
 3908TIP3    H111688   1.744   5.723   3.104
 3908TIP3    H211689   1.893   5.745   3.118
 3909TIP3   OH211690   2.056   6.322   2.719
 3909TIP3    H111691   1.962   6.305   2.743
 3909TIP3    H211692   2.088   6.360   2.804
 3910TIP3   OH211693   2.467   5.378   1.639
 3910TIP3    H111694   2.406   5.335   1.576
 3910TIP3    H211695   2.465   5.468   1.601
 3911TIP3   OH211696   2.692   6.243   2.717
 3911TIP3    H111697   2.595   6.229   2.713
 3911TIP3    H211698   2.718   6.208   2.628
 3912TIP3   OH211699   2.180   6.192   1.554
 3912TIP3    H111700   2.146   6.123   1.612
 3912TIP3    H211701   2.188   6.146   1.468
 3913TIP3   OH211702   2.168   5.824   2.377
 3913TIP3    H111703   2.075   5.798   2.393
 3913TIP3    H211704   2.201   5.742   2.336
 3914TIP3   OH211705   1.299   6.053   2.140
 3914TIP3    H111706   1.289   6.133   2.084
 3914TIP3    H211707   1.207   6.031   2.157
 3915TIP3   OH211708   0.866   5.354   1.848
 3915TIP3    H111709   0.908   5.439   1.870
 3915TIP3    H211710   0.785   5.357   1.903
 3916TIP3   OH211711   1.426   5.814   2.077
 3916TIP3    H111712   1.393   5.903   2.100
 3916TIP3    H211713   1.396   5.762   2.155
 3917TIP3   OH211714   1.569   6.391   2.610
 3917TIP3    H111715   1.614   6.461   2.558
 3917TIP3    H211716   1.644   6.354   2.660
 3918TIP3   OH211717   1.208   6.289   1.994
 3918TIP3    H111718   1.123   6.294   2.041
 3918TIP3    H211719   1.230   6.384   1.989
 3919TIP3   OH211720   1.952   6.028   2.567
 3919TIP3    H111721   1.940   6.029   2.665
 3919TIP3    H211722   2.026   5.966   2.559
 3920TIP3   OH211723   1.933   5.926   1.452
 3920TIP3    H111724   1.986   5.899   1.530
 3920TIP3    H211725   1.846   5.894   1.478
 3921TIP3   OH211726   2.203   6.553   2.616
 3921TIP3    H111727   2.127   6.492   2.621
 3921TIP3    H211728   2.173   6.618   2.550
 3922TIP3   OH211729   2.264   6.389   1.269
 3922TIP3    H111730   2.312   6.465   1.231
 3922TIP3    H211731   2.183   6.435   1.299
 3923TIP3   OH211732   1.282   5.173   3.132
 3923TIP3    H111733   1.185   5.175   3.143
 3923TIP3    H211734   1.309   5.116   3.206
 3924TIP3   OH211735   2.093   5.858   1.665
 3924TIP3    H111736   2.080   5.792   1.736
 3924TIP3    H211737   2.190   5.851   1.653
 3925TIP3   OH211738   1.005   6.249   2.766
 3925TIP3    H111739   1.062   6.184   2.812
 3925TIP3    H211740   1.027   6.331   2.812
 3926TIP3   OH211741   1.288   5.901   1.450
 3926TIP3    H111742   1.308   5.808   1.427
 3926TIP3    H211743   1.270   5.892   1.546
 3927TIP3   OH211744   1.239   5.905   1.721
 3927TIP3    H111745   1.314   5.880   1.777
 3927TIP3    H211746   1.239   6.003   1.732
 3928TIP3   OH211747   0.973   5.602   1.927
 3928TIP3    H111748   0.906   5.646   1.983
 3928TIP3    H211749   0.985   5.671   1.858
 3929TIP3   OH211750   2.123   5.241   2.824
 3929TIP3    H111751   2.209   5.273   2.857
 3929TIP3    H211752   2.110   5.158   2.876
 3930TIP3   OH211753   2.029   4.971   1.971
 3930TIP3    H111754   1.999   5.011   1.888
 3930TIP3    H211755   2.041   5.049   2.029
 3931TIP3   OH211756   1.508   6.106   1.675
 3931TIP3    H111757   1.420   6.129   1.711
 3931TIP3    H211758   1.518   6.175   1.607
 3932TIP3   OH211759   1.709   5.166   2.064
 3932TIP3    H111760   1.764   5.245   2.073
 3932TIP3    H211761   1.697   5.141   2.159
 3933TIP3   OH211762   1.966   5.485   2.888
 3933TIP3    H111763   1.994   5.531   2.970
 3933TIP3    H211764   2.015   5.401   2.892
 3934TIP3   OH211765   1.252   6.172   1.746
 3934TIP3    H111766   1.221   6.238   1.680
 3934TIP3    H211767   1.238   6.221   1.830
 3935TIP3   OH211768   1.341   4.910   1.972
 3935TIP3    H111769   1.370   5.000   1.947
 3935TIP3    H211770   1.430   4.871   1.992
 3936TIP3   OH211771   2.602   5.385   2.874
 3936TIP3    H111772   2.504   5.386   2.883
 3936TIP3    H211773   2.610   5.331   2.794
 3937TIP3   OH211774   2.253   5.581   2.261
 3937TIP3    H111775   2.176   5.521   2.270
 3937TIP3    H211776   2.323   5.532   2.310
 3938TIP3   OH211777   0.967   5.804   1.728
 3938TIP3    H111778   1.035   5.873   1.738
 3938TIP3    H211779   1.015   5.745   1.666
 3939TIP3   OH211780   0.897   5.080   1.866
 3939TIP3    H111781   0.903   5.178   1.867
 3939TIP3    H211782   0.827   5.066   1.801
 3940TIP3   OH211783   2.218   6.540   2.235
 3940TIP3    H111784   2.178   6.542   2.147
 3940TIP3    H211785   2.309   6.513   2.216
 3941TIP3   OH211786   1.292   4.801   2.735
 3941TIP3    H111787   1.265   4.763   2.649
 3941TIP3    H211788   1.284   4.724   2.795
 3942TIP3   OH211789   0.839   6.023   2.114
 3942TIP3    H111790   0.776   6.050   2.183
 3942TIP3    H211791   0.798   6.063   2.034
 3943TIP3   OH211792   0.994   6.554   3.213
 3943TIP3    H111793   1.080   6.552   3.259
 3943TIP3    H211794   0.974   6.459   3.207
 3944TIP3   OH211795   1.465   6.542   3.225
 3944TIP3    H111796   1.544   6.518   3.277
 3944TIP3    H211797   1.461   6.469   3.160
 3945TIP3   OH211798   1.457   6.103   1.362
 3945TIP3    H111799   1.398   6.032   1.396
 3945TIP3    H211800   1.529   6.049   1.324
 3946TIP3   OH211801   2.122   6.430   2.961
 3946TIP3    H111802   2.109   6.365   3.033
 3946TIP3    H211803   2.192   6.488   2.998
 3947TIP3   OH211804   1.893   6.141   1.278
 3947TIP3    H111805   1.930   6.072   1.337
 3947TIP3    H211806   1.949   6.134   1.198
 3948TIP3   OH211807   1.124   5.973   3.390
 3948TIP3    H111808   1.140   5.877   3.398
 3948TIP3    H211809   1.038   5.975   3.343
 3949TIP3   OH211810   1.112   5.619   1.595
 3949TIP3    H111811   1.172   5.590   1.667
 3949TIP3    H211812   1.175   5.624   1.520
 3950TIP3   OH211813   1.731   6.058   3.166
 3950TIP3    H111814   1.692   6.082   3.080
 3950TIP3    H211815   1.761   5.966   3.153
 3951TIP3   OH211816   1.621   5.821   1.393
 3951TIP3    H111817   1.622   5.832   1.491
 3951TIP3    H211818   1.622   5.723   1.386
 3952TIP3   OH211819   2.225   6.069   2.773
 3952TIP3    H111820   2.300   6.115   2.730
 3952TIP3    H211821   2.151   6.130   2.755
 3953TIP3   OH211822   1.247   5.711   3.374
 3953TIP3    H111823   1.324   5.662   3.344
 3953TIP3    H211824   1.277   5.744   3.461
 3954TIP3   OH211825   1.305   5.526   1.803
 3954TIP3    H111826   1.283   5.483   1.887
 3954TIP3    H211827   1.346   5.452   1.753
 3955TIP3   OH211828   1.577   5.589   3.035
 3955TIP3    H111829   1.500   5.650   3.033
 3955TIP3    H211830   1.631   5.624   2.960
 3956TIP3   OH211831   1.408   5.318   1.654
 3956TIP3    H111832   1.384   5.326   1.559
 3956TIP3    H211833   1.505   5.317   1.648
 3957TIP3   OH211834   2.098   5.994   3.164
 3957TIP3    H111835   2.176   5.958   3.120
 3957TIP3    H211836   2.086   5.932   3.238
 3958TIP3   OH211837   2.229   5.649   1.314
 3958TIP3    H111838   2.211   5.605   1.228
 3958TIP3    H211839   2.194   5.739   1.293
 3959TIP3   OH211840   1.704   5.381   3.156
 3959TIP3    H111841   1.705   5.302   3.098
 3959TIP3    H211842   1.658   5.447   3.100
 3960TIP3   OH211843   1.707   5.169   2.967
 3960TIP3    H111844   1.737   5.208   2.883
 3960TIP3    H211845   1.614   5.145   2.947
 3961TIP3   OH211846   1.726   5.699   2.843
 3961TIP3    H111847   1.813   5.708   2.802
 3961TIP3    H211848   1.672   5.764   2.793
 3962TIP3   OH211849   2.311   5.665   3.217
 3962TIP3    H111850   2.356   5.580   3.228
 3962TIP3    H211851   2.382   5.720   3.181
 3963TIP3   OH211852   2.355   5.922   2.957
 3963TIP3    H111853   2.297   5.976   2.899
 3963TIP3    H211854   2.443   5.943   2.918
 3964TIP3   OH211855   1.582   5.484   3.392
 3964TIP3    H111856   1.515   5.414   3.408
 3964TIP3    H211857   1.614   5.460   3.303
 3965TIP3   OH211858   1.839   4.929   3.041
 3965TIP3    H111859   1.788   5.009   3.014
 3965TIP3    H211860   1.773   4.858   3.025
 3966TIP3   OH211861   1.962   5.428   3.252
 3966TIP3    H111862   1.946   5.413   3.347
 3966TIP3    H211863   1.874   5.406   3.216
 3967TIP3   OH211864   2.203   5.386   3.109
 3967TIP3    H111865   2.128   5.383   3.172
 3967TIP3    H211866   2.277   5.353   3.164
 3968TIP3   OH211867   2.433   5.325   3.255
 3968TIP3    H111868   2.446   5.229   3.268
 3968TIP3    H211869   2.430   5.359   3.347
 3969TIP3   OH211870   1.420   5.265   3.449
 3969TIP3    H111871   1.422   5.173   3.416
 3969TIP3    H211872   1.459   5.253   3.538
 3970TIP3   OH211873   1.928   4.936   3.300
 3970TIP3    H111874   1.994   4.865   3.291
 3970TIP3    H211875   1.890   4.935   3.209
 3971TIP3   OH211876   1.998   5.153   3.454
 3971TIP3    H111877   1.978   5.081   3.391
 3971TIP3    H211878   1.919   5.210   3.446
 3972TIP3   OH211879   1.221   6.357   1.548
 3972TIP3    H111880   1.316   6.372   1.560
 3972TIP3    H211881   1.213   6.379   1.454
 3973TIP3   OH211882   0.698   5.764   1.757
 3973TIP3    H111883   0.794   5.781   1.748
 3973TIP3    H211884   0.690   5.675   1.717
 3974TIP3   OH211885   0.610   6.378   2.175
 3974TIP3    H111886   0.548   6.315   2.132
 3974TIP3    H211887   0.653   6.320   2.242
 3975TIP3   OH211888   0.742   6.227   2.367
 3975TIP3    H111889   0.731   6.156   2.433
 3975TIP3    H211890   0.800   6.287   2.419
 3976TIP3   OH211891   2.477   6.667   2.155
 3976TIP3    H111892   2.493   6.654   2.252
 3976TIP3    H211893   2.566   6.643   2.122
 3977TIP3   OH211894   2.527   6.607   2.432
 3977TIP3    H111895   2.474   6.524   2.443
 3977TIP3    H211896   2.597   6.590   2.497
 3978TIP3   OH211897   2.550   6.323   3.024
 3978TIP3    H111898   2.479   6.333   3.091
 3978TIP3    H211899   2.594   6.410   3.030
 3979TIP3   OH211900   2.369   5.834   1.645
 3979TIP3    H111901   2.437   5.897   1.612
 3979TIP3    H211902   2.413   5.797   1.724
 3980TIP3   OH211903   2.496   5.704   1.850
 3980TIP3    H111904   2.430   5.661   1.908
 3980TIP3    H211905   2.562   5.736   1.915
 3981TIP3   OH211906   2.551   6.097   2.276
 3981TIP3    H111907   2.608   6.026   2.239
 3981TIP3    H211908   2.545   6.160   2.203
 3982TIP3   OH211909   2.374   6.386   2.471
 3982TIP3    H111910   2.305   6.430   2.526
 3982TIP3    H211911   2.319   6.335   2.407
 3983TIP3   OH211912   2.434   5.613   1.492
 3983TIP3    H111913   2.361   5.613   1.425
 3983TIP3    H211914   2.403   5.687   1.549
 3984TIP3   OH211915   2.304   5.284   1.442
 3984TIP3    H111916   2.255   5.312   1.364
 3984TIP3    H211917   2.285   5.187   1.440
 3985TIP3   OH211918   2.308   5.561   1.992
 3985TIP3    H111919   2.313   5.465   1.983
 3985TIP3    H211920   2.293   5.572   2.089
 3986TIP3   OH211921   0.933   5.637   2.742
 3986TIP3    H111922   0.929   5.601   2.650
 3986TIP3    H211923   1.030   5.636   2.758
 3987TIP3   OH211924   2.603   5.988   2.851
 3987TIP3    H111925   2.671   5.918   2.842
 3987TIP3    H211926   2.628   6.050   2.781
 3988TIP3   OH211927   2.783   5.786   2.861
 3988TIP3    H111928   2.707   5.736   2.899
 3988TIP3    H211929   2.855   5.722   2.879
 3989TIP3   OH211930   2.249   5.017   1.425
 3989TIP3    H111931   2.320   4.986   1.484
 3989TIP3    H211932   2.174   4.960   1.447
 3990TIP3   OH211933   2.306   5.277   1.881
 3990TIP3    H111934   2.345   5.188   1.898
 3990TIP3    H211935   2.365   5.308   1.811
 3991TIP3   OH211936   2.465   5.447   2.383
 3991TIP3    H111937   2.550   5.472   2.340
 3991TIP3    H211938   2.481   5.483   2.472
 3992TIP3   OH211939   2.540   5.595   2.612
 3992TIP3    H111940   2.462   5.628   2.661
 3992TIP3    H211941   2.572   5.676   2.568
 3993TIP3   OH211942   1.154   5.319   3.420
 3993TIP3    H111943   1.252   5.313   3.422
 3993TIP3    H211944   1.130   5.231   3.454
 3994TIP3   OH211945   2.987   5.190   3.167
 3994TIP3    H111946   3.050   5.125   3.127
 3994TIP3    H211947   2.958   5.240   3.088
 3995TIP3   OH211948   2.414   5.029   1.922
 3995TIP3    H111949   2.461   5.012   2.007
 3995TIP3    H211950   2.353   4.952   1.921
 3996TIP3   OH211951   1.115   5.012   2.734
 3996TIP3    H111952   1.174   4.935   2.749
 3996TIP3    H211953   1.178   5.086   2.743
 3997TIP3   OH211954   0.918   5.287   2.821
 3997TIP3    H111955   0.966   5.292   2.737
 3997TIP3    H211956   0.943   5.370   2.864
 3998TIP3   OH211957   2.856   5.322   2.968
 3998TIP3    H111958   2.769   5.366   2.983
 3998TIP3    H211959   2.826   5.246   2.914
 3999TIP3   OH211960   2.490   4.960   1.558
 3999TIP3    H111961   2.530   4.888   1.504
 3999TIP3    H211962   2.561   5.028   1.558
 4000TIP3   OH211963   0.901   4.803   2.326
 4000TIP3    H111964   0.809   4.784   2.352
 4000TIP3    H211965   0.889   4.862   2.250
 4001TIP3   OH211966   2.072   6.482   1.830
 4001TIP3    H111967   2.113   6.457   1.744
 4001TIP3    H211968   2.102   6.572   1.839
 4002TIP3   OH211969   1.123   4.872   3.135
 4002TIP3    H111970   1.070   4.864   3.215
 4002TIP3    H211971   1.057   4.908   3.072
 4003TIP3   OH211972   1.160   6.308   3.208
 4003TIP3    H111973   1.070   6.275   3.195
 4003TIP3    H211974   1.182   6.274   3.296
 4004TIP3   OH211975   1.344   6.327   2.757
 4004TIP3    H111976   1.298   6.405   2.720
 4004TIP3    H211977   1.430   6.341   2.713
 4005TIP3   OH211978   1.779   6.573   2.892
 4005TIP3    H111979   1.820   6.570   2.982
 4005TIP3    H211980   1.845   6.626   2.843
 4006TIP3   OH211981   1.961   6.723   2.749
 4006TIP3    H111982   2.031   6.663   2.722
 4006TIP3    H211983   2.011   6.782   2.811
 4007TIP3   OH211984   2.757   5.084   2.854
 4007TIP3    H111985   2.668   5.070   2.819
 4007TIP3    H211986   2.794   4.993   2.846
 4008TIP3   OH211987   1.040   6.552   2.785
 4008TIP3    H111988   0.946   6.578   2.772
 4008TIP3    H211989   1.062   6.612   2.860
 4009TIP3   OH211990   1.269   6.563   2.643
 4009TIP3    H111991   1.181   6.562   2.689
 4009TIP3    H211992   1.244   6.600   2.556
 4010TIP3   OH211993   1.674   6.587   2.441
 4010TIP3    H111994   1.603   6.608   2.378
 4010TIP3    H211995   1.686   6.673   2.488
 4011TIP3   OH211996   1.943   6.537   2.487
 4011TIP3    H111997   1.847   6.540   2.474
 4011TIP3    H211998   1.967   6.628   2.468
 4012TIP3   OH211999   2.160   6.741   2.411
 4012TIP3    H112000   2.105   6.800   2.358
 4012TIP3    H212001   2.179   6.667   2.349
 4013TIP3   OH212002   0.922   6.369   2.529
 4013TIP3    H112003   0.950   6.339   2.618
 4013TIP3    H212004   0.997   6.332   2.476
 4014TIP3   OH212005   1.123   6.254   2.384
 4014TIP3    H112006   1.136   6.170   2.434
 4014TIP3    H212007   1.214   6.289   2.381
 4015TIP3   OH212008   1.395   6.346   2.389
 4015TIP3    H112009   1.421   6.252   2.381
 4015TIP3    H212010   1.439   6.367   2.474
 4016TIP3   OH212011   2.493   4.882   2.376
 4016TIP3    H112012   2.523   4.934   2.298
 4016TIP3    H212013   2.395   4.893   2.370
 4017TIP3   OH212014   2.579   4.983   2.138
 4017TIP3    H112015   2.654   4.931   2.102
 4017TIP3    H212016   2.613   5.075   2.124
 4018TIP3   OH212017   1.209   4.716   2.476
 4018TIP3    H112018   1.119   4.682   2.484
 4018TIP3    H212019   1.260   4.632   2.476
 4019TIP3   OH212020   1.026   4.583   2.171
 4019TIP3    H112021   1.036   4.619   2.082
 4019TIP3    H212022   0.979   4.652   2.221
 4020TIP3   OH212023   1.646   4.756   2.377
 4020TIP3    H112024   1.659   4.850   2.350
 4020TIP3    H212025   1.680   4.762   2.467
 4021TIP3   OH212026   2.221   4.902   2.360
 4021TIP3    H112027   2.173   4.880   2.280
 4021TIP3    H212028   2.196   4.827   2.418
 4022TIP3   OH212029   2.239   4.813   1.914
 4022TIP3    H112030   2.157   4.864   1.935
 4022TIP3    H212031   2.218   4.728   1.960
 4023TIP3   OH212032   0.703   6.144   1.919
 4023TIP3    H112033   0.623   6.110   1.875
 4023TIP3    H212034   0.700   6.237   1.892
 4024TIP3   OH212035   1.117   4.746   1.893
 4024TIP3    H112036   1.157   4.672   1.843
 4024TIP3    H212037   1.196   4.790   1.929
 4025TIP3   OH212038   1.617   4.921   1.996
 4025TIP3    H112039   1.668   4.869   2.060
 4025TIP3    H212040   1.647   5.012   2.020
 4026TIP3   OH212041   1.493   6.339   1.499
 4026TIP3    H112042   1.580   6.360   1.460
 4026TIP3    H212043   1.466   6.266   1.439
 4027TIP3   OH212044   2.209   6.458   1.592
 4027TIP3    H112045   2.204   6.360   1.581
 4027TIP3    H212046   2.164   6.488   1.510
 4028TIP3   OH212047   1.417   4.993   3.382
 4028TIP3    H112048   1.381   4.921   3.436
 4028TIP3    H212049   1.511   4.991   3.410
 4029TIP3   OH212050   1.670   4.990   3.499
 4029TIP3    H112051   1.754   4.966   3.456
 4029TIP3    H212052   1.659   4.918   3.564
 4030TIP3   OH212053   0.858   6.257   1.626
 4030TIP3    H112054   0.803   6.178   1.615
 4030TIP3    H212055   0.937   6.229   1.575
 4031TIP3   OH212056   2.497   5.054   3.285
 4031TIP3    H112057   2.514   5.022   3.376
 4031TIP3    H212058   2.586   5.048   3.246
 4032TIP3   OH212059   2.430   6.606   2.776
 4032TIP3    H112060   2.350   6.572   2.730
 4032TIP3    H212061   2.406   6.700   2.786
 4033TIP3   OH212062   3.701   5.979   1.539
 4033TIP3    H112063   3.668   6.068   1.518
 4033TIP3    H212064   3.624   5.925   1.513
 4034TIP3   OH212065   3.699   5.975   1.937
 4034TIP3    H112066   3.735   5.951   2.024
 4034TIP3    H212067   3.657   5.892   1.910
 4035TIP3   OH212068   2.989   5.864   2.295
 4035TIP3    H112069   3.015   5.796   2.360
 4035TIP3    H212070   3.070   5.917   2.292
 4036TIP3   OH212071   3.944   6.282   1.611
 4036TIP3    H112072   3.927   6.211   1.675
 4036TIP3    H212073   3.976   6.354   1.668
 4037TIP3   OH212074   2.967   6.281   2.010
 4037TIP3    H112075   2.961   6.183   2.010
 4037TIP3    H212076   3.064   6.292   2.011
 4038TIP3   OH212077   2.677   5.483   1.792
 4038TIP3    H112078   2.628   5.564   1.813
 4038TIP3    H212079   2.606   5.428   1.754
 4039TIP3   OH212080   2.732   5.769   1.979
 4039TIP3    H112081   2.779   5.690   2.013
 4039TIP3    H212082   2.795   5.803   1.914
 4040TIP3   OH212083   3.599   6.739   1.634
 4040TIP3    H112084   3.635   6.668   1.577
 4040TIP3    H212085   3.587   6.691   1.718
 4041TIP3   OH212086   3.496   6.207   1.973
 4041TIP3    H112087   3.535   6.126   1.936
 4041TIP3    H212088   3.579   6.253   1.997
 4042TIP3   OH212089   4.516   5.523   1.972
 4042TIP3    H112090   4.544   5.607   2.013
 4042TIP3    H212091   4.535   5.539   1.879
 4043TIP3   OH212092   3.909   5.704   2.006
 4043TIP3    H112093   3.951   5.619   2.028
 4043TIP3    H212094   3.877   5.686   1.916
 4044TIP3   OH212095   3.251   5.363   1.968
 4044TIP3    H112096   3.231   5.436   1.906
 4044TIP3    H212097   3.201   5.290   1.925
 4045TIP3   OH212098   3.947   5.453   1.589
 4045TIP3    H112099   4.016   5.437   1.657
 4045TIP3    H212100   4.002   5.489   1.517
 4046TIP3   OH212101   2.880   5.564   2.076
 4046TIP3    H112102   2.963   5.546   2.125
 4046TIP3    H212103   2.896   5.508   1.997
 4047TIP3   OH212104   3.320   5.762   1.876
 4047TIP3    H112105   3.414   5.739   1.890
 4047TIP3    H212106   3.283   5.677   1.843
 4048TIP3   OH212107   4.588   5.735   2.139
 4048TIP3    H112108   4.503   5.778   2.117
 4048TIP3    H212109   4.587   5.747   2.235
 4049TIP3   OH212110   3.232   5.348   2.409
 4049TIP3    H112111   3.174   5.384   2.340
 4049TIP3    H212112   3.180   5.369   2.489
 4050TIP3   OH212113   3.583   6.196   1.412
 4050TIP3    H112114   3.545   6.184   1.324
 4050TIP3    H212115   3.538   6.278   1.441
 4051TIP3   OH212116   3.349   6.123   2.191
 4051TIP3    H112117   3.291   6.191   2.231
 4051TIP3    H212118   3.392   6.172   2.119
 4052TIP3   OH212119   4.146   5.459   1.773
 4052TIP3    H112120   4.113   5.429   1.859
 4052TIP3    H212121   4.197   5.538   1.799
 4053TIP3   OH212122   3.114   5.462   2.186
 4053TIP3    H112123   3.176   5.533   2.215
 4053TIP3    H212124   3.167   5.422   2.114
 4054TIP3   OH212125   3.180   6.319   2.299
 4054TIP3    H112126   3.153   6.408   2.268
 4054TIP3    H212127   3.102   6.296   2.353
 4055TIP3   OH212128   2.566   6.005   1.531
 4055TIP3    H112129   2.528   6.034   1.446
 4055TIP3    H212130   2.602   6.088   1.567
 4056TIP3   OH212131   4.007   6.525   1.772
 4056TIP3    H112132   3.917   6.515   1.812
 4056TIP3    H212133   3.998   6.613   1.729
 4057TIP3   OH212134   4.309   5.421   2.141
 4057TIP3    H112135   4.220   5.447   2.112
 4057TIP3    H212136   4.366   5.455   2.068
 4058TIP3   OH212137   3.595   5.061   2.121
 4058TIP3    H112138   3.577   4.967   2.141
 4058TIP3    H212139   3.520   5.103   2.169
 4059TIP3   OH212140   3.706   6.568   1.443
 4059TIP3    H112141   3.756   6.484   1.428
 4059TIP3    H212142   3.771   6.630   1.404
 4060TIP3   OH212143   3.853   6.354   1.362
 4060TIP3    H112144   3.822   6.272   1.321
 4060TIP3    H212145   3.893   6.320   1.445
 4061TIP3   OH212146   4.237   6.430   2.119
 4061TIP3    H112147   4.223   6.352   2.061
 4061TIP3    H212148   4.218   6.504   2.058
 4062TIP3   OH212149   3.528   5.827   1.378
 4062TIP3    H112150   3.449   5.882   1.357
 4062TIP3    H212151   3.575   5.826   1.293
 4063TIP3   OH212152   3.486   5.618   1.084
 4063TIP3    H112153   3.551   5.669   1.136
 4063TIP3    H212154   3.546   5.555   1.039
 4064TIP3   OH212155   4.433   6.078   1.967
 4064TIP3    H112156   4.347   6.125   1.970
 4064TIP3    H212157   4.462   6.100   1.875
 4065TIP3   OH212158   3.879   5.911   1.344
 4065TIP3    H112159   3.824   5.934   1.423
 4065TIP3    H212160   3.964   5.887   1.387
 4066TIP3   OH212161   4.112   5.955   2.257
 4066TIP3    H112162   4.106   6.034   2.314
 4066TIP3    H212163   4.024   5.956   2.215
 4067TIP3   OH212164   3.111   5.908   1.765
 4067TIP3    H112165   3.071   5.848   1.698
 4067TIP3    H212166   3.186   5.854   1.798
 4068TIP3   OH212167   3.241   6.324   1.910
 4068TIP3    H112168   3.220   6.286   1.824
 4068TIP3    H212169   3.329   6.286   1.929
 4069TIP3   OH212170   3.238   5.880   2.118
 4069TIP3    H112171   3.276   5.851   2.032
 4069TIP3    H212172   3.286   5.964   2.136
 4070TIP3   OH212173   3.767   6.518   1.896
 4070TIP3    H112174   3.761   6.595   1.955
 4070TIP3    H212175   3.753   6.443   1.956
 4071TIP3   OH212176   3.385   6.438   2.441
 4071TIP3    H112177   3.322   6.497   2.489
 4071TIP3    H212178   3.322   6.383   2.391
 4072TIP3   OH212179   3.712   5.771   1.175
 4072TIP3    H112180   3.774   5.831   1.223
 4072TIP3    H212181   3.738   5.790   1.081
 4073TIP3   OH212182   3.123   6.022   2.529
 4073TIP3    H112183   3.126   6.101   2.585
 4073TIP3    H212184   3.038   5.983   2.555
 4074TIP3   OH212185   3.463   6.444   1.450
 4074TIP3    H112186   3.547   6.493   1.454
 4074TIP3    H212187   3.402   6.508   1.412
 4075TIP3   OH212188   3.175   6.603   2.531
 4075TIP3    H112189   3.140   6.603   2.440
 4075TIP3    H212190   3.094   6.582   2.584
 4076TIP3   OH212191   4.231   5.007   1.223
 4076TIP3    H112192   4.150   5.029   1.272
 4076TIP3    H212193   4.247   5.090   1.174
 4077TIP3   OH212194   2.978   5.751   1.565
 4077TIP3    H112195   2.905   5.789   1.513
 4077TIP3    H212196   2.946   5.662   1.583
 4078TIP3   OH212197   4.033   6.371   0.779
 4078TIP3    H112198   4.039   6.462   0.745
 4078TIP3    H212199   4.126   6.339   0.768
 4079TIP3   OH212200   2.756   6.138   2.476
 4079TIP3    H112201   2.689   6.111   2.410
 4079TIP3    H212202   2.795   6.052   2.503
 4080TIP3   OH212203   2.618   6.340   2.108
 4080TIP3    H112204   2.701   6.299   2.078
 4080TIP3    H212205   2.651   6.395   2.181
 4081TIP3   OH212206   4.475   6.785   2.167
 4081TIP3    H112207   4.477   6.689   2.184
 4081TIP3    H212208   4.391   6.809   2.212
 4082TIP3   OH212209   3.575   6.568   2.296
 4082TIP3    H112210   3.574   6.659   2.332
 4082TIP3    H212211   3.506   6.525   2.351
 4083TIP3   OH212212   3.342   6.703   1.240
 4083TIP3    H112213   3.306   6.666   1.157
 4083TIP3    H212214   3.276   6.770   1.262
 4084TIP3   OH212215   2.777   6.547   1.640
 4084TIP3    H112216   2.827   6.539   1.725
 4084TIP3    H212217   2.738   6.458   1.634
 4085TIP3   OH212218   3.547   6.605   0.894
 4085TIP3    H112219   3.598   6.530   0.856
 4085TIP3    H212220   3.581   6.607   0.986
 4086TIP3   OH212221   3.597   6.646   1.162
 4086TIP3    H112222   3.509   6.659   1.204
 4086TIP3    H212223   3.646   6.605   1.234
 4087TIP3   OH212224   4.364   5.910   2.439
 4087TIP3    H112225   4.277   5.916   2.396
 4087TIP3    H212226   4.380   5.814   2.433
 4088TIP3   OH212227   2.957   6.324   2.462
 4088TIP3    H112228   3.009   6.305   2.543
 4088TIP3    H212229   2.886   6.257   2.468
 4089TIP3   OH212230   3.361   5.136   2.252
 4089TIP3    H112231   3.268   5.118   2.229
 4089TIP3    H212232   3.351   5.221   2.299
 4090TIP3   OH212233   3.892   5.250   2.446
 4090TIP3    H112234   3.963   5.228   2.510
 4090TIP3    H212235   3.810   5.233   2.497
 4091TIP3   OH212236   4.145   5.701   2.367
 4091TIP3    H112237   4.092   5.689   2.449
 4091TIP3    H212238   4.105   5.780   2.327
 4092TIP3   OH212239   3.782   5.808   0.918
 4092TIP3    H112240   3.753   5.782   0.828
 4092TIP3    H212241   3.869   5.847   0.897
 4093TIP3   OH212242   3.504   5.189   1.222
 4093TIP3    H112243   3.471   5.185   1.314
 4093TIP3    H212244   3.465   5.106   1.187
 4094TIP3   OH212245   3.291   5.657   2.267
 4094TIP3    H112246   3.262   5.688   2.354
 4094TIP3    H212247   3.274   5.737   2.213
 4095TIP3   OH212248   3.174   5.545   1.782
 4095TIP3    H112249   3.082   5.516   1.803
 4095TIP3    H212250   3.185   5.502   1.694
 4096TIP3   OH212251   3.667   5.628   1.513
 4096TIP3    H112252   3.616   5.699   1.468
 4096TIP3    H212253   3.722   5.593   1.441
 4097TIP3   OH212254   3.843   5.929   2.629
 4097TIP3    H112255   3.801   5.850   2.586
 4097TIP3    H212256   3.933   5.895   2.643
 4098TIP3   OH212257   3.826   5.654   1.747
 4098TIP3    H112258   3.758   5.679   1.681
 4098TIP3    H212259   3.861   5.574   1.703
 4099TIP3   OH212260   3.103   5.690   2.485
 4099TIP3    H112261   3.183   5.735   2.521
 4099TIP3    H212262   3.098   5.609   2.538
 4100TIP3   OH212263   3.160   5.164   1.185
 4100TIP3    H112264   3.153   5.161   1.283
 4100TIP3    H212265   3.082   5.218   1.163
 4101TIP3   OH212266   2.706   5.206   2.055
 4101TIP3    H112267   2.780   5.238   2.111
 4101TIP3    H212268   2.750   5.172   1.976
 4102TIP3   OH212269   2.668   5.185   1.575
 4102TIP3    H112270   2.716   5.221   1.498
 4102TIP3    H212271   2.607   5.259   1.593
 4103TIP3   OH212272   3.830   5.894   2.184
 4103TIP3    H112273   3.860   5.821   2.124
 4103TIP3    H212274   3.803   5.843   2.262
 4104TIP3   OH212275   3.507   5.365   1.842
 4104TIP3    H112276   3.428   5.365   1.899
 4104TIP3    H212277   3.579   5.355   1.907
 4105TIP3   OH212278   2.938   5.422   1.848
 4105TIP3    H112279   2.844   5.429   1.819
 4105TIP3    H212280   2.960   5.329   1.829
 4106TIP3   OH212281   3.200   5.414   1.543
 4106TIP3    H112282   3.294   5.429   1.523
 4106TIP3    H212283   3.155   5.436   1.458
 4107TIP3   OH212284   4.002   5.438   2.026
 4107TIP3    H112285   3.985   5.448   2.123
 4107TIP3    H212286   3.927   5.381   2.002
 4108TIP3   OH212287   3.053   5.454   1.317
 4108TIP3    H112288   2.980   5.409   1.271
 4108TIP3    H212289   3.103   5.490   1.241
 4109TIP3   OH212290   4.157   7.132   2.260
 4109TIP3    H112291   4.149   7.152   2.165
 4109TIP3    H212292   4.240   7.181   2.279
 4110TIP3   OH212293   3.119   6.253   2.687
 4110TIP3    H112294   3.202   6.273   2.735
 4110TIP3    H212295   3.058   6.241   2.762
 4111TIP3   OH212296   3.580   5.698   1.948
 4111TIP3    H112297   3.655   5.649   1.912
 4111TIP3    H212298   3.580   5.668   2.042
 4112TIP3   OH212299   3.101   5.179   1.826
 4112TIP3    H112300   3.063   5.105   1.878
 4112TIP3    H212301   3.152   5.131   1.759
 4113TIP3   OH212302   3.568   5.633   2.217
 4113TIP3    H112303   3.475   5.638   2.247
 4113TIP3    H212304   3.616   5.650   2.302
 4114TIP3   OH212305   3.296   5.980   1.322
 4114TIP3    H112306   3.225   5.913   1.312
 4114TIP3    H212307   3.276   6.014   1.413
 4115TIP3   OH212308   4.196   6.217   1.950
 4115TIP3    H112309   4.219   6.269   1.870
 4115TIP3    H212310   4.113   6.172   1.923
 4116TIP3   OH212311   3.752   5.295   1.180
 4116TIP3    H112312   3.658   5.271   1.198
 4116TIP3    H212313   3.761   5.385   1.216
 4117TIP3   OH212314   3.704   6.305   2.318
 4117TIP3    H112315   3.727   6.268   2.405
 4117TIP3    H212316   3.659   6.388   2.339
 4118TIP3   OH212317   3.823   5.540   1.295
 4118TIP3    H112318   3.920   5.545   1.312
 4118TIP3    H212319   3.806   5.622   1.245
 4119TIP3   OH212320   2.992   6.007   1.997
 4119TIP3    H112321   3.031   5.974   1.913
 4119TIP3    H212322   3.039   5.952   2.062
 4120TIP3   OH212323   3.443   6.128   1.148
 4120TIP3    H112324   3.395   6.214   1.151
 4120TIP3    H212325   3.389   6.073   1.209
 4121TIP3   OH212326   2.870   5.931   2.619
 4121TIP3    H112327   2.891   5.910   2.712
 4121TIP3    H212328   2.810   5.857   2.596
 4122TIP3   OH212329   3.596   6.037   2.635
 4122TIP3    H112330   3.552   5.969   2.582
 4122TIP3    H212331   3.689   6.008   2.625
 4123TIP3   OH212332   3.854   6.574   2.212
 4123TIP3    H112333   3.760   6.560   2.231
 4123TIP3    H212334   3.883   6.618   2.295
 4124TIP3   OH212335   4.264   5.636   1.127
 4124TIP3    H112336   4.201   5.593   1.065
 4124TIP3    H212337   4.260   5.726   1.088
 4125TIP3   OH212338   4.487   6.497   2.204
 4125TIP3    H112339   4.389   6.486   2.198
 4125TIP3    H212340   4.513   6.463   2.115
 4126TIP3   OH212341   3.968   6.452   1.038
 4126TIP3    H112342   3.942   6.382   1.098
 4126TIP3    H212343   3.983   6.405   0.954
 4127TIP3   OH212344   3.962   6.081   1.864
 4127TIP3    H112345   3.870   6.055   1.881
 4127TIP3    H212346   3.996   5.999   1.823
 4128TIP3   OH212347   3.096   6.309   1.630
 4128TIP3    H112348   3.087   6.387   1.571
 4128TIP3    H212349   3.004   6.282   1.641
 4129TIP3   OH212350   2.658   5.610   1.333
 4129TIP3    H112351   2.702   5.694   1.356
 4129TIP3    H212352   2.581   5.612   1.394
 4130TIP3   OH212353   3.222   6.070   1.564
 4130TIP3    H112354   3.192   6.159   1.589
 4130TIP3    H212355   3.192   6.017   1.641
 4131TIP3   OH212356   3.366   6.649   2.094
 4131TIP3    H112357   3.411   6.718   2.042
 4131TIP3    H212358   3.441   6.609   2.142
 4132TIP3   OH212359   3.004   6.533   1.476
 4132TIP3    H112360   2.920   6.550   1.523
 4132TIP3    H212361   3.043   6.624   1.479
 4133TIP3   OH212362   3.748   6.286   2.052
 4133TIP3    H112363   3.736   6.286   2.150
 4133TIP3    H212364   3.824   6.227   2.042
 4134TIP3   OH212365   3.734   6.176   0.936
 4134TIP3    H112366   3.786   6.153   1.016
 4134TIP3    H212367   3.645   6.150   0.965
 4135TIP3   OH212368   3.998   6.814   2.101
 4135TIP3    H112369   3.920   6.755   2.101
 4135TIP3    H212370   3.974   6.877   2.030
 4136TIP3   OH212371   4.055   6.654   0.731
 4136TIP3    H112372   4.113   6.733   0.735
 4136TIP3    H212373   3.975   6.691   0.774
 4137TIP3   OH212374   3.078   5.432   2.623
 4137TIP3    H112375   2.981   5.432   2.633
 4137TIP3    H212376   3.106   5.373   2.695
 4138TIP3   OH212377   3.889   6.114   1.154
 4138TIP3    H112378   3.878   6.046   1.224
 4138TIP3    H212379   3.986   6.108   1.140
 4139TIP3   OH212380   2.796   6.502   2.260
 4139TIP3    H112381   2.857   6.439   2.301
 4139TIP3    H212382   2.823   6.585   2.304
 4140TIP3   OH212383   3.087   6.159   0.940
 4140TIP3    H112384   3.100   6.066   0.912
 4140TIP3    H212385   3.065   6.147   1.034
 4141TIP3   OH212386   3.030   6.163   1.212
 4141TIP3    H112387   3.108   6.134   1.262
 4141TIP3    H212388   3.037   6.261   1.220
 4142TIP3   OH212389   2.766   5.853   1.413
 4142TIP3    H112390   2.698   5.897   1.468
 4142TIP3    H212391   2.781   5.922   1.345
 4143TIP3   OH212392   3.946   5.472   2.286
 4143TIP3    H112393   3.946   5.547   2.348
 4143TIP3    H212394   3.910   5.401   2.343
 4144TIP3   OH212395   3.807   5.239   1.475
 4144TIP3    H112396   3.794   5.265   1.382
 4144TIP3    H212397   3.846   5.321   1.513
 4145TIP3   OH212398   3.303   6.357   1.158
 4145TIP3    H112399   3.215   6.382   1.194
 4145TIP3    H212400   3.315   6.427   1.092
 4146TIP3   OH212401   3.484   5.427   1.574
 4146TIP3    H112402   3.548   5.500   1.560
 4146TIP3    H212403   3.491   5.415   1.672
 4147TIP3   OH212404   3.630   5.142   1.672
 4147TIP3    H112405   3.631   5.216   1.735
 4147TIP3    H212406   3.693   5.176   1.604
 4148TIP3   OH212407   3.050   6.434   1.227
 4148TIP3    H112408   3.018   6.505   1.167
 4148TIP3    H212409   3.030   6.471   1.315
 4149TIP3   OH212410   3.147   5.151   1.460
 4149TIP3    H112411   3.143   5.239   1.503
 4149TIP3    H212412   3.243   5.133   1.470
 4150TIP3   OH212413   4.403   5.638   2.355
 4150TIP3    H112414   4.306   5.648   2.371
 4150TIP3    H212415   4.400   5.581   2.277
 4151TIP3   OH212416   4.049   5.836   1.748
 4151TIP3    H112417   3.972   5.777   1.761
 4151TIP3    H212418   4.120   5.789   1.797
 4152TIP3   OH212419   2.767   6.059   1.216
 4152TIP3    H112420   2.844   6.119   1.226
 4152TIP3    H212421   2.805   5.998   1.149
 4153TIP3   OH212422   2.705   5.340   1.350
 4153TIP3    H112423   2.706   5.438   1.349
 4153TIP3    H212424   2.622   5.320   1.307
 4154TIP3   OH212425   4.019   6.798   1.699
 4154TIP3    H112426   3.979   6.840   1.620
 4154TIP3    H212427   4.114   6.814   1.680
 4155TIP3   OH212428   3.092   5.062   2.222
 4155TIP3    H112429   3.065   5.025   2.135
 4155TIP3    H212430   3.085   4.984   2.281
 4156TIP3   OH212431   2.636   6.296   1.608
 4156TIP3    H112432   2.556   6.305   1.661
 4156TIP3    H212433   2.605   6.329   1.521
 4157TIP3   OH212434   2.789   6.808   2.697
 4157TIP3    H112435   2.877   6.804   2.742
 4157TIP3    H212436   2.767   6.713   2.693
 4158TIP3   OH212437   3.268   6.784   2.718
 4158TIP3    H112438   3.362   6.760   2.726
 4158TIP3    H212439   3.240   6.722   2.647
 4159TIP3   OH212440   3.251   6.360   0.853
 4159TIP3    H112441   3.202   6.283   0.890
 4159TIP3    H212442   3.327   6.316   0.810
 4160TIP3   OH212443   3.908   6.693   2.456
 4160TIP3    H112444   3.902   6.623   2.525
 4160TIP3    H212445   3.987   6.743   2.485
 4161TIP3   OH212446   3.680   6.399   0.775
 4161TIP3    H112447   3.728   6.331   0.826
 4161TIP3    H212448   3.734   6.406   0.693
 4162TIP3   OH212449   2.919   6.231   2.878
 4162TIP3    H112450   2.937   6.135   2.887
 4162TIP3    H212451   2.834   6.231   2.831
 4163TIP3   OH212452   2.900   5.873   1.074
 4163TIP3    H112453   2.957   5.843   1.147
 4163TIP3    H212454   2.967   5.881   1.002
 4164TIP3   OH212455   3.525   6.312   2.650
 4164TIP3    H112456   3.486   6.331   2.563
 4164TIP3    H212457   3.553   6.219   2.641
 4165TIP3   OH212458   3.415   6.075   0.879
 4165TIP3    H112459   3.418   6.087   0.976
 4165TIP3    H212460   3.414   5.977   0.873
 4166TIP3   OH212461   4.020   6.326   2.260
 4166TIP3    H112462   4.096   6.370   2.216
 4166TIP3    H212463   3.949   6.389   2.241
 4167TIP3   OH212464   3.044   5.973   2.856
 4167TIP3    H112465   3.115   5.915   2.827
 4167TIP3    H212466   3.074   6.000   2.945
 4168TIP3   OH212467   3.101   5.785   1.289
 4168TIP3    H112468   3.076   5.747   1.375
 4168TIP3    H212469   3.141   5.708   1.243
 4169TIP3   OH212470   3.332   5.840   2.512
 4169TIP3    H112471   3.277   5.920   2.504
 4169TIP3    H212472   3.411   5.865   2.459
 4170TIP3   OH212473   3.209   5.581   1.130
 4170TIP3    H112474   3.185   5.592   1.036
 4170TIP3    H212475   3.307   5.580   1.124
 4171TIP3   OH212476   3.897   6.250   2.649
 4171TIP3    H112477   3.971   6.209   2.602
 4171TIP3    H212478   3.873   6.179   2.712
 4172TIP3   OH212479   4.014   5.896   0.805
 4172TIP3    H112480   4.020   5.855   0.717
 4172TIP3    H212481   3.991   5.988   0.778
 4173TIP3   OH212482   3.507   5.369   2.405
 4173TIP3    H112483   3.544   5.459   2.398
 4173TIP3    H212484   3.411   5.385   2.413
 4174TIP3   OH212485   3.513   5.959   2.340
 4174TIP3    H112486   3.597   5.955   2.293
 4174TIP3    H212487   3.460   6.019   2.284
 4175TIP3   OH212488   4.118   5.924   2.719
 4175TIP3    H112489   4.149   5.833   2.710
 4175TIP3    H212490   4.186   5.973   2.670
 4176TIP3   OH212491   4.151   6.180   2.446
 4176TIP3    H112492   4.093   6.234   2.387
 4176TIP3    H212493   4.239   6.200   2.406
 4177TIP3   OH212494   3.385   5.749   2.870
 4177TIP3    H112495   3.326   5.671   2.880
 4177TIP3    H212496   3.398   5.753   2.774
 4178TIP3   OH212497   3.637   5.167   2.529
 4178TIP3    H112498   3.592   5.241   2.483
 4178TIP3    H212499   3.569   5.097   2.521
 4179TIP3   OH212500   4.009   5.666   2.596
 4179TIP3    H112501   3.913   5.648   2.586
 4179TIP3    H212502   4.037   5.603   2.664
 4180TIP3   OH212503   4.259   5.582   2.751
 4180TIP3    H112504   4.254   5.485   2.763
 4180TIP3    H212505   4.239   5.617   2.840
 4181TIP3   OH212506   3.220   5.525   2.930
 4181TIP3    H112507   3.222   5.432   2.899
 4181TIP3    H212508   3.259   5.514   3.020
 4182TIP3   OH212509   3.725   5.192   2.788
 4182TIP3    H112510   3.790   5.120   2.780
 4182TIP3    H212511   3.685   5.189   2.699
 4183TIP3   OH212512   3.797   5.412   2.938
 4183TIP3    H112513   3.773   5.341   2.875
 4183TIP3    H212514   3.717   5.470   2.933
 4184TIP3   OH212515   3.024   6.637   1.044
 4184TIP3    H112516   3.120   6.628   1.034
 4184TIP3    H212517   3.001   6.671   0.956
 4185TIP3   OH212518   2.496   6.023   1.252
 4185TIP3    H112519   2.591   6.042   1.236
 4185TIP3    H212520   2.489   5.933   1.212
 4186TIP3   OH212521   2.407   6.636   1.662
 4186TIP3    H112522   2.345   6.569   1.624
 4186TIP3    H212523   2.448   6.582   1.734
 4187TIP3   OH212524   2.516   6.510   1.881
 4187TIP3    H112525   2.514   6.425   1.929
 4187TIP3    H212526   2.594   6.550   1.925
 4188TIP3   OH212527   4.274   6.877   1.659
 4188TIP3    H112528   4.309   6.897   1.748
 4188TIP3    H212529   4.344   6.913   1.601
 4189TIP3   OH212530   4.327   6.869   1.934
 4189TIP3    H112531   4.273   6.787   1.932
 4189TIP3    H212532   4.395   6.843   2.000
 4190TIP3   OH212533   4.348   6.582   2.512
 4190TIP3    H112534   4.277   6.591   2.579
 4190TIP3    H212535   4.393   6.669   2.520
 4191TIP3   OH212536   4.165   6.091   1.130
 4191TIP3    H112537   4.230   6.156   1.097
 4191TIP3    H212538   4.211   6.055   1.208
 4192TIP3   OH212539   4.293   5.959   1.335
 4192TIP3    H112540   4.226   5.918   1.394
 4192TIP3    H212541   4.358   5.995   1.399
 4193TIP3   OH212542   4.351   6.356   1.765
 4193TIP3    H112543   4.403   6.285   1.722
 4193TIP3    H212544   4.350   6.426   1.697
 4194TIP3   OH212545   4.172   6.645   1.960
 4194TIP3    H112546   4.101   6.689   2.010
 4194TIP3    H212547   4.122   6.600   1.888
 4195TIP3   OH212548   4.227   5.868   0.978
 4195TIP3    H112549   4.154   5.867   0.912
 4195TIP3    H212550   4.199   5.944   1.033
 4196TIP3   OH212551   4.096   5.538   0.938
 4196TIP3    H112552   4.068   5.577   0.854
 4196TIP3    H212553   4.075   5.444   0.923
 4197TIP3   OH212554   4.104   5.820   1.479
 4197TIP3    H112555   4.112   5.724   1.471
 4197TIP3    H212556   4.089   5.831   1.576
 4198TIP3   OH212557   2.728   5.898   2.226
 4198TIP3    H112558   2.727   5.858   2.136
 4198TIP3    H212559   2.825   5.894   2.245
 4199TIP3   OH212560   4.399   6.244   2.338
 4199TIP3    H112561   4.467   6.175   2.326
 4199TIP3    H212562   4.421   6.309   2.270
 4200TIP3   OH212563   4.580   6.041   2.340
 4200TIP3    H112564   4.504   5.994   2.381
 4200TIP3    H212565   4.652   5.978   2.363
 4201TIP3   OH212566   4.048   5.269   0.907
 4201TIP3    H112567   4.120   5.243   0.968
 4201TIP3    H212568   3.973   5.215   0.937
 4202TIP3   OH212569   4.103   5.535   1.369
 4202TIP3    H112570   4.143   5.446   1.384
 4202TIP3    H212571   4.161   5.567   1.299
 4203TIP3   OH212572   4.261   5.702   1.868
 4203TIP3    H112573   4.347   5.726   1.827
 4203TIP3    H212574   4.275   5.740   1.958
 4204TIP3   OH212575   4.336   5.851   2.095
 4204TIP3    H112576   4.260   5.882   2.148
 4204TIP3    H212577   4.367   5.935   2.055
 4205TIP3   OH212578   2.952   5.577   2.907
 4205TIP3    H112579   3.050   5.570   2.906
 4205TIP3    H212580   2.928   5.489   2.941
 4206TIP3   OH212581   4.788   5.449   2.654
 4206TIP3    H112582   4.848   5.383   2.612
 4206TIP3    H212583   4.754   5.498   2.575
 4207TIP3   OH212584   4.211   5.285   1.410
 4207TIP3    H112585   4.259   5.270   1.494
 4207TIP3    H212586   4.150   5.209   1.410
 4208TIP3   OH212587   2.909   5.270   2.232
 4208TIP3    H112588   2.969   5.194   2.241
 4208TIP3    H212589   2.974   5.343   2.221
 4209TIP3   OH212590   2.710   5.543   2.301
 4209TIP3    H112591   2.760   5.539   2.217
 4209TIP3    H212592   2.754   5.616   2.347
 4210TIP3   OH212593   4.655   5.579   2.456
 4210TIP3    H112594   4.571   5.624   2.479
 4210TIP3    H212595   4.618   5.507   2.401
 4211TIP3   OH212596   4.287   5.216   1.047
 4211TIP3    H112597   4.328   5.146   0.991
 4211TIP3    H212598   4.354   5.286   1.046
 4212TIP3   OH212599   2.698   5.044   1.805
 4212TIP3    H112600   2.606   5.037   1.836
 4212TIP3    H212601   2.689   5.104   1.728
 4213TIP3   OH212602   3.854   6.749   1.309
 4213TIP3    H112603   3.912   6.742   1.231
 4213TIP3    H212604   3.904   6.809   1.367
 4214TIP3   OH212605   2.918   5.127   2.620
 4214TIP3    H112606   2.866   5.120   2.701
 4214TIP3    H212607   2.852   5.163   2.558
 4215TIP3   OH212608   2.956   6.565   2.699
 4215TIP3    H112609   2.867   6.531   2.678
 4215TIP3    H212610   2.973   6.525   2.785
 4216TIP3   OH212611   3.140   6.587   2.246
 4216TIP3    H112612   3.098   6.667   2.207
 4216TIP3    H212613   3.227   6.596   2.202
 4217TIP3   OH212614   3.574   6.832   2.382
 4217TIP3    H112615   3.618   6.830   2.470
 4217TIP3    H212616   3.640   6.881   2.329
 4218TIP3   OH212617   3.753   6.980   2.238
 4218TIP3    H112618   3.822   6.926   2.196
 4218TIP3    H212619   3.809   7.035   2.299
 4219TIP3   OH212620   4.555   5.341   2.340
 4219TIP3    H112621   4.464   5.331   2.305
 4219TIP3    H212622   4.588   5.249   2.333
 4220TIP3   OH212623   2.837   6.802   2.273
 4220TIP3    H112624   2.745   6.834   2.259
 4220TIP3    H212625   2.862   6.863   2.346
 4221TIP3   OH212626   3.066   6.822   2.131
 4221TIP3    H112627   2.978   6.819   2.174
 4221TIP3    H212628   3.044   6.857   2.042
 4222TIP3   OH212629   3.473   6.847   1.928
 4222TIP3    H112630   3.401   6.865   1.864
 4222TIP3    H212631   3.486   6.935   1.969
 4223TIP3   OH212632   3.742   6.792   1.977
 4223TIP3    H112633   3.647   6.804   1.960
 4223TIP3    H212634   3.781   6.868   1.932
 4224TIP3   OH212635   3.957   6.985   1.884
 4224TIP3    H112636   3.929   7.054   1.823
 4224TIP3    H212637   3.984   6.914   1.821
 4225TIP3   OH212638   2.726   6.625   2.023
 4225TIP3    H112639   2.762   6.594   2.109
 4225TIP3    H212640   2.797   6.589   1.965
 4226TIP3   OH212641   2.918   6.510   1.872
 4226TIP3    H112642   2.933   6.425   1.920
 4226TIP3    H212643   3.010   6.544   1.867
 4227TIP3   OH212644   3.187   6.600   1.879
 4227TIP3    H112645   3.215   6.506   1.870
 4227TIP3    H212646   3.235   6.622   1.960
 4228TIP3   OH212647   3.752   5.254   1.953
 4228TIP3    H112648   3.714   5.187   2.012
 4228TIP3    H212649   3.832   5.209   1.919
 4229TIP3   OH212650   4.277   5.136   1.860
 4229TIP3    H112651   4.313   5.191   1.787
 4229TIP3    H212652   4.183   5.161   1.859
 4230TIP3   OH212653   4.375   5.238   1.625
 4230TIP3    H112654   4.450   5.186   1.589
 4230TIP3    H212655   4.409   5.329   1.613
 4231TIP3   OH212656   3.006   4.965   1.973
 4231TIP3    H112657   2.914   4.932   1.979
 4231TIP3    H212658   3.054   4.880   1.969
 4232TIP3   OH212659   2.792   4.841   1.626
 4232TIP3    H112660   2.823   4.899   1.554
 4232TIP3    H212661   2.768   4.907   1.695
 4233TIP3   OH212662   3.453   4.998   1.858
 4233TIP3    H112663   3.509   5.047   1.796
 4233TIP3    H212664   3.480   5.037   1.943
 4234TIP3   OH212665   3.992   5.147   1.839
 4234TIP3    H112666   3.998   5.103   1.753
 4234TIP3    H212667   3.983   5.069   1.899
 4235TIP3   OH212668   4.027   5.073   1.404
 4235TIP3    H112669   3.942   5.116   1.425
 4235TIP3    H212670   4.014   4.986   1.448
 4236TIP3   OH212671   2.509   6.398   1.398
 4236TIP3    H112672   2.421   6.364   1.375
 4236TIP3    H212673   2.500   6.489   1.363
 4237TIP3   OH212674   2.916   4.999   1.383
 4237TIP3    H112675   2.962   4.933   1.328
 4237TIP3    H212676   2.991   5.050   1.419
 4238TIP3   OH212677   3.424   5.177   1.485
 4238TIP3    H112678   3.481   5.128   1.546
 4238TIP3    H212679   3.445   5.269   1.512
 4239TIP3   OH212680   3.288   6.592   0.989
 4239TIP3    H112681   3.376   6.614   0.950
 4239TIP3    H212682   3.262   6.519   0.928
 4240TIP3   OH212683   4.007   6.717   1.081
 4240TIP3    H112684   3.999   6.619   1.075
 4240TIP3    H212685   3.961   6.744   0.999
 4241TIP3   OH212686   3.212   5.248   2.867
 4241TIP3    H112687   3.176   5.176   2.923
 4241TIP3    H212688   3.306   5.247   2.896
 4242TIP3   OH212689   3.462   5.247   2.985
 4242TIP3    H112690   3.549   5.228   2.944
 4242TIP3    H212691   3.455   5.174   3.050
 4243TIP3   OH212692   2.598   6.443   1.051
 4243TIP3    H112693   2.600   6.434   1.147
 4243TIP3    H212694   2.681   6.397   1.024
 4244TIP3   OH212695   4.292   5.306   2.773
 4244TIP3    H112696   4.309   5.276   2.865
 4244TIP3    H212697   4.382   5.302   2.734
 4245TIP3   OH212698   4.226   6.863   2.263
 4245TIP3    H112699   4.148   6.830   2.213
 4245TIP3    H212700   4.202   6.958   2.271
 4246TIP3   OH212701   5.497   6.238   1.032
 4246TIP3    H112702   5.465   6.326   1.007
 4246TIP3    H212703   5.424   6.182   1.003
 4247TIP3   OH212704   5.490   6.234   1.417
 4247TIP3    H112705   5.527   6.211   1.504
 4247TIP3    H212706   5.452   6.150   1.389
 4248TIP3   OH212707   4.790   6.124   1.778
 4248TIP3    H112708   4.818   6.054   1.840
 4248TIP3    H212709   4.873   6.174   1.769
 4249TIP3   OH212710   5.729   6.522   1.102
 4249TIP3    H112711   5.726   6.436   1.146
 4249TIP3    H212712   5.721   6.582   1.177
 4250TIP3   OH212713   4.768   6.540   1.499
 4250TIP3    H112714   4.760   6.442   1.500
 4250TIP3    H212715   4.865   6.549   1.489
 4251TIP3   OH212716   4.473   5.737   1.280
 4251TIP3    H112717   4.425   5.819   1.302
 4251TIP3    H212718   4.401   5.687   1.238
 4252TIP3   OH212719   4.528   6.026   1.466
 4252TIP3    H112720   4.578   5.948   1.497
 4252TIP3    H212721   4.588   6.062   1.398
 4253TIP3   OH212722   5.336   6.972   1.113
 4253TIP3    H112723   5.389   6.915   1.056
 4253TIP3    H212724   5.403   7.005   1.176
 4254TIP3   OH212725   5.291   6.458   1.462
 4254TIP3    H112726   5.332   6.380   1.421
 4254TIP3    H212727   5.374   6.504   1.489
 4255TIP3   OH212728   6.306   5.772   1.462
 4255TIP3    H112729   6.336   5.856   1.501
 4255TIP3    H212730   6.337   5.781   1.370
 4256TIP3   OH212731   5.704   5.957   1.491
 4256TIP3    H112732   5.750   5.873   1.509
 4256TIP3    H212733   5.670   5.940   1.401
 4257TIP3   OH212734   5.049   5.619   1.455
 4257TIP3    H112735   5.027   5.692   1.393
 4257TIP3    H212736   5.000   5.546   1.413
 4258TIP3   OH212737   5.739   5.713   1.084
 4258TIP3    H112738   5.809   5.699   1.151
 4258TIP3    H212739   5.794   5.739   1.007
 4259TIP3   OH212740   4.678   5.820   1.564
 4259TIP3    H112741   4.760   5.802   1.613
 4259TIP3    H212742   4.693   5.765   1.485
 4260TIP3   OH212743   5.116   6.018   1.364
 4260TIP3    H112744   5.210   5.995   1.374
 4260TIP3    H212745   5.077   5.935   1.331
 4261TIP3   OH212746   6.379   5.985   1.630
 4261TIP3    H112747   6.294   6.033   1.621
 4261TIP3    H212748   6.419   6.032   1.706
 4262TIP3   OH212749   5.041   5.604   1.894
 4262TIP3    H112750   4.982   5.640   1.825
 4262TIP3    H212751   4.986   5.619   1.974
 4263TIP3   OH212752   5.383   6.455   0.896
 4263TIP3    H112753   5.304   6.411   0.861
 4263TIP3    H212754   5.344   6.542   0.919
 4264TIP3   OH212755   5.149   6.377   1.684
 4264TIP3    H112756   5.090   6.447   1.720
 4264TIP3    H212757   5.191   6.424   1.608
 4265TIP3   OH212758   5.943   5.719   1.258
 4265TIP3    H112759   5.938   5.671   1.342
 4265TIP3    H212760   5.998   5.797   1.283
 4266TIP3   OH212761   4.913   5.717   1.675
 4266TIP3    H112762   4.975   5.789   1.700
 4266TIP3    H212763   4.963   5.677   1.599
 4267TIP3   OH212764   4.982   6.575   1.789
 4267TIP3    H112765   4.956   6.662   1.752
 4267TIP3    H212766   4.901   6.556   1.841
 4268TIP3   OH212767   4.364   6.262   1.023
 4268TIP3    H112768   4.329   6.283   0.934
 4268TIP3    H212769   4.399   6.348   1.053
 4269TIP3   OH212770   5.817   6.734   1.297
 4269TIP3    H112771   5.726   6.734   1.335
 4269TIP3    H212772   5.852   6.813   1.339
 4270TIP3   OH212773   6.098   5.673   1.623
 4270TIP3    H112774   6.014   5.704   1.586
 4270TIP3    H212775   6.163   5.707   1.558
 4271TIP3   OH212776   5.391   5.316   1.609
 4271TIP3    H112777   5.375   5.222   1.628
 4271TIP3    H212778   5.314   5.357   1.656
 4272TIP3   OH212779   5.490   6.828   0.923
 4272TIP3    H112780   5.554   6.754   0.920
 4272TIP3    H212781   5.552   6.900   0.904
 4273TIP3   OH212782   5.658   6.603   0.845
 4273TIP3    H112783   5.591   6.534   0.841
 4273TIP3    H212784   5.702   6.581   0.930
 4274TIP3   OH212785   6.049   6.678   1.538
 4274TIP3    H112786   6.007   6.592   1.517
 4274TIP3    H212787   5.999   6.739   1.482
 4275TIP3   OH212788   5.345   6.079   0.859
 4275TIP3    H112789   5.257   6.123   0.853
 4275TIP3    H212790   5.391   6.114   0.782
 4276TIP3   OH212791   6.218   6.301   1.441
 4276TIP3    H112792   6.138   6.358   1.441
 4276TIP3    H212793   6.283   6.367   1.411
 4277TIP3   OH212794   5.652   6.112   0.832
 4277TIP3    H112795   5.604   6.163   0.901
 4277TIP3    H212796   5.742   6.113   0.871
 4278TIP3   OH212797   5.905   6.216   1.748
 4278TIP3    H112798   5.912   6.311   1.770
 4278TIP3    H212799   5.815   6.215   1.709
 4279TIP3   OH212800   4.904   6.162   1.253
 4279TIP3    H112801   4.865   6.105   1.183
 4279TIP3    H212802   4.980   6.109   1.283
 4280TIP3   OH212803   5.035   6.576   1.399
 4280TIP3    H112804   5.012   6.546   1.309
 4280TIP3    H212805   5.122   6.535   1.414
 4281TIP3   OH212806   5.038   6.135   1.607
 4281TIP3    H112807   5.071   6.108   1.519
 4281TIP3    H212808   5.084   6.221   1.622
 4282TIP3   OH212809   5.577   6.774   1.403
 4282TIP3    H112810   5.552   6.853   1.454
 4282TIP3    H212811   5.544   6.700   1.459
 4283TIP3   OH212812   5.179   6.700   1.936
 4283TIP3    H112813   5.110   6.754   1.979
 4283TIP3    H212814   5.122   6.640   1.883
 4284TIP3   OH212815   4.936   6.245   2.038
 4284TIP3    H112816   4.940   6.335   2.078
 4284TIP3    H212817   4.842   6.224   2.051
 4285TIP3   OH212818   5.253   6.695   0.920
 4285TIP3    H112819   5.337   6.746   0.919
 4285TIP3    H212820   5.191   6.758   0.959
 4286TIP3   OH212821   4.969   6.863   2.023
 4286TIP3    H112822   4.936   6.862   1.931
 4286TIP3    H212823   4.890   6.835   2.074
 4287TIP3   OH212824   6.018   5.245   0.711
 4287TIP3    H112825   5.941   5.277   0.762
 4287TIP3    H212826   6.057   5.329   0.679
 4288TIP3   OH212827   4.776   6.009   1.048
 4288TIP3    H112828   4.703   6.052   0.999
 4288TIP3    H212829   4.740   5.920   1.063
 4289TIP3   OH212830   4.553   6.393   1.963
 4289TIP3    H112831   4.484   6.372   1.896
 4289TIP3    H212832   4.591   6.304   1.983
 4290TIP3   OH212833   4.407   6.584   1.592
 4290TIP3    H112834   4.504   6.578   1.585
 4290TIP3    H212835   4.397   6.661   1.650
 4291TIP3   OH212836   5.377   6.819   1.789
 4291TIP3    H112837   5.367   6.912   1.817
 4291TIP3    H212838   5.303   6.776   1.839
 4292TIP3   OH212839   4.576   6.806   1.124
 4292TIP3    H112840   4.622   6.799   1.211
 4292TIP3    H212841   4.531   6.719   1.121
 4293TIP3   OH212842   6.174   6.169   1.924
 4293TIP3    H112843   6.091   6.187   1.878
 4293TIP3    H212844   6.185   6.073   1.911
 4294TIP3   OH212845   4.756   6.577   1.949
 4294TIP3    H112846   4.805   6.557   2.031
 4294TIP3    H212847   4.682   6.513   1.954
 4295TIP3   OH212848   5.156   5.397   1.739
 4295TIP3    H112849   5.068   5.366   1.708
 4295TIP3    H212850   5.128   5.477   1.789
 4296TIP3   OH212851   5.694   5.515   1.935
 4296TIP3    H112852   5.763   5.479   1.994
 4296TIP3    H212853   5.611   5.490   1.980
 4297TIP3   OH212854   5.918   5.943   1.851
 4297TIP3    H112855   5.869   5.957   1.933
 4297TIP3    H212856   5.911   6.030   1.808
 4298TIP3   OH212857   5.279   5.458   0.677
 4298TIP3    H112858   5.259   5.461   0.773
 4298TIP3    H212859   5.244   5.369   0.657
 4299TIP3   OH212860   5.089   5.914   1.756
 4299TIP3    H112861   5.040   5.934   1.838
 4299TIP3    H212862   5.073   5.996   1.704
 4300TIP3   OH212863   4.971   5.802   1.272
 4300TIP3    H112864   4.879   5.775   1.290
 4300TIP3    H212865   4.983   5.759   1.184
 4301TIP3   OH212866   5.467   5.879   0.998
 4301TIP3    H112867   5.419   5.951   0.951
 4301TIP3    H212868   5.527   5.851   0.926
 4302TIP3   OH212869   5.616   5.911   1.236
 4302TIP3    H112870   5.555   5.938   1.164
 4302TIP3    H212871   5.654   5.833   1.190
 4303TIP3   OH212872   4.904   5.939   1.961
 4303TIP3    H112873   4.933   6.003   2.028
 4303TIP3    H212874   4.892   5.858   2.014
 4304TIP3   OH212875   4.936   5.383   0.688
 4304TIP3    H112876   4.928   5.405   0.783
 4304TIP3    H212877   4.900   5.462   0.646
 4305TIP3   OH212878   4.502   5.460   1.544
 4305TIP3    H112879   4.575   5.495   1.599
 4305TIP3    H212880   4.547   5.432   1.463
 4306TIP3   OH212881   4.462   5.442   1.062
 4306TIP3    H112882   4.511   5.477   0.985
 4306TIP3    H212883   4.403   5.517   1.080
 4307TIP3   OH212884   5.625   6.156   1.653
 4307TIP3    H112885   5.661   6.087   1.593
 4307TIP3    H212886   5.595   6.099   1.727
 4308TIP3   OH212887   5.306   5.620   1.329
 4308TIP3    H112888   5.225   5.620   1.383
 4308TIP3    H212889   5.376   5.612   1.397
 4309TIP3   OH212890   4.734   5.679   1.336
 4309TIP3    H112891   4.640   5.687   1.307
 4309TIP3    H212892   4.756   5.587   1.314
 4310TIP3   OH212893   4.998   5.671   1.036
 4310TIP3    H112894   5.091   5.687   1.010
 4310TIP3    H212895   4.947   5.688   0.954
 4311TIP3   OH212896   5.787   5.699   1.541
 4311TIP3    H112897   5.747   5.710   1.629
 4311TIP3    H212898   5.725   5.637   1.499
 4312TIP3   OH212899   4.834   5.691   0.823
 4312TIP3    H112900   4.754   5.651   0.784
 4312TIP3    H212901   4.877   5.728   0.743
 4313TIP3   OH212902   4.917   6.500   2.169
 4313TIP3    H112903   4.996   6.535   2.216
 4313TIP3    H212904   4.854   6.491   2.243
 4314TIP3   OH212905   5.381   5.952   1.426
 4314TIP3    H112906   5.454   5.913   1.376
 4314TIP3    H212907   5.385   5.903   1.510
 4315TIP3   OH212908   4.899   5.436   1.312
 4315TIP3    H112909   4.863   5.360   1.363
 4315TIP3    H212910   4.940   5.391   1.237
 4316TIP3   OH212911   5.355   5.847   1.713
 4316TIP3    H112912   5.263   5.880   1.727
 4316TIP3    H212913   5.409   5.913   1.760
 4317TIP3   OH212914   5.117   6.220   0.838
 4317TIP3    H112915   5.034   6.191   0.796
 4317TIP3    H212916   5.083   6.263   0.920
 4318TIP3   OH212917   5.981   6.448   1.410
 4318TIP3    H112918   5.974   6.470   1.316
 4318TIP3    H212919   5.893   6.406   1.422
 4319TIP3   OH212920   5.542   5.548   0.731
 4319TIP3    H112921   5.461   5.516   0.686
 4319TIP3    H212922   5.553   5.638   0.697
 4320TIP3   OH212923   5.480   6.555   1.813
 4320TIP3    H112924   5.544   6.554   1.885
 4320TIP3    H212925   5.453   6.649   1.809
 4321TIP3   OH212926   5.634   5.829   0.774
 4321TIP3    H112927   5.713   5.781   0.804
 4321TIP3    H212928   5.667   5.921   0.772
 4322TIP3   OH212929   4.790   6.264   1.485
 4322TIP3    H112930   4.826   6.232   1.399
 4322TIP3    H212931   4.833   6.203   1.547
 4323TIP3   OH212932   4.671   6.177   2.100
 4323TIP3    H112933   4.680   6.158   2.196
 4323TIP3    H212934   4.600   6.114   2.076
 4324TIP3   OH212935   5.664   6.803   1.723
 4324TIP3    H112936   5.568   6.817   1.726
 4324TIP3    H212937   5.695   6.851   1.802
 4325TIP3   OH212938   5.744   6.331   1.353
 4325TIP3    H112939   5.651   6.308   1.367
 4325TIP3    H212940   5.779   6.248   1.314
 4326TIP3   OH212941   4.890   6.568   1.122
 4326TIP3    H112942   4.880   6.644   1.062
 4326TIP3    H212943   4.801   6.531   1.120
 4327TIP3   OH212944   4.455   5.867   0.820
 4327TIP3    H112945   4.499   5.951   0.843
 4327TIP3    H212946   4.375   5.872   0.878
 4328TIP3   OH212947   5.026   6.333   1.067
 4328TIP3    H112948   4.985   6.421   1.081
 4328TIP3    H212949   4.984   6.280   1.137
 4329TIP3   OH212950   5.160   6.906   1.581
 4329TIP3    H112951   5.197   6.980   1.529
 4329TIP3    H212952   5.240   6.862   1.613
 4330TIP3   OH212953   4.804   6.787   0.963
 4330TIP3    H112954   4.720   6.800   1.010
 4330TIP3    H212955   4.840   6.879   0.967
 4331TIP3   OH212956   5.541   6.538   1.545
 4331TIP3    H112957   5.528   6.533   1.642
 4331TIP3    H212958   5.629   6.499   1.536
 4332TIP3   OH212959   4.874   5.685   2.105
 4332TIP3    H112960   4.777   5.690   2.116
 4332TIP3    H212961   4.899   5.627   2.179
 4333TIP3   OH212962   4.596   6.763   1.739
 4333TIP3    H112963   4.653   6.697   1.782
 4333TIP3    H212964   4.619   6.844   1.786
 4334TIP3   OH212965   4.795   6.432   0.760
 4334TIP3    H112966   4.868   6.388   0.713
 4334TIP3    H212967   4.808   6.525   0.735
 4335TIP3   OH212968   4.563   6.110   0.902
 4335TIP3    H112969   4.496   6.158   0.956
 4335TIP3    H212970   4.578   6.175   0.831
 4336TIP3   OH212971   5.711   5.758   1.806
 4336TIP3    H112972   5.803   5.788   1.818
 4336TIP3    H212973   5.710   5.671   1.853
 4337TIP3   OH212974   5.602   5.488   0.985
 4337TIP3    H112975   5.579   5.508   0.891
 4337TIP3    H212976   5.639   5.574   1.014
 4338TIP3   OH212977   5.280   5.683   1.059
 4338TIP3    H112978   5.346   5.754   1.042
 4338TIP3    H212979   5.289   5.673   1.157
 4339TIP3   OH212980   5.561   5.984   1.852
 4339TIP3    H112981   5.559   5.990   1.948
 4339TIP3    H212982   5.608   5.898   1.837
 4340TIP3   OH212983   5.419   5.396   1.165
 4340TIP3    H112984   5.412   5.476   1.220
 4340TIP3    H212985   5.487   5.426   1.100
 4341TIP3   OH212986   4.810   6.709   0.701
 4341TIP3    H112987   4.837   6.796   0.671
 4341TIP3    H212988   4.807   6.724   0.798
 4342TIP3   OH212989   4.941   5.408   0.966
 4342TIP3    H112990   4.939   5.499   1.002
 4342TIP3    H212991   5.037   5.392   0.966
 4343TIP3   OH212992   6.190   5.898   1.854
 4343TIP3    H112993   6.092   5.890   1.850
 4343TIP3    H212994   6.215   5.873   1.764
 4344TIP3   OH212995   5.840   6.094   1.245
 4344TIP3    H112996   5.767   6.031   1.257
 4344TIP3    H212997   5.915   6.048   1.291
 4345TIP3   OH212998   4.553   6.317   0.702
 4345TIP3    H112999   4.632   6.368   0.731
 4345TIP3    H213000   4.596   6.256   0.639
 4346TIP3   OH213001   4.504   5.599   0.840
 4346TIP3    H113002   4.499   5.697   0.843
 4346TIP3    H213003   4.423   5.576   0.793
 4347TIP3   OH213004   4.891   5.317   1.708
 4347TIP3    H113005   4.861   5.281   1.622
 4347TIP3    H213006   4.881   5.240   1.767
 4348TIP3   OH213007   4.436   6.539   1.093
 4348TIP3    H113008   4.369   6.566   1.157
 4348TIP3    H213009   4.399   6.577   1.010
 4349TIP3   OH213010   4.585   7.062   2.185
 4349TIP3    H113011   4.668   7.054   2.236
 4349TIP3    H213012   4.555   6.969   2.181
 4350TIP3   OH213013   5.091   7.034   2.205
 4350TIP3    H113014   5.172   6.981   2.193
 4350TIP3    H213015   5.033   6.987   2.141
 4351TIP3   OH213016   5.731   6.932   1.961
 4351TIP3    H113017   5.676   6.876   2.019
 4351TIP3    H213018   5.814   6.926   2.013
 4352TIP3   OH213019   4.716   6.478   2.360
 4352TIP3    H113020   4.732   6.382   2.366
 4352TIP3    H213021   4.629   6.481   2.315
 4353TIP3   OH213022   4.710   6.137   0.578
 4353TIP3    H113023   4.778   6.113   0.645
 4353TIP3    H213024   4.764   6.167   0.505
 4354TIP3   OH213025   5.320   6.555   2.122
 4354TIP3    H113026   5.278   6.600   2.045
 4354TIP3    H213027   5.370   6.485   2.079
 4355TIP3   OH213028   5.810   6.561   1.697
 4355TIP3    H113029   5.899   6.591   1.718
 4355TIP3    H213030   5.759   6.644   1.702
 4356TIP3   OH213031   4.838   6.226   2.351
 4356TIP3    H113032   4.906   6.161   2.328
 4356TIP3    H213033   4.870   6.258   2.438
 4357TIP3   OH213034   4.891   6.035   0.769
 4357TIP3    H113035   4.869   6.015   0.862
 4357TIP3    H213036   4.917   5.947   0.735
 4358TIP3   OH213037   5.167   6.096   2.005
 4358TIP3    H113038   5.092   6.159   2.007
 4358TIP3    H213039   5.230   6.142   1.944
 4359TIP3   OH213040   4.973   5.801   0.618
 4359TIP3    H113041   4.960   5.741   0.543
 4359TIP3    H213042   5.048   5.856   0.586
 4360TIP3   OH213043   5.708   6.490   2.143
 4360TIP3    H113044   5.773   6.491   2.070
 4360TIP3    H213045   5.774   6.486   2.214
 4361TIP3   OH213046   5.321   5.907   2.121
 4361TIP3    H113047   5.311   5.823   2.072
 4361TIP3    H213048   5.262   5.967   2.069
 4362TIP3   OH213049   5.299   5.683   1.944
 4362TIP3    H113050   5.325   5.721   1.858
 4362TIP3    H213051   5.205   5.658   1.927
 4363TIP3   OH213052   5.326   6.215   1.818
 4363TIP3    H113053   5.409   6.231   1.771
 4363TIP3    H213054   5.265   6.277   1.773
 4364TIP3   OH213055   5.887   6.179   2.196
 4364TIP3    H113056   5.973   6.134   2.204
 4364TIP3    H213057   5.918   6.270   2.171
 4365TIP3   OH213058   5.188   5.995   2.361
 4365TIP3    H113059   5.115   5.933   2.380
 4365TIP3    H213060   5.209   5.973   2.269
 4366TIP3   OH213061   5.431   5.441   2.011
 4366TIP3    H113062   5.379   5.521   1.988
 4366TIP3    H213063   5.364   5.370   2.000
 4367TIP3   OH213064   5.550   6.007   2.244
 4367TIP3    H113065   5.526   5.965   2.330
 4367TIP3    H213066   5.466   5.987   2.197
 4368TIP3   OH213067   5.789   5.920   2.107
 4368TIP3    H113068   5.736   5.841   2.129
 4368TIP3    H213069   5.879   5.889   2.136
 4369TIP3   OH213070   6.009   5.832   2.228
 4369TIP3    H113071   6.032   5.737   2.242
 4369TIP3    H213072   6.016   5.868   2.319
 4370TIP3   OH213073   5.018   5.782   2.419
 4370TIP3    H113074   5.015   5.690   2.387
 4370TIP3    H213075   5.055   5.768   2.509
 4371TIP3   OH213076   5.524   5.453   2.269
 4371TIP3    H113077   5.588   5.380   2.264
 4371TIP3    H213078   5.483   5.447   2.181
 4372TIP3   OH213079   5.598   5.671   2.418
 4372TIP3    H113080   5.573   5.594   2.360
 4372TIP3    H213081   5.515   5.724   2.417
 4373TIP3   OH213082   4.288   6.275   0.758
 4373TIP3    H113083   4.377   6.297   0.724
 4373TIP3    H213084   4.275   6.185   0.721
 4374TIP3   OH213085   4.200   6.898   1.159
 4374TIP3    H113086   4.141   6.831   1.118
 4374TIP3    H213087   4.247   6.841   1.223
 4375TIP3   OH213088   4.335   6.743   1.342
 4375TIP3    H113089   4.324   6.669   1.404
 4375TIP3    H213090   4.393   6.800   1.395
 4376TIP3   OH213091   6.049   6.222   0.829
 4376TIP3    H113092   5.972   6.172   0.863
 4376TIP3    H213093   6.113   6.206   0.899
 4377TIP3   OH213094   5.882   6.055   0.976
 4377TIP3    H113095   5.892   5.959   0.978
 4377TIP3    H213096   5.870   6.076   1.071
 4378TIP3   OH213097   4.525   6.148   1.715
 4378TIP3    H113098   4.522   6.112   1.624
 4378TIP3    H213099   4.623   6.148   1.731
 4379TIP3   OH213100   6.392   6.323   1.866
 4379TIP3    H113101   6.303   6.287   1.886
 4379TIP3    H213102   6.442   6.239   1.860
 4380TIP3   OH213103   5.894   5.774   0.870
 4380TIP3    H113104   5.937   5.686   0.873
 4380TIP3    H213105   5.954   5.820   0.810
 4381TIP3   OH213106   6.056   5.960   1.356
 4381TIP3    H113107   6.140   5.984   1.310
 4381TIP3    H213108   6.076   5.995   1.445
 4382TIP3   OH213109   6.124   6.096   1.592
 4382TIP3    H113110   6.050   6.140   1.638
 4382TIP3    H213111   6.160   6.171   1.539
 4383TIP3   OH213112   4.752   5.836   2.398
 4383TIP3    H113113   4.849   5.826   2.397
 4383TIP3    H213114   4.724   5.747   2.428
 4384TIP3   OH213115   6.585   5.702   2.143
 4384TIP3    H113116   6.645   5.637   2.100
 4384TIP3    H213117   6.549   5.751   2.066
 4385TIP3   OH213118   6.011   5.530   0.896
 4385TIP3    H113119   6.058   5.517   0.981
 4385TIP3    H213120   5.944   5.458   0.899
 4386TIP3   OH213121   4.707   5.527   1.717
 4386TIP3    H113122   4.767   5.450   1.726
 4386TIP3    H213123   4.771   5.600   1.708
 4387TIP3   OH213124   4.507   5.797   1.789
 4387TIP3    H113125   4.557   5.797   1.705
 4387TIP3    H213126   4.536   5.879   1.829
 4388TIP3   OH213127   6.442   5.830   1.951
 4388TIP3    H113128   6.358   5.876   1.970
 4388TIP3    H213129   6.409   5.761   1.890
 4389TIP3   OH213130   4.495   5.299   1.289
 4389TIP3    H113131   4.403   5.294   1.322
 4389TIP3    H213132   4.486   5.360   1.213
 4390TIP3   OH213133   4.715   5.384   2.107
 4390TIP3    H113134   4.662   5.377   2.188
 4390TIP3    H213135   4.649   5.422   2.045
 4391TIP3   OH213136   4.757   6.816   2.199
 4391TIP3    H113137   4.668   6.789   2.171
 4391TIP3    H213138   4.754   6.789   2.294
 4392TIP3   OH213139   4.940   6.845   1.738
 4392TIP3    H113140   4.891   6.920   1.698
 4392TIP3    H213141   5.025   6.859   1.689
 4393TIP3   OH213142   5.405   7.088   1.864
 4393TIP3    H113143   5.449   7.084   1.950
 4393TIP3    H213144   5.479   7.110   1.806
 4394TIP3   OH213145   6.349   5.597   1.826
 4394TIP3    H113146   6.260   5.586   1.789
 4394TIP3    H213147   6.384   5.505   1.818
 4395TIP3   OH213148   4.633   7.064   1.760
 4395TIP3    H113149   4.540   7.090   1.743
 4395TIP3    H213150   4.653   7.125   1.834
 4396TIP3   OH213151   4.864   7.079   1.620
 4396TIP3    H113152   4.775   7.077   1.662
 4396TIP3    H213153   4.841   7.112   1.531
 4397TIP3   OH213154   5.260   7.109   1.427
 4397TIP3    H113155   5.198   7.113   1.352
 4397TIP3    H213156   5.276   7.203   1.446
 4398TIP3   OH213157   5.525   7.042   1.478
 4398TIP3    H113158   5.431   7.067   1.469
 4398TIP3    H213159   5.558   7.072   1.391
 4399TIP3   OH213160   4.515   6.885   1.504
 4399TIP3    H113161   4.544   6.854   1.592
 4399TIP3    H213162   4.588   6.847   1.449
 4400TIP3   OH213163   4.712   6.768   1.360
 4400TIP3    H113164   4.728   6.683   1.408
 4400TIP3    H213165   4.804   6.802   1.354
 4401TIP3   OH213166   4.981   6.857   1.364
 4401TIP3    H113167   5.011   6.765   1.352
 4401TIP3    H213168   5.028   6.879   1.446
 4402TIP3   OH213169   5.555   5.515   1.451
 4402TIP3    H113170   5.512   5.441   1.499
 4402TIP3    H213171   5.629   5.471   1.405
 4403TIP3   OH213172   6.073   5.397   1.351
 4403TIP3    H113173   6.110   5.447   1.275
 4403TIP3    H213174   5.977   5.416   1.343
 4404TIP3   OH213175   6.171   5.493   1.116
 4404TIP3    H113176   6.247   5.444   1.077
 4404TIP3    H213177   6.202   5.586   1.103
 4405TIP3   OH213178   4.802   5.222   1.461
 4405TIP3    H113179   4.710   5.190   1.467
 4405TIP3    H213180   4.850   5.137   1.457
 4406TIP3   OH213181   4.589   5.096   1.111
 4406TIP3    H113182   4.620   5.152   1.038
 4406TIP3    H213183   4.564   5.163   1.178
 4407TIP3   OH213184   5.251   5.253   1.345
 4407TIP3    H113185   5.304   5.300   1.279
 4407TIP3    H213186   5.280   5.295   1.428
 4408TIP3   OH213187   5.787   5.405   1.327
 4408TIP3    H113188   5.792   5.364   1.240
 4408TIP3    H213189   5.778   5.326   1.385
 4409TIP3   OH213190   5.822   5.329   0.897
 4409TIP3    H113191   5.737   5.375   0.913
 4409TIP3    H213192   5.806   5.245   0.944
 4410TIP3   OH213193   4.302   6.655   0.894
 4410TIP3    H113194   4.225   6.607   0.861
 4410TIP3    H213195   4.288   6.743   0.855
 4411TIP3   OH213196   4.711   5.249   0.877
 4411TIP3    H113197   4.762   5.193   0.816
 4411TIP3    H213198   4.781   5.304   0.916
 4412TIP3   OH213199   5.223   5.435   0.961
 4412TIP3    H113200   5.278   5.385   1.023
 4412TIP3    H213201   5.244   5.526   0.991
 4413TIP3   OH213202   5.011   5.510   2.358
 4413TIP3    H113203   4.972   5.437   2.410
 4413TIP3    H213204   5.105   5.505   2.387
 4414TIP3   OH213205   5.265   5.503   2.474
 4414TIP3    H113206   5.347   5.469   2.434
 4414TIP3    H213207   5.248   5.435   2.543
 4415TIP3   OH213208   6.090   5.568   2.259
 4415TIP3    H113209   6.107   5.535   2.350
 4415TIP3    H213210   6.180   5.561   2.219
 4416TIP3   OH213211   6.280   5.726   1.041
 4416TIP3    H113212   6.363   5.753   1.085
 4416TIP3    H213213   6.308   5.708   0.949
 4417TIP3   OH213214   6.679   5.941   1.647
 4417TIP3    H113215   6.588   5.949   1.613
 4417TIP3    H213216   6.682   5.848   1.673
 4418TIP3   OH213217   6.681   5.584   1.211
 4418TIP3    H113218   6.662   5.553   1.119
 4418TIP3    H213219   6.678   5.500   1.260
 4419TIP3   OH213220   6.781   6.047   1.929
 4419TIP3    H113221   6.781   5.965   1.877
 4419TIP3    H213222   6.842   6.023   2.001
 4420TIP3   OH213223   6.516   6.080   1.857
 4420TIP3    H113224   6.613   6.078   1.861
 4420TIP3    H213225   6.496   5.997   1.905
 4421TIP3   OH213226   6.487   5.783   1.227
 4421TIP3    H113227   6.542   5.702   1.223
 4421TIP3    H213228   6.559   5.849   1.231
 4422TIP3   OH213229   6.303   6.042   1.269
 4422TIP3    H113230   6.380   6.012   1.220
 4422TIP3    H213231   6.335   6.119   1.319
 4423TIP3   OH213232   6.272   5.600   0.787
 4423TIP3    H113233   6.185   5.568   0.818
 4423TIP3    H213234   6.273   5.567   0.697
 4424TIP3   OH213235   6.515   5.644   1.597
 4424TIP3    H113236   6.460   5.636   1.676
 4424TIP3    H213237   6.448   5.675   1.532
 4425TIP3   OH213238   6.599   5.486   0.970
 4425TIP3    H113239   6.506   5.457   0.963
 4425TIP3    H213240   6.645   5.400   0.956
 4426TIP3   OH213241   6.802   5.751   1.846
 4426TIP3    H113242   6.766   5.682   1.904
 4426TIP3    H213243   6.897   5.749   1.873
 4427TIP3   OH213244   7.051   5.745   1.970
 4427TIP3    H113245   7.144   5.714   1.954
 4427TIP3    H213246   7.024   5.678   2.037
 4428TIP3   OH213247   0.816   6.746   3.295
 4428TIP3    H113248   0.867   6.663   3.282
 4428TIP3    H213249   0.888   6.810   3.300
 4429TIP3   OH213250   0.603   6.604   2.999
 4429TIP3    H113251   0.523   6.562   2.961
 4429TIP3    H213252   0.663   6.526   3.000
 4430TIP3   OH213253   0.325   6.426   2.518
 4430TIP3    H113254   0.377   6.485   2.459
 4430TIP3    H213255   0.237   6.462   2.508
 4431TIP3   OH213256   0.442   6.559   2.307
 4431TIP3    H113257   0.499   6.497   2.258
 4431TIP3    H213258   0.479   6.644   2.282
 4432TIP3   OH213259   1.434   6.617   2.269
 4432TIP3    H113260   1.421   6.523   2.293
 4432TIP3    H213261   1.360   6.658   2.320
 4433TIP3   OH213262   2.079   6.570   1.372
 4433TIP3    H113263   2.004   6.590   1.433
 4433TIP3    H213264   2.051   6.618   1.292
 4434TIP3   OH213265   1.219   6.702   2.415
 4434TIP3    H113266   1.134   6.659   2.389
 4434TIP3    H213267   1.197   6.793   2.394
 4435TIP3   OH213268   1.735   6.804   2.592
 4435TIP3    H113269   1.810   6.794   2.654
 4435TIP3    H213270   1.658   6.806   2.652
 4436TIP3   OH213271   0.975   6.590   2.365
 4436TIP3    H113272   0.912   6.587   2.291
 4436TIP3    H213273   0.938   6.526   2.428
 4437TIP3   OH213274   1.456   6.762   2.660
 4437TIP3    H113275   1.429   6.797   2.574
 4437TIP3    H213276   1.398   6.682   2.665
 4438TIP3   OH213277   1.559   6.738   2.923
 4438TIP3    H113278   1.622   6.663   2.915
 4438TIP3    H213279   1.517   6.738   2.835
 4439TIP3   OH213280   1.679   6.939   3.062
 4439TIP3    H113281   1.642   6.862   3.013
 4439TIP3    H213282   1.598   6.970   3.110
 4440TIP3   OH213283   2.609   6.998   2.780
 4440TIP3    H113284   2.661   6.915   2.765
 4440TIP3    H213285   2.681   7.062   2.785
 4441TIP3   OH213286   0.787   6.648   2.788
 4441TIP3    H113287   0.733   6.658   2.869
 4441TIP3    H213288   0.716   6.655   2.721
 4442TIP3   OH213289   2.408   6.849   2.478
 4442TIP3    H113290   2.316   6.815   2.471
 4442TIP3    H213291   2.458   6.765   2.481
 4443TIP3   OH213292   1.572   6.785   2.077
 4443TIP3    H113293   1.515   6.757   2.152
 4443TIP3    H213294   1.656   6.746   2.105
 4444TIP3   OH213295   2.165   6.715   2.014
 4444TIP3    H113296   2.164   6.762   1.927
 4444TIP3    H213297   2.068   6.709   2.031
 4445TIP3   OH213298   2.266   6.828   1.794
 4445TIP3    H113299   2.312   6.766   1.733
 4445TIP3    H213300   2.262   6.908   1.740
 4446TIP3   OH213301   0.828   6.536   2.119
 4446TIP3    H113302   0.746   6.486   2.138
 4446TIP3    H213303   0.891   6.462   2.112
 4447TIP3   OH213304   0.607   6.392   1.775
 4447TIP3    H113305   0.686   6.370   1.724
 4447TIP3    H213306   0.636   6.464   1.833
 4448TIP3   OH213307   1.283   6.558   2.019
 4448TIP3    H113308   1.353   6.522   1.962
 4448TIP3    H213309   1.331   6.594   2.095
 4449TIP3   OH213310   1.886   6.704   2.022
 4449TIP3    H113311   1.831   6.661   1.954
 4449TIP3    H213312   1.874   6.638   2.095
 4450TIP3   OH213313   1.881   6.632   1.545
 4450TIP3    H113314   1.789   6.647   1.518
 4450TIP3    H213315   1.868   6.558   1.607
 4451TIP3   OH213316   1.068   6.713   3.001
 4451TIP3    H113317   1.029   6.651   3.067
 4451TIP3    H213318   1.160   6.718   3.037
 4452TIP3   OH213319   1.301   6.774   3.115
 4452TIP3    H113320   1.394   6.762   3.088
 4452TIP3    H213321   1.301   6.730   3.202
 4453TIP3   OH213322   2.118   6.868   2.915
 4453TIP3    H113323   2.137   6.849   3.009
 4453TIP3    H213324   2.208   6.873   2.877
 4454TIP3   OH213325   3.236   6.866   1.766
 4454TIP3    H113326   3.219   6.772   1.787
 4454TIP3    H213327   3.162   6.908   1.814
 4455TIP3   OH213328   3.869   6.825   0.863
 4455TIP3    H113329   3.800   6.843   0.930
 4455TIP3    H213330   3.840   6.884   0.792
 4456TIP3   OH213331   3.014   6.956   1.903
 4456TIP3    H113332   2.925   6.922   1.878
 4456TIP3    H213333   3.001   7.051   1.890
 4457TIP3   OH213334   3.531   7.064   2.082
 4457TIP3    H113335   3.608   7.047   2.139
 4457TIP3    H213336   3.456   7.062   2.144
 4458TIP3   OH213337   2.765   6.852   1.855
 4458TIP3    H113338   2.709   6.837   1.777
 4458TIP3    H213339   2.736   6.782   1.916
 4459TIP3   OH213340   3.249   7.028   2.151
 4459TIP3    H113341   3.238   7.063   2.061
 4459TIP3    H213342   3.192   6.948   2.148
 4460TIP3   OH213343   3.352   6.994   2.414
 4460TIP3    H113344   3.417   6.922   2.402
 4460TIP3    H213345   3.310   6.998   2.326
 4461TIP3   OH213346   3.469   7.192   2.561
 4461TIP3    H113347   3.438   7.116   2.507
 4461TIP3    H213348   3.385   7.223   2.600
 4462TIP3   OH213349   4.403   7.259   2.258
 4462TIP3    H113350   4.453   7.175   2.252
 4462TIP3    H213351   4.475   7.320   2.280
 4463TIP3   OH213352   2.592   6.918   2.278
 4463TIP3    H113353   2.536   6.909   2.358
 4463TIP3    H213354   2.525   6.940   2.212
 4464TIP3   OH213355   4.194   7.106   1.972
 4464TIP3    H113356   4.109   7.064   1.947
 4464TIP3    H213357   4.252   7.027   1.971
 4465TIP3   OH213358   3.394   7.070   1.607
 4465TIP3    H113359   3.368   6.995   1.663
 4465TIP3    H213360   3.480   7.041   1.572
 4466TIP3   OH213361   3.922   6.943   1.491
 4466TIP3    H113362   3.957   7.009   1.428
 4466TIP3    H213363   3.826   6.964   1.491
 4467TIP3   OH213364   4.012   7.079   1.257
 4467TIP3    H113365   4.071   7.011   1.219
 4467TIP3    H213366   4.073   7.153   1.266
 4468TIP3   OH213367   2.633   6.789   1.614
 4468TIP3    H113368   2.546   6.744   1.617
 4468TIP3    H213369   2.691   6.711   1.603
 4469TIP3   OH213370   2.437   6.624   1.267
 4469TIP3    H113371   2.489   6.665   1.197
 4469TIP3    H213372   2.394   6.705   1.303
 4470TIP3   OH213373   3.085   6.792   1.506
 4470TIP3    H113374   3.091   6.877   1.458
 4470TIP3    H213375   3.121   6.818   1.592
 4471TIP3   OH213376   3.640   6.953   1.476
 4471TIP3    H113377   3.615   6.900   1.399
 4471TIP3    H213378   3.629   6.884   1.546
 4472TIP3   OH213379   3.669   6.884   1.039
 4472TIP3    H113380   3.581   6.892   1.001
 4472TIP3    H213381   3.659   6.804   1.094
 4473TIP3   OH213382   2.864   6.968   2.485
 4473TIP3    H113383   2.824   6.907   2.551
 4473TIP3    H213384   2.956   6.975   2.521
 4474TIP3   OH213385   3.096   7.032   2.598
 4474TIP3    H113386   3.188   7.021   2.569
 4474TIP3    H213387   3.097   6.988   2.685
 4475TIP3   OH213388   3.914   7.125   2.401
 4475TIP3    H113389   3.936   7.106   2.494
 4475TIP3    H213390   4.003   7.131   2.360
 4476TIP3   OH213391   5.031   7.121   1.252
 4476TIP3    H113392   5.015   7.026   1.270
 4476TIP3    H213393   4.956   7.161   1.301
 4477TIP3   OH213394   4.810   7.210   1.391
 4477TIP3    H113395   4.721   7.176   1.364
 4477TIP3    H213396   4.798   7.305   1.374
 4478TIP3   OH213397   5.317   7.342   1.577
 4478TIP3    H113398   5.367   7.305   1.650
 4478TIP3    H213399   5.224   7.328   1.606
 4479TIP3   OH213400   4.561   7.109   1.338
 4479TIP3    H113401   4.502   7.095   1.263
 4479TIP3    H213402   4.530   7.042   1.402
 4480TIP3   OH213403   5.052   7.285   1.633
 4480TIP3    H113404   5.028   7.334   1.551
 4480TIP3    H213405   4.990   7.209   1.629
 4481TIP3   OH213406   5.161   7.251   1.899
 4481TIP3    H113407   5.222   7.178   1.880
 4481TIP3    H213408   5.111   7.258   1.815
 4482TIP3   OH213409   5.268   7.441   2.068
 4482TIP3    H113410   5.238   7.375   2.003
 4482TIP3    H213411   5.184   7.475   2.105
 4483TIP3   OH213412   4.380   7.161   1.763
 4483TIP3    H113413   4.328   7.163   1.845
 4483TIP3    H213414   4.308   7.167   1.697
 4484TIP3   OH213415   5.178   7.324   1.092
 4484TIP3    H113416   5.155   7.246   1.147
 4484TIP3    H213417   5.269   7.303   1.066
 4485TIP3   OH213418   4.425   7.048   1.096
 4485TIP3    H113419   4.339   7.002   1.109
 4485TIP3    H213420   4.484   6.971   1.086
 4486TIP3   OH213421   4.216   6.876   0.756
 4486TIP3    H113422   4.277   6.899   0.685
 4486TIP3    H213423   4.184   6.965   0.781
 4487TIP3   OH213424   4.882   7.047   0.991
 4487TIP3    H113425   4.893   7.129   0.939
 4487TIP3    H213426   4.920   7.075   1.075
 4488TIP3   OH213427   4.655   7.227   1.975
 4488TIP3    H113428   4.616   7.164   2.040
 4488TIP3    H213429   4.747   7.233   2.010
 4489TIP3   OH213430   4.889   7.283   2.087
 4489TIP3    H113431   4.982   7.278   2.061
 4489TIP3    H213432   4.889   7.245   2.177
 4490TIP3   OH213433   1.643   0.471   5.438
 4490TIP3    H113434   1.612   0.561   5.413
 4490TIP3    H213435   1.568   0.419   5.404
 4491TIP3   OH213436   1.889   0.775   5.499
 4491TIP3    H113437   1.870   0.706   5.564
 4491TIP3    H213438   1.919   0.849   5.555
 4492TIP3   OH213439   1.536   1.229   5.520
 4492TIP3    H113440   1.578   1.158   5.466
 4492TIP3    H213441   1.528   1.185   5.606
 4493TIP3   OH213442   1.457   0.686   5.847
 4493TIP3    H113443   1.503   0.630   5.784
 4493TIP3    H213444   1.532   0.730   5.891
 4494TIP3   OH213445   2.439   0.038   5.844
 4494TIP3    H113446   2.448   0.115   5.903
 4494TIP3    H213447   2.420   0.081   5.759
 4495TIP3   OH213448   2.498   0.230   6.046
 4495TIP3    H113449   2.413   0.278   6.034
 4495TIP3    H213450   2.546   0.287   6.108
 4496TIP3   OH213451   1.534   0.689   5.316
 4496TIP3    H113452   1.505   0.671   5.226
 4496TIP3    H213453   1.485   0.772   5.336
 4497TIP3   OH213454   1.951   1.012   5.665
 4497TIP3    H113455   1.861   1.005   5.705
 4497TIP3    H213456   1.943   1.099   5.619
 4498TIP3   OH213457   1.652   1.056   5.339
 4498TIP3    H113458   1.701   0.972   5.320
 4498TIP3    H213459   1.716   1.120   5.299
 4499TIP3   OH213460   1.796   0.841   5.250
 4499TIP3    H113461   1.763   0.759   5.212
 4499TIP3    H213462   1.836   0.810   5.334
 4500TIP3   OH213463   2.177   0.925   6.012
 4500TIP3    H113464   2.165   0.846   5.955
 4500TIP3    H213465   2.159   0.998   5.950
 4501TIP3   OH213466   1.458   0.359   5.244
 4501TIP3    H113467   1.397   0.287   5.267
 4501TIP3    H213468   1.524   0.313   5.189
 4502TIP3   OH213469   2.375   0.566   5.857
 4502TIP3    H113470   2.291   0.616   5.860
 4502TIP3    H213471   2.405   0.587   5.766
 4503TIP3   OH213472   1.822   0.410   5.239
 4503TIP3    H113473   1.766   0.429   5.318
 4503TIP3    H213474   1.906   0.383   5.282
 4504TIP3   OH213475   2.065   0.450   6.152
 4504TIP3    H113476   2.051   0.529   6.207
 4504TIP3    H213477   1.975   0.429   6.123
 4505TIP3   OH213478   1.712   1.005   5.791
 4505TIP3    H113479   1.701   1.088   5.841
 4505TIP3    H213480   1.691   0.936   5.856
 4506TIP3   OH213481   1.660   0.249   5.081
 4506TIP3    H113482   1.722   0.313   5.123
 4506TIP3    H213483   1.680   0.264   4.986
 4507TIP3   OH213484   1.404   0.929   5.338
 4507TIP3    H113485   1.483   0.987   5.345
 4507TIP3    H213486   1.338   0.988   5.299
 4508TIP3   OH213487   1.974   0.862   4.664
 4508TIP3    H113488   1.982   0.959   4.649
 4508TIP3    H213489   2.067   0.833   4.652
 4509TIP3   OH213490   2.416   1.272   6.063
 4509TIP3    H113491   2.414   1.175   6.076
 4509TIP3    H213492   2.332   1.297   6.107
 4510TIP3   OH213493   1.519   1.055   6.187
 4510TIP3    H113494   1.520   1.151   6.211
 4510TIP3    H213495   1.450   1.023   6.246
 4511TIP3   OH213496   1.290   1.183   5.143
 4511TIP3    H113497   1.237   1.165   5.063
 4511TIP3    H213498   1.251   1.267   5.175
 4512TIP3   OH213499   1.484   1.085   4.781
 4512TIP3    H113500   1.543   1.014   4.747
 4512TIP3    H213501   1.518   1.096   4.873
 4513TIP3   OH213502   1.538   1.131   5.050
 4513TIP3    H113503   1.448   1.143   5.090
 4513TIP3    H213504   1.586   1.093   5.125
 4514TIP3   OH213505   2.301   0.417   6.347
 4514TIP3    H113506   2.216   0.447   6.313
 4514TIP3    H213507   2.298   0.323   6.319
 4515TIP3   OH213508   1.738   0.293   4.818
 4515TIP3    H113509   1.702   0.270   4.730
 4515TIP3    H213510   1.819   0.341   4.792
 4516TIP3   OH213511   2.112   1.618   6.161
 4516TIP3    H113512   2.107   1.643   6.067
 4516TIP3    H213513   2.191   1.668   6.190
 4517TIP3   OH213514   2.142   0.709   5.845
 4517TIP3    H113515   2.165   0.760   5.765
 4517TIP3    H213516   2.060   0.662   5.818
 4518TIP3   OH213517   1.675   0.818   6.212
 4518TIP3    H113518   1.620   0.752   6.258
 4518TIP3    H213519   1.612   0.892   6.208
 4519TIP3   OH213520   1.794   0.002   5.127
 4519TIP3    H113521   1.859   0.032   5.192
 4519TIP3    H213522   1.735   0.080   5.119
 4520TIP3   OH213523   1.372   0.603   5.040
 4520TIP3    H113524   1.332   0.693   5.043
 4520TIP3    H213525   1.355   0.570   5.129
 4521TIP3   OH213526   1.801   1.072   6.099
 4521TIP3    H113527   1.708   1.053   6.118
 4521TIP3    H213528   1.830   1.112   6.183
 4522TIP3   OH213529   2.201   0.120   5.020
 4522TIP3    H113530   2.147   0.072   4.953
 4522TIP3    H213531   2.194   0.210   4.981
 4523TIP3   OH213532   2.428   0.982   6.098
 4523TIP3    H113533   2.331   0.976   6.090
 4523TIP3    H213534   2.454   0.950   6.009
 4524TIP3   OH213535   1.914   0.939   4.931
 4524TIP3    H113536   1.880   0.872   4.992
 4524TIP3    H213537   1.923   0.890   4.847
 4525TIP3   OH213538   1.917   0.568   5.764
 4525TIP3    H113539   1.822   0.552   5.768
 4525TIP3    H213540   1.947   0.488   5.716
 4526TIP3   OH213541   1.312   1.130   5.963
 4526TIP3    H113542   1.357   1.207   5.924
 4526TIP3    H213543   1.377   1.097   6.026
 4527TIP3   OH213544   0.996   1.069   5.329
 4527TIP3    H113545   0.914   1.056   5.382
 4527TIP3    H213546   1.015   1.163   5.347
 4528TIP3   OH213547   1.705   0.763   5.948
 4528TIP3    H113548   1.696   0.775   6.045
 4528TIP3    H213549   1.799   0.741   5.941
 4529TIP3   OH213550   1.671   0.670   4.829
 4529TIP3    H113551   1.723   0.644   4.909
 4529TIP3    H213552   1.583   0.637   4.853
 4530TIP3   OH213553   1.940   1.305   5.997
 4530TIP3    H113554   1.863   1.244   5.996
 4530TIP3    H213555   1.918   1.366   5.922
 4531TIP3   OH213556   2.003   1.139   4.646
 4531TIP3    H113557   2.036   1.215   4.596
 4531TIP3    H213558   1.923   1.179   4.685
 4532TIP3   OH213559   1.829   0.603   5.044
 4532TIP3    H113560   1.817   0.535   5.114
 4532TIP3    H213561   1.927   0.596   5.032
 4533TIP3   OH213562   1.040   0.643   4.831
 4533TIP3    H113563   1.068   0.557   4.795
 4533TIP3    H213564   0.969   0.618   4.892
 4534TIP3   OH213565   1.254   0.843   5.045
 4534TIP3    H113566   1.161   0.855   5.074
 4534TIP3    H213567   1.264   0.925   4.994
 4535TIP3   OH213568   1.002   0.928   5.102
 4535TIP3    H113569   0.980   0.999   5.039
 4535TIP3    H213570   1.011   0.980   5.185
 4536TIP3   OH213571   2.288   0.163   6.252
 4536TIP3    H113572   2.220   0.095   6.254
 4536TIP3    H213573   2.357   0.122   6.198
 4537TIP3   OH213574   1.979   0.326   5.640
 4537TIP3    H113575   1.917   0.254   5.655
 4537TIP3    H213576   2.061   0.291   5.682
 4538TIP3   OH213577   1.961   1.282   5.587
 4538TIP3    H113578   1.917   1.329   5.513
 4538TIP3    H213579   2.055   1.301   5.566
 4539TIP3   OH213580   1.194   0.850   4.736
 4539TIP3    H113581   1.140   0.781   4.780
 4539TIP3    H213582   1.271   0.797   4.710
 4540TIP3   OH213583   1.851   1.181   6.350
 4540TIP3    H113584   1.852   1.118   6.426
 4540TIP3    H213585   1.927   1.239   6.371
 4541TIP3   OH213586   1.630   0.887   4.656
 4541TIP3    H113587   1.668   0.820   4.716
 4541TIP3    H213588   1.687   0.880   4.577
 4542TIP3   OH213589   1.362   0.582   4.770
 4542TIP3    H113590   1.358   0.587   4.868
 4542TIP3    H213591   1.365   0.485   4.757
 4543TIP3   OH213592   1.961   0.802   6.143
 4543TIP3    H113593   2.026   0.863   6.103
 4543TIP3    H213594   1.882   0.858   6.152
 4544TIP3   OH213595   1.840   0.758   6.547
 4544TIP3    H113596   1.934   0.758   6.525
 4544TIP3    H213597   1.825   0.662   6.560
 4545TIP3   OH213598   1.969   0.392   4.692
 4545TIP3    H113599   1.948   0.351   4.606
 4545TIP3    H213600   1.935   0.483   4.674
 4546TIP3   OH213601   2.091   0.666   6.334
 4546TIP3    H113602   2.032   0.717   6.274
 4546TIP3    H213603   2.178   0.688   6.294
 4547TIP3   OH213604   0.963   1.137   4.935
 4547TIP3    H113605   1.056   1.132   4.907
 4547TIP3    H213606   0.925   1.183   4.858
 4548TIP3   OH213607   2.218   1.365   5.552
 4548TIP3    H113608   2.240   1.401   5.640
 4548TIP3    H213609   2.278   1.414   5.494
 4549TIP3   OH213610   2.240   1.390   5.833
 4549TIP3    H113611   2.196   1.303   5.828
 4549TIP3    H213612   2.317   1.367   5.888
 4550TIP3   OH213613   2.290   1.071   6.400
 4550TIP3    H113614   2.219   1.083   6.466
 4550TIP3    H213615   2.335   1.158   6.404
 4551TIP3   OH213616   2.107   0.579   5.022
 4551TIP3    H113617   2.172   0.645   4.991
 4551TIP3    H213618   2.153   0.543   5.101
 4552TIP3   OH213619   2.236   0.447   5.227
 4552TIP3    H113620   2.167   0.408   5.285
 4552TIP3    H213621   2.299   0.485   5.291
 4553TIP3   OH213622   2.293   0.844   5.658
 4553TIP3    H113623   2.343   0.774   5.612
 4553TIP3    H213624   2.290   0.916   5.591
 4554TIP3   OH213625   2.116   1.142   5.852
 4554TIP3    H113626   2.043   1.184   5.902
 4554TIP3    H213627   2.067   1.097   5.779
 4555TIP3   OH213628   2.168   0.354   4.872
 4555TIP3    H113629   2.098   0.361   4.803
 4555TIP3    H213630   2.141   0.430   4.929
 4556TIP3   OH213631   2.048   0.013   4.818
 4556TIP3    H113632   2.015   0.089   4.768
 4556TIP3    H213633   1.992  -0.057   4.781
 4557TIP3   OH213634   2.046   0.314   5.370
 4557TIP3    H113635   2.048   0.218   5.347
 4557TIP3    H213636   2.028   0.313   5.466
 4558TIP3   OH213637   2.330   0.733   6.221
 4558TIP3    H113638   2.402   0.666   6.211
 4558TIP3    H213639   2.353   0.799   6.155
 4559TIP3   OH213640   2.516   0.540   6.233
 4559TIP3    H113641   2.442   0.497   6.283
 4559TIP3    H213642   2.586   0.474   6.251
 4560TIP3   OH213643   2.059   0.054   5.269
 4560TIP3    H113644   2.081  -0.035   5.297
 4560TIP3    H213645   2.107   0.063   5.184
 4561TIP3   OH213646   2.194   0.223   5.757
 4561TIP3    H113647   2.282   0.238   5.715
 4561TIP3    H213648   2.213   0.253   5.848
 4562TIP3   OH213649   2.263   0.352   5.987
 4562TIP3    H113650   2.194   0.387   6.048
 4562TIP3    H213651   2.297   0.434   5.946
 4563TIP3   OH213652   1.799   1.239   5.204
 4563TIP3    H113653   1.851   1.231   5.121
 4563TIP3    H213654   1.848   1.307   5.253
 4564TIP3   OH213655   1.516   1.320   6.274
 4564TIP3    H113656   1.560   1.322   6.362
 4564TIP3    H213657   1.580   1.374   6.222
 4565TIP3   OH213658   1.697   1.473   6.138
 4565TIP3    H113659   1.766   1.426   6.090
 4565TIP3    H213660   1.752   1.530   6.198
 4566TIP3   OH213661   1.012   1.339   6.012
 4566TIP3    H113662   0.924   1.331   6.050
 4566TIP3    H213663   0.992   1.360   5.918
 4567TIP3   OH213664   1.417   1.342   5.815
 4567TIP3    H113665   1.346   1.358   5.750
 4567TIP3    H213666   1.428   1.431   5.855
 4568TIP3   OH213667   1.683   1.275   5.869
 4568TIP3    H113668   1.589   1.297   5.848
 4568TIP3    H213669   1.730   1.347   5.824
 4569TIP3   OH213670   1.885   1.464   5.781
 4569TIP3    H113671   1.873   1.550   5.734
 4569TIP3    H213672   1.914   1.406   5.708
 4570TIP3   OH213673   1.138   1.129   5.757
 4570TIP3    H113674   1.141   1.041   5.719
 4570TIP3    H213675   1.197   1.122   5.835
 4571TIP3   OH213676   1.226   1.082   4.878
 4571TIP3    H113677   1.314   1.105   4.841
 4571TIP3    H213678   1.203   1.008   4.818
 4572TIP3   OH213679   1.947   1.206   4.972
 4572TIP3    H113680   1.939   1.108   4.964
 4572TIP3    H213681   1.897   1.235   4.894
 4573TIP3   OH213682   2.165   1.347   6.160
 4573TIP3    H113683   2.089   1.319   6.105
 4573TIP3    H213684   2.149   1.444   6.164
 4574TIP3   OH213685   3.438   0.726   4.919
 4574TIP3    H113686   3.404   0.815   4.895
 4574TIP3    H213687   3.364   0.671   4.889
 4575TIP3   OH213688   3.439   0.721   5.309
 4575TIP3    H113689   3.471   0.693   5.397
 4575TIP3    H213690   3.400   0.639   5.275
 4576TIP3   OH213691   2.730   0.618   5.671
 4576TIP3    H113692   2.760   0.543   5.726
 4576TIP3    H213693   2.814   0.664   5.657
 4577TIP3   OH213694   3.685   1.025   4.989
 4577TIP3    H113695   3.658   0.958   5.053
 4577TIP3    H213696   3.711   1.099   5.046
 4578TIP3   OH213697   2.708   1.027   5.392
 4578TIP3    H113698   2.700   0.929   5.392
 4578TIP3    H213699   2.805   1.036   5.386
 4579TIP3   OH213700   2.404   0.221   5.182
 4579TIP3    H113701   2.359   0.305   5.201
 4579TIP3    H213702   2.336   0.175   5.130
 4580TIP3   OH213703   2.469   0.517   5.358
 4580TIP3    H113704   2.516   0.436   5.388
 4580TIP3    H213705   2.529   0.551   5.291
 4581TIP3   OH213706   3.333   1.487   5.006
 4581TIP3    H113707   3.374   1.414   4.955
 4581TIP3    H213708   3.316   1.444   5.091
 4582TIP3   OH213709   3.231   0.948   5.355
 4582TIP3    H113710   3.271   0.871   5.311
 4582TIP3    H213711   3.314   0.995   5.380
 4583TIP3   OH213712   4.249   0.308   5.333
 4583TIP3    H113713   4.198   0.389   5.336
 4583TIP3    H213714   4.217   0.268   5.253
 4584TIP3   OH213715   3.644   0.442   5.387
 4584TIP3    H113716   3.650   0.349   5.413
 4584TIP3    H213717   3.608   0.434   5.296
 4585TIP3   OH213718   2.976   0.106   5.350
 4585TIP3    H113719   2.948   0.172   5.282
 4585TIP3    H213720   2.923   0.029   5.324
 4586TIP3   OH213721   3.688   0.228   4.988
 4586TIP3    H113722   3.733   0.157   5.037
 4586TIP3    H213723   3.716   0.215   4.897
 4587TIP3   OH213724   2.606   0.304   5.451
 4587TIP3    H113725   2.690   0.291   5.502
 4587TIP3    H213726   2.628   0.249   5.373
 4588TIP3   OH213727   3.058   0.507   5.259
 4588TIP3    H113728   3.152   0.480   5.267
 4588TIP3    H213729   3.016   0.424   5.227
 4589TIP3   OH213730   4.362   0.514   5.594
 4589TIP3    H113731   4.314   0.571   5.532
 4589TIP3    H213732   4.284   0.489   5.650
 4590TIP3   OH213733   3.327   0.945   4.788
 4590TIP3    H113734   3.281   0.928   4.704
 4590TIP3    H213735   3.279   1.025   4.818
 4591TIP3   OH213736   3.090   0.867   5.577
 4591TIP3    H113737   3.030   0.936   5.613
 4591TIP3    H213738   3.130   0.913   5.501
 4592TIP3   OH213739   2.844   0.242   5.555
 4592TIP3    H113740   2.921   0.293   5.586
 4592TIP3    H213741   2.884   0.177   5.494
 4593TIP3   OH213742   2.919   1.065   5.677
 4593TIP3    H113743   2.893   1.152   5.641
 4593TIP3    H213744   2.839   1.045   5.730
 4594TIP3   OH213745   2.305   0.753   4.912
 4594TIP3    H113746   2.265   0.783   4.828
 4594TIP3    H213747   2.339   0.838   4.948
 4595TIP3   OH213748   3.750   1.270   5.153
 4595TIP3    H113749   3.661   1.260   5.194
 4595TIP3    H213750   3.739   1.356   5.107
 4596TIP3   OH213751   3.448   1.311   4.824
 4596TIP3    H113752   3.498   1.228   4.807
 4596TIP3    H213753   3.512   1.376   4.786
 4597TIP3   OH213754   3.593   1.096   4.739
 4597TIP3    H113755   3.543   1.019   4.710
 4597TIP3    H213756   3.635   1.062   4.821
 4598TIP3   OH213757   3.974   1.176   5.497
 4598TIP3    H113758   3.958   1.100   5.438
 4598TIP3    H213759   3.953   1.252   5.438
 4599TIP3   OH213760   3.267   0.576   4.757
 4599TIP3    H113761   3.186   0.627   4.739
 4599TIP3    H213762   3.308   0.571   4.669
 4600TIP3   OH213763   3.221   0.363   4.466
 4600TIP3    H113764   3.288   0.411   4.517
 4600TIP3    H213765   3.278   0.302   4.414
 4601TIP3   OH213766   4.171   0.825   5.347
 4601TIP3    H113767   4.084   0.870   5.349
 4601TIP3    H213768   4.199   0.847   5.255
 4602TIP3   OH213769   3.616   0.658   4.724
 4602TIP3    H113770   3.560   0.681   4.802
 4602TIP3    H213771   3.700   0.635   4.769
 4603TIP3   OH213772   3.846   0.701   5.637
 4603TIP3    H113773   3.838   0.783   5.688
 4603TIP3    H213774   3.759   0.699   5.593
 4604TIP3   OH213775   2.848   0.653   5.145
 4604TIP3    H113776   2.803   0.595   5.080
 4604TIP3    H213777   2.922   0.597   5.175
 4605TIP3   OH213778   2.976   1.066   5.290
 4605TIP3    H113779   2.955   1.032   5.202
 4605TIP3    H213780   3.064   1.026   5.307
 4606TIP3   OH213781   2.981   0.621   5.503
 4606TIP3    H113782   3.011   0.593   5.414
 4606TIP3    H213783   3.026   0.708   5.515
 4607TIP3   OH213784   3.512   1.261   5.276
 4607TIP3    H113785   3.495   1.342   5.328
 4607TIP3    H213786   3.491   1.190   5.339
 4608TIP3   OH213787   3.122   1.179   5.825
 4608TIP3    H113788   3.059   1.240   5.868
 4608TIP3    H213789   3.059   1.126   5.771
 4609TIP3   OH213790   3.454   0.509   4.554
 4609TIP3    H113791   3.511   0.573   4.603
 4609TIP3    H213792   3.481   0.529   4.461
 4610TIP3   OH213793   2.880   0.731   5.937
 4610TIP3    H113794   2.882   0.823   5.970
 4610TIP3    H213795   2.784   0.713   5.940
 4611TIP3   OH213796   3.201   1.188   4.829
 4611TIP3    H113797   3.282   1.242   4.835
 4611TIP3    H213798   3.139   1.249   4.785
 4612TIP3   OH213799   2.915   1.343   5.911
 4612TIP3    H113800   2.879   1.350   5.821
 4612TIP3    H213801   2.834   1.321   5.963
 4613TIP3   OH213802   2.710   0.500   4.954
 4613TIP3    H113803   2.639   0.537   4.898
 4613TIP3    H213804   2.690   0.405   4.951
 4614TIP3   OH213805   3.770   1.118   4.151
 4614TIP3    H113806   3.778   1.215   4.136
 4614TIP3    H213807   3.863   1.090   4.139
 4615TIP3   OH213808   2.492   0.881   5.857
 4615TIP3    H113809   2.425   0.862   5.788
 4615TIP3    H213810   2.531   0.793   5.874
 4616TIP3   OH213811   2.347   1.073   5.488
 4616TIP3    H113812   2.444   1.070   5.481
 4616TIP3    H213813   2.333   1.152   5.542
 4617TIP3   OH213814   4.212   1.529   5.547
 4617TIP3    H113815   4.210   1.433   5.562
 4617TIP3    H213816   4.129   1.555   5.593
 4618TIP3   OH213817   3.317   1.306   5.682
 4618TIP3    H113818   3.313   1.399   5.712
 4618TIP3    H213819   3.245   1.266   5.735
 4619TIP3   OH213820   3.084   1.438   4.631
 4619TIP3    H113821   3.033   1.423   4.550
 4619TIP3    H213822   3.049   1.523   4.663
 4620TIP3   OH213823   2.518   1.285   5.018
 4620TIP3    H113824   2.564   1.277   5.105
 4620TIP3    H213825   2.468   1.201   5.017
 4621TIP3   OH213826   3.279   1.340   4.269
 4621TIP3    H113827   3.338   1.270   4.234
 4621TIP3    H213828   3.314   1.351   4.360
 4622TIP3   OH213829   3.333   1.388   4.537
 4622TIP3    H113830   3.244   1.399   4.578
 4622TIP3    H213831   3.383   1.350   4.612
 4623TIP3   OH213832   4.101   0.673   5.843
 4623TIP3    H113833   4.015   0.698   5.806
 4623TIP3    H213834   4.110   0.581   5.808
 4624TIP3   OH213835   2.697   1.062   5.838
 4624TIP3    H113836   2.744   1.047   5.922
 4624TIP3    H213837   2.622   1.000   5.846
 4625TIP3   OH213838   3.864   0.439   5.749
 4625TIP3    H113839   3.807   0.415   5.826
 4625TIP3    H213840   3.822   0.520   5.715
 4626TIP3   OH213841   3.534   0.551   4.299
 4626TIP3    H113842   3.493   0.530   4.212
 4626TIP3    H213843   3.613   0.600   4.272
 4627TIP3   OH213844   3.044   0.403   5.655
 4627TIP3    H113845   2.982   0.419   5.729
 4627TIP3    H213846   3.026   0.482   5.599
 4628TIP3   OH213847   2.903   0.296   5.168
 4628TIP3    H113848   2.812   0.262   5.175
 4628TIP3    H213849   2.926   0.268   5.076
 4629TIP3   OH213850   3.407   0.380   4.896
 4629TIP3    H113851   3.354   0.447   4.848
 4629TIP3    H213852   3.457   0.337   4.824
 4630TIP3   OH213853   3.587   0.669   5.957
 4630TIP3    H113854   3.557   0.599   6.020
 4630TIP3    H213855   3.681   0.676   5.984
 4631TIP3   OH213856   3.556   0.416   5.130
 4631TIP3    H113857   3.490   0.435   5.060
 4631TIP3    H213858   3.599   0.339   5.084
 4632TIP3   OH213859   2.853   0.442   5.846
 4632TIP3    H113860   2.868   0.507   5.916
 4632TIP3    H213861   2.835   0.360   5.898
 4633TIP3   OH213862   2.879  -0.082   4.598
 4633TIP3    H113863   2.877  -0.081   4.695
 4633TIP3    H213864   2.801  -0.028   4.575
 4634TIP3   OH213865   2.436  -0.042   4.975
 4634TIP3    H113866   2.459   0.005   4.892
 4634TIP3    H213867   2.358   0.010   5.001
 4635TIP3   OH213868   3.576   0.643   5.550
 4635TIP3    H113869   3.608   0.573   5.488
 4635TIP3    H213870   3.545   0.586   5.624
 4636TIP3   OH213871   3.216   0.146   5.209
 4636TIP3    H113872   3.148   0.149   5.279
 4636TIP3    H213873   3.300   0.157   5.259
 4637TIP3   OH213874   2.666   0.156   5.226
 4637TIP3    H113875   2.573   0.175   5.197
 4637TIP3    H213876   2.662   0.059   5.237
 4638TIP3   OH213877   2.953   0.199   4.922
 4638TIP3    H113878   3.043   0.169   4.899
 4638TIP3    H213879   2.902   0.185   4.840
 4639TIP3   OH213880   2.784   0.203   4.698
 4639TIP3    H113881   2.710   0.171   4.642
 4639TIP3    H213882   2.842   0.240   4.629
 4640TIP3   OH213883   3.908   1.873   5.647
 4640TIP3    H113884   3.903   1.901   5.554
 4640TIP3    H213885   3.984   1.924   5.679
 4641TIP3   OH213886   2.860   0.983   6.064
 4641TIP3    H113887   2.939   1.015   6.113
 4641TIP3    H213888   2.793   0.985   6.136
 4642TIP3   OH213889   3.322   0.431   5.328
 4642TIP3    H113890   3.386   0.383   5.274
 4642TIP3    H213891   3.328   0.383   5.413
 4643TIP3   OH213892   3.304   0.322   5.627
 4643TIP3    H113893   3.213   0.356   5.640
 4643TIP3    H213894   3.359   0.389   5.671
 4644TIP3   OH213895   3.033   0.724   4.704
 4644TIP3    H113896   2.962   0.657   4.693
 4644TIP3    H213897   3.013   0.758   4.795
 4645TIP3   OH213898   3.933   0.959   5.330
 4645TIP3    H113899   3.953   1.012   5.251
 4645TIP3    H213900   3.849   0.915   5.305
 4646TIP3   OH213901   3.478   0.072   4.516
 4646TIP3    H113902   3.421   0.013   4.567
 4646TIP3    H213903   3.508   0.136   4.583
 4647TIP3   OH213904   3.438   1.047   5.701
 4647TIP3    H113905   3.461   1.028   5.792
 4647TIP3    H213906   3.396   1.135   5.707
 4648TIP3   OH213907   3.565   0.283   4.676
 4648TIP3    H113908   3.660   0.300   4.693
 4648TIP3    H213909   3.538   0.363   4.627
 4649TIP3   OH213910   2.732   0.752   5.377
 4649TIP3    H113911   2.769   0.721   5.292
 4649TIP3    H213912   2.772   0.690   5.440
 4650TIP3   OH213913   3.180   0.874   4.530
 4650TIP3    H113914   3.131   0.959   4.532
 4650TIP3    H213915   3.125   0.819   4.590
 4651TIP3   OH213916   2.614   0.666   5.992
 4651TIP3    H113917   2.623   0.650   6.088
 4651TIP3    H213918   2.542   0.604   5.970
 4652TIP3   OH213919   3.338   0.786   6.014
 4652TIP3    H113920   3.274   0.724   5.973
 4652TIP3    H213921   3.422   0.756   5.975
 4653TIP3   OH213922   3.594   1.305   5.598
 4653TIP3    H113923   3.498   1.302   5.613
 4653TIP3    H213924   3.622   1.357   5.677
 4654TIP3   OH213925   3.997   0.377   4.508
 4654TIP3    H113926   3.942   0.329   4.442
 4654TIP3    H213927   3.991   0.467   4.468
 4655TIP3   OH213928   4.224   1.238   5.585
 4655TIP3    H113929   4.127   1.232   5.576
 4655TIP3    H213930   4.251   1.206   5.495
 4656TIP3   OH213931   3.712   1.196   4.419
 4656TIP3    H113932   3.676   1.129   4.480
 4656TIP3    H213933   3.719   1.147   4.335
 4657TIP3   OH213934   3.701   0.825   5.249
 4657TIP3    H113935   3.607   0.801   5.263
 4657TIP3    H213936   3.732   0.744   5.202
 4658TIP3   OH213937   2.831   1.055   5.006
 4658TIP3    H113938   2.824   1.135   4.951
 4658TIP3    H213939   2.739   1.033   5.021
 4659TIP3   OH213940   2.393   0.361   4.710
 4659TIP3    H113941   2.438   0.445   4.734
 4659TIP3    H213942   2.317   0.362   4.772
 4660TIP3   OH213943   2.961   0.816   4.946
 4660TIP3    H113944   2.927   0.905   4.967
 4660TIP3    H213945   2.927   0.763   5.021
 4661TIP3   OH213946   3.101   1.395   5.473
 4661TIP3    H113947   3.142   1.469   5.423
 4661TIP3    H213948   3.177   1.357   5.519
 4662TIP3   OH213949   2.746   1.292   4.856
 4662TIP3    H113950   2.662   1.301   4.904
 4662TIP3    H213951   2.780   1.384   4.859
 4663TIP3   OH213952   3.483   1.028   5.434
 4663TIP3    H113953   3.472   1.029   5.531
 4663TIP3    H213954   3.560   0.971   5.423
 4664TIP3   OH213955   3.464   0.927   4.316
 4664TIP3    H113956   3.517   0.899   4.395
 4664TIP3    H213957   3.376   0.896   4.342
 4665TIP3   OH213958   3.735   1.558   5.481
 4665TIP3    H113959   3.654   1.503   5.478
 4665TIP3    H213960   3.717   1.623   5.410
 4666TIP3   OH213961   3.799   1.394   4.134
 4666TIP3    H113962   3.830   1.466   4.076
 4666TIP3    H213963   3.720   1.437   4.172
 4667TIP3   OH213964   2.814   0.225   6.011
 4667TIP3    H113965   2.737   0.170   5.985
 4667TIP3    H213966   2.862   0.161   6.066
 4668TIP3   OH213967   3.626   0.853   4.527
 4668TIP3    H113968   3.614   0.791   4.601
 4668TIP3    H213969   3.723   0.850   4.517
 4669TIP3   OH213970   2.538   1.255   5.630
 4669TIP3    H113971   2.594   1.186   5.671
 4669TIP3    H213972   2.561   1.332   5.683
 4670TIP3   OH213973   2.824   0.903   4.317
 4670TIP3    H113974   2.837   0.809   4.292
 4670TIP3    H213975   2.804   0.894   4.412
 4671TIP3   OH213976   2.768   0.908   4.589
 4671TIP3    H113977   2.843   0.879   4.643
 4671TIP3    H213978   2.773   1.006   4.599
 4672TIP3   OH213979   2.502   0.600   4.794
 4672TIP3    H113980   2.436   0.646   4.850
 4672TIP3    H213981   2.516   0.668   4.725
 4673TIP3   OH213982   3.040   1.104   4.536
 4673TIP3    H113983   2.953   1.126   4.574
 4673TIP3    H213984   3.053   1.181   4.478
 4674TIP3   OH213985   3.237   0.161   4.938
 4674TIP3    H113986   3.298   0.236   4.931
 4674TIP3    H213987   3.226   0.154   5.035
 4675TIP3   OH213988   3.509   0.480   5.759
 4675TIP3    H113989   3.524   0.544   5.831
 4675TIP3    H213990   3.552   0.400   5.793
 4676TIP3   OH213991   2.787   1.180   4.609
 4676TIP3    H113992   2.756   1.250   4.548
 4676TIP3    H213993   2.770   1.221   4.697
 4677TIP3   OH213994   4.129   0.426   5.723
 4677TIP3    H113995   4.031   0.425   5.738
 4677TIP3    H213996   4.136   0.348   5.665
 4678TIP3   OH213997   3.783   0.584   5.125
 4678TIP3    H113998   3.704   0.527   5.135
 4678TIP3    H213999   3.852   0.533   5.173
 4679TIP3   OH214000   2.502   0.803   4.595
 4679TIP3    H114001   2.575   0.867   4.606
 4679TIP3    H214002   2.544   0.744   4.529
 4680TIP3   OH214003   2.439   0.093   4.737
 4680TIP3    H114004   2.444   0.191   4.733
 4680TIP3    H214005   2.368   0.075   4.674
 4681TIP3   OH214006   3.757   1.540   5.074
 4681TIP3    H114007   3.713   1.587   5.000
 4681TIP3    H214008   3.851   1.556   5.051
 4682TIP3   OH214009   2.364   1.021   4.978
 4682TIP3    H114010   2.305   1.052   5.048
 4682TIP3    H214011   2.327   1.066   4.899
 4683TIP3   OH214012   2.530   1.574   6.055
 4683TIP3    H114013   2.617   1.575   6.102
 4683TIP3    H214014   2.511   1.479   6.055
 4684TIP3   OH214015   3.005   1.521   6.105
 4684TIP3    H114016   3.101   1.510   6.104
 4684TIP3    H214017   2.978   1.461   6.032
 4685TIP3   OH214018   2.989   1.103   4.225
 4685TIP3    H114019   2.933   1.031   4.264
 4685TIP3    H214020   3.065   1.051   4.194
 4686TIP3   OH214021   3.649   1.437   5.833
 4686TIP3    H114022   3.641   1.369   5.904
 4686TIP3    H214023   3.724   1.491   5.865
 4687TIP3   OH214024   3.424   1.143   4.142
 4687TIP3    H114025   3.463   1.076   4.202
 4687TIP3    H214026   3.482   1.137   4.063
 4688TIP3   OH214027   2.657   0.970   6.254
 4688TIP3    H114028   2.667   0.874   6.261
 4688TIP3    H214029   2.570   0.977   6.208
 4689TIP3   OH214030   2.637   0.617   4.453
 4689TIP3    H114031   2.694   0.587   4.526
 4689TIP3    H214032   2.704   0.624   4.382
 4690TIP3   OH214033   3.264   1.062   6.031
 4690TIP3    H114034   3.221   1.084   5.945
 4690TIP3    H214035   3.292   0.969   6.017
 4691TIP3   OH214036   3.156   0.825   4.260
 4691TIP3    H114037   3.155   0.834   4.358
 4691TIP3    H214038   3.157   0.727   4.252
 4692TIP3   OH214039   3.757   1.072   5.641
 4692TIP3    H114040   3.831   1.117   5.595
 4692TIP3    H214041   3.685   1.135   5.624
 4693TIP3   OH214042   2.783   0.705   6.241
 4693TIP3    H114043   2.864   0.675   6.196
 4693TIP3    H214044   2.819   0.755   6.318
 4694TIP3   OH214045   2.840   0.528   4.670
 4694TIP3    H114046   2.818   0.485   4.754
 4694TIP3    H214047   2.881   0.454   4.620
 4695TIP3   OH214048   3.122   0.599   5.908
 4695TIP3    H114049   3.038   0.649   5.903
 4695TIP3    H214050   3.168   0.629   5.826
 4696TIP3   OH214051   2.945   0.326   4.512
 4696TIP3    H114052   2.922   0.331   4.417
 4696TIP3    H214053   3.043   0.323   4.506
 4697TIP3   OH214054   3.634   0.997   6.036
 4697TIP3    H114055   3.700   0.954   5.980
 4697TIP3    H214056   3.619   0.929   6.104
 4698TIP3   OH214057   3.766   0.648   4.178
 4698TIP3    H114058   3.744   0.608   4.092
 4698TIP3    H214059   3.731   0.739   4.161
 4699TIP3   OH214060   3.228   0.386   6.035
 4699TIP3    H114061   3.220   0.303   5.986
 4699TIP3    H214062   3.186   0.451   5.974
 4700TIP3   OH214063   3.266   0.702   5.707
 4700TIP3    H114064   3.348   0.718   5.660
 4700TIP3    H214065   3.205   0.764   5.662
 4701TIP3   OH214066   3.837   0.673   6.081
 4701TIP3    H114067   3.877   0.598   6.130
 4701TIP3    H214068   3.915   0.718   6.045
 4702TIP3   OH214069   3.887   0.924   5.824
 4702TIP3    H114070   3.827   0.978   5.767
 4702TIP3    H214071   3.974   0.948   5.784
 4703TIP3   OH214072   3.114   0.511   6.264
 4703TIP3    H114073   3.036   0.453   6.273
 4703TIP3    H214074   3.146   0.486   6.175
 4704TIP3   OH214075   3.488   0.461   6.096
 4704TIP3    H114076   3.503   0.407   6.177
 4704TIP3    H214077   3.395   0.437   6.076
 4705TIP3   OH214078   3.739   0.379   5.986
 4705TIP3    H114079   3.661   0.392   6.042
 4705TIP3    H214080   3.796   0.323   6.041
 4706TIP3   OH214081   2.939   0.298   6.312
 4706TIP3    H114082   2.949   0.219   6.255
 4706TIP3    H214083   3.008   0.279   6.378
 4707TIP3   OH214084   2.757   1.384   4.422
 4707TIP3    H114085   2.851   1.371   4.402
 4707TIP3    H214086   2.731   1.437   4.345
 4708TIP3   OH214087   2.232   0.767   4.630
 4708TIP3    H114088   2.327   0.786   4.616
 4708TIP3    H214089   2.225   0.677   4.591
 4709TIP3   OH214090   2.152   1.376   5.049
 4709TIP3    H114091   2.085   1.316   5.009
 4709TIP3    H214092   2.195   1.316   5.113
 4710TIP3   OH214093   2.284   1.220   5.236
 4710TIP3    H114094   2.269   1.153   5.304
 4710TIP3    H214095   2.337   1.284   5.286
 4711TIP3   OH214096   4.017   1.617   5.038
 4711TIP3    H114097   4.036   1.650   5.129
 4711TIP3    H214098   4.071   1.675   4.984
 4712TIP3   OH214099   4.040   1.645   5.317
 4712TIP3    H114100   3.992   1.559   5.314
 4712TIP3    H214101   4.109   1.621   5.381
 4713TIP3   OH214102   4.088   1.322   5.894
 4713TIP3    H114103   4.015   1.334   5.958
 4713TIP3    H214104   4.129   1.411   5.896
 4714TIP3   OH214105   3.905   0.834   4.508
 4714TIP3    H114106   3.968   0.902   4.478
 4714TIP3    H214107   3.950   0.799   4.588
 4715TIP3   OH214108   4.031   0.703   4.715
 4715TIP3    H114109   3.963   0.662   4.772
 4715TIP3    H214110   4.093   0.742   4.780
 4716TIP3   OH214111   4.092   1.101   5.149
 4716TIP3    H114112   4.137   1.031   5.098
 4716TIP3    H214113   4.083   1.172   5.082
 4717TIP3   OH214114   3.913   1.398   5.340
 4717TIP3    H114115   3.841   1.441   5.390
 4717TIP3    H214116   3.863   1.354   5.267
 4718TIP3   OH214117   3.964   0.610   4.359
 4718TIP3    H114118   3.895   0.617   4.289
 4718TIP3    H214119   3.937   0.686   4.415
 4719TIP3   OH214120   3.838   0.269   4.310
 4719TIP3    H114121   3.808   0.342   4.255
 4719TIP3    H214122   3.786   0.197   4.274
 4720TIP3   OH214123   3.843   0.563   4.858
 4720TIP3    H114124   3.837   0.466   4.849
 4720TIP3    H214125   3.825   0.575   4.954
 4721TIP3   OH214126   2.466   0.635   5.608
 4721TIP3    H114127   2.464   0.600   5.516
 4721TIP3    H214128   2.563   0.637   5.624
 4722TIP3   OH214129   4.132   0.989   5.716
 4722TIP3    H114130   4.200   0.921   5.695
 4722TIP3    H214131   4.150   1.058   5.650
 4723TIP3   OH214132   4.316   0.789   5.714
 4723TIP3    H114133   4.247   0.740   5.764
 4723TIP3    H214134   4.396   0.773   5.767
 4724TIP3   OH214135   3.843   0.279   4.746
 4724TIP3    H114136   3.871   0.187   4.757
 4724TIP3    H214137   3.904   0.309   4.675
 4725TIP3   OH214138   4.001   0.466   5.248
 4725TIP3    H114139   4.084   0.498   5.205
 4725TIP3    H214140   4.010   0.507   5.336
 4726TIP3   OH214141   4.073   0.601   5.476
 4726TIP3    H114142   3.996   0.628   5.530
 4726TIP3    H214143   4.101   0.685   5.435
 4727TIP3   OH214144   2.667   0.322   6.274
 4727TIP3    H114145   2.765   0.321   6.274
 4727TIP3    H214146   2.646   0.231   6.299
 4728TIP3   OH214147   2.448   0.280   5.679
 4728TIP3    H114148   2.501   0.287   5.596
 4728TIP3    H214149   2.479   0.356   5.728
 4729TIP3   OH214150   3.596   1.495   4.692
 4729TIP3    H114151   3.647   1.487   4.609
 4729TIP3    H214152   3.644   1.564   4.739
 4730TIP3   OH214153   2.694   1.298   6.075
 4730TIP3    H114154   2.600   1.277   6.059
 4730TIP3    H214155   2.701   1.285   6.170
 4731TIP3   OH214156   2.876   1.336   5.624
 4731TIP3    H114157   2.826   1.411   5.585
 4731TIP3    H214158   2.961   1.350   5.578
 4732TIP3   OH214159   3.312   1.573   5.759
 4732TIP3    H114160   3.354   1.574   5.848
 4732TIP3    H214161   3.377   1.627   5.709
 4733TIP3   OH214162   3.492   1.730   5.625
 4733TIP3    H114163   3.563   1.681   5.581
 4733TIP3    H214164   3.545   1.787   5.685
 4734TIP3   OH214165   2.548   1.587   5.652
 4734TIP3    H114166   2.457   1.616   5.628
 4734TIP3    H214167   2.563   1.642   5.730
 4735TIP3   OH214168   2.784   1.568   5.508
 4735TIP3    H114169   2.696   1.580   5.551
 4735TIP3    H214170   2.766   1.600   5.417
 4736TIP3   OH214171   3.210   1.592   5.305
 4736TIP3    H114172   3.139   1.609   5.240
 4736TIP3    H214173   3.220   1.681   5.346
 4737TIP3   OH214174   3.479   1.532   5.358
 4737TIP3    H114175   3.385   1.550   5.338
 4737TIP3    H214176   3.522   1.607   5.313
 4738TIP3   OH214177   3.687   1.724   5.269
 4738TIP3    H114178   3.672   1.808   5.221
 4738TIP3    H214179   3.712   1.663   5.195
 4739TIP3   OH214180   2.460   1.381   5.390
 4739TIP3    H114181   2.485   1.352   5.480
 4739TIP3    H214182   2.532   1.337   5.339
 4740TIP3   OH214183   2.656   1.254   5.252
 4740TIP3    H114184   2.671   1.171   5.302
 4740TIP3    H214185   2.748   1.289   5.248
 4741TIP3   OH214186   2.923   1.344   5.257
 4741TIP3    H114187   2.953   1.251   5.249
 4741TIP3    H214188   2.972   1.369   5.339
 4742TIP3   OH214189   2.247   1.159   4.777
 4742TIP3    H114190   2.160   1.127   4.747
 4742TIP3    H214191   2.239   1.253   4.753
 4743TIP3   OH214192   3.020   1.337   4.362
 4743TIP3    H114193   3.108   1.361   4.328
 4743TIP3    H214194   2.999   1.262   4.303
 4744TIP3   OH214195   3.744   1.463   4.460
 4744TIP3    H114196   3.737   1.365   4.451
 4744TIP3    H214197   3.694   1.492   4.381
 4745TIP3   OH214198   2.328   1.194   4.413
 4745TIP3    H114199   2.323   1.197   4.510
 4745TIP3    H214200   2.413   1.145   4.399
 4746TIP3   OH214201   3.964   1.603   5.642
 4746TIP3    H114202   3.884   1.574   5.593
 4746TIP3    H214203   3.944   1.699   5.652
 4747TIP3   OH214204   5.233   0.982   4.408
 4747TIP3    H114205   5.198   1.070   4.384
 4747TIP3    H214206   5.161   0.926   4.374
 4748TIP3   OH214207   5.227   0.982   4.800
 4748TIP3    H114208   5.265   0.951   4.885
 4748TIP3    H214209   5.196   0.899   4.762
 4749TIP3   OH214210   4.530   0.882   5.153
 4749TIP3    H114211   4.569   0.809   5.204
 4749TIP3    H214212   4.610   0.930   5.128
 4750TIP3   OH214213   5.475   1.290   4.475
 4750TIP3    H114214   5.460   1.214   4.532
 4750TIP3    H214215   5.512   1.356   4.536
 4751TIP3   OH214216   4.505   1.284   4.879
 4751TIP3    H114217   4.496   1.186   4.879
 4751TIP3    H214218   4.602   1.292   4.873
 4752TIP3   OH214219   4.199   0.477   4.670
 4752TIP3    H114220   4.153   0.561   4.689
 4752TIP3    H214221   4.132   0.433   4.615
 4753TIP3   OH214222   4.267   0.774   4.844
 4753TIP3    H114223   4.313   0.692   4.873
 4753TIP3    H214224   4.324   0.805   4.774
 4754TIP3   OH214225   5.123   1.742   4.496
 4754TIP3    H114226   5.175   1.675   4.445
 4754TIP3    H214227   5.117   1.700   4.583
 4755TIP3   OH214228   5.029   1.205   4.841
 4755TIP3    H114229   5.069   1.125   4.803
 4755TIP3    H214230   5.112   1.253   4.864
 4756TIP3   OH214231   6.027   0.551   4.822
 4756TIP3    H114232   6.043   0.629   4.878
 4756TIP3    H214233   6.012   0.592   4.736
 4757TIP3   OH214234   5.431   0.703   4.876
 4757TIP3    H114235   5.470   0.619   4.901
 4757TIP3    H214236   5.402   0.685   4.784
 4758TIP3   OH214237   4.767   0.366   4.843
 4758TIP3    H114238   4.744   0.431   4.773
 4758TIP3    H214239   4.721   0.287   4.812
 4759TIP3   OH214240   5.485   0.487   4.472
 4759TIP3    H114241   5.534   0.419   4.521
 4759TIP3    H214242   5.516   0.475   4.381
 4760TIP3   OH214243   4.402   0.559   4.940
 4760TIP3    H114244   4.486   0.546   4.991
 4760TIP3    H214245   4.424   0.505   4.861
 4761TIP3   OH214246   4.854   0.764   4.748
 4761TIP3    H114247   4.948   0.738   4.755
 4761TIP3    H214248   4.813   0.681   4.714
 4762TIP3   OH214249   6.093   0.745   5.011
 4762TIP3    H114250   6.010   0.797   5.006
 4762TIP3    H214251   6.144   0.793   5.079
 4763TIP3   OH214252   5.118   1.197   4.277
 4763TIP3    H114253   5.078   1.179   4.190
 4763TIP3    H214254   5.073   1.282   4.300
 4764TIP3   OH214255   4.886   1.123   5.062
 4764TIP3    H114256   4.827   1.192   5.098
 4764TIP3    H214257   4.927   1.170   4.986
 4765TIP3   OH214258   4.637   0.500   5.050
 4765TIP3    H114259   4.717   0.550   5.076
 4765TIP3    H214260   4.674   0.434   4.988
 4766TIP3   OH214261   4.714   1.320   5.164
 4766TIP3    H114262   4.688   1.408   5.129
 4766TIP3    H214263   4.635   1.300   5.218
 4767TIP3   OH214264   4.102   1.010   4.398
 4767TIP3    H114265   4.061   1.037   4.314
 4767TIP3    H214266   4.134   1.095   4.433
 4768TIP3   OH214267   5.540   1.528   4.640
 4768TIP3    H114268   5.450   1.519   4.677
 4768TIP3    H214269   5.534   1.616   4.596
 4769TIP3   OH214270   5.252   1.584   4.311
 4769TIP3    H114271   5.287   1.492   4.299
 4769TIP3    H214272   5.329   1.633   4.276
 4770TIP3   OH214273   5.385   1.364   4.226
 4770TIP3    H114274   5.360   1.282   4.181
 4770TIP3    H214275   5.423   1.328   4.310
 4771TIP3   OH214276   5.766   1.434   4.984
 4771TIP3    H114277   5.758   1.357   4.924
 4771TIP3    H214278   5.754   1.509   4.922
 4772TIP3   OH214279   5.064   0.834   4.244
 4772TIP3    H114280   4.983   0.884   4.222
 4772TIP3    H214281   5.108   0.826   4.157
 4773TIP3   OH214282   5.018   0.618   3.954
 4773TIP3    H114283   5.085   0.668   4.004
 4773TIP3    H214284   5.077   0.559   3.902
 4774TIP3   OH214285   5.963   1.075   4.828
 4774TIP3    H114286   5.880   1.128   4.830
 4774TIP3    H214287   5.996   1.098   4.739
 4775TIP3   OH214288   5.411   0.915   4.210
 4775TIP3    H114289   5.357   0.937   4.289
 4775TIP3    H214290   5.496   0.890   4.252
 4776TIP3   OH214291   5.635   0.959   5.134
 4776TIP3    H114292   5.630   1.040   5.186
 4776TIP3    H214293   5.550   0.960   5.087
 4777TIP3   OH214294   4.644   0.910   4.632
 4777TIP3    H114295   4.599   0.852   4.567
 4777TIP3    H214296   4.718   0.853   4.663
 4778TIP3   OH214297   4.774   1.325   4.775
 4778TIP3    H114298   4.751   1.289   4.688
 4778TIP3    H214299   4.862   1.284   4.792
 4779TIP3   OH214300   4.773   0.881   4.987
 4779TIP3    H114301   4.806   0.850   4.900
 4779TIP3    H214302   4.822   0.965   5.000
 4780TIP3   OH214303   5.298   1.521   4.761
 4780TIP3    H114304   5.292   1.598   4.820
 4780TIP3    H214305   5.286   1.446   4.822
 4781TIP3   OH214306   4.917   1.434   5.310
 4781TIP3    H114307   4.856   1.496   5.356
 4781TIP3    H214308   4.852   1.383   5.257
 4782TIP3   OH214309   5.247   0.770   4.041
 4782TIP3    H114310   5.307   0.830   4.089
 4782TIP3    H214311   5.275   0.788   3.947
 4783TIP3   OH214312   4.676   0.986   5.422
 4783TIP3    H114313   4.681   1.076   5.459
 4783TIP3    H214314   4.580   0.970   5.429
 4784TIP3   OH214315   5.002   1.446   4.303
 4784TIP3    H114316   5.067   1.511   4.334
 4784TIP3    H214317   4.930   1.501   4.269
 4785TIP3   OH214318   4.710   1.600   5.398
 4785TIP3    H114319   4.673   1.603   5.308
 4785TIP3    H214320   4.630   1.578   5.452
 4786TIP3   OH214321   4.504   0.756   4.443
 4786TIP3    H114322   4.435   0.795   4.386
 4786TIP3    H214323   4.485   0.662   4.437
 4787TIP3   OH214324   5.571   1.380   3.654
 4787TIP3    H114325   5.583   1.473   3.627
 4787TIP3    H214326   5.660   1.344   3.636
 4788TIP3   OH214327   4.289   1.136   5.343
 4788TIP3    H114328   4.219   1.121   5.276
 4788TIP3    H214329   4.327   1.047   5.354
 4789TIP3   OH214330   4.141   1.330   4.974
 4789TIP3    H114331   4.238   1.331   4.970
 4789TIP3    H214332   4.123   1.411   5.025
 4790TIP3   OH214333   6.010   1.781   5.034
 4790TIP3    H114334   6.008   1.685   5.051
 4790TIP3    H214335   5.924   1.807   5.075
 4791TIP3   OH214336   5.110   1.561   5.168
 4791TIP3    H114337   5.102   1.654   5.197
 4791TIP3    H214338   5.038   1.519   5.221
 4792TIP3   OH214339   4.887   1.704   4.110
 4792TIP3    H114340   4.831   1.678   4.035
 4792TIP3    H214341   4.842   1.785   4.143
 4793TIP3   OH214342   4.315   1.542   4.504
 4793TIP3    H114343   4.358   1.532   4.592
 4793TIP3    H214344   4.264   1.459   4.499
 4794TIP3   OH214345   5.092   1.605   3.758
 4794TIP3    H114346   5.141   1.532   3.713
 4794TIP3    H214347   5.107   1.582   3.851
 4795TIP3   OH214348   5.131   1.636   4.044
 4795TIP3    H114349   5.041   1.665   4.064
 4795TIP3    H214350   5.139   1.560   4.101
 4796TIP3   OH214351   5.887   0.933   5.338
 4796TIP3    H114352   5.809   0.952   5.285
 4796TIP3    H214353   5.904   0.839   5.312
 4797TIP3   OH214354   4.494   1.318   5.326
 4797TIP3    H114355   4.541   1.303   5.410
 4797TIP3    H214356   4.419   1.256   5.334
 4798TIP3   OH214357   5.642   0.685   5.215
 4798TIP3    H114358   5.598   0.669   5.301
 4798TIP3    H214359   5.624   0.779   5.197
 4799TIP3   OH214360   5.329   0.814   3.788
 4799TIP3    H114361   5.288   0.790   3.702
 4799TIP3    H214362   5.413   0.853   3.758
 4800TIP3   OH214363   4.843   0.662   5.136
 4800TIP3    H114364   4.787   0.679   5.214
 4800TIP3    H214365   4.823   0.741   5.081
 4801TIP3   OH214366   4.700   0.552   4.655
 4801TIP3    H114367   4.608   0.519   4.662
 4801TIP3    H214368   4.723   0.522   4.564
 4802TIP3   OH214369   5.200   0.634   4.382
 4802TIP3    H114370   5.150   0.702   4.333
 4802TIP3    H214371   5.255   0.594   4.312
 4803TIP3   OH214372   5.384   0.927   5.445
 4803TIP3    H114373   5.354   0.857   5.508
 4803TIP3    H214374   5.478   0.934   5.471
 4804TIP3   OH214375   5.348   0.668   4.617
 4804TIP3    H114376   5.285   0.688   4.544
 4804TIP3    H214377   5.394   0.594   4.572
 4805TIP3   OH214378   4.648   0.703   5.328
 4805TIP3    H114379   4.665   0.772   5.395
 4805TIP3    H214380   4.569   0.658   5.361
 4806TIP3   OH214381   4.667   0.175   4.089
 4806TIP3    H114382   4.656   0.191   4.184
 4806TIP3    H214383   4.600   0.234   4.051
 4807TIP3   OH214384   4.233   0.217   4.462
 4807TIP3    H114385   4.255   0.263   4.378
 4807TIP3    H214386   4.155   0.267   4.488
 4808TIP3   OH214387   5.360   0.902   5.038
 4808TIP3    H114388   5.396   0.834   4.977
 4808TIP3    H214389   5.336   0.845   5.114
 4809TIP3   OH214390   5.011   0.396   4.695
 4809TIP3    H114391   4.948   0.406   4.769
 4809TIP3    H214392   5.098   0.410   4.738
 4810TIP3   OH214393   4.461   0.414   4.712
 4810TIP3    H114394   4.368   0.434   4.684
 4810TIP3    H214395   4.458   0.317   4.720
 4811TIP3   OH214396   4.748   0.451   4.410
 4811TIP3    H114397   4.840   0.427   4.387
 4811TIP3    H214398   4.700   0.442   4.326
 4812TIP3   OH214399   4.581   0.460   4.184
 4812TIP3    H114400   4.508   0.428   4.128
 4812TIP3    H214401   4.640   0.498   4.115
 4813TIP3   OH214402   5.698   2.133   5.131
 4813TIP3    H114403   5.702   2.154   5.036
 4813TIP3    H214404   5.782   2.174   5.162
 4814TIP3   OH214405   4.658   1.239   5.552
 4814TIP3    H114406   4.737   1.269   5.601
 4814TIP3    H214407   4.591   1.241   5.623
 4815TIP3   OH214408   5.117   0.686   4.807
 4815TIP3    H114409   5.186   0.649   4.749
 4815TIP3    H214410   5.135   0.638   4.890
 4816TIP3   OH214411   5.099   0.562   5.137
 4816TIP3    H114412   5.012   0.606   5.135
 4816TIP3    H214413   5.158   0.634   5.167
 4817TIP3   OH214414   4.828   0.983   4.190
 4817TIP3    H114415   4.758   0.915   4.179
 4817TIP3    H214416   4.808   1.015   4.281
 4818TIP3   OH214417   5.729   1.221   4.816
 4818TIP3    H114418   5.754   1.270   4.735
 4818TIP3    H214419   5.646   1.175   4.788
 4819TIP3   OH214420   5.279   0.323   4.012
 4819TIP3    H114421   5.211   0.276   4.061
 4819TIP3    H214422   5.308   0.393   4.075
 4820TIP3   OH214423   5.243   1.307   5.187
 4820TIP3    H114424   5.255   1.273   5.276
 4820TIP3    H214425   5.187   1.386   5.200
 4821TIP3   OH214426   5.360   0.541   4.165
 4821TIP3    H114427   5.456   0.551   4.179
 4821TIP3    H214428   5.338   0.620   4.113
 4822TIP3   OH214429   4.529   1.009   4.863
 4822TIP3    H114430   4.564   0.979   4.776
 4822TIP3    H214431   4.571   0.946   4.923
 4823TIP3   OH214432   4.977   1.133   4.019
 4823TIP3    H114433   4.928   1.218   4.021
 4823TIP3    H214434   4.921   1.077   4.077
 4824TIP3   OH214435   4.412   0.913   5.475
 4824TIP3    H114436   4.421   0.899   5.571
 4824TIP3    H214437   4.330   0.864   5.455
 4825TIP3   OH214438   5.137   1.047   5.496
 4825TIP3    H114439   5.075   0.982   5.458
 4825TIP3    H214440   5.223   1.013   5.463
 4826TIP3   OH214441   5.381   1.571   5.076
 4826TIP3    H114442   5.286   1.558   5.095
 4826TIP3    H214443   5.419   1.578   5.164
 4827TIP3   OH214444   5.790   0.635   3.996
 4827TIP3    H114445   5.735   0.587   3.930
 4827TIP3    H214446   5.785   0.724   3.955
 4828TIP3   OH214447   6.017   1.493   5.073
 4828TIP3    H114448   5.920   1.486   5.063
 4828TIP3    H214449   6.045   1.463   4.983
 4829TIP3   OH214450   5.480   1.472   3.911
 4829TIP3    H114451   5.476   1.394   3.968
 4829TIP3    H214452   5.509   1.434   3.826
 4830TIP3   OH214453   5.493   1.084   4.735
 4830TIP3    H114454   5.400   1.058   4.747
 4830TIP3    H214455   5.528   1.005   4.689
 4831TIP3   OH214456   4.627   1.313   4.496
 4831TIP3    H114457   4.616   1.392   4.439
 4831TIP3    H214458   4.535   1.285   4.506
 4832TIP3   OH214459   4.190   0.617   4.198
 4832TIP3    H114460   4.234   0.702   4.221
 4832TIP3    H214461   4.114   0.619   4.259
 4833TIP3   OH214462   4.756   1.074   4.433
 4833TIP3    H114463   4.723   1.162   4.456
 4833TIP3    H214464   4.724   1.020   4.508
 4834TIP3   OH214465   4.897   1.654   4.959
 4834TIP3    H114466   4.942   1.723   4.906
 4834TIP3    H214467   4.972   1.610   5.001
 4835TIP3   OH214468   4.543   1.548   4.344
 4835TIP3    H114469   4.458   1.557   4.391
 4835TIP3    H214470   4.575   1.640   4.346
 4836TIP3   OH214471   5.283   1.288   4.918
 4836TIP3    H114472   5.274   1.285   5.016
 4836TIP3    H214473   5.354   1.225   4.902
 4837TIP3   OH214474   5.260   1.186   3.805
 4837TIP3    H114475   5.313   1.161   3.884
 4837TIP3    H214476   5.174   1.147   3.828
 4838TIP3   OH214477   5.522   1.823   4.977
 4838TIP3    H114478   5.445   1.763   4.968
 4838TIP3    H214479   5.509   1.882   4.899
 4839TIP3   OH214480   5.602   1.654   3.616
 4839TIP3    H114481   5.650   1.726   3.571
 4839TIP3    H214482   5.512   1.686   3.605
 4840TIP3   OH214483   5.422   1.121   4.023
 4840TIP3    H114484   5.409   1.052   4.091
 4840TIP3    H214485   5.518   1.112   4.007
 4841TIP3   OH214486   4.338   1.511   5.116
 4841TIP3    H114487   4.392   1.439   5.151
 4841TIP3    H214488   4.352   1.579   5.183
 4842TIP3   OH214489   4.623   1.160   3.804
 4842TIP3    H114490   4.633   1.067   3.777
 4842TIP3    H214491   4.599   1.149   3.898
 4843TIP3   OH214492   4.566   1.165   4.075
 4843TIP3    H114493   4.641   1.135   4.129
 4843TIP3    H214494   4.570   1.262   4.085
 4844TIP3   OH214495   4.299   0.857   4.280
 4844TIP3    H114496   4.232   0.902   4.336
 4844TIP3    H214497   4.312   0.924   4.211
 4845TIP3   OH214498   4.839   1.366   4.025
 4845TIP3    H114499   4.751   1.385   4.064
 4845TIP3    H214500   4.839   1.428   3.951
 4846TIP3   OH214501   5.030   0.415   4.424
 4846TIP3    H114502   5.092   0.489   4.415
 4846TIP3    H214503   5.022   0.409   4.521
 4847TIP3   OH214504   5.304   0.736   5.248
 4847TIP3    H114505   5.323   0.798   5.321
 4847TIP3    H214506   5.357   0.659   5.273
 4848TIP3   OH214507   4.585   1.437   4.095
 4848TIP3    H114508   4.553   1.506   4.033
 4848TIP3    H214509   4.564   1.479   4.182
 4849TIP3   OH214510   5.916   0.685   5.240
 4849TIP3    H114511   5.822   0.665   5.217
 4849TIP3    H214512   5.965   0.641   5.169
 4850TIP3   OH214513   5.571   0.849   4.609
 4850TIP3    H114514   5.499   0.785   4.622
 4850TIP3    H214515   5.646   0.805   4.657
 4851TIP3   OH214516   4.298   1.059   4.082
 4851TIP3    H114517   4.369   1.125   4.090
 4851TIP3    H214518   4.340   1.000   4.016
 4852TIP3   OH214519   4.235   0.350   4.223
 4852TIP3    H114520   4.239   0.447   4.220
 4852TIP3    H214521   4.166   0.332   4.158
 4853TIP3   OH214522   5.552   1.797   4.560
 4853TIP3    H114523   5.511   1.836   4.479
 4853TIP3    H214524   5.647   1.819   4.543
 4854TIP3   OH214525   4.162   1.281   4.465
 4854TIP3    H114526   4.102   1.309   4.535
 4854TIP3    H214527   4.123   1.325   4.386
 4855TIP3   OH214528   4.327   1.830   5.538
 4855TIP3    H114529   4.412   1.830   5.587
 4855TIP3    H214530   4.304   1.736   5.541
 4856TIP3   OH214531   4.810   1.784   5.581
 4856TIP3    H114532   4.901   1.753   5.587
 4856TIP3    H214533   4.775   1.722   5.513
 4857TIP3   OH214534   4.790   1.360   3.716
 4857TIP3    H114535   4.733   1.287   3.750
 4857TIP3    H214536   4.861   1.308   3.674
 4858TIP3   OH214537   5.221   1.402   3.631
 4858TIP3    H114538   5.259   1.333   3.688
 4858TIP3    H214539   5.273   1.393   3.548
 4859TIP3   OH214540   4.454   1.231   5.740
 4859TIP3    H114541   4.460   1.136   5.760
 4859TIP3    H214542   4.367   1.236   5.695
 4860TIP3   OH214543   4.433   0.874   3.940
 4860TIP3    H114544   4.490   0.844   4.013
 4860TIP3    H214545   4.499   0.881   3.867
 4861TIP3   OH214546   5.064   1.320   5.516
 4861TIP3    H114547   5.017   1.337   5.432
 4861TIP3    H214548   5.091   1.226   5.506
 4862TIP3   OH214549   4.953   1.080   3.748
 4862TIP3    H114550   4.951   1.089   3.845
 4862TIP3    H214551   4.955   0.982   3.740
 4863TIP3   OH214552   5.555   1.330   5.129
 4863TIP3    H114553   5.632   1.369   5.082
 4863TIP3    H214554   5.481   1.379   5.091
 4864TIP3   OH214555   4.583   0.946   5.731
 4864TIP3    H114556   4.671   0.923   5.699
 4864TIP3    H214557   4.605   0.990   5.816
 4865TIP3   OH214558   4.638   0.784   4.156
 4865TIP3    H114559   4.615   0.739   4.239
 4865TIP3    H214560   4.679   0.712   4.105
 4866TIP3   OH214561   4.920   0.852   5.392
 4866TIP3    H114562   4.838   0.905   5.389
 4866TIP3    H214563   4.969   0.884   5.313
 4867TIP3   OH214564   4.742   0.582   3.999
 4867TIP3    H114565   4.719   0.588   3.903
 4867TIP3    H214566   4.840   0.580   3.993
 4868TIP3   OH214567   5.437   1.268   5.516
 4868TIP3    H114568   5.503   1.219   5.465
 4868TIP3    H214569   5.417   1.204   5.587
 4869TIP3   OH214570   5.558   0.906   3.666
 4869TIP3    H114571   5.540   0.865   3.579
 4869TIP3    H214572   5.525   0.997   3.647
 4870TIP3   OH214573   5.021   0.639   5.526
 4870TIP3    H114574   5.032   0.560   5.471
 4870TIP3    H214575   4.983   0.704   5.463
 4871TIP3   OH214576   5.063   0.960   5.193
 4871TIP3    H114577   5.146   0.967   5.145
 4871TIP3    H214578   5.004   1.021   5.144
 4872TIP3   OH214579   5.635   0.930   5.567
 4872TIP3    H114580   5.671   0.858   5.625
 4872TIP3    H214581   5.716   0.962   5.524
 4873TIP3   OH214582   5.684   1.183   5.314
 4873TIP3    H114583   5.628   1.238   5.254
 4873TIP3    H214584   5.772   1.203   5.275
 4874TIP3   OH214585   4.878   0.766   5.737
 4874TIP3    H114586   4.823   0.690   5.760
 4874TIP3    H214587   4.928   0.734   5.660
 4875TIP3   OH214588   5.282   0.721   5.585
 4875TIP3    H114589   5.302   0.667   5.664
 4875TIP3    H214590   5.188   0.697   5.571
 4876TIP3   OH214591   5.533   0.636   5.468
 4876TIP3    H114592   5.458   0.649   5.528
 4876TIP3    H214593   5.598   0.590   5.524
 4877TIP3   OH214594   4.555   1.642   3.909
 4877TIP3    H114595   4.648   1.632   3.883
 4877TIP3    H214596   4.521   1.692   3.833
 4878TIP3   OH214597   4.028   1.022   4.119
 4878TIP3    H114598   4.123   1.042   4.104
 4878TIP3    H214599   4.021   0.933   4.078
 4879TIP3   OH214600   3.948   1.634   4.536
 4879TIP3    H114601   3.882   1.574   4.495
 4879TIP3    H214602   3.991   1.573   4.600
 4880TIP3   OH214603   4.080   1.478   4.724
 4880TIP3    H114604   4.063   1.409   4.790
 4880TIP3    H214605   4.130   1.542   4.777
 4881TIP3   OH214606   5.804   1.891   4.523
 4881TIP3    H114607   5.833   1.920   4.612
 4881TIP3    H214608   5.876   1.921   4.467
 4882TIP3   OH214609   5.833   1.904   4.805
 4882TIP3    H114610   5.791   1.815   4.804
 4882TIP3    H214611   5.910   1.885   4.860
 4883TIP3   OH214612   5.881   1.584   5.387
 4883TIP3    H114613   5.800   1.610   5.431
 4883TIP3    H214614   5.928   1.670   5.380
 4884TIP3   OH214615   5.698   1.093   3.996
 4884TIP3    H114616   5.765   1.157   3.963
 4884TIP3    H214617   5.744   1.057   4.075
 4885TIP3   OH214618   5.825   0.962   4.201
 4885TIP3    H114619   5.761   0.920   4.261
 4885TIP3    H214620   5.894   0.996   4.262
 4886TIP3   OH214621   5.879   1.355   4.627
 4886TIP3    H114622   5.935   1.285   4.587
 4886TIP3    H214623   5.883   1.425   4.560
 4887TIP3   OH214624   5.708   1.654   4.825
 4887TIP3    H114625   5.634   1.691   4.876
 4887TIP3    H214626   5.662   1.608   4.751
 4888TIP3   OH214627   5.760   0.868   3.846
 4888TIP3    H114628   5.690   0.874   3.777
 4888TIP3    H214629   5.733   0.944   3.902
 4889TIP3   OH214630   5.632   0.527   3.798
 4889TIP3    H114631   5.603   0.596   3.737
 4889TIP3    H214632   5.587   0.450   3.760
 4890TIP3   OH214633   5.636   0.820   4.344
 4890TIP3    H114634   5.637   0.723   4.337
 4890TIP3    H214635   5.619   0.833   4.440
 4891TIP3   OH214636   4.263   0.883   5.097
 4891TIP3    H114637   4.260   0.853   5.004
 4891TIP3    H214638   4.361   0.892   5.110
 4892TIP3   OH214639   5.927   1.249   5.202
 4892TIP3    H114640   5.997   1.180   5.192
 4892TIP3    H214641   5.956   1.316   5.138
 4893TIP3   OH214642   6.105   1.049   5.217
 4893TIP3    H114643   6.033   1.003   5.265
 4893TIP3    H214644   6.177   0.983   5.229
 4894TIP3   OH214645   5.638   0.533   4.230
 4894TIP3    H114646   5.676   0.446   4.251
 4894TIP3    H214647   5.699   0.566   4.161
 4895TIP3   OH214648   5.785   0.739   4.732
 4895TIP3    H114649   5.873   0.755   4.692
 4895TIP3    H214650   5.803   0.760   4.825
 4896TIP3   OH214651   5.853   0.867   4.970
 4896TIP3    H114652   5.776   0.901   5.019
 4896TIP3    H214653   5.885   0.946   4.922
 4897TIP3   OH214654   4.247   0.557   5.172
 4897TIP3    H114655   4.300   0.548   5.089
 4897TIP3    H214656   4.265   0.648   5.197
 4898TIP3   OH214657   5.416   1.760   4.122
 4898TIP3    H114658   5.496   1.702   4.129
 4898TIP3    H214659   5.446   1.834   4.184
 4899TIP3   OH214660   4.491   1.555   5.563
 4899TIP3    H114661   4.397   1.535   5.548
 4899TIP3    H214662   4.500   1.538   5.657
 4900TIP3   OH214663   4.673   1.592   5.112
 4900TIP3    H114664   4.620   1.665   5.072
 4900TIP3    H214665   4.757   1.609   5.065
 4901TIP3   OH214666   5.109   1.826   5.250
 4901TIP3    H114667   5.151   1.818   5.336
 4901TIP3    H214668   5.173   1.880   5.200
 4902TIP3   OH214669   5.292   1.983   5.119
 4902TIP3    H114670   5.356   1.939   5.060
 4902TIP3    H214671   5.352   2.038   5.173
 4903TIP3   OH214672   4.347   1.855   5.132
 4903TIP3    H114673   4.254   1.880   5.112
 4903TIP3    H214674   4.356   1.890   5.222
 4904TIP3   OH214675   4.581   1.827   4.995
 4904TIP3    H114676   4.494   1.838   5.040
 4904TIP3    H214677   4.559   1.858   4.904
 4905TIP3   OH214678   5.006   1.850   4.790
 4905TIP3    H114679   4.936   1.866   4.725
 4905TIP3    H214680   5.018   1.938   4.831
 4906TIP3   OH214681   5.275   1.790   4.846
 4906TIP3    H114682   5.182   1.811   4.822
 4906TIP3    H214683   5.324   1.859   4.798
 4907TIP3   OH214684   5.472   1.975   4.755
 4907TIP3    H114685   5.465   2.061   4.708
 4907TIP3    H214686   5.508   1.917   4.683
 4908TIP3   OH214687   4.259   1.640   4.878
 4908TIP3    H114688   4.283   1.610   4.968
 4908TIP3    H214689   4.329   1.593   4.827
 4909TIP3   OH214690   4.453   1.510   4.739
 4909TIP3    H114691   4.466   1.426   4.789
 4909TIP3    H214692   4.545   1.543   4.733
 4910TIP3   OH214693   4.723   1.603   4.742
 4910TIP3    H114694   4.749   1.509   4.731
 4910TIP3    H214695   4.771   1.623   4.825
 4911TIP3   OH214696   4.043   1.417   4.265
 4911TIP3    H114697   3.956   1.384   4.235
 4911TIP3    H214698   4.035   1.510   4.235
 4912TIP3   OH214699   4.820   1.596   3.847
 4912TIP3    H114700   4.901   1.629   3.803
 4912TIP3    H214701   4.799   1.520   3.787
 4913TIP3   OH214702   4.120   1.432   3.904
 4913TIP3    H114703   4.121   1.453   3.998
 4913TIP3    H214704   4.208   1.389   3.891
 4914TIP3   OH214705   5.760   1.860   5.116
 4914TIP3    H114706   5.676   1.839   5.071
 4914TIP3    H214707   5.745   1.952   5.142
 4915TIP3   OH214708   7.029   1.241   3.897
 4915TIP3    H114709   6.995   1.326   3.862
 4915TIP3    H214710   6.962   1.180   3.863
 4916TIP3   OH214711   6.966   1.243   4.295
 4916TIP3    H114712   7.030   1.222   4.366
 4916TIP3    H214713   6.980   1.168   4.236
 4917TIP3   OH214714   6.320   1.133   4.649
 4917TIP3    H114715   6.351   1.060   4.706
 4917TIP3    H214716   6.406   1.172   4.625
 4918TIP3   OH214717   6.298   1.537   4.363
 4918TIP3    H114718   6.292   1.439   4.365
 4918TIP3    H214719   6.394   1.548   4.359
 4919TIP3   OH214720   5.995   0.734   4.156
 4919TIP3    H114721   5.951   0.818   4.175
 4919TIP3    H214722   5.926   0.689   4.103
 4920TIP3   OH214723   6.059   1.030   4.329
 4920TIP3    H114724   6.106   0.949   4.361
 4920TIP3    H214725   6.128   1.071   4.275
 4921TIP3   OH214726   6.915   1.980   3.982
 4921TIP3    H114727   6.986   1.922   3.951
 4921TIP3    H214728   6.914   1.960   4.077
 4922TIP3   OH214729   6.818   1.468   4.334
 4922TIP3    H114730   6.860   1.382   4.310
 4922TIP3    H214731   6.900   1.520   4.347
 4923TIP3   OH214732   6.562   0.619   4.327
 4923TIP3    H114733   6.540   0.685   4.258
 4923TIP3    H214734   6.508   0.544   4.301
 4924TIP3   OH214735   6.197   0.818   4.424
 4924TIP3    H114736   6.281   0.806   4.475
 4924TIP3    H214737   6.220   0.763   4.346
 4925TIP3   OH214738   6.651   1.020   4.234
 4925TIP3    H114739   6.746   0.996   4.240
 4925TIP3    H214740   6.612   0.936   4.202
 4926TIP3   OH214741   6.917   1.459   3.765
 4926TIP3    H114742   6.880   1.445   3.676
 4926TIP3    H214743   6.869   1.541   3.792
 4927TIP3   OH214744   6.681   1.378   4.551
 4927TIP3    H114745   6.624   1.449   4.586
 4927TIP3    H214746   6.725   1.423   4.476
 4928TIP3   OH214747   6.433   0.755   4.530
 4928TIP3    H114748   6.508   0.807   4.563
 4928TIP3    H214749   6.475   0.692   4.469
 4929TIP3   OH214750   6.510   1.579   4.650
 4929TIP3    H114751   6.485   1.667   4.615
 4929TIP3    H214752   6.431   1.560   4.704
 4930TIP3   OH214753   5.895   1.265   3.886
 4930TIP3    H114754   5.861   1.293   3.799
 4930TIP3    H214755   5.934   1.348   3.920
 4931TIP3   OH214756   7.067   1.843   3.775
 4931TIP3    H114757   7.095   1.754   3.799
 4931TIP3    H214758   7.137   1.897   3.820
 4932TIP3   OH214759   6.864   1.091   3.701
 4932TIP3    H114760   6.775   1.133   3.710
 4932TIP3    H214761   6.903   1.149   3.635
 4933TIP3   OH214762   6.817   0.861   3.440
 4933TIP3    H114763   6.859   0.908   3.514
 4933TIP3    H214764   6.852   0.772   3.453
 4934TIP3   OH214765   6.441   1.166   4.120
 4934TIP3    H114766   6.400   1.106   4.054
 4934TIP3    H214767   6.516   1.112   4.153
 4935TIP3   OH214768   6.567   1.577   4.265
 4935TIP3    H114769   6.552   1.542   4.177
 4935TIP3    H214770   6.656   1.541   4.287
 4936TIP3   OH214771   6.564   1.139   4.473
 4936TIP3    H114772   6.602   1.108   4.388
 4936TIP3    H214773   6.616   1.221   4.490
 4937TIP3   OH214774   7.072   1.776   4.232
 4937TIP3    H114775   7.089   1.856   4.285
 4937TIP3    H214776   7.077   1.705   4.298
 4938TIP3   OH214777   6.714   1.692   4.798
 4938TIP3    H114778   6.651   1.754   4.842
 4938TIP3    H214779   6.651   1.639   4.745
 4939TIP3   OH214780   6.475   1.248   4.909
 4939TIP3    H114781   6.476   1.338   4.946
 4939TIP3    H214782   6.379   1.229   4.911
 4940TIP3   OH214783   6.795   1.707   3.795
 4940TIP3    H114784   6.855   1.777   3.822
 4940TIP3    H214785   6.722   1.756   3.754
 4941TIP3   OH214786   6.506   1.857   4.882
 4941TIP3    H114787   6.471   1.864   4.792
 4941TIP3    H214788   6.425   1.838   4.935
 4942TIP3   OH214789   6.306   1.011   3.922
 4942TIP3    H114790   6.232   1.048   3.869
 4942TIP3    H214791   6.282   0.918   3.928
 4943TIP3   OH214792   6.083   1.394   4.831
 4943TIP3    H114793   6.021   1.369   4.760
 4943TIP3    H214794   6.124   1.309   4.855
 4944TIP3   OH214795   5.944   1.587   4.457
 4944TIP3    H114796   6.039   1.570   4.446
 4944TIP3    H214797   5.946   1.661   4.521
 4945TIP3   OH214798   6.909   1.817   4.656
 4945TIP3    H114799   6.906   1.910   4.687
 4945TIP3    H214800   6.837   1.778   4.709
 4946TIP3   OH214801   6.678   1.952   3.602
 4946TIP3    H114802   6.628   1.936   3.520
 4946TIP3    H214803   6.642   2.038   3.632
 4947TIP3   OH214804   6.108   1.796   3.995
 4947TIP3    H114805   6.159   1.791   4.079
 4947TIP3    H214806   6.069   1.706   3.992
 4948TIP3   OH214807   6.877   1.845   3.252
 4948TIP3    H114808   6.946   1.784   3.221
 4948TIP3    H214809   6.902   1.856   3.346
 4949TIP3   OH214810   6.927   1.880   3.524
 4949TIP3    H114811   6.836   1.896   3.559
 4949TIP3    H214812   6.974   1.860   3.607
 4950TIP3   OH214813   6.288   1.576   4.813
 4950TIP3    H114814   6.338   1.561   4.895
 4950TIP3    H214815   6.214   1.513   4.822
 4951TIP3   OH214816   6.632   0.919   4.623
 4951TIP3    H114817   6.574   0.936   4.701
 4951TIP3    H214818   6.613   0.999   4.569
 4952TIP3   OH214819   6.495   0.807   4.142
 4952TIP3    H114820   6.404   0.773   4.150
 4952TIP3    H214821   6.518   0.776   4.051
 4953TIP3   OH214822   6.983   0.863   3.827
 4953TIP3    H114823   6.941   0.944   3.794
 4953TIP3    H214824   7.077   0.885   3.824
 4954TIP3   OH214825   7.171   1.173   4.920
 4954TIP3    H114826   7.139   1.110   4.990
 4954TIP3    H214827   7.240   1.222   4.967
 4955TIP3   OH214828   6.443   0.956   4.820
 4955TIP3    H114829   6.479   1.015   4.888
 4955TIP3    H214830   6.426   0.875   4.873
 4956TIP3   OH214831   6.458   0.431   3.587
 4956TIP3    H114832   6.438   0.469   3.673
 4956TIP3    H214833   6.407   0.491   3.530
 4957TIP3   OH214834   6.032   0.484   3.952
 4957TIP3    H114835   6.053   0.528   3.867
 4957TIP3    H214836   5.952   0.533   3.977
 4958TIP3   OH214837   7.122   1.160   4.507
 4958TIP3    H114838   7.211   1.149   4.468
 4958TIP3    H214839   7.123   1.095   4.579
 4959TIP3   OH214840   6.800   0.648   4.176
 4959TIP3    H114841   6.740   0.662   4.251
 4959TIP3    H214842   6.888   0.663   4.217
 4960TIP3   OH214843   6.256   0.668   4.199
 4960TIP3    H114844   6.164   0.687   4.171
 4960TIP3    H214845   6.253   0.571   4.210
 4961TIP3   OH214846   6.542   0.704   3.898
 4961TIP3    H114847   6.634   0.677   3.879
 4961TIP3    H214848   6.497   0.697   3.812
 4962TIP3   OH214849   6.382   0.711   3.669
 4962TIP3    H114850   6.306   0.683   3.616
 4962TIP3    H214851   6.437   0.753   3.600
 4963TIP3   OH214852   6.451   1.499   5.038
 4963TIP3    H114853   6.533   1.527   5.085
 4963TIP3    H214854   6.388   1.499   5.112
 4964TIP3   OH214855   6.910   0.925   4.289
 4964TIP3    H114856   6.980   0.873   4.246
 4964TIP3    H214857   6.927   0.904   4.382
 4965TIP3   OH214858   6.888   0.816   4.634
 4965TIP3    H114859   6.802   0.863   4.626
 4965TIP3    H214860   6.950   0.888   4.656
 4966TIP3   OH214861   6.623   1.232   3.681
 4966TIP3    H114862   6.549   1.168   3.669
 4966TIP3    H214863   6.601   1.269   3.770
 4967TIP3   OH214864   7.031   1.560   4.678
 4967TIP3    H114865   7.055   1.540   4.769
 4967TIP3    H214866   6.988   1.647   4.685
 4968TIP3   OH214867   6.319   1.259   4.349
 4968TIP3    H114868   6.358   1.232   4.263
 4968TIP3    H214869   6.375   1.208   4.411
 4969TIP3   OH214870   6.771   1.384   3.510
 4969TIP3    H114871   6.722   1.469   3.507
 4969TIP3    H214872   6.712   1.331   3.569
 4970TIP3   OH214873   6.203   1.187   4.971
 4970TIP3    H114874   6.229   1.172   5.064
 4970TIP3    H214875   6.142   1.114   4.955
 4971TIP3   OH214876   6.928   1.299   4.983
 4971TIP3    H114877   6.865   1.237   4.942
 4971TIP3    H214878   7.011   1.272   4.941
 4972TIP3   OH214879   7.181   1.846   4.565
 4972TIP3    H114880   7.089   1.815   4.571
 4972TIP3    H214881   7.198   1.869   4.658
 4973TIP3   OH214882   6.425   1.569   3.979
 4973TIP3    H114883   6.420   1.650   3.924
 4973TIP3    H214884   6.332   1.548   3.992
 4974TIP3   OH214885   5.986   0.874   3.684
 4974TIP3    H114886   6.031   0.958   3.707
 4974TIP3    H214887   5.910   0.876   3.746
 4975TIP3   OH214888   6.548   1.328   3.919
 4975TIP3    H114889   6.518   1.418   3.942
 4975TIP3    H214890   6.521   1.277   3.997
 4976TIP3   OH214891   6.693   1.907   4.446
 4976TIP3    H114892   6.736   1.980   4.396
 4976TIP3    H214893   6.770   1.866   4.489
 4977TIP3   OH214894   6.338   1.807   3.829
 4977TIP3    H114895   6.254   1.818   3.878
 4977TIP3    H214896   6.374   1.899   3.833
 4978TIP3   OH214897   7.074   1.551   4.409
 4978TIP3    H114898   7.061   1.548   4.506
 4978TIP3    H214899   7.142   1.484   4.397
 4979TIP3   OH214900   7.250   2.099   4.496
 4979TIP3    H114901   7.242   2.007   4.531
 4979TIP3    H214902   7.190   2.088   4.419
 4980TIP3   OH214903   6.405   0.737   4.982
 4980TIP3    H114904   6.332   0.677   4.959
 4980TIP3    H214905   6.455   0.681   5.045
 4981TIP3   OH214906   6.126   1.768   4.606
 4981TIP3    H114907   6.184   1.700   4.644
 4981TIP3    H214908   6.155   1.846   4.654
 4982TIP3   OH214909   6.417   1.417   3.292
 4982TIP3    H114910   6.432   1.325   3.265
 4982TIP3    H214911   6.395   1.407   3.386
 4983TIP3   OH214912   6.359   1.422   3.566
 4983TIP3    H114913   6.436   1.395   3.617
 4983TIP3    H214914   6.364   1.520   3.572
 4984TIP3   OH214915   6.095   1.112   3.767
 4984TIP3    H114916   6.029   1.158   3.823
 4984TIP3    H214917   6.110   1.180   3.699
 4985TIP3   OH214918   6.631   1.615   3.511
 4985TIP3    H114919   6.544   1.641   3.548
 4985TIP3    H214920   6.642   1.684   3.443
 4986TIP3   OH214921   6.815   0.652   3.903
 4986TIP3    H114922   6.880   0.722   3.880
 4986TIP3    H214923   6.814   0.657   4.001
 4987TIP3   OH214924   7.095   0.990   4.725
 4987TIP3    H114925   7.114   1.058   4.793
 4987TIP3    H214926   7.145   0.914   4.759
 4988TIP3   OH214927   6.378   1.693   3.581
 4988TIP3    H114928   6.349   1.763   3.519
 4988TIP3    H214929   6.361   1.737   3.668
 4989TIP3   OH214930   6.094   1.317   3.569
 4989TIP3    H114931   6.169   1.380   3.578
 4989TIP3    H214932   6.134   1.257   3.503
 4990TIP3   OH214933   6.032   0.607   3.708
 4990TIP3    H114934   6.033   0.705   3.705
 4990TIP3    H214935   5.968   0.586   3.640
 4991TIP3   OH214936   5.965   1.535   3.951
 4991TIP3    H114937   5.901   1.563   4.017
 4991TIP3    H214938   5.932   1.582   3.871
 4992TIP3   OH214939   6.124   2.087   5.031
 4992TIP3    H114940   6.211   2.092   5.078
 4992TIP3    H214941   6.112   1.991   5.028
 4993TIP3   OH214942   6.594   2.036   5.077
 4993TIP3    H114943   6.690   2.025   5.081
 4993TIP3    H214944   6.572   1.974   5.004
 4994TIP3   OH214945   6.584   1.619   3.201
 4994TIP3    H114946   6.534   1.542   3.236
 4994TIP3    H214947   6.660   1.575   3.156
 4995TIP3   OH214948   7.234   1.947   4.816
 4995TIP3    H114949   7.220   1.876   4.884
 4995TIP3    H214950   7.330   1.943   4.803
 4996TIP3   OH214951   6.249   1.486   5.230
 4996TIP3    H114952   6.264   1.390   5.239
 4996TIP3    H214953   6.163   1.488   5.182
 4997TIP3   OH214954   6.228   1.130   3.428
 4997TIP3    H114955   6.287   1.102   3.500
 4997TIP3    H214956   6.293   1.138   3.355
 4998TIP3   OH214957   6.855   1.575   5.005
 4998TIP3    H114958   6.816   1.596   4.919
 4998TIP3    H214959   6.886   1.482   4.993
 4999TIP3   OH214960   6.735   1.331   3.238
 4999TIP3    H114961   6.753   1.345   3.333
 4999TIP3    H214962   6.729   1.233   3.235
 5000TIP3   OH214963   6.375   1.217   5.212
 5000TIP3    H114964   6.460   1.187   5.175
 5000TIP3    H214965   6.403   1.254   5.298
 5001TIP3   OH214966   6.427   1.041   3.644
 5001TIP3    H114967   6.408   1.000   3.730
 5001TIP3    H214968   6.468   0.966   3.594
 5002TIP3   OH214969   6.711   1.107   4.874
 5002TIP3    H114970   6.632   1.165   4.871
 5002TIP3    H214971   6.762   1.139   4.796
 5003TIP3   OH214972   6.534   0.843   3.482
 5003TIP3    H114973   6.505   0.843   3.388
 5003TIP3    H214974   6.630   0.847   3.470
 5004TIP3   OH214975   7.216   1.500   5.013
 5004TIP3    H114976   7.309   1.502   4.989
 5004TIP3    H214977   7.215   1.435   5.086
 5005TIP3   OH214978   6.813   0.899   5.012
 5005TIP3    H114979   6.820   0.818   4.959
 5005TIP3    H214980   6.776   0.963   4.948
 5006TIP3   OH214981   6.861   1.212   4.679
 5006TIP3    H114982   6.942   1.214   4.626
 5006TIP3    H214983   6.805   1.277   4.631
 5007TIP3   OH214984   6.690   1.029   5.226
 5007TIP3    H114985   6.618   0.964   5.237
 5007TIP3    H214986   6.732   0.997   5.144
 5008TIP3   OH214987   7.067   0.992   5.086
 5008TIP3    H114988   7.103   0.917   5.138
 5008TIP3    H214989   6.975   0.962   5.073
 5009TIP3   OH214990   6.529   0.814   5.287
 5009TIP3    H114991   6.564   0.733   5.245
 5009TIP3    H214992   6.585   0.820   5.366
 5010TIP3   OH214993   6.346   1.895   3.394
 5010TIP3    H114994   6.441   1.886   3.374
 5010TIP3    H214995   6.318   1.948   3.317
 5011TIP3   OH214996   5.825   1.279   3.607
 5011TIP3    H114997   5.919   1.300   3.590
 5011TIP3    H214998   5.817   1.190   3.566
 5012TIP3   OH214999   5.726   1.874   4.027
 5012TIP3    H115000   5.722   1.807   3.957
 5012TIP3    H215001   5.779   1.828   4.096
 5013TIP3   OH215002   5.871   1.735   4.214
 5013TIP3    H115003   5.871   1.665   4.282
 5013TIP3    H215004   5.927   1.801   4.259
 5014TIP3   OH215005   6.058   1.153   4.580
 5014TIP3    H115006   6.058   1.115   4.490
 5014TIP3    H215007   6.155   1.154   4.599
 5015TIP3   OH215008   6.256   0.827   5.249
 5015TIP3    H115009   6.354   0.831   5.251
 5015TIP3    H215010   6.242   0.735   5.278
 5016TIP3   OH215011   6.040   0.793   4.653
 5016TIP3    H115012   6.093   0.800   4.571
 5016TIP3    H215013   6.078   0.864   4.706
 5017TIP3   OH215014   6.285   1.816   5.044
 5017TIP3    H115015   6.192   1.790   5.033
 5017TIP3    H215016   6.301   1.798   5.138
 5018TIP3   OH215017   6.466   1.850   4.595
 5018TIP3    H115018   6.422   1.928   4.556
 5018TIP3    H215019   6.554   1.861   4.552
 5019TIP3   OH215020   6.899   2.084   4.741
 5019TIP3    H115021   6.943   2.084   4.829
 5019TIP3    H215022   6.956   2.146   4.692
 5020TIP3   OH215023   7.063   2.262   4.614
 5020TIP3    H115024   7.133   2.206   4.574
 5020TIP3    H215025   7.120   2.322   4.666
 5021TIP3   OH215026   6.138   2.099   4.625
 5021TIP3    H115027   6.047   2.131   4.605
 5021TIP3    H215028   6.160   2.156   4.700
 5022TIP3   OH215029   6.375   2.081   4.481
 5022TIP3    H115030   6.287   2.092   4.523
 5022TIP3    H215031   6.359   2.114   4.391
 5023TIP3   OH215032   6.794   2.109   4.276
 5023TIP3    H115033   6.723   2.131   4.212
 5023TIP3    H215034   6.809   2.195   4.320
 5024TIP3   OH215035   7.062   2.050   4.309
 5024TIP3    H115036   6.968   2.070   4.297
 5024TIP3    H215037   7.107   2.121   4.260
 5025TIP3   OH215038   7.248   2.234   4.215
 5025TIP3    H115039   7.242   2.332   4.204
 5025TIP3    H215040   7.280   2.208   4.129
 5026TIP3   OH215041   6.049   1.891   4.364
 5026TIP3    H115042   6.077   1.865   4.455
 5026TIP3    H215043   6.123   1.850   4.314
 5027TIP3   OH215044   6.249   1.768   4.226
 5027TIP3    H115045   6.264   1.683   4.275
 5027TIP3    H215046   6.340   1.803   4.223
 5028TIP3   OH215047   6.515   1.857   4.233
 5028TIP3    H115048   6.546   1.764   4.223
 5028TIP3    H215049   6.566   1.882   4.312
 5029TIP3   OH215050   5.827   1.686   3.773
 5029TIP3    H115051   5.749   1.646   3.730
 5029TIP3    H215052   5.831   1.769   3.722
 5030TIP3   OH215053   6.612   1.852   3.338
 5030TIP3    H115054   6.699   1.876   3.300
 5030TIP3    H215055   6.589   1.778   3.277
 5031TIP3   OH215056   5.916   1.685   3.393
 5031TIP3    H115057   5.936   1.718   3.482
 5031TIP3    H215058   6.001   1.640   3.370
 5032TIP3   OH215059   1.272   2.270   5.078
 5032TIP3    H115060   1.246   2.362   5.056
 5032TIP3    H215061   1.196   2.222   5.040
 5033TIP3   OH215062   1.276   2.280   5.458
 5033TIP3    H115063   1.311   2.257   5.547
 5033TIP3    H215064   1.235   2.197   5.430
 5034TIP3   OH215065   0.582   2.179   5.825
 5034TIP3    H115066   0.610   2.105   5.882
 5034TIP3    H215067   0.667   2.217   5.799
 5035TIP3   OH215068   1.566   2.543   5.162
 5035TIP3    H115069   1.495   2.515   5.220
 5035TIP3    H215070   1.540   2.634   5.140
 5036TIP3   OH215071   0.550   2.585   5.545
 5036TIP3    H115072   0.542   2.487   5.545
 5036TIP3    H215073   0.646   2.595   5.530
 5037TIP3   OH215074   0.281   1.828   5.327
 5037TIP3    H115075   0.240   1.896   5.382
 5037TIP3    H215076   0.208   1.764   5.311
 5038TIP3   OH215077   0.311   2.072   5.501
 5038TIP3    H115078   0.367   1.999   5.533
 5038TIP3    H215079   0.371   2.120   5.442
 5039TIP3   OH215080   1.177   3.031   5.148
 5039TIP3    H115081   1.186   2.962   5.078
 5039TIP3    H215082   1.194   2.976   5.225
 5040TIP3   OH215083   1.071   2.504   5.508
 5040TIP3    H115084   1.115   2.433   5.459
 5040TIP3    H215085   1.152   2.553   5.535
 5041TIP3   OH215086   2.093   1.823   5.505
 5041TIP3    H115087   2.121   1.908   5.546
 5041TIP3    H215088   2.109   1.843   5.411
 5042TIP3   OH215089   1.484   2.001   5.535
 5042TIP3    H115090   1.529   1.916   5.554
 5042TIP3    H215091   1.453   1.986   5.444
 5043TIP3   OH215092   0.830   1.663   5.504
 5043TIP3    H115093   0.810   1.734   5.440
 5043TIP3    H215094   0.785   1.588   5.458
 5044TIP3   OH215095   1.523   1.758   5.121
 5044TIP3    H115096   1.594   1.744   5.188
 5044TIP3    H215097   1.576   1.793   5.047
 5045TIP3   OH215098   0.466   1.872   5.601
 5045TIP3    H115099   0.548   1.857   5.652
 5045TIP3    H215100   0.485   1.815   5.522
 5046TIP3   OH215101   0.897   2.062   5.410
 5046TIP3    H115102   0.993   2.040   5.416
 5046TIP3    H215103   0.861   1.979   5.372
 5047TIP3   OH215104   2.164   2.034   5.675
 5047TIP3    H115105   2.080   2.081   5.653
 5047TIP3    H215106   2.186   2.075   5.760
 5048TIP3   OH215107   0.819   1.658   5.945
 5048TIP3    H115108   0.772   1.702   5.871
 5048TIP3    H215109   0.770   1.694   6.022
 5049TIP3   OH215110   1.173   2.492   4.952
 5049TIP3    H115111   1.142   2.513   4.863
 5049TIP3    H215112   1.196   2.584   4.979
 5050TIP3   OH215113   0.927   2.425   5.727
 5050TIP3    H115114   0.870   2.497   5.761
 5050TIP3    H215115   0.972   2.469   5.652
 5051TIP3   OH215116   1.727   1.762   5.302
 5051TIP3    H115117   1.704   1.725   5.388
 5051TIP3    H215118   1.776   1.843   5.327
 5052TIP3   OH215119   0.701   1.768   5.720
 5052TIP3    H115120   0.760   1.844   5.742
 5052TIP3    H215121   0.751   1.730   5.643
 5053TIP3   OH215122   0.754   2.624   5.833
 5053TIP3    H115123   0.734   2.710   5.791
 5053TIP3    H215124   0.672   2.611   5.884
 5054TIP3   OH215125   0.157   2.308   5.059
 5054TIP3    H115126   0.111   2.336   4.978
 5054TIP3    H215127   0.182   2.396   5.098
 5055TIP3   OH215128   1.595   2.840   5.314
 5055TIP3    H115129   1.504   2.820   5.347
 5055TIP3    H215130   1.578   2.922   5.264
 5056TIP3   OH215131   1.884   1.719   5.667
 5056TIP3    H115132   1.797   1.747   5.634
 5056TIP3    H215133   1.944   1.755   5.599
 5057TIP3   OH215134   1.171   1.374   5.648
 5057TIP3    H115135   1.158   1.279   5.674
 5057TIP3    H215136   1.094   1.412   5.695
 5058TIP3   OH215137   1.815   2.732   5.649
 5058TIP3    H115138   1.801   2.658   5.586
 5058TIP3    H215139   1.795   2.809   5.592
 5059TIP3   OH215140   1.105   2.127   4.908
 5059TIP3    H115141   1.028   2.185   4.890
 5059TIP3    H215142   1.153   2.132   4.824
 5060TIP3   OH215143   1.063   1.920   4.616
 5060TIP3    H115144   1.126   1.973   4.668
 5060TIP3    H215145   1.124   1.858   4.570
 5061TIP3   OH215146   2.009   2.376   5.497
 5061TIP3    H115147   1.924   2.427   5.498
 5061TIP3    H215148   2.041   2.401   5.407
 5062TIP3   OH215149   1.453   2.212   4.879
 5062TIP3    H115150   1.399   2.238   4.957
 5062TIP3    H215151   1.539   2.196   4.921
 5063TIP3   OH215152   1.688   2.249   5.795
 5063TIP3    H115153   1.686   2.334   5.844
 5063TIP3    H215154   1.604   2.256   5.745
 5064TIP3   OH215155   0.685   2.207   5.299
 5064TIP3    H115156   0.646   2.150   5.229
 5064TIP3    H215157   0.762   2.154   5.328
 5065TIP3   OH215158   0.812   2.614   5.445
 5065TIP3    H115159   0.798   2.591   5.351
 5065TIP3    H215160   0.902   2.580   5.461
 5066TIP3   OH215161   0.819   2.183   5.651
 5066TIP3    H115162   0.852   2.156   5.563
 5066TIP3    H215163   0.865   2.269   5.665
 5067TIP3   OH215164   1.350   2.818   5.428
 5067TIP3    H115165   1.338   2.903   5.474
 5067TIP3    H215166   1.328   2.752   5.496
 5068TIP3   OH215167   0.963   2.738   5.978
 5068TIP3    H115168   0.900   2.799   6.021
 5068TIP3    H215169   0.902   2.684   5.924
 5069TIP3   OH215170   1.294   2.072   4.704
 5069TIP3    H115171   1.351   2.135   4.753
 5069TIP3    H215172   1.320   2.091   4.611
 5070TIP3   OH215173   0.719   2.284   6.089
 5070TIP3    H115174   0.725   2.375   6.124
 5070TIP3    H215175   0.623   2.276   6.075
 5071TIP3   OH215176   0.752   2.901   6.060
 5071TIP3    H115177   0.724   2.912   5.968
 5071TIP3    H215178   0.668   2.890   6.108
 5072TIP3   OH215179   1.810   1.308   4.754
 5072TIP3    H115180   1.728   1.331   4.803
 5072TIP3    H215181   1.826   1.391   4.705
 5073TIP3   OH215182   0.557   2.052   5.097
 5073TIP3    H115183   0.486   2.096   5.045
 5073TIP3    H215184   0.520   1.964   5.110
 5074TIP3   OH215185   1.611   2.676   4.298
 5074TIP3    H115186   1.619   2.773   4.284
 5074TIP3    H215187   1.704   2.648   4.289
 5075TIP3   OH215188   0.341   2.425   5.993
 5075TIP3    H115189   0.317   2.376   5.913
 5075TIP3    H215190   0.366   2.352   6.053
 5076TIP3   OH215191   0.198   2.621   5.681
 5076TIP3    H115192   0.269   2.591   5.623
 5076TIP3    H215193   0.231   2.707   5.710
 5077TIP3   OH215194   2.054   3.088   5.701
 5077TIP3    H115195   2.050   2.991   5.710
 5077TIP3    H215196   1.970   3.112   5.746
 5078TIP3   OH215197   1.158   2.871   5.828
 5078TIP3    H115198   1.160   2.964   5.858
 5078TIP3    H215199   1.089   2.833   5.887
 5079TIP3   OH215200   0.901   2.998   4.768
 5079TIP3    H115201   0.869   2.991   4.677
 5079TIP3    H215202   0.880   3.089   4.794
 5080TIP3   OH215203   0.365   2.848   5.174
 5080TIP3    H115204   0.422   2.838   5.254
 5080TIP3    H215205   0.285   2.802   5.208
 5081TIP3   OH215206   1.119   2.898   4.424
 5081TIP3    H115207   1.180   2.829   4.391
 5081TIP3    H215208   1.152   2.913   4.516
 5082TIP3   OH215209   1.163   2.946   4.695
 5082TIP3    H115210   1.076   2.955   4.739
 5082TIP3    H215211   1.209   2.898   4.768
 5083TIP3   OH215212   1.941   2.210   5.973
 5083TIP3    H115213   1.858   2.222   5.924
 5083TIP3    H215214   1.956   2.114   5.962
 5084TIP3   OH215215   0.529   2.625   6.004
 5084TIP3    H115216   0.587   2.591   6.075
 5084TIP3    H215217   0.457   2.559   6.001
 5085TIP3   OH215218   0.928   1.446   5.774
 5085TIP3    H115219   0.860   1.429   5.706
 5085TIP3    H215220   0.892   1.525   5.819
 5086TIP3   OH215221   1.482   1.559   5.974
 5086TIP3    H115222   1.550   1.530   6.038
 5086TIP3    H215223   1.398   1.542   6.021
 5087TIP3   OH215224   1.706   1.987   5.890
 5087TIP3    H115225   1.655   1.987   5.975
 5087TIP3    H215226   1.687   2.076   5.854
 5088TIP3   OH215227   1.369   2.103   4.446
 5088TIP3    H115228   1.336   2.088   4.355
 5088TIP3    H215229   1.447   2.159   4.428
 5089TIP3   OH215230   1.084   1.489   4.751
 5089TIP3    H115231   1.048   1.485   4.842
 5089TIP3    H215232   1.042   1.409   4.714
 5090TIP3   OH215233   0.873   1.963   5.800
 5090TIP3    H115234   0.825   1.987   5.882
 5090TIP3    H215235   0.859   2.044   5.746
 5091TIP3   OH215236   0.759   1.843   5.313
 5091TIP3    H115237   0.667   1.814   5.331
 5091TIP3    H215238   0.771   1.804   5.223
 5092TIP3   OH215239   1.243   1.929   5.042
 5092TIP3    H115240   1.193   2.001   4.998
 5092TIP3    H215241   1.299   1.896   4.968
 5093TIP3   OH215242   1.420   2.203   6.122
 5093TIP3    H115243   1.400   2.132   6.186
 5093TIP3    H215244   1.514   2.221   6.143
 5094TIP3   OH215245   1.395   1.956   5.280
 5094TIP3    H115246   1.336   1.990   5.209
 5094TIP3    H215247   1.431   1.878   5.232
 5095TIP3   OH215248   0.694   1.990   6.009
 5095TIP3    H115249   0.724   2.060   6.069
 5095TIP3    H215250   0.675   1.916   6.069
 5096TIP3   OH215251   0.740   1.465   4.721
 5096TIP3    H115252   0.728   1.458   4.818
 5096TIP3    H215253   0.658   1.512   4.696
 5097TIP3   OH215254   0.317   1.509   5.127
 5097TIP3    H115255   0.314   1.547   5.037
 5097TIP3    H215256   0.235   1.545   5.166
 5098TIP3   OH215257   1.404   2.199   5.700
 5098TIP3    H115258   1.441   2.129   5.640
 5098TIP3    H215259   1.375   2.143   5.774
 5099TIP3   OH215260   1.089   1.663   5.371
 5099TIP3    H115261   1.007   1.662   5.423
 5099TIP3    H215262   1.157   1.666   5.440
 5100TIP3   OH215263   0.525   1.721   5.377
 5100TIP3    H115264   0.437   1.743   5.338
 5100TIP3    H215265   0.530   1.625   5.363
 5101TIP3   OH215266   0.780   1.719   5.070
 5101TIP3    H115267   0.873   1.735   5.045
 5101TIP3    H215268   0.731   1.741   4.988
 5102TIP3   OH215269   1.575   1.741   5.575
 5102TIP3    H115270   1.544   1.757   5.667
 5102TIP3    H215271   1.504   1.682   5.543
 5103TIP3   OH215272   0.631   1.757   4.848
 5103TIP3    H115273   0.561   1.709   4.800
 5103TIP3    H215274   0.682   1.793   4.772
 5104TIP3   OH215275   1.780   3.416   5.781
 5104TIP3    H115276   1.735   3.456   5.705
 5104TIP3    H215277   1.806   3.493   5.833
 5105TIP3   OH215278   0.700   2.539   6.213
 5105TIP3    H115279   0.781   2.572   6.258
 5105TIP3    H215280   0.638   2.538   6.287
 5106TIP3   OH215281   1.163   1.994   5.466
 5106TIP3    H115282   1.240   1.963   5.415
 5106TIP3    H215283   1.176   1.950   5.552
 5107TIP3   OH215284   0.703   1.479   5.347
 5107TIP3    H115285   0.643   1.405   5.365
 5107TIP3    H215286   0.734   1.458   5.257
 5108TIP3   OH215287   1.141   1.892   5.767
 5108TIP3    H115288   1.052   1.933   5.775
 5108TIP3    H215289   1.199   1.957   5.811
 5109TIP3   OH215290   0.876   2.279   4.854
 5109TIP3    H115291   0.801   2.218   4.841
 5109TIP3    H215292   0.856   2.317   4.943
 5110TIP3   OH215293   1.774   2.516   5.480
 5110TIP3    H115294   1.792   2.570   5.400
 5110TIP3    H215295   1.688   2.474   5.456
 5111TIP3   OH215296   1.334   1.591   4.723
 5111TIP3    H115297   1.238   1.571   4.731
 5111TIP3    H215298   1.339   1.686   4.748
 5112TIP3   OH215299   1.263   2.596   5.860
 5112TIP3    H115300   1.316   2.598   5.941
 5112TIP3    H215301   1.238   2.689   5.849
 5113TIP3   OH215302   1.401   1.844   4.824
 5113TIP3    H115303   1.496   1.853   4.841
 5113TIP3    H215304   1.379   1.927   4.776
 5114TIP3   OH215305   0.569   2.307   5.528
 5114TIP3    H115306   0.606   2.280   5.442
 5114TIP3    H215307   0.618   2.250   5.589
 5115TIP3   OH215308   1.020   2.428   4.668
 5115TIP3    H115309   0.972   2.514   4.675
 5115TIP3    H215310   0.976   2.377   4.740
 5116TIP3   OH215311   0.443   2.228   6.158
 5116TIP3    H115312   0.484   2.228   6.247
 5116TIP3    H215313   0.402   2.140   6.154
 5117TIP3   OH215314   1.181   2.338   6.167
 5117TIP3    H115315   1.122   2.287   6.110
 5117TIP3    H215316   1.269   2.306   6.137
 5118TIP3   OH215317   1.432   2.844   5.766
 5118TIP3    H115318   1.337   2.862   5.764
 5118TIP3    H215319   1.461   2.905   5.836
 5119TIP3   OH215320   1.846   1.939   4.652
 5119TIP3    H115321   1.783   1.895   4.589
 5119TIP3    H215322   1.837   2.030   4.618
 5120TIP3   OH215323   2.065   2.793   5.737
 5120TIP3    H115324   1.967   2.789   5.727
 5120TIP3    H215325   2.092   2.763   5.647
 5121TIP3   OH215326   1.548   2.743   4.564
 5121TIP3    H115327   1.507   2.673   4.617
 5121TIP3    H215328   1.561   2.700   4.477
 5122TIP3   OH215329   1.541   2.373   5.420
 5122TIP3    H115330   1.445   2.353   5.421
 5122TIP3    H215331   1.573   2.308   5.355
 5123TIP3   OH215332   0.677   2.614   5.160
 5123TIP3    H115333   0.675   2.692   5.102
 5123TIP3    H215334   0.582   2.596   5.169
 5124TIP3   OH215335   0.225   1.924   4.855
 5124TIP3    H115336   0.291   1.994   4.872
 5124TIP3    H215337   0.159   1.948   4.921
 5125TIP3   OH215338   0.793   2.368   5.094
 5125TIP3    H115339   0.768   2.461   5.115
 5125TIP3    H215340   0.762   2.321   5.173
 5126TIP3   OH215341   0.942   2.949   5.624
 5126TIP3    H115342   0.982   3.023   5.573
 5126TIP3    H215343   1.021   2.915   5.670
 5127TIP3   OH215344   0.588   2.849   5.006
 5127TIP3    H115345   0.504   2.857   5.055
 5127TIP3    H215346   0.621   2.942   5.010
 5128TIP3   OH215347   1.320   2.583   5.590
 5128TIP3    H115348   1.313   2.577   5.687
 5128TIP3    H215349   1.406   2.541   5.573
 5129TIP3   OH215350   1.302   2.481   4.465
 5129TIP3    H115351   1.360   2.450   4.539
 5129TIP3    H215352   1.215   2.462   4.503
 5130TIP3   OH215353   1.588   3.113   5.628
 5130TIP3    H115354   1.498   3.078   5.642
 5130TIP3    H215355   1.569   3.187   5.567
 5131TIP3   OH215356   1.643   2.953   4.284
 5131TIP3    H115357   1.684   3.029   4.241
 5131TIP3    H215358   1.562   2.996   4.319
 5132TIP3   OH215359   0.651   1.722   6.156
 5132TIP3    H115360   0.560   1.746   6.183
 5132TIP3    H215361   0.676   1.666   6.230
 5133TIP3   OH215362   1.471   2.397   4.662
 5133TIP3    H115363   1.453   2.356   4.749
 5133TIP3    H215364   1.569   2.396   4.661
 5134TIP3   OH215365   0.372   2.819   5.784
 5134TIP3    H115366   0.427   2.745   5.815
 5134TIP3    H215367   0.412   2.893   5.832
 5135TIP3   OH215368   0.662   2.462   4.468
 5135TIP3    H115369   0.683   2.369   4.445
 5135TIP3    H215370   0.646   2.454   4.564
 5136TIP3   OH215371   0.610   2.465   4.741
 5136TIP3    H115372   0.691   2.442   4.788
 5136TIP3    H215373   0.611   2.563   4.748
 5137TIP3   OH215374   0.347   2.155   4.943
 5137TIP3    H115375   0.282   2.202   5.000
 5137TIP3    H215376   0.365   2.225   4.877
 5138TIP3   OH215377   1.503   1.796   5.835
 5138TIP3    H115378   1.583   1.837   5.870
 5138TIP3    H215379   1.494   1.715   5.890
 5139TIP3   OH215380   1.385   1.540   5.005
 5139TIP3    H115381   1.368   1.562   4.912
 5139TIP3    H215382   1.421   1.625   5.040
 5140TIP3   OH215383   0.874   2.656   4.684
 5140TIP3    H115384   0.791   2.687   4.725
 5140TIP3    H215385   0.912   2.741   4.656
 5141TIP3   OH215386   1.065   1.729   5.103
 5141TIP3    H115387   1.127   1.803   5.086
 5141TIP3    H215388   1.071   1.721   5.201
 5142TIP3   OH215389   1.336   2.038   5.909
 5142TIP3    H115390   1.365   2.094   5.985
 5142TIP3    H215391   1.392   1.960   5.918
 5143TIP3   OH215392   1.210   1.452   5.203
 5143TIP3    H115393   1.198   1.534   5.254
 5143TIP3    H215394   1.274   1.482   5.134
 5144TIP3   OH215395   0.618   2.736   4.757
 5144TIP3    H115396   0.594   2.810   4.696
 5144TIP3    H215397   0.608   2.780   4.844
 5145TIP3   OH215398   0.732   1.453   5.005
 5145TIP3    H115399   0.727   1.545   5.035
 5145TIP3    H215400   0.829   1.440   5.007
 5146TIP3   OH215401   1.973   1.943   5.895
 5146TIP3    H115402   1.875   1.941   5.898
 5146TIP3    H215403   1.988   1.908   5.806
 5147TIP3   OH215404   1.628   2.134   5.275
 5147TIP3    H115405   1.550   2.079   5.292
 5147TIP3    H215406   1.698   2.089   5.327
 5148TIP3   OH215407   0.343   2.363   4.742
 5148TIP3    H115408   0.414   2.428   4.758
 5148TIP3    H215409   0.390   2.305   4.679
 5149TIP3   OH215410   0.276   1.648   4.887
 5149TIP3    H115411   0.270   1.745   4.882
 5149TIP3    H215412   0.221   1.619   4.813
 5150TIP3   OH215413   1.597   3.105   5.225
 5150TIP3    H115414   1.553   3.157   5.154
 5150TIP3    H215415   1.691   3.120   5.202
 5151TIP3   OH215416   0.188   2.565   5.132
 5151TIP3    H115417   0.159   2.613   5.211
 5151TIP3    H215418   0.159   2.626   5.060
 5152TIP3   OH215419   0.393   3.152   6.193
 5152TIP3    H115420   0.470   3.159   6.252
 5152TIP3    H215421   0.386   3.056   6.184
 5153TIP3   OH215422   0.846   3.076   6.256
 5153TIP3    H115423   0.942   3.074   6.255
 5153TIP3    H215424   0.825   3.018   6.180
 5154TIP3   OH215425   0.827   2.663   4.372
 5154TIP3    H115426   0.774   2.593   4.416
 5154TIP3    H215427   0.906   2.612   4.346
 5155TIP3   OH215428   1.483   2.996   5.991
 5155TIP3    H115429   1.482   2.928   6.062
 5155TIP3    H215430   1.557   3.054   6.017
 5156TIP3   OH215431   1.264   2.701   4.292
 5156TIP3    H115432   1.305   2.636   4.353
 5156TIP3    H215433   1.324   2.697   4.214
 5157TIP3   OH215434   0.492   2.512   6.395
 5157TIP3    H115435   0.527   2.422   6.413
 5157TIP3    H215436   0.407   2.490   6.355
 5158TIP3   OH215437   0.477   2.172   4.605
 5158TIP3    H115438   0.536   2.148   4.679
 5158TIP3    H215439   0.544   2.180   4.533
 5159TIP3   OH215440   1.103   2.617   6.183
 5159TIP3    H115441   1.068   2.644   6.096
 5159TIP3    H215442   1.137   2.527   6.166
 5160TIP3   OH215443   0.986   2.378   4.404
 5160TIP3    H115444   0.992   2.392   4.501
 5160TIP3    H215445   0.989   2.280   4.400
 5161TIP3   OH215446   1.599   2.629   5.790
 5161TIP3    H115447   1.676   2.668   5.744
 5161TIP3    H215448   1.533   2.701   5.776
 5162TIP3   OH215449   0.593   2.254   6.392
 5162TIP3    H115450   0.671   2.206   6.362
 5162TIP3    H215451   0.622   2.281   6.483
 5163TIP3   OH215452   0.672   2.087   4.815
 5163TIP3    H115453   0.655   2.048   4.902
 5163TIP3    H215454   0.716   2.013   4.767
 5164TIP3   OH215455   0.953   2.144   6.048
 5164TIP3    H115456   0.878   2.206   6.051
 5164TIP3    H215457   1.007   2.181   5.974
 5165TIP3   OH215458   0.787   1.883   4.661
 5165TIP3    H115459   0.764   1.893   4.566
 5165TIP3    H215460   0.885   1.884   4.655
 5166TIP3   OH215461   1.470   2.549   6.186
 5166TIP3    H115462   1.544   2.520   6.132
 5166TIP3    H215463   1.468   2.483   6.257
 5167TIP3   OH215464   1.605   2.205   4.330
 5167TIP3    H115465   1.584   2.165   4.243
 5167TIP3    H215466   1.573   2.297   4.313
 5168TIP3   OH215467   1.080   1.941   6.174
 5168TIP3    H115468   1.082   1.863   6.115
 5168TIP3    H215469   1.036   2.008   6.116
 5169TIP3   OH215470   1.084   1.728   5.989
 5169TIP3    H115471   1.113   1.771   5.906
 5169TIP3    H215472   0.992   1.704   5.968
 5170TIP3   OH215473   1.102   2.260   5.860
 5170TIP3    H115474   1.189   2.280   5.823
 5170TIP3    H215475   1.046   2.325   5.812
 5171TIP3   OH215476   1.684   2.227   6.232
 5171TIP3    H115477   1.737   2.147   6.245
 5171TIP3    H215478   1.749   2.289   6.195
 5172TIP3   OH215479   1.726   2.480   5.973
 5172TIP3    H115480   1.669   2.536   5.915
 5172TIP3    H215481   1.814   2.503   5.935
 5173TIP3   OH215482   0.963   2.049   6.406
 5173TIP3    H115483   0.889   1.985   6.412
 5173TIP3    H215484   0.995   2.032   6.315
 5174TIP3   OH215485   1.227   1.500   6.062
 5174TIP3    H115486   1.175   1.579   6.036
 5174TIP3    H215487   1.162   1.428   6.044
 5175TIP3   OH215488   1.338   1.986   6.270
 5175TIP3    H115489   1.318   1.972   6.364
 5175TIP3    H215490   1.250   1.967   6.230
 5176TIP3   OH215491   1.574   1.940   6.121
 5176TIP3    H115492   1.502   1.941   6.187
 5176TIP3    H215493   1.651   1.911   6.174
 5177TIP3   OH215494   1.803   1.877   6.264
 5177TIP3    H115495   1.817   1.783   6.284
 5177TIP3    H215496   1.800   1.919   6.353
 5178TIP3   OH215497   0.782   1.851   6.467
 5178TIP3    H115498   0.777   1.756   6.443
 5178TIP3    H215499   0.833   1.844   6.548
 5179TIP3   OH215500   1.296   1.492   6.324
 5179TIP3    H115501   1.365   1.424   6.314
 5179TIP3    H215502   1.266   1.498   6.231
 5180TIP3   OH215503   1.370   1.718   6.467
 5180TIP3    H115504   1.351   1.643   6.406
 5180TIP3    H215505   1.288   1.771   6.461
 5181TIP3   OH215506   0.594   2.940   4.568
 5181TIP3    H115507   0.690   2.928   4.553
 5181TIP3    H215508   0.573   2.994   4.489
 5182TIP3   OH215509   0.077   2.314   4.783
 5182TIP3    H115510   0.171   2.339   4.770
 5182TIP3    H215511   0.074   2.225   4.743
 5183TIP3   OH215512   0.158   2.788   5.346
 5183TIP3    H115513   0.072   2.749   5.372
 5183TIP3    H215514   0.183   2.838   5.426
 5184TIP3   OH215515   1.857   3.178   5.187
 5184TIP3    H115516   1.878   3.213   5.276
 5184TIP3    H215517   1.921   3.225   5.131
 5185TIP3   OH215518   1.880   3.206   5.467
 5185TIP3    H115519   1.834   3.120   5.463
 5185TIP3    H215520   1.952   3.183   5.528
 5186TIP3   OH215521   1.930   2.880   6.045
 5186TIP3    H115522   1.856   2.891   6.108
 5186TIP3    H215523   1.969   2.970   6.043
 5187TIP3   OH215524   1.749   2.391   4.658
 5187TIP3    H115525   1.811   2.461   4.628
 5187TIP3    H215526   1.794   2.358   4.739
 5188TIP3   OH215527   1.875   2.256   4.863
 5188TIP3    H115528   1.804   2.221   4.921
 5188TIP3    H215529   1.935   2.299   4.928
 5189TIP3   OH215530   1.936   2.661   5.303
 5189TIP3    H115531   1.974   2.591   5.247
 5189TIP3    H215532   1.918   2.732   5.238
 5190TIP3   OH215533   1.764   2.954   5.493
 5190TIP3    H115534   1.692   3.001   5.541
 5190TIP3    H215535   1.712   2.911   5.420
 5191TIP3   OH215536   1.808   2.169   4.507
 5191TIP3    H115537   1.736   2.173   4.440
 5191TIP3    H215538   1.782   2.246   4.563
 5192TIP3   OH215539   1.687   1.838   4.456
 5192TIP3    H115540   1.628   1.881   4.392
 5192TIP3    H215541   1.661   1.744   4.445
 5193TIP3   OH215542   1.684   2.124   5.009
 5193TIP3    H115543   1.688   2.027   5.004
 5193TIP3    H215544   1.668   2.139   5.105
 5194TIP3   OH215545   0.313   2.168   5.773
 5194TIP3    H115546   0.303   2.168   5.676
 5194TIP3    H215547   0.409   2.183   5.783
 5195TIP3   OH215548   1.973   2.545   5.870
 5195TIP3    H115549   2.045   2.480   5.854
 5195TIP3    H215550   1.991   2.613   5.803
 5196TIP3   OH215551   2.155   2.343   5.871
 5196TIP3    H115552   2.081   2.296   5.915
 5196TIP3    H215553   2.228   2.281   5.891
 5197TIP3   OH215554   1.624   1.570   4.436
 5197TIP3    H115555   1.689   1.543   4.504
 5197TIP3    H215556   1.544   1.520   4.461
 5198TIP3   OH215557   1.680   1.836   4.903
 5198TIP3    H115558   1.722   1.747   4.915
 5198TIP3    H215559   1.738   1.872   4.833
 5199TIP3   OH215560   1.840   2.002   5.402
 5199TIP3    H115561   1.925   2.027   5.358
 5199TIP3    H215562   1.854   2.044   5.489
 5200TIP3   OH215563   1.913   2.154   5.628
 5200TIP3    H115564   1.835   2.189   5.676
 5200TIP3    H215565   1.945   2.236   5.583
 5201TIP3   OH215566   0.520   1.891   6.384
 5201TIP3    H115567   0.614   1.899   6.410
 5201TIP3    H215568   0.487   1.831   6.452
 5202TIP3   OH215569   2.364   1.751   6.182
 5202TIP3    H115570   2.425   1.687   6.138
 5202TIP3    H215571   2.330   1.801   6.104
 5203TIP3   OH215572   1.793   1.586   4.938
 5203TIP3    H115573   1.838   1.571   5.024
 5203TIP3    H215574   1.729   1.512   4.938
 5204TIP3   OH215575   0.496   1.584   5.672
 5204TIP3    H115576   0.524   1.515   5.734
 5204TIP3    H215577   0.564   1.652   5.686
 5205TIP3   OH215578   0.311   1.898   5.841
 5205TIP3    H115579   0.363   1.878   5.761
 5205TIP3    H215580   0.299   1.995   5.830
 5206TIP3   OH215581   2.228   1.881   5.988
 5206TIP3    H115582   2.145   1.928   6.009
 5206TIP3    H215583   2.192   1.810   5.931
 5207TIP3   OH215584   1.865   1.516   4.579
 5207TIP3    H115585   1.903   1.448   4.520
 5207TIP3    H215586   1.930   1.588   4.574
 5208TIP3   OH215587   1.409   3.115   4.819
 5208TIP3    H115588   1.453   3.059   4.753
 5208TIP3    H215589   1.462   3.096   4.897
 5209TIP3   OH215590   0.513   2.865   6.233
 5209TIP3    H115591   0.489   2.777   6.203
 5209TIP3    H215592   0.530   2.850   6.328
 5210TIP3   OH215593   0.717   2.895   5.774
 5210TIP3    H115594   0.673   2.973   5.734
 5210TIP3    H215595   0.804   2.906   5.729
 5211TIP3   OH215596   1.170   3.153   5.909
 5211TIP3    H115597   1.209   3.145   5.998
 5211TIP3    H215598   1.215   3.234   5.878
 5212TIP3   OH215599   2.131   1.645   5.871
 5212TIP3    H115600   2.042   1.638   5.832
 5212TIP3    H215601   2.164   1.553   5.861
 5213TIP3   OH215602   0.392   3.141   5.806
 5213TIP3    H115603   0.307   3.159   5.765
 5213TIP3    H215604   0.388   3.196   5.886
 5214TIP3   OH215605   0.629   3.126   5.658
 5214TIP3    H115606   0.542   3.139   5.701
 5214TIP3    H215607   0.609   3.146   5.565
 5215TIP3   OH215608   1.047   3.146   5.464
 5215TIP3    H115609   0.989   3.171   5.390
 5215TIP3    H215610   1.063   3.233   5.507
 5216TIP3   OH215611   1.320   3.082   5.512
 5216TIP3    H115612   1.227   3.105   5.492
 5216TIP3    H215613   1.367   3.159   5.476
 5217TIP3   OH215614   1.529   3.286   5.421
 5217TIP3    H115615   1.511   3.367   5.370
 5217TIP3    H215616   1.553   3.222   5.350
 5218TIP3   OH215617   0.305   2.941   5.543
 5218TIP3    H115618   0.325   2.912   5.635
 5218TIP3    H215619   0.377   2.894   5.495
 5219TIP3   OH215620   0.501   2.814   5.405
 5219TIP3    H115621   0.515   2.729   5.454
 5219TIP3    H215622   0.593   2.849   5.402
 5220TIP3   OH215623   0.764   2.905   5.410
 5220TIP3    H115624   0.799   2.816   5.393
 5220TIP3    H215625   0.816   2.928   5.490
 5221TIP3   OH215626   1.342   1.563   5.497
 5221TIP3    H115627   1.296   1.490   5.542
 5221TIP3    H215628   1.413   1.517   5.449
 5222TIP3   OH215629   1.855   1.440   5.394
 5222TIP3    H115630   1.891   1.494   5.320
 5222TIP3    H215631   1.760   1.462   5.389
 5223TIP3   OH215632   1.953   1.537   5.158
 5223TIP3    H115633   2.028   1.487   5.120
 5223TIP3    H215634   1.986   1.629   5.145
 5224TIP3   OH215635   1.043   1.331   5.393
 5224TIP3    H115636   1.095   1.380   5.326
 5224TIP3    H215637   1.082   1.362   5.476
 5225TIP3   OH215638   1.571   1.449   5.369
 5225TIP3    H115639   1.572   1.409   5.282
 5225TIP3    H215640   1.559   1.370   5.427
 5226TIP3   OH215641   1.606   1.376   4.934
 5226TIP3    H115642   1.521   1.421   4.953
 5226TIP3    H215643   1.591   1.289   4.978
 5227TIP3   OH215644   0.080   2.721   4.932
 5227TIP3    H115645   0.018   2.673   4.876
 5227TIP3    H215646   0.076   2.810   4.892
 5228TIP3   OH215647   0.510   1.333   4.877
 5228TIP3    H115648   0.548   1.247   4.849
 5228TIP3    H215649   0.574   1.365   4.942
 5229TIP3   OH215650   1.005   1.479   5.014
 5229TIP3    H115651   1.062   1.431   5.075
 5229TIP3    H215652   1.027   1.571   5.040
 5230TIP3   OH215653   0.858   2.901   4.508
 5230TIP3    H115654   0.949   2.918   4.478
 5230TIP3    H215655   0.839   2.820   4.455
 5231TIP3   OH215656   1.589   3.011   4.604
 5231TIP3    H115657   1.580   2.913   4.594
 5231TIP3    H215658   1.539   3.043   4.527
 5232TIP3   OH215659   6.484   7.279   3.614
 5232TIP3    H115660   6.450   7.198   3.572
 5232TIP3    H215661   6.578   7.254   3.628
 5233TIP3   OH215662   1.062   1.524   6.487
 5233TIP3    H115663   1.142   1.521   6.432
 5233TIP3    H215664   1.093   1.480   6.568
 5234TIP3   OH215665   0.167   2.730   4.576
 5234TIP3    H115666   0.185   2.761   4.666
 5234TIP3    H215667   0.253   2.687   4.553
 5235TIP3   OH215668   1.873   1.608   6.306
 5235TIP3    H115669   1.892   1.581   6.398
 5235TIP3    H215670   1.962   1.606   6.266
 5236TIP3   OH215671   1.804   3.149   5.802
 5236TIP3    H115672   1.727   3.125   5.746
 5236TIP3    H215673   1.797   3.247   5.800
 5237TIP3   OH215674   3.072   2.529   4.557
 5237TIP3    H115675   3.045   2.622   4.540
 5237TIP3    H215676   2.993   2.483   4.526
 5238TIP3   OH215677   3.063   2.535   4.948
 5238TIP3    H115678   3.106   2.516   5.033
 5238TIP3    H215679   3.023   2.449   4.926
 5239TIP3   OH215680   2.373   2.427   5.306
 5239TIP3    H115681   2.402   2.358   5.368
 5239TIP3    H215682   2.448   2.488   5.308
 5240TIP3   OH215683   2.346   2.841   5.029
 5240TIP3    H115684   2.337   2.743   5.031
 5240TIP3    H215685   2.443   2.850   5.020
 5241TIP3   OH215686   2.053   2.038   4.809
 5241TIP3    H115687   2.008   2.121   4.835
 5241TIP3    H215688   1.977   1.992   4.767
 5242TIP3   OH215689   2.108   2.330   4.994
 5242TIP3    H115690   2.159   2.253   5.025
 5242TIP3    H215691   2.171   2.376   4.937
 5243TIP3   OH215692   2.966   3.295   4.644
 5243TIP3    H115693   3.011   3.227   4.591
 5243TIP3    H215694   2.963   3.254   4.731
 5244TIP3   OH215695   2.870   2.762   4.993
 5244TIP3    H115696   2.918   2.686   4.953
 5244TIP3    H215697   2.949   2.816   5.015
 5245TIP3   OH215698   3.895   2.082   4.990
 5245TIP3    H115699   3.918   2.166   5.035
 5245TIP3    H215700   3.877   2.113   4.900
 5246TIP3   OH215701   3.285   2.258   5.021
 5246TIP3    H115702   3.325   2.172   5.041
 5246TIP3    H215703   3.250   2.242   4.931
 5247TIP3   OH215704   2.628   1.920   4.985
 5247TIP3    H115705   2.606   1.994   4.924
 5247TIP3    H215706   2.576   1.848   4.943
 5248TIP3   OH215707   3.320   2.014   4.607
 5248TIP3    H115708   3.391   2.000   4.674
 5248TIP3    H215709   3.373   2.051   4.534
 5249TIP3   OH215710   2.255   2.123   5.095
 5249TIP3    H115711   2.337   2.106   5.144
 5249TIP3    H215712   2.272   2.067   5.015
 5250TIP3   OH215713   2.695   2.320   4.889
 5250TIP3    H115714   2.789   2.296   4.901
 5250TIP3    H215715   2.657   2.235   4.857
 5251TIP3   OH215716   3.961   2.297   5.152
 5251TIP3    H115717   3.875   2.342   5.135
 5251TIP3    H215718   3.976   2.322   5.244
 5252TIP3   OH215719   2.618   1.905   5.423
 5252TIP3    H115720   2.560   1.944   5.355
 5252TIP3    H215721   2.564   1.923   5.503
 5253TIP3   OH215722   2.970   2.754   4.422
 5253TIP3    H115723   2.930   2.741   4.334
 5253TIP3    H215724   2.923   2.835   4.451
 5254TIP3   OH215725   2.725   2.681   5.213
 5254TIP3    H115726   2.666   2.752   5.248
 5254TIP3    H215727   2.768   2.727   5.137
 5255TIP3   OH215728   3.523   2.017   4.791
 5255TIP3    H115729   3.491   1.984   4.876
 5255TIP3    H215730   3.569   2.099   4.817
 5256TIP3   OH215731   2.492   2.019   5.205
 5256TIP3    H115732   2.552   2.093   5.230
 5256TIP3    H215733   2.542   1.981   5.130
 5257TIP3   OH215734   2.556   2.879   5.314
 5257TIP3    H115735   2.532   2.967   5.277
 5257TIP3    H215736   2.476   2.862   5.368
 5258TIP3   OH215737   1.944   2.565   4.549
 5258TIP3    H115738   1.903   2.595   4.466
 5258TIP3    H215739   1.975   2.651   4.587
 5259TIP3   OH215740   3.679   1.979   5.155
 5259TIP3    H115741   3.590   2.003   5.124
 5259TIP3    H215742   3.736   2.012   5.083
 5260TIP3   OH215743   2.970   1.620   5.141
 5260TIP3    H115744   2.951   1.526   5.158
 5260TIP3    H215745   2.894   1.662   5.187
 5261TIP3   OH215746   3.082   3.126   4.456
 5261TIP3    H115747   3.135   3.045   4.437
 5261TIP3    H215748   3.145   3.194   4.423
 5262TIP3   OH215749   3.233   2.913   4.379
 5262TIP3    H115750   3.184   2.833   4.359
 5262TIP3    H215751   3.299   2.884   4.444
 5263TIP3   OH215752   3.612   2.991   5.127
 5263TIP3    H115753   3.596   2.916   5.066
 5263TIP3    H215754   3.586   3.067   5.070
 5264TIP3   OH215755   2.900   2.383   4.393
 5264TIP3    H115756   2.821   2.439   4.377
 5264TIP3    H215757   2.946   2.389   4.308
 5265TIP3   OH215758   2.861   2.168   4.109
 5265TIP3    H115759   2.922   2.224   4.160
 5265TIP3    H215760   2.925   2.112   4.060
 5266TIP3   OH215761   3.801   2.640   4.993
 5266TIP3    H115762   3.716   2.689   4.985
 5266TIP3    H215763   3.834   2.650   4.901
 5267TIP3   OH215764   3.253   2.465   4.364
 5267TIP3    H115765   3.197   2.488   4.442
 5267TIP3    H215766   3.338   2.445   4.408
 5268TIP3   OH215767   3.483   2.507   5.278
 5268TIP3    H115768   3.478   2.591   5.327
 5268TIP3    H215769   3.400   2.512   5.226
 5269TIP3   OH215770   2.482   2.461   4.782
 5269TIP3    H115771   2.448   2.405   4.709
 5269TIP3    H215772   2.560   2.411   4.813
 5270TIP3   OH215773   2.612   2.874   4.930
 5270TIP3    H115774   2.595   2.847   4.839
 5270TIP3    H215775   2.702   2.838   4.946
 5271TIP3   OH215776   2.623   2.437   5.135
 5271TIP3    H115777   2.655   2.415   5.045
 5271TIP3    H215778   2.664   2.525   5.152
 5272TIP3   OH215779   3.077   3.086   4.916
 5272TIP3    H115780   3.129   3.157   4.958
 5272TIP3    H215781   3.108   3.006   4.962
 5273TIP3   OH215782   2.758   2.992   5.464
 5273TIP3    H115783   2.695   3.055   5.506
 5273TIP3    H215784   2.695   2.941   5.409
 5274TIP3   OH215785   3.090   2.325   4.190
 5274TIP3    H115786   3.148   2.389   4.238
 5274TIP3    H215787   3.116   2.344   4.096
 5275TIP3   OH215788   2.514   2.543   5.568
 5275TIP3    H115789   2.519   2.634   5.604
 5275TIP3    H215790   2.419   2.525   5.582
 5276TIP3   OH215791   2.840   2.997   4.450
 5276TIP3    H115792   2.922   3.049   4.464
 5276TIP3    H215793   2.770   3.056   4.479
 5277TIP3   OH215794   2.552   3.159   5.549
 5277TIP3    H115795   2.518   3.167   5.457
 5277TIP3    H215796   2.470   3.136   5.599
 5278TIP3   OH215797   3.607   1.564   4.241
 5278TIP3    H115798   3.524   1.588   4.289
 5278TIP3    H215799   3.623   1.646   4.190
 5279TIP3   OH215800   2.354   2.303   4.568
 5279TIP3    H115801   2.286   2.355   4.520
 5279TIP3    H215802   2.300   2.237   4.612
 5280TIP3   OH215803   3.409   2.922   3.796
 5280TIP3    H115804   3.425   3.016   3.774
 5280TIP3    H215805   3.500   2.887   3.788
 5281TIP3   OH215806   2.131   2.695   5.495
 5281TIP3    H115807   2.060   2.682   5.428
 5281TIP3    H215808   2.166   2.605   5.507
 5282TIP3   OH215809   1.983   2.891   5.121
 5282TIP3    H115810   2.080   2.891   5.119
 5282TIP3    H215811   1.964   2.968   5.176
 5283TIP3   OH215812   3.849   3.344   5.187
 5283TIP3    H115813   3.845   3.247   5.200
 5283TIP3    H215814   3.765   3.370   5.231
 5284TIP3   OH215815   2.958   3.117   5.323
 5284TIP3    H115816   2.951   3.211   5.350
 5284TIP3    H215817   2.883   3.079   5.374
 5285TIP3   OH215818   2.160   3.099   4.650
 5285TIP3    H115819   2.203   3.094   4.738
 5285TIP3    H215820   2.091   3.031   4.660
 5286TIP3   OH215821   3.030   3.169   3.937
 5286TIP3    H115822   2.974   3.130   3.868
 5286TIP3    H215823   2.964   3.195   4.003
 5287TIP3   OH215824   2.924   3.203   4.214
 5287TIP3    H115825   2.861   3.139   4.250
 5287TIP3    H215826   3.006   3.178   4.260
 5288TIP3   OH215827   3.739   2.468   5.458
 5288TIP3    H115828   3.653   2.482   5.414
 5288TIP3    H215829   3.751   2.372   5.446
 5289TIP3   OH215830   2.335   2.876   5.475
 5289TIP3    H115831   2.382   2.861   5.560
 5289TIP3    H215832   2.259   2.815   5.483
 5290TIP3   OH215833   2.734   1.699   5.270
 5290TIP3    H115834   2.646   1.670   5.239
 5290TIP3    H215835   2.707   1.780   5.318
 5291TIP3   OH215836   3.269   1.812   5.462
 5291TIP3    H115837   3.337   1.786   5.527
 5291TIP3    H215838   3.185   1.795   5.510
 5292TIP3   OH215839   3.507   2.248   5.383
 5292TIP3    H115840   3.452   2.244   5.465
 5292TIP3    H215841   3.481   2.334   5.344
 5293TIP3   OH215842   3.164   2.360   3.933
 5293TIP3    H115843   3.130   2.343   3.843
 5293TIP3    H215844   3.237   2.421   3.913
 5294TIP3   OH215845   2.859   1.755   4.231
 5294TIP3    H115846   2.838   1.749   4.327
 5294TIP3    H215847   2.828   1.666   4.202
 5295TIP3   OH215848   2.667   2.216   5.285
 5295TIP3    H115849   2.616   2.237   5.366
 5295TIP3    H215850   2.652   2.298   5.232
 5296TIP3   OH215851   2.551   2.100   4.798
 5296TIP3    H115852   2.458   2.076   4.819
 5296TIP3    H215853   2.559   2.061   4.708
 5297TIP3   OH215854   3.038   2.183   4.526
 5297TIP3    H115855   2.989   2.256   4.484
 5297TIP3    H215856   3.095   2.152   4.453
 5298TIP3   OH215857   3.215   2.460   5.609
 5298TIP3    H115858   3.192   2.389   5.674
 5298TIP3    H215859   3.308   2.476   5.633
 5299TIP3   OH215860   3.189   2.210   4.769
 5299TIP3    H115861   3.130   2.245   4.699
 5299TIP3    H215862   3.226   2.134   4.719
 5300TIP3   OH215863   2.488   2.243   5.492
 5300TIP3    H115864   2.506   2.312   5.558
 5300TIP3    H215865   2.476   2.164   5.548
 5301TIP3   OH215866   2.079   1.759   5.075
 5301TIP3    H115867   2.151   1.796   5.131
 5301TIP3    H215868   2.124   1.737   4.993
 5302TIP3   OH215869   2.041   1.745   4.583
 5302TIP3    H115870   2.106   1.781   4.521
 5302TIP3    H215871   1.984   1.823   4.601
 5303TIP3   OH215872   3.201   2.455   5.185
 5303TIP3    H115873   3.239   2.387   5.125
 5303TIP3    H215874   3.171   2.399   5.259
 5304TIP3   OH215875   2.883   1.915   4.858
 5304TIP3    H115876   2.800   1.918   4.910
 5304TIP3    H215877   2.950   1.923   4.927
 5305TIP3   OH215878   2.312   1.983   4.865
 5305TIP3    H115879   2.217   1.991   4.838
 5305TIP3    H215880   2.332   1.889   4.845
 5306TIP3   OH215881   2.576   1.973   4.552
 5306TIP3    H115882   2.672   1.987   4.543
 5306TIP3    H215883   2.542   1.984   4.461
 5307TIP3   OH215884   3.372   1.995   5.058
 5307TIP3    H115885   3.345   2.011   5.151
 5307TIP3    H215886   3.299   1.938   5.028
 5308TIP3   OH215887   2.424   1.970   4.310
 5308TIP3    H115888   2.341   2.017   4.327
 5308TIP3    H215889   2.471   2.031   4.250
 5309TIP3   OH215890   3.544   3.687   5.283
 5309TIP3    H115891   3.538   3.711   5.188
 5309TIP3    H215892   3.623   3.738   5.310
 5310TIP3   OH215893   2.498   2.795   5.701
 5310TIP3    H115894   2.576   2.828   5.749
 5310TIP3    H215895   2.431   2.797   5.773
 5311TIP3   OH215896   2.957   2.249   4.955
 5311TIP3    H115897   3.036   2.217   4.910
 5311TIP3    H215898   2.965   2.208   5.043
 5312TIP3   OH215899   2.476   1.738   4.842
 5312TIP3    H115900   2.439   1.663   4.893
 5312TIP3    H215901   2.520   1.693   4.768
 5313TIP3   OH215902   2.935   2.153   5.247
 5313TIP3    H115903   2.845   2.189   5.260
 5313TIP3    H215904   2.991   2.217   5.296
 5314TIP3   OH215905   2.676   2.538   4.344
 5314TIP3    H115906   2.599   2.482   4.324
 5314TIP3    H215907   2.652   2.572   4.434
 5315TIP3   OH215908   3.567   2.774   4.970
 5315TIP3    H115909   3.562   2.813   4.878
 5315TIP3    H215910   3.486   2.719   4.966
 5316TIP3   OH215911   3.123   1.846   4.215
 5316TIP3    H115912   3.026   1.836   4.216
 5316TIP3    H215913   3.137   1.941   4.234
 5317TIP3   OH215914   3.072   2.857   5.340
 5317TIP3    H115915   3.099   2.849   5.432
 5317TIP3    H215916   3.034   2.948   5.338
 5318TIP3   OH215917   3.198   2.098   4.308
 5318TIP3    H115918   3.294   2.109   4.325
 5318TIP3    H215919   3.176   2.180   4.259
 5319TIP3   OH215920   2.365   2.560   5.016
 5319TIP3    H115921   2.405   2.532   4.931
 5319TIP3    H215922   2.412   2.504   5.080
 5320TIP3   OH215923   2.819   2.700   4.169
 5320TIP3    H115924   2.767   2.780   4.152
 5320TIP3    H215925   2.759   2.647   4.227
 5321TIP3   OH215926   2.252   2.473   5.629
 5321TIP3    H115927   2.261   2.462   5.725
 5321TIP3    H215928   2.175   2.417   5.609
 5322TIP3   OH215929   2.974   2.599   5.650
 5322TIP3    H115930   2.910   2.539   5.608
 5322TIP3    H215931   3.059   2.561   5.618
 5323TIP3   OH215932   3.234   3.112   5.241
 5323TIP3    H115933   3.137   3.114   5.246
 5323TIP3    H215934   3.257   3.170   5.316
 5324TIP3   OH215935   3.641   2.195   4.143
 5324TIP3    H115936   3.580   2.151   4.079
 5324TIP3    H215937   3.636   2.285   4.104
 5325TIP3   OH215938   3.860   3.050   5.219
 5325TIP3    H115939   3.763   3.045   5.210
 5325TIP3    H215940   3.887   3.019   5.130
 5326TIP3   OH215941   3.369   3.004   4.064
 5326TIP3    H115942   3.295   2.964   4.111
 5326TIP3    H215943   3.363   2.964   3.975
 5327TIP3   OH215944   3.346   2.616   4.931
 5327TIP3    H115945   3.250   2.611   4.919
 5327TIP3    H215946   3.378   2.580   4.846
 5328TIP3   OH215947   2.469   2.866   4.642
 5328TIP3    H115948   2.460   2.948   4.589
 5328TIP3    H215949   2.376   2.848   4.662
 5329TIP3   OH215950   2.040   2.166   4.359
 5329TIP3    H115951   2.077   2.256   4.374
 5329TIP3    H215952   1.959   2.172   4.415
 5330TIP3   OH215953   2.595   2.628   4.584
 5330TIP3    H115954   2.562   2.719   4.602
 5330TIP3    H215955   2.561   2.581   4.662
 5331TIP3   OH215956   2.738   3.210   5.108
 5331TIP3    H115957   2.780   3.283   5.056
 5331TIP3    H215958   2.817   3.168   5.145
 5332TIP3   OH215959   2.394   3.103   4.503
 5332TIP3    H115960   2.304   3.106   4.543
 5332TIP3    H215961   2.412   3.197   4.492
 5333TIP3   OH215962   3.126   2.840   5.070
 5333TIP3    H115963   3.114   2.839   5.167
 5333TIP3    H215964   3.209   2.791   5.059
 5334TIP3   OH215965   3.107   2.721   3.953
 5334TIP3    H115966   3.143   2.701   4.042
 5334TIP3    H215967   3.012   2.719   3.967
 5335TIP3   OH215968   3.376   3.375   5.118
 5335TIP3    H115969   3.290   3.328   5.111
 5335TIP3    H215970   3.362   3.446   5.052
 5336TIP3   OH215971   3.464   3.187   3.758
 5336TIP3    H115972   3.465   3.208   3.663
 5336TIP3    H215973   3.379   3.225   3.785
 5337TIP3   OH215974   2.454   1.985   5.636
 5337TIP3    H115975   2.357   1.989   5.648
 5337TIP3    H215976   2.481   1.932   5.712
 5338TIP3   OH215977   3.256   2.662   4.177
 5338TIP3    H115978   3.249   2.598   4.250
 5338TIP3    H215979   3.348   2.649   4.149
 5339TIP3   OH215980   2.177   3.069   5.266
 5339TIP3    H115981   2.232   3.000   5.307
 5339TIP3    H215982   2.197   3.146   5.321
 5340TIP3   OH215983   2.410   2.701   3.947
 5340TIP3    H115984   2.475   2.635   3.919
 5340TIP3    H215985   2.428   2.709   4.042
 5341TIP3   OH215986   2.428   2.714   4.224
 5341TIP3    H115987   2.486   2.708   4.300
 5341TIP3    H215988   2.410   2.812   4.223
 5342TIP3   OH215989   2.141   2.415   4.430
 5342TIP3    H115990   2.075   2.463   4.485
 5342TIP3    H215991   2.154   2.482   4.359
 5343TIP3   OH215992   3.307   2.044   5.318
 5343TIP3    H115993   3.379   2.089   5.366
 5343TIP3    H215994   3.288   1.967   5.374
 5344TIP3   OH215995   3.180   1.797   4.493
 5344TIP3    H115996   3.163   1.819   4.400
 5344TIP3    H215997   3.218   1.881   4.527
 5345TIP3   OH215998   2.857   1.984   4.591
 5345TIP3    H115999   2.921   2.057   4.572
 5345TIP3    H216000   2.867   1.975   4.688
 5346TIP3   OH216001   3.133   2.296   5.396
 5346TIP3    H116002   3.155   2.354   5.471
 5346TIP3    H216003   3.185   2.217   5.414
 5347TIP3   OH216004   3.003   1.703   4.690
 5347TIP3    H116005   2.989   1.782   4.745
 5347TIP3    H216006   3.067   1.737   4.624
 5348TIP3   OH216007   2.390   2.976   4.246
 5348TIP3    H116008   2.428   3.032   4.176
 5348TIP3    H216009   2.390   3.035   4.324
 5349TIP3   OH216010   2.522   1.699   4.481
 5349TIP3    H116011   2.515   1.793   4.506
 5349TIP3    H216012   2.620   1.690   4.481
 5350TIP3   OH216013   3.772   2.198   5.375
 5350TIP3    H116014   3.674   2.201   5.388
 5350TIP3    H216015   3.775   2.154   5.290
 5351TIP3   OH216016   3.430   2.380   4.753
 5351TIP3    H116017   3.346   2.339   4.780
 5351TIP3    H216018   3.495   2.340   4.813
 5352TIP3   OH216019   2.138   2.618   4.234
 5352TIP3    H116020   2.195   2.697   4.239
 5352TIP3    H216021   2.187   2.568   4.165
 5353TIP3   OH216022   2.093   1.900   4.317
 5353TIP3    H116023   2.081   1.995   4.341
 5353TIP3    H216024   2.002   1.868   4.325
 5354TIP3   OH216025   3.397   3.373   4.733
 5354TIP3    H116026   3.349   3.412   4.656
 5354TIP3    H216027   3.488   3.375   4.698
 5355TIP3   OH216028   2.471   1.619   5.237
 5355TIP3    H116029   2.439   1.584   5.151
 5355TIP3    H216030   2.459   1.541   5.295
 5356TIP3   OH216031   1.998   2.824   4.616
 5356TIP3    H116032   1.943   2.863   4.686
 5356TIP3    H216033   1.966   2.874   4.537
 5357TIP3   OH216034   2.166   3.386   5.691
 5357TIP3    H116035   2.253   3.384   5.737
 5357TIP3    H216036   2.142   3.292   5.692
 5358TIP3   OH216037   2.644   3.336   5.742
 5358TIP3    H116038   2.739   3.321   5.739
 5358TIP3    H216039   2.614   3.277   5.670
 5359TIP3   OH216040   3.280   3.255   5.476
 5359TIP3    H116041   3.276   3.184   5.544
 5359TIP3    H216042   3.358   3.306   5.503
 5360TIP3   OH216043   3.051   2.935   3.756
 5360TIP3    H116044   3.109   2.909   3.828
 5360TIP3    H216045   3.111   2.954   3.682
 5361TIP3   OH216046   2.294   2.789   5.893
 5361TIP3    H116047   2.308   2.692   5.900
 5361TIP3    H216048   2.208   2.793   5.846
 5362TIP3   OH216049   2.276   2.432   4.089
 5362TIP3    H116050   2.339   2.419   4.161
 5362TIP3    H216051   2.339   2.446   4.014
 5363TIP3   OH216052   2.901   2.877   5.668
 5363TIP3    H116053   2.858   2.900   5.582
 5363TIP3    H216054   2.930   2.784   5.653
 5364TIP3   OH216055   2.782   2.629   3.891
 5364TIP3    H116056   2.782   2.650   3.986
 5364TIP3    H216057   2.778   2.532   3.892
 5365TIP3   OH216058   3.398   2.887   5.278
 5365TIP3    H116059   3.471   2.927   5.228
 5365TIP3    H216060   3.328   2.953   5.263
 5366TIP3   OH216061   2.414   2.525   5.881
 5366TIP3    H116062   2.493   2.480   5.849
 5366TIP3    H216063   2.445   2.559   5.968
 5367TIP3   OH216064   2.476   2.347   4.307
 5367TIP3    H116065   2.453   2.314   4.396
 5367TIP3    H216066   2.517   2.270   4.263
 5368TIP3   OH216067   2.755   2.409   5.539
 5368TIP3    H116068   2.673   2.463   5.537
 5368TIP3    H216069   2.804   2.443   5.461
 5369TIP3   OH216070   2.580   2.133   4.151
 5369TIP3    H116071   2.556   2.151   4.058
 5369TIP3    H216072   2.677   2.139   4.145
 5370TIP3   OH216073   3.268   2.809   5.673
 5370TIP3    H116074   3.338   2.771   5.617
 5370TIP3    H216075   3.260   2.743   5.744
 5371TIP3   OH216076   3.406   2.459   3.816
 5371TIP3    H116077   3.382   2.418   3.730
 5371TIP3    H216078   3.373   2.550   3.798
 5372TIP3   OH216079   2.877   2.197   5.658
 5372TIP3    H116080   2.874   2.120   5.599
 5372TIP3    H216081   2.832   2.266   5.604
 5373TIP3   OH216082   2.877   1.981   5.471
 5373TIP3    H116083   2.904   2.026   5.388
 5373TIP3    H216084   2.783   1.960   5.452
 5374TIP3   OH216085   2.900   2.516   5.342
 5374TIP3    H116086   2.986   2.538   5.303
 5374TIP3    H216087   2.841   2.580   5.296
 5375TIP3   OH216088   3.479   2.481   5.719
 5375TIP3    H116089   3.533   2.401   5.734
 5375TIP3    H216090   3.545   2.543   5.684
 5376TIP3   OH216091   3.523   2.736   5.462
 5376TIP3    H116092   3.465   2.792   5.404
 5376TIP3    H216093   3.610   2.758   5.423
 5377TIP3   OH216094   2.756   2.298   5.898
 5377TIP3    H116095   2.686   2.231   5.913
 5377TIP3    H216096   2.785   2.276   5.807
 5378TIP3   OH216097   3.007   1.742   5.542
 5378TIP3    H116098   2.957   1.824   5.517
 5378TIP3    H216099   2.938   1.673   5.530
 5379TIP3   OH216100   3.135   2.242   5.755
 5379TIP3    H116101   3.115   2.229   5.849
 5379TIP3    H216102   3.046   2.222   5.717
 5380TIP3   OH216103   3.369   2.192   5.608
 5380TIP3    H116104   3.295   2.198   5.672
 5380TIP3    H216105   3.444   2.166   5.666
 5381TIP3   OH216106   3.607   2.141   5.757
 5381TIP3    H116107   3.616   2.045   5.774
 5381TIP3    H216108   3.599   2.178   5.848
 5382TIP3   OH216109   2.589   2.081   5.951
 5382TIP3    H116110   2.593   1.988   5.919
 5382TIP3    H216111   2.626   2.071   6.041
 5383TIP3   OH216112   3.100   1.752   5.800
 5383TIP3    H116113   3.165   1.680   5.791
 5383TIP3    H216114   3.059   1.750   5.711
 5384TIP3   OH216115   3.168   1.968   5.958
 5384TIP3    H116116   3.146   1.897   5.893
 5384TIP3    H216117   3.090   2.027   5.951
 5385TIP3   OH216118   1.869   2.580   4.270
 5385TIP3    H116119   1.964   2.602   4.255
 5385TIP3    H216120   1.863   2.493   4.227
 5386TIP3   OH216121   1.779   3.191   4.690
 5386TIP3    H116122   1.715   3.128   4.649
 5386TIP3    H216123   1.826   3.131   4.752
 5387TIP3   OH216124   1.925   3.033   4.867
 5387TIP3    H116125   1.908   2.968   4.938
 5387TIP3    H216126   1.974   3.101   4.917
 5388TIP3   OH216127   3.655   3.434   4.673
 5388TIP3    H116128   3.678   3.472   4.760
 5388TIP3    H216129   3.713   3.482   4.613
 5389TIP3   OH216130   3.673   3.462   4.958
 5389TIP3    H116131   3.624   3.378   4.947
 5389TIP3    H216132   3.747   3.431   5.013
 5390TIP3   OH216133   3.726   3.137   5.531
 5390TIP3    H116134   3.652   3.148   5.595
 5390TIP3    H216135   3.766   3.226   5.533
 5391TIP3   OH216136   3.540   2.658   4.144
 5391TIP3    H116137   3.516   2.747   4.175
 5391TIP3    H216138   3.584   2.619   4.223
 5392TIP3   OH216139   3.665   2.526   4.349
 5392TIP3    H116140   3.599   2.484   4.408
 5392TIP3    H216141   3.728   2.566   4.413
 5393TIP3   OH216142   3.546   3.210   4.967
 5393TIP3    H116143   3.471   3.254   5.012
 5393TIP3    H216144   3.507   3.184   4.882
 5394TIP3   OH216145   3.607   2.427   3.995
 5394TIP3    H116146   3.535   2.426   3.926
 5394TIP3    H216147   3.578   2.506   4.046
 5395TIP3   OH216148   3.480   2.097   3.948
 5395TIP3    H116149   3.428   2.139   3.878
 5395TIP3    H216150   3.455   2.003   3.936
 5396TIP3   OH216151   3.483   2.377   4.488
 5396TIP3    H116152   3.486   2.281   4.481
 5396TIP3    H216153   3.468   2.390   4.585
 5397TIP3   OH216154   2.106   2.436   5.250
 5397TIP3    H116155   2.100   2.410   5.155
 5397TIP3    H216156   2.203   2.443   5.261
 5398TIP3   OH216157   3.770   2.802   5.357
 5398TIP3    H116158   3.841   2.736   5.340
 5398TIP3    H216159   3.785   2.868   5.288
 5399TIP3   OH216160   3.954   2.599   5.354
 5399TIP3    H116161   3.878   2.554   5.398
 5399TIP3    H216162   4.025   2.536   5.374
 5400TIP3   OH216163   3.418   1.831   3.932
 5400TIP3    H116164   3.487   1.799   3.993
 5400TIP3    H216165   3.341   1.775   3.951
 5401TIP3   OH216166   3.478   2.094   4.388
 5401TIP3    H116167   3.519   2.005   4.401
 5401TIP3    H216168   3.535   2.128   4.316
 5402TIP3   OH216169   3.643   2.254   4.892
 5402TIP3    H116170   3.724   2.287   4.849
 5402TIP3    H216171   3.650   2.301   4.978
 5403TIP3   OH216172   3.707   2.412   5.114
 5403TIP3    H116173   3.629   2.443   5.164
 5403TIP3    H216174   3.737   2.497   5.074
 5404TIP3   OH216175   2.323   2.131   5.913
 5404TIP3    H116176   2.421   2.129   5.921
 5404TIP3    H216177   2.300   2.045   5.953
 5405TIP3   OH216178   4.162   2.007   5.671
 5405TIP3    H116179   4.222   1.942   5.627
 5405TIP3    H216180   4.127   2.057   5.594
 5406TIP3   OH216181   3.587   1.843   4.426
 5406TIP3    H116182   3.632   1.827   4.512
 5406TIP3    H216183   3.524   1.769   4.425
 5407TIP3   OH216184   2.286   1.828   5.245
 5407TIP3    H116185   2.348   1.753   5.254
 5407TIP3    H216186   2.347   1.903   5.239
 5408TIP3   OH216187   2.086   2.099   5.322
 5408TIP3    H116188   2.135   2.102   5.237
 5408TIP3    H216189   2.101   2.188   5.356
 5409TIP3   OH216190   4.026   2.138   5.477
 5409TIP3    H116191   3.944   2.185   5.503
 5409TIP3    H216192   3.987   2.069   5.419
 5410TIP3   OH216193   3.664   1.771   4.067
 5410TIP3    H116194   3.701   1.705   4.005
 5410TIP3    H216195   3.728   1.845   4.060
 5411TIP3   OH216196   2.070   1.602   4.815
 5411TIP3    H116197   1.980   1.597   4.851
 5411TIP3    H216198   2.058   1.664   4.740
 5412TIP3   OH216199   3.239   3.310   4.334
 5412TIP3    H116200   3.285   3.306   4.248
 5412TIP3    H216201   3.286   3.383   4.378
 5413TIP3   OH216202   2.292   1.679   5.634
 5413TIP3    H116203   2.241   1.681   5.717
 5413TIP3    H216204   2.228   1.722   5.573
 5414TIP3   OH216205   2.332   3.111   5.712
 5414TIP3    H116206   2.237   3.093   5.695
 5414TIP3    H216207   2.337   3.097   5.807
 5415TIP3   OH216208   2.516   3.151   5.262
 5415TIP3    H116209   2.465   3.225   5.222
 5415TIP3    H216210   2.600   3.167   5.215
 5416TIP3   OH216211   2.949   3.386   5.399
 5416TIP3    H116212   2.992   3.389   5.487
 5416TIP3    H216213   3.011   3.441   5.347
 5417TIP3   OH216214   3.124   3.547   5.264
 5417TIP3    H116215   3.186   3.500   5.207
 5417TIP3    H216216   3.184   3.599   5.321
 5418TIP3   OH216217   3.929   1.902   5.355
 5418TIP3    H116218   3.838   1.895   5.320
 5418TIP3    H216219   3.959   1.809   5.347
 5419TIP3   OH216220   2.184   3.402   5.287
 5419TIP3    H116221   2.095   3.435   5.261
 5419TIP3    H216222   2.195   3.449   5.371
 5420TIP3   OH216223   2.422   3.381   5.145
 5420TIP3    H116224   2.334   3.394   5.187
 5420TIP3    H216225   2.405   3.414   5.054
 5421TIP3   OH216226   2.852   3.405   4.946
 5421TIP3    H116227   2.780   3.419   4.881
 5421TIP3    H216228   2.862   3.496   4.981
 5422TIP3   OH216229   3.125   3.356   5.007
 5422TIP3    H116230   3.029   3.359   4.985
 5422TIP3    H216231   3.160   3.420   4.943
 5423TIP3   OH216232   3.330   3.556   4.919
 5423TIP3    H116233   3.307   3.635   4.865
 5423TIP3    H216234   3.355   3.492   4.848
 5424TIP3   OH216235   2.096   3.195   5.028
 5424TIP3    H116236   2.123   3.166   5.118
 5424TIP3    H216237   2.168   3.154   4.975
 5425TIP3   OH216238   2.291   3.068   4.889
 5425TIP3    H116239   2.306   2.986   4.940
 5425TIP3    H216240   2.382   3.105   4.884
 5426TIP3   OH216241   2.557   3.153   4.895
 5426TIP3    H116242   2.590   3.061   4.892
 5426TIP3    H216243   2.606   3.186   4.973
 5427TIP3   OH216244   3.139   1.819   4.985
 5427TIP3    H116245   3.091   1.748   5.032
 5427TIP3    H216246   3.209   1.770   4.939
 5428TIP3   OH216247   3.653   1.698   4.880
 5428TIP3    H116248   3.687   1.751   4.805
 5428TIP3    H216249   3.557   1.718   4.876
 5429TIP3   OH216250   3.749   1.795   4.644
 5429TIP3    H116251   3.824   1.745   4.605
 5429TIP3    H216252   3.783   1.887   4.632
 5430TIP3   OH216253   2.380   1.525   4.990
 5430TIP3    H116254   2.288   1.493   4.996
 5430TIP3    H216255   2.428   1.439   4.986
 5431TIP3   OH216256   2.171   1.400   4.646
 5431TIP3    H116257   2.194   1.461   4.575
 5431TIP3    H216258   2.140   1.463   4.715
 5432TIP3   OH216259   2.829   1.555   4.874
 5432TIP3    H116260   2.884   1.605   4.811
 5432TIP3    H216261   2.850   1.600   4.957
 5433TIP3   OH216262   3.371   1.706   4.855
 5433TIP3    H116263   3.368   1.666   4.768
 5433TIP3    H216264   3.359   1.627   4.914
 5434TIP3   OH216265   3.402   1.633   4.421
 5434TIP3    H116266   3.317   1.678   4.441
 5434TIP3    H216267   3.386   1.546   4.464
 5435TIP3   OH216268   1.886   2.971   4.419
 5435TIP3    H116269   1.798   2.941   4.388
 5435TIP3    H216270   1.880   3.066   4.396
 5436TIP3   OH216271   2.299   1.574   4.380
 5436TIP3    H116272   2.341   1.491   4.353
 5436TIP3    H216273   2.373   1.618   4.428
 5437TIP3   OH216274   2.800   1.734   4.498
 5437TIP3    H116275   2.856   1.686   4.562
 5437TIP3    H216276   2.820   1.827   4.526
 5438TIP3   OH216277   3.369   3.282   4.088
 5438TIP3    H116278   3.375   3.183   4.083
 5438TIP3    H216279   3.288   3.298   4.038
 5439TIP3   OH216280   2.588   1.806   5.883
 5439TIP3    H116281   2.550   1.736   5.939
 5439TIP3    H216282   2.681   1.805   5.913
 5440TIP3   OH216283   2.838   1.804   6.002
 5440TIP3    H116284   2.924   1.780   5.964
 5440TIP3    H216285   2.826   1.734   6.070
 5441TIP3   OH216286   1.960   2.984   4.054
 5441TIP3    H116287   1.971   3.012   4.146
 5441TIP3    H216288   2.049   2.946   4.034
 5442TIP3   OH216289   3.666   1.868   5.789
 5442TIP3    H116290   3.682   1.838   5.882
 5442TIP3    H216291   3.756   1.862   5.751
 5443TIP3   OH216292   3.599   3.417   5.282
 5443TIP3    H116293   3.523   3.386   5.228
 5443TIP3    H216294   3.579   3.512   5.288
 5444TIP3   OH216295   4.865   2.787   4.049
 5444TIP3    H116296   4.838   2.878   4.026
 5444TIP3    H216297   4.792   2.738   4.006
 5445TIP3   OH216298   4.874   2.797   4.430
 5445TIP3    H116299   4.903   2.774   4.520
 5445TIP3    H216300   4.831   2.715   4.401
 5446TIP3   OH216301   4.185   2.687   4.801
 5446TIP3    H116302   4.182   2.705   4.896
 5446TIP3    H216303   4.262   2.739   4.774
 5447TIP3   OH216304   5.115   3.090   4.113
 5447TIP3    H116305   5.097   3.033   4.189
 5447TIP3    H216306   5.140   3.173   4.156
 5448TIP3   OH216307   4.147   3.098   4.516
 5448TIP3    H116308   4.135   3.001   4.522
 5448TIP3    H216309   4.243   3.105   4.504
 5449TIP3   OH216310   3.845   2.296   4.304
 5449TIP3    H116311   3.802   2.381   4.324
 5449TIP3    H216312   3.774   2.251   4.255
 5450TIP3   OH216313   3.914   2.584   4.460
 5450TIP3    H116314   3.945   2.514   4.520
 5450TIP3    H216315   3.997   2.614   4.421
 5451TIP3   OH216316   4.765   3.558   4.129
 5451TIP3    H116317   4.804   3.489   4.069
 5451TIP3    H216318   4.755   3.507   4.210
 5452TIP3   OH216319   4.666   3.015   4.479
 5452TIP3    H116320   4.713   2.945   4.431
 5452TIP3    H216321   4.745   3.066   4.509
 5453TIP3   OH216322   5.682   2.336   4.478
 5453TIP3    H116323   5.711   2.419   4.521
 5453TIP3    H216324   5.710   2.353   4.386
 5454TIP3   OH216325   5.061   2.509   4.511
 5454TIP3    H116326   5.115   2.430   4.529
 5454TIP3    H216327   5.040   2.497   4.417
 5455TIP3   OH216328   4.413   2.184   4.494
 5455TIP3    H116329   4.392   2.254   4.429
 5455TIP3    H216330   4.368   2.109   4.450
 5456TIP3   OH216331   5.115   2.278   4.096
 5456TIP3    H116332   5.188   2.265   4.161
 5456TIP3    H216333   5.164   2.313   4.019
 5457TIP3   OH216334   4.049   2.377   4.581
 5457TIP3    H116335   4.112   2.326   4.633
 5457TIP3    H216336   4.055   2.328   4.496
 5458TIP3   OH216337   4.496   2.574   4.374
 5458TIP3    H116338   4.589   2.548   4.383
 5458TIP3    H216339   4.454   2.492   4.340
 5459TIP3   OH216340   5.751   2.543   4.655
 5459TIP3    H116341   5.670   2.595   4.635
 5459TIP3    H216342   5.788   2.593   4.730
 5460TIP3   OH216343   4.760   3.004   3.905
 5460TIP3    H116344   4.726   2.997   3.814
 5460TIP3    H216345   4.752   3.099   3.920
 5461TIP3   OH216346   4.519   2.932   4.701
 5461TIP3    H116347   4.461   3.002   4.737
 5461TIP3    H216348   4.562   2.978   4.626
 5462TIP3   OH216349   5.318   2.281   4.275
 5462TIP3    H116350   5.299   2.244   4.362
 5462TIP3    H216351   5.372   2.359   4.299
 5463TIP3   OH216352   4.344   2.329   4.749
 5463TIP3    H116353   4.340   2.408   4.691
 5463TIP3    H216354   4.371   2.263   4.681
 5464TIP3   OH216355   4.353   3.134   4.801
 5464TIP3    H116356   4.329   3.221   4.763
 5464TIP3    H216357   4.271   3.119   4.854
 5465TIP3   OH216358   5.181   3.339   4.274
 5465TIP3    H116359   5.092   3.330   4.315
 5465TIP3    H216360   5.171   3.425   4.229
 5466TIP3   OH216361   5.476   2.226   4.635
 5466TIP3    H116362   5.392   2.264   4.605
 5466TIP3    H216363   5.541   2.265   4.573
 5467TIP3   OH216364   4.766   1.872   4.628
 5467TIP3    H116365   4.752   1.776   4.643
 5467TIP3    H216366   4.688   1.908   4.675
 5468TIP3   OH216367   4.906   3.384   3.973
 5468TIP3    H116368   4.939   3.301   3.934
 5468TIP3    H216369   4.940   3.448   3.908
 5469TIP3   OH216370   5.029   3.163   3.858
 5469TIP3    H116371   5.003   3.083   3.810
 5469TIP3    H216372   5.064   3.126   3.942
 5470TIP3   OH216373   5.405   3.247   4.622
 5470TIP3    H116374   5.394   3.172   4.561
 5470TIP3    H216375   5.386   3.324   4.564
 5471TIP3   OH216376   4.699   2.644   3.881
 5471TIP3    H116377   4.621   2.701   3.862
 5471TIP3    H216378   4.743   2.644   3.795
 5472TIP3   OH216379   4.660   2.427   3.593
 5472TIP3    H116380   4.723   2.485   3.639
 5472TIP3    H216381   4.721   2.366   3.547
 5473TIP3   OH216382   5.600   2.885   4.467
 5473TIP3    H116383   5.518   2.938   4.470
 5473TIP3    H216384   5.634   2.912   4.379
 5474TIP3   OH216385   5.046   2.724   3.851
 5474TIP3    H116386   4.992   2.749   3.929
 5474TIP3    H216387   5.133   2.706   3.894
 5475TIP3   OH216388   5.281   2.763   4.772
 5475TIP3    H116389   5.283   2.844   4.826
 5475TIP3    H216390   5.199   2.777   4.721
 5476TIP3   OH216391   4.280   2.710   4.275
 5476TIP3    H116392   4.271   2.655   4.196
 5476TIP3    H216393   4.362   2.672   4.314
 5477TIP3   OH216394   4.409   3.127   4.417
 5477TIP3    H116395   4.394   3.106   4.323
 5477TIP3    H216396   4.498   3.090   4.433
 5478TIP3   OH216397   4.430   2.678   4.628
 5478TIP3    H116398   4.462   2.659   4.538
 5478TIP3    H216399   4.467   2.767   4.646
 5479TIP3   OH216400   4.945   3.331   4.404
 5479TIP3    H116401   4.927   3.416   4.450
 5479TIP3    H216402   4.922   3.264   4.470
 5480TIP3   OH216403   4.555   3.249   4.949
 5480TIP3    H116404   4.492   3.310   4.994
 5480TIP3    H216405   4.492   3.197   4.895
 5481TIP3   OH216406   4.885   2.583   3.677
 5481TIP3    H116407   4.942   2.647   3.724
 5481TIP3    H216408   4.910   2.601   3.583
 5482TIP3   OH216409   4.305   2.800   5.047
 5482TIP3    H116410   4.317   2.891   5.081
 5482TIP3    H216411   4.217   2.780   5.085
 5483TIP3   OH216412   4.349   3.414   5.035
 5483TIP3    H116413   4.314   3.422   4.944
 5483TIP3    H216414   4.267   3.392   5.086
 5484TIP3   OH216415   5.206   3.193   3.275
 5484TIP3    H116416   5.219   3.288   3.257
 5484TIP3    H216417   5.298   3.159   3.263
 5485TIP3   OH216418   3.930   2.945   4.978
 5485TIP3    H116419   3.865   2.927   4.908
 5485TIP3    H216420   3.963   2.856   4.999
 5486TIP3   OH216421   3.813   3.176   4.566
 5486TIP3    H116422   3.896   3.176   4.616
 5486TIP3    H216423   3.747   3.186   4.635
 5487TIP3   OH216424   5.645   3.599   4.673
 5487TIP3    H116425   5.643   3.502   4.687
 5487TIP3    H216426   5.561   3.625   4.717
 5488TIP3   OH216427   4.751   3.376   4.806
 5488TIP3    H116428   4.747   3.469   4.836
 5488TIP3    H216429   4.679   3.336   4.859
 5489TIP3   OH216430   3.952   3.354   4.140
 5489TIP3    H116431   4.002   3.348   4.224
 5489TIP3    H216432   3.871   3.305   4.164
 5490TIP3   OH216433   5.534   2.721   4.950
 5490TIP3    H116434   5.453   2.733   4.899
 5490TIP3    H216435   5.549   2.625   4.942
 5491TIP3   OH216436   4.132   3.132   4.963
 5491TIP3    H116437   4.179   3.119   5.047
 5491TIP3    H216438   4.057   3.069   4.971
 5492TIP3   OH216439   4.530   1.960   4.748
 5492TIP3    H116440   4.441   1.921   4.735
 5492TIP3    H216441   4.514   2.049   4.712
 5493TIP3   OH216442   5.068   2.067   4.953
 5493TIP3    H116443   5.138   2.041   5.015
 5493TIP3    H216444   4.986   2.050   5.004
 5494TIP3   OH216445   5.289   2.496   4.857
 5494TIP3    H116446   5.245   2.497   4.945
 5494TIP3    H216447   5.278   2.588   4.827
 5495TIP3   OH216448   4.962   2.618   3.421
 5495TIP3    H116449   4.927   2.601   3.332
 5495TIP3    H216450   5.042   2.670   3.399
 5496TIP3   OH216451   4.677   1.998   3.727
 5496TIP3    H116452   4.637   1.996   3.815
 5496TIP3    H216453   4.633   1.920   3.687
 5497TIP3   OH216454   4.345   2.355   4.288
 5497TIP3    H116455   4.252   2.329   4.305
 5497TIP3    H216456   4.358   2.315   4.199
 5498TIP3   OH216457   4.836   2.443   4.015
 5498TIP3    H116458   4.786   2.516   3.970
 5498TIP3    H216459   4.891   2.410   3.941
 5499TIP3   OH216460   5.013   2.715   5.091
 5499TIP3    H116461   4.993   2.646   5.158
 5499TIP3    H216462   5.105   2.738   5.115
 5500TIP3   OH216463   4.984   2.471   4.251
 5500TIP3    H116464   4.929   2.504   4.176
 5500TIP3    H216465   5.021   2.393   4.206
 5501TIP3   OH216466   4.335   1.980   3.692
 5501TIP3    H116467   4.319   1.979   3.788
 5501TIP3    H216468   4.258   2.032   3.660
 5502TIP3   OH216469   3.881   2.016   4.567
 5502TIP3    H116470   3.961   2.060   4.602
 5502TIP3    H216471   3.906   1.991   4.477
 5503TIP3   OH216472   3.838   2.002   4.082
 5503TIP3    H116473   3.882   2.038   4.002
 5503TIP3    H216474   3.777   2.075   4.101
 5504TIP3   OH216475   4.987   2.710   4.675
 5504TIP3    H116476   5.025   2.640   4.617
 5504TIP3    H216477   4.963   2.656   4.752
 5505TIP3   OH216478   4.679   2.171   4.344
 5505TIP3    H116479   4.597   2.179   4.395
 5505TIP3    H216480   4.748   2.178   4.412
 5506TIP3   OH216481   4.105   2.237   4.351
 5506TIP3    H116482   4.012   2.250   4.322
 5506TIP3    H216483   4.121   2.144   4.330
 5507TIP3   OH216484   4.374   2.234   4.044
 5507TIP3    H116485   4.467   2.247   4.016
 5507TIP3    H216486   4.324   2.254   3.962
 5508TIP3   OH216487   5.165   2.254   4.546
 5508TIP3    H116488   5.138   2.268   4.640
 5508TIP3    H216489   5.094   2.195   4.517
 5509TIP3   OH216490   4.229   2.272   3.820
 5509TIP3    H116491   4.158   2.224   3.774
 5509TIP3    H216492   4.280   2.307   3.744
 5510TIP3   OH216493   5.341   3.945   4.770
 5510TIP3    H116494   5.336   3.971   4.676
 5510TIP3    H216495   5.420   3.994   4.800
 5511TIP3   OH216496   4.296   3.051   5.187
 5511TIP3    H116497   4.374   3.083   5.236
 5511TIP3    H216498   4.230   3.051   5.258
 5512TIP3   OH216499   4.763   2.501   4.433
 5512TIP3    H116500   4.827   2.481   4.362
 5512TIP3    H216501   4.815   2.481   4.512
 5513TIP3   OH216502   4.286   1.994   4.334
 5513TIP3    H116503   4.243   1.919   4.381
 5513TIP3    H216504   4.311   1.952   4.251
 5514TIP3   OH216505   4.686   2.414   4.814
 5514TIP3    H116506   4.658   2.482   4.751
 5514TIP3    H216507   4.773   2.449   4.841
 5515TIP3   OH216508   4.470   2.795   3.830
 5515TIP3    H116509   4.396   2.732   3.816
 5515TIP3    H216510   4.447   2.830   3.919
 5516TIP3   OH216511   5.368   3.031   4.454
 5516TIP3    H116512   5.392   3.085   4.375
 5516TIP3    H216513   5.283   2.990   4.426
 5517TIP3   OH216514   4.930   2.097   3.709
 5517TIP3    H116515   4.833   2.078   3.709
 5517TIP3    H216516   4.934   2.194   3.722
 5518TIP3   OH216517   4.860   3.110   4.833
 5518TIP3    H116518   4.906   3.110   4.918
 5518TIP3    H216519   4.826   3.202   4.828
 5519TIP3   OH216520   4.994   2.359   3.800
 5519TIP3    H116521   5.090   2.370   3.807
 5519TIP3    H216522   4.968   2.438   3.747
 5520TIP3   OH216523   4.168   2.814   4.509
 5520TIP3    H116524   4.202   2.782   4.423
 5520TIP3    H216525   4.205   2.751   4.572
 5521TIP3   OH216526   4.621   2.968   3.649
 5521TIP3    H116527   4.591   3.061   3.641
 5521TIP3    H216528   4.556   2.926   3.707
 5522TIP3   OH216529   4.048   2.721   5.111
 5522TIP3    H116530   4.053   2.711   5.208
 5522TIP3    H216531   3.965   2.673   5.093
 5523TIP3   OH216532   4.776   2.855   5.129
 5523TIP3    H116533   4.726   2.818   5.054
 5523TIP3    H216534   4.865   2.821   5.109
 5524TIP3   OH216535   5.025   3.364   4.733
 5524TIP3    H116536   4.929   3.372   4.742
 5524TIP3    H216537   5.055   3.422   4.805
 5525TIP3   OH216538   5.427   2.453   3.636
 5525TIP3    H116539   5.371   2.409   3.569
 5525TIP3    H216540   5.426   2.543   3.595
 5526TIP3   OH216541   5.656   3.306   4.711
 5526TIP3    H116542   5.558   3.301   4.701
 5526TIP3    H216543   5.683   3.276   4.621
 5527TIP3   OH216544   5.155   3.272   3.545
 5527TIP3    H116545   5.104   3.215   3.605
 5527TIP3    H216546   5.156   3.220   3.462
 5528TIP3   OH216547   5.135   2.896   4.374
 5528TIP3    H116548   5.040   2.875   4.385
 5528TIP3    H216549   5.165   2.817   4.326
 5529TIP3   OH216550   4.265   3.126   4.126
 5529TIP3    H116551   4.271   3.204   4.068
 5529TIP3    H216552   4.174   3.136   4.156
 5530TIP3   OH216553   3.825   2.422   3.831
 5530TIP3    H116554   3.822   2.514   3.800
 5530TIP3    H216555   3.751   2.421   3.896
 5531TIP3   OH216556   4.386   2.884   4.072
 5531TIP3    H116557   4.355   2.976   4.083
 5531TIP3    H216558   4.359   2.845   4.157
 5532TIP3   OH216559   4.534   3.466   4.595
 5532TIP3    H116560   4.574   3.540   4.545
 5532TIP3    H216561   4.612   3.432   4.642
 5533TIP3   OH216562   4.192   3.359   3.991
 5533TIP3    H116563   4.102   3.371   4.027
 5533TIP3    H216564   4.224   3.452   3.995
 5534TIP3   OH216565   4.913   3.097   4.564
 5534TIP3    H116566   4.904   3.094   4.662
 5534TIP3    H216567   5.000   3.058   4.552
 5535TIP3   OH216568   4.899   3.000   3.438
 5535TIP3    H116569   4.944   2.971   3.521
 5535TIP3    H216570   4.806   2.987   3.461
 5536TIP3   OH216571   5.166   3.630   4.603
 5536TIP3    H116572   5.082   3.581   4.593
 5536TIP3    H216573   5.155   3.698   4.532
 5537TIP3   OH216574   5.227   3.474   3.256
 5537TIP3    H116575   5.224   3.523   3.172
 5537TIP3    H216576   5.138   3.492   3.289
 5538TIP3   OH216577   4.281   2.265   5.083
 5538TIP3    H116578   4.190   2.271   5.120
 5538TIP3    H216579   4.321   2.205   5.148
 5539TIP3   OH216580   5.057   2.927   3.661
 5539TIP3    H116581   5.049   2.858   3.730
 5539TIP3    H216582   5.153   2.924   3.644
 5540TIP3   OH216583   3.982   3.324   4.757
 5540TIP3    H116584   4.037   3.259   4.806
 5540TIP3    H216585   3.997   3.404   4.808
 5541TIP3   OH216586   4.223   2.970   3.433
 5541TIP3    H116587   4.269   2.889   3.407
 5541TIP3    H216588   4.234   2.968   3.530
 5542TIP3   OH216589   4.226   2.974   3.709
 5542TIP3    H116590   4.300   2.972   3.770
 5542TIP3    H216591   4.203   3.071   3.713
 5543TIP3   OH216592   5.093   2.302   4.805
 5543TIP3    H116593   5.171   2.352   4.837
 5543TIP3    H216594   5.088   2.226   4.867
 5544TIP3   OH216595   4.969   2.058   3.989
 5544TIP3    H116596   4.960   2.066   3.892
 5544TIP3    H216597   5.006   2.146   4.013
 5545TIP3   OH216598   4.661   2.239   4.075
 5545TIP3    H116599   4.722   2.313   4.056
 5545TIP3    H216600   4.665   2.234   4.172
 5546TIP3   OH216601   4.929   2.544   4.888
 5546TIP3    H116602   4.955   2.606   4.959
 5546TIP3    H216603   4.996   2.473   4.898
 5547TIP3   OH216604   4.799   1.961   4.180
 5547TIP3    H116605   4.777   2.044   4.227
 5547TIP3    H216606   4.860   1.996   4.110
 5548TIP3   OH216607   4.179   3.235   3.741
 5548TIP3    H116608   4.202   3.296   3.670
 5548TIP3    H216609   4.195   3.288   3.821
 5549TIP3   OH216610   4.313   1.968   3.969
 5549TIP3    H116611   4.310   2.058   4.005
 5549TIP3    H216612   4.410   1.951   3.974
 5550TIP3   OH216613   5.560   2.457   4.873
 5550TIP3    H116614   5.463   2.449   4.864
 5550TIP3    H216615   5.590   2.436   4.784
 5551TIP3   OH216616   5.218   2.651   4.254
 5551TIP3    H116617   5.143   2.590   4.265
 5551TIP3    H216618   5.291   2.605   4.301
 5552TIP3   OH216619   3.936   2.881   3.748
 5552TIP3    H116620   3.983   2.962   3.721
 5552TIP3    H216621   3.977   2.819   3.682
 5553TIP3   OH216622   3.874   2.150   3.857
 5553TIP3    H116623   3.879   2.248   3.858
 5553TIP3    H216624   3.797   2.135   3.800
 5554TIP3   OH216625   5.192   3.610   4.203
 5554TIP3    H116626   5.146   3.654   4.127
 5554TIP3    H216627   5.285   3.628   4.178
 5555TIP3   OH216628   4.269   1.875   4.726
 5555TIP3    H116629   4.238   1.841   4.640
 5555TIP3    H216630   4.256   1.797   4.784
 5556TIP3   OH216631   3.806   3.062   4.109
 5556TIP3    H116632   3.758   3.105   4.195
 5556TIP3    H216633   3.759   3.125   4.035
 5557TIP3   OH216634   3.963   3.645   5.180
 5557TIP3    H116635   4.050   3.644   5.226
 5557TIP3    H216636   3.941   3.550   5.178
 5558TIP3   OH216637   4.438   3.594   5.228
 5558TIP3    H116638   4.534   3.581   5.228
 5558TIP3    H216639   4.412   3.532   5.156
 5559TIP3   OH216640   5.080   3.509   4.961
 5559TIP3    H116641   5.075   3.439   5.030
 5559TIP3    H216642   5.157   3.561   4.989
 5560TIP3   OH216643   4.853   3.226   3.251
 5560TIP3    H116644   4.882   3.170   3.324
 5560TIP3    H216645   4.916   3.205   3.179
 5561TIP3   OH216646   4.090   3.046   5.378
 5561TIP3    H116647   4.103   2.950   5.387
 5561TIP3    H216648   4.003   3.050   5.333
 5562TIP3   OH216649   4.066   2.695   3.581
 5562TIP3    H116650   4.132   2.677   3.650
 5562TIP3    H216651   4.126   2.705   3.504
 5563TIP3   OH216652   4.698   3.134   5.155
 5563TIP3    H116653   4.657   3.159   5.069
 5563TIP3    H216654   4.729   3.043   5.139
 5564TIP3   OH216655   4.580   2.891   3.374
 5564TIP3    H116656   4.580   2.915   3.469
 5564TIP3    H216657   4.581   2.793   3.378
 5565TIP3   OH216658   5.189   3.143   4.760
 5565TIP3    H116659   5.267   3.182   4.717
 5565TIP3    H216660   5.124   3.215   4.747
 5566TIP3   OH216661   4.211   2.785   5.365
 5566TIP3    H116662   4.285   2.729   5.340
 5566TIP3    H216663   4.240   2.818   5.452
 5567TIP3   OH216664   4.279   2.584   3.804
 5567TIP3    H116665   4.242   2.511   3.854
 5567TIP3    H216666   4.323   2.535   3.732
 5568TIP3   OH216667   4.510   2.615   4.984
 5568TIP3    H116668   4.445   2.687   5.002
 5568TIP3    H216669   4.576   2.665   4.931
 5569TIP3   OH216670   4.382   2.398   3.630
 5569TIP3    H116671   4.356   2.407   3.536
 5569TIP3    H216672   4.480   2.397   3.623
 5570TIP3   OH216673   5.059   3.061   5.156
 5570TIP3    H116674   5.142   3.039   5.113
 5570TIP3    H216675   5.059   3.000   5.232
 5571TIP3   OH216676   5.197   2.718   3.306
 5571TIP3    H116677   5.178   2.678   3.218
 5571TIP3    H216678   5.165   2.810   3.287
 5572TIP3   OH216679   4.671   2.459   5.142
 5572TIP3    H116680   4.713   2.404   5.075
 5572TIP3    H216681   4.618   2.519   5.086
 5573TIP3   OH216682   4.692   2.772   4.845
 5573TIP3    H116683   4.777   2.796   4.805
 5573TIP3    H216684   4.632   2.832   4.795
 5574TIP3   OH216685   5.278   2.740   5.204
 5574TIP3    H116686   5.335   2.664   5.223
 5574TIP3    H216687   5.342   2.805   5.171
 5575TIP3   OH216688   5.320   2.990   4.940
 5575TIP3    H116689   5.261   3.047   4.885
 5575TIP3    H216690   5.407   3.016   4.904
 5576TIP3   OH216691   4.548   2.554   5.386
 5576TIP3    H116692   4.477   2.491   5.407
 5576TIP3    H216693   4.574   2.526   5.296
 5577TIP3   OH216694   4.796   2.001   5.023
 5577TIP3    H116695   4.749   2.059   4.963
 5577TIP3    H216696   4.736   1.924   5.024
 5578TIP3   OH216697   4.935   2.505   5.249
 5578TIP3    H116698   4.935   2.498   5.346
 5578TIP3    H216699   4.840   2.489   5.231
 5579TIP3   OH216700   5.161   2.447   5.091
 5579TIP3    H116701   5.092   2.456   5.159
 5579TIP3    H216702   5.239   2.423   5.146
 5580TIP3   OH216703   5.381   2.388   5.244
 5580TIP3    H116704   5.406   2.297   5.267
 5580TIP3    H216705   5.386   2.435   5.330
 5581TIP3   OH216706   4.386   2.335   5.438
 5581TIP3    H116707   4.386   2.241   5.411
 5581TIP3    H216708   4.424   2.328   5.528
 5582TIP3   OH216709   4.900   2.014   5.281
 5582TIP3    H116710   4.958   1.936   5.274
 5582TIP3    H216711   4.854   2.011   5.195
 5583TIP3   OH216712   4.965   2.225   5.444
 5583TIP3    H116713   4.943   2.157   5.376
 5583TIP3    H216714   4.886   2.283   5.440
 5584TIP3   OH216715   3.670   2.821   3.773
 5584TIP3    H116716   3.757   2.853   3.743
 5584TIP3    H216717   3.656   2.745   3.712
 5585TIP3   OH216718   3.593   3.436   4.147
 5585TIP3    H116719   3.511   3.389   4.121
 5585TIP3    H216720   3.622   3.383   4.224
 5586TIP3   OH216721   3.721   3.295   4.343
 5586TIP3    H116722   3.716   3.226   4.413
 5586TIP3    H216723   3.767   3.362   4.397
 5587TIP3   OH216724   5.449   3.692   4.162
 5587TIP3    H116725   5.471   3.727   4.251
 5587TIP3    H216726   5.508   3.742   4.105
 5588TIP3   OH216727   5.470   3.718   4.444
 5588TIP3    H116728   5.426   3.631   4.438
 5588TIP3    H216729   5.546   3.694   4.499
 5589TIP3   OH216730   5.518   3.394   5.017
 5589TIP3    H116731   5.447   3.406   5.083
 5589TIP3    H216732   5.562   3.482   5.019
 5590TIP3   OH216733   5.335   2.905   3.633
 5590TIP3    H116734   5.397   2.973   3.600
 5590TIP3    H216735   5.385   2.871   3.711
 5591TIP3   OH216736   5.467   2.772   3.837
 5591TIP3    H116737   5.398   2.738   3.897
 5591TIP3    H216738   5.532   2.811   3.899
 5592TIP3   OH216739   5.522   3.170   4.271
 5592TIP3    H116740   5.571   3.102   4.222
 5592TIP3    H216741   5.519   3.244   4.206
 5593TIP3   OH216742   5.345   3.468   4.464
 5593TIP3    H116743   5.273   3.512   4.512
 5593TIP3    H216744   5.297   3.425   4.390
 5594TIP3   OH216745   5.400   2.682   3.484
 5594TIP3    H116746   5.330   2.683   3.415
 5594TIP3    H216747   5.371   2.759   3.537
 5595TIP3   OH216748   5.271   2.356   3.439
 5595TIP3    H116749   5.228   2.396   3.363
 5595TIP3    H216750   5.247   2.262   3.427
 5596TIP3   OH216751   5.275   2.642   3.986
 5596TIP3    H116752   5.284   2.546   3.977
 5596TIP3    H216753   5.260   2.653   4.082
 5597TIP3   OH216754   3.913   2.654   4.750
 5597TIP3    H116755   3.873   2.698   4.672
 5597TIP3    H216756   4.008   2.675   4.741
 5598TIP3   OH216757   5.567   3.059   4.841
 5598TIP3    H116758   5.638   2.992   4.829
 5598TIP3    H216759   5.591   3.128   4.777
 5599TIP3   OH216760   5.746   2.856   4.846
 5599TIP3    H116761   5.674   2.807   4.892
 5599TIP3    H216762   5.821   2.796   4.863
 5600TIP3   OH216763   5.212   2.092   3.422
 5600TIP3    H116764   5.283   2.056   3.479
 5600TIP3    H216765   5.138   2.030   3.435
 5601TIP3   OH216766   5.282   2.363   3.879
 5601TIP3    H116767   5.350   2.301   3.908
 5601TIP3    H216768   5.324   2.398   3.797
 5602TIP3   OH216769   5.431   2.518   4.374
 5602TIP3    H116770   5.516   2.542   4.330
 5602TIP3    H216771   5.448   2.558   4.461
 5603TIP3   OH216772   5.503   2.667   4.602
 5603TIP3    H116773   5.427   2.705   4.651
 5603TIP3    H216774   5.538   2.747   4.556
 5604TIP3   OH216775   4.122   2.387   5.398
 5604TIP3    H116776   4.219   2.384   5.413
 5604TIP3    H216777   4.095   2.302   5.439
 5605TIP3   OH216778   5.945   2.251   5.158
 5605TIP3    H116779   6.012   2.192   5.118
 5605TIP3    H216780   5.921   2.308   5.081
 5606TIP3   OH216781   4.110   2.104   4.708
 5606TIP3    H116782   4.152   2.016   4.717
 5606TIP3    H216783   4.137   2.147   4.789
 5607TIP3   OH216784   3.889   2.360   4.812
 5607TIP3    H116785   3.927   2.363   4.722
 5607TIP3    H216786   3.883   2.456   4.830
 5608TIP3   OH216787   5.821   2.395   4.962
 5608TIP3    H116788   5.738   2.440   4.986
 5608TIP3    H216789   5.787   2.322   4.907
 5609TIP3   OH216790   5.459   2.036   3.555
 5609TIP3    H116791   5.495   1.962   3.502
 5609TIP3    H216792   5.526   2.105   3.544
 5610TIP3   OH216793   3.869   1.867   4.314
 5610TIP3    H116794   3.775   1.854   4.339
 5610TIP3    H216795   3.861   1.923   4.234
 5611TIP3   OH216796   5.014   3.574   3.807
 5611TIP3    H116797   5.074   3.562   3.732
 5611TIP3    H216798   5.065   3.635   3.864
 5612TIP3   OH216799   4.089   1.938   5.119
 5612TIP3    H116800   4.041   1.935   5.203
 5612TIP3    H216801   4.022   1.979   5.061
 5613TIP3   OH216802   4.127   3.367   5.198
 5613TIP3    H116803   4.033   3.348   5.183
 5613TIP3    H216804   4.135   3.354   5.293
 5614TIP3   OH216805   4.312   3.406   4.748
 5614TIP3    H116806   4.259   3.478   4.709
 5614TIP3    H216807   4.396   3.423   4.701
 5615TIP3   OH216808   4.746   3.643   4.883
 5615TIP3    H116809   4.787   3.645   4.972
 5615TIP3    H216810   4.810   3.697   4.832
 5616TIP3   OH216811   4.925   3.801   4.749
 5616TIP3    H116812   4.995   3.754   4.702
 5616TIP3    H216813   4.979   3.858   4.810
 5617TIP3   OH216814   5.724   2.157   4.847
 5617TIP3    H116815   5.637   2.148   4.806
 5617TIP3    H216816   5.761   2.066   4.836
 5618TIP3   OH216817   3.982   3.661   4.775
 5618TIP3    H116818   3.892   3.689   4.748
 5618TIP3    H216819   3.991   3.710   4.858
 5619TIP3   OH216820   4.219   3.638   4.632
 5619TIP3    H116821   4.131   3.650   4.675
 5619TIP3    H216822   4.200   3.669   4.541
 5620TIP3   OH216823   4.642   3.662   4.432
 5620TIP3    H116824   4.576   3.678   4.362
 5620TIP3    H216825   4.653   3.752   4.469
 5621TIP3   OH216826   4.912   3.600   4.483
 5621TIP3    H116827   4.818   3.619   4.464
 5621TIP3    H216828   4.956   3.670   4.432
 5622TIP3   OH216829   5.119   3.795   4.392
 5622TIP3    H116830   5.103   3.879   4.344
 5622TIP3    H216831   5.146   3.735   4.319
 5623TIP3   OH216832   3.899   3.460   4.514
 5623TIP3    H116833   3.914   3.419   4.602
 5623TIP3    H216834   3.965   3.408   4.462
 5624TIP3   OH216835   4.088   3.322   4.372
 5624TIP3    H116836   4.101   3.242   4.429
 5624TIP3    H216837   4.178   3.361   4.373
 5625TIP3   OH216838   4.353   3.418   4.384
 5625TIP3    H116839   4.388   3.329   4.371
 5625TIP3    H216840   4.401   3.443   4.465
 5626TIP3   OH216841   4.928   2.078   4.479
 5626TIP3    H116842   4.883   2.003   4.522
 5626TIP3    H216843   4.999   2.033   4.429
 5627TIP3   OH216844   5.441   1.924   4.345
 5627TIP3    H116845   5.485   1.989   4.285
 5627TIP3    H216846   5.353   1.963   4.356
 5628TIP3   OH216847   5.537   2.050   4.126
 5628TIP3    H116848   5.610   1.998   4.085
 5628TIP3    H216849   5.569   2.141   4.109
 5629TIP3   OH216850   4.177   1.783   4.481
 5629TIP3    H116851   4.084   1.754   4.483
 5629TIP3    H216852   4.222   1.696   4.474
 5630TIP3   OH216853   3.974   1.656   4.132
 5630TIP3    H116854   3.998   1.711   4.055
 5630TIP3    H216855   3.942   1.723   4.196
 5631TIP3   OH216856   4.633   1.809   4.360
 5631TIP3    H116857   4.681   1.863   4.295
 5631TIP3    H216858   4.654   1.853   4.443
 5632TIP3   OH216859   5.157   1.963   4.347
 5632TIP3    H116860   5.111   1.935   4.267
 5632TIP3    H216861   5.149   1.884   4.406
 5633TIP3   OH216862   3.686   3.224   3.930
 5633TIP3    H116863   3.618   3.198   3.865
 5633TIP3    H216864   3.656   3.311   3.958
 5634TIP3   OH216865   4.084   1.807   3.892
 5634TIP3    H116866   4.130   1.746   3.831
 5634TIP3    H216867   4.157   1.862   3.925
 5635TIP3   OH216868   4.590   1.990   3.989
 5635TIP3    H116869   4.649   1.941   4.047
 5635TIP3    H216870   4.615   2.082   4.013
 5636TIP3   OH216871   5.165   3.541   3.571
 5636TIP3    H116872   5.173   3.442   3.568
 5636TIP3    H216873   5.084   3.553   3.519
 5637TIP3   OH216874   4.390   2.065   5.370
 5637TIP3    H116875   4.347   1.997   5.424
 5637TIP3    H216876   4.482   2.061   5.405
 5638TIP3   OH216877   4.639   2.058   5.493
 5638TIP3    H116878   4.721   2.022   5.457
 5638TIP3    H216879   4.618   1.991   5.562
 5639TIP3   OH216880   3.784   3.223   3.574
 5639TIP3    H116881   3.812   3.293   3.634
 5639TIP3    H216882   3.866   3.203   3.525
 5640TIP3   OH216883   5.479   2.123   5.287
 5640TIP3    H116884   5.530   2.111   5.368
 5640TIP3    H216885   5.552   2.127   5.221
 5641TIP3   OH216886   5.394   3.674   4.768
 5641TIP3    H116887   5.317   3.645   4.716
 5641TIP3    H216888   5.376   3.770   4.775
 5642TIP3   OH216889   6.664   3.054   3.529
 5642TIP3    H116890   6.628   3.141   3.504
 5642TIP3    H216891   6.592   2.996   3.497
 5643TIP3   OH216892   6.667   3.053   3.923
 5643TIP3    H116893   6.703   3.025   4.009
 5643TIP3    H216894   6.629   2.970   3.889
 5644TIP3   OH216895   5.960   2.940   4.285
 5644TIP3    H116896   5.991   2.871   4.347
 5644TIP3    H216897   6.041   2.993   4.275
 5645TIP3   OH216898   6.938   3.343   3.602
 5645TIP3    H116899   6.890   3.280   3.657
 5645TIP3    H216900   6.936   3.425   3.655
 5646TIP3   OH216901   5.937   3.353   4.002
 5646TIP3    H116902   5.929   3.255   4.003
 5646TIP3    H216903   6.034   3.362   3.994
 5647TIP3   OH216904   5.640   2.546   3.785
 5647TIP3    H116905   5.599   2.631   3.808
 5647TIP3    H216906   5.567   2.505   3.735
 5648TIP3   OH216907   5.699   2.842   3.968
 5648TIP3    H116908   5.751   2.765   3.999
 5648TIP3    H216909   5.762   2.886   3.908
 5649TIP3   OH216910   6.562   3.814   3.617
 5649TIP3    H116911   6.603   3.743   3.564
 5649TIP3    H216912   6.547   3.770   3.701
 5650TIP3   OH216913   6.461   3.276   3.965
 5650TIP3    H116914   6.502   3.199   3.922
 5650TIP3    H216915   6.543   3.322   3.992
 5651TIP3   OH216916   6.872   2.775   3.992
 5651TIP3    H116917   6.921   2.694   4.015
 5651TIP3    H216918   6.842   2.753   3.902
 5652TIP3   OH216919   6.217   2.434   3.960
 5652TIP3    H116920   6.200   2.508   3.898
 5652TIP3    H216921   6.168   2.362   3.915
 5653TIP3   OH216922   6.892   2.524   3.583
 5653TIP3    H116923   6.961   2.515   3.653
 5653TIP3    H216924   6.946   2.562   3.512
 5654TIP3   OH216925   5.846   2.634   4.069
 5654TIP3    H116926   5.930   2.619   4.117
 5654TIP3    H216927   5.864   2.581   3.988
 5655TIP3   OH216928   6.286   2.833   3.868
 5655TIP3    H116929   6.381   2.811   3.878
 5655TIP3    H216930   6.250   2.749   3.832
 5656TIP3   OH216931   6.210   2.418   4.395
 5656TIP3    H116932   6.151   2.456   4.327
 5656TIP3    H216933   6.157   2.436   4.476
 5657TIP3   OH216934   6.547   3.269   3.406
 5657TIP3    H116935   6.516   3.259   3.314
 5657TIP3    H216936   6.503   3.352   3.432
 5658TIP3   OH216937   6.316   3.195   4.185
 5658TIP3    H116938   6.258   3.265   4.222
 5658TIP3    H216939   6.359   3.242   4.110
 5659TIP3   OH216940   7.097   2.533   3.751
 5659TIP3    H116941   7.128   2.450   3.792
 5659TIP3    H216942   7.183   2.580   3.747
 5660TIP3   OH216943   6.081   2.532   4.179
 5660TIP3    H116944   6.143   2.605   4.204
 5660TIP3    H216945   6.132   2.493   4.104
 5661TIP3   OH216946   6.147   3.393   4.288
 5661TIP3    H116947   6.122   3.480   4.252
 5661TIP3    H216948   6.068   3.374   4.342
 5662TIP3   OH216949   5.533   3.079   3.523
 5662TIP3    H116950   5.495   3.106   3.437
 5662TIP3    H216951   5.568   3.164   3.556
 5663TIP3   OH216952   6.984   3.594   3.757
 5663TIP3    H116953   6.896   3.587   3.802
 5663TIP3    H216954   6.973   3.682   3.713
 5664TIP3   OH216955   7.224   2.493   4.121
 5664TIP3    H116956   7.132   2.511   4.091
 5664TIP3    H216957   7.271   2.490   4.037
 5665TIP3   OH216958   6.557   2.133   4.108
 5665TIP3    H116959   6.544   2.038   4.130
 5665TIP3    H216960   6.482   2.173   4.157
 5666TIP3   OH216961   6.678   3.637   3.438
 5666TIP3    H116962   6.727   3.553   3.419
 5666TIP3    H216963   6.743   3.702   3.400
 5667TIP3   OH216964   6.823   3.420   3.357
 5667TIP3    H116965   6.802   3.345   3.299
 5667TIP3    H216966   6.868   3.376   3.432
 5668TIP3   OH216967   7.193   3.502   4.104
 5668TIP3    H116968   7.183   3.430   4.038
 5668TIP3    H216969   7.176   3.581   4.049
 5669TIP3   OH216970   6.496   2.902   3.371
 5669TIP3    H116971   6.418   2.957   3.348
 5669TIP3    H216972   6.541   2.895   3.285
 5670TIP3   OH216973   6.455   2.684   3.078
 5670TIP3    H116974   6.520   2.741   3.124
 5670TIP3    H216975   6.517   2.624   3.030
 5671TIP3   OH216976   7.404   3.147   3.964
 5671TIP3    H116977   7.323   3.200   3.950
 5671TIP3    H216978   7.411   3.099   3.880
 5672TIP3   OH216979   6.844   2.986   3.335
 5672TIP3    H116980   6.788   3.009   3.413
 5672TIP3    H216981   6.924   2.953   3.380
 5673TIP3   OH216982   7.074   3.019   4.260
 5673TIP3    H116983   7.071   3.098   4.318
 5673TIP3    H216984   6.987   3.026   4.215
 5674TIP3   OH216985   6.075   2.979   3.757
 5674TIP3    H116986   6.034   2.921   3.689
 5674TIP3    H216987   6.151   2.925   3.787
 5675TIP3   OH216988   6.204   3.391   3.901
 5675TIP3    H116989   6.185   3.362   3.811
 5675TIP3    H216990   6.292   3.352   3.917
 5676TIP3   OH216991   6.206   2.952   4.109
 5676TIP3    H116992   6.242   2.924   4.022
 5676TIP3    H216993   6.253   3.037   4.125
 5677TIP3   OH216994   6.750   3.587   3.888
 5677TIP3    H116995   6.729   3.669   3.937
 5677TIP3    H216996   6.726   3.517   3.952
 5678TIP3   OH216997   6.352   3.509   4.433
 5678TIP3    H116998   6.289   3.569   4.479
 5678TIP3    H216999   6.288   3.455   4.381
 5679TIP3   OH217000   6.674   2.844   3.167
 5679TIP3    H117001   6.738   2.903   3.211
 5679TIP3    H217002   6.696   2.862   3.072
 5680TIP3   OH217003   6.108   3.062   4.541
 5680TIP3    H117004   6.112   3.151   4.580
 5680TIP3    H217005   6.013   3.042   4.553
 5681TIP3   OH217006   6.428   3.518   3.443
 5681TIP3    H117007   6.510   3.571   3.447
 5681TIP3    H217008   6.369   3.574   3.390
 5682TIP3   OH217009   6.144   3.672   4.521
 5682TIP3    H117010   6.109   3.678   4.430
 5682TIP3    H217011   6.063   3.651   4.573
 5683TIP3   OH217012   5.940   2.823   3.561
 5683TIP3    H117013   5.874   2.870   3.506
 5683TIP3    H217014   5.904   2.734   3.565
 5684TIP3   OH217015   7.009   3.451   2.755
 5684TIP3    H117016   7.002   3.549   2.748
 5684TIP3    H217017   7.084   3.437   2.694
 5685TIP3   OH217018   5.721   3.209   4.468
 5685TIP3    H117019   5.654   3.189   4.399
 5685TIP3    H217020   5.761   3.121   4.486
 5686TIP3   OH217021   5.577   3.399   4.101
 5686TIP3    H117022   5.673   3.399   4.093
 5686TIP3    H217023   5.561   3.480   4.152
 5687TIP3   OH217024   7.424   3.845   4.156
 5687TIP3    H117025   7.434   3.753   4.188
 5687TIP3    H217026   7.340   3.870   4.200
 5688TIP3   OH217027   6.546   3.636   4.291
 5688TIP3    H117028   6.542   3.729   4.324
 5688TIP3    H217029   6.474   3.594   4.343
 5689TIP3   OH217030   6.313   3.762   3.244
 5689TIP3    H117031   6.266   3.744   3.160
 5689TIP3    H217032   6.277   3.849   3.269
 5690TIP3   OH217033   5.747   3.611   3.630
 5690TIP3    H117034   5.795   3.605   3.716
 5690TIP3    H217035   5.704   3.523   3.627
 5691TIP3   OH217036   6.509   3.669   2.879
 5691TIP3    H117037   6.567   3.598   2.842
 5691TIP3    H217038   6.545   3.679   2.970
 5692TIP3   OH217039   6.563   3.717   3.150
 5692TIP3    H117040   6.473   3.727   3.189
 5692TIP3    H217041   6.612   3.678   3.224
 5693TIP3   OH217042   7.334   2.975   4.409
 5693TIP3    H117043   7.242   2.971   4.379
 5693TIP3    H217044   7.361   2.881   4.406
 5694TIP3   OH217045   5.927   3.390   4.451
 5694TIP3    H117046   5.975   3.374   4.534
 5694TIP3    H217047   5.852   3.328   4.459
 5695TIP3   OH217048   6.325   2.211   4.244
 5695TIP3    H117049   6.236   2.184   4.213
 5695TIP3    H217050   6.301   2.293   4.292
 5696TIP3   OH217051   6.861   2.325   4.433
 5696TIP3    H117052   6.931   2.305   4.498
 5696TIP3    H217053   6.779   2.309   4.484
 5697TIP3   OH217054   7.104   2.758   4.357
 5697TIP3    H117055   7.050   2.753   4.439
 5697TIP3    H217056   7.076   2.843   4.319
 5698TIP3   OH217057   6.739   2.886   2.912
 5698TIP3    H117058   6.705   2.859   2.824
 5698TIP3    H217059   6.829   2.915   2.888
 5699TIP3   OH217060   6.467   2.258   3.213
 5699TIP3    H117061   6.432   2.254   3.304
 5699TIP3    H217062   6.428   2.177   3.175
 5700TIP3   OH217063   6.256   2.730   4.258
 5700TIP3    H117064   6.210   2.753   4.341
 5700TIP3    H217065   6.241   2.811   4.205
 5701TIP3   OH217066   6.144   2.615   3.773
 5701TIP3    H117067   6.050   2.592   3.791
 5701TIP3    H217068   6.155   2.575   3.684
 5702TIP3   OH217069   6.631   2.699   3.502
 5702TIP3    H117070   6.582   2.771   3.456
 5702TIP3    H217071   6.687   2.664   3.429
 5703TIP3   OH217072   6.809   2.975   4.583
 5703TIP3    H117073   6.789   2.903   4.646
 5703TIP3    H217074   6.902   2.993   4.605
 5704TIP3   OH217075   6.778   2.724   3.739
 5704TIP3    H117076   6.717   2.748   3.666
 5704TIP3    H217077   6.817   2.644   3.697
 5705TIP3   OH217078   6.077   2.757   4.469
 5705TIP3    H117079   6.116   2.820   4.531
 5705TIP3    H217080   6.071   2.676   4.522
 5706TIP3   OH217081   6.127   2.234   3.178
 5706TIP3    H117082   6.115   2.238   3.275
 5706TIP3    H217083   6.052   2.290   3.148
 5707TIP3   OH217084   5.671   2.272   4.047
 5707TIP3    H117085   5.736   2.311   4.109
 5707TIP3    H217086   5.724   2.258   3.967
 5708TIP3   OH217087   5.639   2.265   3.569
 5708TIP3    H117088   5.680   2.300   3.487
 5708TIP3    H217089   5.577   2.338   3.586
 5709TIP3   OH217090   6.798   2.972   4.159
 5709TIP3    H117091   6.833   2.901   4.099
 5709TIP3    H217092   6.768   2.916   4.235
 5710TIP3   OH217093   6.476   2.433   3.832
 5710TIP3    H117094   6.397   2.435   3.889
 5710TIP3    H217095   6.548   2.428   3.897
 5711TIP3   OH217096   5.903   2.495   3.840
 5711TIP3    H117097   5.809   2.500   3.809
 5711TIP3    H217098   5.929   2.405   3.814
 5712TIP3   OH217099   6.167   2.487   3.532
 5712TIP3    H117100   6.261   2.503   3.511
 5712TIP3    H217101   6.121   2.509   3.448
 5713TIP3   OH217102   6.958   2.519   4.048
 5713TIP3    H117103   6.920   2.531   4.138
 5713TIP3    H217104   6.894   2.460   4.006
 5714TIP3   OH217105   6.022   2.522   3.305
 5714TIP3    H117106   5.954   2.477   3.251
 5714TIP3    H217107   6.075   2.564   3.234
 5715TIP3   OH217108   7.134   4.204   4.256
 5715TIP3    H117109   7.131   4.227   4.162
 5715TIP3    H217110   7.213   4.254   4.286
 5716TIP3   OH217111   6.090   3.312   4.675
 5716TIP3    H117112   6.170   3.340   4.723
 5716TIP3    H217113   6.025   3.311   4.748
 5717TIP3   OH217114   6.549   2.766   3.930
 5717TIP3    H117115   6.626   2.733   3.881
 5717TIP3    H217116   6.558   2.721   4.016
 5718TIP3   OH217117   6.067   2.255   3.812
 5718TIP3    H117118   6.037   2.175   3.861
 5718TIP3    H217119   6.114   2.216   3.737
 5719TIP3   OH217120   6.528   2.666   4.221
 5719TIP3    H117121   6.439   2.704   4.235
 5719TIP3    H217122   6.586   2.728   4.270
 5720TIP3   OH217123   6.263   3.052   3.316
 5720TIP3    H117124   6.191   2.987   3.303
 5720TIP3    H217125   6.242   3.086   3.406
 5721TIP3   OH217126   7.162   3.297   3.914
 5721TIP3    H117127   7.106   3.334   3.843
 5721TIP3    H217128   7.100   3.226   3.942
 5722TIP3   OH217129   6.723   2.354   3.193
 5722TIP3    H117130   6.625   2.338   3.192
 5722TIP3    H217131   6.729   2.451   3.204
 5723TIP3   OH217132   6.662   3.372   4.314
 5723TIP3    H117133   6.700   3.354   4.401
 5723TIP3    H217134   6.625   3.461   4.324
 5724TIP3   OH217135   6.784   2.615   3.283
 5724TIP3    H117136   6.880   2.622   3.291
 5724TIP3    H217137   6.763   2.691   3.225
 5725TIP3   OH217138   5.957   3.074   3.989
 5725TIP3    H117139   5.995   3.047   3.903
 5725TIP3    H217140   6.010   3.020   4.050
 5726TIP3   OH217141   6.413   3.203   3.144
 5726TIP3    H117142   6.363   3.288   3.145
 5726TIP3    H217143   6.357   3.148   3.204
 5727TIP3   OH217144   5.843   2.996   4.605
 5727TIP3    H117145   5.864   2.984   4.700
 5727TIP3    H217146   5.774   2.929   4.592
 5728TIP3   OH217147   6.571   3.114   4.621
 5728TIP3    H117148   6.511   3.053   4.577
 5728TIP3    H217149   6.658   3.077   4.595
 5729TIP3   OH217150   6.822   3.633   4.211
 5729TIP3    H117151   6.726   3.630   4.225
 5729TIP3    H217152   6.851   3.684   4.289
 5730TIP3   OH217153   7.441   3.559   4.209
 5730TIP3    H117154   7.343   3.557   4.205
 5730TIP3    H217155   7.462   3.522   4.121
 5731TIP3   OH217156   6.957   3.512   3.030
 5731TIP3    H117157   6.898   3.448   3.071
 5731TIP3    H217158   6.968   3.477   2.939
 5732TIP3   OH217159   6.926   3.151   3.868
 5732TIP3    H117160   6.832   3.128   3.882
 5732TIP3    H217161   6.954   3.076   3.811
 5733TIP3   OH217162   6.063   3.383   3.621
 5733TIP3    H117163   6.059   3.462   3.563
 5733TIP3    H217164   5.970   3.360   3.627
 5734TIP3   OH217165   5.628   2.682   3.326
 5734TIP3    H117166   5.670   2.769   3.345
 5734TIP3    H217167   5.550   2.686   3.384
 5735TIP3   OH217168   6.188   3.142   3.558
 5735TIP3    H117169   6.159   3.233   3.579
 5735TIP3    H217170   6.154   3.092   3.635
 5736TIP3   OH217171   6.330   3.723   4.084
 5736TIP3    H117172   6.373   3.795   4.034
 5736TIP3    H217173   6.407   3.685   4.130
 5737TIP3   OH217174   5.977   3.620   3.468
 5737TIP3    H117175   5.893   3.630   3.516
 5737TIP3    H217176   6.011   3.712   3.471
 5738TIP3   OH217177   6.712   3.356   4.047
 5738TIP3    H117178   6.697   3.356   4.144
 5738TIP3    H217179   6.789   3.299   4.040
 5739TIP3   OH217180   6.692   3.258   2.930
 5739TIP3    H117181   6.738   3.231   3.012
 5739TIP3    H217182   6.604   3.222   2.946
 5740TIP3   OH217183   6.964   3.887   4.090
 5740TIP3    H117184   6.884   3.831   4.086
 5740TIP3    H217185   6.946   3.950   4.018
 5741TIP3   OH217186   7.018   3.721   2.748
 5741TIP3    H117187   7.068   3.784   2.693
 5741TIP3    H217188   6.942   3.777   2.772
 5742TIP3   OH217189   6.050   2.498   4.611
 5742TIP3    H117190   5.955   2.497   4.627
 5742TIP3    H217191   6.084   2.448   4.687
 5743TIP3   OH217192   6.841   3.196   3.154
 5743TIP3    H117193   6.836   3.123   3.219
 5743TIP3    H217194   6.933   3.185   3.122
 5744TIP3   OH217195   5.768   3.583   4.240
 5744TIP3    H117196   5.823   3.514   4.280
 5744TIP3    H217197   5.792   3.660   4.294
 5745TIP3   OH217198   6.057   3.231   2.929
 5745TIP3    H117199   6.067   3.138   2.900
 5745TIP3    H217200   6.032   3.219   3.023
 5746TIP3   OH217201   5.998   3.236   3.203
 5746TIP3    H117202   6.079   3.211   3.250
 5746TIP3    H217203   6.001   3.334   3.208
 5747TIP3   OH217204   5.734   2.927   3.405
 5747TIP3    H117205   5.666   2.973   3.459
 5747TIP3    H217206   5.747   2.994   3.334
 5748TIP3   OH217207   6.885   2.569   4.306
 5748TIP3    H117208   6.971   2.603   4.337
 5748TIP3    H217209   6.877   2.485   4.356
 5749TIP3   OH217210   6.762   2.307   3.466
 5749TIP3    H117211   6.750   2.329   3.371
 5749TIP3    H217212   6.800   2.391   3.500
 5750TIP3   OH217213   6.269   3.431   3.150
 5750TIP3    H117214   6.181   3.457   3.184
 5750TIP3    H217215   6.282   3.499   3.082
 5751TIP3   OH217216   6.450   2.499   3.564
 5751TIP3    H117217   6.515   2.571   3.545
 5751TIP3    H217218   6.460   2.489   3.661
 5752TIP3   OH217219   6.726   2.811   4.367
 5752TIP3    H117220   6.754   2.862   4.446
 5752TIP3    H217221   6.780   2.730   4.376
 5753TIP3   OH217222   6.595   2.214   3.663
 5753TIP3    H117223   6.588   2.292   3.720
 5753TIP3    H217224   6.656   2.248   3.593
 5754TIP3   OH217225   6.015   3.508   3.218
 5754TIP3    H117226   5.986   3.577   3.155
 5754TIP3    H217227   5.999   3.551   3.304
 5755TIP3   OH217228   6.110   2.223   3.455
 5755TIP3    H117229   6.109   2.315   3.490
 5755TIP3    H217230   6.206   2.206   3.461
 5756TIP3   OH217231   7.370   2.694   4.329
 5756TIP3    H117232   7.274   2.697   4.351
 5756TIP3    H217233   7.365   2.697   4.233
 5757TIP3   OH217234   6.993   2.923   3.723
 5757TIP3    H117235   6.928   2.855   3.746
 5757TIP3    H217236   7.071   2.898   3.779
 5758TIP3   OH217237   5.731   3.130   3.208
 5758TIP3    H117238   5.804   3.195   3.215
 5758TIP3    H217239   5.771   3.071   3.140
 5759TIP3   OH217240   5.665   2.411   3.343
 5759TIP3    H117241   5.673   2.508   3.343
 5759TIP3    H217242   5.596   2.399   3.277
 5760TIP3   OH217243   6.991   3.863   3.683
 5760TIP3    H117244   6.944   3.912   3.611
 5760TIP3    H217245   7.084   3.886   3.661
 5761TIP3   OH217246   6.057   2.134   4.214
 5761TIP3    H117247   6.031   2.098   4.126
 5761TIP3    H217248   6.049   2.055   4.271
 5762TIP3   OH217249   5.601   3.351   3.592
 5762TIP3    H117250   5.533   3.375   3.657
 5762TIP3    H217251   5.564   3.389   3.509
 5763TIP3   OH217252   5.760   3.901   4.667
 5763TIP3    H117253   5.847   3.901   4.713
 5763TIP3    H217254   5.741   3.806   4.665
 5764TIP3   OH217255   6.236   3.853   4.711
 5764TIP3    H117256   6.330   3.831   4.717
 5764TIP3    H217257   6.208   3.791   4.640
 5765TIP3   OH217258   6.221   3.433   2.839
 5765TIP3    H117259   6.167   3.358   2.874
 5765TIP3    H217260   6.295   3.385   2.797
 5766TIP3   OH217261   6.875   3.765   4.446
 5766TIP3    H117262   6.868   3.695   4.515
 5766TIP3    H217263   6.953   3.815   4.477
 5767TIP3   OH217264   6.653   3.472   2.753
 5767TIP3    H117265   6.692   3.402   2.808
 5767TIP3    H217266   6.704   3.466   2.670
 5768TIP3   OH217267   5.887   3.302   4.866
 5768TIP3    H117268   5.901   3.206   4.877
 5768TIP3    H217269   5.800   3.304   4.820
 5769TIP3   OH217270   5.865   2.945   3.064
 5769TIP3    H117271   5.926   2.920   3.136
 5769TIP3    H217272   5.929   2.952   2.990
 5770TIP3   OH217273   6.493   3.390   4.642
 5770TIP3    H117274   6.453   3.410   4.554
 5770TIP3    H217275   6.526   3.298   4.630
 5771TIP3   OH217276   6.389   3.150   2.874
 5771TIP3    H117277   6.386   3.159   2.971
 5771TIP3    H217278   6.386   3.052   2.864
 5772TIP3   OH217279   6.981   3.397   4.245
 5772TIP3    H117280   7.058   3.441   4.206
 5772TIP3    H217281   6.912   3.465   4.230
 5773TIP3   OH217282   6.009   3.033   4.850
 5773TIP3    H117283   6.091   2.992   4.821
 5773TIP3    H217284   6.036   3.068   4.938
 5774TIP3   OH217285   6.070   2.856   3.279
 5774TIP3    H117286   6.045   2.812   3.361
 5774TIP3    H217287   6.111   2.783   3.228
 5775TIP3   OH217288   6.337   2.913   4.507
 5775TIP3    H117289   6.263   2.978   4.509
 5775TIP3    H217290   6.393   2.951   4.434
 5776TIP3   OH217291   6.178   2.652   3.122
 5776TIP3    H117292   6.153   2.662   3.028
 5776TIP3    H217293   6.275   2.651   3.114
 5777TIP3   OH217294   6.860   3.322   4.642
 5777TIP3    H117295   6.943   3.294   4.603
 5777TIP3    H217296   6.852   3.259   4.717
 5778TIP3   OH217297   6.971   2.969   2.797
 5778TIP3    H117298   6.954   2.925   2.711
 5778TIP3    H217299   6.946   3.062   2.773
 5779TIP3   OH217300   6.464   2.709   4.635
 5779TIP3    H117301   6.468   2.631   4.575
 5779TIP3    H217302   6.420   2.776   4.577
 5780TIP3   OH217303   6.469   2.495   4.445
 5780TIP3    H117304   6.498   2.538   4.362
 5780TIP3    H217305   6.375   2.474   4.424
 5781TIP3   OH217306   6.488   3.027   4.318
 5781TIP3    H117307   6.576   3.043   4.282
 5781TIP3    H217308   6.434   3.093   4.270
 5782TIP3   OH217309   7.081   2.997   4.696
 5782TIP3    H117310   7.125   2.913   4.715
 5782TIP3    H217311   7.158   3.053   4.674
 5783TIP3   OH217312   7.107   3.247   4.432
 5783TIP3    H117313   7.051   3.302   4.373
 5783TIP3    H217314   7.196   3.263   4.393
 5784TIP3   OH217315   6.342   2.815   4.869
 5784TIP3    H117316   6.276   2.745   4.887
 5784TIP3    H217317   6.378   2.786   4.783
 5785TIP3   OH217318   6.599   2.256   4.516
 5785TIP3    H117319   6.549   2.337   4.492
 5785TIP3    H217320   6.531   2.187   4.505
 5786TIP3   OH217321   6.728   2.758   4.728
 5786TIP3    H117322   6.717   2.745   4.824
 5786TIP3    H217323   6.637   2.735   4.699
 5787TIP3   OH217324   6.962   2.708   4.581
 5787TIP3    H117325   6.889   2.711   4.647
 5787TIP3    H217326   7.039   2.682   4.636
 5788TIP3   OH217327   7.191   2.654   4.727
 5788TIP3    H117328   7.212   2.561   4.744
 5788TIP3    H217329   7.191   2.693   4.817
 5789TIP3   OH217330   6.179   2.594   4.926
 5789TIP3    H117331   6.189   2.502   4.896
 5789TIP3    H217332   6.219   2.588   5.015
 5790TIP3   OH217333   6.688   2.265   4.776
 5790TIP3    H117334   6.753   2.192   4.771
 5790TIP3    H217335   6.652   2.262   4.685
 5791TIP3   OH217336   6.759   2.481   4.933
 5791TIP3    H117337   6.738   2.410   4.868
 5791TIP3    H217338   6.681   2.540   4.924
 5792TIP3   OH217339   5.985   3.711   3.032
 5792TIP3    H117340   6.079   3.701   3.010
 5792TIP3    H217341   5.955   3.762   2.954
 5793TIP3   OH217342   5.462   3.092   3.246
 5793TIP3    H117343   5.556   3.113   3.228
 5793TIP3    H217344   5.454   3.004   3.203
 5794TIP3   OH217345   5.380   3.699   3.637
 5794TIP3    H117346   5.304   3.642   3.613
 5794TIP3    H217347   5.419   3.647   3.711
 5795TIP3   OH217348   5.505   3.561   3.843
 5795TIP3    H117349   5.489   3.489   3.907
 5795TIP3    H217350   5.562   3.619   3.895
 5796TIP3   OH217351   7.242   3.961   3.639
 5796TIP3    H117352   7.269   3.986   3.729
 5796TIP3    H217353   7.260   4.042   3.589
 5797TIP3   OH217354   7.260   3.974   3.926
 5797TIP3    H117355   7.215   3.886   3.920
 5797TIP3    H217356   7.337   3.948   3.978
 5798TIP3   OH217357   7.304   3.657   4.496
 5798TIP3    H117358   7.237   3.664   4.567
 5798TIP3    H217359   7.350   3.742   4.504
 5799TIP3   OH217360   7.109   3.182   3.101
 5799TIP3    H117361   7.149   3.271   3.096
 5799TIP3    H217362   7.141   3.154   3.190
 5800TIP3   OH217363   7.190   3.096   3.344
 5800TIP3    H117364   7.132   3.023   3.375
 5800TIP3    H217365   7.272   3.075   3.392
 5801TIP3   OH217366   7.139   3.725   3.950
 5801TIP3    H117367   7.070   3.771   4.003
 5801TIP3    H217368   7.087   3.686   3.877
 5802TIP3   OH217369   7.174   2.939   2.981
 5802TIP3    H117370   7.111   2.921   2.908
 5802TIP3    H217371   7.128   3.015   3.021
 5803TIP3   OH217372   6.991   2.626   2.965
 5803TIP3    H117373   7.063   2.649   2.905
 5803TIP3    H217374   6.992   2.529   2.959
 5804TIP3   OH217375   7.068   2.881   3.462
 5804TIP3    H117376   7.070   2.783   3.456
 5804TIP3    H217377   7.050   2.895   3.558
 5805TIP3   OH217378   5.696   2.958   4.221
 5805TIP3    H117379   5.694   2.926   4.128
 5805TIP3    H217380   5.794   2.961   4.236
 5806TIP3   OH217381   7.353   3.310   4.323
 5806TIP3    H117382   7.429   3.248   4.323
 5806TIP3    H217383   7.389   3.386   4.272
 5807TIP3   OH217384   7.553   3.131   4.380
 5807TIP3    H117385   7.475   3.072   4.392
 5807TIP3    H217386   7.604   3.105   4.461
 5808TIP3   OH217387   7.011   2.345   2.957
 5808TIP3    H117388   7.080   2.281   2.936
 5808TIP3    H217389   6.932   2.302   2.919
 5809TIP3   OH217390   7.063   2.605   3.383
 5809TIP3    H117391   7.101   2.517   3.405
 5809TIP3    H217392   7.111   2.626   3.301
 5810TIP3   OH217393   7.218   2.859   3.855
 5810TIP3    H117394   7.262   2.776   3.827
 5810TIP3    H217395   7.252   2.870   3.947
 5811TIP3   OH217396   7.303   2.928   4.106
 5811TIP3    H117397   7.227   2.957   4.160
 5811TIP3    H217398   7.350   3.012   4.090
 5812TIP3   OH217399   5.914   2.642   4.878
 5812TIP3    H117400   6.011   2.643   4.890
 5812TIP3    H217401   5.892   2.558   4.922
 5813TIP3   OH217402   7.155   2.347   3.438
 5813TIP3    H117403   7.194   2.305   3.517
 5813TIP3    H217404   7.090   2.278   3.416
 5814TIP3   OH217405   5.872   2.343   4.226
 5814TIP3    H117406   5.935   2.268   4.232
 5814TIP3    H217407   5.934   2.417   4.214
 5815TIP3   OH217408   5.674   2.612   4.292
 5815TIP3    H117409   5.727   2.614   4.209
 5815TIP3    H217410   5.699   2.697   4.331
 5816TIP3   OH217411   5.683   2.112   3.784
 5816TIP3    H117412   5.590   2.114   3.808
 5816TIP3    H217413   5.684   2.176   3.709
 5817TIP3   OH217414   6.825   3.823   3.308
 5817TIP3    H117415   6.870   3.811   3.221
 5817TIP3    H217416   6.875   3.898   3.345
 5818TIP3   OH217417   5.883   2.195   4.609
 5818TIP3    H117418   5.834   2.197   4.693
 5818TIP3    H217419   5.818   2.234   4.547
 5819TIP3   OH217420   5.923   3.630   4.685
 5819TIP3    H117421   5.829   3.606   4.671
 5819TIP3    H217422   5.935   3.608   4.778
 5820TIP3   OH217423   6.105   3.664   4.234
 5820TIP3    H117424   6.057   3.740   4.195
 5820TIP3    H217425   6.191   3.677   4.189
 5821TIP3   OH217426   6.542   3.903   4.373
 5821TIP3    H117427   6.585   3.901   4.461
 5821TIP3    H217428   6.608   3.955   4.321
 5822TIP3   OH217429   6.722   4.058   4.236
 5822TIP3    H117430   6.792   4.008   4.191
 5822TIP3    H217431   6.776   4.115   4.296
 5823TIP3   OH217432   5.777   3.915   4.261
 5823TIP3    H117433   5.686   3.945   4.238
 5823TIP3    H217434   5.792   3.966   4.342
 5824TIP3   OH217435   6.014   3.896   4.119
 5824TIP3    H117436   5.926   3.907   4.161
 5824TIP3    H217437   5.996   3.927   4.028
 5825TIP3   OH217438   6.439   3.920   3.916
 5825TIP3    H117439   6.369   3.937   3.850
 5825TIP3    H217440   6.450   4.009   3.956
 5826TIP3   OH217441   6.709   3.857   3.966
 5826TIP3    H117442   6.615   3.878   3.947
 5826TIP3    H217443   6.754   3.931   3.921
 5827TIP3   OH217444   6.909   4.048   3.876
 5827TIP3    H117445   6.898   4.135   3.830
 5827TIP3    H217446   6.939   3.991   3.802
 5828TIP3   OH217447   5.690   3.709   3.999
 5828TIP3    H117448   5.714   3.680   4.090
 5828TIP3    H217449   5.763   3.665   3.950
 5829TIP3   OH217450   5.886   3.582   3.863
 5829TIP3    H117451   5.901   3.498   3.912
 5829TIP3    H217452   5.978   3.617   3.858
 5830TIP3   OH217453   6.153   3.673   3.869
 5830TIP3    H117454   6.182   3.581   3.857
 5830TIP3    H217455   6.201   3.696   3.950
 5831TIP3   OH217456   6.720   2.330   3.951
 5831TIP3    H117457   6.680   2.258   4.002
 5831TIP3    H217458   6.799   2.287   3.912
 5832TIP3   OH217459   7.212   2.305   3.841
 5832TIP3    H117460   7.269   2.234   3.806
 5832TIP3    H217461   7.127   2.260   3.854
 5833TIP3   OH217462   5.973   2.037   3.965
 5833TIP3    H117463   5.880   2.010   3.961
 5833TIP3    H217464   6.019   1.950   3.963
 5834TIP3   OH217465   5.771   1.907   3.614
 5834TIP3    H117466   5.800   1.961   3.538
 5834TIP3    H217467   5.743   1.977   3.677
 5835TIP3   OH217468   6.422   2.070   3.851
 5835TIP3    H117469   6.472   2.118   3.783
 5835TIP3    H217470   6.456   2.110   3.933
 5836TIP3   OH217471   6.943   2.204   3.831
 5836TIP3    H117472   6.923   2.174   3.742
 5836TIP3    H217473   6.935   2.121   3.883
 5837TIP3   OH217474   6.986   2.133   3.430
 5837TIP3    H117475   6.899   2.174   3.417
 5837TIP3    H217476   6.963   2.040   3.450
 5838TIP3   OH217477   5.473   3.480   3.393
 5838TIP3    H117478   5.391   3.462   3.343
 5838TIP3    H217479   5.456   3.569   3.426
 5839TIP3   OH217480   5.882   2.059   3.384
 5839TIP3    H117481   5.928   2.001   3.320
 5839TIP3    H217482   5.955   2.117   3.414
 5840TIP3   OH217483   6.386   2.247   3.478
 5840TIP3    H117484   6.450   2.202   3.536
 5840TIP3    H217485   6.408   2.341   3.500
 5841TIP3   OH217486   6.251   3.666   2.977
 5841TIP3    H117487   6.338   3.690   2.939
 5841TIP3    H217488   6.228   3.592   2.916
 5842TIP3   OH217489   6.961   3.787   3.073
 5842TIP3    H117490   6.964   3.689   3.061
 5842TIP3    H217491   6.919   3.814   2.989
 5843TIP3   OH217492   6.181   2.315   4.852
 5843TIP3    H117493   6.144   2.247   4.912
 5843TIP3    H217494   6.274   2.316   4.882
 5844TIP3   OH217495   6.430   2.316   4.971
 5844TIP3    H117496   6.517   2.296   4.934
 5844TIP3    H217497   6.422   2.245   5.039
 5845TIP3   OH217498   5.559   3.497   3.031
 5845TIP3    H117499   5.578   3.514   3.124
 5845TIP3    H217500   5.642   3.452   3.002
 5846TIP3   OH217501   7.269   2.381   4.766
 5846TIP3    H117502   7.275   2.352   4.859
 5846TIP3    H217503   7.350   2.342   4.729
 5847TIP3   OH217504   7.186   3.933   4.257
 5847TIP3    H117505   7.108   3.905   4.204
 5847TIP3    H217506   7.169   4.029   4.264
 5848TIP3   OH217507   7.317   3.373   3.077
 5848TIP3    H117508   7.297   3.363   2.981
 5848TIP3    H217509   7.289   3.465   3.096
 5849TIP3   OH217510   7.513   3.454   3.973
 5849TIP3    H117511   7.435   3.417   3.930
 5849TIP3    H217512   7.586   3.407   3.928
 5850TIP3   OH217513   0.460   5.257   5.148
 5850TIP3    H117514   0.541   5.241   5.199
 5850TIP3    H217515   0.437   5.347   5.177
 5851TIP3   OH217516   7.378   3.628   3.121
 5851TIP3    H117517   7.319   3.682   3.063
 5851TIP3    H217518   7.461   3.677   3.109
 5852TIP3   OH217519   7.540   4.177   4.163
 5852TIP3    H117520   7.635   4.159   4.173
 5852TIP3    H217521   7.510   4.091   4.132
 5853TIP3   OH217522   7.168   3.969   3.140
 5853TIP3    H117523   7.107   3.903   3.101
 5853TIP3    H217524   7.218   3.912   3.203
 5854TIP3   OH217525   7.305   3.836   3.330
 5854TIP3    H117526   7.263   3.776   3.393
 5854TIP3    H217527   7.383   3.867   3.381
 5855TIP3   OH217528   7.668   3.934   4.085
 5855TIP3    H117529   7.575   3.904   4.093
 5855TIP3    H217530   7.709   3.845   4.079
 5856TIP3   OH217531   7.529   4.112   3.772
 5856TIP3    H117532   7.453   4.153   3.727
 5856TIP3    H217533   7.556   4.189   3.825
 5857TIP3   OH217534   7.514   3.938   3.473
 5857TIP3    H117535   7.517   3.923   3.570
 5857TIP3    H217536   7.607   3.923   3.450
 5858TIP3   OH217537   7.234   3.741   2.920
 5858TIP3    H117538   7.149   3.716   2.878
 5858TIP3    H217539   7.241   3.831   2.882
 5859TIP3   OH217540   0.916   4.090   4.713
 5859TIP3    H117541   0.878   4.176   4.689
 5859TIP3    H217542   0.849   4.031   4.675
 5860TIP3   OH217543   0.900   4.099   5.105
 5860TIP3    H117544   0.944   4.072   5.188
 5860TIP3    H217545   0.872   4.012   5.070
 5861TIP3   OH217546   1.156   4.400   4.780
 5861TIP3    H117547   1.148   4.326   4.841
 5861TIP3    H217548   1.195   4.469   4.835
 5862TIP3   OH217549   0.810   4.851   4.802
 5862TIP3    H117550   0.836   4.790   4.730
 5862TIP3    H217551   0.832   4.797   4.879
 5863TIP3   OH217552   0.713   4.320   5.141
 5863TIP3    H117553   0.755   4.237   5.113
 5863TIP3    H217554   0.794   4.369   5.165
 5864TIP3   OH217555   1.728   3.639   5.137
 5864TIP3    H117556   1.759   3.722   5.179
 5864TIP3    H217557   1.757   3.651   5.045
 5865TIP3   OH217558   1.122   3.823   5.169
 5865TIP3    H117559   1.168   3.740   5.193
 5865TIP3    H217560   1.091   3.800   5.079
 5866TIP3   OH217561   0.463   3.484   5.139
 5866TIP3    H117562   0.449   3.555   5.073
 5866TIP3    H217563   0.418   3.409   5.093
 5867TIP3   OH217564   1.158   3.574   4.753
 5867TIP3    H117565   1.225   3.558   4.824
 5867TIP3    H217566   1.217   3.604   4.682
 5868TIP3   OH217567   0.539   3.876   5.045
 5868TIP3    H117568   0.634   3.853   5.057
 5868TIP3    H217569   0.502   3.790   5.014
 5869TIP3   OH217570   1.804   3.851   5.305
 5869TIP3    H117571   1.717   3.892   5.287
 5869TIP3    H217572   1.812   3.870   5.399
 5870TIP3   OH217573   0.490   3.435   5.566
 5870TIP3    H117574   0.424   3.474   5.505
 5870TIP3    H217575   0.452   3.463   5.653
 5871TIP3   OH217576   0.780   4.290   4.582
 5871TIP3    H117577   0.766   4.278   4.486
 5871TIP3    H217578   0.772   4.385   4.593
 5872TIP3   OH217579   0.565   4.243   5.359
 5872TIP3    H117580   0.492   4.301   5.382
 5872TIP3    H217581   0.608   4.289   5.284
 5873TIP3   OH217582   1.355   3.583   4.936
 5873TIP3    H117583   1.373   3.514   5.001
 5873TIP3    H217584   1.412   3.656   4.967
 5874TIP3   OH217585   0.343   3.563   5.372
 5874TIP3    H117586   0.398   3.643   5.391
 5874TIP3    H217587   0.390   3.530   5.292
 5875TIP3   OH217588   1.219   4.644   4.943
 5875TIP3    H117589   1.127   4.635   4.977
 5875TIP3    H217590   1.214   4.729   4.896
 5876TIP3   OH217591   1.518   3.544   5.306
 5876TIP3    H117592   1.432   3.567   5.268
 5876TIP3    H217593   1.580   3.574   5.236
 5877TIP3   OH217594   0.812   3.176   5.276
 5877TIP3    H117595   0.805   3.082   5.300
 5877TIP3    H217596   0.734   3.211   5.324
 5878TIP3   OH217597   0.908   4.680   4.605
 5878TIP3    H117598   0.958   4.597   4.586
 5878TIP3    H217599   0.975   4.745   4.573
 5879TIP3   OH217600   1.048   4.459   4.532
 5879TIP3    H117601   1.066   4.385   4.472
 5879TIP3    H217602   1.094   4.431   4.614
 5880TIP3   OH217603   1.445   4.551   5.283
 5880TIP3    H117604   1.439   4.470   5.228
 5880TIP3    H217605   1.437   4.622   5.216
 5881TIP3   OH217606   0.755   3.943   4.547
 5881TIP3    H117607   0.676   3.996   4.524
 5881TIP3    H217608   0.798   3.934   4.460
 5882TIP3   OH217609   0.703   3.730   4.256
 5882TIP3    H117610   0.771   3.785   4.300
 5882TIP3    H217611   0.761   3.667   4.208
 5883TIP3   OH217612   1.645   4.192   5.133
 5883TIP3    H117613   1.561   4.242   5.140
 5883TIP3    H217614   1.674   4.215   5.043
 5884TIP3   OH217615   1.093   4.030   4.512
 5884TIP3    H117616   1.041   4.049   4.592
 5884TIP3    H217617   1.178   4.002   4.553
 5885TIP3   OH217618   1.328   4.062   5.432
 5885TIP3    H117619   1.329   4.143   5.487
 5885TIP3    H217620   1.241   4.071   5.387
 5886TIP3   OH217621   0.344   4.023   4.920
 5886TIP3    H117622   0.307   3.967   4.848
 5886TIP3    H217623   0.414   3.965   4.958
 5887TIP3   OH217624   0.469   4.455   5.087
 5887TIP3    H117625   0.433   4.418   5.004
 5887TIP3    H217626   0.556   4.411   5.095
 5888TIP3   OH217627   0.462   3.996   5.281
 5888TIP3    H117628   0.507   3.963   5.201
 5888TIP3    H217629   0.514   4.075   5.305
 5889TIP3   OH217630   0.972   4.639   5.062
 5889TIP3    H117631   0.975   4.711   5.127
 5889TIP3    H217632   0.966   4.559   5.119
 5890TIP3   OH217633   0.593   4.557   5.583
 5890TIP3    H117634   0.545   4.570   5.668
 5890TIP3    H217635   0.521   4.526   5.527
 5891TIP3   OH217636   0.928   3.890   4.339
 5891TIP3    H117637   0.989   3.948   4.388
 5891TIP3    H217638   0.955   3.908   4.246
 5892TIP3   OH217639   0.628   4.630   4.602
 5892TIP3    H117640   0.718   4.635   4.639
 5892TIP3    H217641   0.638   4.566   4.528
 5893TIP3   OH217642   1.446   3.121   4.390
 5893TIP3    H117643   1.365   3.143   4.440
 5893TIP3    H217644   1.461   3.204   4.341
 5894TIP3   OH217645   0.220   3.899   4.705
 5894TIP3    H117646   0.175   3.903   4.619
 5894TIP3    H217647   0.162   3.837   4.755
 5895TIP3   OH217648   1.249   4.493   3.944
 5895TIP3    H117649   1.258   4.588   3.922
 5895TIP3    H217650   1.341   4.462   3.930
 5896TIP3   OH217651   1.686   4.898   5.334
 5896TIP3    H117652   1.687   4.801   5.349
 5896TIP3    H217653   1.604   4.922   5.382
 5897TIP3   OH217654   0.799   4.674   5.449
 5897TIP3    H117655   0.804   4.765   5.486
 5897TIP3    H217656   0.722   4.638   5.500
 5898TIP3   OH217657   0.758   4.712   4.051
 5898TIP3    H117658   0.815   4.641   4.014
 5898TIP3    H217659   0.799   4.727   4.138
 5899TIP3   OH217660   0.814   4.763   4.322
 5899TIP3    H117661   0.732   4.733   4.362
 5899TIP3    H217662   0.879   4.740   4.390
 5900TIP3   OH217663   1.575   4.024   5.612
 5900TIP3    H117664   1.499   4.032   5.552
 5900TIP3    H217665   1.599   3.930   5.601
 5901TIP3   OH217666   0.577   3.233   5.407
 5901TIP3    H117667   0.487   3.211   5.378
 5901TIP3    H217668   0.557   3.312   5.462
 5902TIP3   OH217669   1.102   3.375   5.603
 5902TIP3    H117670   1.164   3.396   5.677
 5902TIP3    H217671   1.020   3.356   5.654
 5903TIP3   OH217672   1.343   3.800   5.533
 5903TIP3    H117673   1.299   3.803   5.621
 5903TIP3    H217674   1.325   3.888   5.496
 5904TIP3   OH217675   1.011   3.934   4.089
 5904TIP3    H117676   0.970   3.910   4.003
 5904TIP3    H217677   1.097   3.968   4.059
 5905TIP3   OH217678   0.718   3.306   4.391
 5905TIP3    H117679   0.683   3.300   4.482
 5905TIP3    H217680   0.681   3.223   4.354
 5906TIP3   OH217681   0.511   3.777   5.435
 5906TIP3    H117682   0.476   3.804   5.522
 5906TIP3    H217683   0.489   3.856   5.381
 5907TIP3   OH217684   0.389   3.664   4.946
 5907TIP3    H117685   0.296   3.636   4.960
 5907TIP3    H217686   0.405   3.623   4.858
 5908TIP3   OH217687   0.883   3.740   4.682
 5908TIP3    H117688   0.836   3.812   4.634
 5908TIP3    H217689   0.940   3.704   4.611
 5909TIP3   OH217690   1.065   4.035   5.786
 5909TIP3    H117691   1.047   3.953   5.835
 5909TIP3    H217692   1.160   4.048   5.804
 5910TIP3   OH217693   1.036   3.770   4.913
 5910TIP3    H117694   0.972   3.789   4.841
 5910TIP3    H217695   1.077   3.691   4.872
 5911TIP3   OH217696   0.387   3.833   5.671
 5911TIP3    H117697   0.324   3.888   5.720
 5911TIP3    H217698   0.368   3.744   5.704
 5912TIP3   OH217699   0.380   3.278   4.354
 5912TIP3    H117700   0.367   3.281   4.450
 5912TIP3    H217701   0.302   3.329   4.323
 5913TIP3   OH217702   1.036   4.017   5.334
 5913TIP3    H117703   1.075   3.948   5.275
 5913TIP3    H217704   1.014   3.961   5.412
 5914TIP3   OH217705   0.723   3.497   5.013
 5914TIP3    H117706   0.650   3.484   5.076
 5914TIP3    H217707   0.800   3.466   5.064
 5915TIP3   OH217708   0.147   3.535   5.001
 5915TIP3    H117709   0.064   3.503   4.963
 5915TIP3    H217710   0.201   3.453   5.000
 5916TIP3   OH217711   0.414   3.533   4.707
 5916TIP3    H117712   0.510   3.544   4.690
 5916TIP3    H217713   0.372   3.555   4.620
 5917TIP3   OH217714   1.210   3.567   5.223
 5917TIP3    H117715   1.171   3.574   5.312
 5917TIP3    H217716   1.156   3.498   5.182
 5918TIP3   OH217717   0.268   3.572   4.476
 5918TIP3    H117718   0.211   3.518   4.417
 5918TIP3    H217719   0.325   3.615   4.408
 5919TIP3   OH217720   1.382   5.252   5.433
 5919TIP3    H117721   1.382   5.276   5.339
 5919TIP3    H217722   1.464   5.295   5.464
 5920TIP3   OH217723   0.799   3.814   5.109
 5920TIP3    H117724   0.869   3.770   5.058
 5920TIP3    H217725   0.802   3.766   5.194
 5921TIP3   OH217726   0.313   3.305   4.991
 5921TIP3    H117727   0.282   3.225   5.040
 5921TIP3    H217728   0.370   3.265   4.923
 5922TIP3   OH217729   0.780   3.714   5.386
 5922TIP3    H117730   0.690   3.746   5.405
 5922TIP3    H217731   0.837   3.773   5.440
 5923TIP3   OH217732   0.526   4.082   4.490
 5923TIP3    H117733   0.451   4.023   4.467
 5923TIP3    H217734   0.496   4.122   4.575
 5924TIP3   OH217735   1.410   4.336   5.116
 5924TIP3    H117736   1.436   4.386   5.036
 5924TIP3    H217737   1.328   4.289   5.087
 5925TIP3   OH217738   0.970   3.407   4.360
 5925TIP3    H117739   0.874   3.385   4.370
 5925TIP3    H217740   0.975   3.500   4.387
 5926TIP3   OH217741   0.905   4.415   5.482
 5926TIP3    H117742   0.916   4.387   5.573
 5926TIP3    H217743   0.870   4.505   5.490
 5927TIP3   OH217744   1.039   3.659   4.463
 5927TIP3    H117745   1.135   3.661   4.478
 5927TIP3    H217746   1.023   3.739   4.409
 5928TIP3   OH217747   0.225   4.067   5.166
 5928TIP3    H117748   0.254   4.058   5.073
 5928TIP3    H217749   0.307   4.038   5.212
 5929TIP3   OH217750   0.657   4.254   4.323
 5929TIP3    H117751   0.611   4.339   4.330
 5929TIP3    H217752   0.600   4.195   4.377
 5930TIP3   OH217753   0.819   4.159   5.803
 5930TIP3    H117754   0.752   4.093   5.775
 5930TIP3    H217755   0.903   4.115   5.776
 5931TIP3   OH217756   1.070   4.692   5.383
 5931TIP3    H117757   0.975   4.676   5.397
 5931TIP3    H217758   1.094   4.738   5.466
 5932TIP3   OH217759   1.476   3.752   4.295
 5932TIP3    H117760   1.415   3.709   4.231
 5932TIP3    H217761   1.474   3.842   4.257
 5933TIP3   OH217762   1.695   4.613   5.376
 5933TIP3    H117763   1.598   4.599   5.369
 5933TIP3    H217764   1.723   4.577   5.289
 5934TIP3   OH217765   1.184   4.565   4.205
 5934TIP3    H117766   1.156   4.488   4.255
 5934TIP3    H217767   1.199   4.528   4.116
 5935TIP3   OH217768   1.176   4.198   5.030
 5935TIP3    H117769   1.084   4.172   5.045
 5935TIP3    H217770   1.213   4.116   4.990
 5936TIP3   OH217771   0.334   4.425   4.819
 5936TIP3    H117772   0.378   4.447   4.736
 5936TIP3    H217773   0.295   4.339   4.796
 5937TIP3   OH217774   0.443   4.187   4.727
 5937TIP3    H117775   0.489   4.250   4.784
 5937TIP3    H217776   0.415   4.120   4.792
 5938TIP3   OH217777   0.592   4.763   5.238
 5938TIP3    H117778   0.646   4.828   5.189
 5938TIP3    H217779   0.661   4.709   5.281
 5939TIP3   OH217780   0.965   4.406   5.216
 5939TIP3    H117781   0.954   4.401   5.314
 5939TIP3    H217782   1.040   4.346   5.203
 5940TIP3   OH217783   0.945   4.300   4.107
 5940TIP3    H117784   0.994   4.275   4.188
 5940TIP3    H217785   0.857   4.263   4.125
 5941TIP3   OH217786   1.207   4.940   5.276
 5941TIP3    H117787   1.130   4.879   5.269
 5941TIP3    H217788   1.193   4.998   5.198
 5942TIP3   OH217789   1.278   4.767   3.922
 5942TIP3    H117790   1.312   4.837   3.865
 5942TIP3    H217791   1.199   4.812   3.957
 5943TIP3   OH217792   0.376   3.542   5.789
 5943TIP3    H117793   0.281   3.561   5.803
 5943TIP3    H217794   0.395   3.491   5.870
 5944TIP3   OH217795   1.103   4.244   4.335
 5944TIP3    H117796   1.091   4.168   4.396
 5944TIP3    H217797   1.198   4.231   4.313
 5945TIP3   OH217798   0.309   4.262   4.085
 5945TIP3    H117799   0.317   4.168   4.060
 5945TIP3    H217800   0.312   4.256   4.183
 5946TIP3   OH217801   0.308   4.262   4.359
 5946TIP3    H117802   0.304   4.193   4.426
 5946TIP3    H217803   0.223   4.308   4.373
 5947TIP3   OH217804   1.130   3.620   5.484
 5947TIP3    H117805   1.220   3.648   5.508
 5947TIP3    H217806   1.122   3.533   5.531
 5948TIP3   OH217807   1.013   3.360   4.642
 5948TIP3    H117808   1.009   3.379   4.547
 5948TIP3    H217809   1.057   3.440   4.678
 5949TIP3   OH217810   0.556   4.508   4.358
 5949TIP3    H117811   0.461   4.493   4.378
 5949TIP3    H217812   0.547   4.553   4.271
 5950TIP3   OH217813   0.693   3.547   4.743
 5950TIP3    H117814   0.762   3.614   4.725
 5950TIP3    H217815   0.706   3.533   4.840
 5951TIP3   OH217816   0.980   3.851   5.544
 5951TIP3    H117817   1.007   3.885   5.630
 5951TIP3    H217818   1.031   3.768   5.536
 5952TIP3   OH217819   0.844   3.262   4.835
 5952TIP3    H117820   0.869   3.321   4.909
 5952TIP3    H217821   0.906   3.296   4.766
 5953TIP3   OH217822   0.282   4.551   4.384
 5953TIP3    H117823   0.257   4.541   4.290
 5953TIP3    H217824   0.195   4.532   4.424
 5954TIP3   OH217825   0.357   3.268   4.630
 5954TIP3    H117826   0.359   3.359   4.668
 5954TIP3    H217827   0.452   3.247   4.636
 5955TIP3   OH217828   1.612   3.760   5.522
 5955TIP3    H117829   1.514   3.759   5.534
 5955TIP3    H217830   1.619   3.697   5.449
 5956TIP3   OH217831   1.263   3.955   4.915
 5956TIP3    H117832   1.189   3.892   4.926
 5956TIP3    H217833   1.335   3.908   4.962
 5957TIP3   OH217834   1.232   4.911   4.860
 5957TIP3    H117835   1.191   4.960   4.785
 5957TIP3    H217836   1.327   4.930   4.842
 5958TIP3   OH217837   0.301   3.177   5.395
 5958TIP3    H117838   0.276   3.137   5.309
 5958TIP3    H217839   0.295   3.099   5.455
 5959TIP3   OH217840   0.591   4.948   5.851
 5959TIP3    H117841   0.618   4.857   5.874
 5959TIP3    H217842   0.499   4.936   5.822
 5960TIP3   OH217843   0.479   4.469   4.027
 5960TIP3    H117844   0.415   4.397   4.047
 5960TIP3    H217845   0.550   4.418   3.983
 5961TIP3   OH217846   1.131   4.801   5.648
 5961TIP3    H117847   1.190   4.728   5.671
 5961TIP3    H217848   1.194   4.876   5.655
 5962TIP3   OH217849   0.902   4.514   3.927
 5962TIP3    H117850   0.945   4.449   3.986
 5962TIP3    H217851   0.957   4.509   3.846
 5963TIP3   OH217852   0.142   4.002   4.235
 5963TIP3    H117853   0.190   3.967   4.311
 5963TIP3    H217854   0.207   3.988   4.163
 5964TIP3   OH217855   0.772   4.428   5.787
 5964TIP3    H117856   0.713   4.432   5.710
 5964TIP3    H217857   0.793   4.332   5.792
 5965TIP3   OH217858   0.637   4.195   4.052
 5965TIP3    H117859   0.632   4.203   4.149
 5965TIP3    H217860   0.636   4.097   4.042
 5966TIP3   OH217861   1.234   4.453   5.430
 5966TIP3    H117862   1.315   4.485   5.385
 5966TIP3    H217863   1.169   4.520   5.401
 5967TIP3   OH217864   0.320   3.905   4.442
 5967TIP3    H117865   0.324   3.865   4.530
 5967TIP3    H217866   0.360   3.833   4.388
 5968TIP3   OH217867   0.633   3.986   5.707
 5968TIP3    H117868   0.537   3.984   5.693
 5968TIP3    H217869   0.668   4.012   5.619
 5969TIP3   OH217870   0.430   3.699   4.300
 5969TIP3    H117871   0.406   3.705   4.204
 5969TIP3    H217872   0.527   3.694   4.293
 5970TIP3   OH217873   1.242   4.021   3.968
 5970TIP3    H117874   1.223   3.978   3.882
 5970TIP3    H217875   1.206   4.111   3.947
 5971TIP3   OH217876   0.710   3.748   5.819
 5971TIP3    H117877   0.715   3.673   5.757
 5971TIP3    H217878   0.679   3.821   5.762
 5972TIP3   OH217879   0.730   3.550   5.622
 5972TIP3    H117880   0.761   3.584   5.536
 5972TIP3    H217881   0.643   3.512   5.597
 5973TIP3   OH217882   0.744   4.070   5.477
 5973TIP3    H117883   0.834   4.081   5.441
 5973TIP3    H217884   0.695   4.142   5.434
 5974TIP3   OH217885   1.342   4.052   5.869
 5974TIP3    H117886   1.352   3.957   5.877
 5974TIP3    H217887   1.417   4.076   5.814
 5975TIP3   OH217888   1.368   4.289   5.600
 5975TIP3    H117889   1.310   4.348   5.547
 5975TIP3    H217890   1.456   4.310   5.560
 5976TIP3   OH217891   0.595   3.857   6.054
 5976TIP3    H117892   0.521   3.793   6.065
 5976TIP3    H217893   0.625   3.834   5.963
 5977TIP3   OH217894   0.847   3.303   5.696
 5977TIP3    H117895   0.799   3.385   5.674
 5977TIP3    H217896   0.779   3.234   5.682
 5978TIP3   OH217897   0.967   3.812   5.905
 5978TIP3    H117898   0.958   3.784   5.998
 5978TIP3    H217899   0.879   3.784   5.872
 5979TIP3   OH217900   1.225   3.770   5.777
 5979TIP3    H117901   1.143   3.754   5.827
 5979TIP3    H217902   1.268   3.683   5.794
 5980TIP3   OH217903   1.488   3.676   5.922
 5980TIP3    H117904   1.430   3.599   5.904
 5980TIP3    H217905   1.453   3.706   6.007
 5981TIP3   OH217906   0.414   3.655   6.124
 5981TIP3    H117907   0.402   3.572   6.074
 5981TIP3    H217908   0.470   3.624   6.198
 5982TIP3   OH217909   0.933   3.303   5.957
 5982TIP3    H117910   1.015   3.252   5.945
 5982TIP3    H217911   0.900   3.304   5.865
 5983TIP3   OH217912   1.002   3.519   6.120
 5983TIP3    H117913   0.999   3.455   6.047
 5983TIP3    H217914   0.927   3.579   6.100
 5984TIP3   OH217915   0.251   4.791   4.242
 5984TIP3    H117916   0.331   4.763   4.193
 5984TIP3    H217917   0.199   4.826   4.166
 5985TIP3   OH217918   1.488   4.999   4.827
 5985TIP3    H117919   1.517   5.032   4.913
 5985TIP3    H217920   1.554   5.036   4.767
 5986TIP3   OH217921   1.516   5.020   5.110
 5986TIP3    H117922   1.472   4.933   5.102
 5986TIP3    H217923   1.591   4.995   5.167
 5987TIP3   OH217924   1.508   4.733   5.660
 5987TIP3    H117925   1.492   4.695   5.747
 5987TIP3    H217926   1.590   4.785   5.672
 5988TIP3   OH217927   1.377   4.212   4.299
 5988TIP3    H117928   1.443   4.276   4.268
 5988TIP3    H217929   1.422   4.175   4.378
 5989TIP3   OH217930   1.506   4.081   4.506
 5989TIP3    H117931   1.439   4.038   4.563
 5989TIP3    H217932   1.572   4.113   4.570
 5990TIP3   OH217933   1.558   4.473   4.928
 5990TIP3    H117934   1.616   4.403   4.891
 5990TIP3    H217935   1.564   4.543   4.861
 5991TIP3   OH217936   1.391   4.772   5.121
 5991TIP3    H117937   1.319   4.802   5.178
 5991TIP3    H217938   1.344   4.724   5.050
 5992TIP3   OH217939   1.447   3.991   4.143
 5992TIP3    H117940   1.373   3.988   4.078
 5992TIP3    H217941   1.413   4.063   4.201
 5993TIP3   OH217942   1.312   3.661   4.098
 5993TIP3    H117943   1.270   3.687   4.015
 5993TIP3    H217944   1.292   3.565   4.099
 5994TIP3   OH217945   1.318   3.934   4.645
 5994TIP3    H117946   1.327   3.838   4.635
 5994TIP3    H217947   1.305   3.943   4.742
 5995TIP3   OH217948   1.605   4.357   5.495
 5995TIP3    H117949   1.680   4.293   5.493
 5995TIP3    H217950   1.650   4.441   5.476
 5996TIP3   OH217951   1.790   4.152   5.496
 5996TIP3    H117952   1.718   4.113   5.551
 5996TIP3    H217953   1.863   4.092   5.521
 5997TIP3   OH217954   1.258   3.396   4.087
 5997TIP3    H117955   1.334   3.361   4.139
 5997TIP3    H217956   1.187   3.332   4.105
 5998TIP3   OH217957   1.320   3.650   4.536
 5998TIP3    H117958   1.359   3.561   4.554
 5998TIP3    H217959   1.379   3.679   4.464
 5999TIP3   OH217960   1.475   3.825   5.035
 5999TIP3    H117961   1.561   3.848   4.993
 5999TIP3    H217962   1.493   3.859   5.125
 6000TIP3   OH217963   1.551   3.968   5.264
 6000TIP3    H117964   1.475   4.001   5.315
 6000TIP3    H217965   1.586   4.050   5.224
 6001TIP3   OH217966   2.027   3.583   5.823
 6001TIP3    H117967   2.069   3.505   5.780
 6001TIP3    H217968   1.977   3.619   5.746
 6002TIP3   OH217969   1.422   3.400   4.585
 6002TIP3    H117970   1.471   3.383   4.668
 6002TIP3    H217971   1.363   3.322   4.583
 6003TIP3   OH217972   0.127   3.392   5.355
 6003TIP3    H117973   0.174   3.316   5.393
 6003TIP3    H217974   0.197   3.460   5.361
 6004TIP3   OH217975   1.867   3.690   5.627
 6004TIP3    H117976   1.786   3.737   5.653
 6004TIP3    H217977   1.830   3.620   5.570
 6005TIP3   OH217978   1.501   3.331   4.213
 6005TIP3    H117979   1.544   3.261   4.160
 6005TIP3    H217980   1.570   3.400   4.216
 6006TIP3   OH217981   1.069   4.862   4.483
 6006TIP3    H117982   1.120   4.855   4.400
 6006TIP3    H217983   1.118   4.930   4.530
 6007TIP3   OH217984   0.821   4.929   5.540
 6007TIP3    H117985   0.858   4.933   5.631
 6007TIP3    H217986   0.881   4.990   5.493
 6008TIP3   OH217987   0.978   5.109   5.402
 6008TIP3    H117988   1.048   5.060   5.356
 6008TIP3    H217989   1.031   5.163   5.464
 6009TIP3   OH217990   1.764   3.464   5.493
 6009TIP3    H117991   1.673   3.443   5.466
 6009TIP3    H217992   1.803   3.373   5.498
 6010TIP3   OH217993   0.683   4.987   5.071
 6010TIP3    H117994   0.710   5.036   4.991
 6010TIP3    H217995   0.684   5.057   5.139
 6011TIP3   OH217996   0.954   4.910   5.147
 6011TIP3    H117997   0.866   4.930   5.110
 6011TIP3    H217998   1.011   4.974   5.099
 6012TIP3   OH217999   1.150   5.089   5.053
 6012TIP3    H118000   1.144   5.176   5.008
 6012TIP3    H218001   1.185   5.032   4.981
 6013TIP3   OH218002   0.379   4.707   5.074
 6013TIP3    H118003   0.398   4.610   5.069
 6013TIP3    H218004   0.454   4.730   5.134
 6014TIP3   OH218005   0.958   3.363   5.103
 6014TIP3    H118006   0.928   3.295   5.166
 6014TIP3    H218007   1.044   3.327   5.073
 6015TIP3   OH218008   1.493   3.275   5.041
 6015TIP3    H118009   1.530   3.307   4.956
 6015TIP3    H218010   1.398   3.272   5.021
 6016TIP3   OH218011   1.594   3.368   4.801
 6016TIP3    H118012   1.662   3.309   4.761
 6016TIP3    H218013   1.632   3.456   4.778
 6017TIP3   OH218014   0.222   3.077   5.144
 6017TIP3    H118015   0.140   3.026   5.133
 6017TIP3    H218016   0.287   3.002   5.142
 6018TIP3   OH218017   0.039   2.952   4.795
 6018TIP3    H118018   0.069   3.003   4.717
 6018TIP3    H218019  -0.037   3.003   4.825
 6019TIP3   OH218020   0.661   3.122   5.029
 6019TIP3    H118021   0.717   3.156   4.958
 6019TIP3    H218022   0.709   3.152   5.108
 6020TIP3   OH218023   1.208   3.256   5.003
 6020TIP3    H118024   1.238   3.211   4.921
 6020TIP3    H218025   1.197   3.177   5.062
 6021TIP3   OH218026   1.240   3.186   4.567
 6021TIP3    H118027   1.153   3.224   4.588
 6021TIP3    H218028   1.238   3.107   4.625
 6022TIP3   OH218029   0.128   3.104   4.564
 6022TIP3    H118030   0.173   3.043   4.502
 6022TIP3    H218031   0.203   3.161   4.592
 6023TIP3   OH218032   0.634   3.294   4.654
 6023TIP3    H118033   0.695   3.246   4.712
 6023TIP3    H218034   0.658   3.386   4.679
 6024TIP3   OH218035   0.497   4.707   4.152
 6024TIP3    H118036   0.581   4.739   4.112
 6024TIP3    H218037   0.481   4.629   4.093
 6025TIP3   OH218038   1.214   4.833   4.250
 6025TIP3    H118039   1.208   4.736   4.238
 6025TIP3    H218040   1.170   4.864   4.168
 6026TIP3   OH218041   0.429   3.374   6.038
 6026TIP3    H118042   0.399   3.294   6.088
 6026TIP3    H218043   0.523   3.375   6.067
 6027TIP3   OH218044   0.681   3.368   6.158
 6027TIP3    H118045   0.766   3.349   6.112
 6027TIP3    H218046   0.679   3.296   6.224
 6028TIP3   OH218047   1.436   4.983   5.432
 6028TIP3    H118048   1.361   4.953   5.378
 6028TIP3    H218049   1.420   5.079   5.436
 6029TIP3   OH218050   2.712   4.357   4.195
 6029TIP3    H118051   2.674   4.444   4.169
 6029TIP3    H218052   2.641   4.299   4.162
 6030TIP3   OH218053   2.706   4.354   4.587
 6030TIP3    H118054   2.743   4.325   4.673
 6030TIP3    H218055   2.672   4.269   4.553
 6031TIP3   OH218056   2.005   4.245   4.940
 6031TIP3    H118057   2.026   4.171   5.001
 6031TIP3    H218058   2.085   4.299   4.953
 6032TIP3   OH218059   2.957   4.656   4.263
 6032TIP3    H118060   2.935   4.584   4.324
 6032TIP3    H218061   2.987   4.726   4.323
 6033TIP3   OH218062   1.979   4.650   4.663
 6033TIP3    H118063   1.969   4.554   4.666
 6033TIP3    H218064   2.076   4.660   4.658
 6034TIP3   OH218065   1.693   3.876   4.425
 6034TIP3    H118066   1.638   3.948   4.460
 6034TIP3    H218067   1.626   3.810   4.402
 6035TIP3   OH218068   1.746   4.145   4.642
 6035TIP3    H118069   1.789   4.059   4.664
 6035TIP3    H218070   1.823   4.198   4.614
 6036TIP3   OH218071   2.609   5.116   4.283
 6036TIP3    H118072   2.646   5.045   4.225
 6036TIP3    H218073   2.599   5.069   4.366
 6037TIP3   OH218074   2.508   4.576   4.626
 6037TIP3    H118075   2.552   4.495   4.594
 6037TIP3    H218076   2.588   4.626   4.649
 6038TIP3   OH218077   3.527   3.894   4.628
 6038TIP3    H118078   3.557   3.980   4.664
 6038TIP3    H218079   3.539   3.909   4.533
 6039TIP3   OH218080   2.931   4.078   4.659
 6039TIP3    H118081   2.964   3.988   4.674
 6039TIP3    H218082   2.881   4.066   4.576
 6040TIP3   OH218083   2.234   3.724   4.617
 6040TIP3    H118084   2.240   3.793   4.549
 6040TIP3    H218085   2.201   3.648   4.565
 6041TIP3   OH218086   2.947   3.832   4.283
 6041TIP3    H118087   3.034   3.824   4.328
 6041TIP3    H218088   2.964   3.894   4.212
 6042TIP3   OH218089   1.894   3.930   4.724
 6042TIP3    H118090   1.976   3.914   4.775
 6042TIP3    H218091   1.910   3.869   4.649
 6043TIP3   OH218092   2.331   4.139   4.537
 6043TIP3    H118093   2.425   4.111   4.546
 6043TIP3    H218094   2.292   4.065   4.488
 6044TIP3   OH218095   3.601   4.109   4.793
 6044TIP3    H118096   3.516   4.151   4.770
 6044TIP3    H218097   3.602   4.127   4.888
 6045TIP3   OH218098   2.256   3.723   5.061
 6045TIP3    H118099   2.195   3.756   4.992
 6045TIP3    H218100   2.201   3.738   5.141
 6046TIP3   OH218101   2.583   4.567   4.070
 6046TIP3    H118102   2.561   4.561   3.976
 6046TIP3    H218103   2.542   4.653   4.094
 6047TIP3   OH218104   2.365   4.498   4.849
 6047TIP3    H118105   2.305   4.566   4.886
 6047TIP3    H218106   2.407   4.545   4.774
 6048TIP3   OH218107   3.177   3.839   4.421
 6048TIP3    H118108   3.156   3.785   4.499
 6048TIP3    H218109   3.220   3.917   4.461
 6049TIP3   OH218110   2.126   3.836   4.843
 6049TIP3    H118111   2.193   3.905   4.864
 6049TIP3    H218112   2.168   3.793   4.765
 6050TIP3   OH218113   2.191   4.694   4.951
 6050TIP3    H118114   2.165   4.782   4.918
 6050TIP3    H218115   2.112   4.674   5.006
 6051TIP3   OH218116   1.584   4.378   4.184
 6051TIP3    H118117   1.542   4.404   4.099
 6051TIP3    H218118   1.610   4.467   4.219
 6052TIP3   OH218119   3.022   4.900   4.430
 6052TIP3    H118120   2.932   4.890   4.468
 6052TIP3    H218121   3.012   4.985   4.382
 6053TIP3   OH218122   3.313   3.804   4.795
 6053TIP3    H118123   3.224   3.819   4.756
 6053TIP3    H218124   3.372   3.831   4.722
 6054TIP3   OH218125   2.620   3.438   4.790
 6054TIP3    H118126   2.590   3.346   4.787
 6054TIP3    H218127   2.538   3.482   4.822
 6055TIP3   OH218128   2.716   4.941   4.094
 6055TIP3    H118129   2.765   4.857   4.078
 6055TIP3    H218130   2.782   5.004   4.058
 6056TIP3   OH218131   2.860   4.724   4.014
 6056TIP3    H118132   2.849   4.642   3.964
 6056TIP3    H218133   2.900   4.691   4.097
 6057TIP3   OH218134   3.249   4.805   4.772
 6057TIP3    H118135   3.234   4.728   4.712
 6057TIP3    H218136   3.230   4.880   4.711
 6058TIP3   OH218137   2.537   4.209   4.035
 6058TIP3    H118138   2.462   4.261   4.002
 6058TIP3    H218139   2.588   4.193   3.953
 6059TIP3   OH218140   2.496   3.991   3.741
 6059TIP3    H118141   2.565   4.043   3.787
 6059TIP3    H218142   2.553   3.925   3.695
 6060TIP3   OH218143   3.444   4.452   4.622
 6060TIP3    H118144   3.358   4.499   4.623
 6060TIP3    H218145   3.473   4.473   4.531
 6061TIP3   OH218146   2.890   4.285   3.997
 6061TIP3    H118147   2.835   4.306   4.076
 6061TIP3    H218148   2.973   4.256   4.040
 6062TIP3   OH218149   3.122   4.321   4.916
 6062TIP3    H118150   3.115   4.406   4.963
 6062TIP3    H218151   3.035   4.320   4.870
 6063TIP3   OH218152   2.250   4.689   4.567
 6063TIP3    H118153   2.237   4.670   4.472
 6063TIP3    H218154   2.339   4.651   4.584
 6064TIP3   OH218155   2.251   4.257   4.769
 6064TIP3    H118156   2.288   4.221   4.685
 6064TIP3    H218157   2.304   4.338   4.784
 6065TIP3   OH218158   2.780   4.892   4.550
 6065TIP3    H118159   2.770   4.971   4.606
 6065TIP3    H218160   2.765   4.818   4.612
 6066TIP3   OH218161   2.395   4.809   5.097
 6066TIP3    H118162   2.333   4.869   5.144
 6066TIP3    H218163   2.332   4.755   5.046
 6067TIP3   OH218164   2.709   4.146   3.831
 6067TIP3    H118165   2.781   4.186   3.884
 6067TIP3    H218166   2.746   4.158   3.740
 6068TIP3   OH218167   2.149   4.366   5.195
 6068TIP3    H118168   2.155   4.451   5.241
 6068TIP3    H218169   2.058   4.340   5.219
 6069TIP3   OH218170   2.469   4.822   4.106
 6069TIP3    H118171   2.555   4.868   4.108
 6069TIP3    H218172   2.414   4.883   4.055
 6070TIP3   OH218173   2.187   4.974   5.185
 6070TIP3    H118174   2.152   4.978   5.094
 6070TIP3    H218175   2.106   4.954   5.238
 6071TIP3   OH218176   3.045   4.748   3.428
 6071TIP3    H118177   3.054   4.844   3.410
 6071TIP3    H218178   3.138   4.717   3.414
 6072TIP3   OH218179   1.767   4.508   5.135
 6072TIP3    H118180   1.702   4.481   5.067
 6072TIP3    H218181   1.808   4.423   5.162
 6073TIP3   OH218182   1.623   4.702   4.760
 6073TIP3    H118183   1.719   4.696   4.753
 6073TIP3    H218184   1.614   4.778   4.821
 6074TIP3   OH218185   3.485   5.157   4.822
 6074TIP3    H118186   3.484   5.060   4.835
 6074TIP3    H218187   3.402   5.182   4.867
 6075TIP3   OH218188   2.590   4.937   4.954
 6075TIP3    H118189   2.586   5.030   4.987
 6075TIP3    H218190   2.518   4.896   5.008
 6076TIP3   OH218191   2.357   5.063   3.907
 6076TIP3    H118192   2.311   5.046   3.824
 6076TIP3    H218193   2.322   5.149   3.934
 6077TIP3   OH218194   1.791   4.915   4.294
 6077TIP3    H118195   1.839   4.906   4.379
 6077TIP3    H218196   1.738   4.833   4.294
 6078TIP3   OH218197   2.554   4.969   3.543
 6078TIP3    H118198   2.612   4.899   3.507
 6078TIP3    H218199   2.590   4.979   3.633
 6079TIP3   OH218200   2.608   5.018   3.812
 6079TIP3    H118201   2.519   5.027   3.854
 6079TIP3    H218202   2.658   4.979   3.885
 6080TIP3   OH218203   3.372   4.281   5.093
 6080TIP3    H118204   3.288   4.291   5.046
 6080TIP3    H218205   3.389   4.186   5.082
 6081TIP3   OH218206   1.969   4.693   5.114
 6081TIP3    H118207   2.021   4.675   5.196
 6081TIP3    H218208   1.896   4.629   5.124
 6082TIP3   OH218209   2.372   3.514   4.908
 6082TIP3    H118210   2.283   3.484   4.878
 6082TIP3    H218211   2.345   3.595   4.955
 6083TIP3   OH218212   2.906   3.632   5.099
 6083TIP3    H118213   2.974   3.600   5.162
 6083TIP3    H218214   2.822   3.610   5.144
 6084TIP3   OH218215   3.148   4.062   5.024
 6084TIP3    H118216   3.090   4.058   5.103
 6084TIP3    H218217   3.118   4.144   4.980
 6085TIP3   OH218218   2.805   4.179   3.578
 6085TIP3    H118219   2.768   4.157   3.491
 6085TIP3    H218220   2.889   4.221   3.552
 6086TIP3   OH218221   2.300   4.038   4.921
 6086TIP3    H118222   2.248   4.055   5.002
 6086TIP3    H218223   2.280   4.118   4.868
 6087TIP3   OH218224   2.174   3.909   4.407
 6087TIP3    H118225   2.089   3.877   4.443
 6087TIP3    H218226   2.189   3.840   4.340
 6088TIP3   OH218227   2.711   4.033   4.163
 6088TIP3    H118228   2.643   4.092   4.127
 6088TIP3    H218229   2.694   3.951   4.115
 6089TIP3   OH218230   2.852   4.277   5.252
 6089TIP3    H118231   2.829   4.204   5.313
 6089TIP3    H218232   2.947   4.287   5.272
 6090TIP3   OH218233   2.832   4.044   4.407
 6090TIP3    H118234   2.778   4.065   4.328
 6090TIP3    H218235   2.860   3.954   4.382
 6091TIP3   OH218236   2.118   4.059   5.128
 6091TIP3    H118237   2.146   4.120   5.198
 6091TIP3    H218238   2.108   3.975   5.178
 6092TIP3   OH218239   2.164   3.543   3.862
 6092TIP3    H118240   2.177   3.536   3.958
 6092TIP3    H218241   2.082   3.593   3.854
 6093TIP3   OH218242   1.720   3.588   4.703
 6093TIP3    H118243   1.795   3.613   4.760
 6093TIP3    H218244   1.762   3.545   4.627
 6094TIP3   OH218245   1.675   3.551   4.232
 6094TIP3    H118246   1.732   3.581   4.158
 6094TIP3    H218247   1.617   3.629   4.242
 6095TIP3   OH218248   2.850   4.273   4.822
 6095TIP3    H118249   2.882   4.203   4.762
 6095TIP3    H218250   2.815   4.218   4.896
 6096TIP3   OH218251   2.515   3.799   4.550
 6096TIP3    H118252   2.443   3.740   4.576
 6096TIP3    H218253   2.590   3.738   4.541
 6097TIP3   OH218254   1.947   3.779   4.484
 6097TIP3    H118255   1.853   3.795   4.460
 6097TIP3    H218256   1.974   3.709   4.421
 6098TIP3   OH218257   3.005   3.813   4.706
 6098TIP3    H118258   2.968   3.829   4.795
 6098TIP3    H218259   2.936   3.753   4.670
 6099TIP3   OH218260   2.009   3.889   3.967
 6099TIP3    H118261   1.964   3.810   3.933
 6099TIP3    H218262   2.085   3.888   3.905
 6100TIP3   OH218263   3.181   5.503   4.921
 6100TIP3    H118264   3.178   5.527   4.826
 6100TIP3    H218265   3.262   5.550   4.950
 6101TIP3   OH218266   2.132   4.615   5.336
 6101TIP3    H118267   2.211   4.642   5.386
 6101TIP3    H218268   2.069   4.601   5.409
 6102TIP3   OH218269   2.598   4.077   4.603
 6102TIP3    H118270   2.631   4.016   4.536
 6102TIP3    H218271   2.588   4.015   4.678
 6103TIP3   OH218272   2.569   3.964   4.894
 6103TIP3    H118273   2.479   4.003   4.898
 6103TIP3    H218274   2.626   4.033   4.933
 6104TIP3   OH218275   2.292   4.357   3.970
 6104TIP3    H118276   2.229   4.282   3.967
 6104TIP3    H218277   2.277   4.388   4.062
 6105TIP3   OH218278   3.206   4.590   4.604
 6105TIP3    H118279   3.229   4.641   4.524
 6105TIP3    H218280   3.123   4.545   4.578
 6106TIP3   OH218281   2.709   4.675   4.975
 6106TIP3    H118282   2.737   4.653   5.065
 6106TIP3    H218283   2.669   4.763   4.985
 6107TIP3   OH218284   2.002   4.351   4.657
 6107TIP3    H118285   2.088   4.334   4.618
 6107TIP3    H218286   2.015   4.309   4.744
 6108TIP3   OH218287   2.456   4.504   3.803
 6108TIP3    H118288   2.407   4.590   3.805
 6108TIP3    H218289   2.399   4.450   3.862
 6109TIP3   OH218290   1.887   4.296   5.264
 6109TIP3    H118291   1.905   4.286   5.360
 6109TIP3    H218292   1.816   4.231   5.253
 6110TIP3   OH218293   2.612   4.415   5.287
 6110TIP3    H118294   2.548   4.354   5.247
 6110TIP3    H218295   2.697   4.375   5.257
 6111TIP3   OH218296   2.867   4.937   4.872
 6111TIP3    H118297   2.771   4.931   4.886
 6111TIP3    H218298   2.894   4.988   4.952
 6112TIP3   OH218299   3.312   4.039   3.799
 6112TIP3    H118300   3.275   3.956   3.768
 6112TIP3    H218301   3.279   4.104   3.734
 6113TIP3   OH218302   3.499   4.869   4.858
 6113TIP3    H118303   3.402   4.860   4.851
 6113TIP3    H218304   3.525   4.836   4.770
 6114TIP3   OH218305   2.982   4.823   3.692
 6114TIP3    H118306   2.952   4.751   3.749
 6114TIP3    H218307   2.995   4.779   3.606
 6115TIP3   OH218308   2.974   4.453   4.522
 6115TIP3    H118309   2.881   4.429   4.536
 6115TIP3    H218310   3.007   4.372   4.479
 6116TIP3   OH218311   2.110   4.683   4.284
 6116TIP3    H118312   2.111   4.762   4.227
 6116TIP3    H218313   2.015   4.668   4.293
 6117TIP3   OH218314   1.681   3.987   4.003
 6117TIP3    H118315   1.679   4.082   3.982
 6117TIP3    H218316   1.593   3.978   4.048
 6118TIP3   OH218317   2.222   4.433   4.220
 6118TIP3    H118318   2.190   4.523   4.240
 6118TIP3    H218319   2.271   4.410   4.300
 6119TIP3   OH218320   2.375   5.023   4.747
 6119TIP3    H118321   2.418   5.096   4.697
 6119TIP3    H218322   2.451   4.984   4.793
 6120TIP3   OH218323   2.023   4.920   4.132
 6120TIP3    H118324   1.937   4.931   4.178
 6120TIP3    H218325   2.056   5.013   4.134
 6121TIP3   OH218326   2.757   4.660   4.707
 6121TIP3    H118327   2.747   4.657   4.805
 6121TIP3    H218328   2.831   4.599   4.694
 6122TIP3   OH218329   2.741   4.556   3.593
 6122TIP3    H118330   2.794   4.531   3.673
 6122TIP3    H218331   2.654   4.521   3.618
 6123TIP3   OH218332   3.009   5.189   4.758
 6123TIP3    H118333   2.929   5.133   4.754
 6123TIP3    H218334   2.991   5.253   4.685
 6124TIP3   OH218335   3.074   5.023   3.408
 6124TIP3    H118336   3.110   5.096   3.354
 6124TIP3    H218337   2.994   5.067   3.444
 6125TIP3   OH218338   2.089   3.803   5.271
 6125TIP3    H118339   1.992   3.806   5.282
 6125TIP3    H218340   2.116   3.746   5.345
 6126TIP3   OH218341   2.899   4.494   3.813
 6126TIP3    H118342   2.885   4.420   3.876
 6126TIP3    H218343   2.996   4.483   3.796
 6127TIP3   OH218344   1.811   4.882   4.907
 6127TIP3    H118345   1.865   4.813   4.949
 6127TIP3    H218346   1.837   4.960   4.959
 6128TIP3   OH218347   2.098   4.533   3.593
 6128TIP3    H118348   2.113   4.441   3.565
 6128TIP3    H218349   2.076   4.521   3.688
 6129TIP3   OH218350   2.045   4.535   3.867
 6129TIP3    H118351   2.131   4.511   3.907
 6129TIP3    H218352   2.047   4.633   3.874
 6130TIP3   OH218353   1.802   4.217   4.111
 6130TIP3    H118354   1.731   4.269   4.154
 6130TIP3    H218355   1.833   4.285   4.048
 6131TIP3   OH218356   2.931   3.875   4.969
 6131TIP3    H118357   3.019   3.900   5.000
 6131TIP3    H218358   2.916   3.790   5.016
 6132TIP3   OH218359   2.312   4.732   3.813
 6132TIP3    H118360   2.225   4.758   3.848
 6132TIP3    H218361   2.327   4.803   3.749
 6133TIP3   OH218362   2.772   4.114   5.027
 6133TIP3    H118363   2.800   4.157   5.110
 6133TIP3    H218364   2.820   4.029   5.029
 6134TIP3   OH218365   2.058   4.808   3.881
 6134TIP3    H118366   2.029   4.879   3.819
 6134TIP3    H218367   2.043   4.852   3.968
 6135TIP3   OH218368   3.411   4.013   5.010
 6135TIP3    H118369   3.314   4.018   5.024
 6135TIP3    H218370   3.412   3.957   4.931
 6136TIP3   OH218371   3.060   4.211   4.404
 6136TIP3    H118372   2.979   4.157   4.415
 6136TIP3    H218373   3.126   4.159   4.455
 6137TIP3   OH218374   1.777   4.423   3.880
 6137TIP3    H118375   1.846   4.492   3.885
 6137TIP3    H218376   1.818   4.366   3.811
 6138TIP3   OH218377   1.713   3.711   4.009
 6138TIP3    H118378   1.712   3.808   4.002
 6138TIP3    H218379   1.641   3.684   3.951
 6139TIP3   OH218380   3.030   5.171   4.349
 6139TIP3    H118381   2.987   5.218   4.275
 6139TIP3    H218382   3.124   5.188   4.328
 6140TIP3   OH218383   2.105   3.440   4.888
 6140TIP3    H118384   2.073   3.407   4.801
 6140TIP3    H218385   2.095   3.360   4.943
 6141TIP3   OH218386   1.636   4.644   4.251
 6141TIP3    H118387   1.578   4.679   4.321
 6141TIP3    H218388   1.603   4.692   4.172
 6142TIP3   OH218389   1.805   5.201   5.332
 6142TIP3    H118390   1.892   5.202   5.378
 6142TIP3    H218391   1.787   5.106   5.329
 6143TIP3   OH218392   2.279   5.155   5.374
 6143TIP3    H118393   2.374   5.135   5.380
 6143TIP3    H218394   2.252   5.092   5.304
 6144TIP3   OH218395   2.264   4.733   3.502
 6144TIP3    H118396   2.210   4.659   3.538
 6144TIP3    H218397   2.339   4.684   3.464
 6145TIP3   OH218398   2.918   5.068   5.111
 6145TIP3    H118399   2.913   4.997   5.179
 6145TIP3    H218400   2.997   5.119   5.140
 6146TIP3   OH218401   2.698   4.771   3.416
 6146TIP3    H118402   2.737   4.704   3.477
 6146TIP3    H218403   2.756   4.764   3.338
 6147TIP3   OH218404   1.931   4.618   5.533
 6147TIP3    H118405   1.940   4.531   5.577
 6147TIP3    H218406   1.846   4.607   5.485
 6148TIP3   OH218407   1.909   4.242   3.729
 6148TIP3    H118408   1.973   4.208   3.794
 6148TIP3    H218409   1.970   4.253   3.652
 6149TIP3   OH218410   2.539   4.690   5.304
 6149TIP3    H118411   2.497   4.710   5.218
 6149TIP3    H218412   2.568   4.597   5.293
 6150TIP3   OH218413   2.427   4.450   3.534
 6150TIP3    H118414   2.431   4.460   3.631
 6150TIP3    H218415   2.430   4.352   3.526
 6151TIP3   OH218416   3.033   4.703   4.916
 6151TIP3    H118417   3.108   4.743   4.870
 6151TIP3    H218418   2.962   4.767   4.895
 6152TIP3   OH218419   2.038   4.337   5.513
 6152TIP3    H118420   2.120   4.290   5.533
 6152TIP3    H218421   1.990   4.329   5.598
 6153TIP3   OH218422   2.114   4.139   3.954
 6153TIP3    H118423   2.100   4.051   3.991
 6153TIP3    H218424   2.166   4.109   3.876
 6154TIP3   OH218425   2.388   4.223   5.179
 6154TIP3    H118426   2.307   4.279   5.174
 6154TIP3    H218427   2.439   4.256   5.102
 6155TIP3   OH218428   2.222   3.959   3.783
 6155TIP3    H118429   2.201   3.958   3.687
 6155TIP3    H218430   2.320   3.953   3.779
 6156TIP3   OH218431   2.909   4.625   5.308
 6156TIP3    H118432   2.978   4.584   5.254
 6156TIP3    H218433   2.896   4.558   5.378
 6157TIP3   OH218434   3.030   4.280   3.453
 6157TIP3    H118435   3.015   4.234   3.369
 6157TIP3    H218436   2.995   4.369   3.429
 6158TIP3   OH218437   2.514   4.011   5.295
 6158TIP3    H118438   2.512   3.932   5.237
 6158TIP3    H218439   2.467   4.078   5.240
 6159TIP3   OH218440   2.514   3.796   5.112
 6159TIP3    H118441   2.543   3.839   5.028
 6159TIP3    H218442   2.421   3.774   5.091
 6160TIP3   OH218443   2.534   4.330   4.984
 6160TIP3    H118444   2.621   4.337   4.941
 6160TIP3    H218445   2.481   4.395   4.934
 6161TIP3   OH218446   3.120   4.296   5.360
 6161TIP3    H118447   3.163   4.209   5.362
 6161TIP3    H218448   3.188   4.351   5.318
 6162TIP3   OH218449   3.160   4.554   5.102
 6162TIP3    H118450   3.103   4.609   5.043
 6162TIP3    H218451   3.248   4.574   5.062
 6163TIP3   OH218452   2.396   4.111   5.536
 6163TIP3    H118453   2.324   4.047   5.551
 6163TIP3    H218454   2.421   4.090   5.444
 6164TIP3   OH218455   2.646   3.558   5.181
 6164TIP3    H118456   2.595   3.639   5.155
 6164TIP3    H218457   2.579   3.488   5.166
 6165TIP3   OH218458   2.769   4.058   5.393
 6165TIP3    H118459   2.747   4.042   5.486
 6165TIP3    H218460   2.682   4.036   5.353
 6166TIP3   OH218461   3.012   4.020   5.253
 6166TIP3    H118462   2.935   4.015   5.313
 6166TIP3    H218463   3.084   3.984   5.308
 6167TIP3   OH218464   3.247   3.957   5.397
 6167TIP3    H118465   3.257   3.860   5.410
 6167TIP3    H218466   3.240   3.990   5.489
 6168TIP3   OH218467   2.228   3.895   5.588
 6168TIP3    H118468   2.228   3.803   5.555
 6168TIP3    H218469   2.266   3.882   5.677
 6169TIP3   OH218470   2.737   3.566   5.439
 6169TIP3    H118471   2.801   3.493   5.429
 6169TIP3    H218472   2.697   3.566   5.350
 6170TIP3   OH218473   2.807   3.782   5.595
 6170TIP3    H118474   2.785   3.710   5.531
 6170TIP3    H218475   2.728   3.840   5.587
 6171TIP3   OH218476   2.030   5.013   3.695
 6171TIP3    H118477   2.124   5.002   3.674
 6171TIP3    H218478   2.002   5.065   3.617
 6172TIP3   OH218479   1.505   4.391   3.910
 6172TIP3    H118480   1.601   4.410   3.896
 6172TIP3    H218481   1.496   4.304   3.866
 6173TIP3   OH218482   1.423   5.004   4.326
 6173TIP3    H118483   1.358   4.944   4.284
 6173TIP3    H218484   1.467   4.942   4.389
 6174TIP3   OH218485   1.559   4.847   4.510
 6174TIP3    H118486   1.547   4.780   4.580
 6174TIP3    H218487   1.612   4.913   4.559
 6175TIP3   OH218488   3.286   5.255   4.312
 6175TIP3    H118489   3.314   5.287   4.400
 6175TIP3    H218490   3.354   5.294   4.253
 6176TIP3   OH218491   3.313   5.276   4.595
 6176TIP3    H118492   3.266   5.190   4.589
 6176TIP3    H218493   3.388   5.250   4.650
 6177TIP3   OH218494   3.361   4.952   5.168
 6177TIP3    H118495   3.288   4.963   5.233
 6177TIP3    H218496   3.403   5.041   5.171
 6178TIP3   OH218497   3.175   4.466   3.781
 6178TIP3    H118498   3.241   4.530   3.749
 6178TIP3    H218499   3.220   4.429   3.861
 6179TIP3   OH218500   3.301   4.342   3.991
 6179TIP3    H118501   3.232   4.297   4.045
 6179TIP3    H218502   3.363   4.375   4.059
 6180TIP3   OH218503   3.364   4.730   4.421
 6180TIP3    H118504   3.413   4.658   4.375
 6180TIP3    H218505   3.359   4.799   4.353
 6181TIP3   OH218506   3.187   5.028   4.614
 6181TIP3    H118507   3.114   5.068   4.664
 6181TIP3    H218508   3.139   4.982   4.542
 6182TIP3   OH218509   3.234   4.242   3.626
 6182TIP3    H118510   3.163   4.248   3.558
 6182TIP3    H218511   3.206   4.315   3.685
 6183TIP3   OH218512   3.118   4.197   4.138
 6183TIP3    H118513   3.161   4.111   4.141
 6183TIP3    H218514   3.096   4.212   4.232
 6184TIP3   OH218515   1.739   4.274   4.886
 6184TIP3    H118516   1.733   4.229   4.798
 6184TIP3    H218517   1.836   4.270   4.902
 6185TIP3   OH218518   3.408   4.617   4.994
 6185TIP3    H118519   3.478   4.549   4.981
 6185TIP3    H218520   3.428   4.681   4.924
 6186TIP3   OH218521   3.589   4.415   4.999
 6186TIP3    H118522   3.513   4.367   5.038
 6186TIP3    H218523   3.662   4.352   5.019
 6187TIP3   OH218524   3.276   4.076   4.526
 6187TIP3    H118525   3.360   4.102   4.484
 6187TIP3    H218526   3.289   4.115   4.615
 6188TIP3   OH218527   3.349   4.226   4.752
 6188TIP3    H118528   3.270   4.258   4.800
 6188TIP3    H218529   3.380   4.308   4.709
 6189TIP3   OH218530   1.961   3.947   5.563
 6189TIP3    H118531   2.059   3.943   5.566
 6189TIP3    H218532   1.938   3.858   5.596
 6190TIP3   OH218533   3.798   3.823   5.308
 6190TIP3    H118534   3.859   3.758   5.265
 6190TIP3    H218535   3.764   3.872   5.229
 6191TIP3   OH218536   1.919   3.645   4.892
 6191TIP3    H118537   1.978   3.567   4.898
 6191TIP3    H218538   1.985   3.716   4.878
 6192TIP3   OH218539   1.719   3.917   4.952
 6192TIP3    H118540   1.774   3.909   4.871
 6192TIP3    H218541   1.763   3.988   5.000
 6193TIP3   OH218542   3.662   3.951   5.110
 6193TIP3    H118543   3.577   3.997   5.124
 6193TIP3    H218544   3.631   3.877   5.054
 6194TIP3   OH218545   1.708   3.418   4.465
 6194TIP3    H118546   1.615   3.412   4.491
 6194TIP3    H218547   1.703   3.476   4.386
 6195TIP3   OH218548   2.868   5.126   3.967
 6195TIP3    H118549   2.917   5.114   3.883
 6195TIP3    H218550   2.924   5.190   4.013
 6196TIP3   OH218551   1.931   3.502   5.270
 6196TIP3    H118552   1.877   3.495   5.351
 6196TIP3    H218553   1.865   3.538   5.208
 6197TIP3   OH218554   1.966   4.935   5.348
 6197TIP3    H118555   1.874   4.904   5.333
 6197TIP3    H218556   1.985   4.898   5.435
 6198TIP3   OH218557   2.149   4.965   4.898
 6198TIP3    H118558   2.103   5.042   4.858
 6198TIP3    H218559   2.235   4.977   4.853
 6199TIP3   OH218560   2.586   5.205   5.036
 6199TIP3    H118561   2.629   5.203   5.124
 6199TIP3    H218562   2.652   5.257   4.984
 6200TIP3   OH218563   2.766   5.360   4.898
 6200TIP3    H118564   2.835   5.309   4.853
 6200TIP3    H218565   2.821   5.416   4.958
 6201TIP3   OH218566   3.565   3.715   4.995
 6201TIP3    H118567   3.474   3.701   4.961
 6201TIP3    H218568   3.601   3.624   4.986
 6202TIP3   OH218569   1.821   5.216   4.923
 6202TIP3    H118570   1.731   5.247   4.902
 6202TIP3    H218571   1.838   5.265   5.005
 6203TIP3   OH218572   2.059   5.197   4.782
 6203TIP3    H118573   1.970   5.208   4.824
 6203TIP3    H218574   2.041   5.228   4.691
 6204TIP3   OH218575   2.483   5.222   4.581
 6204TIP3    H118576   2.415   5.239   4.514
 6204TIP3    H218577   2.494   5.310   4.621
 6205TIP3   OH218578   2.754   5.162   4.635
 6205TIP3    H118579   2.660   5.180   4.613
 6205TIP3    H218580   2.799   5.232   4.585
 6206TIP3   OH218581   2.959   5.353   4.543
 6206TIP3    H118582   2.945   5.436   4.494
 6206TIP3    H218583   2.986   5.292   4.470
 6207TIP3   OH218584   1.731   5.008   4.666
 6207TIP3    H118585   1.759   4.980   4.756
 6207TIP3    H218586   1.804   4.966   4.615
 6208TIP3   OH218587   1.929   4.884   4.527
 6208TIP3    H118588   1.945   4.799   4.576
 6208TIP3    H218589   2.020   4.920   4.523
 6209TIP3   OH218590   2.196   4.975   4.534
 6209TIP3    H118591   2.228   4.884   4.522
 6209TIP3    H218592   2.245   4.999   4.615
 6210TIP3   OH218593   2.781   3.641   4.632
 6210TIP3    H118594   2.730   3.571   4.677
 6210TIP3    H218595   2.833   3.591   4.567
 6211TIP3   OH218596   3.290   3.519   4.530
 6211TIP3    H118597   3.330   3.564   4.452
 6211TIP3    H218598   3.194   3.531   4.513
 6212TIP3   OH218599   3.402   3.602   4.298
 6212TIP3    H118600   3.461   3.563   4.232
 6212TIP3    H218601   3.411   3.696   4.272
 6213TIP3   OH218602   2.009   3.342   4.657
 6213TIP3    H118603   1.918   3.308   4.647
 6213TIP3    H218604   2.061   3.268   4.622
 6214TIP3   OH218605   1.799   3.213   4.277
 6214TIP3    H118606   1.840   3.270   4.209
 6214TIP3    H218607   1.782   3.277   4.349
 6215TIP3   OH218608   3.013   3.515   4.490
 6215TIP3    H118609   3.009   3.470   4.405
 6215TIP3    H218610   2.994   3.441   4.552
 6216TIP3   OH218611   1.520   4.791   4.057
 6216TIP3    H118612   1.434   4.758   4.025
 6216TIP3    H218613   1.514   4.883   4.025
 6217TIP3   OH218614   1.940   3.382   4.050
 6217TIP3    H118615   1.993   3.321   3.996
 6217TIP3    H218616   2.008   3.418   4.111
 6218TIP3   OH218617   2.295   4.966   3.640
 6218TIP3    H118618   2.383   4.990   3.604
 6218TIP3    H218619   2.273   4.893   3.579
 6219TIP3   OH218620   3.014   5.090   3.735
 6219TIP3    H118621   3.008   4.992   3.725
 6219TIP3    H218622   2.968   5.120   3.654
 6220TIP3   OH218623   2.225   3.624   5.522
 6220TIP3    H118624   2.185   3.555   5.578
 6220TIP3    H218625   2.318   3.620   5.553
 6221TIP3   OH218626   2.477   3.621   5.642
 6221TIP3    H118627   2.560   3.593   5.599
 6221TIP3    H218628   2.463   3.548   5.707
 6222TIP3   OH218629   1.598   4.804   3.691
 6222TIP3    H118630   1.606   4.827   3.785
 6222TIP3    H218631   1.685   4.760   3.674
 6223TIP3   OH218632   3.305   3.684   5.426
 6223TIP3    H118633   3.321   3.653   5.517
 6223TIP3    H218634   3.394   3.677   5.386
 6224TIP3   OH218635   3.236   5.232   4.920
 6224TIP3    H118636   3.158   5.203   4.868
 6224TIP3    H218637   3.217   5.328   4.927
 6225TIP3   OH218638   4.508   4.613   3.681
 6225TIP3    H118639   4.470   4.699   3.654
 6225TIP3    H218640   4.436   4.553   3.653
 6226TIP3   OH218641   4.509   4.611   4.071
 6226TIP3    H118642   4.541   4.580   4.157
 6226TIP3    H218643   4.474   4.529   4.033
 6227TIP3   OH218644   3.803   4.499   4.432
 6227TIP3    H118645   3.832   4.428   4.492
 6227TIP3    H218646   3.884   4.551   4.424
 6228TIP3   OH218647   4.756   4.911   3.750
 6228TIP3    H118648   4.728   4.843   3.813
 6228TIP3    H218649   4.784   4.984   3.807
 6229TIP3   OH218650   3.779   4.916   4.155
 6229TIP3    H118651   3.771   4.818   4.157
 6229TIP3    H218652   3.876   4.924   4.145
 6230TIP3   OH218653   3.504   4.130   3.969
 6230TIP3    H118654   3.437   4.200   3.968
 6230TIP3    H218655   3.460   4.069   3.906
 6231TIP3   OH218656   3.538   4.410   4.120
 6231TIP3    H118657   3.586   4.328   4.146
 6231TIP3    H218658   3.581   4.432   4.036
 6232TIP3   OH218659   4.406   5.373   3.770
 6232TIP3    H118660   4.444   5.303   3.713
 6232TIP3    H218661   4.391   5.325   3.852
 6233TIP3   OH218662   4.302   4.833   4.116
 6233TIP3    H118663   4.344   4.757   4.074
 6233TIP3    H218664   4.384   4.882   4.141
 6234TIP3   OH218665   5.323   4.152   4.117
 6234TIP3    H118666   5.352   4.235   4.158
 6234TIP3    H218667   5.341   4.170   4.023
 6235TIP3   OH218668   4.721   4.332   4.145
 6235TIP3    H118669   4.758   4.243   4.161
 6235TIP3    H218670   4.679   4.319   4.058
 6236TIP3   OH218671   4.006   3.987   4.102
 6236TIP3    H118672   4.057   4.028   4.030
 6236TIP3    H218673   4.024   3.893   4.087
 6237TIP3   OH218674   4.747   4.092   3.767
 6237TIP3    H118675   4.839   4.075   3.795
 6237TIP3    H218676   4.746   4.073   3.672
 6238TIP3   OH218677   3.672   4.189   4.213
 6238TIP3    H118678   3.758   4.157   4.244
 6238TIP3    H218679   3.646   4.126   4.144
 6239TIP3   OH218680   4.135   4.384   4.011
 6239TIP3    H118681   4.230   4.388   4.036
 6239TIP3    H218682   4.136   4.298   3.967
 6240TIP3   OH218683   5.395   4.364   4.283
 6240TIP3    H118684   5.309   4.407   4.263
 6240TIP3    H218685   5.411   4.397   4.373
 6241TIP3   OH218686   4.052   3.978   4.549
 6241TIP3    H118687   3.992   4.015   4.481
 6241TIP3    H218688   3.998   3.993   4.629
 6242TIP3   OH218689   4.388   4.826   3.553
 6242TIP3    H118690   4.352   4.815   3.464
 6242TIP3    H218691   4.344   4.909   3.581
 6243TIP3   OH218692   4.158   4.753   4.336
 6243TIP3    H118693   4.099   4.823   4.372
 6243TIP3    H218694   4.200   4.799   4.261
 6244TIP3   OH218695   4.983   4.093   3.902
 6244TIP3    H118696   4.941   4.047   3.976
 6244TIP3    H218697   5.015   4.175   3.945
 6245TIP3   OH218698   3.916   4.095   4.336
 6245TIP3    H118699   3.979   4.168   4.358
 6245TIP3    H218700   3.956   4.060   4.254
 6246TIP3   OH218701   3.989   4.951   4.439
 6246TIP3    H118702   3.963   5.037   4.402
 6246TIP3    H218703   3.909   4.932   4.493
 6247TIP3   OH218704   3.374   4.639   3.672
 6247TIP3    H118705   3.334   4.666   3.587
 6247TIP3    H218706   3.408   4.724   3.706
 6248TIP3   OH218707   4.819   5.156   3.915
 6248TIP3    H118708   4.729   5.146   3.954
 6248TIP3    H218709   4.809   5.242   3.868
 6249TIP3   OH218710   5.111   4.050   4.280
 6249TIP3    H118711   5.023   4.072   4.244
 6249TIP3    H218712   5.171   4.083   4.209
 6250TIP3   OH218713   4.404   3.692   4.263
 6250TIP3    H118714   4.382   3.598   4.274
 6250TIP3    H218715   4.327   3.733   4.309
 6251TIP3   OH218716   4.515   5.199   3.583
 6251TIP3    H118717   4.564   5.114   3.567
 6251TIP3    H218718   4.580   5.262   3.545
 6252TIP3   OH218719   4.660   4.983   3.501
 6252TIP3    H118720   4.631   4.902   3.457
 6252TIP3    H218721   4.701   4.948   3.583
 6253TIP3   OH218722   5.044   5.062   4.258
 6253TIP3    H118723   5.030   4.985   4.198
 6253TIP3    H218724   5.025   5.137   4.198
 6254TIP3   OH218725   4.335   4.461   3.518
 6254TIP3    H118726   4.258   4.516   3.494
 6254TIP3    H218727   4.381   4.452   3.432
 6255TIP3   OH218728   4.300   4.243   3.222
 6255TIP3    H118729   4.363   4.296   3.275
 6255TIP3    H218730   4.361   4.182   3.178
 6256TIP3   OH218731   5.239   4.704   4.106
 6256TIP3    H118732   5.154   4.753   4.109
 6256TIP3    H218733   5.270   4.729   4.016
 6257TIP3   OH218734   4.685   4.543   3.484
 6257TIP3    H118735   4.628   4.565   3.561
 6257TIP3    H218736   4.768   4.519   3.529
 6258TIP3   OH218737   4.918   4.577   4.405
 6258TIP3    H118738   4.914   4.662   4.453
 6258TIP3    H218739   4.831   4.578   4.359
 6259TIP3   OH218740   3.923   4.548   3.916
 6259TIP3    H118741   3.865   4.496   3.857
 6259TIP3    H218742   3.995   4.485   3.938
 6260TIP3   OH218743   4.045   4.950   4.052
 6260TIP3    H118744   4.024   4.919   3.962
 6260TIP3    H218745   4.133   4.910   4.067
 6261TIP3   OH218746   4.054   4.508   4.262
 6261TIP3    H118747   4.083   4.486   4.171
 6261TIP3    H218748   4.095   4.596   4.277
 6262TIP3   OH218749   4.579   5.148   4.037
 6262TIP3    H118750   4.566   5.227   4.092
 6262TIP3    H218751   4.561   5.075   4.100
 6263TIP3   OH218752   4.193   5.065   4.585
 6263TIP3    H118753   4.129   5.126   4.630
 6263TIP3    H218754   4.130   5.012   4.532
 6264TIP3   OH218755   4.519   4.397   3.314
 6264TIP3    H118756   4.580   4.456   3.365
 6264TIP3    H218757   4.545   4.419   3.222
 6265TIP3   OH218758   3.948   4.616   4.694
 6265TIP3    H118759   3.951   4.707   4.730
 6265TIP3    H218760   3.852   4.597   4.704
 6266TIP3   OH218761   4.269   5.076   3.592
 6266TIP3    H118762   4.352   5.127   3.595
 6266TIP3    H218763   4.210   5.134   3.542
 6267TIP3   OH218764   3.985   5.230   4.672
 6267TIP3    H118765   3.950   5.235   4.580
 6267TIP3    H218766   3.904   5.208   4.723
 6268TIP3   OH218767   3.750   4.409   3.751
 6268TIP3    H118768   3.696   4.451   3.680
 6268TIP3    H218769   3.712   4.321   3.753
 6269TIP3   OH218770   4.841   5.004   2.913
 6269TIP3    H118771   4.850   5.100   2.897
 6269TIP3    H218772   4.934   4.974   2.901
 6270TIP3   OH218773   3.563   4.766   4.617
 6270TIP3    H118774   3.494   4.748   4.550
 6270TIP3    H218775   3.600   4.677   4.635
 6271TIP3   OH218776   3.418   4.959   4.247
 6271TIP3    H118777   3.514   4.951   4.238
 6271TIP3    H218778   3.410   5.036   4.304
 6272TIP3   OH218779   5.282   5.414   4.309
 6272TIP3    H118780   5.280   5.317   4.323
 6272TIP3    H218781   5.198   5.439   4.355
 6273TIP3   OH218782   4.388   5.193   4.443
 6273TIP3    H118783   4.383   5.286   4.474
 6273TIP3    H218784   4.315   5.152   4.496
 6274TIP3   OH218785   4.154   5.321   3.393
 6274TIP3    H118786   4.106   5.302   3.311
 6274TIP3    H218787   4.118   5.407   3.420
 6275TIP3   OH218788   3.588   5.170   3.779
 6275TIP3    H118789   3.633   5.161   3.866
 6275TIP3    H218790   3.541   5.085   3.774
 6276TIP3   OH218791   4.351   5.226   3.030
 6276TIP3    H118792   4.409   5.156   2.994
 6276TIP3    H218793   4.386   5.236   3.121
 6277TIP3   OH218794   4.404   5.274   3.299
 6277TIP3    H118795   4.315   5.285   3.339
 6277TIP3    H218796   4.452   5.233   3.372
 6278TIP3   OH218797   5.169   4.537   4.582
 6278TIP3    H118798   5.085   4.548   4.534
 6278TIP3    H218799   5.185   4.441   4.572
 6279TIP3   OH218800   3.767   4.948   4.600
 6279TIP3    H118801   3.815   4.931   4.683
 6279TIP3    H218802   3.692   4.885   4.607
 6280TIP3   OH218803   4.171   3.776   4.394
 6280TIP3    H118804   4.082   3.742   4.370
 6280TIP3    H218805   4.142   3.853   4.448
 6281TIP3   OH218806   4.703   3.885   4.586
 6281TIP3    H118807   4.771   3.857   4.650
 6281TIP3    H218808   4.619   3.867   4.633
 6282TIP3   OH218809   4.939   4.316   4.506
 6282TIP3    H118810   4.885   4.314   4.588
 6282TIP3    H218811   4.915   4.402   4.467
 6283TIP3   OH218812   4.598   4.444   3.062
 6283TIP3    H118813   4.563   4.418   2.975
 6283TIP3    H218814   4.686   4.480   3.036
 6284TIP3   OH218815   4.101   4.288   4.411
 6284TIP3    H118816   4.049   4.308   4.492
 6284TIP3    H218817   4.085   4.370   4.358
 6285TIP3   OH218818   4.495   4.287   3.663
 6285TIP3    H118819   4.434   4.340   3.609
 6285TIP3    H218820   4.532   4.225   3.597
 6286TIP3   OH218821   4.649   4.532   4.735
 6286TIP3    H118822   4.626   4.460   4.798
 6286TIP3    H218823   4.743   4.546   4.757
 6287TIP3   OH218824   4.625   4.293   3.897
 6287TIP3    H118825   4.568   4.312   3.818
 6287TIP3    H218826   4.664   4.209   3.861
 6288TIP3   OH218827   3.920   4.315   4.617
 6288TIP3    H118828   3.943   4.379   4.685
 6288TIP3    H218829   3.906   4.233   4.668
 6289TIP3   OH218830   3.936   3.772   3.346
 6289TIP3    H118831   3.889   3.740   3.426
 6289TIP3    H218832   3.874   3.840   3.314
 6290TIP3   OH218833   3.508   3.835   4.200
 6290TIP3    H118834   3.582   3.865   4.257
 6290TIP3    H218835   3.534   3.862   4.112
 6291TIP3   OH218836   4.645   4.528   4.310
 6291TIP3    H118837   4.677   4.458   4.249
 6291TIP3    H218838   4.610   4.473   4.383
 6292TIP3   OH218839   4.280   4.023   4.026
 6292TIP3    H118840   4.253   3.994   4.114
 6292TIP3    H218841   4.373   3.994   4.022
 6293TIP3   OH218842   4.803   4.070   4.188
 6293TIP3    H118843   4.770   4.086   4.279
 6293TIP3    H218844   4.733   4.009   4.155
 6294TIP3   OH218845   4.978   5.759   4.408
 6294TIP3    H118846   4.975   5.784   4.314
 6294TIP3    H218847   5.058   5.806   4.438
 6295TIP3   OH218848   3.930   4.870   4.824
 6295TIP3    H118849   4.009   4.899   4.873
 6295TIP3    H218850   3.865   4.867   4.897
 6296TIP3   OH218851   4.394   4.334   4.084
 6296TIP3    H118852   4.451   4.288   4.020
 6296TIP3    H218853   4.399   4.276   4.162
 6297TIP3   OH218854   4.367   4.220   4.376
 6297TIP3    H118855   4.278   4.258   4.386
 6297TIP3    H218856   4.424   4.286   4.420
 6298TIP3   OH218857   4.103   4.615   3.463
 6298TIP3    H118858   4.032   4.550   3.449
 6298TIP3    H218859   4.082   4.646   3.555
 6299TIP3   OH218860   5.004   4.846   4.091
 6299TIP3    H118861   5.026   4.898   4.011
 6299TIP3    H218862   4.919   4.802   4.065
 6300TIP3   OH218863   4.504   4.930   4.463
 6300TIP3    H118864   4.536   4.914   4.553
 6300TIP3    H218865   4.466   5.019   4.468
 6301TIP3   OH218866   4.634   4.175   3.454
 6301TIP3    H118867   4.724   4.158   3.426
 6301TIP3    H218868   4.600   4.237   3.388
 6302TIP3   OH218869   3.802   4.643   4.145
 6302TIP3    H118870   3.840   4.614   4.060
 6302TIP3    H218871   3.835   4.575   4.206
 6303TIP3   OH218872   4.252   4.761   3.289
 6303TIP3    H118873   4.203   4.847   3.291
 6303TIP3    H218874   4.197   4.707   3.350
 6304TIP3   OH218875   3.682   4.549   4.754
 6304TIP3    H118876   3.692   4.532   4.850
 6304TIP3    H218877   3.610   4.488   4.731
 6305TIP3   OH218878   4.408   4.670   4.774
 6305TIP3    H118879   4.345   4.611   4.731
 6305TIP3    H218880   4.493   4.632   4.744
 6306TIP3   OH218881   4.664   5.191   4.361
 6306TIP3    H118882   4.567   5.188   4.375
 6306TIP3    H218883   4.692   5.243   4.439
 6307TIP3   OH218884   5.294   5.123   4.346
 6307TIP3    H118885   5.196   5.116   4.338
 6307TIP3    H218886   5.321   5.092   4.257
 6308TIP3   OH218887   4.780   5.080   3.179
 6308TIP3    H118888   4.748   5.011   3.238
 6308TIP3    H218889   4.790   5.034   3.094
 6309TIP3   OH218890   4.771   4.710   4.010
 6309TIP3    H118891   4.677   4.687   4.023
 6309TIP3    H218892   4.802   4.629   3.965
 6310TIP3   OH218893   3.903   4.942   3.771
 6310TIP3    H118894   3.897   5.021   3.713
 6310TIP3    H218895   3.811   4.916   3.777
 6311TIP3   OH218896   3.469   4.238   3.480
 6311TIP3    H118897   3.507   4.326   3.499
 6311TIP3    H218898   3.389   4.240   3.538
 6312TIP3   OH218899   4.028   4.701   3.707
 6312TIP3    H118900   4.000   4.793   3.727
 6312TIP3    H218901   3.997   4.653   3.786
 6313TIP3   OH218902   4.171   5.280   4.234
 6313TIP3    H118903   4.214   5.353   4.184
 6313TIP3    H218904   4.248   5.241   4.279
 6314TIP3   OH218905   3.817   5.177   3.618
 6314TIP3    H118906   3.732   5.187   3.665
 6314TIP3    H218907   3.851   5.270   3.620
 6315TIP3   OH218908   4.553   4.916   4.195
 6315TIP3    H118909   4.543   4.913   4.293
 6315TIP3    H218910   4.630   4.858   4.182
 6316TIP3   OH218911   4.537   4.814   3.078
 6316TIP3    H118912   4.589   4.788   3.157
 6316TIP3    H218913   4.449   4.779   3.102
 6317TIP3   OH218914   4.804   5.445   4.243
 6317TIP3    H118915   4.723   5.391   4.238
 6317TIP3    H218916   4.788   5.510   4.171
 6318TIP3   OH218917   4.870   5.280   2.894
 6318TIP3    H118918   4.903   5.354   2.841
 6318TIP3    H218919   4.790   5.322   2.932
 6319TIP3   OH218920   3.885   4.059   4.759
 6319TIP3    H118921   3.787   4.064   4.768
 6319TIP3    H218922   3.908   4.000   4.832
 6320TIP3   OH218923   4.694   4.749   3.296
 6320TIP3    H118924   4.681   4.678   3.363
 6320TIP3    H218925   4.791   4.744   3.285
 6321TIP3   OH218926   3.607   5.141   4.392
 6321TIP3    H118927   3.662   5.068   4.426
 6321TIP3    H218928   3.636   5.214   4.448
 6322TIP3   OH218929   3.897   4.787   3.079
 6322TIP3    H118930   3.908   4.694   3.053
 6322TIP3    H218931   3.873   4.778   3.173
 6323TIP3   OH218932   3.839   4.795   3.350
 6323TIP3    H118933   3.917   4.767   3.400
 6323TIP3    H218934   3.844   4.893   3.359
 6324TIP3   OH218935   3.573   4.491   3.554
 6324TIP3    H118936   3.503   4.536   3.606
 6324TIP3    H218937   3.585   4.556   3.482
 6325TIP3   OH218938   4.731   4.125   4.449
 6325TIP3    H118939   4.813   4.160   4.485
 6325TIP3    H218940   4.717   4.043   4.501
 6326TIP3   OH218941   4.111   4.991   3.299
 6326TIP3    H118942   4.023   5.014   3.335
 6326TIP3    H218943   4.122   5.064   3.236
 6327TIP3   OH218944   4.567   4.369   4.516
 6327TIP3    H118945   4.594   4.419   4.596
 6327TIP3    H218946   4.618   4.287   4.523
 6328TIP3   OH218947   3.857   5.067   3.368
 6328TIP3    H118948   3.826   5.137   3.306
 6328TIP3    H218949   3.839   5.109   3.455
 6329TIP3   OH218950   5.205   4.270   4.503
 6329TIP3    H118951   5.107   4.271   4.511
 6329TIP3    H218952   5.213   4.226   4.417
 6330TIP3   OH218953   4.854   4.467   3.890
 6330TIP3    H118954   4.774   4.412   3.899
 6330TIP3    H218955   4.921   4.416   3.940
 6331TIP3   OH218956   3.572   4.690   3.354
 6331TIP3    H118957   3.645   4.754   3.363
 6331TIP3    H218958   3.613   4.629   3.289
 6332TIP3   OH218959   3.495   3.957   3.426
 6332TIP3    H118960   3.501   4.051   3.450
 6332TIP3    H218961   3.515   3.914   3.511
 6333TIP3   OH218962   4.826   5.427   3.836
 6333TIP3    H118963   4.783   5.474   3.762
 6333TIP3    H218964   4.921   5.444   3.814
 6334TIP3   OH218965   3.909   3.702   4.384
 6334TIP3    H118966   3.876   3.666   4.298
 6334TIP3    H218967   3.900   3.623   4.441
 6335TIP3   OH218968   3.438   4.911   3.740
 6335TIP3    H118969   3.375   4.939   3.808
 6335TIP3    H218970   3.401   4.955   3.659
 6336TIP3   OH218971   3.601   5.459   4.817
 6336TIP3    H118972   3.688   5.459   4.863
 6336TIP3    H218973   3.581   5.364   4.815
 6337TIP3   OH218974   4.075   5.409   4.864
 6337TIP3    H118975   4.170   5.394   4.865
 6337TIP3    H218976   4.048   5.347   4.792
 6338TIP3   OH218977   4.060   4.989   2.987
 6338TIP3    H118978   4.004   4.917   3.025
 6338TIP3    H218979   4.135   4.937   2.954
 6339TIP3   OH218980   4.715   5.324   4.598
 6339TIP3    H118981   4.710   5.254   4.667
 6339TIP3    H218982   4.794   5.375   4.626
 6340TIP3   OH218983   4.495   5.027   2.904
 6340TIP3    H118984   4.531   4.960   2.965
 6340TIP3    H218985   4.554   5.020   2.826
 6341TIP3   OH218986   3.728   4.860   5.017
 6341TIP3    H118987   3.743   4.763   5.022
 6341TIP3    H218988   3.641   4.863   4.970
 6342TIP3   OH218989   3.707   4.504   3.213
 6342TIP3    H118990   3.764   4.473   3.285
 6342TIP3    H218991   3.774   4.511   3.141
 6343TIP3   OH218992   4.333   4.947   4.792
 6343TIP3    H118993   4.293   4.969   4.705
 6343TIP3    H218994   4.363   4.854   4.778
 6344TIP3   OH218995   4.227   4.708   3.020
 6344TIP3    H118996   4.226   4.718   3.118
 6344TIP3    H218997   4.226   4.610   3.013
 6345TIP3   OH218998   4.828   4.959   4.402
 6345TIP3    H118999   4.904   5.000   4.356
 6345TIP3    H219000   4.759   5.025   4.383
 6346TIP3   OH219001   3.848   4.601   5.003
 6346TIP3    H119002   3.923   4.551   4.970
 6346TIP3    H219003   3.881   4.630   5.091
 6347TIP3   OH219004   3.909   4.424   3.422
 6347TIP3    H119005   3.877   4.373   3.497
 6347TIP3    H219006   3.954   4.355   3.369
 6348TIP3   OH219007   4.186   4.479   4.665
 6348TIP3    H119008   4.105   4.535   4.662
 6348TIP3    H219009   4.236   4.513   4.587
 6349TIP3   OH219010   4.026   4.231   3.274
 6349TIP3    H119011   3.990   4.217   3.184
 6349TIP3    H219012   4.122   4.222   3.258
 6350TIP3   OH219013   4.702   4.880   4.795
 6350TIP3    H119014   4.775   4.845   4.742
 6350TIP3    H219015   4.694   4.814   4.866
 6351TIP3   OH219016   4.827   4.538   2.941
 6351TIP3    H119017   4.811   4.487   2.860
 6351TIP3    H219018   4.790   4.625   2.915
 6352TIP3   OH219019   4.309   4.268   4.784
 6352TIP3    H119020   4.308   4.190   4.725
 6352TIP3    H219021   4.264   4.336   4.728
 6353TIP3   OH219022   4.311   4.053   4.598
 6353TIP3    H119023   4.339   4.097   4.515
 6353TIP3    H219024   4.217   4.032   4.578
 6354TIP3   OH219025   4.331   4.588   4.470
 6354TIP3    H119026   4.417   4.602   4.428
 6354TIP3    H219027   4.274   4.652   4.421
 6355TIP3   OH219028   4.915   4.553   4.845
 6355TIP3    H119029   4.964   4.470   4.852
 6355TIP3    H219030   4.981   4.612   4.807
 6356TIP3   OH219031   4.956   4.809   4.586
 6356TIP3    H119032   4.899   4.864   4.527
 6356TIP3    H219033   5.044   4.830   4.547
 6357TIP3   OH219034   4.189   4.370   5.023
 6357TIP3    H119035   4.121   4.301   5.037
 6357TIP3    H219036   4.218   4.350   4.932
 6358TIP3   OH219037   4.441   3.814   4.667
 6358TIP3    H119038   4.391   3.895   4.643
 6358TIP3    H219039   4.373   3.745   4.654
 6359TIP3   OH219040   4.567   4.314   4.879
 6359TIP3    H119041   4.547   4.299   4.973
 6359TIP3    H219042   4.479   4.293   4.841
 6360TIP3   OH219043   4.806   4.271   4.736
 6360TIP3    H119044   4.731   4.271   4.799
 6360TIP3    H219045   4.880   4.240   4.792
 6361TIP3   OH219046   5.037   4.212   4.883
 6361TIP3    H119047   5.049   4.116   4.898
 6361TIP3    H219048   5.032   4.247   4.975
 6362TIP3   OH219049   4.025   4.152   5.075
 6362TIP3    H119050   4.025   4.060   5.041
 6362TIP3    H219051   4.063   4.138   5.165
 6363TIP3   OH219052   4.533   3.823   4.925
 6363TIP3    H119053   4.598   3.750   4.916
 6363TIP3    H219054   4.493   3.821   4.836
 6364TIP3   OH219055   4.602   4.038   5.082
 6364TIP3    H119056   4.581   3.967   5.017
 6364TIP3    H219057   4.523   4.097   5.074
 6365TIP3   OH219058   3.825   5.272   3.180
 6365TIP3    H119059   3.920   5.261   3.159
 6365TIP3    H219060   3.797   5.323   3.102
 6366TIP3   OH219061   3.303   4.651   3.394
 6366TIP3    H119062   3.397   4.672   3.377
 6366TIP3    H219063   3.294   4.562   3.352
 6367TIP3   OH219064   3.219   5.263   3.812
 6367TIP3    H119065   3.154   5.201   3.771
 6367TIP3    H219066   3.263   5.202   3.875
 6368TIP3   OH219067   3.352   5.107   3.998
 6368TIP3    H119068   3.340   5.037   4.065
 6368TIP3    H219069   3.406   5.170   4.049
 6369TIP3   OH219070   5.084   5.510   3.799
 6369TIP3    H119071   5.110   5.542   3.887
 6369TIP3    H219072   5.149   5.552   3.741
 6370TIP3   OH219073   5.109   5.532   4.081
 6370TIP3    H119074   5.062   5.446   4.076
 6370TIP3    H219075   5.184   5.507   4.138
 6371TIP3   OH219076   5.157   5.209   4.654
 6371TIP3    H119077   5.085   5.221   4.719
 6371TIP3    H219078   5.200   5.297   4.657
 6372TIP3   OH219079   4.969   4.732   3.280
 6372TIP3    H119080   5.037   4.792   3.243
 6372TIP3    H219081   5.019   4.688   3.352
 6373TIP3   OH219082   5.102   4.587   3.478
 6373TIP3    H119083   5.034   4.547   3.536
 6373TIP3    H219084   5.164   4.627   3.542
 6374TIP3   OH219085   5.160   4.986   3.908
 6374TIP3    H119086   5.209   4.916   3.861
 6374TIP3    H219087   5.155   5.057   3.841
 6375TIP3   OH219088   4.983   5.284   4.101
 6375TIP3    H119089   4.910   5.325   4.151
 6375TIP3    H219090   4.935   5.239   4.028
 6376TIP3   OH219091   5.043   4.524   3.111
 6376TIP3    H119092   4.970   4.508   3.049
 6376TIP3    H219093   5.003   4.591   3.169
 6377TIP3   OH219094   4.913   4.444   3.626
 6377TIP3    H119095   4.884   4.353   3.637
 6377TIP3    H219096   4.898   4.476   3.718
 6378TIP3   OH219097   3.537   4.518   4.372
 6378TIP3    H119098   3.533   4.486   4.279
 6378TIP3    H219099   3.634   4.520   4.386
 6379TIP3   OH219100   5.204   4.874   4.480
 6379TIP3    H119101   5.274   4.806   4.467
 6379TIP3    H219102   5.226   4.940   4.413
 6380TIP3   OH219103   5.384   4.671   4.483
 6380TIP3    H119104   5.309   4.623   4.526
 6380TIP3    H219105   5.457   4.608   4.503
 6381TIP3   OH219106   4.944   4.140   3.518
 6381TIP3    H119107   5.009   4.154   3.589
 6381TIP3    H219108   4.957   4.218   3.462
 6382TIP3   OH219109   5.069   4.332   4.012
 6382TIP3    H119110   5.154   4.357   3.970
 6382TIP3    H219111   5.083   4.371   4.101
 6383TIP3   OH219112   5.143   4.481   4.238
 6383TIP3    H119113   5.065   4.514   4.287
 6383TIP3    H219114   5.175   4.563   4.194
 6384TIP3   OH219115   3.759   4.208   5.053
 6384TIP3    H119116   3.857   4.199   5.051
 6384TIP3    H219117   3.734   4.119   5.083
 6385TIP3   OH219118   5.593   4.077   4.795
 6385TIP3    H119119   5.655   4.013   4.753
 6385TIP3    H219120   5.560   4.127   4.717
 6386TIP3   OH219121   3.718   3.903   4.366
 6386TIP3    H119122   3.776   3.826   4.381
 6386TIP3    H219123   3.782   3.976   4.368
 6387TIP3   OH219124   3.520   4.174   4.447
 6387TIP3    H119125   3.568   4.173   4.362
 6387TIP3    H219126   3.546   4.259   4.483
 6388TIP3   OH219127   5.459   4.208   4.599
 6388TIP3    H119128   5.375   4.254   4.618
 6388TIP3    H219129   5.424   4.136   4.542
 6389TIP3   OH219130   4.666   5.382   3.454
 6389TIP3    H119131   4.715   5.371   3.369
 6389TIP3    H219132   4.721   5.448   3.499
 6390TIP3   OH219133   3.727   3.756   4.761
 6390TIP3    H119134   3.673   3.750   4.841
 6390TIP3    H219135   3.662   3.795   4.698
 6391TIP3   OH219136   3.763   5.188   4.834
 6391TIP3    H119137   3.671   5.163   4.818
 6391TIP3    H219138   3.774   5.166   4.928
 6392TIP3   OH219139   3.946   5.223   4.385
 6392TIP3    H119140   3.898   5.298   4.345
 6392TIP3    H219141   4.032   5.235   4.340
 6393TIP3   OH219142   4.383   5.461   4.521
 6393TIP3    H119143   4.425   5.460   4.610
 6393TIP3    H219144   4.448   5.513   4.470
 6394TIP3   OH219145   4.562   5.617   4.385
 6394TIP3    H119146   4.631   5.566   4.340
 6394TIP3    H219147   4.617   5.672   4.445
 6395TIP3   OH219148   5.360   3.973   4.481
 6395TIP3    H119149   5.271   3.964   4.443
 6395TIP3    H219150   5.394   3.881   4.472
 6396TIP3   OH219151   3.618   5.475   4.410
 6396TIP3    H119152   3.527   5.506   4.387
 6396TIP3    H219153   3.631   5.522   4.493
 6397TIP3   OH219154   3.855   5.455   4.269
 6397TIP3    H119155   3.767   5.466   4.311
 6397TIP3    H219156   3.837   5.484   4.178
 6398TIP3   OH219157   4.280   5.478   4.067
 6398TIP3    H119158   4.210   5.494   4.001
 6398TIP3    H219159   4.290   5.567   4.107
 6399TIP3   OH219160   4.550   5.418   4.121
 6399TIP3    H119161   4.456   5.436   4.100
 6399TIP3    H219162   4.595   5.488   4.072
 6400TIP3   OH219163   4.756   5.610   4.029
 6400TIP3    H119164   4.741   5.693   3.981
 6400TIP3    H219165   4.783   5.549   3.957
 6401TIP3   OH219166   3.529   5.266   4.153
 6401TIP3    H119167   3.556   5.238   4.243
 6401TIP3    H219168   3.601   5.224   4.101
 6402TIP3   OH219169   3.725   5.141   4.014
 6402TIP3    H119170   3.740   5.057   4.064
 6402TIP3    H219171   3.817   5.175   4.008
 6403TIP3   OH219172   3.994   5.232   4.018
 6403TIP3    H119173   4.023   5.139   4.005
 6403TIP3    H219174   4.043   5.253   4.100
 6404TIP3   OH219175   4.569   3.897   4.118
 6404TIP3    H119176   4.527   3.822   4.163
 6404TIP3    H219177   4.627   3.854   4.053
 6405TIP3   OH219178   5.088   3.763   4.007
 6405TIP3    H119179   5.125   3.817   3.933
 6405TIP3    H219180   4.992   3.784   4.000
 6406TIP3   OH219181   5.193   3.862   3.776
 6406TIP3    H119182   5.262   3.815   3.727
 6406TIP3    H219183   5.213   3.955   3.750
 6407TIP3   OH219184   3.818   3.594   4.157
 6407TIP3    H119185   3.728   3.555   4.155
 6407TIP3    H219186   3.872   3.519   4.127
 6408TIP3   OH219187   4.251   3.627   4.010
 6408TIP3    H119188   4.259   3.667   3.923
 6408TIP3    H219189   4.315   3.675   4.064
 6409TIP3   OH219190   4.811   3.780   3.981
 6409TIP3    H119191   4.793   3.738   3.896
 6409TIP3    H219192   4.796   3.703   4.042
 6410TIP3   OH219193   3.317   5.046   3.540
 6410TIP3    H119194   3.231   5.011   3.509
 6410TIP3    H219195   3.308   5.138   3.510
 6411TIP3   OH219196   4.092   5.222   3.127
 6411TIP3    H119197   4.179   5.246   3.090
 6411TIP3    H219198   4.069   5.149   3.066
 6412TIP3   OH219199   4.812   5.348   3.221
 6412TIP3    H119200   4.805   5.250   3.212
 6412TIP3    H219201   4.764   5.377   3.142
 6413TIP3   OH219202   4.020   3.880   5.010
 6413TIP3    H119203   3.983   3.808   5.065
 6413TIP3    H219204   4.114   3.877   5.039
 6414TIP3   OH219205   4.273   3.876   5.128
 6414TIP3    H119206   4.357   3.851   5.087
 6414TIP3    H219207   4.261   3.804   5.193
 6415TIP3   OH219208   3.394   5.060   3.179
 6415TIP3    H119209   3.400   5.080   3.274
 6415TIP3    H219210   3.480   5.016   3.162
 6416TIP3   OH219211   5.100   3.940   4.913
 6416TIP3    H119212   5.117   3.909   5.005
 6416TIP3    H219213   5.190   3.935   4.874
 6417TIP3   OH219214   5.032   5.489   4.406
 6417TIP3    H119215   4.954   5.460   4.354
 6417TIP3    H219216   5.013   5.585   4.413
 6418TIP3   OH219217   6.303   4.864   3.169
 6418TIP3    H119218   6.270   4.953   3.148
 6418TIP3    H219219   6.229   4.810   3.134
 6419TIP3   OH219220   6.304   4.866   3.558
 6419TIP3    H119221   6.338   4.839   3.645
 6419TIP3    H219222   6.262   4.785   3.526
 6420TIP3   OH219223   5.598   4.755   3.919
 6420TIP3    H119224   5.628   4.685   3.981
 6420TIP3    H219225   5.679   4.807   3.910
 6421TIP3   OH219226   6.549   5.168   3.238
 6421TIP3    H119227   6.529   5.100   3.303
 6421TIP3    H219228   6.579   5.242   3.293
 6422TIP3   OH219229   5.575   5.169   3.640
 6422TIP3    H119230   5.566   5.071   3.640
 6422TIP3    H219231   5.671   5.179   3.632
 6423TIP3   OH219232   5.275   4.361   3.417
 6423TIP3    H119233   5.231   4.445   3.443
 6423TIP3    H219234   5.224   4.338   3.338
 6424TIP3   OH219235   5.337   4.658   3.607
 6424TIP3    H119236   5.389   4.580   3.637
 6424TIP3    H219237   5.394   4.695   3.538
 6425TIP3   OH219238   6.201   5.629   3.256
 6425TIP3    H119239   6.239   5.558   3.200
 6425TIP3    H219240   6.189   5.582   3.340
 6426TIP3   OH219241   6.098   5.091   3.603
 6426TIP3    H119242   6.139   5.014   3.559
 6426TIP3    H219243   6.180   5.138   3.628
 6427TIP3   OH219244   7.111   4.412   3.597
 6427TIP3    H119245   7.141   4.498   3.634
 6427TIP3    H219246   7.140   4.422   3.504
 6428TIP3   OH219247   6.512   4.586   3.631
 6428TIP3    H119248   6.555   4.502   3.651
 6428TIP3    H219249   6.480   4.570   3.540
 6429TIP3   OH219250   5.855   4.248   3.596
 6429TIP3    H119251   5.836   4.321   3.534
 6429TIP3    H219252   5.804   4.176   3.552
 6430TIP3   OH219253   6.549   4.344   3.217
 6430TIP3    H119254   6.620   4.329   3.283
 6430TIP3    H219255   6.602   4.377   3.142
 6431TIP3   OH219256   5.485   4.450   3.707
 6431TIP3    H119257   5.568   4.434   3.755
 6431TIP3    H219258   5.501   4.396   3.627
 6432TIP3   OH219259   5.924   4.648   3.505
 6432TIP3    H119260   6.019   4.625   3.514
 6432TIP3    H219261   5.886   4.564   3.469
 6433TIP3   OH219262   7.189   4.619   3.775
 6433TIP3    H119263   7.104   4.664   3.754
 6433TIP3    H219264   7.215   4.664   3.857
 6434TIP3   OH219265   5.847   4.234   4.034
 6434TIP3    H119266   5.788   4.271   3.965
 6434TIP3    H219267   5.793   4.251   4.114
 6435TIP3   OH219268   6.186   5.081   3.041
 6435TIP3    H119269   6.149   5.071   2.952
 6435TIP3    H219270   6.142   5.163   3.070
 6436TIP3   OH219271   5.954   5.010   3.823
 6436TIP3    H119272   5.896   5.080   3.859
 6436TIP3    H219273   5.997   5.056   3.748
 6437TIP3   OH219274   6.751   4.348   3.398
 6437TIP3    H119275   6.736   4.305   3.483
 6437TIP3    H219276   6.804   4.426   3.424
 6438TIP3   OH219277   5.720   4.347   3.815
 6438TIP3    H119278   5.781   4.419   3.840
 6438TIP3    H219279   5.770   4.307   3.740
 6439TIP3   OH219280   5.786   5.208   3.926
 6439TIP3    H119281   5.760   5.295   3.890
 6439TIP3    H219282   5.705   5.188   3.979
 6440TIP3   OH219283   5.170   4.895   3.160
 6440TIP3    H119284   5.131   4.919   3.075
 6440TIP3    H219285   5.203   4.981   3.193
 6441TIP3   OH219286   6.614   5.412   3.401
 6441TIP3    H119287   6.525   5.403   3.440
 6441TIP3    H219288   6.605   5.498   3.355
 6442TIP3   OH219289   6.909   4.305   3.765
 6442TIP3    H119290   6.822   4.330   3.731
 6442TIP3    H219291   6.969   4.340   3.696
 6443TIP3   OH219292   6.198   3.947   3.750
 6443TIP3    H119293   6.181   3.852   3.768
 6443TIP3    H219294   6.122   3.988   3.797
 6444TIP3   OH219295   6.311   5.455   3.069
 6444TIP3    H119296   6.360   5.371   3.053
 6444TIP3    H219297   6.376   5.519   3.032
 6445TIP3   OH219298   6.456   5.239   2.988
 6445TIP3    H119299   6.429   5.158   2.944
 6445TIP3    H219300   6.495   5.205   3.071
 6446TIP3   OH219301   6.842   5.318   3.745
 6446TIP3    H119302   6.827   5.242   3.686
 6446TIP3    H219303   6.821   5.394   3.686
 6447TIP3   OH219304   6.134   4.716   3.006
 6447TIP3    H119305   6.055   4.769   2.986
 6447TIP3    H219306   6.178   4.710   2.919
 6448TIP3   OH219307   6.092   4.502   2.715
 6448TIP3    H119308   6.158   4.556   2.761
 6448TIP3    H219309   6.150   4.439   2.668
 6449TIP3   OH219310   7.034   4.962   3.595
 6449TIP3    H119311   6.949   5.011   3.596
 6449TIP3    H219312   7.065   4.984   3.504
 6450TIP3   OH219313   6.481   4.799   2.971
 6450TIP3    H119314   6.427   4.822   3.050
 6450TIP3    H219315   6.566   4.775   3.014
 6451TIP3   OH219316   6.713   4.834   3.892
 6451TIP3    H119317   6.710   4.918   3.940
 6451TIP3    H219318   6.627   4.836   3.846
 6452TIP3   OH219319   5.712   4.793   3.394
 6452TIP3    H119320   5.670   4.734   3.327
 6452TIP3    H219321   5.788   4.739   3.423
 6453TIP3   OH219322   5.842   5.207   3.538
 6453TIP3    H119323   5.822   5.176   3.449
 6453TIP3    H219324   5.930   5.168   3.555
 6454TIP3   OH219325   5.847   4.766   3.748
 6454TIP3    H119326   5.879   4.739   3.659
 6454TIP3    H219327   5.892   4.851   3.763
 6455TIP3   OH219328   6.374   5.405   3.524
 6455TIP3    H119329   6.361   5.485   3.578
 6455TIP3    H219330   6.356   5.332   3.586
 6456TIP3   OH219331   5.989   5.322   4.073
 6456TIP3    H119332   5.926   5.383   4.117
 6456TIP3    H219333   5.926   5.268   4.020
 6457TIP3   OH219334   6.316   4.658   2.800
 6457TIP3    H119335   6.376   4.718   2.849
 6457TIP3    H219336   6.343   4.676   2.707
 6458TIP3   OH219337   5.745   4.872   4.180
 6458TIP3    H119338   5.748   4.963   4.216
 6458TIP3    H219339   5.649   4.853   4.191
 6459TIP3   OH219340   6.066   5.331   3.079
 6459TIP3    H119341   6.150   5.382   3.081
 6459TIP3    H219342   6.007   5.391   3.032
 6460TIP3   OH219343   5.781   5.485   4.158
 6460TIP3    H119344   5.745   5.492   4.067
 6460TIP3    H219345   5.700   5.465   4.211
 6461TIP3   OH219346   6.835   3.897   2.850
 6461TIP3    H119347   6.753   3.922   2.898
 6461TIP3    H219348   6.854   3.980   2.801
 6462TIP3   OH219349   5.578   4.635   3.200
 6462TIP3    H119350   5.512   4.685   3.147
 6462TIP3    H219351   5.539   4.547   3.199
 6463TIP3   OH219352   6.638   5.261   2.400
 6463TIP3    H119353   6.647   5.357   2.384
 6463TIP3    H219354   6.730   5.231   2.386
 6464TIP3   OH219355   5.359   5.022   4.105
 6464TIP3    H119356   5.290   5.004   4.037
 6464TIP3    H219357   5.396   4.934   4.122
 6465TIP3   OH219358   5.214   5.215   3.735
 6465TIP3    H119359   5.311   5.210   3.727
 6465TIP3    H219360   5.204   5.293   3.791
 6466TIP3   OH219361   7.077   5.672   3.791
 6466TIP3    H119362   7.077   5.576   3.805
 6466TIP3    H219363   6.993   5.696   3.837
 6467TIP3   OH219364   6.183   5.449   3.929
 6467TIP3    H119365   6.179   5.543   3.960
 6467TIP3    H219366   6.111   5.409   3.982
 6468TIP3   OH219367   5.950   5.578   2.879
 6468TIP3    H119368   5.900   5.560   2.797
 6468TIP3    H219369   5.913   5.663   2.908
 6469TIP3   OH219370   5.385   5.427   3.266
 6469TIP3    H119371   5.429   5.418   3.353
 6469TIP3    H219372   5.337   5.342   3.261
 6470TIP3   OH219373   6.145   5.482   2.517
 6470TIP3    H119374   6.204   5.411   2.481
 6470TIP3    H219375   6.181   5.492   2.607
 6471TIP3   OH219376   6.200   5.530   2.786
 6471TIP3    H119377   6.111   5.540   2.827
 6471TIP3    H219378   6.251   5.492   2.859
 6472TIP3   OH219379   6.963   4.794   4.070
 6472TIP3    H119380   6.881   4.803   4.019
 6472TIP3    H219381   6.981   4.698   4.060
 6473TIP3   OH219382   5.563   5.204   4.085
 6473TIP3    H119383   5.611   5.188   4.169
 6473TIP3    H219384   5.488   5.142   4.094
 6474TIP3   OH219385   5.963   4.026   3.881
 6474TIP3    H119386   5.875   3.998   3.849
 6474TIP3    H219387   5.937   4.107   3.929
 6475TIP3   OH219388   6.500   4.141   4.073
 6475TIP3    H119389   6.568   4.112   4.137
 6475TIP3    H219390   6.416   4.122   4.121
 6476TIP3   OH219391   6.732   4.570   3.989
 6476TIP3    H119392   6.681   4.570   4.073
 6476TIP3    H219393   6.711   4.658   3.951
 6477TIP3   OH219394   6.398   4.700   2.548
 6477TIP3    H119395   6.359   4.678   2.461
 6477TIP3    H219396   6.484   4.738   2.521
 6478TIP3   OH219397   6.108   4.072   2.851
 6478TIP3    H119398   6.069   4.068   2.940
 6478TIP3    H219399   6.066   3.993   2.811
 6479TIP3   OH219400   5.896   4.544   3.896
 6479TIP3    H119401   5.845   4.565   3.977
 6479TIP3    H219402   5.880   4.625   3.843
 6480TIP3   OH219403   5.782   4.430   3.410
 6480TIP3    H119404   5.688   4.410   3.427
 6480TIP3    H219405   5.792   4.391   3.321
 6481TIP3   OH219406   6.270   4.514   3.141
 6481TIP3    H119407   6.221   4.585   3.095
 6481TIP3    H219408   6.325   4.479   3.068
 6482TIP3   OH219409   6.443   4.793   4.230
 6482TIP3    H119410   6.420   4.718   4.289
 6482TIP3    H219411   6.538   4.802   4.247
 6483TIP3   OH219412   6.424   4.540   3.375
 6483TIP3    H119413   6.361   4.567   3.305
 6483TIP3    H219414   6.462   4.462   3.329
 6484TIP3   OH219415   5.716   4.571   4.103
 6484TIP3    H119416   5.742   4.638   4.169
 6484TIP3    H219417   5.704   4.491   4.157
 6485TIP3   OH219418   5.767   4.051   2.815
 6485TIP3    H119419   5.751   4.051   2.911
 6485TIP3    H219420   5.688   4.099   2.783
 6486TIP3   OH219421   5.323   4.083   3.671
 6486TIP3    H119422   5.363   4.123   3.751
 6486TIP3    H219423   5.395   4.098   3.608
 6487TIP3   OH219424   6.439   4.785   3.796
 6487TIP3    H119425   6.470   4.714   3.736
 6487TIP3    H219426   6.404   4.731   3.871
 6488TIP3   OH219427   6.114   4.247   3.470
 6488TIP3    H119428   6.032   4.248   3.523
 6488TIP3    H219429   6.183   4.245   3.538
 6489TIP3   OH219430   5.539   4.310   3.478
 6489TIP3    H119431   5.446   4.317   3.446
 6489TIP3    H219432   5.568   4.223   3.446
 6490TIP3   OH219433   5.804   4.303   3.170
 6490TIP3    H119434   5.897   4.317   3.146
 6490TIP3    H219435   5.756   4.323   3.086
 6491TIP3   OH219436   6.600   4.327   3.676
 6491TIP3    H119437   6.566   4.341   3.767
 6491TIP3    H219438   6.531   4.267   3.641
 6492TIP3   OH219439   5.662   4.338   2.943
 6492TIP3    H119440   5.593   4.294   2.889
 6492TIP3    H219441   5.716   4.377   2.871
 6493TIP3   OH219442   6.774   6.015   3.893
 6493TIP3    H119443   6.770   6.041   3.799
 6493TIP3    H219444   6.845   6.072   3.927
 6494TIP3   OH219445   5.722   5.126   4.308
 6494TIP3    H119446   5.801   5.160   4.355
 6494TIP3    H219447   5.658   5.124   4.381
 6495TIP3   OH219448   6.189   4.581   3.566
 6495TIP3    H119449   6.264   4.545   3.517
 6495TIP3    H219450   6.196   4.534   3.652
 6496TIP3   OH219451   5.702   4.069   3.448
 6496TIP3    H119452   5.676   3.988   3.496
 6496TIP3    H219453   5.747   4.032   3.370
 6497TIP3   OH219454   6.165   4.480   3.860
 6497TIP3    H119455   6.074   4.516   3.871
 6497TIP3    H219456   6.220   4.545   3.907
 6498TIP3   OH219457   5.902   4.867   2.953
 6498TIP3    H119458   5.831   4.800   2.941
 6498TIP3    H219459   5.880   4.901   3.043
 6499TIP3   OH219460   6.799   5.103   3.578
 6499TIP3    H119461   6.823   5.155   3.498
 6499TIP3    H219462   6.716   5.060   3.550
 6500TIP3   OH219463   6.361   4.171   2.831
 6500TIP3    H119464   6.264   4.152   2.831
 6500TIP3    H219465   6.365   4.267   2.845
 6501TIP3   OH219466   6.301   5.186   3.949
 6501TIP3    H119467   6.325   5.167   4.040
 6501TIP3    H219468   6.262   5.275   3.955
 6502TIP3   OH219469   6.427   4.430   2.924
 6502TIP3    H119470   6.523   4.436   2.935
 6502TIP3    H219471   6.407   4.509   2.870
 6503TIP3   OH219472   5.597   4.893   3.626
 6503TIP3    H119473   5.633   4.863   3.540
 6503TIP3    H219474   5.642   4.834   3.688
 6504TIP3   OH219475   6.048   5.016   2.778
 6504TIP3    H119476   5.999   5.101   2.780
 6504TIP3    H219477   5.994   4.961   2.838
 6505TIP3   OH219478   5.479   4.807   4.241
 6505TIP3    H119479   5.493   4.793   4.337
 6505TIP3    H219480   5.407   4.744   4.222
 6506TIP3   OH219481   6.203   4.940   4.244
 6506TIP3    H119482   6.141   4.871   4.215
 6506TIP3    H219483   6.289   4.894   4.234
 6507TIP3   OH219484   6.460   5.445   3.849
 6507TIP3    H119485   6.364   5.444   3.862
 6507TIP3    H219486   6.488   5.499   3.926
 6508TIP3   OH219487   6.866   4.523   2.755
 6508TIP3    H119488   6.804   4.479   2.691
 6508TIP3    H219489   6.863   4.613   2.714
 6509TIP3   OH219490   7.092   5.381   3.832
 6509TIP3    H119491   6.994   5.373   3.823
 6509TIP3    H219492   7.119   5.350   3.743
 6510TIP3   OH219493   6.572   5.335   2.664
 6510TIP3    H119494   6.544   5.264   2.723
 6510TIP3    H219495   6.585   5.289   2.579
 6511TIP3   OH219496   6.567   4.967   3.495
 6511TIP3    H119497   6.473   4.944   3.509
 6511TIP3    H219498   6.599   4.886   3.450
 6512TIP3   OH219499   5.699   5.197   3.256
 6512TIP3    H119500   5.693   5.277   3.200
 6512TIP3    H219501   5.606   5.173   3.266
 6513TIP3   OH219502   5.248   4.517   2.932
 6513TIP3    H119503   5.299   4.589   2.973
 6513TIP3    H219504   5.184   4.497   3.004
 6514TIP3   OH219505   5.826   4.957   3.195
 6514TIP3    H119506   5.795   5.047   3.216
 6514TIP3    H219507   5.791   4.906   3.270
 6515TIP3   OH219508   5.968   5.537   3.721
 6515TIP3    H119509   6.011   5.609   3.671
 6515TIP3    H219510   6.044   5.498   3.767
 6516TIP3   OH219511   5.612   5.435   3.104
 6516TIP3    H119512   5.528   5.443   3.152
 6516TIP3    H219513   5.645   5.528   3.107
 6517TIP3   OH219514   6.349   5.172   3.682
 6517TIP3    H119515   6.339   5.170   3.780
 6517TIP3    H219516   6.428   5.117   3.670
 6518TIP3   OH219517   6.332   5.070   2.566
 6518TIP3    H119518   6.385   5.044   2.645
 6518TIP3    H219519   6.245   5.036   2.591
 6519TIP3   OH219520   6.601   5.701   3.730
 6519TIP3    H119521   6.519   5.647   3.725
 6519TIP3    H219522   6.584   5.766   3.658
 6520TIP3   OH219523   6.666   5.537   2.383
 6520TIP3    H119524   6.697   5.612   2.328
 6520TIP3    H219525   6.585   5.578   2.420
 6521TIP3   OH219526   5.682   4.314   4.246
 6521TIP3    H119527   5.585   4.318   4.257
 6521TIP3    H219528   5.709   4.259   4.321
 6522TIP3   OH219529   6.493   5.003   2.782
 6522TIP3    H119530   6.480   4.934   2.850
 6522TIP3    H219531   6.590   4.996   2.768
 6523TIP3   OH219532   5.405   5.397   3.878
 6523TIP3    H119533   5.459   5.326   3.915
 6523TIP3    H219534   5.430   5.471   3.935
 6524TIP3   OH219535   5.690   5.045   2.565
 6524TIP3    H119536   5.704   4.953   2.539
 6524TIP3    H219537   5.669   5.035   2.660
 6525TIP3   OH219538   5.635   5.052   2.837
 6525TIP3    H119539   5.711   5.022   2.889
 6525TIP3    H219540   5.641   5.149   2.846
 6526TIP3   OH219541   5.377   4.749   3.048
 6526TIP3    H119542   5.305   4.789   3.100
 6526TIP3    H219543   5.384   4.815   2.976
 6527TIP3   OH219544   6.526   4.380   3.936
 6527TIP3    H119545   6.609   4.417   3.970
 6527TIP3    H219546   6.515   4.298   3.989
 6528TIP3   OH219547   6.406   4.125   3.106
 6528TIP3    H119548   6.391   4.143   3.011
 6528TIP3    H219549   6.444   4.210   3.136
 6529TIP3   OH219550   5.906   5.246   2.785
 6529TIP3    H119551   5.819   5.270   2.822
 6529TIP3    H219552   5.919   5.318   2.722
 6530TIP3   OH219553   6.089   4.313   3.201
 6530TIP3    H119554   6.153   4.385   3.183
 6530TIP3    H219555   6.098   4.304   3.298
 6531TIP3   OH219556   6.363   4.627   4.005
 6531TIP3    H119557   6.387   4.677   4.085
 6531TIP3    H219558   6.415   4.545   4.014
 6532TIP3   OH219559   6.232   4.029   3.300
 6532TIP3    H119560   6.219   4.109   3.353
 6532TIP3    H219561   6.296   4.062   3.232
 6533TIP3   OH219562   5.654   5.325   2.855
 6533TIP3    H119563   5.621   5.394   2.794
 6533TIP3    H219564   5.636   5.365   2.943
 6534TIP3   OH219565   5.749   4.038   3.095
 6534TIP3    H119566   5.748   4.131   3.126
 6534TIP3    H219567   5.845   4.021   3.098
 6535TIP3   OH219568   6.999   4.529   3.995
 6535TIP3    H119569   6.901   4.524   3.996
 6535TIP3    H219570   7.017   4.495   3.905
 6536TIP3   OH219571   6.652   4.722   3.376
 6536TIP3    H119572   6.576   4.662   3.387
 6536TIP3    H219573   6.723   4.674   3.424
 6537TIP3   OH219574   5.369   4.946   2.844
 6537TIP3    H119575   5.444   5.008   2.853
 6537TIP3    H219576   5.408   4.885   2.777
 6538TIP3   OH219577   6.623   5.682   3.323
 6538TIP3    H119578   6.579   5.730   3.249
 6538TIP3    H219579   6.717   5.700   3.301
 6539TIP3   OH219580   5.696   3.949   3.849
 6539TIP3    H119581   5.668   3.913   3.762
 6539TIP3    H219582   5.688   3.871   3.907
 6540TIP3   OH219583   5.234   5.169   3.227
 6540TIP3    H119584   5.171   5.195   3.295
 6540TIP3    H219585   5.196   5.211   3.146
 6541TIP3   OH219586   5.397   5.716   4.303
 6541TIP3    H119587   5.484   5.717   4.350
 6541TIP3    H219588   5.378   5.621   4.302
 6542TIP3   OH219589   5.872   5.669   4.346
 6542TIP3    H119590   5.967   5.651   4.350
 6542TIP3    H219591   5.844   5.605   4.277
 6543TIP3   OH219592   5.856   5.246   2.474
 6543TIP3    H119593   5.801   5.173   2.512
 6543TIP3    H219594   5.932   5.195   2.440
 6544TIP3   OH219595   6.514   5.581   4.083
 6544TIP3    H119596   6.507   5.512   4.154
 6544TIP3    H219597   6.593   5.631   4.111
 6545TIP3   OH219598   6.290   5.285   2.390
 6545TIP3    H119599   6.329   5.219   2.451
 6545TIP3    H219600   6.348   5.278   2.311
 6546TIP3   OH219601   5.524   5.115   4.502
 6546TIP3    H119602   5.537   5.018   4.510
 6546TIP3    H219603   5.437   5.119   4.457
 6547TIP3   OH219604   5.502   4.762   2.698
 6547TIP3    H119605   5.556   4.728   2.771
 6547TIP3    H219606   5.570   4.768   2.627
 6548TIP3   OH219607   6.129   5.207   4.281
 6548TIP3    H119608   6.088   5.230   4.195
 6548TIP3    H219609   6.158   5.114   4.266
 6549TIP3   OH219610   6.021   4.965   2.508
 6549TIP3    H119611   6.021   4.975   2.605
 6549TIP3    H219612   6.022   4.867   2.500
 6550TIP3   OH219613   6.625   5.215   3.888
 6550TIP3    H119614   6.701   5.256   3.843
 6550TIP3    H219615   6.555   5.282   3.870
 6551TIP3   OH219616   5.644   4.851   4.488
 6551TIP3    H119617   5.725   4.808   4.456
 6551TIP3    H219618   5.672   4.883   4.576
 6552TIP3   OH219619   5.710   4.671   2.919
 6552TIP3    H119620   5.678   4.627   2.999
 6552TIP3    H219621   5.749   4.597   2.868
 6553TIP3   OH219622   5.982   4.733   4.149
 6553TIP3    H119623   5.903   4.791   4.148
 6553TIP3    H219624   6.033   4.767   4.072
 6554TIP3   OH219625   5.815   4.468   2.759
 6554TIP3    H119626   5.789   4.475   2.664
 6554TIP3    H219627   5.913   4.467   2.750
 6555TIP3   OH219628   6.503   5.140   4.285
 6555TIP3    H119629   6.572   5.102   4.228
 6555TIP3    H219630   6.480   5.065   4.342
 6556TIP3   OH219631   6.629   4.792   2.429
 6556TIP3    H119632   6.611   4.748   2.343
 6556TIP3    H219633   6.594   4.881   2.408
 6557TIP3   OH219634   6.109   4.523   4.265
 6557TIP3    H119635   6.105   4.444   4.207
 6557TIP3    H219636   6.062   4.591   4.211
 6558TIP3   OH219637   6.106   4.309   4.082
 6558TIP3    H119638   6.134   4.352   3.999
 6558TIP3    H219639   6.012   4.287   4.063
 6559TIP3   OH219640   6.125   4.837   3.949
 6559TIP3    H119641   6.213   4.860   3.916
 6559TIP3    H219642   6.068   4.905   3.906
 6560TIP3   OH219643   6.709   4.812   4.335
 6560TIP3    H119644   6.758   4.729   4.333
 6560TIP3    H219645   6.773   4.874   4.296
 6561TIP3   OH219646   6.751   5.066   4.073
 6561TIP3    H119647   6.694   5.121   4.014
 6561TIP3    H219648   6.839   5.087   4.034
 6562TIP3   OH219649   5.990   4.624   4.502
 6562TIP3    H119650   5.919   4.560   4.522
 6562TIP3    H219651   6.016   4.599   4.412
 6563TIP3   OH219652   6.237   4.071   4.153
 6563TIP3    H119653   6.187   4.151   4.129
 6563TIP3    H219654   6.169   4.001   4.141
 6564TIP3   OH219655   6.363   4.569   4.364
 6564TIP3    H119656   6.339   4.553   4.457
 6564TIP3    H219657   6.276   4.548   4.322
 6565TIP3   OH219658   6.603   4.532   4.223
 6565TIP3    H119659   6.527   4.528   4.285
 6565TIP3    H219660   6.676   4.498   4.278
 6566TIP3   OH219661   6.832   4.468   4.372
 6566TIP3    H119662   6.845   4.372   4.385
 6566TIP3    H219663   6.829   4.502   4.464
 6567TIP3   OH219664   5.819   4.409   4.561
 6567TIP3    H119665   5.821   4.317   4.529
 6567TIP3    H219666   5.856   4.398   4.651
 6568TIP3   OH219667   6.330   4.082   4.411
 6568TIP3    H119668   6.395   4.009   4.404
 6568TIP3    H219669   6.290   4.078   4.321
 6569TIP3   OH219670   6.397   4.297   4.567
 6569TIP3    H119671   6.377   4.224   4.504
 6569TIP3    H219672   6.319   4.355   4.557
 6570TIP3   OH219673   5.622   5.532   2.667
 6570TIP3    H119674   5.717   5.517   2.648
 6570TIP3    H219675   5.595   5.579   2.587
 6571TIP3   OH219676   5.099   4.910   2.882
 6571TIP3    H119677   5.194   4.930   2.866
 6571TIP3    H219678   5.091   4.822   2.840
 6572TIP3   OH219679   5.017   5.520   3.298
 6572TIP3    H119680   4.951   5.459   3.257
 6572TIP3    H219681   5.060   5.459   3.362
 6573TIP3   OH219682   5.149   5.364   3.485
 6573TIP3    H119683   5.135   5.295   3.551
 6573TIP3    H219684   5.202   5.427   3.536
 6574TIP3   OH219685   6.880   5.766   3.286
 6574TIP3    H119686   6.906   5.802   3.372
 6574TIP3    H219687   6.944   5.806   3.225
 6575TIP3   OH219688   6.905   5.788   3.568
 6575TIP3    H119689   6.858   5.702   3.561
 6575TIP3    H219690   6.979   5.762   3.625
 6576TIP3   OH219691   6.955   5.466   4.141
 6576TIP3    H119692   6.880   5.478   4.203
 6576TIP3    H219693   6.997   5.554   4.144
 6577TIP3   OH219694   6.769   4.979   2.757
 6577TIP3    H119695   6.835   5.044   2.725
 6577TIP3    H219696   6.816   4.941   2.835
 6578TIP3   OH219697   6.898   4.845   2.961
 6578TIP3    H119698   6.831   4.806   3.021
 6578TIP3    H219699   6.962   4.886   3.023
 6579TIP3   OH219700   6.958   5.241   3.395
 6579TIP3    H119701   7.005   5.171   3.346
 6579TIP3    H219702   6.953   5.313   3.329
 6580TIP3   OH219703   6.779   5.539   3.588
 6580TIP3    H119704   6.706   5.582   3.637
 6580TIP3    H219705   6.731   5.495   3.515
 6581TIP3   OH219706   6.834   4.756   2.607
 6581TIP3    H119707   6.762   4.755   2.539
 6581TIP3    H219708   6.804   4.831   2.661
 6582TIP3   OH219709   6.701   4.430   2.561
 6582TIP3    H119710   6.663   4.458   2.477
 6582TIP3    H219711   6.678   4.335   2.560
 6583TIP3   OH219712   6.708   4.707   3.106
 6583TIP3    H119713   6.715   4.611   3.095
 6583TIP3    H219714   6.693   4.716   3.203
 6584TIP3   OH219715   5.333   4.774   3.858
 6584TIP3    H119716   5.330   4.741   3.766
 6584TIP3    H219717   5.431   4.777   3.873
 6585TIP3   OH219718   6.997   5.133   3.967
 6585TIP3    H119719   7.067   5.065   3.955
 6585TIP3    H219720   7.019   5.197   3.898
 6586TIP3   OH219721   7.178   4.932   3.977
 6586TIP3    H119722   7.102   4.882   4.016
 6586TIP3    H219723   7.250   4.867   3.992
 6587TIP3   OH219724   6.643   4.166   2.554
 6587TIP3    H119725   6.716   4.126   2.604
 6587TIP3    H219726   6.571   4.102   2.562
 6588TIP3   OH219727   6.709   4.423   2.998
 6588TIP3    H119728   6.749   4.334   3.013
 6588TIP3    H219729   6.764   4.454   2.925
 6589TIP3   OH219730   6.863   4.590   3.499
 6589TIP3    H119731   6.949   4.614   3.457
 6589TIP3    H219732   6.880   4.628   3.588
 6590TIP3   OH219733   6.941   4.739   3.728
 6590TIP3    H119734   6.861   4.773   3.774
 6590TIP3    H219735   6.972   4.819   3.681
 6591TIP3   OH219736   5.552   4.460   4.529
 6591TIP3    H119737   5.650   4.456   4.533
 6591TIP3    H219738   5.529   4.373   4.567
 6592TIP3   OH219739   7.375   4.345   4.292
 6592TIP3    H119740   7.442   4.285   4.253
 6592TIP3    H219741   7.345   4.394   4.212
 6593TIP3   OH219742   6.816   4.172   3.039
 6593TIP3    H119743   6.861   4.156   3.125
 6593TIP3    H219744   6.754   4.097   3.036
 6594TIP3   OH219745   5.509   4.158   3.861
 6594TIP3    H119746   5.570   4.082   3.867
 6594TIP3    H219747   5.572   4.232   3.850
 6595TIP3   OH219748   5.314   4.427   3.930
 6595TIP3    H119749   5.366   4.431   3.848
 6595TIP3    H219750   5.335   4.511   3.971
 6596TIP3   OH219751   7.248   4.464   4.085
 6596TIP3    H119752   7.160   4.507   4.092
 6596TIP3    H219753   7.224   4.388   4.029
 6597TIP3   OH219754   6.898   4.104   2.677
 6597TIP3    H119755   6.922   4.029   2.617
 6597TIP3    H219756   6.967   4.168   2.656
 6598TIP3   OH219757   6.459   5.641   2.939
 6598TIP3    H119758   6.509   5.628   2.856
 6598TIP3    H219759   6.515   5.704   2.986
 6599TIP3   OH219760   5.521   4.009   4.245
 6599TIP3    H119761   5.470   4.008   4.328
 6599TIP3    H219762   5.457   4.050   4.184
 6600TIP3   OH219763   5.561   5.445   4.320
 6600TIP3    H119764   5.467   5.420   4.310
 6600TIP3    H219765   5.578   5.426   4.413
 6601TIP3   OH219766   5.742   5.478   3.871
 6601TIP3    H119767   5.694   5.554   3.832
 6601TIP3    H219768   5.828   5.492   3.826
 6602TIP3   OH219769   6.179   5.717   4.007
 6602TIP3    H119770   6.220   5.717   4.096
 6602TIP3    H219771   6.245   5.770   3.957
 6603TIP3   OH219772   6.360   5.874   3.873
 6603TIP3    H119773   6.430   5.824   3.829
 6603TIP3    H219774   6.413   5.931   3.933
 6604TIP3   OH219775   7.154   4.229   3.970
 6604TIP3    H119776   7.065   4.222   3.930
 6604TIP3    H219777   7.188   4.138   3.956
 6605TIP3   OH219778   5.414   5.732   3.896
 6605TIP3    H119779   5.323   5.763   3.875
 6605TIP3    H219780   5.428   5.778   3.980
 6606TIP3   OH219781   5.651   5.711   3.756
 6606TIP3    H119782   5.563   5.722   3.798
 6606TIP3    H219783   5.633   5.741   3.665
 6607TIP3   OH219784   6.076   5.735   3.554
 6607TIP3    H119785   6.006   5.752   3.488
 6607TIP3    H219786   6.087   5.824   3.594
 6608TIP3   OH219787   6.346   5.674   3.608
 6608TIP3    H119788   6.253   5.693   3.586
 6608TIP3    H219789   6.392   5.745   3.560
 6609TIP3   OH219790   6.549   5.864   3.516
 6609TIP3    H119791   6.536   5.948   3.468
 6609TIP3    H219792   6.577   5.804   3.443
 6610TIP3   OH219793   5.326   5.523   3.640
 6610TIP3    H119794   5.353   5.494   3.730
 6610TIP3    H219795   5.398   5.480   3.588
 6611TIP3   OH219796   5.522   5.397   3.501
 6611TIP3    H119797   5.537   5.313   3.551
 6611TIP3    H219798   5.614   5.431   3.496
 6612TIP3   OH219799   5.791   5.488   3.505
 6612TIP3    H119800   5.819   5.395   3.494
 6612TIP3    H219801   5.840   5.510   3.587
 6613TIP3   OH219802   6.366   4.147   3.595
 6613TIP3    H119803   6.322   4.074   3.641
 6613TIP3    H219804   6.438   4.101   3.547
 6614TIP3   OH219805   6.881   4.030   3.502
 6614TIP3    H119806   6.917   4.079   3.424
 6614TIP3    H219807   6.785   4.045   3.491
 6615TIP3   OH219808   6.973   4.121   3.262
 6615TIP3    H119809   7.046   4.071   3.221
 6615TIP3    H219810   7.003   4.213   3.245
 6616TIP3   OH219811   5.610   3.849   3.602
 6616TIP3    H119812   5.520   3.812   3.613
 6616TIP3    H219813   5.662   3.766   3.599
 6617TIP3   OH219814   6.057   3.884   3.488
 6617TIP3    H119815   6.109   3.929   3.419
 6617TIP3    H219816   6.090   3.927   3.568
 6618TIP3   OH219817   6.598   4.035   3.466
 6618TIP3    H119818   6.598   3.997   3.378
 6618TIP3    H219819   6.587   3.955   3.522
 6619TIP3   OH219820   6.631   3.962   3.032
 6619TIP3    H119821   6.545   4.004   3.047
 6619TIP3    H219822   6.616   3.874   3.074
 6620TIP3   OH219823   5.114   5.302   3.025
 6620TIP3    H119824   5.028   5.267   2.995
 6620TIP3    H219825   5.104   5.395   2.997
 6621TIP3   OH219826   5.514   3.882   3.028
 6621TIP3    H119827   5.553   3.822   2.961
 6621TIP3    H219828   5.593   3.934   3.056
 6622TIP3   OH219829   6.024   4.062   3.114
 6622TIP3    H119830   6.087   4.015   3.171
 6622TIP3    H219831   6.047   4.155   3.138
 6623TIP3   OH219832   5.886   5.480   2.611
 6623TIP3    H119833   5.975   5.502   2.576
 6623TIP3    H219834   5.864   5.405   2.551
 6624TIP3   OH219835   6.604   5.601   2.708
 6624TIP3    H119836   6.596   5.503   2.698
 6624TIP3    H219837   6.558   5.632   2.627
 6625TIP3   OH219838   5.817   4.134   4.495
 6625TIP3    H119839   5.780   4.064   4.551
 6625TIP3    H219840   5.911   4.132   4.524
 6626TIP3   OH219841   6.069   4.132   4.614
 6626TIP3    H119842   6.154   4.106   4.574
 6626TIP3    H219843   6.057   4.061   4.680
 6627TIP3   OH219844   5.192   5.323   2.666
 6627TIP3    H119845   5.191   5.332   2.763
 6627TIP3    H219846   5.279   5.278   2.651
 6628TIP3   OH219847   6.896   4.198   4.401
 6628TIP3    H119848   6.914   4.165   4.491
 6628TIP3    H219849   6.986   4.192   4.360
 6629TIP3   OH219850   6.830   5.745   3.890
 6629TIP3    H119851   6.752   5.716   3.840
 6629TIP3    H219852   6.811   5.841   3.898
 6630TIP3   OH219853   7.398   5.030   3.400
 6630TIP3    H119854   7.427   4.952   3.451
 6630TIP3    H219855   7.445   5.101   3.449
 6631TIP3   OH219856   7.375   5.423   3.132
 6631TIP3    H119857   7.364   5.326   3.117
 6631TIP3    H219858   7.443   5.421   3.201
 6632TIP3   OH219859   7.068   4.627   2.907
 6632TIP3    H119860   7.020   4.709   2.927
 6632TIP3    H219861   6.997   4.576   2.864
 6633TIP3   OH219862   7.131   4.927   3.087
 6633TIP3    H119863   7.176   4.844   3.116
 6633TIP3    H219864   7.195   4.962   3.022
 6634TIP3   OH219865   7.259   4.707   3.184
 6634TIP3    H119866   7.341   4.682   3.233
 6634TIP3    H219867   7.276   4.655   3.102
 6635TIP3   OH219868   7.553   4.455   3.521
 6635TIP3    H119869   7.515   4.523   3.463
 6635TIP3    H219870   7.534   4.492   3.609
 6636TIP3   OH219871   7.487   4.604   3.295
 6636TIP3    H119872   7.529   4.694   3.290
 6636TIP3    H219873   7.566   4.550   3.272
 6637TIP3   OH219874   7.553   5.454   3.376
 6637TIP3    H119875   7.550   5.551   3.378
 6637TIP3    H219876   7.496   5.433   3.452
 6638TIP3   OH219877   6.967   5.150   2.648
 6638TIP3    H119878   6.927   5.183   2.565
 6638TIP3    H219879   7.000   5.234   2.687
 6639TIP3   OH219880   7.459   5.021   2.911
 6639TIP3    H119881   7.432   4.976   2.828
 6639TIP3    H219882   7.553   5.043   2.891
 6640TIP3   OH219883   7.511   5.133   3.639
 6640TIP3    H119884   7.539   5.214   3.687
 6640TIP3    H219885   7.424   5.117   3.682
 6641TIP3   OH219886   7.558   5.778   3.652
 6641TIP3    H119887   7.540   5.744   3.563
 6641TIP3    H219888   7.489   5.737   3.707
 6642TIP3   OH219889   7.361   4.881   2.689
 6642TIP3    H119890   7.311   4.934   2.624
 6642TIP3    H219891   7.321   4.795   2.677
 6643TIP3   OH219892   7.158   5.281   3.589
 6643TIP3    H119893   7.088   5.262   3.523
 6643TIP3    H219894   7.190   5.192   3.612
 6644TIP3   OH219895   7.008   5.471   3.225
 6644TIP3    H119896   7.104   5.469   3.217
 6644TIP3    H219897   6.995   5.551   3.277
 6645TIP3   OH219898   7.165   5.686   2.760
 6645TIP3    H119899   7.228   5.675   2.834
 6645TIP3    H219900   7.125   5.598   2.756
 6646TIP3   OH219901   7.361   5.466   3.576
 6646TIP3    H119902   7.413   5.443   3.656
 6646TIP3    H219903   7.287   5.401   3.581
 6647TIP3   OH219904   7.610   4.843   3.311
 6647TIP3    H119905   7.596   4.862   3.405
 6647TIP3    H219906   7.674   4.910   3.284
 6648TIP3   OH219907   7.561   4.674   2.863
 6648TIP3    H119908   7.476   4.666   2.910
 6648TIP3    H219909   7.544   4.746   2.800
 6649TIP3   OH219910   7.548   4.828   3.587
 6649TIP3    H119911   7.549   4.906   3.645
 6649TIP3    H219912   7.523   4.756   3.649
 6650TIP3   OH219913   7.084   4.348   3.171
 6650TIP3    H119914   7.154   4.389   3.225
 6650TIP3    H219915   7.128   4.322   3.089
 6651TIP3   OH219916   7.086   4.355   2.704
 6651TIP3    H119917   7.114   4.388   2.616
 6651TIP3    H219918   7.012   4.416   2.722
 6652TIP3   OH219919   7.321   4.563   2.961
 6652TIP3    H119920   7.229   4.585   2.932
 6652TIP3    H219921   7.326   4.470   2.939
 6653TIP3   OH219922   7.432   4.594   2.396
 6653TIP3    H119923   7.362   4.541   2.437
 6653TIP3    H219924   7.401   4.592   2.303
 6654TIP3   OH219925   7.518   5.380   3.794
 6654TIP3    H119926   7.600   5.408   3.839
 6654TIP3    H219927   7.456   5.377   3.869
 6655TIP3   OH219928   7.379   5.151   3.134
 6655TIP3    H119929   7.410   5.106   3.051
 6655TIP3    H219930   7.404   5.087   3.202
 6656TIP3   OH219931   7.264   5.066   3.736
 6656TIP3    H119932   7.284   5.046   3.830
 6656TIP3    H219933   7.194   5.001   3.716
 6657TIP3   OH219934   7.059   4.750   2.448
 6657TIP3    H119935   7.101   4.837   2.466
 6657TIP3    H219936   6.980   4.755   2.507
 6658TIP3   OH219937   7.470   4.585   3.750
 6658TIP3    H119938   7.372   4.584   3.757
 6658TIP3    H219939   7.496   4.520   3.817
 6659TIP3   OH219940   7.205   5.652   3.366
 6659TIP3    H119941   7.259   5.582   3.406
 6659TIP3    H219942   7.227   5.728   3.422
 6660TIP3   OH219943   7.163   4.998   2.524
 6660TIP3    H119944   7.099   5.041   2.584
 6660TIP3    H219945   7.174   5.068   2.457
 6661TIP3   OH219946   7.163   5.205   2.333
 6661TIP3    H119947   7.226   5.277   2.340
 6661TIP3    H219948   7.203   5.151   2.260
 6662TIP3   OH219949   7.119   4.484   2.468
 6662TIP3    H119950   7.103   4.581   2.465
 6662TIP3    H219951   7.058   4.453   2.399
 6663TIP3   OH219952   7.373   4.165   3.392
 6663TIP3    H119953   7.369   4.142   3.297
 6663TIP3    H219954   7.415   4.085   3.428
 6664TIP3   OH219955   7.022   5.416   2.715
 6664TIP3    H119956   6.958   5.452   2.777
 6664TIP3    H219957   6.996   5.461   2.631
 6665TIP3   OH219958   7.190   5.962   3.787
 6665TIP3    H119959   7.278   5.950   3.826
 6665TIP3    H219960   7.158   5.870   3.785
 6666TIP3   OH219961   7.320   5.370   3.991
 6666TIP3    H119962   7.333   5.274   4.001
 6666TIP3    H219963   7.234   5.373   3.943
 6667TIP3   OH219964   7.285   5.032   2.166
 6667TIP3    H119965   7.350   5.015   2.236
 6667TIP3    H219966   7.340   5.008   2.089
 6668TIP3   OH219967   7.454   5.103   3.966
 6668TIP3    H119968   7.539   5.067   3.936
 6668TIP3    H219969   7.476   5.132   4.057
 6669TIP3   OH219970   7.713   4.933   3.954
 6669TIP3    H119971   7.664   4.860   3.997
 6669TIP3    H219972   7.793   4.885   3.927
 6670TIP3   OH219973   7.609   4.686   4.044
 6670TIP3    H119974   7.691   4.660   3.998
 6670TIP3    H219975   7.626   4.646   4.132
 6671TIP3   OH219976   6.893   5.164   2.362
 6671TIP3    H119977   6.989   5.181   2.351
 6671TIP3    H219978   6.886   5.073   2.326
 6672TIP3   OH219979   6.806   5.772   2.785
 6672TIP3    H119980   6.742   5.709   2.746
 6672TIP3    H219981   6.854   5.713   2.847
 6673TIP3   OH219982   6.939   5.619   2.971
 6673TIP3    H119983   6.932   5.551   3.040
 6673TIP3    H219984   6.995   5.684   3.017
 6674TIP3   OH219985   7.130   5.025   3.345
 6674TIP3    H119986   7.125   4.998   3.250
 6674TIP3    H219987   7.228   5.034   3.355
 6675TIP3   OH219988   7.336   4.713   4.010
 6675TIP3    H119989   7.434   4.708   4.008
 6675TIP3    H219990   7.314   4.627   4.051
 6676TIP3   OH219991   7.271   4.424   3.362
 6676TIP3    H119992   7.315   4.340   3.388
 6676TIP3    H219993   7.348   4.481   3.340
 6677TIP3   OH219994   7.107   4.688   3.421
 6677TIP3    H119995   7.151   4.676   3.335
 6677TIP3    H219996   7.136   4.777   3.445
 6678TIP3   OH219997   7.104   4.199   2.923
 6678TIP3    H119998   7.011   4.184   2.947
 6678TIP3    H219999   7.095   4.259   2.845
 6679TIP3   OH220000   7.302   4.259   3.726
 6679TIP3    H120001   7.259   4.273   3.812
 6679TIP3    H220002   7.243   4.311   3.667
 6680TIP3   OH220003   7.353   5.701   3.835
 6680TIP3    H120004   7.267   5.678   3.794
 6680TIP3    H220005   7.344   5.662   3.922
 6681TIP3   OH220006   7.533   5.730   3.361
 6681TIP3    H120007   7.479   5.801   3.319
 6681TIP3    H220008   7.618   5.750   3.320
 6682TIP3   OH220009   7.211   5.987   3.391
 6682TIP3    H120010   7.121   6.017   3.363
 6682TIP3    H220011   7.220   6.038   3.473
 6683TIP3   OH220012   7.427   5.948   3.231
 6683TIP3    H120013   7.351   5.966   3.291
 6683TIP3    H220014   7.395   5.987   3.149
 6684TIP3   OH220015   7.121   5.777   3.127
 6684TIP3    H120016   7.150   5.747   3.216
 6684TIP3    H220017   7.190   5.734   3.072
 6685TIP3   OH220018   7.317   5.644   2.991
 6685TIP3    H120019   7.324   5.557   3.037
 6685TIP3    H220020   7.410   5.666   2.984
 6686TIP3   OH220021   7.409   4.111   3.119
 6686TIP3    H120022   7.317   4.080   3.103
 6686TIP3    H220023   7.432   4.155   3.035
 6687TIP3   OH220024   7.185   3.973   2.768
 6687TIP3    H120025   7.199   4.013   2.680
 6687TIP3    H220026   7.158   4.051   2.821
 6688TIP3   OH220027   6.913   5.554   2.508
 6688TIP3    H120028   6.824   5.525   2.480
 6688TIP3    H220029   6.905   5.650   2.495
 6689TIP3   OH220030   7.223   4.121   2.510
 6689TIP3    H120031   7.283   4.050   2.481
 6689TIP3    H220032   7.289   4.188   2.534
 6690TIP3   OH220033   7.579   4.348   3.942
 6690TIP3    H120034   7.539   4.301   4.018
 6690TIP3    H220035   7.661   4.381   3.985
 6691TIP3   OH220036   6.982   5.582   2.176
 6691TIP3    H120037   6.955   5.612   2.264
 6691TIP3    H220038   7.051   5.517   2.196
 6692TIP3   OH220039   0.561   5.859   4.364
 6692TIP3    H120040   0.544   5.955   4.374
 6692TIP3    H220041   0.486   5.835   4.307
 6693TIP3   OH220042   0.600   5.882   4.709
 6693TIP3    H120043   0.596   5.868   4.806
 6693TIP3    H220044   0.613   5.791   4.678
 6694TIP3   OH220045   0.794   6.201   4.414
 6694TIP3    H120046   0.793   6.133   4.483
 6694TIP3    H220047   0.837   6.274   4.459
 6695TIP3   OH220048   1.366   5.450   4.780
 6695TIP3    H120049   1.396   5.534   4.818
 6695TIP3    H220050   1.385   5.464   4.685
 6696TIP3   OH220051   0.811   5.638   4.808
 6696TIP3    H120052   0.850   5.549   4.809
 6696TIP3    H220053   0.718   5.618   4.784
 6697TIP3   OH220054   0.804   5.378   4.389
 6697TIP3    H120055   0.872   5.366   4.459
 6697TIP3    H220056   0.861   5.411   4.316
 6698TIP3   OH220057   1.441   5.660   4.951
 6698TIP3    H120058   1.357   5.705   4.928
 6698TIP3    H220059   1.464   5.705   5.034
 6699TIP3   OH220060   1.002   5.390   4.577
 6699TIP3    H120061   0.988   5.355   4.666
 6699TIP3    H220062   1.049   5.473   4.597
 6700TIP3   OH220063   0.850   6.464   4.583
 6700TIP3    H120064   0.755   6.451   4.585
 6700TIP3    H220065   0.857   6.549   4.536
 6701TIP3   OH220066   1.160   5.345   4.942
 6701TIP3    H120067   1.073   5.375   4.908
 6701TIP3    H220068   1.222   5.381   4.875
 6702TIP3   OH220069   0.406   4.979   4.967
 6702TIP3    H120070   0.502   4.959   4.977
 6702TIP3    H220071   0.410   5.076   4.979
 6703TIP3   OH220072   0.605   6.494   4.279
 6703TIP3    H120073   0.644   6.415   4.237
 6703TIP3    H220074   0.639   6.564   4.219
 6704TIP3   OH220075   0.709   6.269   4.157
 6704TIP3    H120076   0.713   6.192   4.098
 6704TIP3    H220077   0.736   6.232   4.243
 6705TIP3   OH220078   1.093   6.364   4.923
 6705TIP3    H120079   1.076   6.286   4.866
 6705TIP3    H220080   1.075   6.437   4.860
 6706TIP3   OH220081   0.381   5.763   4.174
 6706TIP3    H120082   0.299   5.794   4.133
 6706TIP3    H220083   0.441   5.757   4.097
 6707TIP3   OH220084   0.385   5.547   3.912
 6707TIP3    H120085   0.463   5.601   3.937
 6707TIP3    H220086   0.429   5.471   3.869
 6708TIP3   OH220087   1.285   6.007   4.770
 6708TIP3    H120088   1.200   6.055   4.774
 6708TIP3    H220089   1.315   6.030   4.680
 6709TIP3   OH220090   0.744   5.856   4.158
 6709TIP3    H120091   0.690   5.861   4.240
 6709TIP3    H220092   0.830   5.826   4.196
 6710TIP3   OH220093   0.996   5.873   5.079
 6710TIP3    H120094   0.988   5.952   5.137
 6710TIP3    H220095   0.912   5.881   5.029
 6711TIP3   OH220096   0.588   5.713   3.987
 6711TIP3    H120097   0.649   5.773   4.035
 6711TIP3    H220098   0.613   5.734   3.893
 6712TIP3   OH220099   1.087   4.937   4.027
 6712TIP3    H120100   1.006   4.963   4.075
 6712TIP3    H220101   1.104   5.019   3.975
 6713TIP3   OH220102   0.885   6.304   3.578
 6713TIP3    H120103   0.894   6.399   3.557
 6713TIP3    H220104   0.977   6.273   3.566
 6714TIP3   OH220105   1.328   6.715   4.969
 6714TIP3    H120106   1.328   6.619   4.986
 6714TIP3    H220107   1.246   6.741   5.017
 6715TIP3   OH220108   0.416   6.516   3.729
 6715TIP3    H120109   0.467   6.464   3.662
 6715TIP3    H220110   0.462   6.493   3.810
 6716TIP3   OH220111   1.217   5.837   5.249
 6716TIP3    H120112   1.136   5.850   5.196
 6716TIP3    H220113   1.232   5.741   5.237
 6717TIP3   OH220114   0.741   5.176   5.278
 6717TIP3    H120115   0.833   5.148   5.300
 6717TIP3    H220116   0.704   5.174   5.368
 6718TIP3   OH220117   0.967   5.602   5.167
 6718TIP3    H120118   0.915   5.611   5.249
 6718TIP3    H220119   0.958   5.691   5.128
 6719TIP3   OH220120   0.658   5.753   3.734
 6719TIP3    H120121   0.623   5.719   3.650
 6719TIP3    H220122   0.742   5.792   3.703
 6720TIP3   OH220123   0.492   5.546   4.304
 6720TIP3    H120124   0.457   5.625   4.258
 6720TIP3    H220125   0.559   5.514   4.240
 6721TIP3   OH220126   0.708   5.825   5.462
 6721TIP3    H120127   0.773   5.757   5.490
 6721TIP3    H220128   0.770   5.895   5.434
 6722TIP3   OH220129   0.701   5.609   4.507
 6722TIP3    H120130   0.628   5.631   4.446
 6722TIP3    H220131   0.728   5.521   4.472
 6723TIP3   OH220132   0.755   5.856   4.958
 6723TIP3    H120133   0.780   5.780   4.901
 6723TIP3    H220134   0.709   5.809   5.031
 6724TIP3   OH220135   0.858   5.366   4.852
 6724TIP3    H120136   0.822   5.386   4.942
 6724TIP3    H220137   0.789   5.305   4.820
 6725TIP3   OH220138   1.023   7.057   5.057
 6725TIP3    H120139   1.023   7.077   4.961
 6725TIP3    H220140   1.101   7.107   5.087
 6726TIP3   OH220141   0.538   5.606   4.767
 6726TIP3    H120142   0.499   5.570   4.686
 6726TIP3    H220143   0.459   5.641   4.812
 6727TIP3   OH220144   1.052   6.150   4.755
 6727TIP3    H120145   1.078   6.201   4.676
 6727TIP3    H220146   0.970   6.105   4.724
 6728TIP3   OH220147   0.573   5.217   4.012
 6728TIP3    H120148   0.480   5.218   3.979
 6728TIP3    H220149   0.593   5.312   4.024
 6729TIP3   OH220150   0.676   5.473   4.105
 6729TIP3    H120151   0.772   5.470   4.120
 6729TIP3    H220152   0.665   5.555   4.054
 6730TIP3   OH220153   1.114   5.568   3.933
 6730TIP3    H120154   1.053   5.524   3.868
 6730TIP3    H220155   1.113   5.657   3.892
 6731TIP3   OH220156   1.342   6.428   5.008
 6731TIP3    H120157   1.245   6.418   5.001
 6731TIP3    H220158   1.368   6.394   4.920
 6732TIP3   OH220159   0.818   6.384   3.839
 6732TIP3    H120160   0.793   6.312   3.899
 6732TIP3    H220161   0.834   6.337   3.755
 6733TIP3   OH220162   0.832   6.021   4.650
 6733TIP3    H120163   0.745   5.985   4.678
 6733TIP3    H220164   0.872   5.939   4.614
 6734TIP3   OH220165   0.702   6.229   4.940
 6734TIP3    H120166   0.611   6.219   4.975
 6734TIP3    H220167   0.706   6.160   4.873
 6735TIP3   OH220168   0.585   6.111   3.752
 6735TIP3    H120169   0.643   6.086   3.828
 6735TIP3    H220170   0.499   6.080   3.785
 6736TIP3   OH220171   0.856   6.744   4.896
 6736TIP3    H120172   0.772   6.728   4.941
 6736TIP3    H220173   0.833   6.818   4.836
 6737TIP3   OH220174   0.913   6.580   3.557
 6737TIP3    H120175   0.968   6.658   3.536
 6737TIP3    H220176   0.831   6.624   3.588
 6738TIP3   OH220177   0.750   6.055   3.969
 6738TIP3    H120178   0.739   5.984   4.037
 6738TIP3    H220179   0.846   6.043   3.949
 6739TIP3   OH220180   0.770   5.411   5.106
 6739TIP3    H120181   0.839   5.476   5.132
 6739TIP3    H220182   0.773   5.346   5.179
 6740TIP3   OH220183   0.672   5.153   4.270
 6740TIP3    H120184   0.629   5.172   4.185
 6740TIP3    H220185   0.699   5.242   4.301
 6741TIP3   OH220186   0.400   5.310   4.415
 6741TIP3    H120187   0.432   5.378   4.353
 6741TIP3    H220188   0.346   5.366   4.473
 6742TIP3   OH220189   0.679   5.705   5.173
 6742TIP3    H120190   0.634   5.728   5.256
 6742TIP3    H220191   0.651   5.613   5.159
 6743TIP3   OH220192   0.546   5.090   4.515
 6743TIP3    H120193   0.529   5.186   4.503
 6743TIP3    H220194   0.566   5.071   4.421
 6744TIP3   OH220195   1.242   5.575   5.169
 6744TIP3    H120196   1.145   5.565   5.171
 6744TIP3    H220197   1.262   5.542   5.081
 6745TIP3   OH220198   0.915   5.776   4.553
 6745TIP3    H120199   0.835   5.720   4.556
 6745TIP3    H220200   0.977   5.722   4.606
 6746TIP3   OH220201   0.871   6.727   4.506
 6746TIP3    H120202   0.825   6.770   4.430
 6746TIP3    H220203   0.964   6.748   4.483
 6747TIP3   OH220204   0.739   6.662   5.285
 6747TIP3    H120205   0.755   6.571   5.257
 6747TIP3    H220206   0.830   6.697   5.298
 6748TIP3   OH220207   0.551   6.336   3.570
 6748TIP3    H120208   0.594   6.270   3.626
 6748TIP3    H220209   0.601   6.331   3.486
 6749TIP3   OH220210   0.903   6.294   5.113
 6749TIP3    H120211   0.975   6.330   5.058
 6749TIP3    H220212   0.834   6.274   5.045
 6750TIP3   OH220213   0.789   6.136   5.460
 6750TIP3    H120214   0.880   6.162   5.439
 6750TIP3    H220215   0.805   6.097   5.548
 6751TIP3   OH220216   0.881   5.838   3.604
 6751TIP3    H120217   0.862   5.794   3.519
 6751TIP3    H220218   0.844   5.927   3.583
 6752TIP3   OH220219   1.000   5.846   5.503
 6752TIP3    H120220   1.058   5.769   5.503
 6752TIP3    H220221   1.056   5.912   5.459
 6753TIP3   OH220222   1.020   6.091   5.244
 6753TIP3    H120223   0.963   6.163   5.207
 6753TIP3    H220224   1.106   6.117   5.204
 6754TIP3   OH220225   0.849   5.560   5.416
 6754TIP3    H120226   0.796   5.506   5.476
 6754TIP3    H220227   0.939   5.546   5.454
 6755TIP3   OH220228   1.083   5.504   5.545
 6755TIP3    H120229   1.096   5.409   5.562
 6755TIP3    H220230   1.078   5.540   5.637
 6756TIP3   OH220231   0.604   5.093   5.534
 6756TIP3    H120232   0.674   5.032   5.563
 6756TIP3    H220233   0.527   5.033   5.542
 6757TIP3   OH220234   0.626   5.335   5.771
 6757TIP3    H120235   0.651   5.247   5.738
 6757TIP3    H220236   0.576   5.368   5.695
 6758TIP3   OH220237   1.126   6.807   4.464
 6758TIP3    H120238   1.162   6.835   4.550
 6758TIP3    H220239   1.192   6.841   4.402
 6759TIP3   OH220240   1.180   6.809   4.742
 6759TIP3    H120241   1.128   6.727   4.734
 6759TIP3    H220242   1.248   6.778   4.805
 6760TIP3   OH220243   1.196   6.504   5.316
 6760TIP3    H120244   1.126   6.523   5.381
 6760TIP3    H220245   1.238   6.592   5.305
 6761TIP3   OH220246   1.020   6.024   3.933
 6761TIP3    H120247   1.085   6.088   3.900
 6761TIP3    H220248   1.067   5.987   4.012
 6762TIP3   OH220249   1.146   5.892   4.139
 6762TIP3    H120250   1.080   5.849   4.198
 6762TIP3    H220251   1.212   5.927   4.202
 6763TIP3   OH220252   1.202   6.286   4.569
 6763TIP3    H120253   1.254   6.216   4.524
 6763TIP3    H220254   1.207   6.359   4.504
 6764TIP3   OH220255   1.031   6.578   4.760
 6764TIP3    H120256   0.961   6.629   4.807
 6764TIP3    H220257   0.979   6.533   4.691
 6765TIP3   OH220258   1.083   5.800   3.784
 6765TIP3    H120259   1.012   5.800   3.716
 6765TIP3    H220260   1.053   5.876   3.838
 6766TIP3   OH220261   0.952   5.473   3.737
 6766TIP3    H120262   0.910   5.504   3.656
 6766TIP3    H220263   0.930   5.377   3.733
 6767TIP3   OH220264   0.962   5.749   4.285
 6767TIP3    H120265   0.966   5.652   4.276
 6767TIP3    H220266   0.948   5.761   4.381
 6768TIP3   OH220267   1.255   6.176   5.141
 6768TIP3    H120268   1.325   6.108   5.127
 6768TIP3    H220269   1.277   6.242   5.073
 6769TIP3   OH220270   1.430   5.971   5.146
 6769TIP3    H120271   1.356   5.924   5.190
 6769TIP3    H220272   1.503   5.909   5.167
 6770TIP3   OH220273   0.895   5.208   3.722
 6770TIP3    H120274   0.965   5.170   3.779
 6770TIP3    H220275   0.818   5.150   3.740
 6771TIP3   OH220276   0.957   5.466   4.172
 6771TIP3    H120277   1.000   5.378   4.186
 6771TIP3    H220278   1.014   5.500   4.101
 6772TIP3   OH220279   1.118   5.626   4.673
 6772TIP3    H120280   1.203   5.653   4.632
 6772TIP3    H220281   1.129   5.668   4.761
 6773TIP3   OH220282   1.196   5.779   4.899
 6773TIP3    H120283   1.124   5.813   4.955
 6773TIP3    H220284   1.226   5.860   4.853
 6774TIP3   OH220285   1.633   5.375   5.458
 6774TIP3    H120286   1.696   5.311   5.419
 6774TIP3    H220287   1.604   5.426   5.380
 6775TIP3   OH220288   1.066   5.218   4.215
 6775TIP3    H120289   1.112   5.200   4.299
 6775TIP3    H220290   1.004   5.142   4.211
 6776TIP3   OH220291   1.502   5.511   5.261
 6776TIP3    H120292   1.417   5.555   5.280
 6776TIP3    H220293   1.470   5.437   5.205
 6777TIP3   OH220294   1.141   5.144   3.853
 6777TIP3    H120295   1.179   5.077   3.792
 6777TIP3    H220296   1.207   5.216   3.848
 6778TIP3   OH220297   0.703   6.684   4.107
 6778TIP3    H120298   0.761   6.674   4.028
 6778TIP3    H220299   0.755   6.743   4.164
 6779TIP3   OH220300   1.406   5.274   5.146
 6779TIP3    H120301   1.319   5.267   5.103
 6779TIP3    H220302   1.441   5.183   5.137
 6780TIP3   OH220303   0.824   6.929   4.684
 6780TIP3    H120304   0.769   6.974   4.618
 6780TIP3    H220305   0.847   6.848   4.633
 6781TIP3   OH220306   0.621   5.170   4.794
 6781TIP3    H120307   0.551   5.131   4.740
 6781TIP3    H220308   0.696   5.158   4.733
 6782TIP3   OH220309   1.127   5.072   4.669
 6782TIP3    H120310   1.166   5.122   4.594
 6782TIP3    H220311   1.033   5.097   4.662
 6783TIP3   OH220312   1.226   5.165   4.433
 6783TIP3    H120313   1.301   5.114   4.395
 6783TIP3    H220314   1.260   5.257   4.420
 6784TIP3   OH220315   0.844   5.084   4.649
 6784TIP3    H120316   0.837   5.055   4.557
 6784TIP3    H220317   0.828   5.001   4.698
 6785TIP3   OH220318   0.887   5.005   4.203
 6785TIP3    H120319   0.805   5.056   4.222
 6785TIP3    H220320   0.864   4.920   4.246
 6786TIP3   OH220321   0.373   5.035   4.279
 6786TIP3    H120322   0.276   5.034   4.287
 6786TIP3    H220323   0.383   5.120   4.232
 6787TIP3   OH220324   0.861   6.649   3.882
 6787TIP3    H120325   0.851   6.551   3.875
 6787TIP3    H220326   0.811   6.679   3.804
 6788TIP3   OH220327   1.145   5.236   5.577
 6788TIP3    H120328   1.165   5.207   5.668
 6788TIP3    H220329   1.235   5.237   5.536
 6789TIP3   OH220330   1.081   6.791   5.064
 6789TIP3    H120331   1.007   6.759   5.009
 6789TIP3    H220332   1.056   6.885   5.073
 6790TIP3   OH220333   2.348   6.169   3.833
 6790TIP3    H120334   2.315   6.257   3.807
 6790TIP3    H220335   2.275   6.113   3.799
 6791TIP3   OH220336   2.352   6.168   4.221
 6791TIP3    H120337   2.384   6.137   4.308
 6791TIP3    H220338   2.309   6.088   4.187
 6792TIP3   OH220339   1.642   6.056   4.585
 6792TIP3    H120340   1.673   5.986   4.646
 6792TIP3    H220341   1.724   6.104   4.568
 6793TIP3   OH220342   2.595   6.470   3.899
 6793TIP3    H120343   2.571   6.398   3.960
 6793TIP3    H220344   2.623   6.540   3.959
 6794TIP3   OH220345   1.620   6.471   4.307
 6794TIP3    H120346   1.612   6.373   4.306
 6794TIP3    H220347   1.716   6.480   4.290
 6795TIP3   OH220348   1.323   5.666   4.086
 6795TIP3    H120349   1.277   5.750   4.106
 6795TIP3    H220350   1.252   5.618   4.040
 6796TIP3   OH220351   1.380   5.958   4.270
 6796TIP3    H120352   1.431   5.879   4.300
 6796TIP3    H220353   1.440   5.996   4.204
 6797TIP3   OH220354   2.251   6.929   3.928
 6797TIP3    H120355   2.291   6.860   3.870
 6797TIP3    H220356   2.225   6.876   4.004
 6798TIP3   OH220357   2.142   6.392   4.266
 6798TIP3    H120358   2.180   6.316   4.219
 6798TIP3    H220359   2.226   6.437   4.291
 6799TIP3   OH220360   3.162   5.709   4.264
 6799TIP3    H120361   3.192   5.793   4.303
 6799TIP3    H220362   3.185   5.721   4.170
 6800TIP3   OH220363   2.558   5.890   4.294
 6800TIP3    H120364   2.601   5.804   4.315
 6800TIP3    H220365   2.525   5.872   4.204
 6801TIP3   OH220366   1.901   5.550   4.260
 6801TIP3    H120367   1.880   5.623   4.197
 6801TIP3    H220368   1.852   5.477   4.216
 6802TIP3   OH220369   2.593   5.645   3.880
 6802TIP3    H120370   2.664   5.629   3.947
 6802TIP3    H220371   2.647   5.677   3.806
 6803TIP3   OH220372   1.529   5.751   4.369
 6803TIP3    H120373   1.612   5.733   4.417
 6803TIP3    H220374   1.544   5.696   4.289
 6804TIP3   OH220375   1.967   5.949   4.171
 6804TIP3    H120376   2.062   5.926   4.179
 6804TIP3    H220377   1.929   5.866   4.134
 6805TIP3   OH220378   3.236   5.921   4.432
 6805TIP3    H120379   3.150   5.964   4.412
 6805TIP3    H220380   3.250   5.950   4.523
 6806TIP3   OH220381   1.892   5.535   4.697
 6806TIP3    H120382   1.833   5.571   4.628
 6806TIP3    H220383   1.838   5.552   4.777
 6807TIP3   OH220384   2.243   6.387   3.697
 6807TIP3    H120385   2.189   6.366   3.619
 6807TIP3    H220386   2.196   6.467   3.730
 6808TIP3   OH220387   2.000   6.310   4.486
 6808TIP3    H120388   1.940   6.380   4.522
 6808TIP3    H220389   2.040   6.357   4.409
 6809TIP3   OH220390   2.795   5.650   4.060
 6809TIP3    H120391   2.782   5.602   4.144
 6809TIP3    H220392   2.847   5.727   4.089
 6810TIP3   OH220393   1.765   5.648   4.479
 6810TIP3    H120394   1.828   5.720   4.503
 6810TIP3    H220395   1.814   5.609   4.403
 6811TIP3   OH220396   1.830   6.506   4.592
 6811TIP3    H120397   1.804   6.591   4.552
 6811TIP3    H220398   1.750   6.488   4.645
 6812TIP3   OH220399   1.215   6.196   3.824
 6812TIP3    H120400   1.180   6.225   3.738
 6812TIP3    H220401   1.251   6.279   3.861
 6813TIP3   OH220402   2.659   6.714   4.065
 6813TIP3    H120403   2.570   6.702   4.106
 6813TIP3    H220404   2.645   6.799   4.019
 6814TIP3   OH220405   2.953   5.610   4.430
 6814TIP3    H120406   2.866   5.633   4.394
 6814TIP3    H220407   3.014   5.642   4.360
 6815TIP3   OH220408   2.243   5.249   4.412
 6815TIP3    H120409   2.227   5.155   4.430
 6815TIP3    H220410   2.167   5.290   4.460
 6816TIP3   OH220411   2.362   6.760   3.742
 6816TIP3    H120412   2.408   6.674   3.726
 6816TIP3    H220413   2.426   6.820   3.697
 6817TIP3   OH220414   2.503   6.543   3.650
 6817TIP3    H120415   2.451   6.467   3.621
 6817TIP3    H220416   2.544   6.508   3.732
 6818TIP3   OH220417   2.884   6.619   4.408
 6818TIP3    H120418   2.870   6.541   4.350
 6818TIP3    H220419   2.866   6.693   4.345
 6819TIP3   OH220420   2.182   6.014   3.674
 6819TIP3    H120421   2.098   6.065   3.659
 6819TIP3    H220422   2.219   6.013   3.584
 6820TIP3   OH220423   2.135   5.805   3.376
 6820TIP3    H120424   2.201   5.857   3.426
 6820TIP3    H220425   2.195   5.742   3.330
 6821TIP3   OH220426   3.080   6.265   4.258
 6821TIP3    H120427   2.994   6.313   4.260
 6821TIP3    H220428   3.110   6.286   4.167
 6822TIP3   OH220429   2.526   6.102   3.635
 6822TIP3    H120430   2.471   6.124   3.713
 6822TIP3    H220431   2.610   6.077   3.679
 6823TIP3   OH220432   2.759   6.135   4.556
 6823TIP3    H120433   2.755   6.219   4.606
 6823TIP3    H220434   2.672   6.137   4.510
 6824TIP3   OH220435   1.754   6.095   4.058
 6824TIP3    H120436   1.714   6.038   3.989
 6824TIP3    H220437   1.831   6.041   4.086
 6825TIP3   OH220438   1.880   6.508   4.200
 6825TIP3    H120439   1.854   6.483   4.109
 6825TIP3    H220440   1.967   6.464   4.210
 6826TIP3   OH220441   1.888   6.067   4.412
 6826TIP3    H120442   1.920   6.038   4.324
 6826TIP3    H220443   1.934   6.153   4.425
 6827TIP3   OH220444   2.421   6.705   4.189
 6827TIP3    H120445   2.408   6.782   4.247
 6827TIP3    H220446   2.403   6.630   4.249
 6828TIP3   OH220447   2.033   6.625   4.735
 6828TIP3    H120448   1.970   6.685   4.780
 6828TIP3    H220449   1.970   6.570   4.682
 6829TIP3   OH220450   2.364   5.956   3.463
 6829TIP3    H120451   2.422   6.019   3.512
 6829TIP3    H220452   2.391   5.976   3.370
 6830TIP3   OH220453   1.790   6.175   4.844
 6830TIP3    H120454   1.793   6.265   4.882
 6830TIP3    H220455   1.694   6.155   4.853
 6831TIP3   OH220456   2.116   6.624   3.750
 6831TIP3    H120457   2.185   6.693   3.749
 6831TIP3    H220458   2.044   6.662   3.698
 6832TIP3   OH220459   1.825   6.790   4.823
 6832TIP3    H120460   1.791   6.791   4.731
 6832TIP3    H220461   1.744   6.768   4.874
 6833TIP3   OH220462   2.881   5.195   3.515
 6833TIP3    H120463   2.799   5.218   3.563
 6833TIP3    H220464   2.897   5.276   3.463
 6834TIP3   OH220465   1.624   5.939   3.861
 6834TIP3    H120466   1.557   5.985   3.805
 6834TIP3    H220467   1.587   5.850   3.865
 6835TIP3   OH220468   2.682   6.560   3.062
 6835TIP3    H120469   2.690   6.656   3.044
 6835TIP3    H220470   2.774   6.530   3.049
 6836TIP3   OH220471   1.405   6.324   4.767
 6836TIP3    H120472   1.337   6.304   4.699
 6836TIP3    H220473   1.443   6.236   4.787
 6837TIP3   OH220474   1.260   6.511   4.404
 6837TIP3    H120475   1.355   6.508   4.389
 6837TIP3    H220476   1.251   6.593   4.455
 6838TIP3   OH220477   3.118   6.969   4.452
 6838TIP3    H120478   3.122   6.873   4.473
 6838TIP3    H220479   3.038   6.994   4.503
 6839TIP3   OH220480   2.228   6.751   4.592
 6839TIP3    H120481   2.224   6.843   4.625
 6839TIP3    H220482   2.155   6.710   4.644
 6840TIP3   OH220483   1.993   6.906   3.524
 6840TIP3    H120484   1.952   6.852   3.454
 6840TIP3    H220485   1.917   6.955   3.558
 6841TIP3   OH220486   1.414   6.738   3.932
 6841TIP3    H120487   1.472   6.731   4.011
 6841TIP3    H220488   1.376   6.648   3.931
 6842TIP3   OH220489   2.190   6.793   3.176
 6842TIP3    H120490   2.244   6.720   3.139
 6842TIP3    H220491   2.222   6.795   3.269
 6843TIP3   OH220492   2.244   6.834   3.448
 6843TIP3    H120493   2.155   6.855   3.485
 6843TIP3    H220494   2.282   6.779   3.518
 6844TIP3   OH220495   3.010   6.096   4.732
 6844TIP3    H120496   2.926   6.104   4.683
 6844TIP3    H220497   3.028   6.000   4.722
 6845TIP3   OH220498   1.608   6.508   4.754
 6845TIP3    H120499   1.658   6.487   4.835
 6845TIP3    H220500   1.533   6.445   4.759
 6846TIP3   OH220501   2.008   5.328   4.544
 6846TIP3    H120502   1.920   5.298   4.512
 6846TIP3    H220503   1.981   5.408   4.593
 6847TIP3   OH220504   2.545   5.443   4.736
 6847TIP3    H120505   2.614   5.414   4.799
 6847TIP3    H220506   2.462   5.423   4.785
 6848TIP3   OH220507   2.779   5.873   4.655
 6848TIP3    H120508   2.726   5.871   4.738
 6848TIP3    H220509   2.755   5.960   4.618
 6849TIP3   OH220510   2.442   6.000   3.209
 6849TIP3    H120511   2.406   5.977   3.121
 6849TIP3    H220512   2.527   6.040   3.184
 6850TIP3   OH220513   2.152   5.375   3.514
 6850TIP3    H120514   2.115   5.370   3.604
 6850TIP3    H220515   2.112   5.294   3.476
 6851TIP3   OH220516   1.941   5.846   4.560
 6851TIP3    H120517   1.890   5.865   4.641
 6851TIP3    H220518   1.925   5.927   4.507
 6852TIP3   OH220519   1.825   5.731   4.074
 6852TIP3    H120520   1.732   5.707   4.092
 6852TIP3    H220521   1.836   5.691   3.985
 6853TIP3   OH220522   2.317   5.814   3.806
 6853TIP3    H120523   2.267   5.885   3.760
 6853TIP3    H220524   2.372   5.778   3.734
 6854TIP3   OH220525   2.489   6.091   4.886
 6854TIP3    H120526   2.467   6.018   4.948
 6854TIP3    H220527   2.584   6.103   4.908
 6855TIP3   OH220528   2.470   5.842   4.038
 6855TIP3    H120529   2.406   5.866   3.968
 6855TIP3    H220530   2.508   5.763   3.994
 6856TIP3   OH220531   1.761   5.872   4.767
 6856TIP3    H120532   1.790   5.936   4.834
 6856TIP3    H220533   1.750   5.790   4.820
 6857TIP3   OH220534   1.809   5.352   3.478
 6857TIP3    H120535   1.798   5.352   3.575
 6857TIP3    H220536   1.733   5.407   3.451
 6858TIP3   OH220537   1.352   5.389   4.354
 6858TIP3    H120538   1.427   5.425   4.405
 6858TIP3    H220539   1.391   5.366   4.269
 6859TIP3   OH220540   1.315   5.374   3.869
 6859TIP3    H120541   1.361   5.409   3.789
 6859TIP3    H220542   1.254   5.448   3.886
 6860TIP3   OH220543   2.484   6.086   4.461
 6860TIP3    H120544   2.516   6.016   4.400
 6860TIP3    H220545   2.451   6.031   4.535
 6861TIP3   OH220546   2.159   5.550   4.133
 6861TIP3    H120547   2.077   5.551   4.187
 6861TIP3    H220548   2.228   5.544   4.201
 6862TIP3   OH220549   1.585   5.610   4.141
 6862TIP3    H120550   1.491   5.618   4.111
 6862TIP3    H220551   1.608   5.519   4.117
 6863TIP3   OH220552   1.849   5.603   3.833
 6863TIP3    H120553   1.942   5.618   3.810
 6863TIP3    H220554   1.801   5.623   3.750
 6864TIP3   OH220555   2.644   5.629   4.339
 6864TIP3    H120556   2.611   5.643   4.431
 6864TIP3    H220557   2.576   5.569   4.305
 6865TIP3   OH220558   1.704   5.635   3.607
 6865TIP3    H120559   1.632   5.592   3.556
 6865TIP3    H220560   1.756   5.676   3.535
 6866TIP3   OH220561   2.803   7.320   4.550
 6866TIP3    H120562   2.795   7.343   4.456
 6866TIP3    H220563   2.888   7.365   4.571
 6867TIP3   OH220564   1.771   6.428   4.975
 6867TIP3    H120565   1.851   6.457   5.024
 6867TIP3    H220566   1.707   6.423   5.048
 6868TIP3   OH220567   2.233   5.883   4.232
 6868TIP3    H120568   2.307   5.844   4.182
 6868TIP3    H220569   2.238   5.835   4.317
 6869TIP3   OH220570   1.752   5.368   4.115
 6869TIP3    H120571   1.716   5.292   4.164
 6869TIP3    H220572   1.793   5.325   4.038
 6870TIP3   OH220573   2.210   5.782   4.519
 6870TIP3    H120574   2.119   5.816   4.534
 6870TIP3    H220575   2.266   5.844   4.570
 6871TIP3   OH220576   1.954   6.162   3.621
 6871TIP3    H120577   1.868   6.126   3.594
 6871TIP3    H220578   1.929   6.206   3.706
 6872TIP3   OH220579   2.843   6.405   4.241
 6872TIP3    H120580   2.866   6.455   4.161
 6872TIP3    H220581   2.760   6.359   4.215
 6873TIP3   OH220582   2.404   5.475   3.489
 6873TIP3    H120583   2.307   5.455   3.494
 6873TIP3    H220584   2.409   5.570   3.510
 6874TIP3   OH220585   2.352   6.492   4.611
 6874TIP3    H120586   2.376   6.468   4.701
 6874TIP3    H220587   2.306   6.577   4.622
 6875TIP3   OH220588   2.471   5.730   3.588
 6875TIP3    H120589   2.568   5.736   3.600
 6875TIP3    H220590   2.451   5.810   3.536
 6876TIP3   OH220591   1.640   6.192   4.290
 6876TIP3    H120592   1.675   6.166   4.202
 6876TIP3    H220593   1.688   6.133   4.349
 6877TIP3   OH220594   2.088   6.319   3.441
 6877TIP3    H120595   2.043   6.407   3.447
 6877TIP3    H220596   2.032   6.265   3.500
 6878TIP3   OH220597   1.523   6.110   4.905
 6878TIP3    H120598   1.537   6.093   5.000
 6878TIP3    H220599   1.453   6.046   4.884
 6879TIP3   OH220600   2.250   6.229   4.923
 6879TIP3    H120601   2.187   6.169   4.881
 6879TIP3    H220602   2.335   6.190   4.895
 6880TIP3   OH220603   2.504   6.762   4.505
 6880TIP3    H120604   2.409   6.747   4.523
 6880TIP3    H220605   2.531   6.806   4.588
 6881TIP3   OH220606   2.911   5.824   3.419
 6881TIP3    H120607   2.850   5.780   3.355
 6881TIP3    H220608   2.910   5.913   3.379
 6882TIP3   OH220609   3.134   6.684   4.494
 6882TIP3    H120610   3.036   6.674   4.487
 6882TIP3    H220611   3.160   6.650   4.405
 6883TIP3   OH220612   2.624   6.638   3.330
 6883TIP3    H120613   2.587   6.573   3.393
 6883TIP3    H220614   2.629   6.588   3.247
 6884TIP3   OH220615   2.613   6.268   4.159
 6884TIP3    H120616   2.519   6.243   4.173
 6884TIP3    H220617   2.645   6.187   4.114
 6885TIP3   OH220618   1.748   6.489   3.939
 6885TIP3    H120619   1.741   6.574   3.890
 6885TIP3    H220620   1.668   6.445   3.907
 6886TIP3   OH220621   1.308   5.798   3.624
 6886TIP3    H120622   1.353   5.883   3.645
 6886TIP3    H220623   1.231   5.802   3.685
 6887TIP3   OH220624   1.885   6.259   3.865
 6887TIP3    H120625   1.851   6.350   3.878
 6887TIP3    H220626   1.841   6.211   3.937
 6888TIP3   OH220627   2.014   6.836   4.387
 6888TIP3    H120628   2.056   6.907   4.334
 6888TIP3    H220629   2.091   6.797   4.431
 6889TIP3   OH220630   1.679   6.723   3.818
 6889TIP3    H120631   1.583   6.732   3.815
 6889TIP3    H220632   1.707   6.810   3.782
 6890TIP3   OH220633   2.396   6.473   4.344
 6890TIP3    H120634   2.386   6.472   4.442
 6890TIP3    H220635   2.470   6.412   4.332
 6891TIP3   OH220636   2.375   6.373   3.227
 6891TIP3    H120637   2.428   6.345   3.306
 6891TIP3    H220638   2.288   6.339   3.252
 6892TIP3   OH220639   2.646   7.002   4.391
 6892TIP3    H120640   2.569   6.941   4.394
 6892TIP3    H220641   2.618   7.064   4.321
 6893TIP3   OH220642   2.709   6.837   3.044
 6893TIP3    H120643   2.762   6.916   3.021
 6893TIP3    H220644   2.628   6.880   3.077
 6894TIP3   OH220645   1.728   5.616   4.910
 6894TIP3    H120646   1.631   5.616   4.921
 6894TIP3    H220647   1.757   5.561   4.984
 6895TIP3   OH220648   2.537   6.299   3.438
 6895TIP3    H120649   2.524   6.236   3.511
 6895TIP3    H220650   2.635   6.294   3.429
 6896TIP3   OH220651   1.447   6.696   4.543
 6896TIP3    H120652   1.505   6.627   4.581
 6896TIP3    H220653   1.476   6.775   4.591
 6897TIP3   OH220654   1.744   6.340   3.215
 6897TIP3    H120655   1.751   6.243   3.216
 6897TIP3    H220656   1.722   6.359   3.309
 6898TIP3   OH220657   1.417   6.042   3.706
 6898TIP3    H120658   1.349   6.090   3.759
 6898TIP3    H220659   1.437   6.109   3.638
 6899TIP3   OH220660   2.570   5.682   4.600
 6899TIP3    H120661   2.654   5.718   4.635
 6899TIP3    H220662   2.559   5.600   4.653
 6900TIP3   OH220663   2.451   5.426   3.768
 6900TIP3    H120664   2.437   5.446   3.673
 6900TIP3    H220665   2.490   5.510   3.801
 6901TIP3   OH220666   1.952   6.552   3.463
 6901TIP3    H120667   1.867   6.508   3.488
 6901TIP3    H220668   1.920   6.621   3.403
 6902TIP3   OH220669   2.134   5.614   3.865
 6902TIP3    H120670   2.198   5.686   3.848
 6902TIP3    H220671   2.141   5.605   3.962
 6903TIP3   OH220672   2.408   5.927   4.667
 6903TIP3    H120673   2.435   5.976   4.747
 6903TIP3    H220674   2.459   5.844   4.674
 6904TIP3   OH220675   2.277   5.330   3.962
 6904TIP3    H120676   2.267   5.410   4.018
 6904TIP3    H220677   2.341   5.363   3.895
 6905TIP3   OH220678   1.793   5.339   3.755
 6905TIP3    H120679   1.790   5.430   3.791
 6905TIP3    H220680   1.889   5.322   3.761
 6906TIP3   OH220681   3.045   5.830   4.651
 6906TIP3    H120682   2.947   5.830   4.660
 6906TIP3    H220683   3.055   5.779   4.570
 6907TIP3   OH220684   2.697   6.024   4.039
 6907TIP3    H120685   2.621   5.964   4.050
 6907TIP3    H220686   2.768   5.975   4.087
 6908TIP3   OH220687   1.408   6.248   3.508
 6908TIP3    H120688   1.480   6.314   3.522
 6908TIP3    H220689   1.453   6.194   3.440
 6909TIP3   OH220690   1.350   5.527   3.645
 6909TIP3    H120691   1.354   5.625   3.643
 6909TIP3    H220692   1.275   5.510   3.587
 6910TIP3   OH220693   2.666   6.987   3.993
 6910TIP3    H120694   2.623   7.031   3.916
 6910TIP3    H220695   2.760   7.003   3.970
 6911TIP3   OH220696   1.743   5.248   4.513
 6911TIP3    H120697   1.713   5.214   4.425
 6911TIP3    H220698   1.731   5.170   4.570
 6912TIP3   OH220699   1.284   6.464   3.897
 6912TIP3    H120700   1.210   6.499   3.948
 6912TIP3    H220701   1.263   6.502   3.808
 6913TIP3   OH220702   1.437   6.993   4.987
 6913TIP3    H120703   1.525   6.986   5.030
 6913TIP3    H220704   1.411   6.900   4.981
 6914TIP3   OH220705   1.919   6.972   5.009
 6914TIP3    H120706   2.011   6.946   5.016
 6914TIP3    H220707   1.888   6.910   4.939
 6915TIP3   OH220708   1.898   6.544   3.135
 6915TIP3    H120709   1.835   6.476   3.169
 6915TIP3    H220710   1.975   6.488   3.120
 6916TIP3   OH220711   2.556   6.883   4.748
 6916TIP3    H120712   2.550   6.812   4.817
 6916TIP3    H220713   2.635   6.932   4.777
 6917TIP3   OH220714   2.335   6.587   3.057
 6917TIP3    H120715   2.366   6.517   3.119
 6917TIP3    H220716   2.396   6.577   2.982
 6918TIP3   OH220717   1.570   6.417   5.167
 6918TIP3    H120718   1.583   6.321   5.177
 6918TIP3    H220719   1.483   6.420   5.121
 6919TIP3   OH220720   1.546   6.060   3.366
 6919TIP3    H120721   1.604   6.039   3.442
 6919TIP3    H220722   1.615   6.067   3.296
 6920TIP3   OH220723   2.175   6.505   4.941
 6920TIP3    H120724   2.133   6.525   4.855
 6920TIP3    H220725   2.205   6.412   4.930
 6921TIP3   OH220726   2.071   6.270   3.170
 6921TIP3    H120727   2.064   6.280   3.268
 6921TIP3    H220728   2.067   6.172   3.162
 6922TIP3   OH220729   2.670   6.516   4.552
 6922TIP3    H120730   2.745   6.559   4.507
 6922TIP3    H220731   2.598   6.578   4.532
 6923TIP3   OH220732   1.690   6.156   5.153
 6923TIP3    H120733   1.767   6.107   5.122
 6923TIP3    H220734   1.720   6.187   5.241
 6924TIP3   OH220735   1.735   5.971   3.568
 6924TIP3    H120736   1.726   5.938   3.658
 6924TIP3    H220737   1.783   5.898   3.524
 6925TIP3   OH220738   2.025   6.035   4.814
 6925TIP3    H120739   1.946   6.093   4.812
 6925TIP3    H220740   2.077   6.071   4.737
 6926TIP3   OH220741   1.859   5.764   3.422
 6926TIP3    H120742   1.834   5.776   3.328
 6926TIP3    H220743   1.956   5.766   3.415
 6927TIP3   OH220744   2.544   6.438   4.944
 6927TIP3    H120745   2.618   6.401   4.894
 6927TIP3    H220746   2.535   6.373   5.016
 6928TIP3   OH220747   2.674   6.094   3.091
 6928TIP3    H120748   2.656   6.050   3.005
 6928TIP3    H220749   2.638   6.183   3.070
 6929TIP3   OH220750   2.149   5.826   4.935
 6929TIP3    H120751   2.149   5.747   4.876
 6929TIP3    H220752   2.104   5.893   4.878
 6930TIP3   OH220753   2.150   5.613   4.747
 6930TIP3    H120754   2.179   5.653   4.662
 6930TIP3    H220755   2.057   5.589   4.727
 6931TIP3   OH220756   2.172   6.147   4.621
 6931TIP3    H120757   2.258   6.158   4.578
 6931TIP3    H220758   2.115   6.210   4.571
 6932TIP3   OH220759   2.755   6.110   4.995
 6932TIP3    H120760   2.802   6.026   5.007
 6932TIP3    H220761   2.825   6.166   4.958
 6933TIP3   OH220762   2.798   6.367   4.737
 6933TIP3    H120763   2.741   6.422   4.678
 6933TIP3    H220764   2.886   6.387   4.698
 6934TIP3   OH220765   2.028   5.929   5.172
 6934TIP3    H120766   1.960   5.860   5.187
 6934TIP3    H220767   2.059   5.905   5.082
 6935TIP3   OH220768   2.282   5.372   4.816
 6935TIP3    H120769   2.231   5.453   4.792
 6935TIP3    H220770   2.214   5.302   4.804
 6936TIP3   OH220771   2.407   5.873   5.029
 6936TIP3    H120772   2.390   5.856   5.124
 6936TIP3    H220773   2.318   5.851   4.994
 6937TIP3   OH220774   2.646   5.830   4.886
 6937TIP3    H120775   2.572   5.828   4.950
 6937TIP3    H220776   2.721   5.798   4.941
 6938TIP3   OH220777   2.876   5.770   5.033
 6938TIP3    H120778   2.890   5.673   5.046
 6938TIP3    H220779   2.873   5.804   5.124
 6939TIP3   OH220780   1.864   5.710   5.226
 6939TIP3    H120781   1.867   5.618   5.194
 6939TIP3    H220782   1.903   5.699   5.315
 6940TIP3   OH220783   2.374   5.383   5.074
 6940TIP3    H120784   2.440   5.310   5.068
 6940TIP3    H220785   2.335   5.379   4.985
 6941TIP3   OH220786   2.443   5.597   5.231
 6941TIP3    H120787   2.423   5.525   5.167
 6941TIP3    H220788   2.364   5.654   5.224
 6942TIP3   OH220789   1.664   6.855   3.329
 6942TIP3    H120790   1.750   6.815   3.347
 6942TIP3    H220791   1.671   6.869   3.234
 6943TIP3   OH220792   1.141   6.208   3.545
 6943TIP3    H120793   1.236   6.229   3.530
 6943TIP3    H220794   1.135   6.119   3.505
 6944TIP3   OH220795   1.055   6.829   3.958
 6944TIP3    H120796   0.994   6.762   3.919
 6944TIP3    H220797   1.103   6.773   4.023
 6945TIP3   OH220798   1.183   6.676   4.146
 6945TIP3    H120799   1.176   6.599   4.205
 6945TIP3    H220800   1.244   6.731   4.198
 6946TIP3   OH220801   2.922   7.068   3.949
 6946TIP3    H120802   2.962   7.074   4.038
 6946TIP3    H220803   2.995   7.093   3.890
 6947TIP3   OH220804   2.986   7.053   4.222
 6947TIP3    H120805   2.926   6.975   4.219
 6947TIP3    H220806   3.044   7.025   4.295
 6948TIP3   OH220807   2.995   6.769   4.802
 6948TIP3    H120808   2.925   6.779   4.869
 6948TIP3    H220809   3.041   6.855   4.808
 6949TIP3   OH220810   2.815   6.280   3.422
 6949TIP3    H120811   2.881   6.344   3.390
 6949TIP3    H220812   2.860   6.242   3.501
 6950TIP3   OH220813   2.942   6.148   3.628
 6950TIP3    H120814   2.874   6.106   3.684
 6950TIP3    H220815   3.005   6.183   3.694
 6951TIP3   OH220816   3.000   6.544   4.057
 6951TIP3    H120817   3.051   6.471   4.015
 6951TIP3    H220818   2.992   6.609   3.985
 6952TIP3   OH220819   2.822   6.838   4.248
 6952TIP3    H120820   2.751   6.879   4.301
 6952TIP3    H220821   2.772   6.791   4.178
 6953TIP3   OH220822   2.878   6.057   3.270
 6953TIP3    H120823   2.807   6.057   3.202
 6953TIP3    H220824   2.848   6.132   3.325
 6954TIP3   OH220825   2.748   5.730   3.224
 6954TIP3    H120826   2.705   5.759   3.143
 6954TIP3    H220827   2.727   5.634   3.221
 6955TIP3   OH220828   2.753   6.008   3.769
 6955TIP3    H120829   2.759   5.911   3.758
 6955TIP3    H220830   2.738   6.017   3.866
 6956TIP3   OH220831   1.377   6.077   4.520
 6956TIP3    H120832   1.374   6.043   4.429
 6956TIP3    H220833   1.475   6.079   4.536
 6957TIP3   OH220834   3.045   6.432   4.629
 6957TIP3    H120835   3.115   6.363   4.618
 6957TIP3    H220836   3.070   6.497   4.562
 6958TIP3   OH220837   3.225   6.229   4.634
 6958TIP3    H120838   3.151   6.180   4.675
 6958TIP3    H220839   3.299   6.167   4.653
 6959TIP3   OH220840   2.691   5.465   3.210
 6959TIP3    H120841   2.763   5.428   3.265
 6959TIP3    H220842   2.616   5.404   3.225
 6960TIP3   OH220843   2.754   5.725   3.662
 6960TIP3    H120844   2.793   5.635   3.677
 6960TIP3    H220845   2.810   5.755   3.589
 6961TIP3   OH220846   2.909   5.891   4.161
 6961TIP3    H120847   2.995   5.915   4.118
 6961TIP3    H220848   2.926   5.929   4.250
 6962TIP3   OH220849   2.985   6.040   4.389
 6962TIP3    H120850   2.907   6.073   4.438
 6962TIP3    H220851   3.017   6.121   4.345
 6963TIP3   OH220852   1.598   5.761   5.189
 6963TIP3    H120853   1.696   5.757   5.196
 6963TIP3    H220854   1.574   5.675   5.228
 6964TIP3   OH220855   3.433   5.634   4.945
 6964TIP3    H120856   3.495   5.570   4.904
 6964TIP3    H220857   3.401   5.684   4.867
 6965TIP3   OH220858   2.858   5.474   3.703
 6965TIP3    H120859   2.906   5.456   3.786
 6965TIP3    H220860   2.797   5.397   3.701
 6966TIP3   OH220861   1.559   5.458   4.526
 6966TIP3    H120862   1.620   5.382   4.531
 6966TIP3    H220863   1.622   5.531   4.514
 6967TIP3   OH220864   1.361   5.729   4.595
 6967TIP3    H120865   1.410   5.726   4.511
 6967TIP3    H220866   1.387   5.815   4.630
 6968TIP3   OH220867   3.300   5.766   4.747
 6968TIP3    H120868   3.215   5.811   4.766
 6968TIP3    H220869   3.267   5.692   4.692
 6969TIP3   OH220870   2.937   5.401   3.338
 6969TIP3    H120871   2.974   5.332   3.280
 6969TIP3    H220872   3.004   5.471   3.334
 6970TIP3   OH220873   1.347   5.234   4.097
 6970TIP3    H120874   1.254   5.227   4.125
 6970TIP3    H220875   1.340   5.293   4.019
 6971TIP3   OH220876   2.510   6.939   3.602
 6971TIP3    H120877   2.561   6.928   3.520
 6971TIP3    H220878   2.566   7.001   3.653
 6972TIP3   OH220879   1.568   5.313   4.911
 6972TIP3    H120880   1.516   5.312   4.993
 6972TIP3    H220881   1.503   5.351   4.848
 6973TIP3   OH220882   1.606   6.750   4.991
 6973TIP3    H120883   1.515   6.721   4.969
 6973TIP3    H220884   1.616   6.716   5.081
 6974TIP3   OH220885   1.790   6.776   4.540
 6974TIP3    H120886   1.743   6.851   4.500
 6974TIP3    H220887   1.876   6.789   4.493
 6975TIP3   OH220888   2.223   7.016   4.673
 6975TIP3    H120889   2.266   7.018   4.761
 6975TIP3    H220890   2.288   7.068   4.620
 6976TIP3   OH220891   2.400   7.168   4.531
 6976TIP3    H120892   2.467   7.113   4.488
 6976TIP3    H220893   2.457   7.222   4.591
 6977TIP3   OH220894   3.201   5.529   4.632
 6977TIP3    H120895   3.112   5.516   4.596
 6977TIP3    H220896   3.238   5.438   4.624
 6978TIP3   OH220897   1.485   6.998   4.564
 6978TIP3    H120898   1.391   7.022   4.548
 6978TIP3    H220899   1.504   7.058   4.638
 6979TIP3   OH220900   1.716   7.010   4.424
 6979TIP3    H120901   1.627   7.009   4.466
 6979TIP3    H220902   1.693   7.042   4.334
 6980TIP3   OH220903   2.121   7.034   4.221
 6980TIP3    H120904   2.048   7.048   4.157
 6980TIP3    H220905   2.132   7.125   4.258
 6981TIP3   OH220906   2.388   6.980   4.271
 6981TIP3    H120907   2.292   6.988   4.255
 6981TIP3    H220908   2.421   7.054   4.217
 6982TIP3   OH220909   2.607   7.178   4.174
 6982TIP3    H120910   2.558   7.235   4.114
 6982TIP3    H220911   2.634   7.105   4.113
 6983TIP3   OH220912   1.365   6.815   4.307
 6983TIP3    H120913   1.396   6.785   4.396
 6983TIP3    H220914   1.438   6.778   4.253
 6984TIP3   OH220915   1.564   6.700   4.163
 6984TIP3    H120916   1.582   6.615   4.208
 6984TIP3    H220917   1.655   6.734   4.149
 6985TIP3   OH220918   1.837   6.795   4.164
 6985TIP3    H120919   1.862   6.703   4.144
 6985TIP3    H220920   1.882   6.806   4.250
 6986TIP3   OH220921   2.409   5.447   4.256
 6986TIP3    H120922   2.366   5.374   4.304
 6986TIP3    H220923   2.482   5.402   4.209
 6987TIP3   OH220924   2.925   5.332   4.158
 6987TIP3    H120925   2.961   5.381   4.080
 6987TIP3    H220926   2.830   5.347   4.148
 6988TIP3   OH220927   3.022   5.425   3.920
 6988TIP3    H120928   3.096   5.373   3.881
 6988TIP3    H220929   3.056   5.516   3.905
 6989TIP3   OH220930   1.654   5.155   4.265
 6989TIP3    H120931   1.561   5.124   4.269
 6989TIP3    H220932   1.701   5.069   4.260
 6990TIP3   OH220933   1.451   5.028   3.920
 6990TIP3    H120934   1.477   5.082   3.843
 6990TIP3    H220935   1.422   5.095   3.984
 6991TIP3   OH220936   2.104   5.184   4.150
 6991TIP3    H120937   2.157   5.230   4.082
 6991TIP3    H220938   2.133   5.228   4.231
 6992TIP3   OH220939   2.641   5.335   4.130
 6992TIP3    H120940   2.646   5.292   4.043
 6992TIP3    H220941   2.632   5.257   4.189
 6993TIP3   OH220942   2.676   5.261   3.695
 6993TIP3    H120943   2.590   5.304   3.712
 6993TIP3    H220944   2.662   5.174   3.738
 6994TIP3   OH220945   1.156   6.587   3.696
 6994TIP3    H120946   1.068   6.553   3.671
 6994TIP3    H220947   1.149   6.678   3.663
 6995TIP3   OH220948   1.563   5.180   3.679
 6995TIP3    H120949   1.610   5.118   3.619
 6995TIP3    H220950   1.637   5.235   3.712
 6996TIP3   OH220951   2.069   5.363   3.777
 6996TIP3    H120952   2.130   5.316   3.835
 6996TIP3    H220953   2.092   5.456   3.802
 6997TIP3   OH220954   1.929   6.773   3.281
 6997TIP3    H120955   2.016   6.797   3.243
 6997TIP3    H220956   1.905   6.702   3.218
 6998TIP3   OH220957   2.658   6.904   3.371
 6998TIP3    H120958   2.650   6.806   3.364
 6998TIP3    H220959   2.609   6.931   3.291
 6999TIP3   OH220960   1.862   5.435   5.159
 6999TIP3    H120961   1.826   5.364   5.215
 6999TIP3    H220962   1.956   5.434   5.187
 7000TIP3   OH220963   2.114   5.435   5.276
 7000TIP3    H120964   2.198   5.408   5.237
 7000TIP3    H220965   2.102   5.365   5.344
 7001TIP3   OH220966   1.240   6.629   3.344
 7001TIP3    H120967   1.254   6.622   3.440
 7001TIP3    H220968   1.323   6.587   3.310
 7002TIP3   OH220969   2.941   5.499   5.063
 7002TIP3    H120970   2.958   5.467   5.154
 7002TIP3    H220971   3.031   5.492   5.024
 7003TIP3   OH220972   2.872   7.051   4.554
 7003TIP3    H120973   2.794   7.018   4.505
 7003TIP3    H220974   2.847   7.145   4.563
 7004TIP3   OH220975   4.143   6.422   3.321
 7004TIP3    H120976   4.110   6.511   3.298
 7004TIP3    H220977   4.073   6.368   3.282
 7005TIP3   OH220978   4.143   6.426   3.711
 7005TIP3    H120979   4.179   6.393   3.795
 7005TIP3    H220980   4.104   6.346   3.673
 7006TIP3   OH220981   3.438   6.313   4.070
 7006TIP3    H120982   3.466   6.242   4.132
 7006TIP3    H220983   3.521   6.361   4.059
 7007TIP3   OH220984   4.387   6.726   3.388
 7007TIP3    H120985   4.371   6.654   3.451
 7007TIP3    H220986   4.423   6.796   3.444
 7008TIP3   OH220987   3.414   6.730   3.794
 7008TIP3    H120988   3.407   6.631   3.792
 7008TIP3    H220989   3.511   6.739   3.784
 7009TIP3   OH220990   3.120   5.927   3.572
 7009TIP3    H120991   3.070   6.008   3.591
 7009TIP3    H220992   3.051   5.873   3.529
 7010TIP3   OH220993   3.178   6.215   3.758
 7010TIP3    H120994   3.227   6.135   3.789
 7010TIP3    H220995   3.233   6.243   3.683
 7011TIP3   OH220996   4.043   7.182   3.413
 7011TIP3    H120997   4.079   7.114   3.352
 7011TIP3    H220998   4.031   7.130   3.494
 7012TIP3   OH220999   3.939   6.650   3.752
 7012TIP3    H121000   3.978   6.571   3.711
 7012TIP3    H221001   4.023   6.697   3.775
 7013TIP3   OH221002   4.958   5.965   3.751
 7013TIP3    H121003   4.989   6.050   3.790
 7013TIP3    H221004   4.979   5.980   3.657
 7014TIP3   OH221005   4.354   6.147   3.780
 7014TIP3    H121006   4.396   6.061   3.801
 7014TIP3    H221007   4.320   6.129   3.690
 7015TIP3   OH221008   3.697   5.807   3.746
 7015TIP3    H121009   3.676   5.879   3.683
 7015TIP3    H221010   3.649   5.733   3.703
 7016TIP3   OH221011   4.389   5.903   3.368
 7016TIP3    H121012   4.461   5.887   3.433
 7016TIP3    H221013   4.442   5.935   3.292
 7017TIP3   OH221014   3.326   6.007   3.856
 7017TIP3    H121015   3.409   5.988   3.903
 7017TIP3    H221016   3.340   5.952   3.776
 7018TIP3   OH221017   3.763   6.206   3.657
 7018TIP3    H121018   3.858   6.183   3.666
 7018TIP3    H221019   3.725   6.122   3.622
 7019TIP3   OH221020   5.033   6.177   3.919
 7019TIP3    H121021   4.947   6.221   3.898
 7019TIP3    H221022   5.044   6.203   4.011
 7020TIP3   OH221023   3.689   5.791   4.184
 7020TIP3    H121024   3.629   5.827   4.115
 7020TIP3    H221025   3.635   5.808   4.264
 7021TIP3   OH221026   4.024   6.637   3.194
 7021TIP3    H121027   3.992   6.626   3.103
 7021TIP3    H221028   3.980   6.721   3.220
 7022TIP3   OH221029   3.797   6.567   3.972
 7022TIP3    H121030   3.737   6.636   4.008
 7022TIP3    H221031   3.837   6.614   3.896
 7023TIP3   OH221032   4.593   5.906   3.547
 7023TIP3    H121033   4.578   5.859   3.630
 7023TIP3    H221034   4.644   5.984   3.576
 7024TIP3   OH221035   3.562   5.905   3.965
 7024TIP3    H121036   3.625   5.976   3.990
 7024TIP3    H221037   3.611   5.865   3.889
 7025TIP3   OH221038   3.625   6.761   4.077
 7025TIP3    H121039   3.599   6.849   4.042
 7025TIP3    H221040   3.547   6.742   4.132
 7026TIP3   OH221041   3.013   6.453   3.310
 7026TIP3    H121042   2.973   6.480   3.225
 7026TIP3    H221043   3.048   6.537   3.345
 7027TIP3   OH221044   4.452   6.969   3.552
 7027TIP3    H121045   4.361   6.960   3.588
 7027TIP3    H221046   4.445   7.054   3.505
 7028TIP3   OH221047   4.749   5.867   3.917
 7028TIP3    H121048   4.662   5.890   3.881
 7028TIP3    H221049   4.810   5.899   3.847
 7029TIP3   OH221050   4.040   5.505   3.900
 7029TIP3    H121051   4.023   5.410   3.918
 7029TIP3    H221052   3.963   5.545   3.947
 7030TIP3   OH221053   4.149   7.013   3.221
 7030TIP3    H121054   4.198   6.929   3.205
 7030TIP3    H221055   4.215   7.076   3.181
 7031TIP3   OH221056   4.293   6.798   3.139
 7031TIP3    H121057   4.276   6.717   3.089
 7031TIP3    H221058   4.333   6.763   3.222
 7032TIP3   OH221059   4.681   6.873   3.898
 7032TIP3    H121060   4.669   6.797   3.838
 7032TIP3    H221061   4.663   6.948   3.837
 7033TIP3   OH221062   3.976   6.276   3.156
 7033TIP3    H121063   3.896   6.327   3.133
 7033TIP3    H221064   4.017   6.261   3.068
 7034TIP3   OH221065   3.930   6.062   2.884
 7034TIP3    H121066   4.010   6.110   2.912
 7034TIP3    H221067   3.970   5.995   2.826
 7035TIP3   OH221068   4.876   6.521   3.746
 7035TIP3    H121069   4.790   6.570   3.747
 7035TIP3    H221070   4.907   6.543   3.655
 7036TIP3   OH221071   4.323   6.360   3.122
 7036TIP3    H121072   4.269   6.381   3.201
 7036TIP3    H221073   4.407   6.334   3.165
 7037TIP3   OH221074   4.555   6.391   4.042
 7037TIP3    H121075   4.551   6.475   4.092
 7037TIP3    H221076   4.469   6.393   3.996
 7038TIP3   OH221077   3.553   6.352   3.544
 7038TIP3    H121078   3.510   6.294   3.478
 7038TIP3    H221079   3.628   6.297   3.575
 7039TIP3   OH221080   3.682   6.766   3.688
 7039TIP3    H121081   3.660   6.735   3.599
 7039TIP3    H221082   3.770   6.726   3.703
 7040TIP3   OH221083   3.687   6.323   3.900
 7040TIP3    H121084   3.718   6.293   3.811
 7040TIP3    H221085   3.733   6.408   3.912
 7041TIP3   OH221086   4.209   6.965   3.673
 7041TIP3    H121087   4.205   7.040   3.734
 7041TIP3    H221088   4.198   6.888   3.733
 7042TIP3   OH221089   3.827   6.881   4.218
 7042TIP3    H121090   3.764   6.939   4.265
 7042TIP3    H221091   3.765   6.826   4.167
 7043TIP3   OH221092   4.161   6.214   2.951
 7043TIP3    H121093   4.219   6.277   2.999
 7043TIP3    H221094   4.187   6.233   2.857
 7044TIP3   OH221095   3.585   6.436   4.328
 7044TIP3    H121096   3.589   6.524   4.370
 7044TIP3    H221097   3.491   6.414   4.341
 7045TIP3   OH221098   3.906   6.889   3.231
 7045TIP3    H121099   3.992   6.937   3.232
 7045TIP3    H221100   3.848   6.951   3.186
 7046TIP3   OH221101   3.622   7.043   4.312
 7046TIP3    H121102   3.585   7.045   4.222
 7046TIP3    H221103   3.543   7.023   4.367
 7047TIP3   OH221104   4.677   5.450   3.002
 7047TIP3    H121105   4.594   5.473   3.050
 7047TIP3    H221106   4.693   5.532   2.951
 7048TIP3   OH221107   3.416   6.197   3.354
 7048TIP3    H121108   3.348   6.237   3.295
 7048TIP3    H221109   3.389   6.104   3.356
 7049TIP3   OH221110   4.480   6.820   2.548
 7049TIP3    H121111   4.483   6.917   2.532
 7049TIP3    H221112   4.570   6.794   2.520
 7050TIP3   OH221113   3.202   6.581   4.253
 7050TIP3    H121114   3.133   6.559   4.187
 7050TIP3    H221115   3.240   6.494   4.275
 7051TIP3   OH221116   3.054   6.773   3.878
 7051TIP3    H121117   3.149   6.760   3.872
 7051TIP3    H221118   3.046   6.846   3.940
 7052TIP3   OH221119   4.916   7.226   3.949
 7052TIP3    H121120   4.916   7.129   3.962
 7052TIP3    H221121   4.832   7.250   3.994
 7053TIP3   OH221122   4.028   7.007   4.087
 7053TIP3    H121123   4.015   7.102   4.110
 7053TIP3    H221124   3.953   6.966   4.135
 7054TIP3   OH221125   3.786   7.146   3.018
 7054TIP3    H121126   3.752   7.106   2.936
 7054TIP3    H221127   3.722   7.216   3.036
 7055TIP3   OH221128   3.222   6.992   3.417
 7055TIP3    H121129   3.269   6.984   3.503
 7055TIP3    H221130   3.179   6.905   3.411
 7056TIP3   OH221131   3.986   7.047   2.664
 7056TIP3    H121132   4.040   6.975   2.624
 7056TIP3    H221133   4.024   7.050   2.754
 7057TIP3   OH221134   4.041   7.092   2.935
 7057TIP3    H121135   3.954   7.104   2.979
 7057TIP3    H221136   4.092   7.048   3.005
 7058TIP3   OH221137   4.806   6.352   4.218
 7058TIP3    H121138   4.722   6.359   4.169
 7058TIP3    H221139   4.824   6.256   4.210
 7059TIP3   OH221140   3.404   6.766   4.241
 7059TIP3    H121141   3.454   6.748   4.323
 7059TIP3    H221142   3.331   6.701   4.247
 7060TIP3   OH221143   3.804   5.584   4.031
 7060TIP3    H121144   3.717   5.554   3.998
 7060TIP3    H221145   3.776   5.664   4.080
 7061TIP3   OH221146   4.341   5.700   4.223
 7061TIP3    H121147   4.410   5.670   4.286
 7061TIP3    H221148   4.258   5.680   4.271
 7062TIP3   OH221149   4.575   6.129   4.143
 7062TIP3    H121150   4.522   6.127   4.226
 7062TIP3    H221151   4.551   6.216   4.105
 7063TIP3   OH221152   4.240   6.259   2.698
 7063TIP3    H121153   4.201   6.234   2.612
 7063TIP3    H221154   4.325   6.298   2.669
 7064TIP3   OH221155   3.955   5.627   3.003
 7064TIP3    H121156   3.913   5.623   3.091
 7064TIP3    H221157   3.907   5.554   2.959
 7065TIP3   OH221158   3.738   6.102   4.049
 7065TIP3    H121159   3.685   6.121   4.129
 7065TIP3    H221160   3.721   6.183   3.996
 7066TIP3   OH221161   3.620   5.989   3.560
 7066TIP3    H121162   3.527   5.961   3.579
 7066TIP3    H221163   3.632   5.949   3.471
 7067TIP3   OH221164   4.110   6.074   3.293
 7067TIP3    H121165   4.062   6.144   3.246
 7067TIP3    H221166   4.166   6.037   3.221
 7068TIP3   OH221167   4.286   6.349   4.374
 7068TIP3    H121168   4.263   6.276   4.436
 7068TIP3    H221169   4.380   6.361   4.395
 7069TIP3   OH221170   4.266   6.099   3.524
 7069TIP3    H121171   4.202   6.123   3.454
 7069TIP3    H221172   4.304   6.021   3.480
 7070TIP3   OH221173   3.555   6.128   4.254
 7070TIP3    H121174   3.585   6.190   4.323
 7070TIP3    H221175   3.544   6.045   4.304
 7071TIP3   OH221176   3.589   5.586   2.970
 7071TIP3    H121177   3.579   5.603   3.066
 7071TIP3    H221178   3.536   5.658   2.931
 7072TIP3   OH221179   3.148   5.649   3.839
 7072TIP3    H121180   3.225   5.681   3.889
 7072TIP3    H221181   3.185   5.619   3.755
 7073TIP3   OH221182   3.112   5.629   3.356
 7073TIP3    H121183   3.158   5.664   3.277
 7073TIP3    H221184   3.050   5.703   3.372
 7074TIP3   OH221185   4.280   6.343   3.947
 7074TIP3    H121186   4.312   6.273   3.887
 7074TIP3    H221187   4.248   6.288   4.022
 7075TIP3   OH221188   3.956   5.809   3.621
 7075TIP3    H121189   3.874   5.808   3.674
 7075TIP3    H221190   4.025   5.799   3.689
 7076TIP3   OH221191   3.382   5.866   3.627
 7076TIP3    H121192   3.288   5.874   3.597
 7076TIP3    H221193   3.404   5.774   3.605
 7077TIP3   OH221194   3.645   5.865   3.319
 7077TIP3    H121195   3.739   5.874   3.295
 7077TIP3    H221196   3.598   5.882   3.234
 7078TIP3   OH221197   4.439   5.886   3.827
 7078TIP3    H121198   4.406   5.900   3.918
 7078TIP3    H221199   4.372   5.825   3.792
 7079TIP3   OH221200   3.498   5.898   3.094
 7079TIP3    H121201   3.431   5.848   3.043
 7079TIP3    H221202   3.551   5.937   3.021
 7080TIP3   OH221203   4.604   7.577   4.038
 7080TIP3    H121204   4.596   7.597   3.943
 7080TIP3    H221205   4.687   7.626   4.057
 7081TIP3   OH221206   3.569   6.688   4.462
 7081TIP3    H121207   3.647   6.718   4.514
 7081TIP3    H221208   3.503   6.681   4.534
 7082TIP3   OH221209   4.028   6.140   3.720
 7082TIP3    H121210   4.100   6.100   3.669
 7082TIP3    H221211   4.032   6.092   3.805
 7083TIP3   OH221212   3.549   5.624   3.601
 7083TIP3    H121213   3.512   5.548   3.651
 7083TIP3    H221214   3.585   5.581   3.523
 7084TIP3   OH221215   4.006   6.040   4.003
 7084TIP3    H121216   3.915   6.072   4.020
 7084TIP3    H221217   4.061   6.101   4.055
 7085TIP3   OH221218   3.738   6.427   3.100
 7085TIP3    H121219   3.669   6.359   3.090
 7085TIP3    H221220   3.719   6.459   3.192
 7086TIP3   OH221221   4.639   6.661   3.728
 7086TIP3    H121222   4.665   6.712   3.648
 7086TIP3    H221223   4.556   6.617   3.700
 7087TIP3   OH221224   4.204   5.729   2.981
 7087TIP3    H121225   4.107   5.706   2.982
 7087TIP3    H221226   4.202   5.826   2.993
 7088TIP3   OH221227   4.151   6.749   4.098
 7088TIP3    H121228   4.167   6.716   4.187
 7088TIP3    H221229   4.100   6.830   4.112
 7089TIP3   OH221230   4.267   5.989   3.079
 7089TIP3    H121231   4.364   5.995   3.087
 7089TIP3    H221232   4.246   6.066   3.022
 7090TIP3   OH221233   3.439   6.456   3.776
 7090TIP3    H121234   3.475   6.423   3.690
 7090TIP3    H221235   3.478   6.393   3.838
 7091TIP3   OH221236   3.889   6.574   2.927
 7091TIP3    H121237   3.840   6.660   2.931
 7091TIP3    H221238   3.835   6.519   2.988
 7092TIP3   OH221239   3.320   6.368   4.392
 7092TIP3    H121240   3.337   6.352   4.487
 7092TIP3    H221241   3.250   6.303   4.373
 7093TIP3   OH221242   4.047   6.488   4.409
 7093TIP3    H121243   3.982   6.426   4.370
 7093TIP3    H221244   4.131   6.446   4.381
 7094TIP3   OH221245   4.295   7.010   3.984
 7094TIP3    H121246   4.202   6.997   4.008
 7094TIP3    H221247   4.334   7.041   4.066
 7095TIP3   OH221248   4.710   6.080   2.903
 7095TIP3    H121249   4.649   6.037   2.839
 7095TIP3    H221250   4.704   6.171   2.867
 7096TIP3   OH221251   4.932   6.940   3.981
 7096TIP3    H121252   4.835   6.929   3.975
 7096TIP3    H221253   4.958   6.907   3.892
 7097TIP3   OH221254   4.400   6.898   2.809
 7097TIP3    H121255   4.394   6.827   2.874
 7097TIP3    H221256   4.426   6.851   2.728
 7098TIP3   OH221257   4.407   6.524   3.646
 7098TIP3    H121258   4.313   6.499   3.658
 7098TIP3    H221259   4.441   6.444   3.602
 7099TIP3   OH221260   3.540   6.755   3.413
 7099TIP3    H121261   3.532   6.831   3.352
 7099TIP3    H221262   3.449   6.724   3.416
 7100TIP3   OH221263   3.103   6.054   3.110
 7100TIP3    H121264   3.147   6.138   3.133
 7100TIP3    H221265   3.026   6.056   3.171
 7101TIP3   OH221266   3.666   6.515   3.345
 7101TIP3    H121267   3.637   6.605   3.369
 7101TIP3    H221268   3.634   6.462   3.420
 7102TIP3   OH221269   3.809   7.094   3.870
 7102TIP3    H121270   3.851   7.166   3.818
 7102TIP3    H221271   3.887   7.053   3.910
 7103TIP3   OH221272   3.449   6.977   3.255
 7103TIP3    H121273   3.364   6.991   3.302
 7103TIP3    H221274   3.486   7.067   3.258
 7104TIP3   OH221275   4.194   6.731   3.829
 7104TIP3    H121276   4.186   6.728   3.927
 7104TIP3    H221277   4.264   6.667   3.813
 7105TIP3   OH221278   4.173   6.627   2.717
 7105TIP3    H121279   4.228   6.603   2.796
 7105TIP3    H221280   4.087   6.590   2.744
 7106TIP3   OH221281   4.439   7.262   3.877
 7106TIP3    H121282   4.357   7.210   3.867
 7106TIP3    H221283   4.427   7.329   3.806
 7107TIP3   OH221284   4.496   7.095   2.521
 7107TIP3    H121285   4.560   7.169   2.515
 7107TIP3    H221286   4.420   7.142   2.560
 7108TIP3   OH221287   3.524   5.874   4.395
 7108TIP3    H121288   3.427   5.875   4.406
 7108TIP3    H221289   3.552   5.818   4.469
 7109TIP3   OH221290   4.337   6.563   2.933
 7109TIP3    H121291   4.325   6.493   3.001
 7109TIP3    H221292   4.434   6.556   2.918
 7110TIP3   OH221293   3.252   6.957   4.037
 7110TIP3    H121294   3.300   6.873   4.040
 7110TIP3    H221295   3.280   6.995   4.121
 7111TIP3   OH221296   3.529   6.602   2.716
 7111TIP3    H121297   3.545   6.510   2.689
 7111TIP3    H221298   3.508   6.590   2.811
 7112TIP3   OH221299   3.475   6.607   2.990
 7112TIP3    H121300   3.554   6.576   3.036
 7112TIP3    H221301   3.483   6.704   2.999
 7113TIP3   OH221302   3.212   6.298   3.192
 7113TIP3    H121303   3.144   6.343   3.246
 7113TIP3    H221304   3.226   6.366   3.123
 7114TIP3   OH221305   4.365   5.940   4.088
 7114TIP3    H121306   4.449   5.975   4.122
 7114TIP3    H221307   4.354   5.857   4.140
 7115TIP3   OH221308   4.248   5.682   3.255
 7115TIP3    H121309   4.232   5.701   3.160
 7115TIP3    H221310   4.285   5.768   3.286
 7116TIP3   OH221311   3.748   6.803   2.937
 7116TIP3    H121312   3.659   6.827   2.972
 7116TIP3    H221313   3.759   6.873   2.871
 7117TIP3   OH221314   3.931   5.871   3.352
 7117TIP3    H121315   3.994   5.944   3.334
 7117TIP3    H221316   3.939   5.863   3.450
 7118TIP3   OH221317   4.204   6.183   4.154
 7118TIP3    H121318   4.231   6.231   4.235
 7118TIP3    H221319   4.255   6.100   4.160
 7119TIP3   OH221320   4.073   5.588   3.450
 7119TIP3    H121321   4.063   5.669   3.503
 7119TIP3    H221322   4.137   5.619   3.381
 7120TIP3   OH221323   3.495   6.878   3.005
 7120TIP3    H121324   3.462   6.950   2.946
 7120TIP3    H221325   3.475   6.915   3.094
 7121TIP3   OH221326   3.585   5.598   3.250
 7121TIP3    H121327   3.587   5.689   3.286
 7121TIP3    H221328   3.680   5.578   3.250
 7122TIP3   OH221329   4.841   6.086   4.138
 7122TIP3    H121330   4.744   6.087   4.147
 7122TIP3    H221331   4.850   6.035   4.057
 7123TIP3   OH221332   4.493   6.281   3.528
 7123TIP3    H121333   4.417   6.221   3.536
 7123TIP3    H221334   4.564   6.232   3.575
 7124TIP3   OH221335   3.212   6.503   2.992
 7124TIP3    H121336   3.289   6.562   3.004
 7124TIP3    H221337   3.251   6.441   2.927
 7125TIP3   OH221338   3.147   5.784   3.134
 7125TIP3    H121339   3.148   5.881   3.130
 7125TIP3    H221340   3.076   5.762   3.073
 7126TIP3   OH221341   4.464   7.241   3.479
 7126TIP3    H121342   4.423   7.285   3.401
 7126TIP3    H221343   4.559   7.258   3.458
 7127TIP3   OH221344   3.539   5.505   3.999
 7127TIP3    H121345   3.509   5.470   3.912
 7127TIP3    H221346   3.528   5.427   4.057
 7128TIP3   OH221347   3.082   6.730   3.383
 7128TIP3    H121348   3.014   6.753   3.448
 7128TIP3    H221349   3.043   6.768   3.300
 7129TIP3   OH221350   3.245   7.272   4.450
 7129TIP3    H121351   3.329   7.274   4.500
 7129TIP3    H221352   3.223   7.178   4.454
 7130TIP3   OH221353   3.707   7.241   4.486
 7130TIP3    H121354   3.795   7.213   4.514
 7130TIP3    H221355   3.685   7.173   4.419
 7131TIP3   OH221356   3.695   6.802   2.625
 7131TIP3    H121357   3.640   6.729   2.662
 7131TIP3    H221358   3.772   6.752   2.593
 7132TIP3   OH221359   4.130   6.844   2.542
 7132TIP3    H121360   4.170   6.780   2.605
 7132TIP3    H221361   4.191   6.838   2.465
 7133TIP3   OH221362   3.366   6.664   4.648
 7133TIP3    H121363   3.379   6.567   4.657
 7133TIP3    H221364   3.278   6.668   4.605
 7134TIP3   OH221365   3.345   6.317   2.851
 7134TIP3    H121366   3.402   6.284   2.923
 7134TIP3    H221367   3.411   6.321   2.779
 7135TIP3   OH221368   3.972   6.760   4.426
 7135TIP3    H121369   3.926   6.777   4.341
 7135TIP3    H221370   4.003   6.667   4.417
 7136TIP3   OH221371   3.858   6.523   2.658
 7136TIP3    H121372   3.862   6.532   2.756
 7136TIP3    H221373   3.863   6.425   2.649
 7137TIP3   OH221374   4.468   6.772   4.041
 7137TIP3    H121375   4.543   6.812   3.994
 7137TIP3    H221376   4.393   6.825   4.009
 7138TIP3   OH221377   3.488   6.406   4.635
 7138TIP3    H121378   3.567   6.355   4.611
 7138TIP3    H221379   3.514   6.440   4.724
 7139TIP3   OH221380   3.547   6.229   3.065
 7139TIP3    H121381   3.524   6.181   3.146
 7139TIP3    H221382   3.590   6.158   3.012
 7140TIP3   OH221383   3.822   6.294   4.301
 7140TIP3    H121384   3.742   6.351   4.299
 7140TIP3    H221385   3.873   6.329   4.225
 7141TIP3   OH221386   3.653   6.026   2.911
 7141TIP3    H121387   3.632   6.025   2.815
 7141TIP3    H221388   3.752   6.024   2.907
 7142TIP3   OH221389   4.357   6.713   4.440
 7142TIP3    H121390   4.417   6.667   4.380
 7142TIP3    H221391   4.339   6.645   4.507
 7143TIP3   OH221392   4.471   6.351   2.577
 7143TIP3    H121393   4.452   6.307   2.492
 7143TIP3    H221394   4.436   6.441   2.557
 7144TIP3   OH221395   3.945   6.082   4.420
 7144TIP3    H121396   3.945   6.004   4.362
 7144TIP3    H221397   3.900   6.149   4.364
 7145TIP3   OH221398   3.947   5.870   4.232
 7145TIP3    H121399   3.975   5.908   4.147
 7145TIP3    H221400   3.854   5.846   4.213
 7146TIP3   OH221401   3.969   6.404   4.108
 7146TIP3    H121402   4.054   6.410   4.062
 7146TIP3    H221403   3.913   6.466   4.057
 7147TIP3   OH221404   4.551   6.365   4.482
 7147TIP3    H121405   4.595   6.280   4.500
 7147TIP3    H221406   4.622   6.416   4.441
 7148TIP3   OH221407   4.595   6.624   4.227
 7148TIP3    H121408   4.539   6.679   4.167
 7148TIP3    H221409   4.683   6.642   4.187
 7149TIP3   OH221410   3.822   6.185   4.655
 7149TIP3    H121411   3.755   6.116   4.673
 7149TIP3    H221412   3.855   6.159   4.567
 7150TIP3   OH221413   4.078   5.629   4.303
 7150TIP3    H121414   4.027   5.709   4.279
 7150TIP3    H221415   4.011   5.559   4.291
 7151TIP3   OH221416   4.203   6.131   4.516
 7151TIP3    H121417   4.186   6.114   4.611
 7151TIP3    H221418   4.114   6.108   4.481
 7152TIP3   OH221419   4.442   6.086   4.373
 7152TIP3    H121420   4.368   6.085   4.437
 7152TIP3    H221421   4.517   6.055   4.427
 7153TIP3   OH221422   4.672   6.026   4.518
 7153TIP3    H121423   4.686   5.930   4.533
 7153TIP3    H221424   4.669   6.061   4.610
 7154TIP3   OH221425   3.661   5.967   4.712
 7154TIP3    H121426   3.663   5.874   4.681
 7154TIP3    H221427   3.699   5.956   4.802
 7155TIP3   OH221428   4.170   5.639   4.562
 7155TIP3    H121429   4.236   5.567   4.554
 7155TIP3    H221430   4.130   5.635   4.472
 7156TIP3   OH221431   4.239   5.854   4.718
 7156TIP3    H121432   4.218   5.782   4.654
 7156TIP3    H221433   4.159   5.911   4.711
 7157TIP3   OH221434   3.469   7.083   2.823
 7157TIP3    H121435   3.565   7.072   2.815
 7157TIP3    H221436   3.450   7.116   2.734
 7158TIP3   OH221437   2.941   6.468   3.029
 7158TIP3    H121438   3.036   6.486   3.014
 7158TIP3    H221439   2.933   6.377   2.991
 7159TIP3   OH221440   2.851   7.085   3.446
 7159TIP3    H121441   2.789   7.019   3.407
 7159TIP3    H221442   2.897   7.027   3.511
 7160TIP3   OH221443   2.983   6.931   3.634
 7160TIP3    H121444   2.970   6.855   3.693
 7160TIP3    H221445   3.042   6.986   3.689
 7161TIP3   OH221446   4.718   7.322   3.436
 7161TIP3    H121447   4.756   7.347   3.522
 7161TIP3    H221448   4.786   7.354   3.374
 7162TIP3   OH221449   4.770   7.315   3.714
 7162TIP3    H121450   4.719   7.232   3.710
 7162TIP3    H221451   4.843   7.287   3.772
 7163TIP3   OH221452   4.804   7.022   4.284
 7163TIP3    H121453   4.728   7.037   4.342
 7163TIP3    H221454   4.845   7.111   4.282
 7164TIP3   OH221455   4.619   6.549   2.905
 7164TIP3    H121456   4.681   6.624   2.886
 7164TIP3    H221457   4.666   6.508   2.981
 7165TIP3   OH221458   4.739   6.400   3.110
 7165TIP3    H121459   4.669   6.363   3.168
 7165TIP3    H221460   4.799   6.443   3.174
 7166TIP3   OH221461   4.794   6.798   3.546
 7166TIP3    H121462   4.844   6.729   3.498
 7166TIP3    H221463   4.798   6.873   3.482
 7167TIP3   OH221464   4.617   7.088   3.739
 7167TIP3    H121465   4.543   7.133   3.784
 7167TIP3    H221466   4.571   7.043   3.664
 7168TIP3   OH221467   4.673   6.315   2.758
 7168TIP3    H121468   4.601   6.317   2.692
 7168TIP3    H221469   4.651   6.395   2.810
 7169TIP3   OH221470   4.549   5.983   2.707
 7169TIP3    H121471   4.496   6.017   2.634
 7169TIP3    H221472   4.528   5.887   2.701
 7170TIP3   OH221473   4.548   6.264   3.257
 7170TIP3    H121474   4.555   6.168   3.246
 7170TIP3    H221475   4.534   6.274   3.354
 7171TIP3   OH221476   3.173   6.336   4.007
 7171TIP3    H121477   3.171   6.299   3.915
 7171TIP3    H221478   3.270   6.336   4.023
 7172TIP3   OH221479   4.841   6.686   4.115
 7172TIP3    H121480   4.911   6.618   4.105
 7172TIP3    H221481   4.863   6.750   4.046
 7173TIP3   OH221482   5.023   6.486   4.123
 7173TIP3    H121483   4.947   6.436   4.162
 7173TIP3    H221484   5.096   6.423   4.142
 7174TIP3   OH221485   4.491   5.718   2.688
 7174TIP3    H121486   4.554   5.683   2.753
 7174TIP3    H221487   4.409   5.666   2.706
 7175TIP3   OH221488   4.551   5.981   3.150
 7175TIP3    H121489   4.590   5.891   3.164
 7175TIP3    H221490   4.607   6.012   3.076
 7176TIP3   OH221491   4.706   6.147   3.648
 7176TIP3    H121492   4.791   6.171   3.605
 7176TIP3    H221493   4.723   6.185   3.736
 7177TIP3   OH221494   4.781   6.296   3.875
 7177TIP3    H121495   4.704   6.329   3.924
 7177TIP3    H221496   4.814   6.378   3.831
 7178TIP3   OH221497   3.395   6.020   4.682
 7178TIP3    H121498   3.493   6.015   4.686
 7178TIP3    H221499   3.371   5.932   4.717
 7179TIP3   OH221500   5.228   5.890   4.431
 7179TIP3    H121501   5.290   5.826   4.391
 7179TIP3    H221502   5.197   5.941   4.352
 7180TIP3   OH221503   4.657   5.730   3.188
 7180TIP3    H121504   4.703   5.712   3.273
 7180TIP3    H221505   4.594   5.654   3.186
 7181TIP3   OH221506   3.356   5.715   4.013
 7181TIP3    H121507   3.416   5.638   4.018
 7181TIP3    H221508   3.420   5.787   4.001
 7182TIP3   OH221509   3.154   5.986   4.080
 7182TIP3    H121510   3.204   5.981   3.996
 7182TIP3    H221511   3.188   6.068   4.118
 7183TIP3   OH221512   5.097   6.023   4.232
 7183TIP3    H121513   5.012   6.068   4.251
 7183TIP3    H221514   5.064   5.949   4.178
 7184TIP3   OH221515   4.734   5.657   2.829
 7184TIP3    H121516   4.770   5.589   2.767
 7184TIP3    H221517   4.800   5.729   2.820
 7185TIP3   OH221518   3.143   5.495   3.588
 7185TIP3    H121519   3.050   5.483   3.612
 7185TIP3    H221520   3.136   5.551   3.508
 7186TIP3   OH221521   4.298   7.195   3.088
 7186TIP3    H121522   4.354   7.184   3.008
 7186TIP3    H221523   4.353   7.254   3.143
 7187TIP3   OH221524   3.363   5.572   4.398
 7187TIP3    H121525   3.310   5.566   4.479
 7187TIP3    H221526   3.298   5.608   4.335
 7188TIP3   OH221527   3.401   7.009   4.479
 7188TIP3    H121528   3.310   6.975   4.468
 7188TIP3    H221529   3.418   6.985   4.572
 7189TIP3   OH221530   3.586   7.031   4.025
 7189TIP3    H121531   3.541   7.107   3.983
 7189TIP3    H221532   3.673   7.043   3.981
 7190TIP3   OH221533   4.013   7.276   4.150
 7190TIP3    H121534   4.048   7.290   4.241
 7190TIP3    H221535   4.077   7.328   4.097
 7191TIP3   OH221536   4.197   7.423   4.018
 7191TIP3    H121537   4.262   7.382   3.960
 7191TIP3    H221538   4.255   7.477   4.077
 7192TIP3   OH221539   4.998   5.786   4.119
 7192TIP3    H121540   4.908   5.773   4.083
 7192TIP3    H221541   5.034   5.694   4.111
 7193TIP3   OH221542   3.294   7.296   4.055
 7193TIP3    H121543   3.201   7.306   4.033
 7193TIP3    H221544   3.291   7.250   4.140
 7194TIP3   OH221545   3.515   7.263   3.905
 7194TIP3    H121546   3.433   7.284   3.957
 7194TIP3    H221547   3.490   7.297   3.817
 7195TIP3   OH221548   3.917   7.290   3.707
 7195TIP3    H121549   3.848   7.307   3.641
 7195TIP3    H221550   3.930   7.379   3.747
 7196TIP3   OH221551   4.188   7.237   3.759
 7196TIP3    H121552   4.092   7.250   3.740
 7196TIP3    H221553   4.227   7.303   3.701
 7197TIP3   OH221554   4.404   7.431   3.661
 7197TIP3    H121555   4.375   7.500   3.599
 7197TIP3    H221556   4.432   7.360   3.598
 7198TIP3   OH221557   3.165   7.072   3.801
 7198TIP3    H121558   3.200   7.041   3.888
 7198TIP3    H221559   3.237   7.036   3.744
 7199TIP3   OH221560   3.360   6.956   3.652
 7199TIP3    H121561   3.376   6.871   3.699
 7199TIP3    H221562   3.452   6.990   3.645
 7200TIP3   OH221563   3.631   7.046   3.654
 7200TIP3    H121564   3.660   6.953   3.641
 7200TIP3    H221565   3.678   7.066   3.737
 7201TIP3   OH221566   4.204   5.704   3.744
 7201TIP3    H121567   4.161   5.631   3.792
 7201TIP3    H221568   4.276   5.658   3.696
 7202TIP3   OH221569   4.722   5.588   3.645
 7202TIP3    H121570   4.758   5.637   3.567
 7202TIP3    H221571   4.626   5.603   3.635
 7203TIP3   OH221572   4.819   5.681   3.407
 7203TIP3    H121573   4.893   5.630   3.368
 7203TIP3    H221574   4.852   5.772   3.392
 7204TIP3   OH221575   3.450   5.411   3.753
 7204TIP3    H121576   3.357   5.380   3.757
 7204TIP3    H221577   3.497   5.325   3.748
 7205TIP3   OH221578   3.244   5.284   3.405
 7205TIP3    H121579   3.273   5.338   3.329
 7205TIP3    H221580   3.218   5.352   3.469
 7206TIP3   OH221581   3.901   5.441   3.636
 7206TIP3    H121582   3.953   5.488   3.569
 7206TIP3    H221583   3.930   5.484   3.718
 7207TIP3   OH221584   4.439   5.592   3.616
 7207TIP3    H121585   4.440   5.550   3.529
 7207TIP3    H221586   4.429   5.514   3.676
 7208TIP3   OH221587   4.473   5.518   3.182
 7208TIP3    H121588   4.387   5.561   3.197
 7208TIP3    H221589   4.458   5.431   3.226
 7209TIP3   OH221590   2.956   6.843   3.176
 7209TIP3    H121591   2.868   6.807   3.154
 7209TIP3    H221592   2.945   6.934   3.142
 7210TIP3   OH221593   3.358   5.437   3.166
 7210TIP3    H121594   3.404   5.377   3.105
 7210TIP3    H221595   3.433   5.491   3.200
 7211TIP3   OH221596   3.862   5.621   3.265
 7211TIP3    H121597   3.923   5.570   3.321
 7211TIP3    H221598   3.888   5.712   3.289
 7212TIP3   OH221599   3.732   7.033   2.767
 7212TIP3    H121600   3.819   7.055   2.728
 7212TIP3    H221601   3.705   6.962   2.705
 7213TIP3   OH221602   4.448   7.161   2.857
 7213TIP3    H121603   4.438   7.063   2.849
 7213TIP3    H221604   4.403   7.189   2.776
 7214TIP3   OH221605   3.658   5.694   4.646
 7214TIP3    H121606   3.621   5.622   4.701
 7214TIP3    H221607   3.752   5.692   4.675
 7215TIP3   OH221608   3.910   5.690   4.764
 7215TIP3    H121609   3.995   5.665   4.723
 7215TIP3    H221610   3.897   5.619   4.830
 7216TIP3   OH221611   3.041   6.888   2.827
 7216TIP3    H121612   3.042   6.878   2.923
 7216TIP3    H221613   3.123   6.842   2.801
 7217TIP3   OH221614   4.737   5.755   4.550
 7217TIP3    H121615   4.754   5.723   4.641
 7217TIP3    H221616   4.827   5.749   4.511
 7218TIP3   OH221617   4.657   7.305   4.051
 7218TIP3    H121618   4.586   7.278   3.990
 7218TIP3    H221619   4.644   7.402   4.052
 7219TIP3   OH221620   5.939   6.673   2.817
 7219TIP3    H121621   5.903   6.762   2.802
 7219TIP3    H221622   5.867   6.619   2.780
 7220TIP3   OH221623   5.938   6.679   3.197
 7220TIP3    H121624   5.974   6.653   3.284
 7220TIP3    H221625   5.898   6.596   3.167
 7221TIP3   OH221626   5.235   6.568   3.557
 7221TIP3    H121627   5.265   6.499   3.619
 7221TIP3    H221628   5.316   6.620   3.547
 7222TIP3   OH221629   6.178   6.961   2.878
 7222TIP3    H121630   6.175   6.880   2.930
 7222TIP3    H221631   6.149   7.027   2.941
 7223TIP3   OH221632   5.212   6.986   3.279
 7223TIP3    H121633   5.203   6.889   3.279
 7223TIP3    H221634   5.309   6.995   3.271
 7224TIP3   OH221635   4.918   6.182   3.058
 7224TIP3    H121636   4.870   6.265   3.079
 7224TIP3    H221637   4.846   6.132   3.015
 7225TIP3   OH221638   4.969   6.474   3.248
 7225TIP3    H121639   5.025   6.396   3.271
 7225TIP3    H221640   5.018   6.515   3.176
 7226TIP3   OH221641   5.782   7.408   2.887
 7226TIP3    H121642   5.841   7.359   2.828
 7226TIP3    H221643   5.844   7.448   2.950
 7227TIP3   OH221644   5.735   6.903   3.238
 7227TIP3    H121645   5.776   6.825   3.199
 7227TIP3    H221646   5.817   6.951   3.264
 7228TIP3   OH221647   6.752   6.215   3.239
 7228TIP3    H121648   6.781   6.300   3.278
 7228TIP3    H221649   6.785   6.224   3.147
 7229TIP3   OH221650   6.148   6.403   3.268
 7229TIP3    H121651   6.192   6.319   3.290
 7229TIP3    H221652   6.116   6.383   3.178
 7230TIP3   OH221653   5.493   6.063   3.233
 7230TIP3    H121654   5.471   6.135   3.170
 7230TIP3    H221655   5.443   5.989   3.191
 7231TIP3   OH221656   6.185   6.156   2.853
 7231TIP3    H121657   6.256   6.142   2.920
 7231TIP3    H221658   6.240   6.186   2.778
 7232TIP3   OH221659   5.123   6.264   3.341
 7232TIP3    H121660   5.205   6.245   3.390
 7232TIP3    H221661   5.137   6.208   3.262
 7233TIP3   OH221662   5.561   6.460   3.141
 7233TIP3    H121663   5.656   6.438   3.152
 7233TIP3    H221664   5.524   6.376   3.107
 7234TIP3   OH221665   6.826   6.429   3.407
 7234TIP3    H121666   6.739   6.473   3.398
 7234TIP3    H221667   6.863   6.476   3.485
 7235TIP3   OH221668   5.485   6.047   3.671
 7235TIP3    H121669   5.426   6.084   3.603
 7235TIP3    H221670   5.431   6.064   3.751
 7236TIP3   OH221671   5.813   6.891   2.704
 7236TIP3    H121672   5.852   6.893   2.615
 7236TIP3    H221673   5.774   6.980   2.713
 7237TIP3   OH221674   5.592   6.824   3.460
 7237TIP3    H121675   5.532   6.893   3.497
 7237TIP3    H221676   5.632   6.871   3.384
 7238TIP3   OH221677   6.386   6.164   3.034
 7238TIP3    H121678   6.378   6.117   3.117
 7238TIP3    H221679   6.440   6.241   3.059
 7239TIP3   OH221680   5.358   6.161   3.453
 7239TIP3    H121681   5.420   6.233   3.478
 7239TIP3    H221682   5.408   6.121   3.377
 7240TIP3   OH221683   5.422   7.020   3.564
 7240TIP3    H121684   5.397   7.107   3.528
 7240TIP3    H221685   5.342   7.002   3.617
 7241TIP3   OH221686   6.269   7.176   3.083
 7241TIP3    H121687   6.177   7.173   3.119
 7241TIP3    H221688   6.294   7.265   3.110
 7242TIP3   OH221689   6.544   6.117   3.401
 7242TIP3    H121690   6.459   6.148   3.367
 7242TIP3    H221691   6.607   6.152   3.335
 7243TIP3   OH221692   5.835   5.761   3.386
 7243TIP3    H121693   5.819   5.666   3.406
 7243TIP3    H221694   5.759   5.802   3.433
 7244TIP3   OH221695   5.941   7.271   2.685
 7244TIP3    H121696   5.992   7.189   2.668
 7244TIP3    H221697   6.016   7.328   2.709
 7245TIP3   OH221698   6.092   7.049   2.624
 7245TIP3    H121699   6.099   6.976   2.559
 7245TIP3    H221700   6.131   7.008   2.705
 7246TIP3   OH221701   6.453   7.131   3.344
 7246TIP3    H121702   6.441   7.044   3.298
 7246TIP3    H221703   6.463   7.190   3.268
 7247TIP3   OH221704   5.779   6.526   2.635
 7247TIP3    H121705   5.699   6.579   2.615
 7247TIP3    H221706   5.819   6.515   2.547
 7248TIP3   OH221707   6.660   6.748   3.225
 7248TIP3    H121708   6.581   6.806   3.219
 7248TIP3    H221709   6.727   6.804   3.183
 7249TIP3   OH221710   6.113   6.607   2.614
 7249TIP3    H121711   6.059   6.629   2.694
 7249TIP3    H221712   6.191   6.567   2.658
 7250TIP3   OH221713   6.349   6.642   3.529
 7250TIP3    H121714   6.351   6.723   3.585
 7250TIP3    H221715   6.261   6.651   3.488
 7251TIP3   OH221716   5.352   6.608   3.028
 7251TIP3    H121717   5.312   6.552   2.958
 7251TIP3    H221718   5.427   6.552   3.060
 7252TIP3   OH221719   5.480   7.020   3.177
 7252TIP3    H121720   5.456   6.987   3.089
 7252TIP3    H221721   5.568   6.981   3.191
 7253TIP3   OH221722   5.486   6.579   3.386
 7253TIP3    H121723   5.517   6.553   3.297
 7253TIP3    H221724   5.528   6.666   3.400
 7254TIP3   OH221725   6.023   7.216   3.176
 7254TIP3    H121726   5.995   7.300   3.220
 7254TIP3    H221727   5.988   7.147   3.236
 7255TIP3   OH221728   5.625   7.138   3.708
 7255TIP3    H121729   5.561   7.198   3.752
 7255TIP3    H221730   5.563   7.084   3.655
 7256TIP3   OH221731   5.964   6.488   2.416
 7256TIP3    H121732   6.023   6.542   2.474
 7256TIP3    H221733   5.998   6.509   2.326
 7257TIP3   OH221734   5.382   6.690   3.815
 7257TIP3    H121735   5.384   6.779   3.855
 7257TIP3    H221736   5.287   6.669   3.827
 7258TIP3   OH221737   5.694   7.148   2.682
 7258TIP3    H121738   5.776   7.198   2.697
 7258TIP3    H221739   5.627   7.210   2.714
 7259TIP3   OH221740   5.418   7.303   3.797
 7259TIP3    H121741   5.384   7.308   3.705
 7259TIP3    H221742   5.336   7.282   3.848
 7260TIP3   OH221743   6.472   5.707   2.488
 7260TIP3    H121744   6.391   5.731   2.537
 7260TIP3    H221745   6.490   5.790   2.438
 7261TIP3   OH221746   5.221   6.458   2.818
 7261TIP3    H121747   5.146   6.502   2.772
 7261TIP3    H221748   5.178   6.379   2.852
 7262TIP3   OH221749   4.996   6.837   3.740
 7262TIP3    H121750   4.929   6.817   3.671
 7262TIP3    H221751   5.034   6.748   3.759
 7263TIP3   OH221752   4.852   7.022   3.386
 7263TIP3    H121753   4.945   7.018   3.362
 7263TIP3    H221754   4.847   7.108   3.432
 7264TIP3   OH221755   5.823   7.267   3.570
 7264TIP3    H121756   5.816   7.360   3.598
 7264TIP3    H221757   5.749   7.225   3.620
 7265TIP3   OH221758   5.546   7.400   2.504
 7265TIP3    H121759   5.482   7.424   2.436
 7265TIP3    H221760   5.525   7.462   2.574
 7266TIP3   OH221761   5.016   7.246   2.891
 7266TIP3    H121762   5.054   7.231   2.980
 7266TIP3    H221763   4.962   7.166   2.880
 7267TIP3   OH221764   5.800   7.308   2.439
 7267TIP3    H121765   5.707   7.325   2.465
 7267TIP3    H221766   5.836   7.266   2.519
 7268TIP3   OH221767   6.605   6.608   3.694
 7268TIP3    H121768   6.523   6.613   3.644
 7268TIP3    H221769   6.624   6.512   3.691
 7269TIP3   OH221770   5.200   7.020   3.727
 7269TIP3    H121771   5.250   7.000   3.809
 7269TIP3    H221772   5.126   6.956   3.732
 7270TIP3   OH221773   5.600   5.841   3.517
 7270TIP3    H121774   5.512   5.811   3.486
 7270TIP3    H221775   5.572   5.921   3.567
 7271TIP3   OH221776   6.138   5.956   3.710
 7271TIP3    H121777   6.207   5.927   3.773
 7271TIP3    H221778   6.055   5.937   3.759
 7272TIP3   OH221779   6.368   6.381   3.627
 7272TIP3    H121780   6.318   6.383   3.711
 7272TIP3    H221781   6.348   6.469   3.589
 7273TIP3   OH221782   5.735   5.905   2.475
 7273TIP3    H121783   5.707   5.900   2.569
 7273TIP3    H221784   5.699   5.818   2.445
 7274TIP3   OH221785   5.534   6.358   3.535
 7274TIP3    H121786   5.482   6.378   3.615
 7274TIP3    H221787   5.518   6.439   3.482
 7275TIP3   OH221788   5.415   6.243   3.046
 7275TIP3    H121789   5.323   6.217   3.068
 7275TIP3    H221790   5.423   6.202   2.957
 7276TIP3   OH221791   5.908   6.325   2.775
 7276TIP3    H121792   5.861   6.398   2.730
 7276TIP3    H221793   5.966   6.293   2.704
 7277TIP3   OH221794   6.078   6.602   3.858
 7277TIP3    H121795   6.058   6.530   3.922
 7277TIP3    H221796   6.172   6.617   3.878
 7278TIP3   OH221797   6.063   6.353   3.012
 7278TIP3    H121798   6.001   6.381   2.942
 7278TIP3    H221799   6.101   6.275   2.966
 7279TIP3   OH221800   5.354   6.384   3.741
 7279TIP3    H121801   5.383   6.447   3.809
 7279TIP3    H221802   5.341   6.302   3.793
 7280TIP3   OH221803   5.411   5.869   2.448
 7280TIP3    H121804   5.398   5.866   2.545
 7280TIP3    H221805   5.326   5.906   2.419
 7281TIP3   OH221806   4.944   5.904   3.325
 7281TIP3    H121807   5.020   5.938   3.376
 7281TIP3    H221808   4.983   5.876   3.241
 7282TIP3   OH221809   4.909   5.889   2.838
 7282TIP3    H121810   4.958   5.927   2.763
 7282TIP3    H221811   4.847   5.962   2.857
 7283TIP3   OH221812   6.074   6.602   3.433
 7283TIP3    H121813   6.107   6.531   3.374
 7283TIP3    H221814   6.042   6.547   3.508
 7284TIP3   OH221815   5.749   6.067   3.106
 7284TIP3    H121816   5.669   6.065   3.162
 7284TIP3    H221817   5.820   6.055   3.171
 7285TIP3   OH221818   5.178   6.123   3.112
 7285TIP3    H121819   5.083   6.132   3.085
 7285TIP3    H221820   5.197   6.029   3.092
 7286TIP3   OH221821   5.438   6.118   2.799
 7286TIP3    H121822   5.535   6.129   2.794
 7286TIP3    H221823   5.409   6.148   2.711
 7287TIP3   OH221824   6.236   6.144   3.314
 7287TIP3    H121825   6.201   6.156   3.405
 7287TIP3    H221826   6.170   6.083   3.277
 7288TIP3   OH221827   5.297   6.171   2.556
 7288TIP3    H121828   5.212   6.154   2.599
 7288TIP3    H221829   5.283   6.120   2.473
 7289TIP3   OH221830   5.364   6.942   3.949
 7289TIP3    H121831   5.443   6.971   3.998
 7289TIP3    H221832   5.299   6.936   4.022
 7290TIP3   OH221833   5.825   6.397   3.206
 7290TIP3    H121834   5.899   6.357   3.158
 7290TIP3    H221835   5.828   6.351   3.292
 7291TIP3   OH221836   5.346   5.878   3.091
 7291TIP3    H121837   5.304   5.805   3.142
 7291TIP3    H221838   5.394   5.828   3.024
 7292TIP3   OH221839   5.802   6.297   3.490
 7292TIP3    H121840   5.711   6.329   3.507
 7292TIP3    H221841   5.858   6.358   3.542
 7293TIP3   OH221842   5.539   6.679   2.586
 7293TIP3    H121843   5.476   6.604   2.581
 7293TIP3    H221844   5.520   6.713   2.677
 7294TIP3   OH221845   6.432   6.909   3.187
 7294TIP3    H121846   6.415   6.928   3.094
 7294TIP3    H221847   6.350   6.858   3.205
 7295TIP3   OH221848   5.996   5.991   2.459
 7295TIP3    H121849   5.900   5.975   2.471
 7295TIP3    H221850   6.007   6.086   2.483
 7296TIP3   OH221851   5.940   7.001   3.586
 7296TIP3    H121852   5.967   6.978   3.676
 7296TIP3    H221853   5.901   7.089   3.596
 7297TIP3   OH221854   6.062   6.247   2.552
 7297TIP3    H121855   6.158   6.252   2.570
 7297TIP3    H221856   6.048   6.327   2.497
 7298TIP3   OH221857   5.239   6.711   3.263
 7298TIP3    H121858   5.270   6.680   3.176
 7298TIP3    H221859   5.278   6.646   3.323
 7299TIP3   OH221860   5.643   6.846   2.396
 7299TIP3    H121861   5.701   6.905   2.446
 7299TIP3    H221862   5.611   6.785   2.466
 7300TIP3   OH221863   5.116   6.623   3.879
 7300TIP3    H121864   5.130   6.607   3.974
 7300TIP3    H221865   5.046   6.559   3.859
 7301TIP3   OH221866   5.841   6.744   3.896
 7301TIP3    H121867   5.778   6.682   3.855
 7301TIP3    H221868   5.926   6.704   3.867
 7302TIP3   OH221869   6.106   7.251   3.494
 7302TIP3    H121870   6.009   7.256   3.490
 7302TIP3    H221871   6.125   7.306   3.572
 7303TIP3   OH221872   6.504   6.335   2.391
 7303TIP3    H121873   6.445   6.289   2.326
 7303TIP3    H221874   6.478   6.427   2.366
 7304TIP3   OH221875   6.196   6.775   3.140
 7304TIP3    H121876   6.102   6.751   3.149
 7304TIP3    H221877   6.231   6.694   3.096
 7305TIP3   OH221878   5.331   7.000   2.894
 7305TIP3    H121879   5.315   7.081   2.840
 7305TIP3    H221880   5.241   6.967   2.906
 7306TIP3   OH221881   4.900   6.313   2.603
 7306TIP3    H121882   4.939   6.401   2.622
 7306TIP3    H221883   4.820   6.316   2.660
 7307TIP3   OH221884   5.462   6.769   2.828
 7307TIP3    H121885   5.430   6.859   2.850
 7307TIP3    H221886   5.431   6.719   2.905
 7308TIP3   OH221887   5.604   7.349   3.359
 7308TIP3    H121888   5.642   7.422   3.306
 7308TIP3    H221889   5.684   7.312   3.399
 7309TIP3   OH221890   5.256   7.225   2.749
 7309TIP3    H121891   5.169   7.245   2.787
 7309TIP3    H221892   5.292   7.316   2.739
 7310TIP3   OH221893   5.984   6.982   3.320
 7310TIP3    H121894   5.975   6.982   3.418
 7310TIP3    H221895   6.059   6.924   3.306
 7311TIP3   OH221896   5.884   6.877   2.200
 7311TIP3    H121897   5.976   6.902   2.217
 7311TIP3    H221898   5.864   6.821   2.276
 7312TIP3   OH221899   5.320   6.130   3.882
 7312TIP3    H121900   5.223   6.131   3.893
 7312TIP3    H221901   5.348   6.074   3.957
 7313TIP3   OH221902   6.106   6.827   2.454
 7313TIP3    H121903   6.111   6.748   2.511
 7313TIP3    H221904   6.175   6.808   2.389
 7314TIP3   OH221905   5.040   7.211   3.519
 7314TIP3    H121906   5.097   7.143   3.559
 7314TIP3    H221907   5.073   7.292   3.561
 7315TIP3   OH221908   5.331   6.897   2.222
 7315TIP3    H121909   5.378   6.847   2.153
 7315TIP3    H221910   5.313   6.824   2.284
 7316TIP3   OH221911   5.321   6.951   2.504
 7316TIP3    H121912   5.385   6.883   2.532
 7316TIP3    H221913   5.243   6.924   2.558
 7317TIP3   OH221914   5.014   6.555   2.667
 7317TIP3    H121915   4.970   6.608   2.739
 7317TIP3    H221916   5.025   6.629   2.604
 7318TIP3   OH221917   6.160   6.196   3.574
 7318TIP3    H121918   6.246   6.232   3.604
 7318TIP3    H221919   6.152   6.114   3.628
 7319TIP3   OH221920   6.043   5.942   2.742
 7319TIP3    H121921   6.035   5.964   2.647
 7319TIP3    H221922   6.083   6.024   2.778
 7320TIP3   OH221923   5.718   6.131   2.839
 7320TIP3    H121924   5.785   6.200   2.821
 7320TIP3    H221925   5.730   6.118   2.936
 7321TIP3   OH221926   6.000   6.440   3.639
 7321TIP3    H121927   6.026   6.488   3.720
 7321TIP3    H221928   6.052   6.357   3.645
 7322TIP3   OH221929   5.870   5.843   2.936
 7322TIP3    H121930   5.871   5.918   2.998
 7322TIP3    H221931   5.933   5.876   2.868
 7323TIP3   OH221932   5.389   5.852   2.723
 7323TIP3    H121933   5.389   5.940   2.768
 7323TIP3    H221934   5.484   5.830   2.731
 7324TIP3   OH221935   6.637   6.340   3.635
 7324TIP3    H121936   6.539   6.336   3.633
 7324TIP3    H221937   6.658   6.313   3.544
 7325TIP3   OH221938   6.287   6.539   3.024
 7325TIP3    H121939   6.213   6.476   3.034
 7325TIP3    H221940   6.360   6.492   3.069
 7326TIP3   OH221941   5.049   6.780   2.494
 7326TIP3    H121942   4.976   6.840   2.474
 7326TIP3    H221943   5.058   6.727   2.413
 7327TIP3   OH221944   4.958   6.048   2.616
 7327TIP3    H121945   4.943   6.145   2.617
 7327TIP3    H221946   4.878   6.017   2.572
 7328TIP3   OH221947   5.336   5.761   3.485
 7328TIP3    H121948   5.305   5.726   3.399
 7328TIP3    H221949   5.325   5.684   3.544
 7329TIP3   OH221950   5.029   7.511   3.966
 7329TIP3    H121951   5.117   7.512   4.010
 7329TIP3    H221952   5.012   7.415   3.959
 7330TIP3   OH221953   5.509   7.478   3.991
 7330TIP3    H121954   5.604   7.464   3.988
 7330TIP3    H221955   5.479   7.421   3.918
 7331TIP3   OH221956   6.170   7.382   3.730
 7331TIP3    H121957   6.131   7.315   3.791
 7331TIP3    H221958   6.264   7.371   3.754
 7332TIP3   OH221959   5.161   6.930   4.140
 7332TIP3    H121960   5.177   6.834   4.149
 7332TIP3    H221961   5.075   6.931   4.092
 7333TIP3   OH221962   5.141   6.589   2.319
 7333TIP3    H121963   5.181   6.549   2.397
 7333TIP3    H221964   5.211   6.574   2.252
 7334TIP3   OH221965   5.767   7.018   3.915
 7334TIP3    H121966   5.725   7.039   3.829
 7334TIP3    H221967   5.797   6.926   3.903
 7335TIP3   OH221968   5.601   6.754   2.130
 7335TIP3    H121969   5.628   6.788   2.218
 7335TIP3    H221970   5.633   6.662   2.135
 7336TIP3   OH221971   6.271   7.035   3.523
 7336TIP3    H121972   6.332   7.068   3.455
 7336TIP3    H221973   6.196   7.098   3.512
 7337TIP3   OH221974   5.283   6.670   4.125
 7337TIP3    H121975   5.358   6.617   4.096
 7337TIP3    H221976   5.312   6.700   4.214
 7338TIP3   OH221977   5.350   6.468   2.574
 7338TIP3    H121978   5.312   6.474   2.664
 7338TIP3    H221979   5.342   6.373   2.557
 7339TIP3   OH221980   5.618   6.549   3.787
 7339TIP3    H121981   5.538   6.606   3.785
 7339TIP3    H221982   5.669   6.584   3.711
 7340TIP3   OH221983   6.137   6.949   3.915
 7340TIP3    H121984   6.229   6.932   3.890
 7340TIP3    H221985   6.124   6.882   3.984
 7341TIP3   OH221986   5.741   6.339   3.907
 7341TIP3    H121987   5.741   6.260   3.849
 7341TIP3    H221988   5.696   6.406   3.852
 7342TIP3   OH221989   5.743   6.126   3.719
 7342TIP3    H121990   5.771   6.165   3.634
 7342TIP3    H221991   5.650   6.102   3.700
 7343TIP3   OH221992   5.764   6.659   3.593
 7343TIP3    H121993   5.850   6.671   3.551
 7343TIP3    H221994   5.708   6.722   3.545
 7344TIP3   OH221995   6.365   6.616   3.990
 7344TIP3    H121996   6.399   6.532   3.956
 7344TIP3    H221997   6.430   6.679   3.953
 7345TIP3   OH221998   6.393   6.864   3.692
 7345TIP3    H121999   6.336   6.927   3.640
 7345TIP3    H222000   6.481   6.890   3.656
 7346TIP3   OH222001   5.617   6.442   4.142
 7346TIP3    H122002   5.551   6.372   4.159
 7346TIP3    H222003   5.650   6.416   4.053
 7347TIP3   OH222004   5.874   5.885   3.789
 7347TIP3    H122005   5.823   5.966   3.766
 7347TIP3    H222006   5.806   5.816   3.778
 7348TIP3   OH222007   5.999   6.385   4.003
 7348TIP3    H122008   5.981   6.369   4.098
 7348TIP3    H222009   5.910   6.364   3.967
 7349TIP3   OH222010   6.244   6.350   3.866
 7349TIP3    H122011   6.166   6.344   3.924
 7349TIP3    H222012   6.315   6.314   3.923
 7350TIP3   OH222013   6.465   6.284   4.023
 7350TIP3    H122014   6.481   6.187   4.028
 7350TIP3    H222015   6.469   6.309   4.117
 7351TIP3   OH222016   5.457   6.223   4.199
 7351TIP3    H122017   5.459   6.130   4.167
 7351TIP3    H222018   5.496   6.212   4.288
 7352TIP3   OH222019   5.967   5.896   4.048
 7352TIP3    H122020   6.032   5.824   4.041
 7352TIP3    H222021   5.927   5.892   3.958
 7353TIP3   OH222022   6.037   6.112   4.204
 7353TIP3    H122023   6.015   6.040   4.141
 7353TIP3    H222024   5.957   6.168   4.198
 7354TIP3   OH222025   5.334   7.253   2.291
 7354TIP3    H122026   5.360   7.333   2.240
 7354TIP3    H222027   5.237   7.261   2.280
 7355TIP3   OH222028   4.739   6.739   2.465
 7355TIP3    H122029   4.783   6.741   2.552
 7355TIP3    H222030   4.731   6.642   2.449
 7356TIP3   OH222031   4.643   7.342   2.928
 7356TIP3    H122032   4.581   7.273   2.895
 7356TIP3    H222033   4.692   7.289   2.995
 7357TIP3   OH222034   4.778   7.201   3.115
 7357TIP3    H122035   4.769   7.112   3.151
 7357TIP3    H222036   4.837   7.243   3.181
 7358TIP3   OH222037   6.485   6.690   2.643
 7358TIP3    H122038   6.405   6.635   2.649
 7358TIP3    H222039   6.547   6.633   2.690
 7359TIP3   OH222040   6.413   6.560   2.269
 7359TIP3    H122041   6.397   6.544   2.174
 7359TIP3    H222042   6.494   6.612   2.263
 7360TIP3   OH222043   6.340   6.238   2.198
 7360TIP3    H122044   6.288   6.288   2.134
 7360TIP3    H222045   6.313   6.146   2.178
 7361TIP3   OH222046   6.317   6.495   2.751
 7361TIP3    H122047   6.345   6.402   2.745
 7361TIP3    H222048   6.316   6.511   2.848
 7362TIP3   OH222049   4.970   6.589   3.498
 7362TIP3    H122050   4.964   6.555   3.406
 7362TIP3    H222051   5.067   6.591   3.510
 7363TIP3   OH222052   6.628   6.951   3.590
 7363TIP3    H122053   6.706   6.894   3.609
 7363TIP3    H222054   6.665   7.014   3.528
 7364TIP3   OH222055   6.820   6.764   3.650
 7364TIP3    H122056   6.741   6.708   3.664
 7364TIP3    H222057   6.888   6.694   3.642
 7365TIP3   OH222058   6.283   5.970   2.177
 7365TIP3    H122059   6.360   5.946   2.234
 7365TIP3    H222060   6.215   5.907   2.205
 7366TIP3   OH222061   6.341   6.228   2.634
 7366TIP3    H122062   6.385   6.141   2.646
 7366TIP3    H222063   6.400   6.268   2.567
 7367TIP3   OH222064   6.501   6.404   3.133
 7367TIP3    H122065   6.585   6.431   3.088
 7367TIP3    H222066   6.521   6.437   3.223
 7368TIP3   OH222067   6.571   6.537   3.370
 7368TIP3    H122068   6.494   6.575   3.416
 7368TIP3    H222069   6.604   6.614   3.319
 7369TIP3   OH222070   5.192   6.278   4.170
 7369TIP3    H122071   5.290   6.272   4.174
 7369TIP3    H222072   5.168   6.190   4.205
 7370TIP3   OH222073   7.047   6.154   3.920
 7370TIP3    H122074   7.097   6.085   3.871
 7370TIP3    H222075   7.003   6.201   3.845
 7371TIP3   OH222076   6.454   5.983   2.675
 7371TIP3    H122077   6.502   5.967   2.760
 7371TIP3    H222078   6.392   5.907   2.676
 7372TIP3   OH222079   5.152   5.970   3.497
 7372TIP3    H122080   5.213   5.894   3.504
 7372TIP3    H222081   5.215   6.044   3.487
 7373TIP3   OH222082   4.952   6.242   3.567
 7373TIP3    H122083   5.000   6.239   3.482
 7373TIP3    H222084   4.980   6.328   3.602
 7374TIP3   OH222085   6.888   6.273   3.733
 7374TIP3    H122086   6.804   6.322   3.747
 7374TIP3    H222087   6.857   6.206   3.670
 7375TIP3   OH222088   6.525   5.915   2.310
 7375TIP3    H122089   6.565   5.846   2.253
 7375TIP3    H222090   6.592   5.986   2.306
 7376TIP3   OH222091   4.939   5.750   3.070
 7376TIP3    H122092   4.846   5.740   3.098
 7376TIP3    H222093   4.929   5.808   2.991
 7377TIP3   OH222094   5.159   5.827   3.884
 7377TIP3    H122095   5.106   5.822   3.965
 7377TIP3    H222096   5.094   5.865   3.822
 7378TIP3   OH222097   5.197   7.262   3.962
 7378TIP3    H122098   5.107   7.231   3.942
 7378TIP3    H222099   5.209   7.232   4.053
 7379TIP3   OH222100   5.383   7.288   3.512
 7379TIP3    H122101   5.337   7.366   3.474
 7379TIP3    H222102   5.468   7.301   3.465
 7380TIP3   OH222103   5.834   7.544   3.639
 7380TIP3    H122104   5.860   7.542   3.734
 7380TIP3    H222105   5.918   7.569   3.599
 7381TIP3   OH222106   6.793   6.042   3.604
 7381TIP3    H122107   6.704   6.033   3.567
 7381TIP3    H222108   6.827   5.950   3.595
 7382TIP3   OH222109   5.077   7.506   3.535
 7382TIP3    H122110   4.984   7.532   3.521
 7382TIP3    H222111   5.099   7.568   3.608
 7383TIP3   OH222112   5.309   7.523   3.397
 7383TIP3    H122113   5.220   7.521   3.439
 7383TIP3    H222114   5.286   7.557   3.307
 7384TIP3   OH222115   5.707   7.551   3.205
 7384TIP3    H122116   5.643   7.559   3.132
 7384TIP3    H222117   5.723   7.644   3.230
 7385TIP3   OH222118   5.972   7.479   3.248
 7385TIP3    H122119   5.879   7.508   3.247
 7385TIP3    H222120   6.001   7.514   3.161
 7386TIP3   OH222121   4.959   7.328   3.284
 7386TIP3    H122122   4.991   7.300   3.372
 7386TIP3    H222123   5.031   7.291   3.228
 7387TIP3   OH222124   5.151   7.209   3.133
 7387TIP3    H122125   5.169   7.126   3.184
 7387TIP3    H222126   5.242   7.246   3.127
 7388TIP3   OH222127   5.423   7.301   3.142
 7388TIP3    H122128   5.454   7.209   3.132
 7388TIP3    H222129   5.471   7.325   3.224
 7389TIP3   OH222130   5.993   5.956   3.220
 7389TIP3    H122131   5.956   5.884   3.274
 7389TIP3    H222132   6.073   5.914   3.181
 7390TIP3   OH222133   6.517   5.843   3.133
 7390TIP3    H122134   6.554   5.891   3.056
 7390TIP3    H222135   6.421   5.861   3.123
 7391TIP3   OH222136   6.613   5.934   2.895
 7391TIP3    H122137   6.687   5.881   2.857
 7391TIP3    H222138   6.649   6.024   2.878
 7392TIP3   OH222139   5.246   5.667   3.239
 7392TIP3    H122140   5.153   5.636   3.243
 7392TIP3    H222141   5.293   5.581   3.234
 7393TIP3   OH222142   5.040   5.541   2.895
 7393TIP3    H122143   5.064   5.597   2.819
 7393TIP3    H222144   5.011   5.607   2.961
 7394TIP3   OH222145   5.694   5.700   3.122
 7394TIP3    H122146   5.749   5.747   3.057
 7394TIP3    H222147   5.724   5.739   3.205
 7395TIP3   OH222148   6.231   5.848   3.104
 7395TIP3    H122149   6.241   5.805   3.018
 7395TIP3    H222150   6.222   5.770   3.164
 7396TIP3   OH222151   6.268   5.773   2.669
 7396TIP3    H122152   6.181   5.814   2.687
 7396TIP3    H222153   6.256   5.686   2.713
 7397TIP3   OH222154   4.784   7.104   2.608
 7397TIP3    H122155   4.731   7.041   2.659
 7397TIP3    H222156   4.741   7.188   2.629
 7398TIP3   OH222157   5.157   5.699   2.647
 7398TIP3    H122158   5.202   5.632   2.592
 7398TIP3    H222159   5.232   5.748   2.684
 7399TIP3   OH222160   5.668   5.879   2.744
 7399TIP3    H122161   5.723   5.829   2.805
 7399TIP3    H222162   5.688   5.970   2.774
 7400TIP3   OH222163   5.455   5.950   4.133
 7400TIP3    H122164   5.418   5.878   4.188
 7400TIP3    H222165   5.549   5.948   4.162
 7401TIP3   OH222166   5.706   5.947   4.251
 7401TIP3    H122167   5.791   5.920   4.212
 7401TIP3    H222168   5.693   5.877   4.318
 7402TIP3   OH222169   4.841   7.151   2.327
 7402TIP3    H122170   4.816   7.137   2.421
 7402TIP3    H222171   4.919   7.094   2.319
 7403TIP3   OH222172   6.532   6.014   4.039
 7403TIP3    H122173   6.544   5.977   4.129
 7403TIP3    H222174   6.623   6.005   4.002
 7404TIP3   OH222175   6.667   6.464   2.589
 7404TIP3    H122176   6.704   6.534   2.534
 7404TIP3    H222177   6.623   6.406   2.525
 7405TIP3   OH222178   6.741   6.153   2.809
 7405TIP3    H122179   6.806   6.193   2.869
 7405TIP3    H222180   6.788   6.147   2.725
 7406TIP3   OH222181   6.700   6.151   2.320
 7406TIP3    H122182   6.772   6.195   2.274
 7406TIP3    H222183   6.637   6.224   2.339
 7407TIP3   OH222184   7.120   6.384   3.416
 7407TIP3    H122185   7.027   6.394   3.388
 7407TIP3    H222186   7.123   6.292   3.445
 7408TIP3   OH222187   7.121   6.030   2.989
 7408TIP3    H122188   7.103   6.000   2.897
 7408TIP3    H222189   7.119   5.945   3.038
 7409TIP3   OH222190   7.230   6.475   3.694
 7409TIP3    H122191   7.222   6.389   3.650
 7409TIP3    H222192   7.322   6.473   3.724
 7410TIP3   OH222193   6.964   6.529   3.637
 7410TIP3    H122194   7.062   6.529   3.644
 7410TIP3    H222195   6.946   6.446   3.685
 7411TIP3   OH222196   6.926   6.230   3.005
 7411TIP3    H122197   6.981   6.149   3.001
 7411TIP3    H222198   7.000   6.295   3.010
 7412TIP3   OH222199   6.748   6.487   3.046
 7412TIP3    H122200   6.814   6.452   2.986
 7412TIP3    H222201   6.795   6.557   3.093
 7413TIP3   OH222202   6.729   5.990   2.540
 7413TIP3    H122203   6.642   5.993   2.583
 7413TIP3    H222204   6.720   6.059   2.471
 7414TIP3   OH222205   6.958   6.087   3.374
 7414TIP3    H122206   6.903   6.080   3.454
 7414TIP3    H222207   6.893   6.120   3.310
 7415TIP3   OH222208   7.035   5.929   2.749
 7415TIP3    H122209   6.944   5.895   2.745
 7415TIP3    H222210   7.085   5.846   2.735
 7416TIP3   OH222211   6.838   5.795   2.377
 7416TIP3    H122212   6.860   5.857   2.305
 7416TIP3    H222213   6.802   5.857   2.445
 7417TIP3   OH222214   6.946   5.948   2.154
 7417TIP3    H122215   6.982   5.872   2.105
 7417TIP3    H222216   7.017   6.013   2.142
 7418TIP3   OH222217   7.248   6.192   3.620
 7418TIP3    H122218   7.211   6.124   3.681
 7418TIP3    H222219   7.342   6.190   3.646
 7419TIP3   OH222220   7.505   6.177   3.725
 7419TIP3    H122221   7.578   6.121   3.695
 7419TIP3    H222222   7.481   6.134   3.809
 7420TIP3   OH222223   0.715   6.751   3.664
 7420TIP3    H122224   0.622   6.739   3.689
 7420TIP3    H222225   0.709   6.821   3.598
 7421TIP3   OH222226   1.271   7.172   5.102
 7421TIP3    H122227   1.324   7.102   5.058
 7421TIP3    H222228   1.316   7.253   5.075
 7422TIP3   OH222229   1.051   7.048   4.780
 7422TIP3    H122230   0.970   7.008   4.741
 7422TIP3    H222231   1.109   6.968   4.778
 7423TIP3   OH222232   0.771   6.877   4.301
 7423TIP3    H122233   0.823   6.933   4.239
 7423TIP3    H222234   0.681   6.904   4.278
 7424TIP3   OH222235   0.880   7.003   4.081
 7424TIP3    H122236   0.940   6.940   4.035
 7424TIP3    H222237   0.915   7.087   4.052
 7425TIP3   OH222238   1.890   7.056   4.061
 7425TIP3    H122239   1.868   6.962   4.076
 7425TIP3    H222240   1.812   7.098   4.105
 7426TIP3   OH222241   2.520   7.015   3.153
 7426TIP3    H122242   2.447   7.033   3.216
 7426TIP3    H222243   2.493   7.069   3.078
 7427TIP3   OH222244   1.663   7.143   4.193
 7427TIP3    H122245   1.576   7.103   4.168
 7427TIP3    H222246   1.644   7.236   4.180
 7428TIP3   OH222247   2.179   7.256   4.373
 7428TIP3    H122248   2.252   7.234   4.433
 7428TIP3    H222249   2.100   7.249   4.429
 7429TIP3   OH222250   1.416   7.040   4.143
 7429TIP3    H122251   1.357   7.027   4.066
 7429TIP3    H222252   1.382   6.974   4.205
 7430TIP3   OH222253   1.901   7.214   4.439
 7430TIP3    H122254   1.884   7.249   4.350
 7430TIP3    H222255   1.842   7.135   4.439
 7431TIP3   OH222256   2.002   7.182   4.703
 7431TIP3    H122257   2.065   7.108   4.691
 7431TIP3    H222258   1.959   7.186   4.616
 7432TIP3   OH222259   2.119   7.378   4.853
 7432TIP3    H122260   2.087   7.303   4.797
 7432TIP3    H222261   2.035   7.411   4.892
 7433TIP3   OH222262   3.047   7.445   4.549
 7433TIP3    H122263   3.106   7.367   4.543
 7433TIP3    H222264   3.111   7.516   4.561
 7434TIP3   OH222265   1.232   7.094   4.568
 7434TIP3    H122266   1.177   7.103   4.648
 7434TIP3    H222267   1.162   7.098   4.500
 7435TIP3   OH222268   2.847   7.285   4.255
 7435TIP3    H122269   2.760   7.245   4.232
 7435TIP3    H222270   2.902   7.204   4.262
 7436TIP3   OH222271   2.044   7.260   3.907
 7436TIP3    H122272   2.014   7.183   3.960
 7436TIP3    H222273   2.123   7.225   3.864
 7437TIP3   OH222274   2.571   7.142   3.792
 7437TIP3    H122275   2.605   7.198   3.718
 7437TIP3    H222276   2.474   7.151   3.782
 7438TIP3   OH222277   2.675   7.262   3.567
 7438TIP3    H122278   2.733   7.197   3.522
 7438TIP3    H222279   2.706   7.345   3.528
 7439TIP3   OH222280   1.280   6.983   3.903
 7439TIP3    H122281   1.192   6.939   3.913
 7439TIP3    H222282   1.335   6.902   3.893
 7440TIP3   OH222283   1.075   6.810   3.557
 7440TIP3    H122284   1.137   6.847   3.492
 7440TIP3    H222285   1.039   6.893   3.594
 7441TIP3   OH222286   1.737   6.990   3.778
 7441TIP3    H122287   1.743   7.081   3.743
 7441TIP3    H222288   1.755   7.005   3.871
 7442TIP3   OH222289   2.293   7.137   3.762
 7442TIP3    H122290   2.256   7.089   3.687
 7442TIP3    H222291   2.282   7.069   3.833
 7443TIP3   OH222292   2.319   7.073   3.331
 7443TIP3    H122293   2.228   7.082   3.299
 7443TIP3    H222294   2.311   6.991   3.385
 7444TIP3   OH222295   1.511   7.160   4.780
 7444TIP3    H122296   1.474   7.093   4.843
 7444TIP3    H222297   1.603   7.166   4.815
 7445TIP3   OH222298   1.747   7.222   4.892
 7445TIP3    H122299   1.837   7.206   4.861
 7445TIP3    H222300   1.746   7.173   4.976
 7446TIP3   OH222301   2.562   7.312   4.693
 7446TIP3    H122302   2.584   7.294   4.787
 7446TIP3    H222303   2.651   7.318   4.654
 7447TIP3   OH222304   3.681   7.309   3.544
 7447TIP3    H122305   3.664   7.214   3.563
 7447TIP3    H222306   3.607   7.350   3.593
 7448TIP3   OH222307   4.315   7.274   2.639
 7448TIP3    H122308   4.243   7.295   2.703
 7448TIP3    H222309   4.291   7.331   2.565
 7449TIP3   OH222310   3.458   7.398   3.679
 7449TIP3    H122311   3.368   7.363   3.656
 7449TIP3    H222312   3.447   7.491   3.655
 7450TIP3   OH222313   3.973   7.509   3.859
 7450TIP3    H122314   4.049   7.496   3.918
 7450TIP3    H222315   3.897   7.510   3.920
 7451TIP3   OH222316   3.207   7.299   3.633
 7451TIP3    H122317   3.152   7.285   3.554
 7451TIP3    H222318   3.176   7.228   3.693
 7452TIP3   OH222319   3.691   7.476   3.926
 7452TIP3    H122320   3.682   7.515   3.837
 7452TIP3    H222321   3.636   7.396   3.919
 7453TIP3   OH222322   3.796   7.443   4.184
 7453TIP3    H122323   3.856   7.366   4.171
 7453TIP3    H222324   3.751   7.448   4.098
 7454TIP3   OH222325   3.918   7.634   4.337
 7454TIP3    H122326   3.881   7.562   4.282
 7454TIP3    H222327   3.836   7.669   4.380
 7455TIP3   OH222328   4.849   7.702   4.043
 7455TIP3    H122329   4.903   7.622   4.022
 7455TIP3    H222330   4.919   7.766   4.061
 7456TIP3   OH222331   3.031   7.379   4.079
 7456TIP3    H122332   2.961   7.337   4.137
 7456TIP3    H222333   2.969   7.393   3.998
 7457TIP3   OH222334   4.641   7.551   3.754
 7457TIP3    H122335   4.556   7.514   3.723
 7457TIP3    H222336   4.698   7.472   3.749
 7458TIP3   OH222337   3.838   7.514   3.386
 7458TIP3    H122338   3.814   7.436   3.440
 7458TIP3    H222339   3.924   7.487   3.348
 7459TIP3   OH222340   4.365   7.390   3.276
 7459TIP3    H122341   4.403   7.451   3.210
 7459TIP3    H222342   4.270   7.410   3.270
 7460TIP3   OH222343   4.462   7.517   3.046
 7460TIP3    H122344   4.520   7.451   3.003
 7460TIP3    H222345   4.511   7.598   3.032
 7461TIP3   OH222346   3.078   7.235   3.393
 7461TIP3    H122347   2.990   7.192   3.401
 7461TIP3    H222348   3.134   7.156   3.381
 7462TIP3   OH222349   2.874   7.067   3.043
 7462TIP3    H122350   2.929   7.114   2.980
 7462TIP3    H222351   2.832   7.144   3.086
 7463TIP3   OH222352   3.527   7.237   3.284
 7463TIP3    H122353   3.535   7.319   3.232
 7463TIP3    H222354   3.566   7.265   3.368
 7464TIP3   OH222355   4.082   7.397   3.255
 7464TIP3    H122356   4.062   7.346   3.176
 7464TIP3    H222357   4.072   7.327   3.324
 7465TIP3   OH222358   4.113   7.332   2.816
 7465TIP3    H122359   4.025   7.336   2.775
 7465TIP3    H222360   4.104   7.251   2.870
 7466TIP3   OH222361   3.253   7.496   4.292
 7466TIP3    H122362   3.250   7.416   4.350
 7466TIP3    H222363   3.350   7.513   4.303
 7467TIP3   OH222364   3.520   7.494   4.374
 7467TIP3    H122365   3.609   7.468   4.344
 7467TIP3    H222366   3.515   7.448   4.460
 7468TIP3   OH222367   4.362   7.565   4.179
 7468TIP3    H122368   4.385   7.551   4.273
 7468TIP3    H222369   4.450   7.578   4.138
 7469TIP3   OH222370   5.479   7.568   3.033
 7469TIP3    H122371   5.462   7.473   3.049
 7469TIP3    H222372   5.403   7.608   3.080
 7470TIP3   OH222373   5.254   7.655   3.168
 7470TIP3    H122374   5.165   7.620   3.143
 7470TIP3    H222375   5.242   7.749   3.153
 7471TIP3   OH222376   5.763   7.779   3.357
 7471TIP3    H122377   5.809   7.756   3.438
 7471TIP3    H222378   5.669   7.771   3.383
 7472TIP3   OH222379   5.006   7.552   3.117
 7472TIP3    H122380   4.947   7.538   3.041
 7472TIP3    H222381   4.973   7.486   3.181
 7473TIP3   OH222382   5.496   7.730   3.409
 7473TIP3    H122383   5.472   7.777   3.325
 7473TIP3    H222384   5.435   7.653   3.406
 7474TIP3   OH222385   5.593   7.689   3.680
 7474TIP3    H122386   5.662   7.622   3.662
 7474TIP3    H222387   5.550   7.698   3.594
 7475TIP3   OH222388   5.716   7.900   3.815
 7475TIP3    H122389   5.683   7.816   3.776
 7475TIP3    H222390   5.646   7.919   3.881
 7476TIP3   OH222391   4.824   7.604   3.541
 7476TIP3    H122392   4.773   7.611   3.624
 7476TIP3    H222393   4.751   7.610   3.477
 7477TIP3   OH222394  -0.074   2.071   5.716
 7477TIP3    H122395  -0.099   1.997   5.775
 7477TIP3    H222396   0.019   2.052   5.696
 7478TIP3   OH222397   4.873   7.490   2.876
 7478TIP3    H122398   4.785   7.447   2.886
 7478TIP3    H222399   4.930   7.411   2.864
 7479TIP3   OH222400   4.644   7.331   2.518
 7479TIP3    H122401   4.710   7.373   2.461
 7479TIP3    H222402   4.611   7.411   2.564
 7480TIP3   OH222403   5.331   7.493   2.756
 7480TIP3    H122404   5.333   7.585   2.724
 7480TIP3    H222405   5.355   7.506   2.849
 7481TIP3   OH222406   5.100   7.668   3.749
 7481TIP3    H122407   5.061   7.607   3.817
 7481TIP3    H222408   5.192   7.675   3.784
 7482TIP3   OH222409   5.332   7.731   3.860
 7482TIP3    H122410   5.425   7.740   3.835
 7482TIP3    H222411   5.338   7.692   3.949
 7483TIP3   OH222412   2.420   1.307   6.444
 7483TIP3    H122413   2.426   1.402   6.421
 7483TIP3    H222414   2.512   1.278   6.427
 7484TIP3   OH222415   1.933   1.522   6.572
 7484TIP3    H122416   1.987   1.456   6.523
 7484TIP3    H222417   1.974   1.519   6.659
 7485TIP3   OH222418   2.164   0.773   6.580
 7485TIP3    H122419   2.137   0.720   6.503
 7485TIP3    H222420   2.256   0.795   6.556
 7486TIP3   OH222421   2.357   1.378   6.706
 7486TIP3    H122422   2.353   1.302   6.765
 7486TIP3    H222423   2.372   1.338   6.618
 7487TIP3   OH222424   2.111   1.106   6.602
 7487TIP3    H122425   2.146   1.057   6.678
 7487TIP3    H222426   2.021   1.068   6.596
 7488TIP3   OH222427   2.442   1.578   6.408
 7488TIP3    H122428   2.477   1.652   6.355
 7488TIP3    H222429   2.365   1.623   6.448
 7489TIP3   OH222430   1.641   1.293   6.516
 7489TIP3    H122431   1.603   1.230   6.578
 7489TIP3    H222432   1.716   1.243   6.479
 7490TIP3   OH222433   2.071   1.333   6.430
 7490TIP3    H122434   2.120   1.275   6.491
 7490TIP3    H222435   2.126   1.331   6.349
 7491TIP3   OH222436   1.814   1.029   6.574
 7491TIP3    H122437   1.761   1.017   6.654
 7491TIP3    H222438   1.818   0.935   6.543
 7492TIP3   OH222439   2.403   0.836   6.459
 7492TIP3    H122440   2.381   0.795   6.373
 7492TIP3    H222441   2.370   0.927   6.441
 7493TIP3   OH222442   1.409   1.590   6.708
 7493TIP3    H122443   1.501   1.569   6.684
 7493TIP3    H222444   1.382   1.638   6.628
 7494TIP3   OH222445   2.621   0.797   6.612
 7494TIP3    H122446   2.549   0.810   6.547
 7494TIP3    H222447   2.575   0.823   6.694
 7495TIP3   OH222448   2.515   0.438   6.590
 7495TIP3    H122449   2.492   0.529   6.566
 7495TIP3    H222450   2.438   0.391   6.556
 7496TIP3   OH222451   1.663   1.549   6.622
 7496TIP3    H122452   1.759   1.559   6.604
 7496TIP3    H222453   1.648   1.462   6.578
 7497TIP3   OH222454   2.439   1.651   6.708
 7497TIP3    H122455   2.400   1.564   6.734
 7497TIP3    H222456   2.372   1.682   6.645
 7498TIP3   OH222457   3.879   1.168   6.697
 7498TIP3    H122458   3.852   1.259   6.676
 7498TIP3    H222459   3.802   1.118   6.665
 7499TIP3   OH222460   4.125   1.470   6.770
 7499TIP3    H122461   4.122   1.404   6.841
 7499TIP3    H222462   4.155   1.549   6.819
 7500TIP3   OH222463   3.774   1.932   6.781
 7500TIP3    H122464   3.817   1.858   6.735
 7500TIP3    H222465   3.769   1.900   6.872
 7501TIP3   OH222466   4.711   0.743   7.085
 7501TIP3    H122467   4.663   0.793   7.152
 7501TIP3    H222468   4.719   0.810   7.015
 7502TIP3   OH222469   4.124   0.659   6.756
 7502TIP3    H122470   4.189   0.607   6.806
 7502TIP3    H222471   4.159   0.657   6.666
 7503TIP3   OH222472   3.769   1.388   6.565
 7503TIP3    H122473   3.726   1.376   6.479
 7503TIP3    H222474   3.724   1.470   6.597
 7504TIP3   OH222475   2.765   1.174   6.690
 7504TIP3    H122476   2.706   1.214   6.624
 7504TIP3    H222477   2.735   1.215   6.774
 7505TIP3   OH222478   4.188   1.711   6.922
 7505TIP3    H122479   4.105   1.700   6.974
 7505TIP3    H222480   4.177   1.802   6.888
 7506TIP3   OH222481   3.891   1.754   6.599
 7506TIP3    H122482   3.944   1.672   6.583
 7506TIP3    H222483   3.954   1.820   6.563
 7507TIP3   OH222484   4.039   1.538   6.517
 7507TIP3    H122485   3.986   1.461   6.492
 7507TIP3    H222486   4.079   1.507   6.602
 7508TIP3   OH222487   4.451   1.619   7.273
 7508TIP3    H122488   4.422   1.541   7.222
 7508TIP3    H222489   4.426   1.691   7.212
 7509TIP3   OH222490   3.709   1.019   6.533
 7509TIP3    H122491   3.630   1.073   6.512
 7509TIP3    H222492   3.755   1.018   6.447
 7510TIP3   OH222493   3.666   0.803   6.250
 7510TIP3    H122494   3.732   0.857   6.296
 7510TIP3    H222495   3.725   0.747   6.195
 7511TIP3   OH222496   4.622   1.293   7.108
 7511TIP3    H122497   4.529   1.327   7.109
 7511TIP3    H222498   4.647   1.308   7.014
 7512TIP3   OH222499   4.059   1.100   6.503
 7512TIP3    H122500   4.005   1.125   6.581
 7512TIP3    H222501   4.145   1.079   6.546
 7513TIP3   OH222502   3.362   1.059   6.872
 7513TIP3    H122503   3.283   1.022   6.825
 7513TIP3    H222504   3.388   0.986   6.927
 7514TIP3   OH222505   3.463   1.544   7.013
 7514TIP3    H122506   3.431   1.487   6.942
 7514TIP3    H222507   3.499   1.483   7.078
 7515TIP3   OH222508   3.959   1.702   7.069
 7515TIP3    H122509   3.943   1.799   7.076
 7515TIP3    H222510   3.932   1.673   7.158
 7516TIP3   OH222511   3.897   0.955   6.332
 7516TIP3    H122512   3.955   1.018   6.381
 7516TIP3    H222513   3.925   0.974   6.239
 7517TIP3   OH222514   3.644   1.633   6.606
 7517TIP3    H122515   3.727   1.684   6.613
 7517TIP3    H222516   3.585   1.696   6.563
 7518TIP3   OH222517   3.145   0.940   6.746
 7518TIP3    H122518   3.087   0.990   6.684
 7518TIP3    H222519   3.125   0.850   6.721
 7519TIP3   OH222520   4.214   1.563   5.926
 7519TIP3    H122521   4.221   1.660   5.914
 7519TIP3    H222522   4.307   1.536   5.915
 7520TIP3   OH222523   4.659   1.996   7.283
 7520TIP3    H122524   4.653   1.901   7.307
 7520TIP3    H222525   4.590   2.032   7.341
 7521TIP3   OH222526   3.528   1.880   6.410
 7521TIP3    H122527   3.478   1.866   6.327
 7521TIP3    H222528   3.493   1.966   6.441
 7522TIP3   OH222529   2.974   1.736   6.800
 7522TIP3    H122530   3.003   1.730   6.891
 7522TIP3    H222531   2.913   1.660   6.792
 7523TIP3   OH222532   3.724   1.785   6.046
 7523TIP3    H122533   3.783   1.715   6.012
 7523TIP3    H222534   3.758   1.797   6.138
 7524TIP3   OH222535   3.777   1.832   6.315
 7524TIP3    H122536   3.688   1.843   6.356
 7524TIP3    H222537   3.828   1.799   6.391
 7525TIP3   OH222538   3.981   0.990   6.078
 7525TIP3    H122539   3.939   0.974   5.991
 7525TIP3    H222540   4.055   1.048   6.052
 7526TIP3   OH222541   3.835   0.811   6.660
 7526TIP3    H122542   3.793   0.888   6.617
 7526TIP3    H222543   3.902   0.783   6.593
 7527TIP3   OH222544   3.992   0.852   6.898
 7527TIP3    H122545   3.937   0.883   6.826
 7527TIP3    H222546   4.040   0.779   6.853
 7528TIP3   OH222547   3.324   0.371   6.382
 7528TIP3    H122548   3.293   0.367   6.473
 7528TIP3    H222549   3.256   0.428   6.341
 7529TIP3   OH222550   2.824   0.367   6.659
 7529TIP3    H122551   2.867   0.425   6.593
 7529TIP3    H222552   2.730   0.380   6.633
 7530TIP3   OH222553   3.415   0.636   6.718
 7530TIP3    H122554   3.475   0.592   6.655
 7530TIP3    H222555   3.336   0.646   6.659
 7531TIP3   OH222556   3.232   0.656   6.494
 7531TIP3    H122557   3.157   0.619   6.444
 7531TIP3    H222558   3.289   0.684   6.418
 7532TIP3   OH222559   4.330   2.380   7.403
 7532TIP3    H122560   4.313   2.363   7.309
 7532TIP3    H222561   4.422   2.412   7.401
 7533TIP3   OH222562   3.481   1.166   6.473
 7533TIP3    H122563   3.408   1.101   6.467
 7533TIP3    H222564   3.463   1.208   6.561
 7534TIP3   OH222565   4.377   1.417   7.107
 7534TIP3    H122566   4.396   1.472   7.028
 7534TIP3    H222567   4.294   1.371   7.079
 7535TIP3   OH222568   3.932   0.512   6.301
 7535TIP3    H122569   3.862   0.463   6.347
 7535TIP3    H222570   3.957   0.580   6.366
 7536TIP3   OH222571   4.008   0.729   6.456
 7536TIP3    H122572   4.104   0.739   6.471
 7536TIP3    H222573   3.986   0.810   6.405
 7537TIP3   OH222574   3.629   1.321   6.305
 7537TIP3    H122575   3.577   1.406   6.307
 7537TIP3    H222576   3.573   1.265   6.363
 7538TIP3   OH222577   4.441   0.823   6.284
 7538TIP3    H122578   4.388   0.775   6.216
 7538TIP3    H222579   4.432   0.914   6.247
 7539TIP3   OH222580   4.153   1.641   6.195
 7539TIP3    H122581   4.121   1.577   6.260
 7539TIP3    H222582   4.161   1.589   6.113
 7540TIP3   OH222583   4.160   1.282   7.001
 7540TIP3    H122584   4.081   1.259   7.052
 7540TIP3    H222585   4.183   1.195   6.960
 7541TIP3   OH222586   3.257   1.484   6.785
 7541TIP3    H122587   3.287   1.568   6.744
 7541TIP3    H222588   3.164   1.488   6.764
 7542TIP3   OH222589   2.855   0.820   6.476
 7542TIP3    H122590   2.894   0.906   6.503
 7542TIP3    H222591   2.772   0.819   6.529
 7543TIP3   OH222592   3.420   1.271   6.711
 7543TIP3    H122593   3.366   1.346   6.744
 7543TIP3    H222594   3.409   1.203   6.781
 7544TIP3   OH222595   3.195   1.736   6.631
 7544TIP3    H122596   3.112   1.752   6.681
 7544TIP3    H222597   3.233   1.827   6.633
 7545TIP3   OH222598   3.909   1.369   6.094
 7545TIP3    H122599   3.962   1.342   6.173
 7545TIP3    H222600   3.820   1.342   6.121
 7546TIP3   OH222601   4.187   1.983   7.230
 7546TIP3    H122602   4.109   1.979   7.287
 7546TIP3    H222603   4.172   2.066   7.182
 7547TIP3   OH222604   4.244   1.840   5.911
 7547TIP3    H122605   4.277   1.916   5.862
 7547TIP3    H222606   4.164   1.880   5.950
 7548TIP3   OH222607   4.071   1.292   6.302
 7548TIP3    H122608   4.060   1.233   6.379
 7548TIP3    H222609   4.168   1.293   6.295
 7549TIP3   OH222610   3.271   1.346   6.095
 7549TIP3    H122611   3.282   1.253   6.070
 7549TIP3    H222612   3.249   1.338   6.190
 7550TIP3   OH222613   3.215   1.353   6.368
 7550TIP3    H122614   3.294   1.330   6.418
 7550TIP3    H222615   3.216   1.451   6.373
 7551TIP3   OH222616   2.970   1.051   6.566
 7551TIP3    H122617   2.896   1.094   6.616
 7551TIP3    H222618   2.977   1.115   6.492
 7552TIP3   OH222619   3.482   1.547   6.313
 7552TIP3    H122620   3.395   1.571   6.350
 7552TIP3    H222621   3.499   1.626   6.258
 7553TIP3   OH222622   3.703   0.596   6.761
 7553TIP3    H122623   3.764   0.654   6.709
 7553TIP3    H222624   3.622   0.648   6.759
 7554TIP3   OH222625   3.229   1.623   6.385
 7554TIP3    H122626   3.200   1.694   6.322
 7554TIP3    H222627   3.214   1.668   6.471
 7555TIP3   OH222628   4.218   1.030   6.900
 7555TIP3    H122629   4.144   0.969   6.921
 7555TIP3    H222630   4.294   0.988   6.949
 7556TIP3   OH222631   2.945   1.248   6.371
 7556TIP3    H122632   3.015   1.316   6.378
 7556TIP3    H222633   2.987   1.191   6.302
 7557TIP3   OH222634   2.895   0.554   6.482
 7557TIP3    H122635   2.901   0.651   6.492
 7557TIP3    H222636   2.830   0.549   6.410
 7558TIP3   OH222637   4.200   1.984   6.851
 7558TIP3    H122638   4.157   2.031   6.776
 7558TIP3    H222639   4.295   2.002   6.831
 7559TIP3   OH222640   2.804   1.518   6.770
 7559TIP3    H122641   2.717   1.559   6.756
 7559TIP3    H222642   2.824   1.498   6.677
 7560TIP3   OH222643   3.433   1.548   6.002
 7560TIP3    H122644   3.377   1.477   6.041
 7560TIP3    H222645   3.509   1.496   5.970
 7561TIP3   OH222646   3.870   1.587   5.920
 7561TIP3    H122647   3.908   1.521   5.981
 7561TIP3    H222648   3.928   1.581   5.842
 7562TIP3   OH222649   3.081   1.062   6.230
 7562TIP3    H122650   3.139   1.034   6.302
 7562TIP3    H222651   3.147   1.069   6.157
 7563TIP3   OH222652   3.600   1.269   6.037
 7563TIP3    H122653   3.600   1.281   6.134
 7563TIP3    H222654   3.602   1.171   6.031
 7564TIP3   OH222655   3.289   0.969   6.448
 7564TIP3    H122656   3.259   0.916   6.522
 7564TIP3    H222657   3.330   0.901   6.390
 7565TIP3   OH222658   3.390   0.767   6.291
 7565TIP3    H122659   3.364   0.773   6.197
 7565TIP3    H222660   3.488   0.767   6.283
 7566TIP3   OH222661   4.213   1.093   5.953
 7566TIP3    H122662   4.187   1.053   5.868
 7566TIP3    H222663   4.178   1.185   5.938
 7567TIP3   OH222664   3.199   1.825   6.197
 7567TIP3    H122665   3.294   1.817   6.177
 7567TIP3    H222666   3.170   1.879   6.121
 7568TIP3   OH222667   2.673   1.211   6.400
 7568TIP3    H122668   2.768   1.231   6.393
 7568TIP3    H222669   2.669   1.120   6.362
 7569TIP3   OH222670   2.626   1.804   6.829
 7569TIP3    H122671   2.563   1.775   6.759
 7569TIP3    H222672   2.611   1.731   6.891
 7570TIP3   OH222673   4.458   2.068   6.811
 7570TIP3    H122674   4.476   2.098   6.902
 7570TIP3    H222675   4.520   2.121   6.760
 7571TIP3   OH222676   4.481   2.091   7.086
 7571TIP3    H122677   4.435   2.004   7.086
 7571TIP3    H222678   4.562   2.066   7.134
 7572TIP3   OH222679   4.350   1.278   6.285
 7572TIP3    H122680   4.414   1.347   6.256
 7572TIP3    H222681   4.393   1.244   6.366
 7573TIP3   OH222682   4.473   1.147   6.490
 7573TIP3    H122683   4.408   1.109   6.553
 7573TIP3    H222684   4.542   1.184   6.550
 7574TIP3   OH222685   4.535   1.552   6.922
 7574TIP3    H122686   4.588   1.482   6.878
 7574TIP3    H222687   4.529   1.620   6.852
 7575TIP3   OH222688   4.372   1.831   7.106
 7575TIP3    H122689   4.299   1.877   7.154
 7575TIP3    H222690   4.321   1.786   7.035
 7576TIP3   OH222691   4.408   1.054   6.137
 7576TIP3    H122692   4.338   1.064   6.068
 7576TIP3    H222693   4.384   1.130   6.194
 7577TIP3   OH222694   4.291   0.718   6.076
 7577TIP3    H122695   4.239   0.790   6.037
 7577TIP3    H222696   4.236   0.642   6.054
 7578TIP3   OH222697   4.284   1.009   6.636
 7578TIP3    H122698   4.287   0.912   6.633
 7578TIP3    H222699   4.265   1.025   6.731
 7579TIP3   OH222700   4.285   0.718   6.524
 7579TIP3    H122701   4.331   0.638   6.555
 7579TIP3    H222702   4.348   0.753   6.460
 7580TIP3   OH222703   4.442   0.914   7.010
 7580TIP3    H122704   4.519   0.924   6.952
 7580TIP3    H222705   4.482   0.946   7.094
 7581TIP3   OH222706   4.038   1.939   6.468
 7581TIP3    H122707   4.093   1.935   6.387
 7581TIP3    H222708   4.085   2.005   6.521
 7582TIP3   OH222709   3.659   2.066   7.082
 7582TIP3    H122710   3.591   2.060   7.012
 7582TIP3    H222711   3.639   2.151   7.123
 7583TIP3   OH222712   3.914   1.965   7.097
 7583TIP3    H122713   3.824   2.003   7.102
 7583TIP3    H222714   3.970   2.043   7.097
 7584TIP3   OH222715   4.132   2.178   7.043
 7584TIP3    H122716   4.110   2.258   6.991
 7584TIP3    H222717   4.151   2.112   6.973
 7585TIP3   OH222718   3.383   1.807   7.009
 7585TIP3    H122719   3.419   1.720   6.983
 7585TIP3    H222720   3.365   1.790   7.102
 7586TIP3   OH222721   2.692   1.602   6.532
 7586TIP3    H122722   2.601   1.570   6.516
 7586TIP3    H222723   2.679   1.695   6.506
 7587TIP3   OH222724   3.465   1.781   6.144
 7587TIP3    H122725   3.553   1.805   6.107
 7587TIP3    H222726   3.443   1.707   6.082
 7588TIP3   OH222727   4.188   1.908   6.237
 7588TIP3    H122728   4.180   1.810   6.228
 7588TIP3    H222729   4.137   1.938   6.158
 7589TIP3   OH222730   2.766   1.620   6.195
 7589TIP3    H122731   2.766   1.638   6.290
 7589TIP3    H222732   2.854   1.578   6.182
 7590TIP3   OH222733   5.678   1.424   6.189
 7590TIP3    H122734   5.648   1.514   6.168
 7590TIP3    H222735   5.603   1.372   6.156
 7591TIP3   OH222736   5.664   1.402   6.575
 7591TIP3    H122737   5.662   1.348   6.655
 7591TIP3    H222738   5.632   1.338   6.510
 7592TIP3   OH222739   4.970   1.327   6.932
 7592TIP3    H122740   4.987   1.255   6.995
 7592TIP3    H222741   5.060   1.347   6.902
 7593TIP3   OH222742   5.920   1.730   6.255
 7593TIP3    H122743   5.904   1.667   6.327
 7593TIP3    H222744   5.953   1.807   6.304
 7594TIP3   OH222745   4.948   1.726   6.652
 7594TIP3    H122746   4.939   1.629   6.655
 7594TIP3    H222747   5.044   1.736   6.654
 7595TIP3   OH222748   4.646   0.920   6.443
 7595TIP3    H122749   4.606   1.005   6.468
 7595TIP3    H222750   4.573   0.879   6.395
 7596TIP3   OH222751   4.711   1.217   6.607
 7596TIP3    H122752   4.761   1.139   6.641
 7596TIP3    H222753   4.778   1.260   6.553
 7597TIP3   OH222754   5.570   2.184   6.271
 7597TIP3    H122755   5.613   2.111   6.221
 7597TIP3    H222756   5.569   2.148   6.361
 7598TIP3   OH222757   5.474   1.651   6.619
 7598TIP3    H122758   5.514   1.571   6.582
 7598TIP3    H222759   5.556   1.698   6.645
 7599TIP3   OH222760   5.924   1.172   6.616
 7599TIP3    H122761   5.928   1.100   6.681
 7599TIP3    H222762   5.865   1.134   6.548
 7600TIP3   OH222763   5.204   0.807   6.620
 7600TIP3    H122764   5.177   0.872   6.552
 7600TIP3    H222765   5.154   0.728   6.593
 7601TIP3   OH222766   5.927   0.930   6.245
 7601TIP3    H122767   5.944   0.849   6.298
 7601TIP3    H222768   5.982   0.916   6.166
 7602TIP3   OH222769   4.860   1.015   6.701
 7602TIP3    H122770   4.940   1.001   6.759
 7602TIP3    H222771   4.884   0.956   6.627
 7603TIP3   OH222772   5.292   1.210   6.522
 7603TIP3    H122773   5.387   1.185   6.528
 7603TIP3    H222774   5.252   1.125   6.493
 7604TIP3   OH222775   5.569   1.645   6.054
 7604TIP3    H122776   5.513   1.626   5.978
 7604TIP3    H222777   5.527   1.728   6.087
 7605TIP3   OH222778   5.327   1.569   6.836
 7605TIP3    H122779   5.268   1.639   6.872
 7605TIP3    H222780   5.371   1.616   6.762
 7606TIP3   OH222781   5.081   0.944   6.830
 7606TIP3    H122782   5.160   0.991   6.862
 7606TIP3    H222783   5.120   0.875   6.773
 7607TIP3   OH222784   5.155   1.766   6.937
 7607TIP3    H122785   5.132   1.856   6.904
 7607TIP3    H222786   5.074   1.746   6.988
 7608TIP3   OH222787   4.547   1.454   6.176
 7608TIP3    H122788   4.505   1.487   6.095
 7608TIP3    H222789   4.580   1.537   6.216
 7609TIP3   OH222790   5.978   1.967   6.401
 7609TIP3    H122791   5.891   1.958   6.446
 7609TIP3    H222792   5.973   2.061   6.374
 7610TIP3   OH222793   5.686   2.009   6.085
 7610TIP3    H122794   5.740   1.929   6.069
 7610TIP3    H222795   5.748   2.077   6.047
 7611TIP3   OH222796   5.835   1.794   6.004
 7611TIP3    H122797   5.782   1.716   5.985
 7611TIP3    H222798   5.877   1.768   6.089
 7612TIP3   OH222799   5.509   1.278   6.021
 7612TIP3    H122800   5.426   1.326   5.999
 7612TIP3    H222801   5.552   1.270   5.934
 7613TIP3   OH222802   5.461   1.067   5.728
 7613TIP3    H122803   5.528   1.112   5.782
 7613TIP3    H222804   5.519   1.007   5.676
 7614TIP3   OH222805   5.853   1.362   5.985
 7614TIP3    H122806   5.801   1.383   6.066
 7614TIP3    H222807   5.939   1.338   6.025
 7615TIP3   OH222808   5.090   1.356   6.406
 7615TIP3    H122809   5.048   1.296   6.341
 7615TIP3    H222810   5.163   1.300   6.441
 7616TIP3   OH222811   5.220   1.767   6.555
 7616TIP3    H122812   5.200   1.728   6.469
 7616TIP3    H222813   5.309   1.731   6.574
 7617TIP3   OH222814   5.213   1.326   6.766
 7617TIP3    H122815   5.246   1.296   6.679
 7617TIP3    H222816   5.261   1.410   6.779
 7618TIP3   OH222817   5.743   1.962   6.535
 7618TIP3    H122818   5.737   2.045   6.587
 7618TIP3    H222819   5.728   1.893   6.602
 7619TIP3   OH222820   5.362   1.870   7.088
 7619TIP3    H122821   5.300   1.938   7.124
 7619TIP3    H222822   5.299   1.819   7.032
 7620TIP3   OH222823   5.691   1.217   5.818
 7620TIP3    H122824   5.752   1.275   5.869
 7620TIP3    H222825   5.720   1.236   5.725
 7621TIP3   OH222826   5.089   1.459   7.189
 7621TIP3    H122827   5.099   1.546   7.233
 7621TIP3    H222828   5.001   1.464   7.152
 7622TIP3   OH222829   5.441   1.889   6.083
 7622TIP3    H122830   5.526   1.937   6.094
 7622TIP3    H222831   5.381   1.961   6.062
 7623TIP3   OH222832   5.165   2.039   7.156
 7623TIP3    H122833   5.125   2.052   7.067
 7623TIP3    H222834   5.086   2.023   7.212
 7624TIP3   OH222835   4.956   1.202   6.209
 7624TIP3    H122836   4.879   1.236   6.159
 7624TIP3    H222837   4.933   1.109   6.222
 7625TIP3   OH222838   6.018   1.820   5.420
 7625TIP3    H122839   6.025   1.916   5.401
 7625TIP3    H222840   6.111   1.791   5.405
 7626TIP3   OH222841   4.742   1.555   7.119
 7626TIP3    H122842   4.668   1.580   7.061
 7626TIP3    H222843   4.721   1.462   7.134
 7627TIP3   OH222844   4.588   1.777   6.746
 7627TIP3    H122845   4.685   1.773   6.748
 7627TIP3    H222846   4.572   1.853   6.805
 7628TIP3   OH222847   5.560   1.998   6.950
 7628TIP3    H122848   5.550   2.093   6.973
 7628TIP3    H222849   5.490   1.958   7.006
 7629TIP3   OH222850   5.321   2.137   5.911
 7629TIP3    H122851   5.259   2.122   5.839
 7629TIP3    H222852   5.296   2.226   5.942
 7630TIP3   OH222853   4.760   1.986   6.283
 7630TIP3    H122854   4.807   1.980   6.370
 7630TIP3    H222855   4.705   1.905   6.287
 7631TIP3   OH222856   5.569   2.096   5.803
 7631TIP3    H122857   5.482   2.099   5.849
 7631TIP3    H222858   5.627   2.061   5.873
 7632TIP3   OH222859   4.925   1.760   7.091
 7632TIP3    H122860   4.976   1.761   7.175
 7632TIP3    H222861   4.860   1.688   7.108
 7633TIP3   OH222862   5.767   1.273   5.565
 7633TIP3    H122863   5.732   1.240   5.480
 7633TIP3    H222864   5.856   1.302   5.538
 7634TIP3   OH222865   5.282   1.106   6.917
 7634TIP3    H122866   5.244   1.147   6.997
 7634TIP3    H222867   5.270   1.180   6.855
 7635TIP3   OH222868   5.139   0.997   6.431
 7635TIP3    H122869   5.050   0.958   6.437
 7635TIP3    H222870   5.166   0.966   6.341
 7636TIP3   OH222871   5.640   1.075   6.155
 7636TIP3    H122872   5.592   1.146   6.107
 7636TIP3    H222873   5.697   1.037   6.086
 7637TIP3   OH222874   5.783   1.108   6.385
 7637TIP3    H122875   5.712   1.117   6.318
 7637TIP3    H222876   5.834   1.037   6.339
 7638TIP3   OH222877   5.061   1.142   7.114
 7638TIP3    H122878   5.135   1.189   7.156
 7638TIP3    H222879   5.071   1.051   7.144
 7639TIP3   OH222880   5.122   0.615   5.872
 7639TIP3    H122881   5.112   0.642   5.965
 7639TIP3    H222882   5.032   0.627   5.838
 7640TIP3   OH222883   4.679   0.663   6.230
 7640TIP3    H122884   4.707   0.705   6.146
 7640TIP3    H222885   4.608   0.722   6.259
 7641TIP3   OH222886   5.429   0.838   6.457
 7641TIP3    H122887   5.372   0.841   6.536
 7641TIP3    H222888   5.517   0.857   6.496
 7642TIP3   OH222889   4.908   0.851   6.485
 7642TIP3    H122890   4.814   0.869   6.460
 7642TIP3    H222891   4.903   0.755   6.507
 7643TIP3   OH222892   5.193   0.896   6.186
 7643TIP3    H122893   5.285   0.870   6.165
 7643TIP3    H222894   5.146   0.883   6.102
 7644TIP3   OH222895   5.018   0.901   5.956
 7644TIP3    H122896   4.949   0.866   5.897
 7644TIP3    H222897   5.079   0.940   5.889
 7645TIP3   OH222898   6.128   2.567   6.901
 7645TIP3    H122899   6.143   2.597   6.809
 7645TIP3    H222900   6.217   2.572   6.940
 7646TIP3   OH222901   5.115   1.707   7.307
 7646TIP3    H122902   5.188   1.764   7.335
 7646TIP3    H222903   5.066   1.696   7.391
 7647TIP3   OH222904   5.548   1.134   6.575
 7647TIP3    H122905   5.607   1.066   6.538
 7647TIP3    H222906   5.559   1.121   6.671
 7648TIP3   OH222907  -0.215   3.770   1.208
 7648TIP3    H122908  -0.277   3.844   1.227
 7648TIP3    H222909  -0.150   3.775   1.279
 7649TIP3   OH222910   5.277   1.427   5.963
 7649TIP3    H122911   5.206   1.360   5.953
 7649TIP3    H222912   5.257   1.460   6.054
 7650TIP3   OH222913   6.114   1.669   6.638
 7650TIP3    H122914   6.186   1.704   6.582
 7650TIP3    H222915   6.056   1.627   6.572
 7651TIP3   OH222916   5.714   0.769   5.784
 7651TIP3    H122917   5.653   0.723   5.843
 7651TIP3    H222918   5.753   0.836   5.843
 7652TIP3   OH222919   5.715   1.751   6.963
 7652TIP3    H122920   5.688   1.698   7.042
 7652TIP3    H222921   5.653   1.826   6.970
 7653TIP3   OH222922   5.807   0.983   5.934
 7653TIP3    H122923   5.901   0.994   5.958
 7653TIP3    H222924   5.786   1.065   5.886
 7654TIP3   OH222925   4.968   1.448   6.636
 7654TIP3    H122926   5.009   1.420   6.552
 7654TIP3    H222927   5.017   1.395   6.701
 7655TIP3   OH222928   5.415   1.588   5.792
 7655TIP3    H122929   5.358   1.666   5.811
 7655TIP3    H222930   5.372   1.521   5.850
 7656TIP3   OH222931   5.816   2.034   6.832
 7656TIP3    H122932   5.728   2.015   6.869
 7656TIP3    H222933   5.874   1.980   6.888
 7657TIP3   OH222934   6.234   1.080   5.777
 7657TIP3    H122935   6.180   1.032   5.710
 7657TIP3    H222936   6.231   1.169   5.736
 7658TIP3   OH222937   5.932   1.896   5.678
 7658TIP3    H122938   5.930   1.827   5.745
 7658TIP3    H222939   5.959   1.850   5.597
 7659TIP3   OH222940   5.899   1.534   6.487
 7659TIP3    H122941   5.813   1.501   6.520
 7659TIP3    H222942   5.925   1.460   6.429
 7660TIP3   OH222943   5.070   1.752   6.263
 7660TIP3    H122944   5.062   1.836   6.213
 7660TIP3    H222945   4.980   1.739   6.293
 7661TIP3   OH222946   4.633   1.056   5.975
 7661TIP3    H122947   4.680   1.139   5.997
 7661TIP3    H222948   4.559   1.059   6.040
 7662TIP3   OH222949   5.201   1.516   6.205
 7662TIP3    H122950   5.166   1.604   6.228
 7662TIP3    H222951   5.171   1.463   6.281
 7663TIP3   OH222952   5.341   2.098   6.734
 7663TIP3    H122953   5.383   2.172   6.686
 7663TIP3    H222954   5.417   2.060   6.780
 7664TIP3   OH222955   4.985   1.995   6.118
 7664TIP3    H122956   4.901   2.003   6.169
 7664TIP3    H222957   5.018   2.087   6.124
 7665TIP3   OH222958   5.726   1.729   6.692
 7665TIP3    H122959   5.731   1.731   6.791
 7665TIP3    H222960   5.811   1.689   6.669
 7666TIP3   OH222961   5.662   1.605   5.626
 7666TIP3    H122962   5.747   1.624   5.674
 7666TIP3    H222963   5.660   1.510   5.647
 7667TIP3   OH222964   5.938   2.283   6.760
 7667TIP3    H122965   5.876   2.207   6.750
 7667TIP3    H222966   5.932   2.325   6.672
 7668TIP3   OH222967   6.044   2.097   5.400
 7668TIP3    H122968   6.085   2.172   5.354
 7668TIP3    H222969   5.962   2.141   5.431
 7669TIP3   OH222970   5.866   1.555   5.787
 7669TIP3    H122971   5.857   1.494   5.861
 7669TIP3    H222972   5.964   1.552   5.774
 7670TIP3   OH222973   4.780   1.955   6.895
 7670TIP3    H122974   4.833   1.888   6.942
 7670TIP3    H222975   4.804   2.036   6.943
 7671TIP3   OH222976   5.058   1.606   5.572
 7671TIP3    H122977   5.069   1.512   5.549
 7671TIP3    H222978   5.046   1.601   5.669
 7672TIP3   OH222979   5.015   1.607   5.845
 7672TIP3    H122980   5.077   1.575   5.912
 7672TIP3    H222981   5.016   1.704   5.861
 7673TIP3   OH222982   4.740   1.298   6.056
 7673TIP3    H122983   4.675   1.344   6.114
 7673TIP3    H222984   4.754   1.367   5.989
 7674TIP3   OH222985   5.284   1.813   5.783
 7674TIP3    H122986   5.199   1.825   5.829
 7674TIP3    H222987   5.293   1.900   5.739
 7675TIP3   OH222988   5.471   0.858   6.190
 7675TIP3    H122989   5.534   0.932   6.189
 7675TIP3    H222990   5.453   0.850   6.287
 7676TIP3   OH222991   5.033   1.876   5.875
 7676TIP3    H122992   5.002   1.943   5.811
 7676TIP3    H222993   5.012   1.919   5.961
 7677TIP3   OH222994   5.993   1.292   6.374
 7677TIP3    H122995   5.911   1.238   6.379
 7677TIP3    H222996   6.023   1.285   6.466
 7678TIP3   OH222997   4.743   1.503   5.860
 7678TIP3    H122998   4.812   1.571   5.871
 7678TIP3    H222999   4.788   1.446   5.794
 7679TIP3   OH223000   4.674   0.783   5.982
 7679TIP3    H123001   4.694   0.878   5.974
 7679TIP3    H223002   4.578   0.784   5.981
 7680TIP3   OH223003   5.995   2.241   6.334
 7680TIP3    H123004   5.954   2.290   6.260
 7680TIP3    H223005   6.090   2.251   6.313
 7681TIP3   OH223006   4.602   1.718   6.243
 7681TIP3    H123007   4.548   1.751   6.316
 7681TIP3    H223008   4.564   1.766   6.165
 7682TIP3   OH223009   4.773   2.267   7.276
 7682TIP3    H123010   4.863   2.264   7.318
 7682TIP3    H223011   4.756   2.172   7.264
 7683TIP3   OH223012   5.256   2.251   7.297
 7683TIP3    H123013   5.332   2.222   7.349
 7683TIP3    H223014   5.234   2.170   7.246
 7684TIP3   OH223015   4.880   1.318   5.717
 7684TIP3    H123016   4.935   1.288   5.792
 7684TIP3    H223017   4.949   1.326   5.647
 7685TIP3   OH223018   5.432   1.769   7.332
 7685TIP3    H123019   5.413   1.790   7.238
 7685TIP3    H223020   5.439   1.673   7.329
 7686TIP3   OH223021   5.390   1.538   5.523
 7686TIP3    H123022   5.342   1.508   5.601
 7686TIP3    H223023   5.410   1.451   5.483
 7687TIP3   OH223024   5.081   1.232   5.933
 7687TIP3    H123025   5.057   1.196   6.020
 7687TIP3    H223026   5.120   1.154   5.888
 7688TIP3   OH223027   5.293   1.298   7.124
 7688TIP3    H123028   5.224   1.367   7.139
 7688TIP3    H223029   5.361   1.351   7.075
 7689TIP3   OH223030   5.186   1.026   5.776
 7689TIP3    H123031   5.164   1.032   5.681
 7689TIP3    H223032   5.284   1.023   5.772
 7690TIP3   OH223033   6.001   1.349   5.445
 7690TIP3    H123034   5.984   1.310   5.356
 7690TIP3    H223035   5.969   1.440   5.428
 7691TIP3   OH223036   5.495   1.411   6.987
 7691TIP3    H123037   5.563   1.377   6.927
 7691TIP3    H223038   5.453   1.480   6.933
 7692TIP3   OH223039   5.003   2.078   5.680
 7692TIP3    H123040   5.059   2.156   5.691
 7692TIP3    H223041   4.951   2.105   5.602
 7693TIP3   OH223042   4.472   1.470   5.891
 7693TIP3    H123043   4.568   1.489   5.881
 7693TIP3    H223044   4.467   1.379   5.854
 7694TIP3   OH223045   4.394   2.077   6.314
 7694TIP3    H123046   4.326   2.017   6.275
 7694TIP3    H223047   4.436   2.016   6.379
 7695TIP3   OH223048   4.527   1.919   6.499
 7695TIP3    H123049   4.513   1.854   6.570
 7695TIP3    H223050   4.578   1.986   6.550
 7696TIP3   OH223051   6.262   2.313   6.294
 7696TIP3    H123052   6.266   2.338   6.389
 7696TIP3    H223053   6.281   2.398   6.252
 7697TIP3   OH223054   6.266   2.359   6.564
 7697TIP3    H123055   6.223   2.271   6.577
 7697TIP3    H223056   6.348   2.346   6.617
 7698TIP3   OH223057   6.138   1.542   5.767
 7698TIP3    H123058   6.205   1.607   5.737
 7698TIP3    H223059   6.181   1.507   5.848
 7699TIP3   OH223060   6.262   1.415   5.974
 7699TIP3    H123061   6.200   1.371   6.036
 7699TIP3    H223062   6.329   1.453   6.033
 7700TIP3   OH223063   6.301   1.774   6.394
 7700TIP3    H123064   6.374   1.735   6.344
 7700TIP3    H223065   6.280   1.852   6.340
 7701TIP3   OH223066   6.155   2.111   6.588
 7701TIP3    H123067   6.112   2.091   6.672
 7701TIP3    H223068   6.119   2.041   6.530
 7702TIP3   OH223069   6.203   1.313   5.625
 7702TIP3    H123070   6.134   1.319   5.556
 7702TIP3    H223071   6.177   1.390   5.680
 7703TIP3   OH223072   6.075   0.972   5.577
 7703TIP3    H123073   6.053   1.042   5.515
 7703TIP3    H223074   6.032   0.897   5.534
 7704TIP3   OH223075   6.077   1.264   6.116
 7704TIP3    H123076   6.078   1.167   6.109
 7704TIP3    H223077   6.052   1.278   6.211
 7705TIP3   OH223078   4.707   1.348   6.854
 7705TIP3    H123079   4.708   1.310   6.764
 7705TIP3    H223080   4.803   1.351   6.874
 7706TIP3   OH223081   6.085   0.978   6.007
 7706TIP3    H123082   6.119   0.887   6.012
 7706TIP3    H223083   6.146   1.017   5.941
 7707TIP3   OH223084   4.694   0.969   6.918
 7707TIP3    H123085   4.751   0.990   6.842
 7707TIP3    H223086   4.716   1.040   6.980
 7708TIP3   OH223087   5.828   2.198   5.953
 7708TIP3    H123088   5.883   2.192   5.872
 7708TIP3    H223089   5.878   2.262   6.007
 7709TIP3   OH223090   4.941   1.996   7.302
 7709TIP3    H123091   4.847   1.980   7.284
 7709TIP3    H223092   4.945   1.983   7.398
 7710TIP3   OH223093   5.115   2.035   6.880
 7710TIP3    H123094   5.067   2.112   6.843
 7710TIP3    H223095   5.201   2.051   6.836
 7711TIP3   OH223096   5.547   2.269   7.005
 7711TIP3    H123097   5.588   2.277   7.094
 7711TIP3    H223098   5.609   2.325   6.953
 7712TIP3   OH223099   5.734   2.434   6.888
 7712TIP3    H123100   5.804   2.385   6.840
 7712TIP3    H223101   5.787   2.483   6.953
 7713TIP3   OH223102   4.789   2.287   6.917
 7713TIP3    H123103   4.698   2.317   6.895
 7713TIP3    H223104   4.809   2.348   6.991
 7714TIP3   OH223105   5.022   2.268   6.771
 7714TIP3    H123106   4.935   2.279   6.816
 7714TIP3    H223107   5.003   2.301   6.681
 7715TIP3   OH223108   5.444   2.298   6.568
 7715TIP3    H123109   5.373   2.318   6.505
 7715TIP3    H223110   5.456   2.384   6.613
 7716TIP3   OH223111   5.710   2.231   6.602
 7716TIP3    H123112   5.616   2.257   6.590
 7716TIP3    H223113   5.757   2.310   6.571
 7717TIP3   OH223114   5.916   2.423   6.527
 7717TIP3    H123115   5.911   2.507   6.478
 7717TIP3    H223116   5.949   2.361   6.458
 7718TIP3   OH223117   4.702   2.083   6.653
 7718TIP3    H123118   4.724   2.053   6.744
 7718TIP3    H223119   4.775   2.038   6.604
 7719TIP3   OH223120   4.898   1.955   6.515
 7719TIP3    H123121   4.911   1.871   6.567
 7719TIP3    H223122   4.990   1.990   6.515
 7720TIP3   OH223123   5.164   2.044   6.522
 7720TIP3    H123124   5.194   1.952   6.517
 7720TIP3    H223125   5.212   2.072   6.602
 7721TIP3   OH223126   4.489   1.860   6.041
 7721TIP3    H123127   4.402   1.829   6.011
 7721TIP3    H223128   4.481   1.954   6.020
 7722TIP3   OH223129   5.283   2.027   5.611
 7722TIP3    H123130   5.330   2.101   5.569
 7722TIP3    H223131   5.199   2.024   5.563
 7723TIP3   OH223132   5.977   2.162   5.722
 7723TIP3    H123133   5.964   2.064   5.713
 7723TIP3    H223134   5.934   2.193   5.641
 7724TIP3   OH223135   4.564   1.878   5.684
 7724TIP3    H123136   4.557   1.898   5.779
 7724TIP3    H223137   4.652   1.836   5.677
 7725TIP3   OH223138   6.155   2.268   6.915
 7725TIP3    H123139   6.082   2.270   6.849
 7725TIP3    H223140   6.188   2.358   6.904
 7726TIP3   OH223141   6.426   1.192   5.956
 7726TIP3    H123142   6.370   1.271   5.950
 7726TIP3    H223143   6.380   1.131   5.896
 7727TIP3   OH223144   6.536   1.455   6.065
 7727TIP3    H123145   6.536   1.363   6.095
 7727TIP3    H223146   6.585   1.447   5.982
 7728TIP3   OH223147   7.372   2.420   5.723
 7728TIP3    H123148   7.455   2.407   5.672
 7728TIP3    H223149   7.406   2.476   5.795
 7729TIP3   OH223150   7.420   1.949   5.498
 7729TIP3    H123151   7.390   1.884   5.432
 7729TIP3    H223152   7.342   2.006   5.507
 7730TIP3   OH223153   6.335   1.714   5.664
 7730TIP3    H123154   6.301   1.743   5.577
 7730TIP3    H223155   6.372   1.798   5.699
 7731TIP3   OH223156   7.260   1.302   5.210
 7731TIP3    H123157   7.315   1.360   5.266
 7731TIP3    H223158   7.291   1.214   5.238
 7732TIP3   OH223159   7.242   2.190   5.580
 7732TIP3    H123160   7.262   2.277   5.621
 7732TIP3    H223161   7.180   2.216   5.509
 7733TIP3   OH223162   6.724   1.426   5.664
 7733TIP3    H123163   6.675   1.494   5.613
 7733TIP3    H223164   6.654   1.360   5.676
 7734TIP3   OH223165   6.368   2.041   6.233
 7734TIP3    H123166   6.457   2.067   6.261
 7734TIP3    H223167   6.314   2.107   6.280
 7735TIP3   OH223168   7.121   2.393   5.384
 7735TIP3    H123169   7.068   2.381   5.303
 7735TIP3    H223170   7.089   2.480   5.415
 7736TIP3   OH223171   6.552   2.238   5.760
 7736TIP3    H123172   6.569   2.236   5.855
 7736TIP3    H223173   6.502   2.156   5.746
 7737TIP3   OH223174   7.321   2.288   5.023
 7737TIP3    H123175   7.393   2.229   4.997
 7737TIP3    H223176   7.345   2.308   5.116
 7738TIP3   OH223177   7.366   2.334   5.291
 7738TIP3    H123178   7.275   2.351   5.325
 7738TIP3    H223179   7.408   2.301   5.372
 7739TIP3   OH223180   6.905   0.869   5.372
 7739TIP3    H123181   6.893   0.900   5.463
 7739TIP3    H223182   6.847   0.930   5.323
 7740TIP3   OH223183   6.457   0.905   5.720
 7740TIP3    H123184   6.486   0.953   5.639
 7740TIP3    H223185   6.390   0.966   5.752
 7741TIP3   OH223186   6.788   1.175   5.438
 7741TIP3    H123187   6.737   1.133   5.367
 7741TIP3    H223188   6.867   1.203   5.390
 7742TIP3   OH223189   7.044   1.707   5.449
 7742TIP3    H123190   6.993   1.623   5.444
 7742TIP3    H223191   7.044   1.725   5.546
 7743TIP3   OH223192   7.205   1.837   5.273
 7743TIP3    H123193   7.159   1.923   5.281
 7743TIP3    H223194   7.152   1.783   5.336
 7744TIP3   OH223195   6.851   2.017   5.749
 7744TIP3    H123196   6.850   2.102   5.700
 7744TIP3    H223197   6.765   1.981   5.724
 7745TIP3   OH223198   6.428   1.319   5.458
 7745TIP3    H123199   6.471   1.405   5.477
 7745TIP3    H223200   6.355   1.320   5.523
 7746TIP3   OH223201   7.018   1.777   5.712
 7746TIP3    H123202   6.976   1.864   5.725
 7746TIP3    H223203   6.964   1.721   5.772
 7747TIP3   OH223204   6.787   2.254   5.606
 7747TIP3    H123205   6.700   2.267   5.649
 7747TIP3    H223206   6.822   2.346   5.608
 7748TIP3   OH223207   6.557   2.180   6.401
 7748TIP3    H123208   6.521   2.124   6.472
 7748TIP3    H223209   6.596   2.252   6.454
 7749TIP3   OH223210   6.862   1.860   5.070
 7749TIP3    H123211   6.877   1.768   5.043
 7749TIP3    H223212   6.838   1.850   5.164
 7750TIP3   OH223213   6.807   1.863   5.343
 7750TIP3    H123214   6.890   1.830   5.382
 7750TIP3    H223215   6.815   1.960   5.355
 7751TIP3   OH223216   6.526   1.566   5.531
 7751TIP3    H123217   6.463   1.611   5.591
 7751TIP3    H223218   6.540   1.636   5.465
 7752TIP3   OH223219   7.079   2.075   5.301
 7752TIP3    H123220   6.988   2.094   5.332
 7752TIP3    H223221   7.085   2.138   5.228
 7753TIP3   OH223222   6.821   2.137   5.359
 7753TIP3    H123223   6.791   2.206   5.294
 7753TIP3    H223224   6.805   2.184   5.444
 7754TIP3   OH223225   6.539   1.766   5.340
 7754TIP3    H123226   6.615   1.827   5.352
 7754TIP3    H223227   6.581   1.704   5.276
 7755TIP3   OH223228   6.472   1.048   5.488
 7755TIP3    H123229   6.494   1.143   5.484
 7755TIP3    H223230   6.405   1.041   5.418
 7756TIP3   OH223231   6.404   1.979   5.731
 7756TIP3    H123232   6.347   2.010   5.803
 7756TIP3    H223233   6.363   2.023   5.652
 7757TIP3   OH223234   7.029   2.062   4.981
 7757TIP3    H123235   6.977   1.985   5.015
 7757TIP3    H223236   7.104   2.017   4.938
 7758TIP3   OH223237   6.672   1.574   5.204
 7758TIP3    H123238   6.729   1.544   5.278
 7758TIP3    H223239   6.739   1.581   5.133
 7759TIP3   OH223240   7.178   1.772   5.008
 7759TIP3    H123241   7.193   1.790   5.103
 7759TIP3    H223242   7.174   1.674   5.008
 7760TIP3   OH223243   6.877   1.485   5.426
 7760TIP3    H123244   6.841   1.440   5.504
 7760TIP3    H223245   6.914   1.409   5.375
 7761TIP3   OH223246   6.979   1.285   5.263
 7761TIP3    H123247   6.948   1.282   5.170
 7761TIP3    H223248   7.075   1.286   5.250
 7762TIP3   OH223249   6.790   2.334   5.168
 7762TIP3    H123250   6.885   2.331   5.150
 7762TIP3    H223251   6.762   2.392   5.094
 7763TIP3   OH223252   6.272   1.723   5.384
 7763TIP3    H123253   6.366   1.746   5.365
 7763TIP3    H223254   6.266   1.634   5.343
 7764TIP3   OH223255   6.184   2.329   5.804
 7764TIP3    H123256   6.120   2.268   5.762
 7764TIP3    H223257   6.230   2.268   5.866
 7765TIP3   OH223258   6.325   2.175   5.986
 7765TIP3    H123259   6.307   2.110   6.057
 7765TIP3    H223260   6.381   2.237   6.035
 7766TIP3   OH223261   6.581   2.542   6.386
 7766TIP3    H123262   6.493   2.583   6.374
 7766TIP3    H223263   6.586   2.536   6.482
 7767TIP3   OH223264   6.800   2.484   6.231
 7767TIP3    H123265   6.728   2.521   6.286
 7767TIP3    H223266   6.801   2.548   6.157
 7768TIP3   OH223267   6.524   2.332   6.134
 7768TIP3    H123268   6.499   2.303   6.224
 7768TIP3    H223269   6.614   2.366   6.151
 7769TIP3   OH223270   6.965   2.253   6.012
 7769TIP3    H123271   7.049   2.269   5.963
 7769TIP3    H223272   6.954   2.338   6.059
 7770TIP3   OH223273   6.282   2.119   5.537
 7770TIP3    H123274   6.197   2.086   5.501
 7770TIP3    H223275   6.277   2.212   5.508
 7771TIP3   OH223276   7.057   2.297   5.115
 7771TIP3    H123277   7.143   2.321   5.076
 7771TIP3    H223278   7.034   2.221   5.056
 7772TIP3   OH223279   6.359   2.131   5.168
 7772TIP3    H123280   6.369   2.159   5.260
 7772TIP3    H223281   6.446   2.088   5.150
 7773TIP3   OH223282   1.745   2.724   6.830
 7773TIP3    H123283   1.723   2.818   6.833
 7773TIP3    H223284   1.658   2.685   6.810
 7774TIP3   OH223285   1.955   2.999   6.892
 7774TIP3    H123286   1.965   2.938   6.967
 7774TIP3    H223287   1.969   3.086   6.935
 7775TIP3   OH223288   1.592   3.497   6.932
 7775TIP3    H123289   1.637   3.420   6.893
 7775TIP3    H223290   1.615   3.490   7.027
 7776TIP3   OH223291   1.571   2.938   6.739
 7776TIP3    H123292   1.576   2.937   6.642
 7776TIP3    H223293   1.543   3.030   6.754
 7777TIP3   OH223294   1.978   3.243   7.015
 7777TIP3    H123295   1.930   3.212   7.095
 7777TIP3    H223296   1.976   3.340   7.022
 7778TIP3   OH223297   1.727   3.317   6.750
 7778TIP3    H123298   1.775   3.233   6.732
 7778TIP3    H223299   1.795   3.381   6.718
 7779TIP3   OH223300   1.857   3.090   6.658
 7779TIP3    H123301   1.872   3.016   6.597
 7779TIP3    H223302   1.897   3.055   6.741
 7780TIP3   OH223303   1.551   2.579   6.671
 7780TIP3    H123304   1.479   2.640   6.647
 7780TIP3    H223305   1.606   2.579   6.591
 7781TIP3   OH223306   1.508   2.359   6.397
 7781TIP3    H123307   1.572   2.414   6.446
 7781TIP3    H223308   1.570   2.301   6.347
 7782TIP3   OH223309   1.917   2.648   6.639
 7782TIP3    H123310   1.862   2.672   6.717
 7782TIP3    H223311   2.001   2.626   6.685
 7783TIP3   OH223312   1.736   2.518   6.477
 7783TIP3    H123313   1.802   2.573   6.525
 7783TIP3    H223314   1.763   2.535   6.384
 7784TIP3   OH223315   1.483   3.196   6.762
 7784TIP3    H123316   1.567   3.247   6.762
 7784TIP3    H223317   1.426   3.251   6.707
 7785TIP3   OH223318   2.255   1.751   6.527
 7785TIP3    H123319   2.177   1.773   6.581
 7785TIP3    H223320   2.269   1.835   6.478
 7786TIP3   OH223321   2.055   3.122   6.083
 7786TIP3    H123322   2.062   3.218   6.061
 7786TIP3    H223323   2.148   3.093   6.069
 7787TIP3   OH223324   1.367   3.431   6.560
 7787TIP3    H123325   1.327   3.412   6.473
 7787TIP3    H223326   1.332   3.520   6.581
 7788TIP3   OH223327   1.561   3.344   6.214
 7788TIP3    H123328   1.612   3.287   6.153
 7788TIP3    H223329   1.614   3.343   6.295
 7789TIP3   OH223330   1.626   3.395   6.484
 7789TIP3    H123331   1.532   3.401   6.514
 7789TIP3    H223332   1.668   3.354   6.561
 7790TIP3   OH223333   1.816   2.553   6.224
 7790TIP3    H123334   1.778   2.536   6.135
 7790TIP3    H223335   1.899   2.598   6.201
 7791TIP3   OH223336   1.532   1.932   6.536
 7791TIP3    H123337   1.470   1.953   6.607
 7791TIP3    H223338   1.491   1.850   6.501
 7792TIP3   OH223339   1.667   2.360   6.787
 7792TIP3    H123340   1.629   2.437   6.741
 7792TIP3    H223341   1.737   2.332   6.727
 7793TIP3   OH223342   1.184   1.920   6.505
 7793TIP3    H123343   1.171   1.940   6.598
 7793TIP3    H223344   1.110   1.970   6.465
 7794TIP3   OH223345   1.056   2.197   6.623
 7794TIP3    H123346   1.003   2.159   6.551
 7794TIP3    H223347   1.128   2.238   6.571
 7795TIP3   OH223348   1.315   2.734   6.639
 7795TIP3    H123349   1.247   2.663   6.626
 7795TIP3    H223350   1.324   2.736   6.736
 7796TIP3   OH223351   1.780   2.040   6.484
 7796TIP3    H123352   1.686   2.019   6.503
 7796TIP3    H223353   1.787   2.135   6.506
 7797TIP3   OH223354   1.860   2.286   6.589
 7797TIP3    H123355   1.955   2.298   6.613
 7797TIP3    H223356   1.842   2.370   6.542
 7798TIP3   OH223357   1.470   2.876   6.461
 7798TIP3    H123358   1.424   2.964   6.459
 7798TIP3    H223359   1.412   2.828   6.524
 7799TIP3   OH223360   2.286   2.378   6.435
 7799TIP3    H123361   2.224   2.339   6.369
 7799TIP3    H223362   2.286   2.470   6.399
 7800TIP3   OH223363   2.000   3.196   6.347
 7800TIP3    H123364   1.960   3.124   6.398
 7800TIP3    H223365   2.009   3.156   6.258
 7801TIP3   OH223366   0.663   2.364   6.629
 7801TIP3    H123367   0.722   2.441   6.643
 7801TIP3    H223368   0.609   2.370   6.708
 7802TIP3   OH223369   1.020   3.301   6.772
 7802TIP3    H123370   0.942   3.329   6.820
 7802TIP3    H223371   1.075   3.382   6.780
 7803TIP3   OH223372   1.754   2.922   6.248
 7803TIP3    H123373   1.802   2.899   6.330
 7803TIP3    H223374   1.663   2.900   6.271
 7804TIP3   OH223375   2.085   3.397   6.059
 7804TIP3    H123376   2.110   3.466   5.995
 7804TIP3    H223377   2.006   3.440   6.099
 7805TIP3   OH223378   1.914   2.871   6.474
 7805TIP3    H123379   1.905   2.795   6.534
 7805TIP3    H223380   2.010   2.862   6.451
 7806TIP3   OH223381   1.111   2.901   6.245
 7806TIP3    H123382   1.124   2.808   6.220
 7806TIP3    H223383   1.087   2.892   6.339
 7807TIP3   OH223384   1.060   2.908   6.519
 7807TIP3    H123385   1.145   2.886   6.559
 7807TIP3    H223386   1.061   3.007   6.524
 7808TIP3   OH223387   0.783   2.598   6.703
 7808TIP3    H123388   0.784   2.643   6.789
 7808TIP3    H223389   0.787   2.674   6.642
 7809TIP3   OH223390   1.876   2.016   6.746
 7809TIP3    H123391   1.864   2.033   6.650
 7809TIP3    H223392   1.869   2.106   6.782
 7810TIP3   OH223393   1.327   3.105   6.465
 7810TIP3    H123394   1.240   3.134   6.499
 7810TIP3    H223395   1.338   3.167   6.392
 7811TIP3   OH223396   1.072   3.179   6.533
 7811TIP3    H123397   1.044   3.250   6.471
 7811TIP3    H223398   1.053   3.222   6.619
 7812TIP3   OH223399   0.790   2.810   6.528
 7812TIP3    H123400   0.861   2.877   6.532
 7812TIP3    H223401   0.829   2.753   6.458
 7813TIP3   OH223402   2.037   3.531   7.000
 7813TIP3    H123403   2.002   3.584   6.925
 7813TIP3    H223404   2.133   3.545   6.987
 7814TIP3   OH223405   1.275   3.106   6.158
 7814TIP3    H123406   1.223   3.029   6.190
 7814TIP3    H223407   1.350   3.063   6.112
 7815TIP3   OH223408   1.704   3.149   6.069
 7815TIP3    H123409   1.756   3.087   6.123
 7815TIP3    H223410   1.752   3.149   5.984
 7816TIP3   OH223411   0.916   2.622   6.378
 7816TIP3    H123412   0.972   2.596   6.453
 7816TIP3    H223413   0.984   2.628   6.306
 7817TIP3   OH223414   1.441   2.822   6.193
 7817TIP3    H123415   1.442   2.834   6.290
 7817TIP3    H223416   1.438   2.724   6.185
 7818TIP3   OH223417   1.136   2.526   6.603
 7818TIP3    H123418   1.089   2.474   6.669
 7818TIP3    H223419   1.172   2.457   6.544
 7819TIP3   OH223420   1.232   2.321   6.445
 7819TIP3    H123421   1.205   2.331   6.351
 7819TIP3    H223422   1.330   2.323   6.436
 7820TIP3   OH223423   2.049   2.649   6.110
 7820TIP3    H123424   2.030   2.609   6.022
 7820TIP3    H223425   2.016   2.740   6.091
 7821TIP3   OH223426   1.041   3.386   6.355
 7821TIP3    H123427   1.136   3.376   6.333
 7821TIP3    H223428   1.012   3.435   6.275
 7822TIP3   OH223429   0.515   2.770   6.511
 7822TIP3    H123430   0.607   2.791   6.536
 7822TIP3    H223431   0.518   2.673   6.500
 7823TIP3   OH223432   2.299   3.636   6.969
 7823TIP3    H123433   2.335   3.707   7.022
 7823TIP3    H223434   2.345   3.651   6.885
 7824TIP3   OH223435   2.187   2.837   6.437
 7824TIP3    H123436   2.253   2.903   6.406
 7824TIP3    H223437   2.233   2.801   6.517
 7825TIP3   OH223438   2.313   2.706   6.645
 7825TIP3    H123439   2.248   2.665   6.707
 7825TIP3    H223440   2.377   2.746   6.707
 7826TIP3   OH223441   2.355   3.103   7.061
 7826TIP3    H123442   2.428   3.041   7.037
 7826TIP3    H223443   2.362   3.167   6.988
 7827TIP3   OH223444   2.253   2.614   6.287
 7827TIP3    H123445   2.182   2.616   6.219
 7827TIP3    H223446   2.224   2.689   6.343
 7828TIP3   OH223447   2.125   2.286   6.236
 7828TIP3    H123448   2.075   2.324   6.162
 7828TIP3    H223449   2.101   2.191   6.227
 7829TIP3   OH223450   2.131   2.561   6.800
 7829TIP3    H123451   2.130   2.467   6.774
 7829TIP3    H223452   2.115   2.556   6.896
 7830TIP3   OH223453   2.068   2.019   6.219
 7830TIP3    H123454   2.138   1.990   6.280
 7830TIP3    H223455   1.993   1.961   6.241
 7831TIP3   OH223456   2.128   2.299   6.662
 7831TIP3    H123457   2.156   2.206   6.680
 7831TIP3    H223458   2.192   2.323   6.593
 7832TIP3   OH223459   2.220   2.041   6.693
 7832TIP3    H123460   2.286   2.035   6.765
 7832TIP3    H223461   2.169   1.959   6.708
 7833TIP3   OH223462   2.310   1.961   6.355
 7833TIP3    H123463   2.350   1.895   6.295
 7833TIP3    H223464   2.375   2.034   6.353
 7834TIP3   OH223465   1.886   3.501   6.627
 7834TIP3    H123466   1.924   3.483   6.539
 7834TIP3    H223467   1.948   3.567   6.660
 7835TIP3   OH223468   1.946   3.734   7.166
 7835TIP3    H123469   1.959   3.804   7.098
 7835TIP3    H223470   1.968   3.653   7.115
 7836TIP3   OH223471   2.416   2.015   6.873
 7836TIP3    H123472   2.503   2.000   6.833
 7836TIP3    H223473   2.424   2.108   6.903
 7837TIP3   OH223474   2.054   1.814   6.716
 7837TIP3    H123475   1.991   1.888   6.732
 7837TIP3    H223476   2.009   1.742   6.763
 7838TIP3   OH223477   0.579   3.177   6.638
 7838TIP3    H123478   0.496   3.133   6.666
 7838TIP3    H223479   0.546   3.267   6.615
 7839TIP3   OH223480   1.305   3.344   6.296
 7839TIP3    H123481   1.394   3.367   6.261
 7839TIP3    H223482   1.281   3.276   6.229
 7840TIP3   OH223483   2.024   3.464   6.391
 7840TIP3    H123484   2.020   3.366   6.379
 7840TIP3    H223485   1.978   3.494   6.310
 7841TIP3   OH223486   0.618   3.178   6.355
 7841TIP3    H123487   0.621   3.165   6.452
 7841TIP3    H223488   0.703   3.135   6.328
 7842TIP3   OH223489   3.518   2.981   6.334
 7842TIP3    H123490   3.486   3.072   6.313
 7842TIP3    H223491   3.443   2.929   6.302
 7843TIP3   OH223492   3.513   2.983   6.721
 7843TIP3    H123493   3.557   2.962   6.805
 7843TIP3    H223494   3.474   2.898   6.696
 7844TIP3   OH223495   2.815   2.880   7.059
 7844TIP3    H123496   2.831   2.872   7.155
 7844TIP3    H223497   2.904   2.898   7.025
 7845TIP3   OH223498   3.764   3.284   6.405
 7845TIP3    H123499   3.745   3.216   6.472
 7845TIP3    H223500   3.795   3.359   6.459
 7846TIP3   OH223501   2.798   3.292   6.828
 7846TIP3    H123502   2.787   3.195   6.820
 7846TIP3    H223503   2.891   3.299   6.797
 7847TIP3   OH223504   2.500   2.496   6.578
 7847TIP3    H123505   2.448   2.573   6.605
 7847TIP3    H223506   2.429   2.434   6.556
 7848TIP3   OH223507   2.547   2.784   6.764
 7848TIP3    H123508   2.593   2.704   6.799
 7848TIP3    H223509   2.602   2.806   6.687
 7849TIP3   OH223510   3.417   3.747   6.423
 7849TIP3    H123511   3.455   3.676   6.367
 7849TIP3    H223512   3.403   3.699   6.506
 7850TIP3   OH223513   3.313   3.207   6.773
 7850TIP3    H123514   3.352   3.130   6.727
 7850TIP3    H223515   3.397   3.253   6.795
 7851TIP3   OH223516   4.331   2.526   6.767
 7851TIP3    H123517   4.360   2.607   6.814
 7851TIP3    H223518   4.353   2.548   6.675
 7852TIP3   OH223519   3.730   2.704   6.795
 7852TIP3    H123520   3.771   2.617   6.814
 7852TIP3    H223521   3.694   2.687   6.705
 7853TIP3   OH223522   3.077   2.364   6.759
 7853TIP3    H123523   3.054   2.436   6.696
 7853TIP3    H223524   3.024   2.291   6.721
 7854TIP3   OH223525   3.764   2.459   6.385
 7854TIP3    H123526   3.835   2.444   6.452
 7854TIP3    H223527   3.818   2.494   6.311
 7855TIP3   OH223528   2.699   2.577   6.848
 7855TIP3    H123529   2.779   2.564   6.903
 7855TIP3    H223530   2.718   2.516   6.774
 7856TIP3   OH223531   3.137   2.765   6.669
 7856TIP3    H123532   3.232   2.741   6.678
 7856TIP3    H223533   3.099   2.681   6.635
 7857TIP3   OH223534   4.401   2.732   6.942
 7857TIP3    H123535   4.316   2.778   6.927
 7857TIP3    H223536   4.436   2.780   7.020
 7858TIP3   OH223537   3.404   3.200   6.204
 7858TIP3    H123538   3.363   3.189   6.117
 7858TIP3    H223539   3.358   3.281   6.236
 7859TIP3   OH223540   3.176   3.125   6.996
 7859TIP3    H123541   3.118   3.195   7.031
 7859TIP3    H223542   3.217   3.169   6.918
 7860TIP3   OH223543   3.968   2.464   6.564
 7860TIP3    H123544   3.942   2.426   6.649
 7860TIP3    H223545   4.018   2.543   6.591
 7861TIP3   OH223546   2.935   2.487   6.965
 7861TIP3    H123547   3.006   2.545   6.997
 7861TIP3    H223548   2.980   2.439   6.892
 7862TIP3   OH223549   2.988   3.318   7.101
 7862TIP3    H123550   2.964   3.405   7.064
 7862TIP3    H223551   2.908   3.266   7.085
 7863TIP3   OH223552   2.386   3.011   6.326
 7863TIP3    H123553   2.346   3.037   6.241
 7863TIP3    H223554   2.418   3.097   6.360
 7864TIP3   OH223555   3.829   3.529   6.566
 7864TIP3    H123556   3.739   3.519   6.606
 7864TIP3    H223557   3.819   3.616   6.521
 7865TIP3   OH223558   4.117   2.434   6.926
 7865TIP3    H123559   4.032   2.453   6.883
 7865TIP3    H223560   4.182   2.464   6.860
 7866TIP3   OH223561   3.438   2.059   6.907
 7866TIP3    H123562   3.423   1.963   6.927
 7866TIP3    H223563   3.356   2.095   6.947
 7867TIP3   OH223564   3.527   3.572   6.237
 7867TIP3    H123565   3.577   3.488   6.221
 7867TIP3    H223566   3.592   3.636   6.199
 7868TIP3   OH223567   3.672   3.356   6.155
 7868TIP3    H123568   3.632   3.276   6.119
 7868TIP3    H223569   3.712   3.322   6.239
 7869TIP3   OH223570   4.052   3.439   6.911
 7869TIP3    H123571   4.042   3.360   6.854
 7869TIP3    H223572   4.037   3.512   6.847
 7870TIP3   OH223573   3.348   2.831   6.173
 7870TIP3    H123574   3.268   2.885   6.155
 7870TIP3    H223575   3.391   2.830   6.086
 7871TIP3   OH223576   3.305   2.618   5.882
 7871TIP3    H123577   3.370   2.673   5.930
 7871TIP3    H223578   3.365   2.556   5.835
 7872TIP3   OH223579   4.249   3.075   6.757
 7872TIP3    H123580   4.166   3.127   6.763
 7872TIP3    H223581   4.281   3.102   6.669
 7873TIP3   OH223582   3.697   2.915   6.139
 7873TIP3    H123583   3.641   2.938   6.217
 7873TIP3    H223584   3.781   2.892   6.183
 7874TIP3   OH223585   3.927   2.930   7.052
 7874TIP3    H123586   3.938   3.010   7.108
 7874TIP3    H223587   3.842   2.950   7.008
 7875TIP3   OH223588   2.926   2.909   6.557
 7875TIP3    H123589   2.885   2.851   6.490
 7875TIP3    H223590   3.002   2.855   6.588
 7876TIP3   OH223591   3.052   3.320   6.708
 7876TIP3    H123592   3.033   3.291   6.617
 7876TIP3    H223593   3.141   3.282   6.723
 7877TIP3   OH223594   3.075   2.880   6.918
 7877TIP3    H123595   3.096   2.857   6.825
 7877TIP3    H223596   3.114   2.969   6.928
 7878TIP3   OH223597   3.589   3.522   6.689
 7878TIP3    H123598   3.576   3.601   6.745
 7878TIP3    H223599   3.572   3.448   6.751
 7879TIP3   OH223600   3.220   3.437   7.213
 7879TIP3    H123601   3.165   3.499   7.265
 7879TIP3    H223602   3.151   3.379   7.177
 7880TIP3   OH223603   3.534   2.772   5.968
 7880TIP3    H123604   3.592   2.834   6.017
 7880TIP3    H223605   3.561   2.791   5.875
 7881TIP3   OH223606   3.281   3.448   6.247
 7881TIP3    H123607   3.364   3.500   6.249
 7881TIP3    H223608   3.222   3.504   6.196
 7882TIP3   OH223609   3.016   3.602   7.302
 7882TIP3    H123610   2.992   3.620   7.208
 7882TIP3    H223611   2.929   3.577   7.339
 7883TIP3   OH223612   4.050   2.009   6.018
 7883TIP3    H123613   3.968   2.032   6.067
 7883TIP3    H223614   4.066   2.092   5.969
 7884TIP3   OH223615   2.795   2.754   6.360
 7884TIP3    H123616   2.724   2.797   6.307
 7884TIP3    H223617   2.756   2.668   6.380
 7885TIP3   OH223618   3.851   3.378   5.567
 7885TIP3    H123619   3.859   3.474   5.550
 7885TIP3    H223620   3.944   3.349   5.555
 7886TIP3   OH223621   2.427   3.337   6.895
 7886TIP3    H123622   2.522   3.320   6.888
 7886TIP3    H223623   2.423   3.408   6.960
 7887TIP3   OH223624   4.292   3.784   6.961
 7887TIP3    H123625   4.293   3.688   6.979
 7887TIP3    H223626   4.209   3.810   7.007
 7888TIP3   OH223627   3.407   3.577   7.079
 7888TIP3    H123628   3.401   3.669   7.115
 7888TIP3    H223629   3.336   3.532   7.130
 7889TIP3   OH223630   3.166   3.695   6.047
 7889TIP3    H123631   3.117   3.676   5.965
 7889TIP3    H223632   3.129   3.780   6.075
 7890TIP3   OH223633   2.599   3.543   6.433
 7890TIP3    H123634   2.643   3.533   6.520
 7890TIP3    H223635   2.552   3.459   6.425
 7891TIP3   OH223636   3.362   3.601   5.683
 7891TIP3    H123637   3.420   3.530   5.648
 7891TIP3    H223638   3.397   3.610   5.775
 7892TIP3   OH223639   3.416   3.648   5.953
 7892TIP3    H123640   3.326   3.658   5.992
 7892TIP3    H223641   3.463   3.608   6.027
 7893TIP3   OH223642   4.195   2.907   7.244
 7893TIP3    H123643   4.107   2.940   7.221
 7893TIP3    H223644   4.194   2.815   7.210
 7894TIP3   OH223645   3.201   2.139   7.009
 7894TIP3    H123646   3.109   2.104   7.000
 7894TIP3    H223647   3.184   2.235   7.013
 7895TIP3   OH223648   3.914   2.694   7.189
 7895TIP3    H123649   3.942   2.736   7.272
 7895TIP3    H223650   3.917   2.771   7.128
 7896TIP3   OH223651   3.615   2.809   5.714
 7896TIP3    H123652   3.575   2.792   5.626
 7896TIP3    H223653   3.695   2.858   5.688
 7897TIP3   OH223654   3.325   2.188   6.018
 7897TIP3    H123655   3.288   2.185   6.108
 7897TIP3    H223656   3.282   2.109   5.980
 7898TIP3   OH223657   3.120   2.665   7.071
 7898TIP3    H123658   3.064   2.689   7.145
 7898TIP3    H223659   3.107   2.744   7.012
 7899TIP3   OH223660   2.997   2.546   6.576
 7899TIP3    H123661   2.904   2.520   6.595
 7899TIP3    H223662   3.007   2.505   6.487
 7900TIP3   OH223663   3.485   2.632   6.308
 7900TIP3    H123664   3.435   2.703   6.263
 7900TIP3    H223665   3.539   2.597   6.234
 7901TIP3   OH223666   3.639   2.657   6.541
 7901TIP3    H123667   3.576   2.685   6.471
 7901TIP3    H223668   3.675   2.578   6.496
 7902TIP3   OH223669   2.982   2.168   5.982
 7902TIP3    H123670   2.969   2.168   6.078
 7902TIP3    H223671   2.905   2.221   5.953
 7903TIP3   OH223672   2.549   2.250   6.794
 7903TIP3    H123673   2.619   2.271   6.860
 7903TIP3    H223674   2.596   2.194   6.731
 7904TIP3   OH223675   2.488   2.190   6.374
 7904TIP3    H123676   2.532   2.228   6.294
 7904TIP3    H223677   2.426   2.263   6.394
 7905TIP3   OH223678   3.655   2.912   6.946
 7905TIP3    H123679   3.692   2.840   6.889
 7905TIP3    H223680   3.619   2.858   7.019
 7906TIP3   OH223681   3.330   2.362   6.633
 7906TIP3    H123682   3.247   2.364   6.685
 7906TIP3    H223683   3.397   2.360   6.704
 7907TIP3   OH223684   2.760   2.426   6.628
 7907TIP3    H123685   2.664   2.436   6.605
 7907TIP3    H223686   2.776   2.331   6.618
 7908TIP3   OH223687   3.021   2.417   6.336
 7908TIP3    H123688   3.113   2.435   6.311
 7908TIP3    H223689   2.970   2.439   6.254
 7909TIP3   OH223690   3.817   2.441   6.826
 7909TIP3    H123691   3.799   2.446   6.923
 7909TIP3    H223692   3.745   2.381   6.798
 7910TIP3   OH223693   2.875   2.453   6.112
 7910TIP3    H123694   2.803   2.409   6.064
 7910TIP3    H223695   2.925   2.492   6.037
 7911TIP3   OH223696   3.987   4.133   7.063
 7911TIP3    H123697   3.986   4.159   6.969
 7911TIP3    H223698   4.070   4.177   7.093
 7912TIP3   OH223699   3.404   2.700   6.732
 7912TIP3    H123700   3.478   2.659   6.685
 7912TIP3    H223701   3.405   2.653   6.818
 7913TIP3   OH223702   2.926   2.183   6.617
 7913TIP3    H123703   2.890   2.109   6.671
 7913TIP3    H223704   2.962   2.136   6.540
 7914TIP3   OH223705   3.377   2.602   6.995
 7914TIP3    H123706   3.289   2.632   7.026
 7914TIP3    H223707   3.438   2.660   7.046
 7915TIP3   OH223708   3.118   2.982   6.122
 7915TIP3    H123709   3.045   2.917   6.108
 7915TIP3    H223710   3.095   3.017   6.211
 7916TIP3   OH223711   4.015   3.221   6.745
 7916TIP3    H123712   4.039   3.273   6.665
 7916TIP3    H223713   3.931   3.177   6.717
 7917TIP3   OH223714   3.574   2.292   5.988
 7917TIP3    H123715   3.478   2.271   5.996
 7917TIP3    H223716   3.579   2.386   6.013
 7918TIP3   OH223717   3.523   3.320   7.106
 7918TIP3    H123718   3.483   3.271   7.178
 7918TIP3    H223719   3.475   3.405   7.107
 7919TIP3   OH223720   3.641   2.544   6.090
 7919TIP3    H123721   3.737   2.553   6.105
 7919TIP3    H223722   3.620   2.626   6.040
 7920TIP3   OH223723   2.826   3.024   6.791
 7920TIP3    H123724   2.858   2.983   6.708
 7920TIP3    H223725   2.813   2.947   6.848
 7921TIP3   OH223726   3.264   3.134   5.948
 7921TIP3    H123727   3.214   3.219   5.948
 7921TIP3    H223728   3.208   3.079   6.008
 7922TIP3   OH223729   3.680   3.576   7.017
 7922TIP3    H123730   3.583   3.565   7.025
 7922TIP3    H223731   3.699   3.627   7.097
 7923TIP3   OH223732   4.083   2.639   5.921
 7923TIP3    H123733   4.022   2.595   5.856
 7923TIP3    H223734   4.078   2.729   5.883
 7924TIP3   OH223735   4.304   3.497   7.000
 7924TIP3    H123736   4.206   3.490   6.992
 7924TIP3    H223737   4.330   3.467   6.910
 7925TIP3   OH223738   3.793   3.454   5.833
 7925TIP3    H123739   3.757   3.386   5.892
 7925TIP3    H223740   3.801   3.408   5.748
 7926TIP3   OH223741   3.781   3.085   6.659
 7926TIP3    H123742   3.687   3.062   6.672
 7926TIP3    H223743   3.814   3.004   6.616
 7927TIP3   OH223744   2.913   3.316   6.427
 7927TIP3    H123745   2.908   3.395   6.369
 7927TIP3    H223746   2.821   3.288   6.427
 7928TIP3   OH223747   2.480   2.613   6.130
 7928TIP3    H123748   2.521   2.699   6.150
 7928TIP3    H223749   2.402   2.616   6.190
 7929TIP3   OH223750   3.041   3.076   6.362
 7929TIP3    H123751   3.010   3.165   6.384
 7929TIP3    H223752   3.006   3.023   6.436
 7930TIP3   OH223753   3.180   3.652   6.887
 7930TIP3    H123754   3.220   3.727   6.837
 7930TIP3    H223755   3.259   3.617   6.932
 7931TIP3   OH223756   2.830   3.549   6.273
 7931TIP3    H123757   2.744   3.561   6.318
 7931TIP3    H223758   2.863   3.642   6.274
 7932TIP3   OH223759   3.568   3.287   6.843
 7932TIP3    H123760   3.563   3.292   6.941
 7932TIP3    H223761   3.648   3.233   6.830
 7933TIP3   OH223762   3.547   3.185   5.731
 7933TIP3    H123763   3.597   3.158   5.811
 7933TIP3    H223764   3.457   3.155   5.753
 7934TIP3   OH223765   3.813   3.821   6.899
 7934TIP3    H123766   3.733   3.766   6.889
 7934TIP3    H223767   3.800   3.885   6.825
 7935TIP3   OH223768   3.881   3.653   5.548
 7935TIP3    H123769   3.912   3.725   5.491
 7935TIP3    H223770   3.802   3.696   5.586
 7936TIP3   OH223771   3.707   3.114   5.945
 7936TIP3    H123772   3.696   3.049   6.018
 7936TIP3    H223773   3.804   3.110   5.934
 7937TIP3   OH223774   2.612   3.528   7.040
 7937TIP3    H123775   2.671   3.453   7.051
 7937TIP3    H223776   2.663   3.601   7.079
 7938TIP3   OH223777   2.910   3.161   5.732
 7938TIP3    H123778   2.918   3.068   5.705
 7938TIP3    H223779   2.886   3.152   5.827
 7939TIP3   OH223780   2.851   3.167   6.004
 7939TIP3    H123781   2.927   3.142   6.058
 7939TIP3    H223782   2.854   3.266   6.010
 7940TIP3   OH223783   2.586   2.859   6.209
 7940TIP3    H123784   2.517   2.903   6.264
 7940TIP3    H223785   2.597   2.926   6.139
 7941TIP3   OH223786   3.775   2.480   7.094
 7941TIP3    H123787   3.831   2.554   7.125
 7941TIP3    H223788   3.729   2.454   7.176
 7942TIP3   OH223789   3.626   2.240   6.270
 7942TIP3    H123790   3.609   2.263   6.177
 7942TIP3    H223791   3.663   2.324   6.305
 7943TIP3   OH223792   3.123   3.364   5.954
 7943TIP3    H123793   3.035   3.387   5.989
 7943TIP3    H223794   3.133   3.433   5.887
 7944TIP3   OH223795   3.307   2.429   6.366
 7944TIP3    H123796   3.369   2.503   6.351
 7944TIP3    H223797   3.313   2.419   6.464
 7945TIP3   OH223798   3.561   2.744   7.140
 7945TIP3    H123799   3.531   2.785   7.223
 7945TIP3    H223800   3.636   2.691   7.172
 7946TIP3   OH223801   3.447   2.146   6.466
 7946TIP3    H123802   3.434   2.226   6.521
 7946TIP3    H223803   3.512   2.180   6.400
 7947TIP3   OH223804   2.869   3.439   6.022
 7947TIP3    H123805   2.838   3.508   5.960
 7947TIP3    H223806   2.851   3.482   6.109
 7948TIP3   OH223807   2.963   2.154   6.258
 7948TIP3    H123808   2.959   2.245   6.296
 7948TIP3    H223809   3.060   2.139   6.265
 7949TIP3   OH223810   4.193   2.647   7.152
 7949TIP3    H123811   4.100   2.617   7.154
 7949TIP3    H223812   4.223   2.605   7.069
 7950TIP3   OH223813   3.867   2.839   6.543
 7950TIP3    H123814   3.791   2.780   6.555
 7950TIP3    H223815   3.938   2.792   6.592
 7951TIP3   OH223816   2.583   3.061   6.012
 7951TIP3    H123817   2.653   3.129   6.018
 7951TIP3    H223818   2.625   3.003   5.944
 7952TIP3   OH223819   2.521   2.341   6.147
 7952TIP3    H123820   2.527   2.439   6.148
 7952TIP3    H223821   2.440   2.328   6.098
 7953TIP3   OH223822   3.837   3.800   6.489
 7953TIP3    H123823   3.794   3.848   6.415
 7953TIP3    H223824   3.932   3.818   6.468
 7954TIP3   OH223825   2.950   2.042   7.027
 7954TIP3    H123826   2.890   2.045   6.950
 7954TIP3    H223827   2.907   1.981   7.087
 7955TIP3   OH223828   2.449   3.286   6.393
 7955TIP3    H123829   2.385   3.312   6.461
 7955TIP3    H223830   2.411   3.329   6.313
 7956TIP3   OH223831   3.073   3.364   5.642
 7956TIP3    H123832   3.018   3.290   5.677
 7956TIP3    H223833   3.146   3.315   5.600
 7957TIP3   OH223834   3.734   3.687   7.278
 7957TIP3    H123835   3.795   3.614   7.292
 7957TIP3    H223836   3.796   3.763   7.286
 7958TIP3   OH223837   3.506   3.402   5.556
 7958TIP3    H123838   3.546   3.335   5.615
 7958TIP3    H223839   3.561   3.396   5.475
 7959TIP3   OH223840   2.718   2.877   5.867
 7959TIP3    H123841   2.777   2.851   5.940
 7959TIP3    H223842   2.784   2.884   5.794
 7960TIP3   OH223843   3.243   3.082   5.677
 7960TIP3    H123844   3.238   3.092   5.774
 7960TIP3    H223845   3.238   2.984   5.669
 7961TIP3   OH223846   3.838   3.339   7.054
 7961TIP3    H123847   3.916   3.378   7.010
 7961TIP3    H223848   3.770   3.407   7.035
 7962TIP3   OH223849   2.924   2.788   6.086
 7962TIP3    H123850   2.893   2.748   6.169
 7962TIP3    H223851   2.961   2.711   6.038
 7963TIP3   OH223852   3.027   2.582   5.925
 7963TIP3    H123853   3.002   2.594   5.831
 7963TIP3    H223854   3.125   2.584   5.918
 7964TIP3   OH223855   3.847   2.907   5.595
 7964TIP3    H123856   3.826   2.866   5.509
 7964TIP3    H223857   3.814   2.998   5.576
 7965TIP3   OH223858   3.355   2.400   7.192
 7965TIP3    H123859   3.356   2.451   7.109
 7965TIP3    H223860   3.259   2.384   7.204
 7966TIP3   OH223861   3.379   2.997   7.138
 7966TIP3    H123862   3.434   2.983   7.060
 7966TIP3    H223863   3.296   3.030   7.097
 7967TIP3   OH223864   3.978   3.153   7.197
 7967TIP3    H123865   3.914   3.216   7.158
 7967TIP3    H223866   4.062   3.192   7.162
 7968TIP3   OH223867   2.837   3.643   5.837
 7968TIP3    H123868   2.932   3.634   5.814
 7968TIP3    H223869   2.806   3.693   5.759
 7969TIP3   OH223870   2.313   3.024   6.048
 7969TIP3    H123871   2.408   3.044   6.032
 7969TIP3    H223872   2.305   2.936   6.006
 7970TIP3   OH223873   2.228   3.636   6.467
 7970TIP3    H123874   2.165   3.576   6.423
 7970TIP3    H223875   2.273   3.574   6.528
 7971TIP3   OH223876   2.361   3.479   6.651
 7971TIP3    H123877   2.348   3.410   6.718
 7971TIP3    H223878   2.421   3.539   6.698
 7972TIP3   OH223879   4.094   3.885   6.453
 7972TIP3    H123880   4.120   3.913   6.543
 7972TIP3    H223881   4.162   3.926   6.398
 7973TIP3   OH223882   4.122   3.905   6.734
 7973TIP3    H123883   4.076   3.819   6.730
 7973TIP3    H223884   4.195   3.881   6.794
 7974TIP3   OH223885   4.164   3.595   7.289
 7974TIP3    H123886   4.098   3.600   7.360
 7974TIP3    H223887   4.213   3.679   7.302
 7975TIP3   OH223888   3.985   3.093   5.924
 7975TIP3    H123889   4.049   3.160   5.893
 7975TIP3    H223890   4.031   3.058   6.003
 7976TIP3   OH223891   4.114   2.960   6.129
 7976TIP3    H123892   4.045   2.922   6.188
 7976TIP3    H223893   4.178   2.998   6.193
 7977TIP3   OH223894   4.168   3.358   6.559
 7977TIP3    H123895   4.221   3.289   6.515
 7977TIP3    H223896   4.166   3.429   6.492
 7978TIP3   OH223897   3.993   3.660   6.751
 7978TIP3    H123898   3.920   3.697   6.804
 7978TIP3    H223899   3.945   3.613   6.680
 7979TIP3   OH223900   4.049   2.871   5.773
 7979TIP3    H123901   3.978   2.873   5.706
 7979TIP3    H223902   4.020   2.946   5.829
 7980TIP3   OH223903   3.925   2.540   5.722
 7980TIP3    H123904   3.869   2.580   5.654
 7980TIP3    H223905   3.901   2.446   5.712
 7981TIP3   OH223906   3.923   2.824   6.274
 7981TIP3    H123907   3.930   2.727   6.266
 7981TIP3    H223908   3.908   2.835   6.371
 7982TIP3   OH223909   2.553   2.940   6.991
 7982TIP3    H123910   2.539   2.883   6.913
 7982TIP3    H223911   2.642   2.910   7.021
 7983TIP3   OH223912   4.215   3.247   7.108
 7983TIP3    H123913   4.289   3.182   7.108
 7983TIP3    H223914   4.253   3.322   7.058
 7984TIP3   OH223915   4.397   3.054   7.136
 7984TIP3    H123916   4.330   3.002   7.184
 7984TIP3    H223917   4.474   2.995   7.150
 7985TIP3   OH223918   3.864   2.273   5.703
 7985TIP3    H123919   3.931   2.244   5.768
 7985TIP3    H223920   3.785   2.221   5.726
 7986TIP3   OH223921   3.922   2.539   6.166
 7986TIP3    H123922   3.963   2.450   6.180
 7986TIP3    H223923   3.980   2.572   6.095
 7987TIP3   OH223924   4.079   2.705   6.664
 7987TIP3    H123925   4.165   2.729   6.621
 7987TIP3    H223926   4.095   2.745   6.752
 7988TIP3   OH223927   4.153   2.853   6.891
 7988TIP3    H123928   4.077   2.886   6.942
 7988TIP3    H223929   4.186   2.935   6.848
 7989TIP3   OH223930   4.602   2.435   7.406
 7989TIP3    H123931   4.662   2.384   7.348
 7989TIP3    H223932   4.577   2.510   7.347
 7990TIP3   OH223933   4.031   2.288   6.203
 7990TIP3    H123934   4.078   2.273   6.288
 7990TIP3    H223935   3.969   2.213   6.203
 7991TIP3   OH223936   2.750   2.265   6.977
 7991TIP3    H123937   2.724   2.222   7.061
 7991TIP3    H223938   2.773   2.355   7.005
 7992TIP3   OH223939   2.631   2.534   7.116
 7992TIP3    H123940   2.622   2.544   7.020
 7992TIP3    H223941   2.559   2.589   7.149
 7993TIP3   OH223942   4.459   2.593   7.232
 7993TIP3    H123943   4.370   2.627   7.251
 7993TIP3    H223944   4.435   2.516   7.177
 7994TIP3   OH223945   4.106   2.218   5.843
 7994TIP3    H123946   4.146   2.150   5.785
 7994TIP3    H223947   4.172   2.290   5.841
 7995TIP3   OH223948   2.520   2.035   6.592
 7995TIP3    H123949   2.427   2.040   6.621
 7995TIP3    H223950   2.519   2.100   6.518
 7996TIP3   OH223951   3.678   3.755   6.108
 7996TIP3    H123952   3.727   3.744   6.024
 7996TIP3    H223953   3.732   3.821   6.154
 7997TIP3   OH223954   2.951   3.591   7.028
 7997TIP3    H123955   2.908   3.671   6.989
 7997TIP3    H223956   3.038   3.600   6.983
 7998TIP3   OH223957   3.391   3.838   7.176
 7998TIP3    H123958   3.431   3.836   7.265
 7998TIP3    H223959   3.456   3.891   7.126
 7999TIP3   OH223960   3.576   3.989   7.041
 7999TIP3    H123961   3.646   3.944   6.991
 7999TIP3    H223962   3.629   4.045   7.101
 8000TIP3   OH223963   4.369   2.345   7.115
 8000TIP3    H123964   4.279   2.326   7.083
 8000TIP3    H223965   4.407   2.254   7.115
 8001TIP3   OH223966   2.636   3.844   7.068
 8001TIP3    H123967   2.547   3.872   7.039
 8001TIP3    H223968   2.651   3.905   7.142
 8002TIP3   OH223969   2.867   3.826   6.921
 8002TIP3    H123970   2.780   3.839   6.964
 8002TIP3    H223971   2.849   3.858   6.830
 8003TIP3   OH223972   3.289   3.850   6.723
 8003TIP3    H123973   3.222   3.868   6.655
 8003TIP3    H223974   3.302   3.940   6.761
 8004TIP3   OH223975   3.561   3.791   6.775
 8004TIP3    H123976   3.467   3.808   6.754
 8004TIP3    H223977   3.605   3.862   6.726
 8005TIP3   OH223978   3.767   3.982   6.684
 8005TIP3    H123979   3.752   4.066   6.635
 8005TIP3    H223980   3.794   3.922   6.611
 8006TIP3   OH223981   2.535   3.641   6.800
 8006TIP3    H123982   2.557   3.615   6.893
 8006TIP3    H223983   2.611   3.598   6.754
 8007TIP3   OH223984   2.737   3.512   6.671
 8007TIP3    H123985   2.755   3.430   6.721
 8007TIP3    H223986   2.827   3.549   6.661
 8008TIP3   OH223987   3.004   3.604   6.672
 8008TIP3    H123988   3.034   3.513   6.656
 8008TIP3    H223989   3.055   3.626   6.752
 8009TIP3   OH223990   3.581   2.262   6.760
 8009TIP3    H123991   3.539   2.188   6.810
 8009TIP3    H223992   3.654   2.216   6.714
 8010TIP3   OH223993   4.095   2.140   6.655
 8010TIP3    H123994   4.131   2.194   6.581
 8010TIP3    H223995   4.001   2.163   6.653
 8011TIP3   OH223996   4.194   2.240   6.420
 8011TIP3    H123997   4.270   2.190   6.384
 8011TIP3    H223998   4.227   2.332   6.408
 8012TIP3   OH223999   2.830   1.975   6.768
 8012TIP3    H124000   2.742   1.933   6.776
 8012TIP3    H224001   2.886   1.895   6.767
 8013TIP3   OH224002   2.618   1.842   6.418
 8013TIP3    H124003   2.645   1.899   6.344
 8013TIP3    H224004   2.587   1.908   6.484
 8014TIP3   OH224005   3.276   1.997   6.650
 8014TIP3    H124006   3.331   2.048   6.589
 8014TIP3    H224007   3.295   2.040   6.735
 8015TIP3   OH224008   3.812   2.152   6.633
 8015TIP3    H124009   3.813   2.110   6.547
 8015TIP3    H224010   3.801   2.074   6.693
 8016TIP3   OH224011   3.846   2.076   6.198
 8016TIP3    H124012   3.762   2.122   6.218
 8016TIP3    H224013   3.831   1.990   6.243
 8017TIP3   OH224014   2.327   3.420   6.194
 8017TIP3    H124015   2.241   3.387   6.162
 8017TIP3    H224016   2.322   3.512   6.159
 8018TIP3   OH224017   2.733   1.996   6.182
 8018TIP3    H124018   2.780   1.936   6.122
 8018TIP3    H224019   2.806   2.052   6.216
 8019TIP3   OH224020   3.240   2.178   6.280
 8019TIP3    H124021   3.301   2.133   6.341
 8019TIP3    H224022   3.261   2.271   6.304
 8020TIP3   OH224023   3.103   3.597   5.781
 8020TIP3    H124024   3.190   3.621   5.743
 8020TIP3    H224025   3.080   3.523   5.719
 8021TIP3   OH224026   3.823   3.722   5.876
 8021TIP3    H124027   3.817   3.623   5.866
 8021TIP3    H224028   3.775   3.750   5.796
 8022TIP3   OH224029   2.405   3.434   5.831
 8022TIP3    H124030   2.407   3.458   5.925
 8022TIP3    H224031   2.493   3.391   5.819
 8023TIP3   OH224032   4.044   3.864   7.056
 8023TIP3    H124033   3.966   3.837   7.003
 8023TIP3    H224034   4.026   3.960   7.065
 8024TIP3   OH224035   5.314   3.236   5.821
 8024TIP3    H124036   5.284   3.327   5.802
 8024TIP3    H224037   5.236   3.186   5.794
 8025TIP3   OH224038   5.314   3.236   6.213
 8025TIP3    H124039   5.351   3.216   6.301
 8025TIP3    H224040   5.271   3.152   6.190
 8026TIP3   OH224041   4.609   3.126   6.573
 8026TIP3    H124042   4.637   3.056   6.635
 8026TIP3    H224043   4.684   3.187   6.580
 8027TIP3   OH224044   5.559   3.541   5.893
 8027TIP3    H124045   5.543   3.474   5.961
 8027TIP3    H224046   5.590   3.617   5.946
 8028TIP3   OH224047   4.584   3.541   6.292
 8028TIP3    H124048   4.576   3.443   6.293
 8028TIP3    H224049   4.680   3.551   6.290
 8029TIP3   OH224050   4.292   2.740   6.074
 8029TIP3    H124051   4.246   2.822   6.097
 8029TIP3    H224052   4.218   2.691   6.031
 8030TIP3   OH224053   4.347   3.030   6.260
 8030TIP3    H124054   4.397   2.952   6.292
 8030TIP3    H224055   4.410   3.072   6.200
 8031TIP3   OH224056   5.211   4.002   5.909
 8031TIP3    H124057   5.250   3.930   5.855
 8031TIP3    H224058   5.202   3.958   5.995
 8032TIP3   OH224059   5.110   3.464   6.255
 8032TIP3    H124060   5.153   3.387   6.214
 8032TIP3    H224061   5.192   3.512   6.282
 8033TIP3   OH224062   6.131   2.781   6.253
 8033TIP3    H124063   6.157   2.866   6.295
 8033TIP3    H224064   6.160   2.797   6.161
 8034TIP3   OH224065   5.523   2.962   6.284
 8034TIP3    H124066   5.567   2.878   6.307
 8034TIP3    H224067   5.492   2.942   6.193
 8035TIP3   OH224068   4.866   2.622   6.250
 8035TIP3    H124069   4.846   2.696   6.188
 8035TIP3    H224070   4.814   2.550   6.208
 8036TIP3   OH224071   5.560   2.712   5.870
 8036TIP3    H124072   5.630   2.699   5.939
 8036TIP3    H224073   5.615   2.749   5.798
 8037TIP3   OH224074   4.496   2.824   6.359
 8037TIP3    H124075   4.578   2.807   6.408
 8037TIP3    H224076   4.512   2.769   6.280
 8038TIP3   OH224077   4.936   3.021   6.153
 8038TIP3    H124078   5.030   2.997   6.166
 8038TIP3    H224079   4.898   2.936   6.122
 8039TIP3   OH224080   6.201   2.992   6.425
 8039TIP3    H124081   6.115   3.037   6.409
 8039TIP3    H224082   6.225   3.027   6.513
 8040TIP3   OH224083   4.858   2.604   6.685
 8040TIP3    H124084   4.799   2.644   6.619
 8040TIP3    H224085   4.806   2.620   6.767
 8041TIP3   OH224086   5.199   3.456   5.692
 8041TIP3    H124087   5.159   3.448   5.604
 8041TIP3    H224088   5.156   3.538   5.724
 8042TIP3   OH224089   4.965   3.383   6.476
 8042TIP3    H124090   4.906   3.452   6.514
 8042TIP3    H224091   5.008   3.431   6.403
 8043TIP3   OH224092   5.759   2.720   6.054
 8043TIP3    H124093   5.736   2.688   6.142
 8043TIP3    H224094   5.813   2.799   6.076
 8044TIP3   OH224095   4.731   2.722   6.469
 8044TIP3    H124096   4.791   2.795   6.496
 8044TIP3    H224097   4.783   2.683   6.395
 8045TIP3   OH224098   4.795   3.580   6.578
 8045TIP3    H124099   4.770   3.669   6.545
 8045TIP3    H224100   4.716   3.561   6.633
 8046TIP3   OH224101   4.183   3.268   5.814
 8046TIP3    H124102   4.142   3.296   5.730
 8046TIP3    H224103   4.216   3.353   5.849
 8047TIP3   OH224104   5.624   3.785   6.053
 8047TIP3    H124105   5.535   3.776   6.093
 8047TIP3    H224106   5.615   3.872   6.009
 8048TIP3   OH224107   5.922   2.680   6.416
 8048TIP3    H124108   5.835   2.709   6.384
 8048TIP3    H224109   5.982   2.715   6.347
 8049TIP3   OH224110   5.206   2.321   6.401
 8049TIP3    H124111   5.193   2.228   6.423
 8049TIP3    H224112   5.132   2.363   6.450
 8050TIP3   OH224113   5.323   3.827   5.723
 8050TIP3    H124114   5.373   3.744   5.707
 8050TIP3    H224115   5.387   3.892   5.685
 8051TIP3   OH224116   5.469   3.612   5.642
 8051TIP3    H124117   5.430   3.531   5.606
 8051TIP3    H224118   5.509   3.579   5.726
 8052TIP3   OH224119   5.852   3.692   6.399
 8052TIP3    H124120   5.838   3.615   6.340
 8052TIP3    H224121   5.832   3.767   6.339
 8053TIP3   OH224122   5.142   3.085   5.659
 8053TIP3    H124123   5.063   3.141   5.641
 8053TIP3    H224124   5.189   3.090   5.574
 8054TIP3   OH224125   5.102   2.876   5.366
 8054TIP3    H124126   5.164   2.928   5.420
 8054TIP3    H224127   5.165   2.817   5.320
 8055TIP3   OH224128   6.045   3.332   6.245
 8055TIP3    H124129   5.961   3.384   6.249
 8055TIP3    H224130   6.077   3.357   6.156
 8056TIP3   OH224131   5.492   3.169   5.626
 8056TIP3    H124132   5.438   3.193   5.704
 8056TIP3    H224133   5.578   3.147   5.669
 8057TIP3   OH224134   5.725   3.208   6.548
 8057TIP3    H124135   5.723   3.290   6.600
 8057TIP3    H224136   5.639   3.214   6.501
 8058TIP3   OH224137   4.724   3.165   6.046
 8058TIP3    H124138   4.686   3.107   5.977
 8058TIP3    H224139   4.801   3.113   6.078
 8059TIP3   OH224140   4.855   3.582   6.192
 8059TIP3    H124141   4.835   3.547   6.103
 8059TIP3    H224142   4.944   3.544   6.210
 8060TIP3   OH224143   4.860   3.139   6.399
 8060TIP3    H124144   4.895   3.115   6.310
 8060TIP3    H224145   4.903   3.225   6.417
 8061TIP3   OH224146   5.385   3.777   6.177
 8061TIP3    H124147   5.373   3.858   6.230
 8061TIP3    H224148   5.368   3.705   6.241
 8062TIP3   OH224149   5.000   3.696   6.724
 8062TIP3    H124150   4.938   3.756   6.771
 8062TIP3    H224151   4.936   3.642   6.673
 8063TIP3   OH224152   5.330   3.029   5.454
 8063TIP3    H124153   5.389   3.090   5.504
 8063TIP3    H224154   5.357   3.049   5.361
 8064TIP3   OH224155   4.754   3.251   6.824
 8064TIP3    H124156   4.761   3.338   6.868
 8064TIP3    H224157   4.662   3.228   6.845
 8065TIP3   OH224158   5.078   3.704   5.730
 8065TIP3    H124159   5.161   3.755   5.735
 8065TIP3    H224160   5.018   3.765   5.687
 8066TIP3   OH224161   4.791   3.859   6.813
 8066TIP3    H124162   4.755   3.864   6.722
 8066TIP3    H224163   4.711   3.839   6.866
 8067TIP3   OH224164   5.844   2.267   5.501
 8067TIP3    H124165   5.766   2.294   5.554
 8067TIP3    H224166   5.864   2.350   5.453
 8068TIP3   OH224167   4.594   3.010   5.840
 8068TIP3    H124168   4.522   3.055   5.791
 8068TIP3    H224169   4.551   2.927   5.865
 8069TIP3   OH224170   5.648   3.633   5.053
 8069TIP3    H124171   5.656   3.730   5.037
 8069TIP3    H224172   5.741   3.604   5.041
 8070TIP3   OH224173   4.370   3.395   6.758
 8070TIP3    H124174   4.303   3.372   6.691
 8070TIP3    H224175   4.410   3.308   6.781
 8071TIP3   OH224176   4.226   3.589   6.387
 8071TIP3    H124177   4.322   3.582   6.381
 8071TIP3    H224178   4.216   3.665   6.446
 8072TIP3   OH224179   6.088   4.045   6.445
 8072TIP3    H124180   6.088   3.948   6.459
 8072TIP3    H224181   6.004   4.068   6.490
 8073TIP3   OH224182   5.193   3.825   6.580
 8073TIP3    H124183   5.190   3.917   6.614
 8073TIP3    H224184   5.123   3.783   6.635
 8074TIP3   OH224185   4.961   3.950   5.534
 8074TIP3    H124186   4.913   3.934   5.451
 8074TIP3    H224187   4.926   4.037   5.562
 8075TIP3   OH224188   4.396   3.800   5.920
 8075TIP3    H124189   4.442   3.792   6.007
 8075TIP3    H224190   4.346   3.717   5.917
 8076TIP3   OH224191   5.157   3.856   5.170
 8076TIP3    H124192   5.216   3.786   5.135
 8076TIP3    H224193   5.193   3.867   5.261
 8077TIP3   OH224194   5.211   3.904   5.440
 8077TIP3    H124195   5.122   3.913   5.481
 8077TIP3    H224196   5.262   3.868   5.514
 8078TIP3   OH224197   5.980   3.167   6.722
 8078TIP3    H124198   5.894   3.182   6.680
 8078TIP3    H224199   5.992   3.071   6.707
 8079TIP3   OH224200   4.574   3.579   6.740
 8079TIP3    H124201   4.624   3.563   6.823
 8079TIP3    H224202   4.500   3.515   6.750
 8080TIP3   OH224203   4.974   2.400   6.534
 8080TIP3    H124204   4.885   2.371   6.504
 8080TIP3    H224205   4.948   2.480   6.584
 8081TIP3   OH224206   5.510   2.513   6.727
 8081TIP3    H124207   5.580   2.489   6.791
 8081TIP3    H224208   5.428   2.496   6.777
 8082TIP3   OH224209   5.733   2.945   6.642
 8082TIP3    H124210   5.686   2.942   6.729
 8082TIP3    H224211   5.715   3.035   6.610
 8083TIP3   OH224212   5.403   3.064   5.196
 8083TIP3    H124213   5.372   3.047   5.105
 8083TIP3    H224214   5.488   3.110   5.177
 8084TIP3   OH224215   5.117   2.448   5.503
 8084TIP3    H124216   5.087   2.445   5.596
 8084TIP3    H224217   5.072   2.369   5.468
 8085TIP3   OH224218   4.906   2.918   6.550
 8085TIP3    H124219   4.857   2.940   6.633
 8085TIP3    H224220   4.890   3.000   6.497
 8086TIP3   OH224221   4.790   2.803   6.063
 8086TIP3    H124222   4.698   2.778   6.084
 8086TIP3    H224223   4.800   2.759   5.975
 8087TIP3   OH224224   5.280   2.884   5.792
 8087TIP3    H124225   5.230   2.957   5.748
 8087TIP3    H224226   5.337   2.853   5.719
 8088TIP3   OH224227   5.456   3.163   6.873
 8088TIP3    H124228   5.434   3.092   6.936
 8088TIP3    H224229   5.550   3.178   6.896
 8089TIP3   OH224230   5.436   2.911   6.029
 8089TIP3    H124231   5.373   2.942   5.961
 8089TIP3    H224232   5.471   2.833   5.982
 8090TIP3   OH224233   4.726   2.943   6.759
 8090TIP3    H124234   4.757   3.006   6.825
 8090TIP3    H224235   4.716   2.861   6.811
 8091TIP3   OH224236   4.773   2.419   5.469
 8091TIP3    H124237   4.763   2.421   5.567
 8091TIP3    H224238   4.698   2.477   5.444
 8092TIP3   OH224239   4.320   2.462   6.338
 8092TIP3    H124240   4.391   2.498   6.396
 8092TIP3    H224241   4.367   2.438   6.258
 8093TIP3   OH224242   4.282   2.447   5.855
 8093TIP3    H124243   4.328   2.484   5.777
 8093TIP3    H224244   4.221   2.521   5.876
 8094TIP3   OH224245   5.445   3.159   6.449
 8094TIP3    H124246   5.479   3.088   6.390
 8094TIP3    H224247   5.415   3.105   6.525
 8095TIP3   OH224248   5.120   2.618   6.120
 8095TIP3    H124249   5.041   2.622   6.177
 8095TIP3    H224250   5.192   2.616   6.186
 8096TIP3   OH224251   4.552   2.684   6.129
 8096TIP3    H124252   4.458   2.692   6.101
 8096TIP3    H224253   4.573   2.591   6.109
 8097TIP3   OH224254   4.817   2.670   5.824
 8097TIP3    H124255   4.909   2.694   5.805
 8097TIP3    H224256   4.769   2.695   5.742
 8098TIP3   OH224257   5.612   2.701   6.322
 8098TIP3    H124258   5.585   2.714   6.416
 8098TIP3    H224259   5.540   2.642   6.292
 8099TIP3   OH224260   4.672   2.707   5.599
 8099TIP3    H124261   4.597   2.668   5.551
 8099TIP3    H224262   4.722   2.747   5.525
 8100TIP3   OH224263   5.781   4.388   6.549
 8100TIP3    H124264   5.778   4.415   6.456
 8100TIP3    H224265   5.864   4.432   6.578
 8101TIP3   OH224266   4.739   3.501   6.962
 8101TIP3    H124267   4.818   3.529   7.012
 8101TIP3    H224268   4.674   3.494   7.034
 8102TIP3   OH224269   5.198   2.954   6.222
 8102TIP3    H124270   5.277   2.917   6.179
 8102TIP3    H224271   5.201   2.912   6.310
 8103TIP3   OH224272   4.715   2.440   6.108
 8103TIP3    H124273   4.677   2.365   6.159
 8103TIP3    H224274   4.765   2.392   6.040
 8104TIP3   OH224275   5.176   2.859   6.507
 8104TIP3    H124276   5.086   2.892   6.525
 8104TIP3    H224277   5.233   2.918   6.559
 8105TIP3   OH224278   4.914   3.238   5.606
 8105TIP3    H124279   4.841   3.174   5.593
 8105TIP3    H224280   4.892   3.274   5.696
 8106TIP3   OH224281   5.811   3.477   6.231
 8106TIP3    H124282   5.835   3.529   6.152
 8106TIP3    H224283   5.727   3.434   6.204
 8107TIP3   OH224284   5.371   2.550   5.466
 8107TIP3    H124285   5.275   2.535   5.479
 8107TIP3    H224286   5.384   2.643   5.494
 8108TIP3   OH224287   5.309   3.559   6.604
 8108TIP3    H124288   5.347   3.543   6.692
 8108TIP3    H224289   5.273   3.648   6.612
 8109TIP3   OH224290   5.440   2.798   5.572
 8109TIP3    H124291   5.536   2.806   5.591
 8109TIP3    H224292   5.421   2.881   5.524
 8110TIP3   OH224293   4.606   3.263   6.280
 8110TIP3    H124294   4.646   3.233   6.196
 8110TIP3    H224295   4.652   3.209   6.345
 8111TIP3   OH224296   5.057   3.389   5.429
 8111TIP3    H124297   5.008   3.475   5.430
 8111TIP3    H224298   5.004   3.335   5.491
 8112TIP3   OH224299   4.492   3.184   6.894
 8112TIP3    H124300   4.513   3.175   6.990
 8112TIP3    H224301   4.422   3.117   6.884
 8113TIP3   OH224302   5.217   3.301   6.911
 8113TIP3    H124303   5.154   3.236   6.875
 8113TIP3    H224304   5.302   3.263   6.883
 8114TIP3   OH224305   5.470   3.819   6.501
 8114TIP3    H124306   5.373   3.819   6.516
 8114TIP3    H224307   5.500   3.871   6.578
 8115TIP3   OH224308   5.870   2.896   5.412
 8115TIP3    H124309   5.812   2.852   5.347
 8115TIP3    H224310   5.871   2.986   5.371
 8116TIP3   OH224311   6.102   3.755   6.485
 8116TIP3    H124312   6.004   3.746   6.478
 8116TIP3    H224313   6.127   3.723   6.395
 8117TIP3   OH224314   5.584   3.712   5.318
 8117TIP3    H124315   5.556   3.643   5.380
 8117TIP3    H224316   5.597   3.664   5.235
 8118TIP3   OH224317   5.578   3.342   6.146
 8118TIP3    H124318   5.485   3.318   6.161
 8118TIP3    H224319   5.611   3.260   6.103
 8119TIP3   OH224320   4.709   3.569   5.906
 8119TIP3    H124321   4.703   3.650   5.851
 8119TIP3    H224322   4.616   3.550   5.922
 8120TIP3   OH224323   4.275   2.869   5.617
 8120TIP3    H124324   4.317   2.955   5.637
 8120TIP3    H224325   4.197   2.873   5.676
 8121TIP3   OH224326   4.836   3.330   5.846
 8121TIP3    H124327   4.805   3.420   5.866
 8121TIP3    H224328   4.803   3.280   5.924
 8122TIP3   OH224329   4.979   3.910   6.375
 8122TIP3    H124330   5.024   3.982   6.326
 8122TIP3    H224331   5.054   3.872   6.423
 8123TIP3   OH224332   4.624   3.808   5.758
 8123TIP3    H124333   4.539   3.817   5.805
 8123TIP3    H224334   4.658   3.900   5.761
 8124TIP3   OH224335   5.360   3.544   6.337
 8124TIP3    H124336   5.348   3.543   6.435
 8124TIP3    H224337   5.442   3.494   6.328
 8125TIP3   OH224338   5.343   3.440   5.220
 8125TIP3    H124339   5.397   3.413   5.298
 8125TIP3    H224340   5.254   3.414   5.249
 8126TIP3   OH224341   5.612   4.073   6.383
 8126TIP3    H124342   5.531   4.019   6.380
 8126TIP3    H224343   5.594   4.138   6.312
 8127TIP3   OH224344   5.677   3.909   5.035
 8127TIP3    H124345   5.711   3.983   4.982
 8127TIP3    H224346   5.597   3.953   5.073
 8128TIP3   OH224347   4.697   2.685   6.897
 8128TIP3    H124348   4.601   2.688   6.917
 8128TIP3    H224349   4.732   2.642   6.976
 8129TIP3   OH224350   5.504   3.368   5.432
 8129TIP3    H124351   5.494   3.304   5.505
 8129TIP3    H224352   5.601   3.366   5.420
 8130TIP3   OH224353   4.416   3.770   6.533
 8130TIP3    H124354   4.471   3.698   6.569
 8130TIP3    H224355   4.438   3.842   6.593
 8131TIP3   OH224356   4.706   3.418   5.219
 8131TIP3    H124357   4.716   3.324   5.194
 8131TIP3    H224358   4.684   3.411   5.314
 8132TIP3   OH224359   4.649   3.424   5.490
 8132TIP3    H124360   4.722   3.399   5.547
 8132TIP3    H224361   4.650   3.522   5.497
 8133TIP3   OH224362   4.381   3.116   5.696
 8133TIP3    H124363   4.314   3.161   5.752
 8133TIP3    H224364   4.392   3.183   5.626
 8134TIP3   OH224365   5.542   2.745   6.580
 8134TIP3    H124366   5.615   2.793   6.622
 8134TIP3    H224367   5.530   2.668   6.640
 8135TIP3   OH224368   5.424   2.498   5.757
 8135TIP3    H124369   5.413   2.525   5.664
 8135TIP3    H224370   5.464   2.578   5.796
 8136TIP3   OH224371   4.917   3.619   5.437
 8136TIP3    H124372   4.830   3.642   5.475
 8136TIP3    H224373   4.931   3.696   5.380
 8137TIP3   OH224374   5.098   2.684   5.851
 8137TIP3    H124375   5.162   2.757   5.836
 8137TIP3    H224376   5.106   2.672   5.949
 8138TIP3   OH224377   5.376   3.000   6.659
 8138TIP3    H124378   5.398   3.055   6.737
 8138TIP3    H224379   5.426   2.919   6.677
 8139TIP3   OH224380   5.247   2.403   5.953
 8139TIP3    H124381   5.245   2.477   6.018
 8139TIP3    H224382   5.311   2.438   5.888
 8140TIP3   OH224383   4.664   3.695   5.509
 8140TIP3    H124384   4.633   3.765   5.447
 8140TIP3    H224385   4.646   3.737   5.596
 8141TIP3   OH224386   4.764   2.410   5.744
 8141TIP3    H124387   4.755   2.499   5.782
 8141TIP3    H224388   4.861   2.397   5.756
 8142TIP3   OH224389   6.000   2.903   6.640
 8142TIP3    H124390   5.902   2.901   6.646
 8142TIP3    H224391   6.012   2.857   6.555
 8143TIP3   OH224392   5.664   3.096   6.030
 8143TIP3    H124393   5.588   3.036   6.045
 8143TIP3    H224394   5.736   3.050   6.078
 8144TIP3   OH224395   4.379   3.318   5.499
 8144TIP3    H124396   4.447   3.387   5.507
 8144TIP3    H224397   4.422   3.261   5.432
 8145TIP3   OH224398   4.317   2.598   5.627
 8145TIP3    H124399   4.323   2.696   5.630
 8145TIP3    H224400   4.229   2.586   5.592
 8146TIP3   OH224401   5.634   4.055   5.976
 8146TIP3    H124402   5.591   4.102   5.901
 8146TIP3    H224403   5.728   4.073   5.955
 8147TIP3   OH224404   4.710   2.320   6.501
 8147TIP3    H124405   4.679   2.284   6.416
 8147TIP3    H224406   4.700   2.243   6.561
 8148TIP3   OH224407   4.243   3.537   5.880
 8148TIP3    H124408   4.183   3.567   5.950
 8148TIP3    H224409   4.205   3.583   5.800
 8149TIP3   OH224410   4.410   4.092   6.954
 8149TIP3    H124411   4.495   4.096   7.004
 8149TIP3    H224412   4.392   3.997   6.957
 8150TIP3   OH224413   4.885   4.039   7.003
 8150TIP3    H124414   4.979   4.020   7.005
 8150TIP3    H224415   4.855   3.978   6.932
 8151TIP3   OH224416   4.867   3.621   5.125
 8151TIP3    H124417   4.813   3.548   5.164
 8151TIP3    H224418   4.943   3.571   5.090
 8152TIP3   OH224419   5.527   3.954   6.733
 8152TIP3    H124420   5.517   3.884   6.801
 8152TIP3    H224421   5.606   4.002   6.765
 8153TIP3   OH224422   5.302   3.658   5.043
 8153TIP3    H124423   5.345   3.594   5.103
 8153TIP3    H224424   5.358   3.653   4.963
 8154TIP3   OH224425   4.539   3.491   7.154
 8154TIP3    H124426   4.551   3.397   7.173
 8154TIP3    H224427   4.450   3.492   7.114
 8155TIP3   OH224428   4.515   3.134   5.355
 8155TIP3    H124429   4.574   3.109   5.429
 8155TIP3    H224430   4.582   3.141   5.283
 8156TIP3   OH224431   5.142   3.576   6.932
 8156TIP3    H124432   5.102   3.598   6.846
 8156TIP3    H224433   5.173   3.484   6.919
 8157TIP3   OH224434   5.033   3.335   5.160
 8157TIP3    H124435   5.033   3.348   5.258
 8157TIP3    H224436   5.027   3.238   5.155
 8158TIP3   OH224437   5.633   3.589   6.539
 8158TIP3    H124438   5.711   3.630   6.496
 8158TIP3    H224439   5.566   3.657   6.523
 8159TIP3   OH224440   4.663   3.225   7.135
 8159TIP3    H124441   4.723   3.150   7.127
 8159TIP3    H224442   4.694   3.260   7.221
 8160TIP3   OH224443   4.717   3.045   5.571
 8160TIP3    H124444   4.688   3.011   5.658
 8160TIP3    H224445   4.755   2.966   5.528
 8161TIP3   OH224446   4.990   3.105   6.799
 8161TIP3    H124447   4.912   3.165   6.799
 8161TIP3    H224448   5.043   3.141   6.724
 8162TIP3   OH224449   4.824   2.836   5.411
 8162TIP3    H124450   4.798   2.849   5.318
 8162TIP3    H224451   4.922   2.841   5.404
 8163TIP3   OH224452   5.508   3.508   6.933
 8163TIP3    H124453   5.586   3.474   6.888
 8163TIP3    H224454   5.500   3.445   7.008
 8164TIP3   OH224455   5.637   3.163   5.083
 8164TIP3    H124456   5.621   3.123   4.996
 8164TIP3    H224457   5.605   3.254   5.064
 8165TIP3   OH224458   5.116   2.897   6.922
 8165TIP3    H124459   5.115   2.818   6.864
 8165TIP3    H224460   5.069   2.964   6.867
 8166TIP3   OH224461   5.117   2.683   6.733
 8166TIP3    H124462   5.144   2.725   6.649
 8166TIP3    H224463   5.023   2.661   6.714
 8167TIP3   OH224464   5.138   3.213   6.604
 8167TIP3    H124465   5.226   3.235   6.570
 8167TIP3    H224466   5.082   3.280   6.559
 8168TIP3   OH224467   5.717   3.183   6.979
 8168TIP3    H124468   5.760   3.116   7.037
 8168TIP3    H224469   5.793   3.235   6.949
 8169TIP3   OH224470   5.764   3.437   6.720
 8169TIP3    H124471   5.705   3.493   6.664
 8169TIP3    H224472   5.852   3.461   6.682
 8170TIP3   OH224473   5.000   3.007   7.157
 8170TIP3    H124474   4.919   2.955   7.174
 8170TIP3    H224475   5.027   2.972   7.070
 8171TIP3   OH224476   5.245   2.442   6.800
 8171TIP3    H124477   5.195   2.524   6.779
 8171TIP3    H224478   5.175   2.374   6.793
 8172TIP3   OH224479   5.374   2.949   7.017
 8172TIP3    H124480   5.356   2.935   7.112
 8172TIP3    H224481   5.285   2.926   6.982
 8173TIP3   OH224482   5.609   2.892   6.875
 8173TIP3    H124483   5.537   2.899   6.940
 8173TIP3    H224484   5.685   2.867   6.931
 8174TIP3   OH224485   5.845   2.831   7.016
 8174TIP3    H124486   5.855   2.740   7.050
 8174TIP3    H224487   5.836   2.884   7.099
 8175TIP3   OH224488   4.822   2.788   7.181
 8175TIP3    H124489   4.831   2.693   7.162
 8175TIP3    H224490   4.875   2.792   7.264
 8176TIP3   OH224491   5.345   2.463   7.053
 8176TIP3    H124492   5.398   2.382   7.053
 8176TIP3    H224493   5.298   2.455   6.967
 8177TIP3   OH224494   5.416   2.681   7.199
 8177TIP3    H124495   5.391   2.610   7.135
 8177TIP3    H224496   5.337   2.739   7.197
 8178TIP3   OH224497   4.633   3.898   5.322
 8178TIP3    H124498   4.728   3.889   5.301
 8178TIP3    H224499   4.604   3.950   5.244
 8179TIP3   OH224500   4.109   3.281   5.534
 8179TIP3    H124501   4.204   3.302   5.519
 8179TIP3    H224502   4.102   3.193   5.492
 8180TIP3   OH224503   4.028   3.893   5.953
 8180TIP3    H124504   3.963   3.832   5.912
 8180TIP3    H224505   4.072   3.832   6.016
 8181TIP3   OH224506   4.161   3.736   6.139
 8181TIP3    H124507   4.148   3.668   6.206
 8181TIP3    H224508   4.214   3.801   6.190
 8182TIP3   OH224509   5.890   4.140   5.939
 8182TIP3    H124510   5.914   4.171   6.029
 8182TIP3    H224511   5.954   4.187   5.883
 8183TIP3   OH224512   5.915   4.160   6.219
 8183TIP3    H124513   5.868   4.073   6.215
 8183TIP3    H224514   5.988   4.135   6.278
 8184TIP3   OH224515   5.959   3.838   6.793
 8184TIP3    H124516   5.884   3.845   6.856
 8184TIP3    H224517   5.996   3.928   6.798
 8185TIP3   OH224518   5.780   3.352   5.410
 8185TIP3    H124519   5.845   3.418   5.379
 8185TIP3    H224520   5.826   3.317   5.490
 8186TIP3   OH224521   5.907   3.224   5.618
 8186TIP3    H124522   5.841   3.183   5.678
 8186TIP3    H224523   5.975   3.256   5.680
 8187TIP3   OH224524   5.965   3.615   6.046
 8187TIP3    H124525   6.017   3.545   6.002
 8187TIP3    H224526   5.962   3.685   5.978
 8188TIP3   OH224527   5.790   3.912   6.241
 8188TIP3    H124528   5.718   3.955   6.292
 8188TIP3    H224529   5.740   3.868   6.169
 8189TIP3   OH224530   5.843   3.128   5.261
 8189TIP3    H124531   5.771   3.130   5.194
 8189TIP3    H224532   5.816   3.204   5.317
 8190TIP3   OH224533   5.712   2.802   5.213
 8190TIP3    H124534   5.669   2.838   5.135
 8190TIP3    H224535   5.691   2.706   5.203
 8191TIP3   OH224536   5.718   3.082   5.761
 8191TIP3    H124537   5.730   2.986   5.753
 8191TIP3    H224538   5.703   3.093   5.858
 8192TIP3   OH224539   4.345   3.152   6.510
 8192TIP3    H124540   4.341   3.116   6.419
 8192TIP3    H224541   4.442   3.151   6.526
 8193TIP3   OH224542   6.011   3.504   6.618
 8193TIP3    H124543   6.082   3.437   6.607
 8193TIP3    H224544   6.034   3.569   6.549
 8194TIP3   OH224545   6.195   3.305   6.626
 8194TIP3    H124546   6.122   3.252   6.665
 8194TIP3    H224547   6.271   3.245   6.645
 8195TIP3   OH224548   5.662   2.534   5.193
 8195TIP3    H124549   5.741   2.508   5.246
 8195TIP3    H224550   5.594   2.473   5.224
 8196TIP3   OH224551   5.717   2.795   5.650
 8196TIP3    H124552   5.758   2.707   5.664
 8196TIP3    H224553   5.775   2.830   5.580
 8197TIP3   OH224554   5.875   2.962   6.151
 8197TIP3    H124555   5.961   2.986   6.108
 8197TIP3    H224556   5.891   3.001   6.239
 8198TIP3   OH224557   5.949   3.110   6.379
 8198TIP3    H124558   5.873   3.145   6.429
 8198TIP3    H224559   5.983   3.192   6.335
 8199TIP3   OH224560   4.558   2.839   7.157
 8199TIP3    H124561   4.655   2.841   7.170
 8199TIP3    H224562   4.536   2.756   7.203
 8200TIP3   OH224563   5.821   2.546   5.694
 8200TIP3    H124564   5.874   2.530   5.775
 8200TIP3    H224565   5.764   2.467   5.694
 8201TIP3   OH224566   4.526   2.530   6.509
 8201TIP3    H124567   4.587   2.455   6.520
 8201TIP3    H224568   4.588   2.604   6.503
 8202TIP3   OH224569   4.324   2.799   6.583
 8202TIP3    H124570   4.376   2.803   6.500
 8202TIP3    H224571   4.350   2.881   6.627
 8203TIP3   OH224572   6.247   2.846   6.747
 8203TIP3    H124573   6.157   2.881   6.730
 8203TIP3    H224574   6.240   2.761   6.699
 8204TIP3   OH224575   5.900   2.476   5.325
 8204TIP3    H124576   5.949   2.409   5.274
 8204TIP3    H224577   5.966   2.548   5.333
 8205TIP3   OH224578   4.312   2.299   6.080
 8205TIP3    H124579   4.222   2.297   6.116
 8205TIP3    H224580   4.304   2.363   6.007
 8206TIP3   OH224581   5.470   4.012   5.592
 8206TIP3    H124582   5.523   4.004   5.510
 8206TIP3    H224583   5.522   4.077   5.643
 8207TIP3   OH224584   4.534   2.380   6.889
 8207TIP3    H124585   4.483   2.377   6.971
 8207TIP3    H224586   4.470   2.423   6.829
 8208TIP3   OH224587   4.571   3.818   6.975
 8208TIP3    H124588   4.478   3.792   6.962
 8208TIP3    H224589   4.585   3.795   7.068
 8209TIP3   OH224590   4.753   3.850   6.524
 8209TIP3    H124591   4.706   3.927   6.486
 8209TIP3    H224592   4.839   3.863   6.480
 8210TIP3   OH224593   5.191   4.092   6.661
 8210TIP3    H124594   5.232   4.089   6.750
 8210TIP3    H224595   5.257   4.144   6.612
 8211TIP3   OH224596   5.372   4.248   6.525
 8211TIP3    H124597   5.443   4.195   6.486
 8211TIP3    H224598   5.423   4.304   6.587
 8212TIP3   OH224599   6.166   2.606   6.620
 8212TIP3    H124600   6.075   2.597   6.589
 8212TIP3    H224601   6.199   2.515   6.606
 8213TIP3   OH224602   4.425   4.110   6.547
 8213TIP3    H124603   4.333   4.139   6.531
 8213TIP3    H224604   4.443   4.153   6.632
 8214TIP3   OH224605   4.663   4.084   6.411
 8214TIP3    H124606   4.575   4.095   6.452
 8214TIP3    H224607   4.646   4.112   6.319
 8215TIP3   OH224608   5.088   4.109   6.207
 8215TIP3    H124609   5.018   4.127   6.142
 8215TIP3    H224610   5.099   4.197   6.249
 8216TIP3   OH224611   5.358   4.046   6.259
 8216TIP3    H124612   5.264   4.066   6.239
 8216TIP3    H224613   5.404   4.120   6.215
 8217TIP3   OH224614   5.559   4.237   6.170
 8217TIP3    H124615   5.548   4.322   6.122
 8217TIP3    H224616   5.588   4.177   6.097
 8218TIP3   OH224617   4.338   3.898   6.294
 8218TIP3    H124618   4.366   3.868   6.384
 8218TIP3    H224619   4.409   3.854   6.242
 8219TIP3   OH224620   4.534   3.770   6.154
 8219TIP3    H124621   4.547   3.686   6.204
 8219TIP3    H224622   4.625   3.805   6.151
 8220TIP3   OH224623   4.802   3.861   6.160
 8220TIP3    H124624   4.831   3.768   6.151
 8220TIP3    H224625   4.852   3.884   6.241
 8221TIP3   OH224626   5.368   2.514   6.234
 8221TIP3    H124627   5.330   2.444   6.291
 8221TIP3    H224628   5.449   2.472   6.200
 8222TIP3   OH224629   5.893   2.397   6.137
 8222TIP3    H124630   5.928   2.451   6.063
 8222TIP3    H224631   5.799   2.425   6.140
 8223TIP3   OH224632   5.991   2.498   5.904
 8223TIP3    H124633   6.064   2.443   5.867
 8223TIP3    H224634   6.030   2.587   5.889
 8224TIP3   OH224635   4.621   2.225   6.253
 8224TIP3    H124636   4.529   2.193   6.260
 8224TIP3    H224637   4.669   2.139   6.250
 8225TIP3   OH224638   4.412   2.100   5.907
 8225TIP3    H124639   4.437   2.159   5.834
 8225TIP3    H224640   4.382   2.164   5.975
 8226TIP3   OH224641   5.069   2.258   6.139
 8226TIP3    H124642   5.125   2.311   6.080
 8226TIP3    H224643   5.091   2.295   6.225
 8227TIP3   OH224644   5.604   2.406   6.123
 8227TIP3    H124645   5.618   2.363   6.038
 8227TIP3    H224646   5.595   2.327   6.183
 8228TIP3   OH224647   5.637   2.330   5.678
 8228TIP3    H124648   5.559   2.379   5.710
 8228TIP3    H224649   5.622   2.242   5.721
 8229TIP3   OH224650   4.124   3.676   5.680
 8229TIP3    H124651   4.038   3.643   5.649
 8229TIP3    H224652   4.118   3.768   5.649
 8230TIP3   OH224653   4.530   2.257   5.665
 8230TIP3    H124654   4.579   2.195   5.609
 8230TIP3    H224655   4.601   2.311   5.703
 8231TIP3   OH224656   5.044   2.429   5.769
 8231TIP3    H124657   5.105   2.397   5.838
 8231TIP3    H224658   5.054   2.526   5.786
 8232TIP3   OH224659   4.899   3.852   5.268
 8232TIP3    H124660   4.987   3.876   5.231
 8232TIP3    H224661   4.876   3.779   5.207
 8233TIP3   OH224662   5.620   3.979   5.362
 8233TIP3    H124663   5.612   3.881   5.352
 8233TIP3    H224664   5.572   4.009   5.282
 8234TIP3   OH224665   4.835   2.505   7.137
 8234TIP3    H124666   4.802   2.430   7.188
 8234TIP3    H224667   4.928   2.509   7.169
 8235TIP3   OH224668   5.088   2.496   7.252
 8235TIP3    H124669   5.179   2.472   7.227
 8235TIP3    H224670   5.068   2.420   7.312
 8236TIP3   OH224671   4.201   3.690   5.319
 8236TIP3    H124672   4.204   3.713   5.413
 8236TIP3    H224673   4.288   3.647   5.305
 8237TIP3   OH224674   5.918   2.558   7.073
 8237TIP3    H124675   5.974   2.553   7.151
 8237TIP3    H224676   5.986   2.559   7.002
 8238TIP3   OH224677   5.843   4.120   6.540
 8238TIP3    H124678   5.763   4.090   6.494
 8238TIP3    H224679   5.821   4.215   6.553
 8239TIP3   OH224680   7.111   3.499   5.307
 8239TIP3    H124681   7.075   3.587   5.284
 8239TIP3    H224682   7.036   3.442   5.281
 8240TIP3   OH224683   7.099   3.503   5.701
 8240TIP3    H124684   7.139   3.477   5.787
 8240TIP3    H224685   7.074   3.414   5.669
 8241TIP3   OH224686   6.404   3.384   6.061
 8241TIP3    H124687   6.431   3.317   6.127
 8241TIP3    H224688   6.488   3.431   6.049
 8242TIP3   OH224689   7.356   3.786   5.368
 8242TIP3    H124690   7.339   3.717   5.435
 8242TIP3    H224691   7.382   3.862   5.424
 8243TIP3   OH224692   6.382   3.797   5.779
 8243TIP3    H124693   6.373   3.699   5.777
 8243TIP3    H224694   6.479   3.806   5.776
 8244TIP3   OH224695   6.084   3.003   5.552
 8244TIP3    H124696   6.038   3.085   5.576
 8244TIP3    H224697   6.011   2.952   5.513
 8245TIP3   OH224698   6.144   3.283   5.746
 8245TIP3    H124699   6.193   3.205   5.780
 8245TIP3    H224700   6.206   3.317   5.680
 8246TIP3   OH224701   7.006   4.265   5.395
 8246TIP3    H124702   7.045   4.187   5.350
 8246TIP3    H224703   6.978   4.227   5.480
 8247TIP3   OH224704   6.908   3.720   5.744
 8247TIP3    H124705   6.948   3.638   5.708
 8247TIP3    H224706   6.991   3.766   5.767
 8248TIP3   OH224707   7.339   3.230   5.773
 8248TIP3    H124708   7.376   3.140   5.779
 8248TIP3    H224709   7.268   3.214   5.708
 8249TIP3   OH224710   7.343   2.952   5.363
 8249TIP3    H124711   7.415   2.940   5.429
 8249TIP3    H224712   7.392   3.001   5.294
 8250TIP3   OH224713   6.293   3.083   5.855
 8250TIP3    H124714   6.383   3.075   5.891
 8250TIP3    H224715   6.299   3.016   5.783
 8251TIP3   OH224716   6.651   2.869   6.169
 8251TIP3    H124717   6.599   2.902   6.094
 8251TIP3    H224718   6.591   2.890   6.244
 8252TIP3   OH224719   6.994   3.716   5.180
 8252TIP3    H124720   6.956   3.698   5.093
 8252TIP3    H224721   6.946   3.797   5.206
 8253TIP3   OH224722   6.763   3.640   5.962
 8253TIP3    H124723   6.701   3.708   5.996
 8253TIP3    H224724   6.803   3.685   5.885
 8254TIP3   OH224725   7.545   2.946   5.540
 8254TIP3    H124726   7.507   2.974   5.627
 8254TIP3    H224727   7.630   2.994   5.537
 8255TIP3   OH224728   6.542   2.975   5.930
 8255TIP3    H124729   6.605   3.043   5.962
 8255TIP3    H224730   6.572   2.967   5.837
 8256TIP3   OH224731   6.591   3.835   6.060
 8256TIP3    H124732   6.563   3.922   6.024
 8256TIP3    H224733   6.512   3.816   6.116
 8257TIP3   OH224734   5.978   3.526   5.300
 8257TIP3    H124735   5.940   3.555   5.215
 8257TIP3    H224736   6.013   3.610   5.336
 8258TIP3   OH224737   7.392   4.027   5.507
 8258TIP3    H124738   7.310   4.014   5.560
 8258TIP3    H224739   7.379   4.119   5.478
 8259TIP3   OH224740   6.992   2.589   5.861
 8259TIP3    H124741   7.045   2.555   5.934
 8259TIP3    H224742   6.922   2.638   5.911
 8260TIP3   OH224743   7.122   4.088   5.214
 8260TIP3    H124744   7.168   4.002   5.198
 8260TIP3    H224745   7.188   4.149   5.177
 8261TIP3   OH224746   7.264   3.872   5.127
 8261TIP3    H124747   7.234   3.792   5.082
 8261TIP3    H224748   7.302   3.834   5.209
 8262TIP3   OH224749   7.640   3.949   5.899
 8262TIP3    H124750   7.658   3.864   5.854
 8262TIP3    H224751   7.652   4.009   5.824
 8263TIP3   OH224752   6.939   3.347   5.146
 8263TIP3    H124753   6.860   3.400   5.122
 8263TIP3    H224754   6.987   3.341   5.061
 8264TIP3   OH224755   6.898   3.134   4.850
 8264TIP3    H124756   6.962   3.185   4.903
 8264TIP3    H224757   6.960   3.073   4.805
 8265TIP3   OH224758   7.849   3.583   5.725
 8265TIP3    H124759   7.784   3.655   5.723
 8265TIP3    H224760   7.877   3.576   5.633
 8266TIP3   OH224761   7.287   3.431   5.111
 8266TIP3    H124762   7.232   3.453   5.190
 8266TIP3    H224763   7.368   3.397   5.156
 8267TIP3   OH224764   7.490   3.472   6.006
 8267TIP3    H124765   7.493   3.541   6.075
 8267TIP3    H224766   7.403   3.487   5.966
 8268TIP3   OH224767   6.537   3.396   5.538
 8268TIP3    H124768   6.482   3.361   5.465
 8268TIP3    H224769   6.596   3.319   5.553
 8269TIP3   OH224770   6.654   3.841   5.678
 8269TIP3    H124771   6.630   3.806   5.591
 8269TIP3    H224772   6.741   3.799   5.693
 8270TIP3   OH224773   6.655   3.395   5.889
 8270TIP3    H124774   6.699   3.364   5.809
 8270TIP3    H224775   6.700   3.480   5.907
 8271TIP3   OH224776   7.180   4.041   5.672
 8271TIP3    H124777   7.171   4.116   5.733
 8271TIP3    H224778   7.164   3.963   5.730
 8272TIP3   OH224779   6.794   3.947   6.202
 8272TIP3    H124780   6.726   4.002   6.246
 8272TIP3    H224781   6.736   3.890   6.148
 8273TIP3   OH224782   7.120   3.290   4.943
 8273TIP3    H124783   7.183   3.348   4.991
 8273TIP3    H224784   7.144   3.310   4.849
 8274TIP3   OH224785   6.553   3.508   6.311
 8274TIP3    H124786   6.554   3.594   6.357
 8274TIP3    H224787   6.460   3.482   6.325
 8275TIP3   OH224788   6.873   3.963   5.216
 8275TIP3    H124789   6.956   4.015   5.223
 8275TIP3    H224790   6.813   4.023   5.170
 8276TIP3   OH224791   6.583   4.105   6.287
 8276TIP3    H124792   6.548   4.109   6.196
 8276TIP3    H224793   6.501   4.090   6.339
 8277TIP3   OH224794   6.385   3.276   5.337
 8277TIP3    H124795   6.309   3.306   5.282
 8277TIP3    H224796   6.366   3.183   5.351
 8278TIP3   OH224797   7.439   3.892   4.537
 8278TIP3    H124798   7.439   3.990   4.524
 8278TIP3    H224799   7.531   3.871   4.514
 8279TIP3   OH224800   6.167   3.654   6.243
 8279TIP3    H124801   6.099   3.631   6.177
 8279TIP3    H224802   6.206   3.567   6.266
 8280TIP3   OH224803   6.021   3.845   5.873
 8280TIP3    H124804   6.117   3.839   5.868
 8280TIP3    H224805   6.010   3.922   5.931
 8281TIP3   OH224806   6.998   4.082   6.089
 8281TIP3    H124807   6.974   4.173   6.108
 8281TIP3    H224808   6.919   4.034   6.124
 8282TIP3   OH224809   6.759   4.212   5.018
 8282TIP3    H124810   6.708   4.189   4.939
 8282TIP3    H224811   6.719   4.295   5.047
 8283TIP3   OH224812   6.192   4.059   5.407
 8283TIP3    H124813   6.237   4.049   5.494
 8283TIP3    H224814   6.142   3.975   5.403
 8284TIP3   OH224815   6.955   4.113   4.659
 8284TIP3    H124816   7.012   4.042   4.621
 8284TIP3    H224817   6.991   4.121   4.749
 8285TIP3   OH224818   7.010   4.161   4.930
 8285TIP3    H124819   6.919   4.174   4.966
 8285TIP3    H224820   7.048   4.103   4.998
 8286TIP3   OH224821   6.369   3.839   6.224
 8286TIP3    H124822   6.418   3.816   6.305
 8286TIP3    H224823   6.294   3.775   6.229
 8287TIP3   OH224824   6.769   2.660   6.024
 8287TIP3    H124825   6.680   2.635   5.993
 8287TIP3    H224826   6.749   2.745   6.067
 8288TIP3   OH224827   7.183   3.334   4.685
 8288TIP3    H124828   7.156   3.299   4.598
 8288TIP3    H224829   7.274   3.363   4.666
 8289TIP3   OH224830   6.912   2.705   4.989
 8289TIP3    H124831   6.882   2.703   5.083
 8289TIP3    H224832   6.871   2.622   4.957
 8290TIP3   OH224833   6.696   3.174   6.038
 8290TIP3    H124834   6.648   3.196   6.119
 8290TIP3    H224835   6.680   3.254   5.983
 8291TIP3   OH224836   7.076   3.144   5.278
 8291TIP3    H124837   7.024   3.215   5.235
 8291TIP3    H224838   7.127   3.108   5.202
 8292TIP3   OH224839   7.240   3.175   5.500
 8292TIP3    H124840   7.166   3.190   5.438
 8292TIP3    H224841   7.265   3.086   5.472
 8293TIP3   OH224842   6.522   3.208   6.250
 8293TIP3    H124843   6.563   3.265   6.316
 8293TIP3    H224844   6.512   3.124   6.299
 8294TIP3   OH224845   6.570   2.679   4.949
 8294TIP3    H124846   6.566   2.674   5.047
 8294TIP3    H224847   6.494   2.737   4.930
 8295TIP3   OH224848   6.129   2.716   5.827
 8295TIP3    H124849   6.190   2.762   5.888
 8295TIP3    H224850   6.176   2.727   5.743
 8296TIP3   OH224851   6.073   2.699   5.344
 8296TIP3    H124852   6.125   2.732   5.268
 8296TIP3    H224853   6.019   2.779   5.362
 8297TIP3   OH224854   7.224   3.419   5.927
 8297TIP3    H124855   7.269   3.352   5.870
 8297TIP3    H224856   7.202   3.362   6.004
 8298TIP3   OH224857   6.324   2.901   5.661
 8298TIP3    H124858   6.257   2.928   5.595
 8298TIP3    H224859   6.384   2.843   5.609
 8299TIP3   OH224860   6.621   2.900   5.282
 8299TIP3    H124861   6.685   2.957   5.329
 8299TIP3    H224862   6.568   2.962   5.230
 8300TIP3   OH224863   7.391   2.958   5.779
 8300TIP3    H124864   7.357   2.965   5.871
 8300TIP3    H224865   7.327   2.895   5.742
 8301TIP3   OH224866   6.438   2.995   5.079
 8301TIP3    H124867   6.381   2.936   5.027
 8301TIP3    H224868   6.505   3.020   5.012
 8302TIP3   OH224869   6.522   3.758   6.444
 8302TIP3    H124870   6.605   3.789   6.485
 8302TIP3    H224871   6.465   3.746   6.522
 8303TIP3   OH224872   7.035   3.217   5.737
 8303TIP3    H124873   6.992   3.183   5.657
 8303TIP3    H224874   6.994   3.158   5.802
 8304TIP3   OH224875   6.482   2.705   5.559
 8304TIP3    H124876   6.479   2.632   5.622
 8304TIP3    H224877   6.574   2.711   5.534
 8305TIP3   OH224878   6.963   3.102   6.022
 8305TIP3    H124879   6.873   3.140   6.013
 8305TIP3    H224880   7.020   3.180   6.029
 8306TIP3   OH224881   6.705   3.500   5.090
 8306TIP3    H124882   6.636   3.430   5.079
 8306TIP3    H224883   6.685   3.530   5.182
 8307TIP3   OH224884   7.613   3.736   5.720
 8307TIP3    H124885   7.635   3.777   5.634
 8307TIP3    H224886   7.530   3.689   5.699
 8308TIP3   OH224887   7.164   2.805   4.958
 8308TIP3    H124888   7.067   2.787   4.968
 8308TIP3    H224889   7.172   2.899   4.983
 8309TIP3   OH224890   7.115   3.816   6.093
 8309TIP3    H124891   7.097   3.758   6.168
 8309TIP3    H224892   7.066   3.897   6.115
 8310TIP3   OH224893   7.228   3.056   5.058
 8310TIP3    H124894   7.323   3.063   5.079
 8310TIP3    H224895   7.213   3.136   5.004
 8311TIP3   OH224896   6.410   3.520   5.758
 8311TIP3    H124897   6.452   3.482   5.678
 8311TIP3    H224898   6.449   3.464   5.827
 8312TIP3   OH224899   6.853   3.646   4.915
 8312TIP3    H124900   6.804   3.732   4.919
 8312TIP3    H224901   6.799   3.591   4.976
 8313TIP3   OH224902   6.285   3.443   6.382
 8313TIP3    H124903   6.311   3.428   6.475
 8313TIP3    H224904   6.219   3.373   6.368
 8314TIP3   OH224905   6.994   3.567   6.386
 8314TIP3    H124906   6.941   3.488   6.368
 8314TIP3    H224907   7.081   3.530   6.408
 8315TIP3   OH224908   7.273   4.064   5.992
 8315TIP3    H124909   7.180   4.042   6.006
 8315TIP3    H224910   7.284   4.142   6.047
 8316TIP3   OH224911   7.377   3.955   4.806
 8316TIP3    H124912   7.354   3.884   4.867
 8316TIP3    H224913   7.393   3.909   4.722
 8317TIP3   OH224914   7.363   3.609   5.639
 8317TIP3    H124915   7.271   3.581   5.654
 8317TIP3    H224916   7.395   3.532   5.587
 8318TIP3   OH224917   6.505   3.827   5.400
 8318TIP3    H124918   6.499   3.905   5.341
 8318TIP3    H224919   6.412   3.803   5.408
 8319TIP3   OH224920   6.067   3.126   5.098
 8319TIP3    H124921   6.113   3.209   5.121
 8319TIP3    H224922   5.993   3.129   5.163
 8320TIP3   OH224923   6.631   3.584   5.335
 8320TIP3    H124924   6.598   3.672   5.362
 8320TIP3    H224925   6.612   3.528   5.413
 8321TIP3   OH224926   6.777   4.163   5.861
 8321TIP3    H124927   6.814   4.225   5.794
 8321TIP3    H224928   6.857   4.116   5.887
 8322TIP3   OH224929   6.419   4.066   5.244
 8322TIP3    H124930   6.335   4.073   5.293
 8322TIP3    H224931   6.450   4.158   5.247
 8323TIP3   OH224932   7.159   3.806   5.822
 8323TIP3    H124933   7.158   3.800   5.920
 8323TIP3    H224934   7.235   3.751   5.800
 8324TIP3   OH224935   7.136   3.702   4.706
 8324TIP3    H124936   7.188   3.677   4.786
 8324TIP3    H224937   7.050   3.664   4.730
 8325TIP3   OH224938   7.458   4.165   4.516
 8325TIP3    H124939   7.497   4.234   4.460
 8325TIP3    H224940   7.380   4.214   4.549
 8326TIP3   OH224941   6.476   2.952   6.375
 8326TIP3    H124942   6.380   2.969   6.385
 8326TIP3    H224943   6.491   2.892   6.449
 8327TIP3   OH224944   7.282   3.637   4.927
 8327TIP3    H124945   7.276   3.567   4.995
 8327TIP3    H224946   7.377   3.628   4.904
 8328TIP3   OH224947   6.211   4.026   6.017
 8328TIP3    H124948   6.265   3.957   6.058
 8328TIP3    H224949   6.232   4.102   6.073
 8329TIP3   OH224950   6.498   3.675   4.706
 8329TIP3    H124951   6.512   3.582   4.680
 8329TIP3    H224952   6.477   3.665   4.801
 8330TIP3   OH224953   6.443   3.680   4.978
 8330TIP3    H124954   6.519   3.649   5.029
 8330TIP3    H224955   6.449   3.778   4.988
 8331TIP3   OH224956   6.172   3.369   5.180
 8331TIP3    H124957   6.107   3.415   5.237
 8331TIP3    H224958   6.189   3.437   5.112
 8332TIP3   OH224959   7.291   3.007   6.032
 8332TIP3    H124960   7.357   3.069   6.068
 8332TIP3    H224961   7.251   2.965   6.110
 8333TIP3   OH224962   7.210   2.747   5.239
 8333TIP3    H124963   7.197   2.775   5.146
 8333TIP3    H224964   7.248   2.829   5.279
 8334TIP3   OH224965   6.714   3.878   4.926
 8334TIP3    H124966   6.627   3.900   4.963
 8334TIP3    H224967   6.723   3.949   4.860
 8335TIP3   OH224968   6.898   2.948   5.372
 8335TIP3    H124969   6.964   3.015   5.345
 8335TIP3    H224970   6.860   2.991   5.451
 8336TIP3   OH224971   7.173   3.265   6.144
 8336TIP3    H124972   7.160   3.287   6.237
 8336TIP3    H224973   7.201   3.172   6.146
 8337TIP3   OH224974   7.048   2.655   5.445
 8337TIP3    H124975   7.071   2.716   5.518
 8337TIP3    H224976   7.098   2.697   5.371
 8338TIP3   OH224977   6.461   3.954   4.996
 8338TIP3    H124978   6.429   4.024   4.935
 8338TIP3    H224979   6.442   3.994   5.083
 8339TIP3   OH224980   6.560   2.647   5.219
 8339TIP3    H124981   6.564   2.740   5.251
 8339TIP3    H224982   6.653   2.623   5.237
 8340TIP3   OH224983   7.425   3.382   5.497
 8340TIP3    H124984   7.357   3.313   5.514
 8340TIP3    H224985   7.502   3.347   5.548
 8341TIP3   OH224986   6.176   3.576   4.983
 8341TIP3    H124987   6.250   3.639   4.994
 8341TIP3    H224988   6.218   3.515   4.918
 8342TIP3   OH224989   6.112   2.854   5.120
 8342TIP3    H124990   6.127   2.951   5.119
 8342TIP3    H224991   6.028   2.848   5.073
 8343TIP3   OH224992   7.432   4.315   5.469
 8343TIP3    H124993   7.399   4.360   5.390
 8343TIP3    H224994   7.524   4.297   5.447
 8344TIP3   OH224995   6.500   2.582   5.991
 8344TIP3    H124996   6.474   2.554   5.901
 8344TIP3    H224997   6.486   2.500   6.042
 8345TIP3   OH224998   6.040   3.796   5.367
 8345TIP3    H124999   5.980   3.825   5.437
 8345TIP3    H225000   6.001   3.840   5.287
 8346TIP3   OH225001   6.192   4.317   6.441
 8346TIP3    H125002   6.282   4.284   6.452
 8346TIP3    H225003   6.143   4.233   6.437
 8347TIP3   OH225004   6.694   4.250   6.490
 8347TIP3    H125005   6.763   4.297   6.438
 8347TIP3    H225006   6.650   4.195   6.421
 8348TIP3   OH225007   6.664   3.875   4.615
 8348TIP3    H125008   6.607   3.803   4.653
 8348TIP3    H225009   6.739   3.823   4.583
 8349TIP3   OH225010   7.097   3.914   4.532
 8349TIP3    H125011   7.132   3.846   4.593
 8349TIP3    H225012   7.155   3.906   4.454
 8350TIP3   OH225013   6.327   3.734   6.644
 8350TIP3    H125014   6.347   3.639   6.647
 8350TIP3    H225015   6.243   3.736   6.592
 8351TIP3   OH225016   6.311   3.389   4.842
 8351TIP3    H125017   6.368   3.359   4.916
 8351TIP3    H225018   6.378   3.396   4.771
 8352TIP3   OH225019   6.962   3.837   6.395
 8352TIP3    H125020   6.903   3.856   6.319
 8352TIP3    H225021   6.970   3.739   6.392
 8353TIP3   OH225022   6.827   3.594   4.647
 8353TIP3    H125023   6.828   3.604   4.744
 8353TIP3    H225024   6.827   3.496   4.639
 8354TIP3   OH225025   7.412   3.822   5.988
 8354TIP3    H125026   7.492   3.862   5.948
 8354TIP3    H225027   7.354   3.901   5.991
 8355TIP3   OH225028   6.461   3.479   6.615
 8355TIP3    H125029   6.538   3.425   6.592
 8355TIP3    H225030   6.479   3.498   6.709
 8356TIP3   OH225031   6.513   3.303   5.055
 8356TIP3    H125032   6.486   3.263   5.139
 8356TIP3    H225033   6.552   3.226   5.008
 8357TIP3   OH225034   6.795   3.363   6.286
 8357TIP3    H125035   6.716   3.421   6.290
 8357TIP3    H225036   6.844   3.401   6.209
 8358TIP3   OH225037   6.620   3.096   4.899
 8358TIP3    H125038   6.599   3.105   4.804
 8358TIP3    H225039   6.718   3.093   4.895
 8359TIP3   OH225040   7.281   3.596   6.390
 8359TIP3    H125041   7.323   3.634   6.311
 8359TIP3    H225042   7.262   3.676   6.444
 8360TIP3   OH225043   7.415   3.420   4.564
 8360TIP3    H125044   7.391   3.372   4.483
 8360TIP3    H225045   7.383   3.510   4.540
 8361TIP3   OH225046   6.895   3.145   6.421
 8361TIP3    H125047   6.903   3.072   6.357
 8361TIP3    H225048   6.858   3.217   6.365
 8362TIP3   OH225049   6.909   2.943   6.233
 8362TIP3    H125050   6.933   2.992   6.151
 8362TIP3    H225051   6.817   2.917   6.213
 8363TIP3   OH225052   6.939   3.471   6.086
 8363TIP3    H125053   7.022   3.477   6.037
 8363TIP3    H225054   6.883   3.538   6.041
 8364TIP3   OH225055   7.507   3.682   6.197
 8364TIP3    H125056   7.455   3.730   6.129
 8364TIP3    H225057   7.589   3.735   6.193
 8365TIP3   OH225058   6.716   3.304   6.592
 8365TIP3    H125059   6.693   3.243   6.663
 8365TIP3    H225060   6.795   3.262   6.554
 8366TIP3   OH225061   7.061   2.712   6.186
 8366TIP3    H125062   7.031   2.803   6.206
 8366TIP3    H225063   6.988   2.661   6.221
 8367TIP3   OH225064   6.637   3.034   6.674
 8367TIP3    H125065   6.696   3.009   6.602
 8367TIP3    H225066   6.692   3.019   6.752
 8368TIP3   OH225067   6.431   4.162   4.811
 8368TIP3    H125068   6.524   4.147   4.788
 8368TIP3    H225069   6.401   4.210   4.732
 8369TIP3   OH225070   5.906   3.539   5.019
 8369TIP3    H125071   6.001   3.559   5.005
 8369TIP3    H225072   5.900   3.449   4.980
 8370TIP3   OH225073   5.825   4.150   5.440
 8370TIP3    H125074   5.760   4.089   5.398
 8370TIP3    H225075   5.869   4.089   5.503
 8371TIP3   OH225076   5.957   3.992   5.626
 8371TIP3    H125077   5.944   3.924   5.694
 8371TIP3    H225078   6.010   4.057   5.676
 8372TIP3   OH225079   7.549   3.620   4.885
 8372TIP3    H125080   7.603   3.700   4.870
 8372TIP3    H225081   7.591   3.584   4.966
 8373TIP3   OH225082   7.654   3.514   5.115
 8373TIP3    H125083   7.597   3.440   5.145
 8373TIP3    H225084   7.655   3.568   5.195
 8374TIP3   OH225085   7.724   3.854   5.499
 8374TIP3    H125086   7.807   3.809   5.471
 8374TIP3    H225087   7.729   3.934   5.446
 8375TIP3   OH225088   7.564   4.128   5.696
 8375TIP3    H125089   7.476   4.139   5.735
 8375TIP3    H225090   7.541   4.069   5.622
 8376TIP3   OH225091   7.609   3.381   4.754
 8376TIP3    H125092   7.539   3.375   4.686
 8376TIP3    H225093   7.582   3.462   4.800
 8377TIP3   OH225094   7.424   3.070   4.722
 8377TIP3    H125095   7.509   3.096   4.683
 8377TIP3    H225096   7.432   2.973   4.721
 8378TIP3   OH225097   7.505   3.327   5.243
 8378TIP3    H125098   7.510   3.230   5.247
 8378TIP3    H225099   7.483   3.350   5.336
 8379TIP3   OH225100   6.140   3.407   5.996
 8379TIP3    H125101   6.138   3.370   5.905
 8379TIP3    H225102   6.237   3.407   6.013
 8380TIP3   OH225103   7.455   2.793   4.724
 8380TIP3    H125104   7.521   2.723   4.734
 8380TIP3    H225105   7.377   2.744   4.694
 8381TIP3   OH225106   7.500   3.049   5.161
 8381TIP3    H125107   7.538   2.960   5.179
 8381TIP3    H225108   7.562   3.084   5.095
 8382TIP3   OH225109   7.649   3.294   5.613
 8382TIP3    H125110   7.709   3.219   5.593
 8382TIP3    H225111   7.686   3.330   5.695
 8383TIP3   OH225112   7.722   3.394   5.869
 8383TIP3    H125113   7.639   3.440   5.897
 8383TIP3    H225114   7.775   3.468   5.830
 8384TIP3   OH225115   6.359   3.084   6.659
 8384TIP3    H125116   6.457   3.083   6.667
 8384TIP3    H225117   6.335   3.003   6.708
 8385TIP3   OH225118   7.597   2.794   5.207
 8385TIP3    H125119   7.644   2.745   5.277
 8385TIP3    H225120   7.532   2.724   5.183
 8386TIP3   OH225121   6.324   2.797   6.012
 8386TIP3    H125122   6.382   2.719   6.013
 8386TIP3    H225123   6.386   2.865   5.980
 8387TIP3   OH225124   6.119   3.058   6.071
 8387TIP3    H125125   6.174   3.056   5.990
 8387TIP3    H225126   6.149   3.139   6.112
 8388TIP3   OH225127   6.103   2.540   5.561
 8388TIP3    H125128   6.018   2.556   5.603
 8388TIP3    H225129   6.106   2.611   5.493
 8389TIP3   OH225130   7.283   4.276   5.085
 8389TIP3    H125131   7.289   4.242   4.993
 8389TIP3    H225132   7.375   4.303   5.095
 8390TIP3   OH225133   6.328   2.641   6.386
 8390TIP3    H125134   6.278   2.639   6.469
 8390TIP3    H225135   6.265   2.687   6.328
 8391TIP3   OH225136   6.366   4.081   6.465
 8391TIP3    H125137   6.273   4.057   6.448
 8391TIP3    H225138   6.383   4.036   6.549
 8392TIP3   OH225139   6.548   4.104   6.005
 8392TIP3    H125140   6.496   4.178   5.966
 8392TIP3    H225141   6.634   4.121   5.960
 8393TIP3   OH225142   6.220   4.360   6.038
 8393TIP3    H125143   6.130   4.393   6.017
 8393TIP3    H225144   6.236   4.407   6.121
 8394TIP3   OH225145   6.451   4.333   5.891
 8394TIP3    H125146   6.365   4.349   5.937
 8394TIP3    H225147   6.432   4.372   5.803
 8395TIP3   OH225148   6.877   4.317   5.656
 8395TIP3    H125149   6.806   4.331   5.590
 8395TIP3    H225150   6.885   4.409   5.691
 8396TIP3   OH225151   7.148   4.312   5.769
 8396TIP3    H125152   7.064   4.314   5.719
 8396TIP3    H225153   7.198   4.384   5.727
 8397TIP3   OH225154   7.322   4.503   5.642
 8397TIP3    H125155   7.386   4.576   5.632
 8397TIP3    H225156   7.358   4.434   5.582
 8398TIP3   OH225157   6.134   4.153   5.778
 8398TIP3    H125158   6.158   4.125   5.869
 8398TIP3    H225159   6.206   4.109   5.729
 8399TIP3   OH225160   6.329   4.025   5.641
 8399TIP3    H125161   6.344   3.941   5.691
 8399TIP3    H225162   6.421   4.059   5.635
 8400TIP3   OH225163   6.597   4.118   5.640
 8400TIP3    H125164   6.627   4.025   5.632
 8400TIP3    H225165   6.639   4.141   5.725
 8401TIP3   OH225166   7.155   2.770   5.690
 8401TIP3    H125167   7.115   2.722   5.764
 8401TIP3    H225168   7.244   2.729   5.682
 8402TIP3   OH225169   7.691   2.705   5.603
 8402TIP3    H125170   7.748   2.783   5.594
 8402TIP3    H225171   7.610   2.746   5.637
 8403TIP3   OH225172   6.417   2.485   5.751
 8403TIP3    H125173   6.322   2.459   5.750
 8403TIP3    H225174   6.460   2.399   5.733
 8404TIP3   OH225175   6.204   2.351   5.388
 8404TIP3    H125176   6.239   2.411   5.320
 8404TIP3    H225177   6.176   2.416   5.457
 8405TIP3   OH225178   6.870   2.512   5.625
 8405TIP3    H125179   6.915   2.567   5.558
 8405TIP3    H225180   6.911   2.546   5.707
 8406TIP3   OH225181   7.394   2.676   5.610
 8406TIP3    H125182   7.406   2.704   5.518
 8406TIP3    H225183   7.397   2.580   5.606
 8407TIP3   OH225184   7.424   2.585   5.193
 8407TIP3    H125185   7.337   2.629   5.202
 8407TIP3    H225186   7.403   2.493   5.217
 8408TIP3   OH225187   5.920   3.933   5.167
 8408TIP3    H125188   5.834   3.899   5.136
 8408TIP3    H225189   5.912   4.026   5.138
 8409TIP3   OH225190   6.324   2.510   5.154
 8409TIP3    H125191   6.374   2.451   5.096
 8409TIP3    H225192   6.397   2.564   5.192
 8410TIP3   OH225193   6.843   2.691   5.256
 8410TIP3    H125194   6.908   2.663   5.323
 8410TIP3    H225195   6.834   2.785   5.281
 8411TIP3   OH225196   6.695   4.109   4.752
 8411TIP3    H125197   6.783   4.132   4.716
 8411TIP3    H225198   6.672   4.035   4.691
 8412TIP3   OH225199   7.393   4.220   4.843
 8412TIP3    H125200   7.391   4.122   4.831
 8412TIP3    H225201   7.355   4.250   4.758
 8413TIP3   OH225202   5.998   3.948   4.806
 8413TIP3    H125203   6.000   3.965   4.901
 8413TIP3    H225204   6.085   3.905   4.791
 8414TIP3   OH225205   7.737   3.812   4.847
 8414TIP3    H125206   7.759   3.810   4.751
 8414TIP3    H225207   7.781   3.894   4.873
 8415TIP3   OH225208   7.792   4.127   5.383
 8415TIP3    H125209   7.886   4.141   5.405
 8415TIP3    H225210   7.748   4.162   5.461
 8416TIP3   OH225211   7.826   4.078   4.878
 8416TIP3    H125212   7.733   4.101   4.863
 8416TIP3    H225213   7.867   4.160   4.845
 8417TIP3   OH225214   7.580   4.396   4.943
 8417TIP3    H125215   7.532   4.329   4.891
 8417TIP3    H225216   7.648   4.341   4.986
 8418TIP3   OH225217   7.729   4.255   5.133
 8418TIP3    H125218   7.747   4.195   5.207
 8418TIP3    H225219   7.801   4.319   5.137
 8419TIP3   OH225220   7.682   4.216   4.677
 8419TIP3    H125221   7.600   4.176   4.641
 8419TIP3    H225222   7.678   4.301   4.629
 8420TIP3   OH225223   1.363   4.541   6.489
 8420TIP3    H125224   1.328   4.630   6.467
 8420TIP3    H225225   1.285   4.486   6.470
 8421TIP3   OH225226   1.362   4.544   6.863
 8421TIP3    H125227   1.387   4.531   6.957
 8421TIP3    H225228   1.313   4.462   6.844
 8422TIP3   OH225229   1.604   4.843   6.556
 8422TIP3    H125230   1.586   4.773   6.620
 8422TIP3    H225231   1.635   4.916   6.612
 8423TIP3   OH225232   1.254   5.300   6.578
 8423TIP3    H125233   1.294   5.233   6.518
 8423TIP3    H225234   1.257   5.252   6.662
 8424TIP3   OH225235   1.165   4.769   6.912
 8424TIP3    H125236   1.201   4.687   6.875
 8424TIP3    H225237   1.248   4.811   6.941
 8425TIP3   OH225238   2.184   4.086   6.906
 8425TIP3    H125239   2.206   4.171   6.949
 8425TIP3    H225240   2.209   4.104   6.813
 8426TIP3   OH225241   1.560   4.253   6.948
 8426TIP3    H125242   1.604   4.169   6.974
 8426TIP3    H225243   1.536   4.233   6.855
 8427TIP3   OH225244   0.931   3.915   6.914
 8427TIP3    H125245   0.896   3.997   6.877
 8427TIP3    H225246   0.862   3.852   6.886
 8428TIP3   OH225247   1.606   4.019   6.533
 8428TIP3    H125248   1.674   4.004   6.603
 8428TIP3    H225249   1.662   4.050   6.460
 8429TIP3   OH225250   0.994   4.324   6.801
 8429TIP3    H125251   1.086   4.296   6.820
 8429TIP3    H225252   0.950   4.239   6.780
 8430TIP3   OH225253   2.243   4.290   7.089
 8430TIP3    H125254   2.162   4.341   7.068
 8430TIP3    H225255   2.273   4.335   7.171
 8431TIP3   OH225256   1.239   4.757   6.360
 8431TIP3    H125257   1.191   4.746   6.277
 8431TIP3    H225258   1.199   4.839   6.393
 8432TIP3   OH225259   0.919   4.717   7.057
 8432TIP3    H125260   0.897   4.779   7.128
 8432TIP3    H225261   1.015   4.728   7.048
 8433TIP3   OH225262   1.801   4.024   6.721
 8433TIP3    H125263   1.836   3.958   6.782
 8433TIP3    H225264   1.853   4.104   6.744
 8434TIP3   OH225265   1.671   5.088   6.717
 8434TIP3    H125266   1.582   5.076   6.756
 8434TIP3    H225267   1.661   5.174   6.673
 8435TIP3   OH225268   1.973   3.993   7.060
 8435TIP3    H125269   1.890   4.033   7.029
 8435TIP3    H225270   2.038   4.025   6.994
 8436TIP3   OH225271   1.365   5.131   6.387
 8436TIP3    H125272   1.415   5.048   6.372
 8436TIP3    H225273   1.430   5.195   6.349
 8437TIP3   OH225274   1.511   4.915   6.307
 8437TIP3    H125275   1.491   4.833   6.261
 8437TIP3    H225276   1.550   4.882   6.391
 8438TIP3   OH225277   1.895   4.992   7.065
 8438TIP3    H125278   1.884   4.915   7.004
 8438TIP3    H225279   1.875   5.067   7.005
 8439TIP3   OH225280   1.195   4.377   6.335
 8439TIP3    H125281   1.113   4.430   6.320
 8439TIP3    H225282   1.234   4.380   6.247
 8440TIP3   OH225283   2.097   4.641   6.913
 8440TIP3    H125284   2.009   4.686   6.919
 8440TIP3    H225285   2.121   4.663   6.821
 8441TIP3   OH225286   1.533   4.467   6.290
 8441TIP3    H125287   1.483   4.490   6.372
 8441TIP3    H225288   1.620   4.440   6.330
 8442TIP3   OH225289   1.792   4.535   7.158
 8442TIP3    H125290   1.791   4.592   7.237
 8442TIP3    H225291   1.707   4.559   7.116
 8443TIP3   OH225292   0.786   4.464   6.694
 8443TIP3    H125293   0.759   4.406   6.619
 8443TIP3    H225294   0.865   4.416   6.729
 8444TIP3   OH225295   0.913   4.917   6.839
 8444TIP3    H125296   0.876   4.864   6.767
 8444TIP3    H225297   0.979   4.857   6.878
 8445TIP3   OH225298   0.915   4.441   7.047
 8445TIP3    H125299   0.965   4.421   6.967
 8445TIP3    H225300   0.926   4.538   7.057
 8446TIP3   OH225301   1.429   5.074   6.835
 8446TIP3    H125302   1.422   5.158   6.884
 8446TIP3    H225303   1.410   5.006   6.902
 8447TIP3   OH225304   1.356   4.405   6.107
 8447TIP3    H125305   1.409   4.417   6.178
 8447TIP3    H225306   1.415   4.342   6.050
 8448TIP3   OH225307   1.118   5.009   6.395
 8448TIP3    H125308   1.204   5.056   6.401
 8448TIP3    H225309   1.063   5.073   6.350
 8449TIP3   OH225310   1.896   3.567   6.170
 8449TIP3    H125311   1.811   3.588   6.213
 8449TIP3    H225312   1.911   3.649   6.117
 8450TIP3   OH225313   0.671   4.329   6.475
 8450TIP3    H125314   0.609   4.363   6.409
 8450TIP3    H225315   0.613   4.271   6.528
 8451TIP3   OH225316   1.697   4.931   5.726
 8451TIP3    H125317   1.705   5.026   5.702
 8451TIP3    H225318   1.789   4.900   5.710
 8452TIP3   OH225319   2.145   5.333   7.112
 8452TIP3    H125320   2.145   5.238   7.134
 8452TIP3    H225321   2.056   5.358   7.145
 8453TIP3   OH225322   1.243   5.150   7.206
 8453TIP3    H125323   1.259   5.246   7.197
 8453TIP3    H225324   1.185   5.143   7.284
 8454TIP3   OH225325   1.004   5.257   6.194
 8454TIP3    H125326   0.957   5.242   6.110
 8454TIP3    H225327   0.996   5.353   6.206
 8455TIP3   OH225328   1.204   5.156   5.835
 8455TIP3    H125329   1.264   5.087   5.799
 8455TIP3    H225330   1.238   5.165   5.927
 8456TIP3   OH225331   1.255   5.201   6.104
 8456TIP3    H125332   1.167   5.211   6.147
 8456TIP3    H225333   1.307   5.164   6.177
 8457TIP3   OH225334   2.060   4.487   7.313
 8457TIP3    H125335   1.966   4.499   7.333
 8457TIP3    H225336   2.062   4.390   7.301
 8458TIP3   OH225337   1.423   4.407   5.837
 8458TIP3    H125338   1.402   4.351   5.761
 8458TIP3    H225339   1.519   4.414   5.829
 8459TIP3   OH225340   1.155   3.752   6.164
 8459TIP3    H125341   1.118   3.739   6.253
 8459TIP3    H225342   1.132   3.667   6.123
 8460TIP3   OH225343   0.845   4.105   6.726
 8460TIP3    H125344   0.751   4.081   6.735
 8460TIP3    H225345   0.862   4.066   6.638
 8461TIP3   OH225346   1.332   4.181   6.462
 8461TIP3    H125347   1.279   4.252   6.420
 8461TIP3    H225348   1.389   4.154   6.386
 8462TIP3   OH225349   1.481   4.213   6.690
 8462TIP3    H125350   1.419   4.238   6.618
 8462TIP3    H225351   1.519   4.135   6.645
 8463TIP3   OH225352   0.823   3.727   6.131
 8463TIP3    H125353   0.811   3.724   6.228
 8463TIP3    H225354   0.743   3.777   6.105
 8464TIP3   OH225355   1.517   4.476   7.093
 8464TIP3    H125356   1.533   4.403   7.028
 8464TIP3    H225357   1.557   4.434   7.172
 8465TIP3   OH225358   1.171   3.919   6.777
 8465TIP3    H125359   1.090   3.924   6.832
 8465TIP3    H225360   1.242   3.921   6.844
 8466TIP3   OH225361   0.604   3.975   6.737
 8466TIP3    H125362   0.516   3.943   6.760
 8466TIP3    H225363   0.654   3.892   6.739
 8467TIP3   OH225364   0.860   3.969   6.485
 8467TIP3    H125365   0.954   3.987   6.464
 8467TIP3    H225366   0.812   3.998   6.404
 8468TIP3   OH225367   1.643   3.999   7.009
 8468TIP3    H125368   1.576   3.976   7.077
 8468TIP3    H225369   1.614   3.943   6.936
 8469TIP3   OH225370   0.710   4.011   6.258
 8469TIP3    H125371   0.650   3.960   6.200
 8469TIP3    H225372   0.765   4.054   6.189
 8470TIP3   OH225373   1.254   4.259   6.866
 8470TIP3    H125374   1.324   4.228   6.807
 8470TIP3    H225375   1.287   4.232   6.953
 8471TIP3   OH225376   0.768   3.742   6.757
 8471TIP3    H125377   0.783   3.648   6.772
 8471TIP3    H225378   0.810   3.756   6.671
 8472TIP3   OH225379   0.979   4.524   6.258
 8472TIP3    H125380   0.899   4.470   6.238
 8472TIP3    H225381   0.955   4.562   6.346
 8473TIP3   OH225382   1.857   4.779   6.894
 8473TIP3    H125383   1.880   4.830   6.814
 8473TIP3    H225384   1.774   4.734   6.867
 8474TIP3   OH225385   1.409   3.850   6.155
 8474TIP3    H125386   1.315   3.824   6.147
 8474TIP3    H225387   1.405   3.947   6.153
 8475TIP3   OH225388   1.488   4.125   6.236
 8475TIP3    H125389   1.580   4.107   6.264
 8475TIP3    H225390   1.502   4.157   6.146
 8476TIP3   OH225391   0.667   4.492   6.949
 8476TIP3    H125392   0.704   4.494   6.858
 8476TIP3    H225393   0.751   4.480   7.000
 8477TIP3   OH225394   1.120   4.662   6.067
 8477TIP3    H125395   1.073   4.748   6.063
 8477TIP3    H225396   1.062   4.614   6.130
 8478TIP3   OH225397   1.507   5.107   7.156
 8478TIP3    H125398   1.410   5.105   7.167
 8478TIP3    H225399   1.529   5.190   7.202
 8479TIP3   OH225400   1.925   4.198   6.070
 8479TIP3    H125401   1.849   4.153   6.026
 8479TIP3    H225402   1.935   4.270   6.004
 8480TIP3   OH225403   2.152   5.041   7.142
 8480TIP3    H125404   2.054   5.045   7.137
 8480TIP3    H225405   2.174   5.014   7.050
 8481TIP3   OH225406   1.617   5.011   5.980
 8481TIP3    H125407   1.622   4.938   6.043
 8481TIP3    H225408   1.645   4.969   5.896
 8482TIP3   OH225409   1.622   4.645   6.808
 8482TIP3    H125410   1.528   4.617   6.819
 8482TIP3    H225411   1.658   4.565   6.765
 8483TIP3   OH225412   0.801   4.851   6.580
 8483TIP3    H125413   0.837   4.930   6.538
 8483TIP3    H225414   0.707   4.856   6.554
 8484TIP3   OH225415   0.909   4.615   6.499
 8484TIP3    H125416   0.892   4.706   6.531
 8484TIP3    H225417   0.873   4.565   6.574
 8485TIP3   OH225418   1.047   5.206   7.012
 8485TIP3    H125419   1.106   5.272   6.971
 8485TIP3    H225420   1.112   5.148   7.057
 8486TIP3   OH225421   1.419   4.842   6.997
 8486TIP3    H125422   1.445   4.841   7.090
 8486TIP3    H225423   1.489   4.788   6.957
 8487TIP3   OH225424   1.349   4.686   5.917
 8487TIP3    H125425   1.428   4.699   5.975
 8487TIP3    H225426   1.284   4.744   5.961
 8488TIP3   OH225427   1.655   5.376   7.043
 8488TIP3    H125428   1.563   5.343   7.043
 8488TIP3    H225429   1.647   5.441   6.969
 8489TIP3   OH225430   1.723   5.209   5.699
 8489TIP3    H125431   1.761   5.283   5.648
 8489TIP3    H225432   1.642   5.254   5.733
 8490TIP3   OH225433   1.540   4.672   6.102
 8490TIP3    H125434   1.537   4.605   6.173
 8490TIP3    H225435   1.639   4.678   6.092
 8491TIP3   OH225436   0.768   4.706   5.866
 8491TIP3    H125437   0.771   4.611   5.843
 8491TIP3    H225438   0.768   4.700   5.965
 8492TIP3   OH225439   0.752   4.699   6.136
 8492TIP3    H125440   0.761   4.659   6.222
 8492TIP3    H225441   0.680   4.764   6.152
 8493TIP3   OH225442   1.452   3.804   6.426
 8493TIP3    H125443   1.440   3.819   6.329
 8493TIP3    H225444   1.496   3.886   6.454
 8494TIP3   OH225445   0.996   4.906   6.084
 8494TIP3    H125446   0.910   4.900   6.129
 8494TIP3    H225447   0.988   4.994   6.045
 8495TIP3   OH225448   1.139   3.990   6.515
 8495TIP3    H125449   1.209   4.057   6.499
 8495TIP3    H225450   1.150   3.975   6.611
 8496TIP3   OH225451   1.286   3.700   6.617
 8496TIP3    H125452   1.279   3.779   6.674
 8496TIP3    H225453   1.349   3.734   6.548
 8497TIP3   OH225454   0.741   4.990   6.165
 8497TIP3    H125455   0.687   5.010   6.086
 8497TIP3    H225456   0.704   5.051   6.230
 8498TIP3   OH225457   0.801   3.710   6.409
 8498TIP3    H125458   0.806   3.804   6.438
 8498TIP3    H225459   0.897   3.688   6.413
 8499TIP3   OH225460   2.040   4.212   7.292
 8499TIP3    H125461   1.952   4.176   7.269
 8499TIP3    H225462   2.089   4.199   7.210
 8500TIP3   OH225463   1.709   4.397   6.694
 8500TIP3    H125464   1.632   4.338   6.705
 8500TIP3    H225465   1.779   4.347   6.741
 8501TIP3   OH225466   1.678   5.360   6.641
 8501TIP3    H125467   1.635   5.408   6.567
 8501TIP3    H225468   1.772   5.379   6.619
 8502TIP3   OH225469   0.921   4.922   5.788
 8502TIP3    H125470   0.862   4.851   5.824
 8502TIP3    H225471   0.997   4.870   5.757
 8503TIP3   OH225472   1.539   5.297   7.362
 8503TIP3    H125473   1.563   5.212   7.406
 8503TIP3    H225474   1.629   5.336   7.365
 8504TIP3   OH225475   1.348   4.961   5.700
 8504TIP3    H125476   1.403   4.896   5.746
 8504TIP3    H225477   1.395   4.961   5.613
 8505TIP3   OH225478   0.587   4.446   6.003
 8505TIP3    H125479   0.625   4.422   6.089
 8505TIP3    H225480   0.663   4.430   5.945
 8506TIP3   OH225481   1.669   4.895   7.200
 8506TIP3    H125482   1.751   4.925   7.156
 8506TIP3    H225483   1.612   4.974   7.185
 8507TIP3   OH225484   0.766   4.349   6.215
 8507TIP3    H125485   0.756   4.319   6.307
 8507TIP3    H225486   0.803   4.270   6.171
 8508TIP3   OH225487   0.865   4.128   6.071
 8508TIP3    H125488   0.836   4.144   5.978
 8508TIP3    H225489   0.948   4.081   6.055
 8509TIP3   OH225490   1.806   4.724   7.359
 8509TIP3    H125491   1.752   4.789   7.308
 8509TIP3    H225492   1.897   4.753   7.335
 8510TIP3   OH225493   0.694   5.237   6.016
 8510TIP3    H125494   0.777   5.194   5.984
 8510TIP3    H225495   0.662   5.277   5.933
 8511TIP3   OH225496   1.934   5.446   6.601
 8511TIP3    H125497   1.960   5.477   6.690
 8511TIP3    H225498   2.005   5.480   6.544
 8512TIP3   OH225499   1.960   5.461   6.882
 8512TIP3    H125500   1.914   5.374   6.880
 8512TIP3    H225501   2.041   5.437   6.928
 8513TIP3   OH225502   2.028   5.184   7.374
 8513TIP3    H125503   1.957   5.150   7.431
 8513TIP3    H225504   2.082   5.236   7.436
 8514TIP3   OH225505   1.809   4.678   6.091
 8514TIP3    H125506   1.881   4.720   6.040
 8514TIP3    H225507   1.860   4.616   6.147
 8515TIP3   OH225508   1.952   4.516   6.275
 8515TIP3    H125509   1.882   4.477   6.331
 8515TIP3    H225510   2.011   4.559   6.341
 8516TIP3   OH225511   2.011   4.917   6.709
 8516TIP3    H125512   2.060   4.846   6.663
 8516TIP3    H225513   2.008   4.988   6.642
 8517TIP3   OH225514   1.833   5.213   6.904
 8517TIP3    H125515   1.757   5.253   6.949
 8517TIP3    H225516   1.790   5.166   6.829
 8518TIP3   OH225517   1.725   4.102   5.913
 8518TIP3    H125518   1.767   4.159   5.845
 8518TIP3    H225519   1.713   4.017   5.865
 8519TIP3   OH225520   1.760   4.382   6.423
 8519TIP3    H125521   1.770   4.286   6.412
 8519TIP3    H225522   1.747   4.392   6.519
 8520TIP3   OH225523   2.055   4.808   7.276
 8520TIP3    H125524   2.134   4.751   7.275
 8520TIP3    H225525   2.078   4.877   7.212
 8521TIP3   OH225526   2.277   4.638   7.298
 8521TIP3    H125527   2.191   4.591   7.313
 8521TIP3    H225528   2.335   4.560   7.307
 8522TIP3   OH225529   1.708   3.824   5.843
 8522TIP3    H125530   1.769   3.801   5.915
 8522TIP3    H225531   1.628   3.771   5.866
 8523TIP3   OH225532   1.762   4.096   6.314
 8523TIP3    H125533   1.802   4.007   6.327
 8523TIP3    H225534   1.818   4.129   6.242
 8524TIP3   OH225535   1.922   4.259   6.811
 8524TIP3    H125536   2.008   4.283   6.769
 8524TIP3    H225537   1.936   4.303   6.898
 8525TIP3   OH225538   1.999   4.408   7.030
 8525TIP3    H125539   1.925   4.444   7.083
 8525TIP3    H225540   2.033   4.492   6.991
 8526TIP3   OH225541   1.868   3.847   6.359
 8526TIP3    H125542   1.917   3.827   6.441
 8526TIP3    H225543   1.807   3.770   6.354
 8527TIP3   OH225544   1.953   3.776   6.000
 8527TIP3    H125545   1.988   3.711   5.935
 8527TIP3    H225546   2.015   3.851   5.988
 8528TIP3   OH225547   1.513   5.316   6.255
 8528TIP3    H125548   1.565   5.304   6.172
 8528TIP3    H225549   1.570   5.377   6.305
 8529TIP3   OH225550   2.230   3.907   7.252
 8529TIP3    H125551   2.142   3.947   7.244
 8529TIP3    H225552   2.207   3.814   7.268
 8530TIP3   OH225553   1.161   5.424   6.887
 8530TIP3    H125554   1.083   5.417   6.827
 8530TIP3    H225555   1.137   5.501   6.941
 8531TIP3   OH225556   1.417   5.337   6.909
 8531TIP3    H125557   1.324   5.368   6.909
 8531TIP3    H225558   1.461   5.413   6.867
 8532TIP3   OH225559   1.607   5.540   6.835
 8532TIP3    H125560   1.593   5.625   6.787
 8532TIP3    H225561   1.635   5.481   6.762
 8533TIP3   OH225562   0.839   5.171   6.841
 8533TIP3    H125563   0.856   5.075   6.824
 8533TIP3    H225564   0.915   5.187   6.902
 8534TIP3   OH225565   1.424   3.836   6.893
 8534TIP3    H125566   1.399   3.775   6.964
 8534TIP3    H225567   1.496   3.788   6.848
 8535TIP3   OH225568   1.938   3.716   6.821
 8535TIP3    H125569   1.973   3.755   6.738
 8535TIP3    H225570   1.842   3.715   6.804
 8536TIP3   OH225571   2.033   3.796   6.578
 8536TIP3    H125572   2.105   3.744   6.536
 8536TIP3    H225573   2.067   3.887   6.561
 8537TIP3   OH225574   0.479   3.424   6.588
 8537TIP3    H125575   0.509   3.466   6.505
 8537TIP3    H225576   0.384   3.438   6.587
 8538TIP3   OH225577   1.111   3.559   6.807
 8538TIP3    H125578   1.165   3.597   6.735
 8538TIP3    H225579   1.104   3.633   6.869
 8539TIP3   OH225580   1.655   3.710   6.781
 8539TIP3    H125581   1.658   3.670   6.693
 8539TIP3    H225582   1.634   3.631   6.836
 8540TIP3   OH225583   1.690   3.632   6.352
 8540TIP3    H125584   1.599   3.664   6.347
 8540TIP3    H225585   1.677   3.546   6.397
 8541TIP3   OH225586   0.571   3.551   6.339
 8541TIP3    H125587   0.615   3.487   6.279
 8541TIP3    H225588   0.647   3.605   6.369
 8542TIP3   OH225589   1.077   3.736   6.432
 8542TIP3    H125590   1.144   3.687   6.484
 8542TIP3    H225591   1.103   3.828   6.454
 8543TIP3   OH225592   0.941   5.156   5.925
 8543TIP3    H125593   1.031   5.178   5.891
 8543TIP3    H225594   0.923   5.076   5.869
 8544TIP3   OH225595   1.660   5.277   6.025
 8544TIP3    H125596   1.649   5.179   6.016
 8544TIP3    H225597   1.617   5.307   5.942
 8545TIP3   OH225598   1.894   5.430   7.168
 8545TIP3    H125599   1.811   5.397   7.129
 8545TIP3    H225600   1.895   5.521   7.135
 8546TIP3   OH225601   3.156   4.797   5.972
 8546TIP3    H125602   3.122   4.886   5.949
 8546TIP3    H225603   3.082   4.742   5.938
 8547TIP3   OH225604   3.159   4.796   6.361
 8547TIP3    H125605   3.191   4.769   6.449
 8547TIP3    H225606   3.115   4.715   6.331
 8548TIP3   OH225607   2.450   4.687   6.724
 8548TIP3    H125608   2.480   4.617   6.784
 8548TIP3    H225609   2.533   4.735   6.708
 8549TIP3   OH225610   3.406   5.096   6.042
 8549TIP3    H125611   3.377   5.032   6.108
 8549TIP3    H225612   3.431   5.173   6.096
 8550TIP3   OH225613   2.427   5.102   6.446
 8550TIP3    H125614   2.420   5.004   6.446
 8550TIP3    H225615   2.524   5.112   6.435
 8551TIP3   OH225616   2.130   4.296   6.226
 8551TIP3    H125617   2.081   4.378   6.244
 8551TIP3    H225618   2.061   4.248   6.175
 8552TIP3   OH225619   2.188   4.590   6.412
 8552TIP3    H125620   2.238   4.511   6.441
 8552TIP3    H225621   2.237   4.617   6.333
 8553TIP3   OH225622   3.053   5.560   6.060
 8553TIP3    H125623   3.092   5.489   6.004
 8553TIP3    H225624   3.040   5.513   6.143
 8554TIP3   OH225625   2.950   5.023   6.407
 8554TIP3    H125626   2.989   4.946   6.361
 8554TIP3    H225627   3.033   5.068   6.433
 8555TIP3   OH225628   3.969   4.340   6.407
 8555TIP3    H125629   3.998   4.423   6.451
 8555TIP3    H225630   3.971   4.365   6.314
 8556TIP3   OH225631   3.368   4.520   6.433
 8556TIP3    H125632   3.407   4.433   6.454
 8556TIP3    H225633   3.332   4.502   6.344
 8557TIP3   OH225634   2.710   4.179   6.399
 8557TIP3    H125635   2.687   4.252   6.337
 8557TIP3    H225636   2.661   4.105   6.357
 8558TIP3   OH225637   3.401   4.276   6.021
 8558TIP3    H125638   3.472   4.259   6.087
 8558TIP3    H225639   3.454   4.308   5.946
 8559TIP3   OH225640   2.336   4.380   6.510
 8559TIP3    H125641   2.420   4.361   6.557
 8559TIP3    H225642   2.349   4.325   6.430
 8560TIP3   OH225643   2.774   4.578   6.311
 8560TIP3    H125644   2.868   4.555   6.319
 8560TIP3    H225645   2.736   4.495   6.274
 8561TIP3   OH225646   4.042   4.551   6.571
 8561TIP3    H125647   3.955   4.595   6.557
 8561TIP3    H225648   4.058   4.575   6.664
 8562TIP3   OH225649   2.700   4.164   6.836
 8562TIP3    H125650   2.643   4.200   6.765
 8562TIP3    H225651   2.643   4.182   6.914
 8563TIP3   OH225652   3.041   5.015   5.843
 8563TIP3    H125653   3.001   5.001   5.756
 8563TIP3    H225654   2.995   5.096   5.873
 8564TIP3   OH225655   2.807   4.941   6.628
 8564TIP3    H125656   2.748   5.011   6.664
 8564TIP3    H225657   2.849   4.987   6.552
 8565TIP3   OH225658   3.604   4.279   6.202
 8565TIP3    H125659   3.583   4.232   6.284
 8565TIP3    H225660   3.655   4.355   6.233
 8566TIP3   OH225661   2.574   4.278   6.618
 8566TIP3    H125662   2.636   4.350   6.642
 8566TIP3    H225663   2.622   4.239   6.542
 8567TIP3   OH225664   2.638   5.139   6.731
 8567TIP3    H125665   2.611   5.225   6.693
 8567TIP3    H225666   2.558   5.120   6.785
 8568TIP3   OH225667   2.016   4.819   5.961
 8568TIP3    H125668   1.985   4.843   5.872
 8568TIP3    H225669   2.057   4.901   5.992
 8569TIP3   OH225670   3.467   5.343   6.203
 8569TIP3    H125671   3.378   5.334   6.244
 8569TIP3    H225672   3.458   5.429   6.158
 8570TIP3   OH225673   3.759   4.239   6.572
 8570TIP3    H125674   3.671   4.262   6.537
 8570TIP3    H225675   3.819   4.271   6.502
 8571TIP3   OH225676   3.052   3.880   6.555
 8571TIP3    H125677   3.034   3.785   6.569
 8571TIP3    H225678   2.975   3.920   6.601
 8572TIP3   OH225679   3.164   5.386   5.875
 8572TIP3    H125680   3.214   5.302   5.858
 8572TIP3    H225681   3.229   5.450   5.837
 8573TIP3   OH225682   3.310   5.170   5.793
 8573TIP3    H125683   3.273   5.091   5.752
 8573TIP3    H225684   3.350   5.134   5.875
 8574TIP3   OH225685   3.692   5.249   6.550
 8574TIP3    H125686   3.677   5.173   6.490
 8574TIP3    H225687   3.671   5.325   6.491
 8575TIP3   OH225688   2.987   4.647   5.811
 8575TIP3    H125689   2.906   4.700   5.792
 8575TIP3    H225690   3.027   4.641   5.723
 8576TIP3   OH225691   2.943   4.433   5.520
 8576TIP3    H125692   3.010   4.487   5.565
 8576TIP3    H225693   3.001   4.370   5.472
 8577TIP3   OH225694   3.884   4.891   6.393
 8577TIP3    H125695   3.800   4.940   6.397
 8577TIP3    H225696   3.916   4.917   6.304
 8578TIP3   OH225697   3.335   4.731   5.776
 8578TIP3    H125698   3.278   4.754   5.853
 8578TIP3    H225699   3.418   4.707   5.821
 8579TIP3   OH225700   3.566   4.765   6.697
 8579TIP3    H125701   3.563   4.849   6.747
 8579TIP3    H225702   3.479   4.768   6.651
 8580TIP3   OH225703   2.564   4.725   6.197
 8580TIP3    H125704   2.521   4.667   6.131
 8580TIP3    H225705   2.639   4.670   6.227
 8581TIP3   OH225706   2.693   5.138   6.343
 8581TIP3    H125707   2.672   5.107   6.253
 8581TIP3    H225708   2.781   5.098   6.358
 8582TIP3   OH225709   2.700   4.695   6.555
 8582TIP3    H125710   2.729   4.669   6.465
 8582TIP3    H225711   2.743   4.783   6.567
 8583TIP3   OH225712   3.229   5.336   6.328
 8583TIP3    H125713   3.214   5.416   6.381
 8583TIP3    H225714   3.209   5.263   6.391
 8584TIP3   OH225715   2.840   5.256   6.877
 8584TIP3    H125716   2.776   5.316   6.921
 8584TIP3    H225717   2.778   5.201   6.824
 8585TIP3   OH225718   3.170   4.587   5.605
 8585TIP3    H125719   3.228   4.650   5.652
 8585TIP3    H225720   3.196   4.606   5.511
 8586TIP3   OH225721   2.596   4.803   6.987
 8586TIP3    H125722   2.600   4.894   7.023
 8586TIP3    H225723   2.501   4.785   6.995
 8587TIP3   OH225724   2.919   5.262   5.884
 8587TIP3    H125725   3.001   5.315   5.886
 8587TIP3    H225726   2.859   5.320   5.834
 8588TIP3   OH225727   2.632   5.422   6.963
 8588TIP3    H125728   2.597   5.425   6.871
 8588TIP3    H225729   2.552   5.397   7.014
 8589TIP3   OH225730   3.689   3.823   5.657
 8589TIP3    H125731   3.606   3.847   5.703
 8589TIP3    H225732   3.705   3.905   5.604
 8590TIP3   OH225733   2.436   4.566   6.008
 8590TIP3    H125734   2.374   4.621   5.954
 8590TIP3    H225735   2.390   4.481   6.006
 8591TIP3   OH225736   3.489   5.193   5.205
 8591TIP3    H125737   3.498   5.289   5.187
 8591TIP3    H225738   3.582   5.163   5.192
 8592TIP3   OH225739   2.215   4.951   6.898
 8592TIP3    H125740   2.144   4.933   6.832
 8592TIP3    H225741   2.252   4.863   6.916
 8593TIP3   OH225742   2.068   5.146   6.538
 8593TIP3    H125743   2.163   5.137   6.527
 8593TIP3    H225744   2.062   5.223   6.596
 8594TIP3   OH225745   3.931   5.600   6.603
 8594TIP3    H125746   3.928   5.504   6.618
 8594TIP3    H225747   3.847   5.627   6.646
 8595TIP3   OH225748   3.036   5.381   6.733
 8595TIP3    H125749   3.031   5.473   6.765
 8595TIP3    H225750   2.963   5.340   6.785
 8596TIP3   OH225751   2.802   5.509   5.684
 8596TIP3    H125752   2.754   5.491   5.602
 8596TIP3    H225753   2.766   5.595   5.712
 8597TIP3   OH225754   2.237   5.358   6.070
 8597TIP3    H125755   2.281   5.349   6.157
 8597TIP3    H225756   2.193   5.271   6.063
 8598TIP3   OH225757   2.998   5.414   5.320
 8598TIP3    H125758   3.056   5.344   5.285
 8598TIP3    H225759   3.033   5.424   5.411
 8599TIP3   OH225760   3.052   5.462   5.590
 8599TIP3    H125761   2.963   5.472   5.630
 8599TIP3    H225762   3.102   5.423   5.663
 8600TIP3   OH225763   3.819   4.727   6.873
 8600TIP3    H125764   3.733   4.734   6.827
 8600TIP3    H225765   3.836   4.631   6.865
 8601TIP3   OH225766   2.415   5.139   6.892
 8601TIP3    H125767   2.464   5.120   6.975
 8601TIP3    H225768   2.342   5.074   6.897
 8602TIP3   OH225769   2.816   3.957   6.685
 8602TIP3    H125770   2.729   3.927   6.652
 8602TIP3    H225771   2.788   4.037   6.732
 8603TIP3   OH225772   3.352   4.072   6.877
 8603TIP3    H125773   3.421   4.045   6.941
 8603TIP3    H225774   3.269   4.054   6.926
 8604TIP3   OH225775   3.583   4.504   6.796
 8604TIP3    H125776   3.531   4.501   6.880
 8604TIP3    H225777   3.561   4.591   6.759
 8605TIP3   OH225778   3.252   4.630   5.353
 8605TIP3    H125779   3.211   4.608   5.266
 8605TIP3    H225780   3.336   4.671   5.324
 8606TIP3   OH225781   2.962   4.002   5.655
 8606TIP3    H125782   2.922   3.999   5.744
 8606TIP3    H225783   2.919   3.924   5.615
 8607TIP3   OH225784   2.750   4.474   6.702
 8607TIP3    H125785   2.697   4.494   6.781
 8607TIP3    H225786   2.735   4.555   6.648
 8608TIP3   OH225787   2.632   4.361   6.215
 8608TIP3    H125788   2.538   4.337   6.232
 8608TIP3    H225789   2.643   4.322   6.125
 8609TIP3   OH225790   3.123   4.447   5.946
 8609TIP3    H125791   3.072   4.518   5.900
 8609TIP3    H225792   3.177   4.411   5.873
 8610TIP3   OH225793   3.297   4.720   7.026
 8610TIP3    H125794   3.274   4.649   7.090
 8610TIP3    H225795   3.391   4.733   7.048
 8611TIP3   OH225796   3.277   4.473   6.178
 8611TIP3    H125797   3.213   4.498   6.109
 8611TIP3    H225798   3.314   4.394   6.133
 8612TIP3   OH225799   2.568   4.502   6.906
 8612TIP3    H125800   2.595   4.567   6.973
 8612TIP3    H225801   2.556   4.421   6.959
 8613TIP3   OH225802   2.621   3.983   5.619
 8613TIP3    H125803   2.605   3.981   5.716
 8613TIP3    H225804   2.543   4.033   5.589
 8614TIP3   OH225805   2.157   4.020   6.498
 8614TIP3    H125806   2.236   4.055   6.543
 8614TIP3    H225807   2.188   3.997   6.409
 8615TIP3   OH225808   2.125   4.007   6.006
 8615TIP3    H125809   2.172   4.041   5.927
 8615TIP3    H225810   2.063   4.081   6.021
 8616TIP3   OH225811   3.292   4.716   6.601
 8616TIP3    H125812   3.325   4.645   6.541
 8616TIP3    H225813   3.259   4.661   6.675
 8617TIP3   OH225814   2.967   4.180   6.274
 8617TIP3    H125815   2.883   4.181   6.325
 8617TIP3    H225816   3.033   4.175   6.345
 8618TIP3   OH225817   2.391   4.240   6.282
 8618TIP3    H125818   2.297   4.249   6.252
 8618TIP3    H225819   2.412   4.148   6.257
 8619TIP3   OH225820   2.657   4.235   5.974
 8619TIP3    H125821   2.749   4.249   5.946
 8619TIP3    H225822   2.606   4.255   5.891
 8620TIP3   OH225823   3.451   4.258   6.477
 8620TIP3    H125824   3.420   4.272   6.570
 8620TIP3    H225825   3.381   4.198   6.445
 8621TIP3   OH225826   2.510   4.268   5.749
 8621TIP3    H125827   2.439   4.221   5.701
 8621TIP3    H225828   2.561   4.305   5.674
 8622TIP3   OH225829   3.625   5.948   6.698
 8622TIP3    H125830   3.621   5.975   6.605
 8622TIP3    H225831   3.705   5.995   6.729
 8623TIP3   OH225832   2.580   5.062   7.111
 8623TIP3    H125833   2.659   5.092   7.160
 8623TIP3    H225834   2.519   5.050   7.185
 8624TIP3   OH225835   3.040   4.513   6.374
 8624TIP3    H125836   3.112   4.472   6.324
 8624TIP3    H225837   3.044   4.466   6.459
 8625TIP3   OH225838   2.563   3.996   6.256
 8625TIP3    H125839   2.524   3.920   6.305
 8625TIP3    H225840   2.594   3.953   6.175
 8626TIP3   OH225841   3.018   4.412   6.660
 8626TIP3    H125842   2.927   4.446   6.675
 8626TIP3    H225843   3.073   4.475   6.710
 8627TIP3   OH225844   2.756   4.798   5.759
 8627TIP3    H125845   2.685   4.731   5.746
 8627TIP3    H225846   2.733   4.832   5.849
 8628TIP3   OH225847   3.651   5.033   6.382
 8628TIP3    H125848   3.672   5.086   6.302
 8628TIP3    H225849   3.566   4.990   6.356
 8629TIP3   OH225850   3.212   4.103   5.633
 8629TIP3    H125851   3.116   4.082   5.635
 8629TIP3    H225852   3.214   4.199   5.650
 8630TIP3   OH225853   3.152   5.117   6.754
 8630TIP3    H125854   3.185   5.100   6.843
 8630TIP3    H225855   3.115   5.207   6.761
 8631TIP3   OH225856   3.278   4.362   5.730
 8631TIP3    H125857   3.375   4.368   5.739
 8631TIP3    H225858   3.256   4.440   5.675
 8632TIP3   OH225859   2.452   4.829   6.430
 8632TIP3    H125860   2.485   4.797   6.343
 8632TIP3    H225861   2.488   4.762   6.490
 8633TIP3   OH225862   2.901   4.948   5.584
 8633TIP3    H125863   2.851   5.033   5.585
 8633TIP3    H225864   2.846   4.893   5.644
 8634TIP3   OH225865   2.329   4.735   7.043
 8634TIP3    H125866   2.323   4.715   7.139
 8634TIP3    H225867   2.254   4.681   7.010
 8635TIP3   OH225868   3.058   4.859   7.062
 8635TIP3    H125869   2.995   4.801   7.018
 8635TIP3    H225870   3.143   4.820   7.033
 8636TIP3   OH225871   3.312   5.376   6.655
 8636TIP3    H125872   3.216   5.375   6.667
 8636TIP3    H225873   3.339   5.432   6.731
 8637TIP3   OH225874   3.723   4.455   5.560
 8637TIP3    H125875   3.662   4.411   5.496
 8637TIP3    H225876   3.720   4.545   5.519
 8638TIP3   OH225877   3.942   5.308   6.639
 8638TIP3    H125878   3.844   5.302   6.630
 8638TIP3    H225879   3.969   5.279   6.548
 8639TIP3   OH225880   3.429   5.268   5.470
 8639TIP3    H125881   3.394   5.198   5.527
 8639TIP3    H225882   3.438   5.223   5.384
 8640TIP3   OH225883   3.420   4.897   6.299
 8640TIP3    H125884   3.326   4.874   6.314
 8640TIP3    H225885   3.451   4.816   6.254
 8641TIP3   OH225886   2.551   5.129   6.063
 8641TIP3    H125887   2.544   5.208   6.005
 8641TIP3    H225888   2.459   5.101   6.067
 8642TIP3   OH225889   2.680   4.890   6.001
 8642TIP3    H125890   2.648   4.979   6.022
 8642TIP3    H225891   2.643   4.837   6.074
 8643TIP3   OH225892   2.819   5.468   6.525
 8643TIP3    H125893   2.861   5.541   6.474
 8643TIP3    H225894   2.897   5.429   6.568
 8644TIP3   OH225895   2.465   5.365   5.909
 8644TIP3    H125896   2.381   5.375   5.957
 8644TIP3    H225897   2.499   5.458   5.911
 8645TIP3   OH225898   3.201   5.103   6.486
 8645TIP3    H125899   3.190   5.101   6.584
 8645TIP3    H225900   3.280   5.047   6.475
 8646TIP3   OH225901   3.183   5.001   5.369
 8646TIP3    H125902   3.235   4.974   5.449
 8646TIP3    H225903   3.095   4.968   5.392
 8647TIP3   OH225904   3.453   5.633   6.533
 8647TIP3    H125905   3.371   5.580   6.526
 8647TIP3    H225906   3.438   5.698   6.461
 8648TIP3   OH225907   3.519   5.468   5.187
 8648TIP3    H125908   3.554   5.541   5.133
 8648TIP3    H225909   3.439   5.511   5.222
 8649TIP3   OH225910   2.530   4.240   7.045
 8649TIP3    H125911   2.432   4.242   7.052
 8649TIP3    H225912   2.553   4.170   7.108
 8650TIP3   OH225913   3.343   4.933   5.585
 8650TIP3    H125914   3.332   4.865   5.654
 8650TIP3    H225915   3.440   4.927   5.570
 8651TIP3   OH225916   2.254   5.330   6.684
 8651TIP3    H125917   2.309   5.258   6.719
 8651TIP3    H225918   2.284   5.404   6.737
 8652TIP3   OH225919   2.544   4.975   5.369
 8652TIP3    H125920   2.556   4.882   5.343
 8652TIP3    H225921   2.521   4.966   5.463
 8653TIP3   OH225922   2.485   4.983   5.640
 8653TIP3    H125923   2.560   4.952   5.694
 8653TIP3    H225924   2.492   5.080   5.650
 8654TIP3   OH225925   2.253   4.702   5.860
 8654TIP3    H125926   2.166   4.715   5.902
 8654TIP3    H225927   2.244   4.759   5.782
 8655TIP3   OH225928   3.380   4.309   6.738
 8655TIP3    H125929   3.460   4.349   6.777
 8655TIP3    H225930   3.368   4.229   6.792
 8656TIP3   OH225931   3.260   4.055   5.909
 8656TIP3    H125932   3.243   4.074   5.814
 8656TIP3    H225933   3.296   4.141   5.940
 8657TIP3   OH225934   2.759   5.178   5.590
 8657TIP3    H125935   2.672   5.201   5.626
 8657TIP3    H225936   2.771   5.251   5.527
 8658TIP3   OH225937   2.945   4.243   6.005
 8658TIP3    H125938   3.007   4.317   5.989
 8658TIP3    H225939   2.950   4.236   6.103
 8659TIP3   OH225940   3.216   4.557   6.809
 8659TIP3    H125941   3.242   4.609   6.888
 8659TIP3    H225942   3.268   4.475   6.819
 8660TIP3   OH225943   3.084   3.962   6.105
 8660TIP3    H125944   3.070   4.044   6.156
 8660TIP3    H225945   3.148   3.993   6.037
 8661TIP3   OH225946   2.506   5.255   5.660
 8661TIP3    H125947   2.475   5.324   5.598
 8661TIP3    H225948   2.488   5.296   5.747
 8662TIP3   OH225949   2.600   3.969   5.897
 8662TIP3    H125950   2.598   4.060   5.932
 8662TIP3    H225951   2.696   3.952   5.902
 8663TIP3   OH225952   3.849   4.459   6.790
 8663TIP3    H125953   3.751   4.461   6.800
 8663TIP3    H225954   3.857   4.404   6.711
 8664TIP3   OH225955   3.507   4.650   6.179
 8664TIP3    H125956   3.428   4.594   6.191
 8664TIP3    H225957   3.575   4.601   6.229
 8665TIP3   OH225958   2.219   4.881   5.642
 8665TIP3    H125959   2.296   4.940   5.653
 8665TIP3    H225960   2.258   4.818   5.578
 8666TIP3   OH225961   2.161   4.162   5.779
 8666TIP3    H125962   2.140   4.254   5.803
 8666TIP3    H225963   2.074   4.138   5.745
 8667TIP3   OH225964   3.476   5.612   6.126
 8667TIP3    H125965   3.432   5.659   6.052
 8667TIP3    H225966   3.570   5.631   6.105
 8668TIP3   OH225967   2.551   3.880   6.651
 8668TIP3    H125968   2.521   3.847   6.564
 8668TIP3    H225969   2.537   3.801   6.707
 8669TIP3   OH225970   2.093   5.108   6.032
 8669TIP3    H125971   2.025   5.130   6.098
 8669TIP3    H225972   2.053   5.146   5.950
 8670TIP3   OH225973   2.262   5.640   7.098
 8670TIP3    H125974   2.344   5.633   7.149
 8670TIP3    H225975   2.231   5.548   7.098
 8671TIP3   OH225976   2.729   5.595   7.149
 8671TIP3    H125977   2.822   5.567   7.154
 8671TIP3    H225978   2.697   5.535   7.078
 8672TIP3   OH225979   2.708   5.177   5.278
 8672TIP3    H125980   2.653   5.104   5.315
 8672TIP3    H225981   2.784   5.127   5.243
 8673TIP3   OH225982   3.359   5.517   6.890
 8673TIP3    H125983   3.355   5.443   6.955
 8673TIP3    H225984   3.440   5.564   6.917
 8674TIP3   OH225985   3.143   5.216   5.194
 8674TIP3    H125986   3.181   5.149   5.254
 8674TIP3    H225987   3.200   5.210   5.115
 8675TIP3   OH225988   2.375   5.049   7.302
 8675TIP3    H125989   2.407   4.956   7.304
 8675TIP3    H225990   2.292   5.040   7.250
 8676TIP3   OH225991   2.354   4.694   5.502
 8676TIP3    H125992   2.407   4.662   5.577
 8676TIP3    H225993   2.423   4.699   5.432
 8677TIP3   OH225994   2.982   5.134   7.084
 8677TIP3    H125995   2.940   5.155   6.998
 8677TIP3    H225996   3.013   5.042   7.071
 8678TIP3   OH225997   2.876   4.897   5.313
 8678TIP3    H125998   2.874   4.906   5.411
 8678TIP3    H225999   2.876   4.799   5.304
 8679TIP3   OH226000   3.476   5.147   6.691
 8679TIP3    H126001   3.552   5.188   6.647
 8679TIP3    H226002   3.407   5.214   6.674
 8680TIP3   OH226003   2.522   4.821   7.297
 8680TIP3    H126004   2.582   4.758   7.256
 8680TIP3    H226005   2.510   4.785   7.386
 8681TIP3   OH226006   2.567   4.602   5.724
 8681TIP3    H126007   2.528   4.561   5.803
 8681TIP3    H226008   2.601   4.525   5.675
 8682TIP3   OH226009   2.834   4.665   6.956
 8682TIP3    H126010   2.754   4.722   6.955
 8682TIP3    H226011   2.884   4.699   6.879
 8683TIP3   OH226012   2.665   4.397   5.562
 8683TIP3    H126013   2.639   4.405   5.468
 8683TIP3    H226014   2.762   4.396   5.555
 8684TIP3   OH226015   3.352   5.066   7.086
 8684TIP3    H126016   3.426   5.030   7.035
 8684TIP3    H226017   3.344   5.001   7.158
 8685TIP3   OH226018   3.483   4.722   5.233
 8685TIP3    H126019   3.464   4.679   5.147
 8685TIP3    H226020   3.449   4.812   5.212
 8686TIP3   OH226021   2.954   4.455   7.079
 8686TIP3    H126022   2.956   4.378   7.019
 8686TIP3    H226023   2.911   4.523   7.023
 8687TIP3   OH226024   2.958   4.243   6.888
 8687TIP3    H126025   2.987   4.284   6.804
 8687TIP3    H226026   2.865   4.220   6.867
 8688TIP3   OH226027   2.979   4.775   6.761
 8688TIP3    H126028   3.065   4.790   6.720
 8688TIP3    H226029   2.922   4.839   6.713
 8689TIP3   OH226030   3.563   4.741   7.133
 8689TIP3    H126031   3.610   4.658   7.154
 8689TIP3    H226032   3.634   4.795   7.095
 8690TIP3   OH226033   3.604   4.996   6.874
 8690TIP3    H126034   3.547   5.052   6.816
 8690TIP3    H226035   3.692   5.017   6.836
 8691TIP3   OH226036   2.812   4.575   7.292
 8691TIP3    H126037   2.743   4.506   7.288
 8691TIP3    H226038   2.867   4.552   7.215
 8692TIP3   OH226039   3.089   4.004   6.959
 8692TIP3    H126040   3.039   4.084   6.933
 8692TIP3    H226041   3.022   3.934   6.944
 8693TIP3   OH226042   3.211   4.507   7.175
 8693TIP3    H126043   3.194   4.487   7.269
 8693TIP3    H226044   3.124   4.484   7.138
 8694TIP3   OH226045   3.449   4.456   7.025
 8694TIP3    H126046   3.378   4.454   7.092
 8694TIP3    H226047   3.527   4.424   7.077
 8695TIP3   OH226048   3.680   4.391   7.163
 8695TIP3    H126049   3.695   4.296   7.185
 8695TIP3    H226050   3.677   4.432   7.252
 8696TIP3   OH226051   2.633   4.367   7.302
 8696TIP3    H126052   2.647   4.285   7.251
 8696TIP3    H226053   2.690   4.348   7.381
 8697TIP3   OH226054   3.170   4.012   7.222
 8697TIP3    H126055   3.240   3.943   7.215
 8697TIP3    H226056   3.138   4.011   7.129
 8698TIP3   OH226057   3.268   4.245   7.345
 8698TIP3    H126058   3.240   4.161   7.304
 8698TIP3    H226059   3.183   4.289   7.364
 8699TIP3   OH226060   2.474   5.460   5.473
 8699TIP3    H126061   2.569   5.447   5.452
 8699TIP3    H226062   2.447   5.510   5.394
 8700TIP3   OH226063   1.953   4.843   5.687
 8700TIP3    H126064   2.047   4.864   5.667
 8700TIP3    H226065   1.944   4.755   5.644
 8701TIP3   OH226066   1.866   5.449   6.103
 8701TIP3    H126067   1.803   5.387   6.062
 8701TIP3    H226068   1.911   5.390   6.167
 8702TIP3   OH226069   1.998   5.297   6.291
 8702TIP3    H126070   1.989   5.225   6.356
 8702TIP3    H226071   2.052   5.359   6.342
 8703TIP3   OH226072   3.734   5.692   6.091
 8703TIP3    H126073   3.755   5.732   6.177
 8703TIP3    H226074   3.792   5.743   6.031
 8704TIP3   OH226075   3.754   5.720   6.372
 8704TIP3    H126076   3.712   5.632   6.368
 8704TIP3    H226077   3.832   5.699   6.426
 8705TIP3   OH226078   3.805   5.398   6.945
 8705TIP3    H126079   3.731   5.410   7.009
 8705TIP3    H226080   3.848   5.486   6.949
 8706TIP3   OH226081   3.620   4.911   5.559
 8706TIP3    H126082   3.684   4.977   5.527
 8706TIP3    H226083   3.667   4.875   5.637
 8707TIP3   OH226084   3.746   4.781   5.768
 8707TIP3    H126085   3.674   4.734   5.817
 8707TIP3    H226086   3.793   4.824   5.840
 8708TIP3   OH226087   3.810   5.173   6.199
 8708TIP3    H126088   3.852   5.109   6.139
 8708TIP3    H226089   3.803   5.252   6.142
 8709TIP3   OH226090   3.631   5.470   6.392
 8709TIP3    H126091   3.559   5.515   6.442
 8709TIP3    H226092   3.581   5.427   6.319
 8710TIP3   OH226093   3.686   4.687   5.411
 8710TIP3    H126094   3.616   4.685   5.342
 8710TIP3    H226095   3.654   4.764   5.463
 8711TIP3   OH226096   3.559   4.359   5.366
 8711TIP3    H126097   3.513   4.392   5.288
 8711TIP3    H226098   3.536   4.263   5.360
 8712TIP3   OH226099   3.563   4.637   5.910
 8712TIP3    H126100   3.564   4.540   5.896
 8712TIP3    H226101   3.545   4.644   6.006
 8713TIP3   OH226102   2.184   4.706   6.662
 8713TIP3    H126103   2.181   4.672   6.570
 8713TIP3    H226104   2.282   4.709   6.676
 8714TIP3   OH226105   3.852   5.061   6.771
 8714TIP3    H126106   3.922   4.993   6.758
 8714TIP3    H226107   3.877   5.130   6.707
 8715TIP3   OH226108   4.033   4.859   6.771
 8715TIP3    H126109   3.960   4.810   6.814
 8715TIP3    H226110   4.107   4.797   6.790
 8716TIP3   OH226111   3.498   4.094   5.350
 8716TIP3    H126112   3.566   4.055   5.409
 8716TIP3    H226113   3.420   4.037   5.364
 8717TIP3   OH226114   3.563   4.356   5.803
 8717TIP3    H126115   3.601   4.267   5.818
 8717TIP3    H226116   3.618   4.385   5.729
 8718TIP3   OH226117   3.724   4.520   6.304
 8718TIP3    H126118   3.813   4.541   6.269
 8718TIP3    H226119   3.732   4.562   6.393
 8719TIP3   OH226120   3.789   4.670   6.530
 8719TIP3    H126121   3.712   4.702   6.582
 8719TIP3    H226122   3.821   4.752   6.488
 8720TIP3   OH226123   2.362   4.375   7.325
 8720TIP3    H126124   2.460   4.376   7.317
 8720TIP3    H226125   2.351   4.348   7.417
 8721TIP3   OH226126   4.231   4.261   7.080
 8721TIP3    H126127   4.299   4.200   7.045
 8721TIP3    H226128   4.209   4.315   7.002
 8722TIP3   OH226129   3.665   4.104   5.843
 8722TIP3    H126130   3.713   4.085   5.927
 8722TIP3    H226131   3.603   4.028   5.840
 8723TIP3   OH226132   2.368   4.089   6.669
 8723TIP3    H126133   2.428   4.012   6.672
 8723TIP3    H226134   2.432   4.162   6.654
 8724TIP3   OH226135   2.168   4.358   6.735
 8724TIP3    H126136   2.216   4.355   6.650
 8724TIP3    H226137   2.192   4.445   6.768
 8725TIP3   OH226138   4.108   4.401   6.881
 8725TIP3    H126139   4.025   4.444   6.909
 8725TIP3    H226140   4.072   4.325   6.831
 8726TIP3   OH226141   3.747   4.030   5.483
 8726TIP3    H126142   3.782   3.963   5.420
 8726TIP3    H226143   3.811   4.103   5.474
 8727TIP3   OH226144   2.153   3.877   6.243
 8727TIP3    H126145   2.059   3.859   6.261
 8727TIP3    H226146   2.147   3.929   6.160
 8728TIP3   OH226147   3.313   5.569   5.744
 8728TIP3    H126148   3.364   5.560   5.660
 8728TIP3    H226149   3.364   5.637   5.791
 8729TIP3   OH226150   2.386   3.940   7.031
 8729TIP3    H126151   2.333   3.939   7.114
 8729TIP3    H226152   2.321   3.982   6.970
 8730TIP3   OH226153   2.417   5.377   7.134
 8730TIP3    H126154   2.326   5.351   7.112
 8730TIP3    H226155   2.424   5.346   7.226
 8731TIP3   OH226156   2.595   5.412   6.678
 8731TIP3    H126157   2.547   5.487   6.638
 8731TIP3    H226158   2.680   5.424   6.632
 8732TIP3   OH226159   3.034   5.647   6.817
 8732TIP3    H126160   3.079   5.647   6.903
 8732TIP3    H226161   3.098   5.699   6.763
 8733TIP3   OH226162   3.210   5.803   6.677
 8733TIP3    H126163   3.279   5.755   6.628
 8733TIP3    H226164   3.266   5.859   6.736
 8734TIP3   OH226165   4.010   4.159   6.772
 8734TIP3    H126166   3.920   4.145   6.738
 8734TIP3    H226167   4.047   4.068   6.765
 8735TIP3   OH226168   2.266   5.663   6.705
 8735TIP3    H126169   2.177   5.697   6.681
 8735TIP3    H226170   2.282   5.716   6.785
 8736TIP3   OH226171   2.503   5.642   6.561
 8736TIP3    H126172   2.415   5.653   6.603
 8736TIP3    H226173   2.485   5.672   6.470
 8737TIP3   OH226174   2.928   5.665   6.358
 8737TIP3    H126175   2.859   5.682   6.291
 8737TIP3    H226176   2.939   5.754   6.397
 8738TIP3   OH226177   3.198   5.605   6.412
 8738TIP3    H126178   3.105   5.624   6.390
 8738TIP3    H226179   3.245   5.675   6.364
 8739TIP3   OH226180   3.399   5.794   6.320
 8739TIP3    H126181   3.388   5.880   6.273
 8739TIP3    H226182   3.429   5.736   6.246
 8740TIP3   OH226183   2.177   5.454   6.445
 8740TIP3    H126184   2.205   5.425   6.535
 8740TIP3    H226185   2.248   5.412   6.392
 8741TIP3   OH226186   2.373   5.329   6.306
 8741TIP3    H126187   2.388   5.245   6.355
 8741TIP3    H226188   2.465   5.363   6.299
 8742TIP3   OH226189   2.642   5.419   6.309
 8742TIP3    H126190   2.671   5.327   6.296
 8742TIP3    H226191   2.691   5.440   6.391
 8743TIP3   OH226192   3.219   4.078   6.401
 8743TIP3    H126193   3.173   4.006   6.447
 8743TIP3    H226194   3.288   4.031   6.350
 8744TIP3   OH226195   3.734   3.962   6.298
 8744TIP3    H126196   3.769   4.011   6.220
 8744TIP3    H226197   3.638   3.976   6.288
 8745TIP3   OH226198   3.831   4.057   6.060
 8745TIP3    H126199   3.905   4.005   6.021
 8745TIP3    H226200   3.864   4.148   6.045
 8746TIP3   OH226201   2.461   3.785   6.407
 8746TIP3    H126202   2.367   3.755   6.409
 8746TIP3    H226203   2.506   3.698   6.401
 8747TIP3   OH226204   2.269   3.658   6.064
 8747TIP3    H126205   2.285   3.709   5.983
 8747TIP3    H226206   2.230   3.725   6.123
 8748TIP3   OH226207   2.914   3.812   6.290
 8748TIP3    H126208   2.966   3.860   6.223
 8748TIP3    H226209   2.937   3.860   6.370
 8749TIP3   OH226210   3.451   3.965   6.269
 8749TIP3    H126211   3.450   3.923   6.182
 8749TIP3    H226212   3.441   3.888   6.328
 8750TIP3   OH226213   3.484   3.892   5.836
 8750TIP3    H126214   3.397   3.934   5.852
 8750TIP3    H226215   3.469   3.804   5.879
 8751TIP3   OH226216   1.965   5.233   5.831
 8751TIP3    H126217   1.880   5.198   5.798
 8751TIP3    H226218   1.955   5.326   5.802
 8752TIP3   OH226219   2.370   3.811   5.820
 8752TIP3    H126220   2.415   3.749   5.759
 8752TIP3    H226221   2.445   3.864   5.853
 8753TIP3   OH226222   2.876   3.994   5.917
 8753TIP3    H126223   2.936   3.944   5.975
 8753TIP3    H226224   2.901   4.086   5.942
 8754TIP3   OH226225   2.739   5.410   5.417
 8754TIP3    H126226   2.827   5.434   5.381
 8754TIP3    H226227   2.717   5.336   5.356
 8755TIP3   OH226228   3.460   5.536   5.512
 8755TIP3    H126229   3.453   5.437   5.503
 8755TIP3    H226230   3.412   5.565   5.432
 8756TIP3   OH226231   2.678   4.072   7.268
 8756TIP3    H126232   2.656   4.012   7.342
 8756TIP3    H226233   2.772   4.087   7.290
 8757TIP3   OH226234   2.939   4.068   7.399
 8757TIP3    H126235   3.015   4.052   7.338
 8757TIP3    H226236   2.953   3.994   7.461
 8758TIP3   OH226237   2.044   5.252   5.470
 8758TIP3    H126238   2.049   5.264   5.566
 8758TIP3    H226239   2.130   5.207   5.451
 8759TIP3   OH226240   3.750   4.123   7.210
 8759TIP3    H126241   3.768   4.095   7.302
 8759TIP3    H226242   3.840   4.120   7.171
 8760TIP3   OH226243   3.680   5.678   6.697
 8760TIP3    H126244   3.603   5.649   6.644
 8760TIP3    H226245   3.663   5.774   6.703
 8761TIP3   OH226246   4.949   5.050   5.461
 8761TIP3    H126247   4.918   5.141   5.440
 8761TIP3    H226248   4.876   4.998   5.424
 8762TIP3   OH226249   4.948   5.055   5.850
 8762TIP3    H126250   4.985   5.031   5.937
 8762TIP3    H226251   4.914   4.970   5.819
 8763TIP3   OH226252   4.270   4.907   6.201
 8763TIP3    H126253   4.266   4.858   6.287
 8763TIP3    H226254   4.292   4.997   6.233
 8764TIP3   OH226255   5.197   5.355   5.530
 8764TIP3    H126256   5.180   5.288   5.598
 8764TIP3    H226257   5.229   5.431   5.582
 8765TIP3   OH226258   4.223   5.355   5.930
 8765TIP3    H126259   4.215   5.258   5.933
 8765TIP3    H226260   4.319   5.365   5.918
 8766TIP3   OH226261   3.923   4.568   5.730
 8766TIP3    H126262   3.861   4.643   5.731
 8766TIP3    H226263   3.869   4.503   5.682
 8767TIP3   OH226264   4.001   4.832   5.889
 8767TIP3    H126265   4.014   4.745   5.847
 8767TIP3    H226266   4.026   4.892   5.817
 8768TIP3   OH226267   4.848   5.815   5.547
 8768TIP3    H126268   4.887   5.745   5.491
 8768TIP3    H226269   4.839   5.770   5.631
 8769TIP3   OH226270   4.746   5.273   5.898
 8769TIP3    H126271   4.793   5.200   5.854
 8769TIP3    H226272   4.826   5.325   5.923
 8770TIP3   OH226273   5.762   4.595   5.894
 8770TIP3    H126274   5.793   4.680   5.932
 8770TIP3    H226275   5.793   4.603   5.801
 8771TIP3   OH226276   5.154   4.774   5.923
 8771TIP3    H126277   5.202   4.692   5.944
 8771TIP3    H226278   5.126   4.757   5.831
 8772TIP3   OH226279   4.494   4.457   5.910
 8772TIP3    H126280   4.470   4.522   5.841
 8772TIP3    H226281   4.443   4.380   5.879
 8773TIP3   OH226282   5.197   4.532   5.509
 8773TIP3    H126283   5.268   4.517   5.575
 8773TIP3    H226284   5.251   4.565   5.434
 8774TIP3   OH226285   4.577   4.828   5.790
 8774TIP3    H126286   4.673   4.805   5.797
 8774TIP3    H226287   4.540   4.747   5.750
 8775TIP3   OH226288   5.836   4.806   6.062
 8775TIP3    H126289   5.750   4.851   6.048
 8775TIP3    H226290   5.863   4.844   6.148
 8776TIP3   OH226291   4.492   4.431   6.315
 8776TIP3    H126292   4.416   4.392   6.269
 8776TIP3    H226293   4.451   4.453   6.401
 8777TIP3   OH226294   4.831   5.268   5.333
 8777TIP3    H126295   4.799   5.261   5.241
 8777TIP3    H226296   4.789   5.351   5.362
 8778TIP3   OH226297   4.589   5.183   6.106
 8778TIP3    H126298   4.538   5.257   6.146
 8778TIP3    H226299   4.638   5.231   6.035
 8779TIP3   OH226300   5.399   4.536   5.690
 8779TIP3    H126301   5.384   4.494   5.775
 8779TIP3    H226302   5.451   4.615   5.715
 8780TIP3   OH226303   4.434   5.392   6.215
 8780TIP3    H126304   4.411   5.480   6.178
 8780TIP3    H226305   4.354   5.377   6.270
 8781TIP3   OH226306   3.820   5.082   5.452
 8781TIP3    H126307   3.780   5.107   5.366
 8781TIP3    H226308   3.851   5.169   5.484
 8782TIP3   OH226309   5.260   5.600   5.690
 8782TIP3    H126310   5.170   5.590   5.730
 8782TIP3    H226311   5.250   5.685   5.643
 8783TIP3   OH226312   5.556   4.491   6.054
 8783TIP3    H126313   5.471   4.522   6.020
 8783TIP3    H226314   5.619   4.527   5.988
 8784TIP3   OH226315   4.847   4.132   6.038
 8784TIP3    H126316   4.833   4.038   6.058
 8784TIP3    H226317   4.771   4.171   6.086
 8785TIP3   OH226318   4.959   5.641   5.361
 8785TIP3    H126319   5.008   5.557   5.343
 8785TIP3    H226320   5.023   5.705   5.322
 8786TIP3   OH226321   5.104   5.425   5.280
 8786TIP3    H126322   5.081   5.344   5.232
 8786TIP3    H226323   5.142   5.390   5.363
 8787TIP3   OH226324   5.455   5.514   6.021
 8787TIP3    H126325   5.451   5.435   5.961
 8787TIP3    H226326   5.453   5.588   5.957
 8788TIP3   OH226327   4.782   4.903   5.297
 8788TIP3    H126328   4.703   4.958   5.277
 8788TIP3    H226329   4.826   4.900   5.210
 8789TIP3   OH226330   4.739   4.689   5.006
 8789TIP3    H126331   4.805   4.744   5.053
 8789TIP3    H226332   4.798   4.627   4.959
 8790TIP3   OH226333   5.685   5.149   5.883
 8790TIP3    H126334   5.600   5.198   5.889
 8790TIP3    H226335   5.711   5.173   5.791
 8791TIP3   OH226336   5.129   4.986   5.264
 8791TIP3    H126337   5.075   5.009   5.343
 8791TIP3    H226338   5.214   4.963   5.306
 8792TIP3   OH226339   5.359   5.011   6.180
 8792TIP3    H126340   5.361   5.090   6.240
 8792TIP3    H226341   5.276   5.027   6.133
 8793TIP3   OH226342   4.358   4.978   5.689
 8793TIP3    H126343   4.313   4.924   5.620
 8793TIP3    H226344   4.436   4.923   5.709
 8794TIP3   OH226345   4.487   5.386   5.832
 8794TIP3    H126346   4.473   5.366   5.738
 8794TIP3    H226347   4.577   5.351   5.847
 8795TIP3   OH226348   4.500   4.941   6.021
 8795TIP3    H126349   4.543   4.921   5.934
 8795TIP3    H226350   4.543   5.026   6.046
 8796TIP3   OH226351   5.021   5.591   5.814
 8796TIP3    H126352   5.007   5.673   5.865
 8796TIP3    H226353   5.004   5.520   5.880
 8797TIP3   OH226354   4.635   5.510   6.363
 8797TIP3    H126355   4.572   5.571   6.407
 8797TIP3    H226356   4.573   5.457   6.309
 8798TIP3   OH226357   4.965   4.845   5.092
 8798TIP3    H126358   5.024   4.906   5.140
 8798TIP3    H226359   4.992   4.863   4.998
 8799TIP3   OH226360   4.381   5.065   6.451
 8799TIP3    H126361   4.393   5.152   6.494
 8799TIP3    H226362   4.294   5.040   6.488
 8800TIP3   OH226363   4.713   5.520   5.371
 8800TIP3    H126364   4.798   5.569   5.373
 8800TIP3    H226365   4.656   5.580   5.322
 8801TIP3   OH226366   4.430   5.674   6.451
 8801TIP3    H126367   4.394   5.684   6.360
 8801TIP3    H226368   4.349   5.653   6.503
 8802TIP3   OH226369   5.484   4.080   5.142
 8802TIP3    H126370   5.402   4.104   5.190
 8802TIP3    H226371   5.501   4.163   5.091
 8803TIP3   OH226372   4.221   4.829   5.496
 8803TIP3    H126373   4.155   4.871   5.436
 8803TIP3    H226374   4.195   4.736   5.492
 8804TIP3   OH226375   5.286   5.448   4.691
 8804TIP3    H126376   5.296   5.544   4.674
 8804TIP3    H226377   5.379   5.418   4.682
 8805TIP3   OH226378   4.007   5.209   6.396
 8805TIP3    H126379   3.936   5.191   6.331
 8805TIP3    H226380   4.038   5.119   6.420
 8806TIP3   OH226381   3.863   5.402   6.032
 8806TIP3    H126382   3.959   5.407   6.023
 8806TIP3    H226383   3.844   5.484   6.081
 8807TIP3   OH226384   4.835   5.634   6.223
 8807TIP3    H126385   4.825   5.729   6.247
 8807TIP3    H226386   4.761   5.594   6.275
 8808TIP3   OH226387   4.598   5.764   5.172
 8808TIP3    H126388   4.551   5.749   5.089
 8808TIP3    H226389   4.563   5.851   5.201
 8809TIP3   OH226390   4.032   5.615   5.557
 8809TIP3    H126391   4.079   5.607   5.643
 8809TIP3    H226392   3.980   5.533   5.557
 8810TIP3   OH226393   4.794   5.670   4.807
 8810TIP3    H126394   4.853   5.600   4.771
 8810TIP3    H226395   4.830   5.681   4.898
 8811TIP3   OH226396   4.847   5.719   5.075
 8811TIP3    H126397   4.759   5.728   5.118
 8811TIP3    H226398   4.901   5.684   5.149
 8812TIP3   OH226399   5.626   4.981   6.316
 8812TIP3    H126400   5.532   4.987   6.294
 8812TIP3    H226401   5.636   4.885   6.336
 8813TIP3   OH226402   4.214   5.390   6.377
 8813TIP3    H126403   4.261   5.378   6.462
 8813TIP3    H226404   4.137   5.329   6.387
 8814TIP3   OH226405   4.615   4.212   6.169
 8814TIP3    H126406   4.526   4.184   6.139
 8814TIP3    H226407   4.594   4.300   6.206
 8815TIP3   OH226408   5.150   4.329   6.364
 8815TIP3    H126409   5.221   4.301   6.426
 8815TIP3    H226410   5.069   4.308   6.414
 8816TIP3   OH226411   5.376   4.753   6.279
 8816TIP3    H126412   5.329   4.756   6.365
 8816TIP3    H226413   5.359   4.843   6.242
 8817TIP3   OH226414   5.046   4.882   4.838
 8817TIP3    H126415   5.008   4.864   4.750
 8817TIP3    H226416   5.130   4.926   4.813
 8818TIP3   OH226417   4.757   4.260   5.142
 8818TIP3    H126418   4.719   4.256   5.232
 8818TIP3    H226419   4.715   4.180   5.103
 8819TIP3   OH226420   4.430   4.620   5.698
 8819TIP3    H126421   4.337   4.592   5.717
 8819TIP3    H226422   4.442   4.576   5.611
 8820TIP3   OH226423   4.918   4.702   5.431
 8820TIP3    H126424   4.869   4.774   5.385
 8820TIP3    H226425   4.973   4.667   5.359
 8821TIP3   OH226426   5.089   4.976   6.509
 8821TIP3    H126427   5.072   4.905   6.574
 8821TIP3    H226428   5.181   4.998   6.530
 8822TIP3   OH226429   5.070   4.727   5.666
 8822TIP3    H126430   5.009   4.755   5.593
 8822TIP3    H226431   5.109   4.649   5.621
 8823TIP3   OH226432   4.357   4.743   6.392
 8823TIP3    H126433   4.414   4.799   6.447
 8823TIP3    H226434   4.348   4.663   6.448
 8824TIP3   OH226435   4.415   4.239   5.105
 8824TIP3    H126436   4.402   4.238   5.202
 8824TIP3    H226437   4.337   4.291   5.076
 8825TIP3   OH226438   3.951   4.284   5.975
 8825TIP3    H126439   4.035   4.312   6.016
 8825TIP3    H226440   3.979   4.246   5.889
 8826TIP3   OH226441   3.920   4.260   5.497
 8826TIP3    H126442   3.965   4.295   5.417
 8826TIP3    H226443   3.857   4.334   5.512
 8827TIP3   OH226444   5.073   4.972   6.086
 8827TIP3    H126445   5.111   4.902   6.027
 8827TIP3    H226446   5.051   4.917   6.164
 8828TIP3   OH226447   4.760   4.442   5.762
 8828TIP3    H126448   4.681   4.442   5.820
 8828TIP3    H226449   4.833   4.426   5.825
 8829TIP3   OH226450   4.192   4.512   5.767
 8829TIP3    H126451   4.095   4.517   5.756
 8829TIP3    H226452   4.210   4.417   5.761
 8830TIP3   OH226453   4.454   4.491   5.459
 8830TIP3    H126454   4.548   4.505   5.435
 8830TIP3    H226455   4.406   4.512   5.375
 8831TIP3   OH226456   5.248   4.517   5.965
 8831TIP3    H126457   5.217   4.528   6.057
 8831TIP3    H226458   5.182   4.454   5.931
 8832TIP3   OH226459   4.306   4.528   5.235
 8832TIP3    H126460   4.237   4.479   5.186
 8832TIP3    H226461   4.358   4.565   5.160
 8833TIP3   OH226462   4.378   5.311   6.601
 8833TIP3    H126463   4.457   5.340   6.651
 8833TIP3    H226464   4.313   5.310   6.674
 8834TIP3   OH226465   4.840   4.770   5.853
 8834TIP3    H126466   4.913   4.735   5.798
 8834TIP3    H226467   4.853   4.722   5.936
 8835TIP3   OH226468   4.361   4.262   5.758
 8835TIP3    H126469   4.325   4.182   5.802
 8835TIP3    H226470   4.404   4.224   5.680
 8836TIP3   OH226471   4.811   4.685   6.168
 8836TIP3    H126472   4.765   4.768   6.181
 8836TIP3    H226473   4.900   4.710   6.201
 8837TIP3   OH226474   4.549   5.054   5.244
 8837TIP3    H126475   4.478   4.988   5.231
 8837TIP3    H226476   4.528   5.088   5.335
 8838TIP3   OH226477   5.449   5.287   5.866
 8838TIP3    H126478   5.474   5.338   5.786
 8838TIP3    H226479   5.365   5.245   5.838
 8839TIP3   OH226480   5.008   4.361   5.117
 8839TIP3    H126481   4.912   4.342   5.122
 8839TIP3    H226482   5.013   4.457   5.137
 8840TIP3   OH226483   4.938   5.367   6.244
 8840TIP3    H126484   4.986   5.358   6.327
 8840TIP3    H226485   4.908   5.460   6.246
 8841TIP3   OH226486   5.075   4.617   5.215
 8841TIP3    H126487   5.171   4.623   5.228
 8841TIP3    H226488   5.055   4.697   5.162
 8842TIP3   OH226489   4.249   5.076   5.922
 8842TIP3    H126490   4.268   5.051   5.829
 8842TIP3    H226491   4.330   5.045   5.965
 8843TIP3   OH226492   4.697   5.204   5.069
 8843TIP3    H126493   4.647   5.290   5.070
 8843TIP3    H226494   4.642   5.150   5.130
 8844TIP3   OH226495   4.126   4.991   6.532
 8844TIP3    H126496   4.147   4.984   6.627
 8844TIP3    H226497   4.056   4.925   6.523
 8845TIP3   OH226498   4.855   5.119   6.545
 8845TIP3    H126499   4.797   5.051   6.509
 8845TIP3    H226500   4.944   5.083   6.522
 8846TIP3   OH226501   5.104   5.631   6.141
 8846TIP3    H126502   5.008   5.634   6.157
 8846TIP3    H226503   5.137   5.689   6.213
 8847TIP3   OH226504   5.516   4.710   5.047
 8847TIP3    H126505   5.455   4.667   4.983
 8847TIP3    H226506   5.513   4.800   5.008
 8848TIP3   OH226507   5.705   5.519   6.120
 8848TIP3    H126508   5.611   5.529   6.092
 8848TIP3    H226509   5.748   5.510   6.032
 8849TIP3   OH226510   5.218   5.527   4.954
 8849TIP3    H126511   5.195   5.455   5.014
 8849TIP3    H226512   5.235   5.480   4.870
 8850TIP3   OH226513   5.214   5.155   5.785
 8850TIP3    H126514   5.120   5.133   5.798
 8850TIP3    H226515   5.247   5.074   5.742
 8851TIP3   OH226516   4.348   5.386   5.548
 8851TIP3    H126517   4.346   5.465   5.491
 8851TIP3    H226518   4.254   5.366   5.555
 8852TIP3   OH226519   3.914   4.684   5.255
 8852TIP3    H126520   3.954   4.771   5.274
 8852TIP3    H226521   3.834   4.688   5.312
 8853TIP3   OH226522   4.472   5.143   5.487
 8853TIP3    H126523   4.443   5.235   5.505
 8853TIP3    H226524   4.436   5.096   5.564
 8854TIP3   OH226525   4.615   5.725   6.010
 8854TIP3    H126526   4.655   5.799   5.960
 8854TIP3    H226527   4.693   5.687   6.054
 8855TIP3   OH226528   4.263   5.620   5.397
 8855TIP3    H126529   4.178   5.632   5.442
 8855TIP3    H226530   4.297   5.713   5.399
 8856TIP3   OH226531   4.996   5.360   5.975
 8856TIP3    H126532   4.985   5.354   6.073
 8856TIP3    H226533   5.078   5.310   5.962
 8857TIP3   OH226534   4.981   5.256   4.857
 8857TIP3    H126535   5.033   5.230   4.937
 8857TIP3    H226536   4.892   5.225   4.883
 8858TIP3   OH226537   5.218   5.904   6.040
 8858TIP3    H126538   5.149   5.839   6.018
 8858TIP3    H226539   5.220   5.958   5.959
 8859TIP3   OH226540   5.315   5.725   4.673
 8859TIP3    H126541   5.352   5.800   4.624
 8859TIP3    H226542   5.235   5.767   4.709
 8860TIP3   OH226543   4.335   4.497   6.536
 8860TIP3    H126544   4.239   4.503   6.556
 8860TIP3    H226545   4.367   4.448   6.614
 8861TIP3   OH226546   5.138   5.189   5.075
 8861TIP3    H126547   5.127   5.120   5.144
 8861TIP3    H226548   5.234   5.181   5.059
 8862TIP3   OH226549   4.054   5.586   6.169
 8862TIP3    H126550   4.111   5.521   6.213
 8862TIP3    H226551   4.075   5.666   6.219
 8863TIP3   OH226552   4.341   5.233   4.856
 8863TIP3    H126553   4.353   5.140   4.830
 8863TIP3    H226554   4.318   5.223   4.951
 8864TIP3   OH226555   4.284   5.239   5.129
 8864TIP3    H126556   4.363   5.214   5.179
 8864TIP3    H226557   4.287   5.337   5.135
 8865TIP3   OH226558   4.020   4.931   5.333
 8865TIP3    H126559   3.952   4.977   5.387
 8865TIP3    H226560   4.032   4.997   5.262
 8866TIP3   OH226561   5.172   4.566   6.225
 8866TIP3    H126562   5.254   4.606   6.257
 8866TIP3    H226563   5.165   4.485   6.281
 8867TIP3   OH226564   5.057   4.313   5.395
 8867TIP3    H126565   5.042   4.333   5.300
 8867TIP3    H226566   5.094   4.397   5.428
 8868TIP3   OH226567   4.554   5.433   5.076
 8868TIP3    H126568   4.466   5.458   5.112
 8868TIP3    H226569   4.569   5.508   5.016
 8869TIP3   OH226570   4.738   4.501   5.492
 8869TIP3    H126571   4.802   4.573   5.475
 8869TIP3    H226572   4.745   4.492   5.589
 8870TIP3   OH226573   5.019   4.809   6.297
 8870TIP3    H126574   5.040   4.864   6.376
 8870TIP3    H226575   5.075   4.730   6.312
 8871TIP3   OH226576   4.882   4.216   5.589
 8871TIP3    H126577   4.879   4.294   5.647
 8871TIP3    H226578   4.945   4.248   5.520
 8872TIP3   OH226579   4.300   5.510   5.146
 8872TIP3    H126580   4.270   5.580   5.084
 8872TIP3    H226581   4.284   5.553   5.233
 8873TIP3   OH226582   4.396   4.227   5.381
 8873TIP3    H126583   4.393   4.317   5.420
 8873TIP3    H226584   4.492   4.209   5.389
 8874TIP3   OH226585   5.643   4.705   6.283
 8874TIP3    H126586   5.545   4.705   6.286
 8874TIP3    H226587   5.659   4.673   6.193
 8875TIP3   OH226588   5.300   4.910   5.668
 8875TIP3    H126589   5.225   4.849   5.679
 8875TIP3    H226590   5.372   4.863   5.715
 8876TIP3   OH226591   4.016   5.132   5.135
 8876TIP3    H126592   4.088   5.199   5.144
 8876TIP3    H226593   4.058   5.074   5.068
 8877TIP3   OH226594   3.953   4.413   5.273
 8877TIP3    H126595   3.955   4.510   5.271
 8877TIP3    H226596   3.881   4.393   5.213
 8878TIP3   OH226597   5.267   5.867   5.612
 8878TIP3    H126598   5.225   5.914   5.536
 8878TIP3    H226599   5.362   5.885   5.592
 8879TIP3   OH226600   4.346   4.139   6.144
 8879TIP3    H126601   4.319   4.102   6.057
 8879TIP3    H226602   4.337   4.060   6.202
 8880TIP3   OH226603   3.878   5.348   5.518
 8880TIP3    H126604   3.817   5.381   5.585
 8880TIP3    H226605   3.845   5.394   5.437
 8881TIP3   OH226606   4.048   5.902   6.593
 8881TIP3    H126607   4.134   5.904   6.641
 8881TIP3    H226608   4.030   5.806   6.592
 8882TIP3   OH226609   4.519   5.852   6.648
 8882TIP3    H126610   4.615   5.847   6.644
 8882TIP3    H226611   4.493   5.794   6.574
 8883TIP3   OH226612   4.504   5.434   4.764
 8883TIP3    H126613   4.450   5.361   4.802
 8883TIP3    H226614   4.580   5.384   4.729
 8884TIP3   OH226615   5.161   5.765   6.382
 8884TIP3    H126616   5.149   5.690   6.444
 8884TIP3    H226617   5.233   5.814   6.425
 8885TIP3   OH226618   4.939   5.472   4.680
 8885TIP3    H126619   4.981   5.408   4.742
 8885TIP3    H226620   4.997   5.467   4.601
 8886TIP3   OH226621   4.174   5.305   6.793
 8886TIP3    H126622   4.188   5.210   6.807
 8886TIP3    H226623   4.086   5.306   6.747
 8887TIP3   OH226624   4.151   4.948   4.991
 8887TIP3    H126625   4.210   4.920   5.064
 8887TIP3    H226626   4.216   4.954   4.918
 8888TIP3   OH226627   4.780   5.392   6.569
 8888TIP3    H126628   4.738   5.412   6.482
 8888TIP3    H226629   4.813   5.301   6.556
 8889TIP3   OH226630   4.670   5.153   4.799
 8889TIP3    H126631   4.670   5.163   4.897
 8889TIP3    H226632   4.670   5.055   4.792
 8890TIP3   OH226633   5.261   5.403   6.179
 8890TIP3    H126634   5.337   5.440   6.129
 8890TIP3    H226635   5.196   5.474   6.163
 8891TIP3   OH226636   4.298   5.038   6.773
 8891TIP3    H126637   4.373   4.981   6.756
 8891TIP3    H226638   4.321   5.072   6.862
 8892TIP3   OH226639   4.357   4.858   5.208
 8892TIP3    H126640   4.329   4.811   5.288
 8892TIP3    H226641   4.397   4.785   5.155
 8893TIP3   OH226642   4.615   4.911   6.423
 8893TIP3    H126643   4.545   4.978   6.431
 8893TIP3    H226644   4.676   4.952   6.357
 8894TIP3   OH226645   4.462   4.655   5.049
 8894TIP3    H126646   4.437   4.664   4.954
 8894TIP3    H226647   4.559   4.654   5.042
 8895TIP3   OH226648   5.135   5.323   6.572
 8895TIP3    H126649   5.228   5.317   6.544
 8895TIP3    H226650   5.132   5.258   6.644
 8896TIP3   OH226651   5.277   4.978   4.720
 8896TIP3    H126652   5.258   4.937   4.633
 8896TIP3    H226653   5.244   5.069   4.700
 8897TIP3   OH226654   4.751   4.713   6.561
 8897TIP3    H126655   4.754   4.632   6.507
 8897TIP3    H226656   4.703   4.776   6.502
 8898TIP3   OH226657   4.753   4.497   6.374
 8898TIP3    H126658   4.783   4.544   6.295
 8898TIP3    H226659   4.660   4.476   6.350
 8899TIP3   OH226660   4.773   5.019   6.234
 8899TIP3    H126661   4.863   5.046   6.210
 8899TIP3    H226662   4.720   5.090   6.191
 8900TIP3   OH226663   5.376   4.998   6.630
 8900TIP3    H126664   5.410   4.907   6.636
 8900TIP3    H226665   5.448   5.043   6.584
 8901TIP3   OH226666   5.387   5.228   6.345
 8901TIP3    H126667   5.334   5.291   6.290
 8901TIP3    H226668   5.478   5.248   6.311
 8902TIP3   OH226669   4.622   4.818   6.789
 8902TIP3    H126670   4.558   4.747   6.813
 8902TIP3    H226671   4.662   4.782   6.707
 8903TIP3   OH226672   4.887   4.256   6.442
 8903TIP3    H126673   4.835   4.337   6.421
 8903TIP3    H226674   4.819   4.186   6.433
 8904TIP3   OH226675   5.012   4.760   6.657
 8904TIP3    H126676   5.002   4.746   6.753
 8904TIP3    H226677   4.922   4.737   6.628
 8905TIP3   OH226678   5.250   4.717   6.514
 8905TIP3    H126679   5.175   4.715   6.577
 8905TIP3    H226680   5.323   4.683   6.569
 8906TIP3   OH226681   5.469   4.650   6.667
 8906TIP3    H126682   5.486   4.555   6.683
 8906TIP3    H226683   5.469   4.687   6.758
 8907TIP3   OH226684   4.468   4.596   6.851
 8907TIP3    H126685   4.472   4.502   6.825
 8907TIP3    H226686   4.507   4.590   6.941
 8908TIP3   OH226687   4.979   4.269   6.701
 8908TIP3    H126688   5.045   4.198   6.696
 8908TIP3    H226689   4.940   4.263   6.612
 8909TIP3   OH226690   5.047   4.487   6.857
 8909TIP3    H126691   5.025   4.414   6.795
 8909TIP3    H226692   4.966   4.543   6.851
 8910TIP3   OH226693   4.270   5.713   4.959
 8910TIP3    H126694   4.365   5.703   4.938
 8910TIP3    H226695   4.242   5.765   4.881
 8911TIP3   OH226696   3.747   5.093   5.174
 8911TIP3    H126697   3.841   5.114   5.156
 8911TIP3    H226698   3.739   5.006   5.131
 8912TIP3   OH226699   3.665   5.706   5.589
 8912TIP3    H126700   3.599   5.646   5.548
 8912TIP3    H226701   3.709   5.645   5.652
 8913TIP3   OH226702   3.799   5.549   5.773
 8913TIP3    H126703   3.783   5.484   5.843
 8913TIP3    H226704   3.852   5.615   5.823
 8914TIP3   OH226705   5.526   5.945   5.576
 8914TIP3    H126706   5.557   5.977   5.663
 8914TIP3    H226707   5.580   5.997   5.514
 8915TIP3   OH226708   5.588   5.963   5.854
 8915TIP3    H126709   5.530   5.884   5.844
 8915TIP3    H226710   5.653   5.924   5.916
 8916TIP3   OH226711   5.411   5.161   5.050
 8916TIP3    H126712   5.469   5.233   5.017
 8916TIP3    H226713   5.463   5.128   5.126
 8917TIP3   OH226714   5.547   5.030   5.253
 8917TIP3    H126715   5.477   4.992   5.310
 8917TIP3    H226716   5.608   5.071   5.317
 8918TIP3   OH226717   5.593   5.423   5.677
 8918TIP3    H126718   5.646   5.356   5.630
 8918TIP3    H226719   5.595   5.499   5.614
 8919TIP3   OH226720   5.422   5.743   5.868
 8919TIP3    H126721   5.352   5.770   5.930
 8919TIP3    H226722   5.372   5.697   5.797
 8920TIP3   OH226723   5.481   4.942   4.898
 8920TIP3    H126724   5.409   4.944   4.830
 8920TIP3    H226725   5.452   5.017   4.953
 8921TIP3   OH226726   5.354   4.614   4.851
 8921TIP3    H126727   5.307   4.651   4.775
 8921TIP3    H226728   5.331   4.519   4.842
 8922TIP3   OH226729   5.356   4.895   5.398
 8922TIP3    H126730   5.364   4.799   5.389
 8922TIP3    H226731   5.341   4.906   5.495
 8923TIP3   OH226732   3.992   4.947   6.142
 8923TIP3    H126733   3.984   4.917   6.049
 8923TIP3    H226734   4.088   4.955   6.149
 8924TIP3   OH226735   5.629   5.296   6.253
 8924TIP3    H126736   5.709   5.240   6.252
 8924TIP3    H226737   5.660   5.374   6.204
 8925TIP3   OH226738   5.849   5.128   6.277
 8925TIP3    H126739   5.768   5.077   6.302
 8925TIP3    H226740   5.915   5.055   6.288
 8926TIP3   OH226741   5.296   4.348   4.832
 8926TIP3    H126742   5.365   4.315   4.892
 8926TIP3    H226743   5.219   4.291   4.852
 8927TIP3   OH226744   5.356   4.610   5.289
 8927TIP3    H126745   5.397   4.521   5.303
 8927TIP3    H226746   5.413   4.643   5.218
 8928TIP3   OH226747   5.512   4.776   5.786
 8928TIP3    H126748   5.599   4.798   5.745
 8928TIP3    H226749   5.528   4.815   5.875
 8929TIP3   OH226750   5.585   4.923   6.011
 8929TIP3    H126751   5.512   4.957   6.066
 8929TIP3    H226752   5.619   5.006   5.971
 8930TIP3   OH226753   4.204   4.651   6.814
 8930TIP3    H126754   4.302   4.648   6.825
 8930TIP3    H226755   4.180   4.564   6.852
 8931TIP3   OH226756   6.027   4.507   6.557
 8931TIP3    H126757   6.096   4.443   6.531
 8931TIP3    H226758   6.010   4.554   6.473
 8932TIP3   OH226759   5.464   4.359   5.329
 8932TIP3    H126760   5.511   4.342   5.413
 8932TIP3    H226761   5.402   4.283   5.327
 8933TIP3   OH226762   4.167   4.350   6.132
 8933TIP3    H126763   4.229   4.274   6.137
 8933TIP3    H226764   4.187   4.401   6.211
 8934TIP3   OH226765   3.971   4.606   6.218
 8934TIP3    H126766   3.975   4.603   6.121
 8934TIP3    H226767   3.982   4.700   6.237
 8935TIP3   OH226768   5.896   4.650   6.367
 8935TIP3    H126769   5.808   4.693   6.376
 8935TIP3    H226770   5.868   4.571   6.316
 8936TIP3   OH226771   5.540   4.288   4.967
 8936TIP3    H126772   5.578   4.220   4.908
 8936TIP3    H226773   5.606   4.360   4.963
 8937TIP3   OH226774   3.948   4.132   5.733
 8937TIP3    H126775   3.854   4.115   5.751
 8937TIP3    H226776   3.943   4.184   5.650
 8938TIP3   OH226777   5.105   5.823   5.228
 8938TIP3    H126778   5.161   5.818   5.147
 8938TIP3    H226779   5.152   5.889   5.281
 8939TIP3   OH226780   4.169   4.200   6.536
 8939TIP3    H126781   4.121   4.194   6.621
 8939TIP3    H226782   4.098   4.235   6.478
 8940TIP3   OH226783   4.209   5.629   6.611
 8940TIP3    H126784   4.115   5.607   6.600
 8940TIP3    H226785   4.222   5.612   6.705
 8941TIP3   OH226786   4.391   5.664   6.162
 8941TIP3    H126787   4.342   5.740   6.123
 8941TIP3    H226788   4.477   5.680   6.116
 8942TIP3   OH226789   4.824   5.903   6.284
 8942TIP3    H126790   4.859   5.914   6.375
 8942TIP3    H226791   4.887   5.958   6.233
 8943TIP3   OH226792   5.006   6.063   6.157
 8943TIP3    H126793   5.080   6.015   6.115
 8943TIP3    H226794   5.048   6.104   6.234
 8944TIP3   OH226795   5.805   4.414   6.256
 8944TIP3    H126796   5.715   4.405   6.222
 8944TIP3    H226797   5.839   4.322   6.248
 8945TIP3   OH226798   4.062   5.915   6.193
 8945TIP3    H126799   3.971   5.943   6.169
 8945TIP3    H226800   4.080   5.976   6.266
 8946TIP3   OH226801   4.297   5.895   6.047
 8946TIP3    H126802   4.210   5.908   6.090
 8946TIP3    H226803   4.280   5.929   5.956
 8947TIP3   OH226804   4.722   5.922   5.844
 8947TIP3    H126805   4.653   5.939   5.777
 8947TIP3    H226806   4.732   6.011   5.884
 8948TIP3   OH226807   4.989   5.857   5.891
 8948TIP3    H126808   4.896   5.881   5.872
 8948TIP3    H226809   5.037   5.929   5.847
 8949TIP3   OH226810   5.197   6.049   5.807
 8949TIP3    H126811   5.179   6.131   5.755
 8949TIP3    H226812   5.224   5.989   5.735
 8950TIP3   OH226813   3.973   5.710   5.928
 8950TIP3    H126814   3.999   5.683   6.019
 8950TIP3    H226815   4.047   5.668   5.878
 8951TIP3   OH226816   4.170   5.584   5.791
 8951TIP3    H126817   4.186   5.501   5.841
 8951TIP3    H226818   4.261   5.621   5.786
 8952TIP3   OH226819   4.436   5.676   5.797
 8952TIP3    H126820   4.469   5.585   5.784
 8952TIP3    H226821   4.485   5.700   5.878
 8953TIP3   OH226822   5.004   4.331   5.877
 8953TIP3    H126823   4.966   4.258   5.929
 8953TIP3    H226824   5.082   4.290   5.835
 8954TIP3   OH226825   5.528   4.213   5.782
 8954TIP3    H126826   5.565   4.265   5.707
 8954TIP3    H226827   5.433   4.235   5.777
 8955TIP3   OH226828   5.626   4.310   5.547
 8955TIP3    H126829   5.701   4.260   5.509
 8955TIP3    H226830   5.657   4.403   5.531
 8956TIP3   OH226831   4.260   4.042   5.898
 8956TIP3    H126832   4.166   4.011   5.900
 8956TIP3    H226833   4.306   3.956   5.890
 8957TIP3   OH226834   4.056   3.914   5.545
 8957TIP3    H126835   4.081   3.969   5.468
 8957TIP3    H226836   4.026   3.981   5.609
 8958TIP3   OH226837   4.710   4.070   5.778
 8958TIP3    H126838   4.760   4.119   5.710
 8958TIP3    H226839   4.743   4.110   5.860
 8959TIP3   OH226840   5.241   4.223   5.760
 8959TIP3    H126841   5.248   4.182   5.673
 8959TIP3    H226842   5.232   4.144   5.818
 8960TIP3   OH226843   5.280   4.148   5.322
 8960TIP3    H126844   5.194   4.191   5.340
 8960TIP3    H226845   5.265   4.061   5.366
 8961TIP3   OH226846   3.762   5.491   5.320
 8961TIP3    H126847   3.676   5.457   5.288
 8961TIP3    H226848   3.754   5.583   5.290
 8962TIP3   OH226849   4.166   4.067   5.307
 8962TIP3    H126850   4.212   4.005   5.247
 8962TIP3    H226851   4.240   4.121   5.340
 8963TIP3   OH226852   4.672   4.250   5.404
 8963TIP3    H126853   4.733   4.202   5.463
 8963TIP3    H226854   4.695   4.342   5.429
 8964TIP3   OH226855   4.536   5.667   4.905
 8964TIP3    H126856   4.624   5.690   4.868
 8964TIP3    H226857   4.514   5.593   4.844
 8965TIP3   OH226858   5.256   5.793   4.998
 8965TIP3    H126859   5.247   5.695   4.989
 8965TIP3    H226860   5.209   5.823   4.918
 8966TIP3   OH226861   4.466   4.322   6.782
 8966TIP3    H126862   4.429   4.253   6.839
 8966TIP3    H226863   4.560   4.321   6.812
 8967TIP3   OH226864   4.716   4.317   6.902
 8967TIP3    H126865   4.803   4.291   6.868
 8967TIP3    H226866   4.702   4.250   6.972
 8968TIP3   OH226867   3.838   5.506   4.956
 8968TIP3    H126868   3.843   5.526   5.050
 8968TIP3    H226869   3.925   5.462   4.940
 8969TIP3   OH226870   5.542   4.383   6.695
 8969TIP3    H126871   5.556   4.345   6.784
 8969TIP3    H226872   5.632   4.378   6.657
 8970TIP3   OH226873   6.743   5.309   4.944
 8970TIP3    H126874   6.712   5.398   4.916
 8970TIP3    H226875   6.667   5.254   4.920
 8971TIP3   OH226876   6.698   5.301   5.334
 8971TIP3    H126877   6.784   5.316   5.378
 8971TIP3    H226878   6.691   5.204   5.331
 8972TIP3   OH226879   6.044   5.186   5.695
 8972TIP3    H126880   6.072   5.117   5.760
 8972TIP3    H226881   6.126   5.234   5.684
 8973TIP3   OH226882   6.014   5.612   5.425
 8973TIP3    H126883   6.002   5.514   5.422
 8973TIP3    H226884   6.111   5.618   5.417
 8974TIP3   OH226885   5.723   4.810   5.203
 8974TIP3    H126886   5.675   4.892   5.222
 8974TIP3    H226887   5.653   4.760   5.158
 8975TIP3   OH226888   5.777   5.107   5.383
 8975TIP3    H126889   5.826   5.027   5.414
 8975TIP3    H226890   5.829   5.134   5.307
 8976TIP3   OH226891   6.528   5.510   5.284
 8976TIP3    H126892   6.556   5.418   5.299
 8976TIP3    H226893   6.583   5.531   5.206
 8977TIP3   OH226894   6.904   5.006   5.417
 8977TIP3    H126895   6.944   4.917   5.424
 8977TIP3    H226896   6.893   5.013   5.321
 8978TIP3   OH226897   6.303   4.683   5.371
 8978TIP3    H126898   6.282   4.764   5.319
 8978TIP3    H226899   6.252   4.616   5.322
 8979TIP3   OH226900   7.009   4.795   5.002
 8979TIP3    H126901   7.060   4.715   5.018
 8979TIP3    H226902   7.052   4.832   4.922
 8980TIP3   OH226903   5.916   4.893   5.476
 8980TIP3    H126904   5.992   4.857   5.528
 8980TIP3    H226905   5.928   4.842   5.394
 8981TIP3   OH226906   6.380   5.099   5.272
 8981TIP3    H126907   6.470   5.061   5.288
 8981TIP3    H226908   6.331   5.020   5.240
 8982TIP3   OH226909   6.287   4.686   5.808
 8982TIP3    H126910   6.214   4.696   5.746
 8982TIP3    H226911   6.240   4.709   5.893
 8983TIP3   OH226912   6.645   5.532   4.813
 8983TIP3    H126913   6.607   5.514   4.725
 8983TIP3    H226914   6.598   5.617   4.834
 8984TIP3   OH226915   6.410   5.411   5.607
 8984TIP3    H126916   6.355   5.463   5.666
 8984TIP3    H226917   6.420   5.475   5.532
 8985TIP3   OH226918   7.220   4.761   5.224
 8985TIP3    H126919   7.133   4.759   5.271
 8985TIP3    H226920   7.206   4.834   5.161
 8986TIP3   OH226921   6.129   4.754   5.583
 8986TIP3    H126922   6.183   4.833   5.611
 8986TIP3    H226923   6.192   4.722   5.515
 8987TIP3   OH226924   5.591   5.345   4.950
 8987TIP3    H126925   5.581   5.358   4.854
 8987TIP3    H226926   5.647   5.421   4.975
 8988TIP3   OH226927   6.631   4.385   5.516
 8988TIP3    H126928   6.608   4.293   5.541
 8988TIP3    H226929   6.563   4.434   5.568
 8989TIP3   OH226930   6.939   5.660   4.749
 8989TIP3    H126931   6.882   5.607   4.692
 8989TIP3    H226932   6.878   5.686   4.819
 8990TIP3   OH226933   6.569   5.152   4.780
 8990TIP3    H126934   6.496   5.215   4.763
 8990TIP3    H226935   6.618   5.155   4.696
 8991TIP3   OH226936   6.545   4.935   4.530
 8991TIP3    H126937   6.618   4.998   4.549
 8991TIP3    H226938   6.591   4.875   4.469
 8992TIP3   OH226939   6.923   5.241   4.749
 8992TIP3    H126940   6.872   5.264   4.830
 8992TIP3    H226941   7.011   5.219   4.787
 8993TIP3   OH226942   6.281   5.636   5.297
 8993TIP3    H126943   6.241   5.634   5.208
 8993TIP3    H226944   6.364   5.584   5.283
 8994TIP3   OH226945   6.262   5.216   5.485
 8994TIP3    H126946   6.306   5.175   5.409
 8994TIP3    H226947   6.333   5.265   5.527
 8995TIP3   OH226948   6.763   5.100   4.578
 8995TIP3    H126949   6.822   5.163   4.626
 8995TIP3    H226950   6.790   5.119   4.484
 8996TIP3   OH226951   6.157   5.323   5.948
 8996TIP3    H126952   6.149   5.414   5.927
 8996TIP3    H226953   6.065   5.296   5.965
 8997TIP3   OH226954   6.522   5.772   4.840
 8997TIP3    H126955   6.547   5.813   4.925
 8997TIP3    H226956   6.466   5.839   4.798
 8998TIP3   OH226957   7.275   4.339   4.624
 8998TIP3    H126958   7.194   4.364   4.672
 8998TIP3    H226959   7.295   4.421   4.574
 8999TIP3   OH226960   7.088   5.703   4.179
 8999TIP3    H126961   7.092   5.801   4.164
 8999TIP3    H226962   7.181   5.678   4.160
 9000TIP3   OH226963   5.798   5.467   5.871
 9000TIP3    H126964   5.733   5.440   5.803
 9000TIP3    H226965   5.845   5.385   5.893
 9001TIP3   OH226966   5.651   5.654   5.515
 9001TIP3    H126967   5.745   5.657   5.496
 9001TIP3    H226968   5.635   5.737   5.562
 9002TIP3   OH226969   6.388   6.015   4.660
 9002TIP3    H126970   6.347   6.003   4.573
 9002TIP3    H226971   6.361   6.104   4.686
 9003TIP3   OH226972   5.826   5.870   5.033
 9003TIP3    H126973   5.860   5.858   5.125
 9003TIP3    H226974   5.777   5.785   5.023
 9004TIP3   OH226975   6.577   5.900   4.290
 9004TIP3    H126976   6.639   5.835   4.250
 9004TIP3    H226977   6.622   5.920   4.374
 9005TIP3   OH226978   6.640   5.966   4.567
 9005TIP3    H126979   6.555   5.982   4.614
 9005TIP3    H226980   6.694   5.929   4.638
 9006TIP3   OH226981   6.406   4.473   5.658
 9006TIP3    H126982   6.316   4.448   5.629
 9006TIP3    H226983   6.386   4.557   5.703
 9007TIP3   OH226984   6.904   4.561   5.762
 9007TIP3    H126985   6.977   4.593   5.817
 9007TIP3    H226986   6.830   4.564   5.826
 9008TIP3   OH226987   6.843   5.138   4.325
 9008TIP3    H126988   6.804   5.119   4.237
 9008TIP3    H226989   6.925   5.183   4.299
 9009TIP3   OH226990   6.553   4.516   4.631
 9009TIP3    H126991   6.512   4.512   4.720
 9009TIP3    H226992   6.511   4.438   4.591
 9010TIP3   OH226993   6.315   4.953   5.602
 9010TIP3    H126994   6.380   5.015   5.652
 9010TIP3    H226995   6.253   5.022   5.568
 9011TIP3   OH226996   6.224   4.877   5.196
 9011TIP3    H126997   6.131   4.854   5.218
 9011TIP3    H226998   6.221   4.874   5.099
 9012TIP3   OH226999   6.711   4.955   4.912
 9012TIP3    H127000   6.662   5.027   4.867
 9012TIP3    H227001   6.768   4.922   4.839
 9013TIP3   OH227002   6.851   4.986   5.148
 9013TIP3    H127003   6.787   5.004   5.076
 9013TIP3    H227004   6.902   4.915   5.104
 9014TIP3   OH227005   6.160   5.009   5.901
 9014TIP3    H127006   6.147   5.075   5.967
 9014TIP3    H227007   6.126   4.927   5.947
 9015TIP3   OH227008   6.216   4.505   4.589
 9015TIP3    H127009   6.195   4.490   4.684
 9015TIP3    H227010   6.136   4.554   4.561
 9016TIP3   OH227011   5.741   4.536   5.457
 9016TIP3    H127012   5.813   4.557   5.522
 9016TIP3    H227013   5.789   4.505   5.379
 9017TIP3   OH227014   5.715   4.518   4.986
 9017TIP3    H127015   5.756   4.555   4.904
 9017TIP3    H227016   5.653   4.591   5.005
 9018TIP3   OH227017   6.557   4.685   5.247
 9018TIP3    H127018   6.472   4.685   5.296
 9018TIP3    H227019   6.619   4.706   5.318
 9019TIP3   OH227020   5.983   4.752   5.251
 9019TIP3    H127021   5.889   4.765   5.222
 9019TIP3    H227022   5.998   4.659   5.231
 9020TIP3   OH227023   7.025   4.760   5.420
 9020TIP3    H127024   7.047   4.738   5.512
 9020TIP3    H227025   6.949   4.699   5.405
 9021TIP3   OH227026   6.626   5.000   5.338
 9021TIP3    H127027   6.708   4.975   5.293
 9021TIP3    H227028   6.644   4.975   5.430
 9022TIP3   OH227029   6.160   4.500   5.221
 9022TIP3    H127030   6.111   4.437   5.279
 9022TIP3    H227031   6.220   4.439   5.177
 9023TIP3   OH227032   6.622   4.941   5.649
 9023TIP3    H127033   6.559   5.014   5.642
 9023TIP3    H227034   6.674   4.968   5.724
 9024TIP3   OH227035   6.342   5.311   4.739
 9024TIP3    H127036   6.266   5.252   4.756
 9024TIP3    H227037   6.342   5.360   4.825
 9025TIP3   OH227038   6.804   4.615   4.609
 9025TIP3    H127039   6.707   4.596   4.609
 9025TIP3    H227040   6.807   4.712   4.621
 9026TIP3   OH227041   6.875   4.876   4.702
 9026TIP3    H127042   6.972   4.883   4.706
 9026TIP3    H227043   6.850   4.954   4.648
 9027TIP3   OH227044   6.025   5.339   5.409
 9027TIP3    H127045   6.070   5.303   5.332
 9027TIP3    H227046   6.075   5.294   5.479
 9028TIP3   OH227047   6.491   5.458   4.564
 9028TIP3    H127048   6.443   5.544   4.561
 9028TIP3    H227049   6.431   5.405   4.621
 9029TIP3   OH227050   5.907   5.237   6.021
 9029TIP3    H127051   5.889   5.215   6.114
 9029TIP3    H227052   5.831   5.194   5.977
 9030TIP3   OH227053   7.303   4.967   4.528
 9030TIP3    H127054   7.243   4.922   4.464
 9030TIP3    H227055   7.301   5.056   4.485
 9031TIP3   OH227056   6.981   5.747   4.436
 9031TIP3    H127057   6.968   5.666   4.487
 9031TIP3    H227058   7.012   5.714   4.350
 9032TIP3   OH227059   6.140   5.638   5.043
 9032TIP3    H127060   6.139   5.719   4.988
 9032TIP3    H227061   6.045   5.618   5.045
 9033TIP3   OH227062   5.705   4.936   4.739
 9033TIP3    H127063   5.752   5.016   4.766
 9033TIP3    H227064   5.626   4.940   4.798
 9034TIP3   OH227065   6.295   5.416   4.978
 9034TIP3    H127066   6.243   5.495   5.004
 9034TIP3    H227067   6.248   5.343   5.020
 9035TIP3   OH227068   6.064   5.876   4.886
 9035TIP3    H127069   5.976   5.887   4.929
 9035TIP3    H227070   6.100   5.967   4.895
 9036TIP3   OH227071   6.774   5.508   4.340
 9036TIP3    H127072   6.824   5.477   4.419
 9036TIP3    H227073   6.684   5.480   4.363
 9037TIP3   OH227074   7.100   5.975   4.141
 9037TIP3    H127075   7.112   6.041   4.071
 9037TIP3    H227076   7.031   6.021   4.194
 9038TIP3   OH227077   6.126   4.755   6.029
 9038TIP3    H127078   6.030   4.752   6.044
 9038TIP3    H227079   6.160   4.705   6.104
 9039TIP3   OH227080   6.929   5.436   4.552
 9039TIP3    H127081   6.919   5.373   4.627
 9039TIP3    H227082   7.026   5.431   4.540
 9040TIP3   OH227083   5.829   5.849   5.653
 9040TIP3    H127084   5.854   5.756   5.664
 9040TIP3    H227085   5.863   5.882   5.738
 9041TIP3   OH227086   6.137   5.489   4.343
 9041TIP3    H127087   6.147   5.396   4.317
 9041TIP3    H227088   6.115   5.480   4.438
 9042TIP3   OH227089   6.078   5.496   4.614
 9042TIP3    H127090   6.144   5.472   4.681
 9042TIP3    H227091   6.081   5.594   4.617
 9043TIP3   OH227092   6.850   4.575   4.881
 9043TIP3    H127093   6.830   4.583   4.785
 9043TIP3    H227094   6.874   4.667   4.903
 9044TIP3   OH227095   6.351   5.687   4.561
 9044TIP3    H127096   6.263   5.712   4.595
 9044TIP3    H227097   6.370   5.765   4.506
 9045TIP3   OH227098   6.527   4.761   4.983
 9045TIP3    H127099   6.591   4.833   4.966
 9045TIP3    H227100   6.533   4.752   5.080
 9046TIP3   OH227101   6.674   4.478   5.079
 9046TIP3    H127102   6.654   4.558   5.131
 9046TIP3    H227103   6.739   4.513   5.014
 9047TIP3   OH227104   6.097   5.766   4.632
 9047TIP3    H127105   6.065   5.836   4.570
 9047TIP3    H227106   6.081   5.808   4.719
 9048TIP3   OH227107   6.188   4.468   4.860
 9048TIP3    H127108   6.172   4.534   4.929
 9048TIP3    H227109   6.286   4.457   4.867
 9049TIP3   OH227110   7.089   5.144   5.125
 9049TIP3    H127111   6.995   5.125   5.137
 9049TIP3    H227112   7.109   5.200   5.202
 9050TIP3   OH227113   5.799   5.411   4.599
 9050TIP3    H127114   5.876   5.466   4.621
 9050TIP3    H227115   5.844   5.342   4.546
 9051TIP3   OH227116   5.747   4.666   4.761
 9051TIP3    H127117   5.754   4.763   4.759
 9051TIP3    H227118   5.672   4.651   4.701
 9052TIP3   OH227119   6.142   4.390   5.627
 9052TIP3    H127120   6.115   4.354   5.540
 9052TIP3    H227121   6.135   4.311   5.685
 9053TIP3   OH227122   5.687   5.618   5.004
 9053TIP3    H127123   5.620   5.636   5.072
 9053TIP3    H227124   5.644   5.656   4.924
 9054TIP3   OH227125   6.297   5.692   4.250
 9054TIP3    H127126   6.244   5.618   4.287
 9054TIP3    H227127   6.376   5.645   4.219
 9055TIP3   OH227128   6.741   5.725   4.162
 9055TIP3    H127129   6.786   5.669   4.227
 9055TIP3    H227130   6.799   5.720   4.084
 9056TIP3   OH227131   5.934   5.211   4.470
 9056TIP3    H127132   5.983   5.178   4.547
 9056TIP3    H227133   6.006   5.217   4.404
 9057TIP3   OH227134   6.469   5.413   4.290
 9057TIP3    H127135   6.464   5.421   4.387
 9057TIP3    H227136   6.469   5.315   4.280
 9058TIP3   OH227137   6.439   5.136   5.757
 9058TIP3    H127138   6.412   5.079   5.830
 9058TIP3    H227139   6.407   5.227   5.807
 9059TIP3   OH227140   7.074   5.235   4.206
 9059TIP3    H127141   7.055   5.193   4.120
 9059TIP3    H227142   7.041   5.326   4.187
 9060TIP3   OH227143   2.184   0.929   1.764
 9060TIP3    H127144   2.204   0.881   1.848
 9060TIP3    H227145   2.110   0.980   1.796
 9061TIP3   OH227146   6.560   4.715   5.816
 9061TIP3    H127147   6.576   4.778   5.744
 9061TIP3    H227148   6.461   4.716   5.822
 9062TIP3   OH227149   6.674   4.493   5.926
 9062TIP3    H127150   6.631   4.575   5.891
 9062TIP3    H227151   6.601   4.428   5.915
 9063TIP3   OH227152   6.252   4.860   6.332
 9063TIP3    H127153   6.293   4.780   6.292
 9063TIP3    H227154   6.244   4.832   6.425
 9064TIP3   OH227155   6.733   4.492   6.189
 9064TIP3    H127156   6.808   4.433   6.201
 9064TIP3    H227157   6.719   4.485   6.091
 9065TIP3   OH227158   6.063   5.972   4.447
 9065TIP3    H127159   6.158   5.960   4.428
 9065TIP3    H227160   6.037   6.023   4.368
 9066TIP3   OH227161   5.543   5.350   4.661
 9066TIP3    H127162   5.635   5.377   4.640
 9066TIP3    H227163   5.538   5.262   4.617
 9067TIP3   OH227164   5.461   5.965   5.075
 9067TIP3    H127165   5.395   5.904   5.034
 9067TIP3    H227166   5.505   5.904   5.138
 9068TIP3   OH227167   5.590   5.808   5.261
 9068TIP3    H127168   5.575   5.740   5.328
 9068TIP3    H227169   5.639   5.875   5.313
 9069TIP3   OH227170   7.202   5.421   4.530
 9069TIP3    H127171   7.263   5.490   4.497
 9069TIP3    H227172   7.249   5.393   4.611
 9070TIP3   OH227173   7.341   5.313   4.737
 9070TIP3    H127174   7.278   5.255   4.785
 9070TIP3    H227175   7.411   5.328   4.801
 9071TIP3   OH227176   7.275   5.198   4.385
 9071TIP3    H127177   7.206   5.199   4.315
 9071TIP3    H227178   7.244   5.274   4.439
 9072TIP3   OH227179   7.142   4.873   4.336
 9072TIP3    H127180   7.102   4.905   4.255
 9072TIP3    H227181   7.120   4.777   4.330
 9073TIP3   OH227182   7.159   5.143   4.859
 9073TIP3    H127183   7.165   5.048   4.838
 9073TIP3    H227184   7.144   5.141   4.956
 9074TIP3   OH227185   5.777   5.219   5.634
 9074TIP3    H127186   5.772   5.188   5.541
 9074TIP3    H227187   5.875   5.218   5.648
 9075TIP3   OH227188   7.088   4.608   4.327
 9075TIP3    H127189   7.160   4.571   4.381
 9075TIP3    H227190   7.015   4.544   4.338
 9076TIP3   OH227191   7.158   4.869   4.773
 9076TIP3    H127192   7.195   4.779   4.788
 9076TIP3    H227193   7.214   4.898   4.698
 9077TIP3   OH227194   5.989   4.894   6.289
 9077TIP3    H127195   6.087   4.894   6.297
 9077TIP3    H227196   5.968   4.809   6.331
 9078TIP3   OH227197   7.250   4.618   4.832
 9078TIP3    H127198   7.311   4.591   4.903
 9078TIP3    H227199   7.194   4.538   4.822
 9079TIP3   OH227200   5.932   4.572   5.653
 9079TIP3    H127201   5.997   4.498   5.659
 9079TIP3    H227202   5.990   4.644   5.628
 9080TIP3   OH227203   5.758   4.871   5.708
 9080TIP3    H127204   5.802   4.878   5.621
 9080TIP3    H227205   5.784   4.955   5.750
 9081TIP3   OH227206   7.336   4.554   4.462
 9081TIP3    H127207   7.368   4.483   4.401
 9081TIP3    H227208   7.404   4.623   4.450
 9082TIP3   OH227209   5.748   4.374   5.211
 9082TIP3    H127210   5.655   4.368   5.241
 9082TIP3    H227211   5.740   4.434   5.134
 9083TIP3   OH227212   5.964   4.452   6.020
 9083TIP3    H127213   5.916   4.451   6.104
 9083TIP3    H227214   5.898   4.493   5.961
 9084TIP3   OH227215   5.762   5.972   5.416
 9084TIP3    H127216   5.787   5.940   5.506
 9084TIP3    H227217   5.827   5.923   5.362
 9085TIP3   OH227218   5.933   5.821   5.276
 9085TIP3    H127219   5.953   5.740   5.329
 9085TIP3    H227220   6.024   5.857   5.268
 9086TIP3   OH227221   6.189   5.892   5.290
 9086TIP3    H127222   6.234   5.810   5.320
 9086TIP3    H227223   6.248   5.963   5.316
 9087TIP3   OH227224   6.817   4.587   5.377
 9087TIP3    H127225   6.760   4.528   5.430
 9087TIP3    H227226   6.867   4.524   5.323
 9088TIP3   OH227227   7.335   4.500   5.285
 9088TIP3    H127228   7.355   4.500   5.188
 9088TIP3    H227229   7.239   4.479   5.281
 9089TIP3   OH227230   7.436   4.593   5.052
 9089TIP3    H127231   7.491   4.522   5.009
 9089TIP3    H227232   7.486   4.672   5.018
 9090TIP3   OH227233   6.054   4.299   5.378
 9090TIP3    H127234   5.961   4.267   5.382
 9090TIP3    H227235   6.101   4.213   5.373
 9091TIP3   OH227236   5.847   4.170   5.033
 9091TIP3    H127237   5.872   4.226   4.957
 9091TIP3    H227238   5.818   4.237   5.099
 9092TIP3   OH227239   6.498   4.333   5.261
 9092TIP3    H127240   6.557   4.379   5.200
 9092TIP3    H227241   6.528   4.368   5.347
 9093TIP3   OH227242   7.064   4.468   5.232
 9093TIP3    H127243   7.050   4.419   5.151
 9093TIP3    H227244   7.042   4.399   5.299
 9094TIP3   OH227245   7.076   4.403   4.811
 9094TIP3    H127246   6.987   4.442   4.820
 9094TIP3    H227247   7.062   4.316   4.853
 9095TIP3   OH227248   5.558   5.746   4.804
 9095TIP3    H127249   5.473   5.711   4.774
 9095TIP3    H227250   5.548   5.839   4.778
 9096TIP3   OH227251   5.958   4.318   4.791
 9096TIP3    H127252   6.002   4.254   4.730
 9096TIP3    H227253   6.035   4.369   4.823
 9097TIP3   OH227254   6.461   4.511   4.894
 9097TIP3    H127255   6.522   4.463   4.951
 9097TIP3    H227256   6.483   4.604   4.919
 9098TIP3   OH227257   6.327   5.924   4.394
 9098TIP3    H127258   6.416   5.943   4.357
 9098TIP3    H227259   6.303   5.850   4.333
 9099TIP3   OH227260   7.025   6.018   4.464
 9099TIP3    H127261   7.006   5.922   4.463
 9099TIP3    H227262   6.975   6.047   4.385
 9100TIP3   OH227263   6.256   4.576   6.262
 9100TIP3    H127264   6.242   4.512   6.333
 9100TIP3    H227265   6.354   4.576   6.257
 9101TIP3   OH227266   6.492   4.440   6.348
 9101TIP3    H127267   6.578   4.454   6.305
 9101TIP3    H227268   6.514   4.432   6.441
 9102TIP3   OH227269   5.635   5.763   4.443
 9102TIP3    H127270   5.637   5.778   4.539
 9102TIP3    H227271   5.721   5.719   4.427
 9103TIP3   OH227272   7.488   5.066   4.703
 9103TIP3    H127273   7.471   5.161   4.688
 9103TIP3    H227274   7.422   5.026   4.643
 9104TIP3   OH227275   7.384   5.606   4.420
 9104TIP3    H127276   7.355   5.617   4.328
 9104TIP3    H227277   7.335   5.680   4.465
 9105TIP3   OH227278   7.586   4.795   4.952
 9105TIP3    H127279   7.635   4.878   4.927
 9105TIP3    H227280   7.579   4.756   4.863
 9106TIP3   OH227281   7.513   4.780   4.471
 9106TIP3    H127282   7.550   4.823   4.391
 9106TIP3    H227283   7.449   4.850   4.497
 9107TIP3   OH227284   7.721   4.997   4.832
 9107TIP3    H127285   7.642   5.034   4.787
 9107TIP3    H227286   7.790   5.010   4.765
 9108TIP3   OH227287   7.879   5.045   4.172
 9108TIP3    H127288   7.804   5.002   4.216
 9108TIP3    H227289   7.852   5.037   4.079
 9109TIP3   OH227290   7.499   5.185   4.223
 9109TIP3    H127291   7.543   5.272   4.239
 9109TIP3    H227292   7.423   5.193   4.284
 9110TIP3   OH227293   7.585   5.435   4.280
 9110TIP3    H127294   7.540   5.475   4.356
 9110TIP3    H227295   7.617   5.513   4.232
 9111TIP3   OH227296   7.633   5.656   4.112
 9111TIP3    H127297   7.642   5.736   4.059
 9111TIP3    H227298   7.676   5.590   4.051
 9112TIP3   OH227299   7.564   4.925   4.248
 9112TIP3    H127300   7.553   5.023   4.246
 9112TIP3    H227301   7.500   4.899   4.181
 9113TIP3   OH227302   7.745   5.472   3.953
 9113TIP3    H127303   7.773   5.392   4.001
 9113TIP3    H227304   7.805   5.464   3.877
 9114TIP3   OH227305   7.349   5.605   4.132
 9114TIP3    H127306   7.445   5.616   4.128
 9114TIP3    H227307   7.338   5.514   4.096
 9115TIP3   OH227308   7.534   4.649   4.709
 9115TIP3    H127309   7.440   4.626   4.710
 9115TIP3    H227310   7.540   4.704   4.628
 9116TIP3   OH227311   7.855   4.535   4.927
 9116TIP3    H127312   7.763   4.549   4.901
 9116TIP3    H227313   7.894   4.623   4.899
 9117TIP3   OH227314   7.618   4.434   4.526
 9117TIP3    H127315   7.645   4.479   4.444
 9117TIP3    H227316   7.606   4.508   4.589
 9118TIP3   OH227317   7.695   4.582   4.296
 9118TIP3    H127318   7.788   4.554   4.277
 9118TIP3    H227319   7.710   4.667   4.339
 9119TIP3   OH227320   7.432   6.027   3.947
 9119TIP3    H127321   7.405   6.054   4.036
 9119TIP3    H227322   7.487   5.950   3.964
 9120TIP3   OH227323   1.815   5.909   6.554
 9120TIP3    H127324   1.797   6.004   6.554
 9120TIP3    H227325   1.848   5.897   6.463
 9121TIP3   OH227326   1.418   5.838   6.330
 9121TIP3    H127327   1.434   5.777   6.402
 9121TIP3    H227328   1.472   5.914   6.357
 9122TIP3   OH227329   1.594   5.782   6.716
 9122TIP3    H127330   1.503   5.804   6.686
 9122TIP3    H227331   1.651   5.835   6.657
 9123TIP3   OH227332   0.942   5.410   6.730
 9123TIP3    H127333   0.949   5.316   6.707
 9123TIP3    H227334   0.851   5.422   6.697
 9124TIP3   OH227335   0.851   5.993   5.691
 9124TIP3    H127336   0.909   6.015   5.765
 9124TIP3    H227337   0.911   5.936   5.638
 9125TIP3   OH227338   1.532   5.383   5.804
 9125TIP3    H127339   1.452   5.407   5.854
 9125TIP3    H227340   1.547   5.465   5.752
 9126TIP3   OH227341   1.327   6.744   5.314
 9126TIP3    H127342   1.342   6.840   5.326
 9126TIP3    H227343   1.419   6.711   5.320
 9127TIP3   OH227344   1.072   6.187   5.492
 9127TIP3    H127345   1.067   6.152   5.402
 9127TIP3    H227346   1.159   6.231   5.491
 9128TIP3   OH227347   0.792   5.572   5.760
 9128TIP3    H127348   0.817   5.571   5.855
 9128TIP3    H227349   0.738   5.492   5.761
 9129TIP3   OH227350   1.133   5.977   6.302
 9129TIP3    H127351   1.056   6.022   6.263
 9129TIP3    H227352   1.179   6.054   6.344
 9130TIP3   OH227353   1.321   5.805   6.651
 9130TIP3    H127354   1.239   5.860   6.655
 9130TIP3    H227355   1.294   5.735   6.590
 9131TIP3   OH227356   1.068   5.640   5.778
 9131TIP3    H127357   0.971   5.648   5.772
 9131TIP3    H227358   1.097   5.733   5.784
 9132TIP3   OH227359   1.153   5.897   5.794
 9132TIP3    H127360   1.245   5.906   5.819
 9132TIP3    H227361   1.111   5.955   5.863
 9133TIP3   OH227362   1.561   6.013   5.709
 9133TIP3    H127363   1.502   5.968   5.643
 9133TIP3    H227364   1.558   6.103   5.670
 9134TIP3   OH227365   1.337   6.818   5.597
 9134TIP3    H127366   1.279   6.828   5.674
 9134TIP3    H227367   1.290   6.756   5.540
 9135TIP3   OH227368   1.027   6.563   5.526
 9135TIP3    H127369   1.087   6.531   5.597
 9135TIP3    H227370   0.941   6.529   5.560
 9136TIP3   OH227371   1.359   7.019   5.338
 9136TIP3    H127372   1.367   7.080   5.263
 9136TIP3    H227373   1.269   7.035   5.368
 9137TIP3   OH227374   1.188   6.480   5.728
 9137TIP3    H127375   1.180   6.404   5.786
 9137TIP3    H227376   1.286   6.488   5.721
 9138TIP3   OH227377   0.840   5.780   6.164
 9138TIP3    H127378   0.873   5.846   6.101
 9138TIP3    H227379   0.808   5.839   6.235
 9139TIP3   OH227380   1.021   5.551   6.227
 9139TIP3    H127381   1.015   5.601   6.310
 9139TIP3    H227382   0.961   5.602   6.169
 9140TIP3   OH227383   1.343   6.147   6.309
 9140TIP3    H127384   1.307   6.213   6.373
 9140TIP3    H227385   1.419   6.113   6.360
 9141TIP3   OH227386   0.983   6.771   5.332
 9141TIP3    H127387   1.026   6.720   5.402
 9141TIP3    H227388   1.048   6.770   5.259
 9142TIP3   OH227389   1.323   6.277   5.385
 9142TIP3    H127390   1.305   6.236   5.297
 9142TIP3    H227391   1.286   6.366   5.367
 9143TIP3   OH227392   1.461   6.467   5.708
 9143TIP3    H127393   1.522   6.537   5.678
 9143TIP3    H227394   1.509   6.433   5.787
 9144TIP3   OH227395   1.598   6.338   5.903
 9144TIP3    H127396   1.537   6.289   5.963
 9144TIP3    H227397   1.661   6.378   5.966
 9145TIP3   OH227398   1.528   6.244   5.561
 9145TIP3    H127399   1.456   6.245   5.494
 9145TIP3    H227400   1.500   6.320   5.616
 9146TIP3   OH227401   1.407   5.915   5.509
 9146TIP3    H127402   1.352   5.953   5.439
 9146TIP3    H227403   1.379   5.821   5.503
 9147TIP3   OH227404   1.434   6.179   6.051
 9147TIP3    H127405   1.403   6.093   6.020
 9147TIP3    H227406   1.401   6.181   6.143
 9148TIP3   OH227407   1.340   5.650   5.500
 9148TIP3    H127408   1.416   5.620   5.553
 9148TIP3    H227409   1.269   5.587   5.522
 9149TIP3   OH227410   1.374   5.900   5.986
 9149TIP3    H127411   1.417   5.812   5.995
 9149TIP3    H227412   1.432   5.935   5.916
 9150TIP3   OH227413   1.566   6.079   6.458
 9150TIP3    H127414   1.654   6.105   6.424
 9150TIP3    H227415   1.555   6.141   6.532
 9151TIP3   OH227416   1.506   5.658   5.998
 9151TIP3    H127417   1.557   5.640   6.080
 9151TIP3    H227418   1.446   5.580   5.997
 9152TIP3   OH227419   1.584   5.590   5.628
 9152TIP3    H127420   1.624   5.522   5.571
 9152TIP3    H227421   1.651   5.661   5.626
 9153TIP3   OH227422   1.855   5.722   6.900
 9153TIP3    H127423   1.761   5.716   6.880
 9153TIP3    H227424   1.882   5.628   6.902
 9154TIP3   OH227425   1.040   5.597   6.537
 9154TIP3    H127426   1.022   5.508   6.573
 9154TIP3    H227427   1.126   5.583   6.494
 9155TIP3   OH227428   1.573   5.517   6.448
 9155TIP3    H127429   1.610   5.565   6.371
 9155TIP3    H227430   1.477   5.530   6.437
 9156TIP3   OH227431   1.673   5.612   6.214
 9156TIP3    H127432   1.745   5.558   6.175
 9156TIP3    H227433   1.709   5.702   6.197
 9157TIP3   OH227434   0.780   5.357   6.519
 9157TIP3    H127435   0.784   5.403   6.433
 9157TIP3    H227436   0.686   5.341   6.528
 9158TIP3   OH227437   1.292   5.521   6.428
 9158TIP3    H127438   1.285   5.481   6.340
 9158TIP3    H227439   1.280   5.442   6.486
 9159TIP3   OH227440   1.326   5.441   5.980
 9159TIP3    H127441   1.234   5.456   5.954
 9159TIP3    H227442   1.316   5.362   6.037
 9160TIP3   OH227443   0.812   5.521   6.023
 9160TIP3    H127444   0.763   5.447   6.062
 9160TIP3    H227445   0.762   5.598   6.057
 9161TIP3   OH227446   2.792   6.609   5.611
 9161TIP3    H127447   2.759   6.699   5.590
 9161TIP3    H227448   2.718   6.556   5.577
 9162TIP3   OH227449   2.785   6.614   6.001
 9162TIP3    H127450   2.823   6.588   6.088
 9162TIP3    H227451   2.749   6.529   5.971
 9163TIP3   OH227452   2.112   6.507   6.368
 9163TIP3    H127453   2.130   6.431   6.428
 9163TIP3    H227454   2.191   6.560   6.380
 9164TIP3   OH227455   3.034   6.915   5.680
 9164TIP3    H127456   3.026   6.844   5.745
 9164TIP3    H227457   3.071   6.988   5.734
 9165TIP3   OH227458   2.103   6.892   6.127
 9165TIP3    H127459   2.089   6.797   6.102
 9165TIP3    H227460   2.180   6.913   6.070
 9166TIP3   OH227461   1.770   6.112   5.863
 9166TIP3    H127462   1.725   6.196   5.882
 9166TIP3    H227463   1.697   6.064   5.820
 9167TIP3   OH227464   1.839   6.396   6.022
 9167TIP3    H127465   1.881   6.318   6.063
 9167TIP3    H227466   1.898   6.415   5.948
 9168TIP3   OH227467   2.674   7.369   5.699
 9168TIP3    H127468   2.711   7.304   5.635
 9168TIP3    H227469   2.709   7.334   5.782
 9169TIP3   OH227470   2.600   6.836   6.028
 9169TIP3    H127471   2.645   6.758   5.991
 9169TIP3    H227472   2.679   6.885   6.060
 9170TIP3   OH227473   3.607   6.153   6.043
 9170TIP3    H127474   3.635   6.237   6.086
 9170TIP3    H227475   3.629   6.171   5.950
 9171TIP3   OH227476   3.000   6.336   6.072
 9171TIP3    H127477   3.045   6.252   6.094
 9171TIP3    H227478   2.969   6.316   5.981
 9172TIP3   OH227479   2.345   5.994   6.037
 9172TIP3    H127480   2.324   6.067   5.975
 9172TIP3    H227481   2.296   5.921   5.994
 9173TIP3   OH227482   3.039   6.089   5.658
 9173TIP3    H127483   3.109   6.073   5.725
 9173TIP3    H227484   3.093   6.122   5.584
 9174TIP3   OH227485   1.970   6.191   6.147
 9174TIP3    H127486   2.053   6.176   6.196
 9174TIP3    H227487   1.988   6.136   6.067
 9175TIP3   OH227488   2.416   6.391   5.937
 9175TIP3    H127489   2.510   6.366   5.949
 9175TIP3    H227490   2.377   6.306   5.906
 9176TIP3   OH227491   3.678   6.362   6.218
 9176TIP3    H127492   3.594   6.410   6.200
 9176TIP3    H227493   3.712   6.411   6.295
 9177TIP3   OH227494   2.339   5.977   6.471
 9177TIP3    H127495   2.280   6.015   6.404
 9177TIP3    H227496   2.290   5.999   6.553
 9178TIP3   OH227497   2.672   6.825   5.484
 9178TIP3    H127498   2.638   6.816   5.393
 9178TIP3    H227499   2.628   6.907   5.514
 9179TIP3   OH227500   2.467   6.745   6.243
 9179TIP3    H127501   2.429   6.828   6.278
 9179TIP3    H227502   2.514   6.780   6.164
 9180TIP3   OH227503   3.240   6.094   5.840
 9180TIP3    H127504   3.222   6.053   5.926
 9180TIP3    H227505   3.292   6.172   5.865
 9181TIP3   OH227506   2.205   6.088   6.256
 9181TIP3    H127507   2.264   6.163   6.283
 9181TIP3    H227508   2.258   6.052   6.181
 9182TIP3   OH227509   1.662   6.637   5.599
 9182TIP3    H127510   1.615   6.671   5.521
 9182TIP3    H227511   1.695   6.719   5.640
 9183TIP3   OH227512   3.094   7.149   5.845
 9183TIP3    H127513   3.007   7.155   5.889
 9183TIP3    H227514   3.097   7.236   5.799
 9184TIP3   OH227515   3.398   6.046   6.204
 9184TIP3    H127516   3.313   6.079   6.173
 9184TIP3    H227517   3.461   6.084   6.138
 9185TIP3   OH227518   2.688   5.692   6.191
 9185TIP3    H127519   2.670   5.597   6.209
 9185TIP3    H227520   2.611   5.733   6.237
 9186TIP3   OH227521   2.794   7.202   5.510
 9186TIP3    H127522   2.844   7.119   5.496
 9186TIP3    H227523   2.860   7.265   5.473
 9187TIP3   OH227524   2.940   6.987   5.431
 9187TIP3    H127525   2.920   6.904   5.385
 9187TIP3    H227526   2.979   6.953   5.515
 9188TIP3   OH227527   3.324   7.060   6.189
 9188TIP3    H127528   3.318   6.982   6.130
 9188TIP3    H227529   3.314   7.134   6.125
 9189TIP3   OH227530   2.623   6.461   5.447
 9189TIP3    H127531   2.544   6.515   5.426
 9189TIP3    H227532   2.668   6.457   5.361
 9190TIP3   OH227533   2.580   6.249   5.155
 9190TIP3    H127534   2.646   6.301   5.203
 9190TIP3    H227535   2.638   6.185   5.109
 9191TIP3   OH227536   3.516   6.696   6.028
 9191TIP3    H127537   3.436   6.753   6.033
 9191TIP3    H227538   3.554   6.727   5.943
 9192TIP3   OH227539   2.970   6.545   5.413
 9192TIP3    H127540   2.917   6.567   5.492
 9192TIP3    H227541   3.055   6.520   5.456
 9193TIP3   OH227542   3.202   6.573   6.334
 9193TIP3    H127543   3.211   6.653   6.391
 9193TIP3    H227544   3.118   6.591   6.289
 9194TIP3   OH227545   2.203   6.537   5.832
 9194TIP3    H127546   2.161   6.480   5.765
 9194TIP3    H227547   2.280   6.482   5.860
 9195TIP3   OH227548   2.336   6.944   5.986
 9195TIP3    H127549   2.318   6.934   5.891
 9195TIP3    H227550   2.424   6.901   5.994
 9196TIP3   OH227551   2.347   6.504   6.177
 9196TIP3    H127552   2.374   6.472   6.088
 9196TIP3    H227553   2.394   6.589   6.185
 9197TIP3   OH227554   2.857   7.161   5.987
 9197TIP3    H127555   2.812   7.209   6.057
 9197TIP3    H227556   2.850   7.069   6.020
 9198TIP3   OH227557   2.805   6.404   5.242
 9198TIP3    H127558   2.866   6.464   5.291
 9198TIP3    H227559   2.833   6.422   5.149
 9199TIP3   OH227560   2.553   7.076   5.525
 9199TIP3    H127561   2.639   7.124   5.523
 9199TIP3    H227562   2.495   7.133   5.474
 9200TIP3   OH227563   3.326   5.639   5.293
 9200TIP3    H127564   3.244   5.662   5.340
 9200TIP3    H227565   3.342   5.721   5.241
 9201TIP3   OH227566   2.067   6.384   5.639
 9201TIP3    H127567   1.998   6.427   5.584
 9201TIP3    H227568   2.032   6.294   5.647
 9202TIP3   OH227569   3.125   7.008   4.841
 9202TIP3    H127570   3.132   7.103   4.819
 9202TIP3    H227571   3.215   6.976   4.818
 9203TIP3   OH227572   2.429   7.336   5.311
 9203TIP3    H127573   2.398   7.290   5.230
 9203TIP3    H227574   2.374   7.415   5.311
 9204TIP3   OH227575   1.929   7.124   5.708
 9204TIP3    H127576   1.888   7.187   5.770
 9204TIP3    H227577   1.862   7.053   5.703
 9205TIP3   OH227578   2.635   7.234   4.954
 9205TIP3    H127579   2.690   7.163   4.915
 9205TIP3    H227580   2.672   7.239   5.045
 9206TIP3   OH227581   2.686   7.279   5.227
 9206TIP3    H127582   2.601   7.290   5.274
 9206TIP3    H227583   2.743   7.244   5.297
 9207TIP3   OH227584   3.456   6.533   6.513
 9207TIP3    H127585   3.368   6.545   6.474
 9207TIP3    H227586   3.469   6.437   6.502
 9208TIP3   OH227587   2.452   5.770   6.321
 9208TIP3    H127588   2.365   5.741   6.289
 9208TIP3    H227589   2.425   5.851   6.369
 9209TIP3   OH227590   2.988   5.886   6.514
 9209TIP3    H127591   3.058   5.859   6.577
 9209TIP3    H227592   2.906   5.867   6.563
 9210TIP3   OH227593   3.221   6.314   6.427
 9210TIP3    H127594   3.172   6.314   6.512
 9210TIP3    H227595   3.204   6.404   6.393
 9211TIP3   OH227596   2.886   6.444   4.989
 9211TIP3    H127597   2.849   6.422   4.901
 9211TIP3    H227598   2.972   6.484   4.963
 9212TIP3   OH227599   2.597   5.819   5.291
 9212TIP3    H127600   2.560   5.815   5.382
 9212TIP3    H227601   2.557   5.739   5.254
 9213TIP3   OH227602   2.380   6.284   6.331
 9213TIP3    H127603   2.368   6.321   6.421
 9213TIP3    H227604   2.364   6.364   6.276
 9214TIP3   OH227605   2.268   6.175   5.851
 9214TIP3    H127606   2.175   6.149   5.871
 9214TIP3    H227607   2.279   6.134   5.762
 9215TIP3   OH227608   2.759   6.260   5.582
 9215TIP3    H127609   2.710   6.331   5.536
 9215TIP3    H227610   2.815   6.225   5.509
 9216TIP3   OH227611   2.946   6.533   6.661
 9216TIP3    H127612   2.936   6.448   6.708
 9216TIP3    H227613   3.039   6.555   6.682
 9217TIP3   OH227614   2.914   6.285   5.816
 9217TIP3    H127615   2.850   6.311   5.745
 9217TIP3    H227616   2.952   6.207   5.771
 9218TIP3   OH227617   2.196   6.318   6.557
 9218TIP3    H127618   2.228   6.375   6.627
 9218TIP3    H227619   2.191   6.232   6.603
 9219TIP3   OH227620   2.255   5.797   5.255
 9219TIP3    H127621   2.243   5.796   5.352
 9219TIP3    H227622   2.177   5.850   5.228
 9220TIP3   OH227623   1.798   5.833   6.131
 9220TIP3    H127624   1.873   5.870   6.182
 9220TIP3    H227625   1.838   5.810   6.046
 9221TIP3   OH227626   1.759   5.818   5.645
 9221TIP3    H127627   1.805   5.853   5.566
 9221TIP3    H227628   1.699   5.893   5.663
 9222TIP3   OH227629   2.914   6.532   6.234
 9222TIP3    H127630   2.954   6.464   6.175
 9222TIP3    H227631   2.893   6.475   6.312
 9223TIP3   OH227632   2.603   5.996   5.911
 9223TIP3    H127633   2.522   5.995   5.965
 9223TIP3    H227634   2.673   5.988   5.978
 9224TIP3   OH227635   2.030   6.054   5.917
 9224TIP3    H127636   1.936   6.062   5.888
 9224TIP3    H227637   2.052   5.962   5.893
 9225TIP3   OH227638   2.293   6.048   5.611
 9225TIP3    H127639   2.387   6.062   5.588
 9225TIP3    H227640   2.246   6.069   5.527
 9226TIP3   OH227641   3.087   6.075   6.114
 9226TIP3    H127642   3.057   6.088   6.207
 9226TIP3    H227643   3.018   6.015   6.081
 9227TIP3   OH227644   2.147   6.085   5.385
 9227TIP3    H127645   2.077   6.038   5.337
 9227TIP3    H227646   2.199   6.122   5.311
 9228TIP3   OH227647   2.677   6.327   6.009
 9228TIP3    H127648   2.752   6.289   5.960
 9228TIP3    H227649   2.683   6.281   6.094
 9229TIP3   OH227650   2.196   5.812   5.893
 9229TIP3    H127651   2.159   5.735   5.943
 9229TIP3    H227652   2.239   5.767   5.819
 9230TIP3   OH227653   2.654   6.226   6.299
 9230TIP3    H127654   2.563   6.261   6.312
 9230TIP3    H227655   2.709   6.289   6.349
 9231TIP3   OH227656   2.389   6.614   5.393
 9231TIP3    H127657   2.319   6.546   5.382
 9231TIP3    H227658   2.368   6.647   5.484
 9232TIP3   OH227659   3.287   6.850   6.019
 9232TIP3    H127660   3.315   6.900   5.939
 9232TIP3    H227661   3.205   6.807   5.989
 9233TIP3   OH227662   2.849   5.920   5.266
 9233TIP3    H127663   2.752   5.900   5.272
 9233TIP3    H227664   2.853   6.015   5.288
 9234TIP3   OH227665   2.916   6.175   5.365
 9234TIP3    H127666   3.012   6.180   5.379
 9234TIP3    H227667   2.898   6.255   5.312
 9235TIP3   OH227668   2.093   6.627   6.070
 9235TIP3    H127669   2.125   6.594   5.983
 9235TIP3    H227670   2.139   6.568   6.132
 9236TIP3   OH227671   2.537   6.762   5.218
 9236TIP3    H127672   2.489   6.848   5.223
 9236TIP3    H227673   2.482   6.707   5.280
 9237TIP3   OH227674   3.354   6.268   5.197
 9237TIP3    H127675   3.294   6.224   5.133
 9237TIP3    H227676   3.352   6.358   5.157
 9238TIP3   OH227677   3.572   7.158   6.243
 9238TIP3    H127678   3.476   7.144   6.257
 9238TIP3    H227679   3.588   7.094   6.169
 9239TIP3   OH227680   3.056   7.084   5.103
 9239TIP3    H127681   3.032   7.011   5.163
 9239TIP3    H227682   3.075   7.038   5.019
 9240TIP3   OH227683   3.052   6.715   5.934
 9240TIP3    H127684   2.959   6.687   5.947
 9240TIP3    H227685   3.089   6.634   5.892
 9241TIP3   OH227686   2.190   6.942   5.703
 9241TIP3    H127687   2.192   7.018   5.642
 9241TIP3    H227688   2.095   6.929   5.713
 9242TIP3   OH227689   1.753   6.242   5.403
 9242TIP3    H127690   1.796   6.328   5.425
 9242TIP3    H227691   1.675   6.245   5.463
 9243TIP3   OH227692   2.313   6.704   5.635
 9243TIP3    H127693   2.282   6.793   5.660
 9243TIP3    H227694   2.281   6.650   5.710
 9244TIP3   OH227695   2.132   7.175   5.536
 9244TIP3    H127696   2.052   7.161   5.592
 9244TIP3    H227697   2.135   7.271   5.531
 9245TIP3   OH227698   2.850   6.916   6.119
 9245TIP3    H127699   2.867   6.920   6.214
 9245TIP3    H227700   2.926   6.865   6.089
 9246TIP3   OH227701   2.822   6.816   5.008
 9246TIP3    H127702   2.875   6.790   5.087
 9246TIP3    H227703   2.735   6.781   5.033
 9247TIP3   OH227704   3.147   7.285   4.810
 9247TIP3    H127705   3.205   7.364   4.801
 9247TIP3    H227706   3.068   7.328   4.848
 9248TIP3   OH227707   2.192   6.055   6.693
 9248TIP3    H127708   2.101   6.024   6.690
 9248TIP3    H227709   2.230   6.003   6.766
 9249TIP3   OH227710   2.981   6.749   5.225
 9249TIP3    H127711   2.968   6.680   5.294
 9249TIP3    H227712   3.077   6.739   5.209
 9250TIP3   OH227713   2.179   6.791   5.007
 9250TIP3    H127714   2.193   6.698   4.979
 9250TIP3    H227715   2.158   6.779   5.101
 9251TIP3   OH227716   2.125   6.792   5.278
 9251TIP3    H127717   2.201   6.765   5.331
 9251TIP3    H227718   2.129   6.890   5.286
 9252TIP3   OH227719   1.861   6.487   5.482
 9252TIP3    H127720   1.792   6.530   5.537
 9252TIP3    H227721   1.873   6.555   5.413
 9253TIP3   OH227722   3.015   6.124   6.374
 9253TIP3    H127723   3.095   6.166   6.412
 9253TIP3    H227724   3.005   6.044   6.430
 9254TIP3   OH227725   2.897   5.871   5.546
 9254TIP3    H127726   2.883   5.891   5.451
 9254TIP3    H227727   2.936   5.955   5.579
 9255TIP3   OH227728   2.399   6.993   5.229
 9255TIP3    H127729   2.309   7.013   5.261
 9255TIP3    H227730   2.408   7.059   5.159
 9256TIP3   OH227731   2.578   6.059   5.642
 9256TIP3    H127732   2.642   6.132   5.626
 9256TIP3    H227733   2.586   6.049   5.740
 9257TIP3   OH227734   2.853   6.373   6.445
 9257TIP3    H127735   2.882   6.427   6.521
 9257TIP3    H227736   2.906   6.292   6.454
 9258TIP3   OH227737   2.722   5.775   5.740
 9258TIP3    H127738   2.715   5.854   5.797
 9258TIP3    H227739   2.785   5.807   5.672
 9259TIP3   OH227740   2.143   7.062   5.289
 9259TIP3    H127741   2.110   7.134   5.231
 9259TIP3    H227742   2.136   7.104   5.378
 9260TIP3   OH227743   2.237   5.784   5.532
 9260TIP3    H127744   2.235   5.873   5.570
 9260TIP3    H227745   2.333   5.765   5.538
 9261TIP3   OH227746   3.487   6.267   6.438
 9261TIP3    H127747   3.389   6.264   6.435
 9261TIP3    H227748   3.509   6.245   6.346
 9262TIP3   OH227749   3.141   6.470   5.818
 9262TIP3    H127750   3.066   6.409   5.830
 9262TIP3    H227751   3.213   6.423   5.866
 9263TIP3   OH227752   1.859   6.691   5.284
 9263TIP3    H127753   1.934   6.752   5.295
 9263TIP3    H227754   1.898   6.630   5.217
 9264TIP3   OH227755   1.796   5.972   5.422
 9264TIP3    H127756   1.799   6.069   5.421
 9264TIP3    H227757   1.716   5.955   5.371
 9265TIP3   OH227758   3.111   7.406   5.764
 9265TIP3    H127759   3.069   7.463   5.696
 9265TIP3    H227760   3.203   7.439   5.755
 9266TIP3   OH227761   2.185   5.693   6.290
 9266TIP3    H127762   2.157   5.658   6.203
 9266TIP3    H227763   2.175   5.615   6.348
 9267TIP3   OH227764   1.726   6.909   5.679
 9267TIP3    H127765   1.655   6.906   5.744
 9267TIP3    H227766   1.681   6.953   5.602
 9268TIP3   OH227767   2.345   6.992   4.918
 9268TIP3    H127768   2.289   6.918   4.952
 9268TIP3    H227769   2.421   6.942   4.882
 9269TIP3   OH227770   2.780   7.031   4.833
 9269TIP3    H127771   2.818   6.966   4.896
 9269TIP3    H227772   2.841   7.024   4.757
 9270TIP3   OH227773   1.992   6.505   5.141
 9270TIP3    H127774   2.049   6.476   5.215
 9270TIP3    H227775   2.059   6.512   5.069
 9271TIP3   OH227776   2.509   6.711   4.949
 9271TIP3    H127777   2.510   6.720   5.047
 9271TIP3    H227778   2.511   6.613   4.941
 9272TIP3   OH227779   3.096   6.964   6.322
 9272TIP3    H127780   3.176   6.993   6.274
 9272TIP3    H227781   3.087   7.037   6.387
 9273TIP3   OH227782   2.197   6.417   5.358
 9273TIP3    H127783   2.169   6.375   5.441
 9273TIP3    H227784   2.236   6.341   5.309
 9274TIP3   OH227785   2.485   6.428   6.562
 9274TIP3    H127786   2.465   6.493   6.632
 9274TIP3    H227787   2.548   6.479   6.506
 9275TIP3   OH227788   2.302   6.213   5.199
 9275TIP3    H127789   2.278   6.222   5.104
 9275TIP3    H227790   2.400   6.212   5.193
 9276TIP3   OH227791   3.116   6.538   4.870
 9276TIP3    H127792   3.099   6.495   4.784
 9276TIP3    H227793   3.083   6.628   4.849
 9277TIP3   OH227794   2.601   6.244   6.722
 9277TIP3    H127795   2.602   6.167   6.662
 9277TIP3    H227796   2.553   6.308   6.665
 9278TIP3   OH227797   2.598   6.051   6.519
 9278TIP3    H127798   2.626   6.096   6.437
 9278TIP3    H227799   2.504   6.030   6.499
 9279TIP3   OH227800   2.628   6.581   6.395
 9279TIP3    H127801   2.720   6.581   6.363
 9279TIP3    H227802   2.584   6.641   6.331
 9280TIP3   OH227803   3.208   6.549   6.750
 9280TIP3    H127804   3.281   6.487   6.764
 9280TIP3    H227805   3.254   6.635   6.761
 9281TIP3   OH227806   3.253   6.798   6.482
 9281TIP3    H127807   3.184   6.856   6.444
 9281TIP3    H227808   3.335   6.836   6.443
 9282TIP3   OH227809   2.726   5.816   6.600
 9282TIP3    H127810   2.677   5.896   6.570
 9282TIP3    H227811   2.659   5.746   6.586
 9283TIP3   OH227812   2.856   6.313   6.798
 9283TIP3    H127813   2.843   6.299   6.893
 9283TIP3    H227814   2.767   6.294   6.763
 9284TIP3   OH227815   3.088   6.259   6.654
 9284TIP3    H127816   3.017   6.259   6.721
 9284TIP3    H227817   3.168   6.239   6.707
 9285TIP3   OH227818   3.317   6.205   6.798
 9285TIP3    H127819   3.332   6.111   6.822
 9285TIP3    H227820   3.314   6.250   6.886
 9286TIP3   OH227821   2.822   5.824   6.855
 9286TIP3    H127822   2.888   5.752   6.845
 9286TIP3    H227823   2.782   5.823   6.765
 9287TIP3   OH227824   2.859   6.045   7.007
 9287TIP3    H127825   2.861   5.966   6.946
 9287TIP3    H227826   2.769   6.075   6.992
 9288TIP3   OH227827   2.118   7.271   5.115
 9288TIP3    H127828   2.215   7.261   5.103
 9288TIP3    H227829   2.095   7.301   5.026
 9289TIP3   OH227830   1.588   6.654   5.315
 9289TIP3    H127831   1.683   6.674   5.306
 9289TIP3    H227832   1.583   6.563   5.279
 9290TIP3   OH227833   3.358   7.514   5.731
 9290TIP3    H127834   3.420   7.514   5.807
 9290TIP3    H227835   3.411   7.548   5.658
 9291TIP3   OH227836   3.426   7.517   6.001
 9291TIP3    H127837   3.391   7.427   6.014
 9291TIP3    H227838   3.475   7.534   6.083
 9292TIP3   OH227839   3.255   6.723   5.200
 9292TIP3    H127840   3.311   6.799   5.181
 9292TIP3    H227841   3.302   6.683   5.277
 9293TIP3   OH227842   3.385   6.593   5.402
 9293TIP3    H127843   3.320   6.552   5.463
 9293TIP3    H227844   3.454   6.627   5.464
 9294TIP3   OH227845   3.437   6.980   5.833
 9294TIP3    H127846   3.493   6.913   5.788
 9294TIP3    H227847   3.449   7.058   5.774
 9295TIP3   OH227848   3.264   7.280   6.033
 9295TIP3    H127849   3.180   7.293   6.079
 9295TIP3    H227850   3.233   7.244   5.948
 9296TIP3   OH227851   3.318   6.498   5.049
 9296TIP3    H127852   3.248   6.501   4.981
 9296TIP3    H227853   3.292   6.576   5.103
 9297TIP3   OH227854   3.192   6.173   5.001
 9297TIP3    H127855   3.148   6.205   4.922
 9297TIP3    H227856   3.171   6.077   4.996
 9298TIP3   OH227857   3.196   6.453   5.548
 9298TIP3    H127858   3.205   6.357   5.539
 9298TIP3    H227859   3.182   6.463   5.645
 9299TIP3   OH227860   1.851   6.487   6.285
 9299TIP3    H127861   1.862   6.479   6.188
 9299TIP3    H227862   1.943   6.506   6.314
 9300TIP3   OH227863   3.495   6.883   6.387
 9300TIP3    H127864   3.559   6.808   6.387
 9300TIP3    H227865   3.533   6.940   6.319
 9301TIP3   OH227866   3.664   6.679   6.418
 9301TIP3    H127867   3.599   6.622   6.465
 9301TIP3    H227868   3.745   6.625   6.430
 9302TIP3   OH227869   3.136   5.907   4.984
 9302TIP3    H127870   3.208   5.873   5.041
 9302TIP3    H227871   3.062   5.848   5.003
 9303TIP3   OH227872   3.197   6.168   5.438
 9303TIP3    H127873   3.237   6.079   5.453
 9303TIP3    H227874   3.254   6.200   5.367
 9304TIP3   OH227875   3.354   6.336   5.938
 9304TIP3    H127876   3.439   6.359   5.895
 9304TIP3    H227877   3.370   6.374   6.026
 9305TIP3   OH227878   3.428   6.480   6.168
 9305TIP3    H127879   3.352   6.515   6.219
 9305TIP3    H227880   3.460   6.560   6.121
 9306TIP3   OH227881   3.879   6.073   6.721
 9306TIP3    H127882   3.941   6.010   6.678
 9306TIP3    H227883   3.846   6.124   6.644
 9307TIP3   OH227884   3.304   5.918   5.480
 9307TIP3    H127885   3.352   5.901   5.564
 9307TIP3    H227886   3.243   5.841   5.479
 9308TIP3   OH227887   2.001   5.901   6.310
 9308TIP3    H127888   2.063   5.825   6.312
 9308TIP3    H227889   2.063   5.974   6.293
 9309TIP3   OH227890   1.800   6.196   6.376
 9309TIP3    H127891   1.850   6.180   6.293
 9309TIP3    H227892   1.825   6.288   6.392
 9310TIP3   OH227893   3.741   6.208   6.532
 9310TIP3    H127894   3.658   6.258   6.545
 9310TIP3    H227895   3.708   6.138   6.472
 9311TIP3   OH227896   3.380   5.846   5.116
 9311TIP3    H127897   3.420   5.778   5.058
 9311TIP3    H227898   3.447   5.917   5.114
 9312TIP3   OH227899   1.793   5.680   5.874
 9312TIP3    H127900   1.700   5.672   5.901
 9312TIP3    H227901   1.785   5.738   5.795
 9313TIP3   OH227902   2.946   7.380   5.376
 9313TIP3    H127903   3.006   7.373   5.299
 9313TIP3    H227904   2.999   7.434   5.438
 9314TIP3   OH227905   2.019   5.781   6.691
 9314TIP3    H127906   1.965   5.759   6.770
 9314TIP3    H227907   1.949   5.814   6.631
 9315TIP3   OH227908   3.646   5.975   6.409
 9315TIP3    H127909   3.557   5.970   6.370
 9315TIP3    H227910   3.678   5.883   6.399
 9316TIP3   OH227911   2.851   5.890   6.031
 9316TIP3    H127912   2.809   5.817   6.080
 9316TIP3    H227913   2.926   5.847   5.987
 9317TIP3   OH227914   3.370   5.771   5.933
 9317TIP3    H127915   3.407   5.823   5.858
 9317TIP3    H227916   3.275   5.792   5.928
 9318TIP3   OH227917   3.467   5.867   5.697
 9318TIP3    H127918   3.541   5.816   5.658
 9318TIP3    H227919   3.501   5.959   5.683
 9319TIP3   OH227920   2.098   5.598   6.044
 9319TIP3    H127921   2.005   5.567   6.047
 9319TIP3    H227922   2.145   5.512   6.039
 9320TIP3   OH227923   1.888   5.472   5.696
 9320TIP3    H127924   1.919   5.526   5.621
 9320TIP3    H227925   1.864   5.540   5.761
 9321TIP3   OH227926   2.548   5.630   5.927
 9321TIP3    H127927   2.601   5.676   5.860
 9321TIP3    H227928   2.577   5.672   6.009
 9322TIP3   OH227929   3.084   5.780   5.908
 9322TIP3    H127930   3.089   5.739   5.821
 9322TIP3    H227931   3.075   5.701   5.967
 9323TIP3   OH227932   3.121   5.705   5.473
 9323TIP3    H127933   3.035   5.748   5.490
 9323TIP3    H227934   3.106   5.618   5.516
 9324TIP3   OH227935   1.600   7.043   5.485
 9324TIP3    H127936   1.514   7.005   5.460
 9324TIP3    H227937   1.601   7.121   5.426
 9325TIP3   OH227938   2.007   5.626   5.456
 9325TIP3    H127939   2.054   5.563   5.397
 9325TIP3    H227940   2.082   5.680   5.489
 9326TIP3   OH227941   2.513   5.808   5.554
 9326TIP3    H127942   2.574   5.760   5.613
 9326TIP3    H227943   2.537   5.900   5.580
 9327TIP3   OH227944   2.382   7.223   5.059
 9327TIP3    H127945   2.469   7.244   5.020
 9327TIP3    H227946   2.355   7.152   4.996
 9328TIP3   OH227947   3.099   7.348   5.148
 9328TIP3    H127948   3.089   7.250   5.141
 9328TIP3    H227949   3.053   7.376   5.067
 9329TIP3   OH227950   2.286   5.870   6.927
 9329TIP3    H127951   2.261   5.798   6.988
 9329TIP3    H227952   2.378   5.886   6.955
 9330TIP3   OH227953   2.555   5.869   7.035
 9330TIP3    H127954   2.636   5.836   6.993
 9330TIP3    H227955   2.542   5.807   7.108
 9331TIP3   OH227956   1.687   7.072   5.114
 9331TIP3    H127957   1.692   7.084   5.210
 9331TIP3    H227958   1.772   7.026   5.095
 9332TIP3   OH227959   3.387   5.938   6.842
 9332TIP3    H127960   3.408   5.908   6.933
 9332TIP3    H227961   3.476   5.937   6.800
 9333TIP3   OH227962   4.594   6.864   5.096
 9333TIP3    H127963   4.569   6.956   5.088
 9333TIP3    H227964   4.516   6.816   5.063
 9334TIP3   OH227965   4.564   6.846   5.479
 9334TIP3    H127966   4.602   6.841   5.569
 9334TIP3    H227967   4.527   6.756   5.470
 9335TIP3   OH227968   3.881   6.753   5.849
 9335TIP3    H127969   3.910   6.684   5.912
 9335TIP3    H227970   3.958   6.812   5.850
 9336TIP3   OH227971   4.825   7.154   5.160
 9336TIP3    H127972   4.821   7.104   5.243
 9336TIP3    H227973   4.856   7.242   5.191
 9337TIP3   OH227974   3.848   7.171   5.573
 9337TIP3    H127975   3.844   7.073   5.567
 9337TIP3    H227976   3.944   7.184   5.581
 9338TIP3   OH227977   3.564   6.366   5.349
 9338TIP3    H127978   3.521   6.450   5.371
 9338TIP3    H227979   3.491   6.319   5.305
 9339TIP3   OH227980   3.618   6.661   5.532
 9339TIP3    H127981   3.673   6.585   5.561
 9339TIP3    H227982   3.682   6.712   5.479
 9340TIP3   OH227983   4.485   7.609   5.183
 9340TIP3    H127984   4.526   7.549   5.118
 9340TIP3    H227985   4.474   7.551   5.259
 9341TIP3   OH227986   4.379   7.082   5.521
 9341TIP3    H127987   4.405   7.000   5.475
 9341TIP3    H227988   4.466   7.106   5.559
 9342TIP3   OH227989   5.358   6.430   5.511
 9342TIP3    H127990   5.406   6.399   5.591
 9342TIP3    H227991   5.429   6.428   5.444
 9343TIP3   OH227992   4.802   6.603   5.556
 9343TIP3    H127993   4.838   6.516   5.579
 9343TIP3    H227994   4.767   6.585   5.467
 9344TIP3   OH227995   4.143   6.250   5.524
 9344TIP3    H127996   4.121   6.323   5.463
 9344TIP3    H227997   4.092   6.178   5.482
 9345TIP3   OH227998   4.834   6.345   5.147
 9345TIP3    H127999   4.903   6.329   5.216
 9345TIP3    H228000   4.890   6.378   5.074
 9346TIP3   OH228001   3.770   6.455   5.633
 9346TIP3    H128002   3.852   6.438   5.682
 9346TIP3    H228003   3.786   6.399   5.554
 9347TIP3   OH228004   4.214   6.645   5.431
 9347TIP3    H128005   4.308   6.619   5.442
 9347TIP3    H228006   4.174   6.562   5.398
 9348TIP3   OH228007   4.132   6.234   5.961
 9348TIP3    H128008   4.074   6.273   5.893
 9348TIP3    H228009   4.078   6.253   6.041
 9349TIP3   OH228010   4.437   7.085   4.917
 9349TIP3    H128011   4.376   7.039   4.977
 9349TIP3    H228012   4.438   7.174   4.962
 9350TIP3   OH228013   4.247   7.009   5.750
 9350TIP3    H128014   4.182   7.071   5.790
 9350TIP3    H228015   4.270   7.055   5.667
 9351TIP3   OH228016   5.035   6.345   5.328
 9351TIP3    H128017   5.025   6.303   5.415
 9351TIP3    H228018   5.102   6.413   5.346
 9352TIP3   OH228019   4.004   6.349   5.744
 9352TIP3    H128020   4.064   6.423   5.770
 9352TIP3    H228021   4.056   6.311   5.669
 9353TIP3   OH228022   4.058   7.183   5.840
 9353TIP3    H128023   4.037   7.272   5.804
 9353TIP3    H228024   4.004   7.183   5.919
 9354TIP3   OH228025   5.151   6.277   5.660
 9354TIP3    H128026   5.077   6.336   5.638
 9354TIP3    H228027   5.229   6.327   5.630
 9355TIP3   OH228028   4.485   5.950   5.679
 9355TIP3    H128029   4.465   5.856   5.695
 9355TIP3    H228030   4.409   5.992   5.726
 9356TIP3   OH228031   4.597   7.446   4.996
 9356TIP3    H128032   4.651   7.365   4.981
 9356TIP3    H228033   4.661   7.512   4.962
 9357TIP3   OH228034   4.741   7.234   4.914
 9357TIP3    H128035   4.707   7.154   4.873
 9357TIP3    H228036   4.786   7.198   4.994
 9358TIP3   OH228037   4.421   6.719   4.936
 9358TIP3    H128038   4.337   6.765   4.914
 9358TIP3    H228039   4.462   6.707   4.848
 9359TIP3   OH228040   4.376   6.505   4.643
 9359TIP3    H128041   4.444   6.558   4.688
 9359TIP3    H228042   4.432   6.442   4.593
 9360TIP3   OH228043   4.768   6.798   4.898
 9360TIP3    H128044   4.716   6.820   4.978
 9360TIP3    H228045   4.854   6.775   4.939
 9361TIP3   OH228046   4.009   6.800   5.327
 9361TIP3    H128047   3.964   6.748   5.258
 9361TIP3    H228048   4.080   6.740   5.355
 9362TIP3   OH228049   4.130   7.219   5.461
 9362TIP3    H128050   4.093   7.185   5.378
 9362TIP3    H228051   4.213   7.170   5.471
 9363TIP3   OH228052   4.131   6.767   5.672
 9363TIP3    H128053   4.166   6.741   5.584
 9363TIP3    H228054   4.179   6.850   5.691
 9364TIP3   OH228055   4.599   6.664   4.727
 9364TIP3    H128056   4.662   6.720   4.777
 9364TIP3    H228057   4.628   6.685   4.634
 9365TIP3   OH228058   4.022   6.888   6.094
 9365TIP3    H128059   4.020   6.951   6.168
 9365TIP3    H228060   3.932   6.853   6.104
 9366TIP3   OH228061   4.350   7.330   4.990
 9366TIP3    H128062   4.431   7.384   5.001
 9366TIP3    H228063   4.280   7.397   4.991
 9367TIP3   OH228064   5.121   5.896   4.779
 9367TIP3    H128065   5.039   5.919   4.827
 9367TIP3    H228066   5.137   5.978   4.728
 9368TIP3   OH228067   3.882   6.654   5.116
 9368TIP3    H128068   3.832   6.737   5.104
 9368TIP3    H228069   3.813   6.586   5.114
 9369TIP3   OH228070   4.921   7.265   4.327
 9369TIP3    H128071   4.932   7.361   4.309
 9369TIP3    H228072   5.013   7.233   4.314
 9370TIP3   OH228073   3.644   7.016   6.025
 9370TIP3    H128074   3.581   6.985   5.957
 9370TIP3    H228075   3.687   6.933   6.055
 9371TIP3   OH228076   3.509   7.202   5.686
 9371TIP3    H128077   3.595   7.204   5.642
 9371TIP3    H228078   3.495   7.294   5.712
 9372TIP3   OH228079   4.234   7.599   4.796
 9372TIP3    H128080   4.188   7.569   4.716
 9372TIP3    H228081   4.167   7.654   4.840
 9373TIP3   OH228082   3.672   7.453   5.191
 9373TIP3    H128083   3.718   7.440   5.277
 9373TIP3    H228084   3.619   7.370   5.189
 9374TIP3   OH228085   4.434   7.483   4.443
 9374TIP3    H128086   4.492   7.411   4.409
 9374TIP3    H228087   4.469   7.495   4.533
 9375TIP3   OH228088   4.486   7.533   4.713
 9375TIP3    H128089   4.398   7.549   4.756
 9375TIP3    H228090   4.538   7.500   4.788
 9376TIP3   OH228091   3.814   7.223   6.050
 9376TIP3    H128092   3.888   7.168   6.081
 9376TIP3    H228093   3.755   7.155   6.010
 9377TIP3   OH228094   4.249   6.028   5.810
 9377TIP3    H128095   4.161   5.999   5.778
 9377TIP3    H228096   4.222   6.109   5.857
 9378TIP3   OH228097   4.783   6.143   6.000
 9378TIP3    H128098   4.850   6.111   6.064
 9378TIP3    H228099   4.698   6.125   6.046
 9379TIP3   OH228100   4.685   6.712   4.477
 9379TIP3    H128101   4.644   6.689   4.391
 9379TIP3    H228102   4.772   6.744   4.448
 9380TIP3   OH228103   4.393   6.076   4.778
 9380TIP3    H128104   4.357   6.072   4.869
 9380TIP3    H228105   4.352   5.995   4.741
 9381TIP3   OH228106   4.180   6.545   5.822
 9381TIP3    H128107   4.141   6.573   5.908
 9381TIP3    H228108   4.164   6.627   5.770
 9382TIP3   OH228109   4.066   6.431   5.338
 9382TIP3    H128110   3.972   6.410   5.357
 9382TIP3    H228111   4.075   6.390   5.249
 9383TIP3   OH228112   4.556   6.516   5.069
 9383TIP3    H128113   4.507   6.588   5.025
 9383TIP3    H228114   4.611   6.481   4.997
 9384TIP3   OH228115   4.707   6.542   5.305
 9384TIP3    H128116   4.644   6.567   5.234
 9384TIP3    H228117   4.746   6.464   5.261
 9385TIP3   OH228118   3.997   6.574   6.035
 9385TIP3    H128119   4.036   6.636   6.098
 9385TIP3    H228120   3.988   6.494   6.089
 9386TIP3   OH228121   4.050   6.053   4.742
 9386TIP3    H128122   4.039   6.053   4.839
 9386TIP3    H228123   3.973   6.108   4.716
 9387TIP3   OH228124   3.593   6.090   5.617
 9387TIP3    H128125   3.666   6.127   5.671
 9387TIP3    H228126   3.636   6.069   5.533
 9388TIP3   OH228127   3.555   6.074   5.132
 9388TIP3    H128128   3.602   6.110   5.053
 9388TIP3    H228129   3.496   6.150   5.150
 9389TIP3   OH228130   4.674   6.785   5.720
 9389TIP3    H128131   4.736   6.730   5.667
 9389TIP3    H228132   4.673   6.733   5.804
 9390TIP3   OH228133   4.398   6.248   5.396
 9390TIP3    H128134   4.316   6.250   5.449
 9390TIP3    H228135   4.466   6.248   5.465
 9391TIP3   OH228136   3.826   6.311   5.406
 9391TIP3    H128137   3.732   6.319   5.376
 9391TIP3    H228138   3.849   6.220   5.382
 9392TIP3   OH228139   4.089   6.302   5.098
 9392TIP3    H128140   4.182   6.319   5.075
 9392TIP3    H228141   4.040   6.324   5.016
 9393TIP3   OH228142   4.862   6.338   5.601
 9393TIP3    H128143   4.828   6.347   5.693
 9393TIP3    H228144   4.800   6.273   5.565
 9394TIP3   OH228145   3.945   6.334   4.871
 9394TIP3    H128146   3.871   6.293   4.823
 9394TIP3    H228147   3.995   6.374   4.798
 9395TIP3   OH228148   4.477   6.577   5.494
 9395TIP3    H128149   4.553   6.541   5.446
 9395TIP3    H228150   4.483   6.535   5.581
 9396TIP3   OH228151   3.992   6.069   5.380
 9396TIP3    H128152   3.955   5.993   5.429
 9396TIP3    H228153   4.033   6.026   5.304
 9397TIP3   OH228154   4.449   6.485   5.787
 9397TIP3    H128155   4.358   6.518   5.798
 9397TIP3    H228156   4.502   6.555   5.831
 9398TIP3   OH228157   4.196   6.875   4.883
 9398TIP3    H128158   4.124   6.810   4.864
 9398TIP3    H228159   4.168   6.904   4.973
 9399TIP3   OH228160   4.644   6.178   4.749
 9399TIP3    H128161   4.548   6.157   4.758
 9399TIP3    H228162   4.649   6.273   4.774
 9400TIP3   OH228163   4.711   6.432   4.851
 9400TIP3    H128164   4.808   6.436   4.867
 9400TIP3    H228165   4.696   6.512   4.798
 9401TIP3   OH228166   3.879   6.892   5.555
 9401TIP3    H128167   3.917   6.870   5.467
 9401TIP3    H228168   3.932   6.836   5.614
 9402TIP3   OH228169   3.759   6.803   6.157
 9402TIP3    H128170   3.807   6.798   6.243
 9402TIP3    H228171   3.696   6.731   6.167
 9403TIP3   OH228172   5.150   6.524   4.682
 9403TIP3    H128173   5.088   6.482   4.618
 9403TIP3    H228174   5.148   6.614   4.644
 9404TIP3   OH228175   4.839   7.339   4.589
 9404TIP3    H128176   4.829   7.276   4.661
 9404TIP3    H228177   4.873   7.285   4.516
 9405TIP3   OH228178   4.793   6.988   5.408
 9405TIP3    H128179   4.712   6.932   5.408
 9405TIP3    H228180   4.860   6.922   5.382
 9406TIP3   OH228181   3.976   7.185   5.193
 9406TIP3    H128182   3.945   7.261   5.141
 9406TIP3    H228183   3.902   7.121   5.179
 9407TIP3   OH228184   3.540   6.493   4.887
 9407TIP3    H128185   3.578   6.582   4.905
 9407TIP3    H228186   3.464   6.494   4.949
 9408TIP3   OH228187   4.127   6.965   5.128
 9408TIP3    H128188   4.081   7.050   5.145
 9408TIP3    H228189   4.082   6.910   5.195
 9409TIP3   OH228190   3.894   7.419   5.028
 9409TIP3    H128191   3.810   7.433   5.077
 9409TIP3    H228192   3.932   7.510   5.033
 9410TIP3   OH228193   4.641   7.115   5.619
 9410TIP3    H128194   4.716   7.133   5.680
 9410TIP3    H228195   4.689   7.069   5.547
 9411TIP3   OH228196   4.950   7.537   4.309
 9411TIP3    H128197   5.005   7.614   4.285
 9411TIP3    H228198   4.870   7.584   4.342
 9412TIP3   OH228199   3.970   6.312   6.175
 9412TIP3    H128200   3.874   6.319   6.190
 9412TIP3    H228201   3.999   6.263   6.253
 9413TIP3   OH228202   4.766   7.003   4.711
 9413TIP3    H128203   4.761   6.931   4.776
 9413TIP3    H228204   4.861   6.998   4.687
 9414TIP3   OH228205   3.701   7.417   5.811
 9414TIP3    H128206   3.744   7.331   5.811
 9414TIP3    H228207   3.759   7.466   5.871
 9415TIP3   OH228208   4.014   7.031   4.493
 9415TIP3    H128209   4.003   6.937   4.468
 9415TIP3    H228210   3.982   7.030   4.586
 9416TIP3   OH228211   3.938   7.051   4.753
 9416TIP3    H128212   3.950   7.013   4.841
 9416TIP3    H228213   3.929   7.147   4.773
 9417TIP3   OH228214   3.632   6.739   4.952
 9417TIP3    H128215   3.652   6.806   5.021
 9417TIP3    H228216   3.649   6.796   4.874
 9418TIP3   OH228217   4.811   6.383   5.873
 9418TIP3    H128218   4.905   6.391   5.892
 9418TIP3    H228219   4.788   6.298   5.919
 9419TIP3   OH228220   4.694   6.127   5.032
 9419TIP3    H128221   4.680   6.149   4.938
 9419TIP3    H228222   4.733   6.210   5.067
 9420TIP3   OH228223   4.220   7.232   4.689
 9420TIP3    H128224   4.132   7.235   4.733
 9420TIP3    H228225   4.217   7.322   4.649
 9421TIP3   OH228226   4.375   6.315   5.129
 9421TIP3    H128227   4.439   6.388   5.113
 9421TIP3    H228228   4.381   6.304   5.226
 9422TIP3   OH228229   4.652   6.625   5.943
 9422TIP3    H128230   4.633   6.642   6.036
 9422TIP3    H228231   4.695   6.538   5.946
 9423TIP3   OH228232   4.517   6.031   5.227
 9423TIP3    H128233   4.507   6.110   5.284
 9423TIP3    H228234   4.582   6.064   5.161
 9424TIP3   OH228235   3.956   7.319   4.782
 9424TIP3    H128236   3.917   7.390   4.726
 9424TIP3    H228237   3.931   7.351   4.872
 9425TIP3   OH228238   4.034   6.039   5.018
 9425TIP3    H128239   4.031   6.130   5.056
 9425TIP3    H228240   4.131   6.023   5.026
 9426TIP3   OH228241   4.932   6.736   5.300
 9426TIP3    H128242   4.856   6.678   5.317
 9426TIP3    H228243   5.003   6.690   5.351
 9427TIP3   OH228244   3.642   6.960   4.752
 9427TIP3    H128245   3.704   7.009   4.809
 9427TIP3    H228246   3.703   6.910   4.694
 9428TIP3   OH228247   3.593   6.226   4.908
 9428TIP3    H128248   3.597   6.324   4.907
 9428TIP3    H228249   3.513   6.210   4.856
 9429TIP3   OH228250   3.984   5.949   5.776
 9429TIP3    H128251   3.954   5.916   5.689
 9429TIP3    H228252   3.972   5.871   5.833
 9430TIP3   OH228253   3.529   7.215   5.205
 9430TIP3    H128254   3.450   7.203   5.150
 9430TIP3    H228255   3.586   7.141   5.175
 9431TIP3   OH228256   4.137   7.249   4.389
 9431TIP3    H128257   4.084   7.181   4.438
 9431TIP3    H228258   4.195   7.190   4.339
 9432TIP3   OH228259   4.605   7.286   4.334
 9432TIP3    H128260   4.698   7.297   4.360
 9432TIP3    H228261   4.613   7.274   4.238
 9433TIP3   OH228262   3.793   6.765   4.631
 9433TIP3    H128263   3.847   6.733   4.706
 9433TIP3    H228264   3.861   6.766   4.560
 9434TIP3   OH228265   3.948   6.769   6.364
 9434TIP3    H128266   3.988   6.748   6.451
 9434TIP3    H228267   3.931   6.866   6.371
 9435TIP3   OH228268   3.992   6.681   4.844
 9435TIP3    H128269   3.959   6.651   4.932
 9435TIP3    H228270   4.026   6.597   4.806
 9436TIP3   OH228271   4.258   6.722   6.062
 9436TIP3    H128272   4.193   6.795   6.073
 9436TIP3    H228273   4.326   6.766   6.006
 9437TIP3   OH228274   4.097   6.467   4.687
 9437TIP3    H128275   4.074   6.477   4.592
 9437TIP3    H228276   4.195   6.467   4.681
 9438TIP3   OH228277   4.918   6.790   4.354
 9438TIP3    H128278   4.898   6.745   4.269
 9438TIP3    H228279   4.888   6.880   4.331
 9439TIP3   OH228280   4.376   6.515   6.193
 9439TIP3    H128281   4.379   6.440   6.130
 9439TIP3    H228282   4.334   6.586   6.139
 9440TIP3   OH228283   4.391   6.308   6.005
 9440TIP3    H128284   4.418   6.355   5.924
 9440TIP3    H228285   4.296   6.288   5.987
 9441TIP3   OH228286   4.417   6.829   5.867
 9441TIP3    H128287   4.501   6.842   5.820
 9441TIP3    H228288   4.358   6.897   5.827
 9442TIP3   OH228289   4.257   6.633   6.415
 9442TIP3    H128290   4.179   6.577   6.434
 9442TIP3    H228291   4.292   6.587   6.335
 9443TIP3   OH228292   4.520   6.069   6.065
 9443TIP3    H128293   4.470   6.152   6.047
 9443TIP3    H228294   4.449   6.002   6.061
 9444TIP3   OH228295   4.652   6.527   6.247
 9444TIP3    H128296   4.665   6.596   6.315
 9444TIP3    H228297   4.555   6.526   6.238
 9445TIP3   OH228298   4.097   6.407   6.485
 9445TIP3    H128299   4.104   6.315   6.453
 9445TIP3    H228300   4.144   6.402   6.570
 9446TIP3   OH228301   4.618   6.080   6.315
 9446TIP3    H128302   4.682   6.007   6.310
 9446TIP3    H228303   4.575   6.073   6.228
 9447TIP3   OH228304   4.587   6.268   6.503
 9447TIP3    H128305   4.593   6.215   6.421
 9447TIP3    H228306   4.567   6.357   6.472
 9448TIP3   OH228307   3.911   7.523   4.601
 9448TIP3    H128308   4.008   7.518   4.593
 9448TIP3    H228309   3.890   7.556   4.512
 9449TIP3   OH228310   3.371   6.921   4.760
 9449TIP3    H128311   3.465   6.944   4.780
 9449TIP3    H228312   3.378   6.824   4.746
 9450TIP3   OH228313   3.290   7.534   5.219
 9450TIP3    H128314   3.232   7.462   5.186
 9450TIP3    H228315   3.334   7.486   5.294
 9451TIP3   OH228316   3.410   7.406   5.423
 9451TIP3    H128317   3.432   7.312   5.419
 9451TIP3    H228318   3.481   7.441   5.480
 9452TIP3   OH228319   5.041   6.988   4.675
 9452TIP3    H128320   5.114   7.046   4.646
 9452TIP3    H228321   5.081   6.945   4.754
 9453TIP3   OH228322   5.162   6.843   4.869
 9453TIP3    H128323   5.106   6.804   4.939
 9453TIP3    H228324   5.236   6.884   4.919
 9454TIP3   OH228325   5.119   6.758   4.536
 9454TIP3    H128326   5.048   6.757   4.468
 9454TIP3    H228327   5.088   6.833   4.590
 9455TIP3   OH228328   4.986   6.431   4.487
 9455TIP3    H128329   4.946   6.459   4.404
 9455TIP3    H228330   4.965   6.335   4.484
 9456TIP3   OH228331   4.991   6.705   5.033
 9456TIP3    H128332   4.998   6.608   5.027
 9456TIP3    H228333   4.974   6.718   5.129
 9457TIP3   OH228334   3.618   6.781   5.785
 9457TIP3    H128335   3.615   6.746   5.693
 9457TIP3    H228336   3.715   6.780   5.801
 9458TIP3   OH228337   4.932   6.165   4.472
 9458TIP3    H128338   5.005   6.131   4.528
 9458TIP3    H228339   4.858   6.105   4.490
 9459TIP3   OH228340   4.992   6.423   4.926
 9459TIP3    H128341   5.032   6.334   4.940
 9459TIP3    H228342   5.049   6.456   4.855
 9460TIP3   OH228343   5.147   6.620   5.426
 9460TIP3    H128344   5.238   6.637   5.394
 9460TIP3    H228345   5.167   6.588   5.516
 9461TIP3   OH228346   3.829   6.457   6.440
 9461TIP3    H128347   3.927   6.465   6.448
 9461TIP3    H228348   3.814   6.374   6.489
 9462TIP3   OH228349   5.100   6.174   4.966
 9462TIP3    H128350   5.148   6.158   5.050
 9462TIP3    H228351   5.039   6.098   4.965
 9463TIP3   OH228352   3.799   6.159   5.789
 9463TIP3    H128353   3.862   6.084   5.795
 9463TIP3    H228354   3.861   6.233   5.778
 9464TIP3   OH228355   3.599   6.428   5.857
 9464TIP3    H128356   3.650   6.431   5.774
 9464TIP3    H228357   3.626   6.511   5.900
 9465TIP3   OH228358   5.176   6.103   4.602
 9465TIP3    H128359   5.216   6.034   4.545
 9465TIP3    H228360   5.244   6.173   4.600
 9466TIP3   OH228361   3.587   5.931   5.358
 9466TIP3    H128362   3.495   5.927   5.389
 9466TIP3    H228363   3.580   5.992   5.282
 9467TIP3   OH228364   4.740   7.633   4.871
 9467TIP3    H128365   4.778   7.618   4.781
 9467TIP3    H228366   4.818   7.675   4.911
 9468TIP3   OH228367   3.805   6.005   6.171
 9468TIP3    H128368   3.756   6.011   6.255
 9468TIP3    H228369   3.742   6.050   6.111
 9469TIP3   OH228370   4.009   7.434   5.765
 9469TIP3    H128371   3.969   7.516   5.728
 9469TIP3    H228372   4.092   7.470   5.803
 9470TIP3   OH228373   5.413   6.134   5.982
 9470TIP3    H128374   5.335   6.131   5.924
 9470TIP3    H228375   5.474   6.076   5.933
 9471TIP3   OH228376   3.707   7.766   5.833
 9471TIP3    H128377   3.629   7.756   5.777
 9471TIP3    H228378   3.675   7.735   5.919
 9472TIP3   OH228379   3.925   7.672   5.682
 9472TIP3    H128380   3.854   7.716   5.733
 9472TIP3    H228381   3.920   7.721   5.596
 9473TIP3   OH228382   3.610   7.518   5.577
 9473TIP3    H128383   3.644   7.491   5.665
 9473TIP3    H228384   3.684   7.483   5.521
 9474TIP3   OH228385   3.803   7.401   5.427
 9474TIP3    H128386   3.819   7.314   5.470
 9474TIP3    H228387   3.895   7.431   5.411
 9475TIP3   OH228388   4.072   7.488   5.420
 9475TIP3    H128389   4.106   7.396   5.425
 9475TIP3    H228390   4.073   7.514   5.513
 9476TIP3   OH228391   4.650   6.147   5.521
 9476TIP3    H128392   4.606   6.073   5.567
 9476TIP3    H228393   4.723   6.103   5.475
 9477TIP3   OH228394   5.167   6.019   5.412
 9477TIP3    H128395   5.204   6.076   5.341
 9477TIP3    H228396   5.075   6.051   5.416
 9478TIP3   OH228397   5.264   6.128   5.182
 9478TIP3    H128398   5.338   6.076   5.145
 9478TIP3    H228399   5.299   6.219   5.168
 9479TIP3   OH228400   3.895   5.855   5.529
 9479TIP3    H128401   3.802   5.824   5.534
 9479TIP3    H228402   3.941   5.769   5.524
 9480TIP3   OH228403   3.689   5.729   5.183
 9480TIP3    H128404   3.716   5.785   5.108
 9480TIP3    H228405   3.660   5.795   5.249
 9481TIP3   OH228406   4.345   5.884   5.414
 9481TIP3    H128407   4.397   5.932   5.347
 9481TIP3    H228408   4.368   5.931   5.495
 9482TIP3   OH228409   4.878   6.037   5.396
 9482TIP3    H128410   4.888   5.996   5.309
 9482TIP3    H228411   4.870   5.957   5.454
 9483TIP3   OH228412   4.917   5.962   4.960
 9483TIP3    H128413   4.831   6.006   4.979
 9483TIP3    H228414   4.903   5.875   5.003
 9484TIP3   OH228415   3.396   7.270   4.939
 9484TIP3    H128416   3.306   7.245   4.912
 9484TIP3    H228417   3.392   7.366   4.931
 9485TIP3   OH228418   3.804   5.883   4.942
 9485TIP3    H128419   3.851   5.821   4.884
 9485TIP3    H228420   3.878   5.937   4.976
 9486TIP3   OH228421   4.311   6.064   5.041
 9486TIP3    H128422   4.372   6.018   5.101
 9486TIP3    H228423   4.332   6.157   5.066
 9487TIP3   OH228424   4.177   7.476   4.546
 9487TIP3    H128425   4.263   7.502   4.507
 9487TIP3    H228426   4.150   7.409   4.479
 9488TIP3   OH228427   4.878   7.603   4.641
 9488TIP3    H128428   4.872   7.506   4.624
 9488TIP3    H228429   4.857   7.640   4.553
 9489TIP3   OH228430   4.099   6.129   6.415
 9489TIP3    H128431   4.061   6.061   6.474
 9489TIP3    H228432   4.192   6.130   6.447
 9490TIP3   OH228433   4.339   6.138   6.549
 9490TIP3    H128434   4.435   6.155   6.536
 9490TIP3    H228435   4.340   6.060   6.608
 9491TIP3   OH228436   3.475   7.337   4.601
 9491TIP3    H128437   3.472   7.321   4.697
 9491TIP3    H228438   3.561   7.294   4.577
 9492TIP3   OH228439   5.356   6.622   4.838
 9492TIP3    H128440   5.311   6.707   4.850
 9492TIP3    H228441   5.285   6.571   4.794
 9493TIP3   OH228442   5.413   6.912   4.955
 9493TIP3    H128443   5.451   6.837   5.003
 9493TIP3    H228444   5.491   6.951   4.912
 9494TIP3   OH228445   5.898   6.480   5.058
 9494TIP3    H128446   5.880   6.556   5.001
 9494TIP3    H228447   5.858   6.409   5.006
 9495TIP3   OH228448   5.586   6.693   5.129
 9495TIP3    H128449   5.681   6.711   5.149
 9495TIP3    H228450   5.595   6.633   5.052
 9496TIP3   OH228451   5.245   7.145   4.571
 9496TIP3    H128452   5.208   7.174   4.486
 9496TIP3    H228453   5.266   7.231   4.614
 9497TIP3   OH228454   6.167   6.758   4.122
 9497TIP3    H128455   6.221   6.812   4.180
 9497TIP3    H228456   6.235   6.699   4.082
 9498TIP3   OH228457   6.902   6.137   4.251
 9498TIP3    H128458   6.811   6.149   4.286
 9498TIP3    H228459   6.919   6.225   4.211
 9499TIP3   OH228460   5.669   6.872   4.554
 9499TIP3    H128461   5.585   6.912   4.525
 9499TIP3    H228462   5.644   6.825   4.634
 9500TIP3   OH228463   6.446   6.968   3.941
 9500TIP3    H128464   6.440   6.931   3.851
 9500TIP3    H228465   6.541   6.978   3.954
 9501TIP3   OH228466   6.195   6.331   4.262
 9501TIP3    H128467   6.159   6.327   4.353
 9501TIP3    H228468   6.153   6.251   4.225
 9502TIP3   OH228469   5.874   6.661   4.836
 9502TIP3    H128470   5.778   6.644   4.850
 9502TIP3    H228471   5.884   6.620   4.748
 9503TIP3   OH228472   5.846   6.311   4.228
 9503TIP3    H128473   5.835   6.309   4.325
 9503TIP3    H228474   5.769   6.365   4.203
 9504TIP3   OH228475   5.390   6.351   5.099
 9504TIP3    H128476   5.463   6.383   5.156
 9504TIP3    H228477   5.435   6.322   5.018
 9505TIP3   OH228478   5.352   6.331   4.619
 9505TIP3    H128479   5.399   6.366   4.540
 9505TIP3    H228480   5.291   6.405   4.636
 9506TIP3   OH228481   5.621   6.564   4.888
 9506TIP3    H128482   5.526   6.574   4.861
 9506TIP3    H228483   5.640   6.472   4.863
 9507TIP3   OH228484   5.887   6.556   4.580
 9507TIP3    H128485   5.976   6.583   4.553
 9507TIP3    H228486   5.832   6.579   4.501
 9508TIP3   OH228487   5.739   6.589   4.355
 9508TIP3    H128488   5.665   6.549   4.307
 9508TIP3    H228489   5.789   6.629   4.281
 9509TIP3   OH228490   5.781   6.320   4.862
 9509TIP3    H128491   5.745   6.244   4.912
 9509TIP3    H228492   5.819   6.277   4.785
 9510TIP3   OH228493   5.946   7.147   4.359
 9510TIP3    H128494   5.887   7.070   4.341
 9510TIP3    H228495   6.030   7.101   4.376
 9511TIP3   OH228496   6.433   6.458   4.249
 9511TIP3    H128497   6.343   6.418   4.248
 9511TIP3    H228498   6.425   6.528   4.182
 9512TIP3   OH228499   5.344   6.754   4.376
 9512TIP3    H128500   5.387   6.839   4.398
 9512TIP3    H228501   5.266   6.757   4.437
 9513TIP3   OH228502   5.780   7.296   3.982
 9513TIP3    H128503   5.778   7.201   3.958
 9513TIP3    H228504   5.747   7.295   4.075
 9514TIP3   OH228505   5.716   7.316   4.252
 9514TIP3    H128506   5.775   7.249   4.291
 9514TIP3    H228507   5.745   7.393   4.305
 9515TIP3   OH228508   5.445   7.001   4.453
 9515TIP3    H128509   5.377   7.043   4.510
 9515TIP3    H228510   5.456   7.071   4.385
 9516TIP3   OH228511   6.466   6.427   4.524
 9516TIP3    H128512   6.458   6.423   4.426
 9516TIP3    H228513   6.558   6.454   4.534
 9517TIP3   OH228514   6.180   6.578   4.613
 9517TIP3    H128515   6.269   6.591   4.575
 9517TIP3    H228516   6.200   6.580   4.708
 9518TIP3   OH228517   6.320   6.305   4.722
 9518TIP3    H128518   6.343   6.373   4.787
 9518TIP3    H228519   6.373   6.339   4.646
 9519TIP3   OH228520   5.831   6.293   4.505
 9519TIP3    H128521   5.829   6.385   4.540
 9519TIP3    H228522   5.927   6.276   4.511
 9520TIP3   OH228523   5.448   7.204   4.257
 9520TIP3    H128524   5.517   7.273   4.262
 9520TIP3    H228525   5.490   7.144   4.191
 9521TIP3   OH228526   5.389   6.484   4.395
 9521TIP3    H128527   5.393   6.582   4.394
 9521TIP3    H228528   5.310   6.467   4.343
 9522TIP3   OH228529   5.760   6.211   5.272
 9522TIP3    H128530   5.753   6.177   5.181
 9522TIP3    H228531   5.763   6.128   5.324
 9523TIP3   OH228532   5.284   7.402   4.652
 9523TIP3    H128533   5.245   7.468   4.712
 9523TIP3    H228534   5.263   7.445   4.566
 9524TIP3   OH228535   5.938   7.494   3.884
 9524TIP3    H128536   5.881   7.425   3.923
 9524TIP3    H228537   6.018   7.445   3.864
 9525TIP3   OH228538   5.586   7.020   4.116
 9525TIP3    H128539   5.641   6.982   4.187
 9525TIP3    H228540   5.652   7.023   4.043
 9526TIP3   OH228541   6.087   7.216   3.923
 9526TIP3    H128542   6.043   7.213   4.009
 9526TIP3    H228543   6.107   7.121   3.911
 9527TIP3   OH228544   5.790   6.929   4.320
 9527TIP3    H128545   5.753   6.900   4.407
 9527TIP3    H228546   5.825   6.844   4.285
 9528TIP3   OH228547   5.894   6.718   4.169
 9528TIP3    H128548   5.867   6.731   4.076
 9528TIP3    H228549   5.991   6.718   4.160
 9529TIP3   OH228550   5.177   7.167   4.291
 9529TIP3    H128551   5.272   7.188   4.277
 9529TIP3    H228552   5.172   7.077   4.252
 9530TIP3   OH228553   6.735   6.704   3.971
 9530TIP3    H128554   6.763   6.717   3.879
 9530TIP3    H228555   6.735   6.606   3.977
 9531TIP3   OH228556   6.727   6.426   3.961
 9531TIP3    H128557   6.800   6.394   4.018
 9531TIP3    H228558   6.654   6.366   3.982
 9532TIP3   OH228559   5.587   6.419   5.278
 9532TIP3    H128560   5.647   6.341   5.283
 9532TIP3    H228561   5.652   6.491   5.280
 9533TIP3   OH228562   5.402   6.715   5.352
 9533TIP3    H128563   5.453   6.664   5.286
 9533TIP3    H228564   5.410   6.805   5.316
 9534TIP3   OH228565   6.961   6.354   4.094
 9534TIP3    H128566   7.008   6.294   4.033
 9534TIP3    H228567   7.021   6.429   4.103
 9535TIP3   OH228568   5.383   6.188   4.846
 9535TIP3    H128569   5.292   6.183   4.877
 9535TIP3    H228570   5.375   6.249   4.769
 9536TIP3   OH228571   5.692   6.111   5.014
 9536TIP3    H128572   5.599   6.081   5.022
 9536TIP3    H228573   5.738   6.024   5.010
 9537TIP3   OH228574   5.481   5.985   4.669
 9537TIP3    H128575   5.509   6.041   4.595
 9537TIP3    H228576   5.454   6.052   4.736
 9538TIP3   OH228577   6.157   6.144   4.920
 9538TIP3    H128578   6.205   6.189   4.848
 9538TIP3    H228579   6.121   6.218   4.970
 9539TIP3   OH228580   6.668   6.173   4.386
 9539TIP3    H128581   6.701   6.245   4.444
 9539TIP3    H228582   6.652   6.102   4.451
 9540TIP3   OH228583   5.204   7.532   4.429
 9540TIP3    H128584   5.115   7.497   4.411
 9540TIP3    H228585   5.191   7.625   4.400
 9541TIP3   OH228586   5.600   6.141   4.428
 9541TIP3    H128587   5.647   6.077   4.370
 9541TIP3    H228588   5.674   6.194   4.463
 9542TIP3   OH228589   6.110   6.325   4.528
 9542TIP3    H128590   6.172   6.281   4.588
 9542TIP3    H228591   6.125   6.418   4.555
 9543TIP3   OH228592   5.277   7.581   4.092
 9543TIP3    H128593   5.285   7.585   4.188
 9543TIP3    H228594   5.363   7.539   4.067
 9544TIP3   OH228595   2.963   7.458   4.929
 9544TIP3    H128596   2.892   7.477   4.994
 9544TIP3    H228597   2.945   7.524   4.861
 9545TIP3   OH228598   3.028   7.568   5.560
 9545TIP3    H128599   3.061   7.634   5.497
 9545TIP3    H228600   2.931   7.584   5.560
 9546TIP3   OH228601   3.104   7.711   5.327
 9546TIP3    H128602   3.163   7.645   5.286
 9546TIP3    H228603   3.166   7.783   5.343
 9547TIP3   OH228604   1.545   7.260   5.335
 9547TIP3    H128605   1.544   7.333   5.272
 9547TIP3    H228606   1.467   7.280   5.388
 9548TIP3   OH228607   2.754   7.592   5.553
 9548TIP3    H128608   2.706   7.556   5.478
 9548TIP3    H228609   2.726   7.529   5.623
 9549TIP3   OH228610   2.762   7.516   5.104
 9549TIP3    H128611   2.673   7.525   5.068
 9549TIP3    H228612   2.752   7.437   5.161
 9550TIP3   OH228613   4.107   7.767   5.283
 9550TIP3    H128614   4.115   7.678   5.323
 9550TIP3    H228615   4.048   7.809   5.349
 9551TIP3   OH228616   4.763   7.715   4.412
 9551TIP3    H128617   4.690   7.731   4.477
 9551TIP3    H228618   4.747   7.784   4.348
 9552TIP3   OH228619   3.900   7.819   5.460
 9552TIP3    H128620   3.806   7.817   5.432
 9552TIP3    H228621   3.925   7.913   5.454
 9553TIP3   OH228622   3.636   7.749   5.411
 9553TIP3    H128623   3.584   7.729   5.332
 9553TIP3    H228624   3.614   7.676   5.470
 9554TIP3   OH228625   4.256   7.990   5.141
 9554TIP3    H128626   4.234   7.914   5.198
 9554TIP3    H228627   4.343   7.960   5.107
 9555TIP3   OH228628   3.517   7.684   5.163
 9555TIP3    H128629   3.433   7.636   5.176
 9555TIP3    H228630   3.578   7.608   5.155
 9556TIP3   OH228631   3.305   7.510   4.814
 9556TIP3    H128632   3.363   7.551   4.750
 9556TIP3    H228633   3.274   7.590   4.860
 9557TIP3   OH228634   3.983   7.678   5.053
 9557TIP3    H128635   3.970   7.769   5.022
 9557TIP3    H228636   4.026   7.696   5.139
 9558TIP3   OH228637   4.532   7.834   4.985
 9558TIP3    H128638   4.531   7.753   4.932
 9558TIP3    H228639   4.565   7.801   5.069
 9559TIP3   OH228640   4.562   7.772   4.591
 9559TIP3    H128641   4.469   7.791   4.572
 9559TIP3    H228642   4.553   7.691   4.646
 9560TIP3   OH228643   5.123   7.768   4.311
 9560TIP3    H128644   5.192   7.809   4.257
 9560TIP3    H228645   5.071   7.848   4.333
 9561TIP3   OH228646   5.533   2.036   7.327
 9561TIP3    H128647   5.484   1.951   7.327
 9561TIP3    H228648   5.524   2.060   7.422
 9562TIP3   OH228649   5.662   2.265   7.252
 9562TIP3    H128650   5.609   2.184   7.270
 9562TIP3    H228651   5.728   2.261   7.324
 9563TIP3   OH228652   5.389   2.529   7.436
 9563TIP3    H128653   5.483   2.531   7.460
 9563TIP3    H228654   5.390   2.581   7.354
 9564TIP3   OH228655   5.669   2.513   7.415
 9564TIP3    H128656   5.714   2.596   7.391
 9564TIP3    H228657   5.648   2.474   7.328
 9565TIP3   OH228658   5.008   2.286   7.410
 9565TIP3    H128659   5.010   2.295   7.507
 9565TIP3    H228660   5.099   2.253   7.392
 9566TIP3   OH228661   4.300   3.825   7.350
 9566TIP3    H128662   4.308   3.920   7.326
 9566TIP3    H228663   4.392   3.793   7.334
 9567TIP3   OH228664   3.803   4.034   7.478
 9567TIP3    H128665   3.862   3.973   7.429
 9567TIP3    H228666   3.839   4.025   7.568
 9568TIP3   OH228667   4.027   3.323   7.441
 9568TIP3    H128668   4.023   3.252   7.374
 9568TIP3    H228669   4.110   3.302   7.488
 9569TIP3   OH228670   4.217   3.899   7.608
 9569TIP3    H128671   4.239   3.828   7.670
 9569TIP3    H228672   4.243   3.862   7.521
 9570TIP3   OH228673   4.002   3.651   7.504
 9570TIP3    H128674   4.064   3.637   7.578
 9570TIP3    H228675   3.928   3.595   7.533
 9571TIP3   OH228676   4.326   4.096   7.311
 9571TIP3    H128677   4.372   4.176   7.280
 9571TIP3    H228678   4.246   4.139   7.350
 9572TIP3   OH228679   3.520   3.811   7.418
 9572TIP3    H128680   3.515   3.758   7.500
 9572TIP3    H228681   3.598   3.770   7.376
 9573TIP3   OH228682   3.945   3.855   7.326
 9573TIP3    H128683   3.985   3.794   7.392
 9573TIP3    H228684   4.008   3.848   7.252
 9574TIP3   OH228685   4.304   3.368   7.333
 9574TIP3    H128686   4.263   3.317   7.261
 9574TIP3    H228687   4.254   3.452   7.322
 9575TIP3   OH228688   4.504   3.328   7.505
 9575TIP3    H128689   4.433   3.340   7.438
 9575TIP3    H228690   4.456   3.352   7.586
 9576TIP3   OH228691   4.341   2.941   7.477
 9576TIP3    H128692   4.357   3.036   7.484
 9576TIP3    H228693   4.275   2.936   7.405
 9577TIP3   OH228694   3.524   4.077   7.523
 9577TIP3    H128695   3.621   4.077   7.511
 9577TIP3    H228696   3.502   3.992   7.482
 9578TIP3   OH228697   4.329   4.163   7.613
 9578TIP3    H128698   4.284   4.080   7.636
 9578TIP3    H228699   4.267   4.203   7.551
 9579TIP3   OH228700   4.644   3.676   7.599
 9579TIP3    H128701   4.592   3.717   7.528
 9579TIP3    H228702   4.618   3.729   7.677
 9580TIP3   OH228703   5.595   3.533   7.424
 9580TIP3    H128704   5.516   3.586   7.401
 9580TIP3    H228705   5.639   3.524   7.338
 9581TIP3   OH228706   5.544   3.321   7.143
 9581TIP3    H128707   5.611   3.369   7.195
 9581TIP3    H228708   5.602   3.257   7.096
 9582TIP3   OH228709   5.917   3.629   7.415
 9582TIP3    H128710   5.840   3.632   7.474
 9582TIP3    H228711   5.985   3.591   7.471
 9583TIP3   OH228712   5.775   3.480   7.224
 9583TIP3    H128713   5.831   3.546   7.269
 9583TIP3    H228714   5.800   3.496   7.129
 9584TIP3   OH228715   4.990   3.411   7.638
 9584TIP3    H128716   4.957   3.465   7.563
 9584TIP3    H228717   5.036   3.338   7.593
 9585TIP3   OH228718   6.074   4.082   6.833
 9585TIP3    H128719   6.090   4.178   6.818
 9585TIP3    H228720   6.165   4.046   6.823
 9586TIP3   OH228721   5.374   4.406   7.292
 9586TIP3    H128722   5.350   4.378   7.202
 9586TIP3    H228723   5.397   4.499   7.280
 9587TIP3   OH228724   5.587   4.269   6.943
 9587TIP3    H128725   5.652   4.205   6.906
 9587TIP3    H228726   5.636   4.304   7.020
 9588TIP3   OH228727   5.636   4.340   7.245
 9588TIP3    H128728   5.546   4.348   7.282
 9588TIP3    H228729   5.687   4.328   7.326
 9589TIP3   OH228730   5.852   3.512   6.972
 9589TIP3    H128731   5.816   3.490   6.884
 9589TIP3    H228732   5.935   3.559   6.947
 9590TIP3   OH228733   5.578   2.888   7.276
 9590TIP3    H128734   5.542   2.891   7.367
 9590TIP3    H228735   5.525   2.815   7.238
 9591TIP3   OH228736   5.744   3.335   7.559
 9591TIP3    H128737   5.685   3.400   7.515
 9591TIP3    H228738   5.783   3.286   7.483
 9592TIP3   OH228739   5.229   2.876   7.239
 9592TIP3    H128740   5.221   2.873   7.336
 9592TIP3    H228741   5.143   2.917   7.216
 9593TIP3   OH228742   5.261   3.163   7.610
 9593TIP3    H128743   5.353   3.147   7.583
 9593TIP3    H228744   5.210   3.146   7.528
 9594TIP3   OH228745   5.098   3.179   7.381
 9594TIP3    H128746   5.030   3.120   7.341
 9594TIP3    H228747   5.152   3.198   7.302
 9595TIP3   OH228748   5.352   3.685   7.383
 9595TIP3    H128749   5.287   3.615   7.360
 9595TIP3    H228750   5.336   3.696   7.477
 9596TIP3   OH228751   5.799   3.026   7.202
 9596TIP3    H128752   5.719   2.983   7.242
 9596TIP3    H228753   5.824   3.089   7.272
 9597TIP3   OH228754   5.897   3.256   7.329
 9597TIP3    H128755   5.994   3.259   7.327
 9597TIP3    H228756   5.870   3.337   7.282
 9598TIP3   OH228757   5.497   3.828   7.189
 9598TIP3    H128758   5.458   3.918   7.202
 9598TIP3    H228759   5.453   3.780   7.262
 9599TIP3   OH228760   6.282   3.337   7.198
 9599TIP3    H128761   6.230   3.299   7.123
 9599TIP3    H228762   6.310   3.420   7.156
 9600TIP3   OH228763   5.957   4.133   7.082
 9600TIP3    H128764   6.005   4.064   7.129
 9600TIP3    H228765   5.993   4.125   6.992
 9601TIP3   OH228766   4.741   3.319   7.379
 9601TIP3    H128767   4.781   3.405   7.404
 9601TIP3    H228768   4.657   3.322   7.433
 9602TIP3   OH228769   5.779   3.875   6.993
 9602TIP3    H128770   5.835   3.855   7.071
 9602TIP3    H228771   5.691   3.855   7.028
 9603TIP3   OH228772   6.105   4.349   6.821
 9603TIP3    H128773   6.162   4.427   6.812
 9603TIP3    H228774   6.021   4.394   6.843
 9604TIP3   OH228775   5.946   3.806   7.199
 9604TIP3    H128776   5.930   3.756   7.281
 9604TIP3    H228777   6.043   3.798   7.191
 9605TIP3   OH228778   5.144   3.862   6.995
 9605TIP3    H128779   5.162   3.769   6.970
 9605TIP3    H228780   5.122   3.852   7.090
 9606TIP3   OH228781   5.091   3.870   7.268
 9606TIP3    H128782   5.176   3.845   7.307
 9606TIP3    H228783   5.094   3.968   7.275
 9607TIP3   OH228784   4.847   3.564   7.457
 9607TIP3    H128785   4.775   3.606   7.508
 9607TIP3    H228786   4.855   3.630   7.385
 9608TIP3   OH228787   5.815   3.031   7.505
 9608TIP3    H128788   5.829   2.953   7.449
 9608TIP3    H228789   5.905   3.048   7.535
 9609TIP3   OH228790   5.362   4.062   7.220
 9609TIP3    H128791   5.277   4.094   7.255
 9609TIP3    H228792   5.388   4.138   7.166
 9610TIP3   OH228793   5.550   3.136   7.634
 9610TIP3    H128794   5.625   3.189   7.602
 9610TIP3    H228795   5.568   3.134   7.728
 9611TIP3   OH228796   5.103   4.144   7.280
 9611TIP3    H128797   5.077   4.203   7.206
 9611TIP3    H228798   5.085   4.203   7.355
 9612TIP3   OH228799   5.212   2.858   7.514
 9612TIP3    H128800   5.193   2.885   7.606
 9612TIP3    H228801   5.310   2.857   7.515
 9613TIP3   OH228802   4.822   3.767   7.268
 9613TIP3    H128803   4.895   3.831   7.279
 9613TIP3    H228804   4.864   3.708   7.201
 9614TIP3   OH228805   4.763   3.047   7.368
 9614TIP3    H128806   4.774   3.142   7.383
 9614TIP3    H228807   4.692   3.025   7.429
 9615TIP3   OH228808   4.683   4.039   7.688
 9615TIP3    H128809   4.602   4.092   7.677
 9615TIP3    H228810   4.707   4.031   7.594
 9616TIP3   OH228811   5.308   4.063   6.904
 9616TIP3    H128812   5.254   3.989   6.942
 9616TIP3    H228813   5.388   4.015   6.877
 9617TIP3   OH228814   5.753   4.098   6.816
 9617TIP3    H128815   5.796   4.045   6.886
 9617TIP3    H228816   5.817   4.093   6.743
 9618TIP3   OH228817   4.958   3.579   7.130
 9618TIP3    H128818   5.011   3.542   7.202
 9618TIP3    H228819   5.026   3.585   7.059
 9619TIP3   OH228820   5.466   3.779   6.926
 9619TIP3    H128821   5.471   3.793   7.023
 9619TIP3    H228822   5.471   3.681   6.923
 9620TIP3   OH228823   5.173   3.481   7.350
 9620TIP3    H128824   5.146   3.421   7.421
 9620TIP3    H228825   5.210   3.416   7.287
 9621TIP3   OH228826   5.268   3.287   7.185
 9621TIP3    H128827   5.245   3.293   7.090
 9621TIP3    H228828   5.366   3.284   7.180
 9622TIP3   OH228829   6.083   3.611   6.856
 9622TIP3    H128830   6.065   3.567   6.771
 9622TIP3    H228831   6.046   3.700   6.836
 9623TIP3   OH228832   5.074   4.342   7.093
 9623TIP3    H128833   5.170   4.335   7.077
 9623TIP3    H228834   5.049   4.398   7.017
 9624TIP3   OH228835   4.552   3.725   7.308
 9624TIP3    H128836   4.647   3.748   7.295
 9624TIP3    H228837   4.548   3.636   7.266
 9625TIP3   OH228838   6.221   3.791   7.200
 9625TIP3    H128839   6.275   3.861   7.159
 9625TIP3    H228840   6.259   3.785   7.288
 9626TIP3   OH228841   6.283   3.576   7.036
 9626TIP3    H128842   6.213   3.576   6.967
 9626TIP3    H228843   6.248   3.647   7.094
 9627TIP3   OH228844   6.149   3.240   6.972
 9627TIP3    H128845   6.101   3.264   6.891
 9627TIP3    H228846   6.125   3.146   6.980
 9628TIP3   OH228847   6.085   2.973   6.995
 9628TIP3    H128848   6.135   2.892   7.013
 9628TIP3    H228849   5.995   2.935   6.983
 9629TIP3   OH228850   4.579   4.114   7.438
 9629TIP3    H128851   4.490   4.077   7.424
 9629TIP3    H228852   4.557   4.208   7.435
 9630TIP3   OH228853   4.998   2.737   7.377
 9630TIP3    H128854   5.046   2.657   7.347
 9630TIP3    H228855   5.063   2.778   7.437
 9631TIP3   OH228856   5.484   2.891   7.532
 9631TIP3    H128857   5.511   2.831   7.606
 9631TIP3    H228858   5.521   2.977   7.563
 9632TIP3   OH228859   5.338   4.298   7.040
 9632TIP3    H128860   5.428   4.312   7.006
 9632TIP3    H228861   5.314   4.221   6.984
 9633TIP3   OH228862   4.645   4.138   7.098
 9633TIP3    H128863   4.639   4.148   7.194
 9633TIP3    H228864   4.732   4.095   7.086
 9634TIP3   OH228865   6.386   3.976   7.075
 9634TIP3    H128866   6.348   3.983   6.985
 9634TIP3    H228867   6.341   4.053   7.120
 9635TIP3   OH228868   6.503   3.554   6.876
 9635TIP3    H128869   6.536   3.645   6.893
 9635TIP3    H228870   6.426   3.554   6.937
 9636TIP3   OH228871   6.573   3.815   6.943
 9636TIP3    H128872   6.502   3.858   6.995
 9636TIP3    H228873   6.578   3.876   6.866
 9637TIP3   OH228874   6.578   4.001   6.737
 9637TIP3    H128875   6.635   4.080   6.750
 9637TIP3    H228876   6.625   3.960   6.662
 9638TIP3   OH228877   6.544   3.279   6.867
 9638TIP3    H128878   6.562   3.375   6.861
 9638TIP3    H228879   6.457   3.281   6.907
 9639TIP3   OH228880   6.747   3.862   6.571
 9639TIP3    H128881   6.796   3.847   6.655
 9639TIP3    H228882   6.823   3.865   6.509
 9640TIP3   OH228883   6.319   3.956   6.809
 9640TIP3    H128884   6.410   3.978   6.779
 9640TIP3    H228885   6.306   3.871   6.761
 9641TIP3   OH228886   2.160   5.361   7.540
 9641TIP3    H128887   2.123   5.435   7.489
 9641TIP3    H228888   2.249   5.348   7.499
 9642TIP3   OH228889   1.789   5.369   7.419
 9642TIP3    H128890   1.846   5.374   7.497
 9642TIP3    H228891   1.852   5.359   7.345
 9643TIP3   OH228892   2.127   4.952   7.501
 9643TIP3    H128893   2.098   4.867   7.463
 9643TIP3    H228894   2.108   5.013   7.426
 9644TIP3   OH228895   3.424   5.081   7.557
 9644TIP3    H128896   3.352   5.145   7.540
 9644TIP3    H228897   3.479   5.089   7.477
 9645TIP3   OH228898   3.391   4.876   7.298
 9645TIP3    H128899   3.457   4.928   7.346
 9645TIP3    H228900   3.450   4.816   7.247
 9646TIP3   OH228901   3.762   5.180   7.566
 9646TIP3    H128902   3.697   5.193   7.637
 9646TIP3    H228903   3.833   5.134   7.613
 9647TIP3   OH228904   3.622   5.035   7.375
 9647TIP3    H128905   3.678   5.098   7.423
 9647TIP3    H228906   3.647   5.054   7.281
 9648TIP3   OH228907   4.137   4.267   7.429
 9648TIP3    H128908   4.058   4.286   7.484
 9648TIP3    H228909   4.149   4.351   7.381
 9649TIP3   OH228910   3.934   5.637   6.986
 9649TIP3    H128911   3.942   5.733   6.965
 9649TIP3    H228912   4.026   5.607   6.972
 9650TIP3   OH228913   3.231   5.987   7.416
 9650TIP3    H128914   3.214   5.921   7.345
 9650TIP3    H228915   3.234   6.068   7.364
 9651TIP3   OH228916   3.442   5.856   7.102
 9651TIP3    H128917   3.499   5.787   7.062
 9651TIP3    H228918   3.484   5.867   7.190
 9652TIP3   OH228919   3.506   5.912   7.371
 9652TIP3    H128920   3.424   5.921   7.424
 9652TIP3    H228921   3.567   5.872   7.434
 9653TIP3   OH228922   3.694   5.076   7.123
 9653TIP3    H128923   3.657   5.053   7.035
 9653TIP3    H228924   3.780   5.115   7.097
 9654TIP3   OH228925   3.410   4.454   7.447
 9654TIP3    H128926   3.340   4.462   7.513
 9654TIP3    H228927   3.379   4.374   7.399
 9655TIP3   OH228928   3.547   4.881   7.691
 9655TIP3    H128929   3.504   4.953   7.640
 9655TIP3    H228930   3.613   4.848   7.628
 9656TIP3   OH228931   3.068   4.427   7.414
 9656TIP3    H128932   3.057   4.417   7.510
 9656TIP3    H228933   2.976   4.443   7.388
 9657TIP3   OH228934   2.907   4.726   7.494
 9657TIP3    H128935   2.879   4.677   7.414
 9657TIP3    H228936   2.993   4.761   7.463
 9658TIP3   OH228937   3.189   5.250   7.539
 9658TIP3    H128938   3.125   5.177   7.519
 9658TIP3    H228939   3.197   5.241   7.635
 9659TIP3   OH228940   3.653   4.556   7.381
 9659TIP3    H128941   3.562   4.529   7.407
 9659TIP3    H228942   3.658   4.650   7.409
 9660TIP3   OH228943   3.727   4.801   7.492
 9660TIP3    H128944   3.825   4.803   7.508
 9660TIP3    H228945   3.714   4.882   7.439
 9661TIP3   OH228946   3.334   5.387   7.346
 9661TIP3    H128947   3.300   5.478   7.361
 9661TIP3    H228948   3.288   5.338   7.416
 9662TIP3   OH228949   4.167   4.902   7.335
 9662TIP3    H128950   4.105   4.855   7.275
 9662TIP3    H228951   4.164   4.989   7.291
 9663TIP3   OH228952   3.859   5.713   7.245
 9663TIP3    H128953   3.844   5.629   7.290
 9663TIP3    H228954   3.881   5.685   7.155
 9664TIP3   OH228955   3.625   5.444   7.146
 9664TIP3    H128956   3.681   5.415   7.222
 9664TIP3    H228957   3.539   5.411   7.175
 9665TIP3   OH228958   3.963   5.908   6.963
 9665TIP3    H128959   4.001   5.983   6.914
 9665TIP3    H228960   3.884   5.952   7.001
 9666TIP3   OH228961   3.794   5.367   7.351
 9666TIP3    H128962   3.778   5.315   7.431
 9666TIP3    H228963   3.891   5.359   7.343
 9667TIP3   OH228964   2.983   5.421   7.149
 9667TIP3    H128965   2.999   5.329   7.118
 9667TIP3    H228966   2.959   5.405   7.243
 9668TIP3   OH228967   2.935   5.429   7.426
 9668TIP3    H128968   3.017   5.391   7.462
 9668TIP3    H228969   2.951   5.525   7.435
 9669TIP3   OH228970   2.688   5.122   7.598
 9669TIP3    H128971   2.663   5.149   7.688
 9669TIP3    H228972   2.679   5.205   7.548
 9670TIP3   OH228973   3.756   4.533   7.643
 9670TIP3    H128974   3.744   4.547   7.547
 9670TIP3    H228975   3.751   4.624   7.677
 9671TIP3   OH228976   3.205   5.626   7.377
 9671TIP3    H128977   3.121   5.661   7.412
 9671TIP3    H228978   3.211   5.671   7.292
 9672TIP3   OH228979   2.944   5.709   7.433
 9672TIP3    H128980   2.923   5.769   7.358
 9672TIP3    H228981   2.880   5.742   7.499
 9673TIP3   OH228982   2.673   5.335   7.422
 9673TIP3    H128983   2.759   5.383   7.430
 9673TIP3    H228984   2.701   5.268   7.356
 9674TIP3   OH228985   3.155   5.616   7.062
 9674TIP3    H128986   3.100   5.541   7.093
 9674TIP3    H228987   3.229   5.569   7.019
 9675TIP3   OH228988   3.586   5.663   6.970
 9675TIP3    H128989   3.628   5.599   7.031
 9675TIP3    H228990   3.642   5.658   6.891
 9676TIP3   OH228991   2.792   5.142   7.278
 9676TIP3    H128992   2.834   5.101   7.356
 9676TIP3    H228993   2.867   5.142   7.214
 9677TIP3   OH228994   3.309   5.336   7.081
 9677TIP3    H128995   3.312   5.348   7.178
 9677TIP3    H228996   3.314   5.238   7.076
 9678TIP3   OH228997   3.017   5.043   7.502
 9678TIP3    H128998   2.962   4.995   7.565
 9678TIP3    H228999   3.054   4.969   7.448
 9679TIP3   OH229000   3.115   4.843   7.340
 9679TIP3    H129001   3.090   4.851   7.246
 9679TIP3    H229002   3.213   4.840   7.333
 9680TIP3   OH229003   3.926   5.168   7.009
 9680TIP3    H129004   3.907   5.124   6.924
 9680TIP3    H229005   3.892   5.258   6.989
 9681TIP3   OH229006   2.908   5.909   7.245
 9681TIP3    H129007   3.004   5.902   7.229
 9681TIP3    H229008   2.882   5.959   7.166
 9682TIP3   OH229009   2.400   5.290   7.422
 9682TIP3    H129010   2.496   5.305   7.433
 9682TIP3    H229011   2.398   5.198   7.385
 9683TIP3   OH229012   4.070   5.351   7.351
 9683TIP3    H129013   4.128   5.414   7.302
 9683TIP3    H229014   4.111   5.355   7.438
 9684TIP3   OH229015   4.128   5.133   7.189
 9684TIP3    H129016   4.057   5.132   7.121
 9684TIP3    H229017   4.099   5.209   7.243
 9685TIP3   OH229018   4.000   4.805   7.140
 9685TIP3    H129019   3.953   4.833   7.061
 9685TIP3    H229020   3.981   4.709   7.138
 9686TIP3   OH229021   3.944   4.539   7.120
 9686TIP3    H129022   4.020   4.508   7.174
 9686TIP3    H229023   3.874   4.476   7.142
 9687TIP3   OH229024   3.994   4.799   7.543
 9687TIP3    H129025   4.032   4.713   7.571
 9687TIP3    H229026   4.068   4.835   7.492
 9688TIP3   OH229027   4.107   4.556   7.611
 9688TIP3    H129028   4.154   4.545   7.695
 9688TIP3    H229029   4.052   4.475   7.611
 9689TIP3   OH229030   4.182   4.479   7.250
 9689TIP3    H129031   4.229   4.408   7.201
 9689TIP3    H229032   4.253   4.547   7.260
 9690TIP3   OH229033   3.934   4.331   7.616
 9690TIP3    H129034   3.868   4.401   7.634
 9690TIP3    H229035   3.892   4.254   7.658
 9691TIP3   OH229036   3.179   5.854   7.185
 9691TIP3    H129037   3.268   5.873   7.147
 9691TIP3    H229038   3.156   5.776   7.129
 9692TIP3   OH229039   3.885   5.995   7.306
 9692TIP3    H129040   3.887   5.897   7.301
 9692TIP3    H229041   3.861   6.018   7.215
 9693TIP3   OH229042   2.504   5.697   7.254
 9693TIP3    H129043   2.555   5.737   7.326
 9693TIP3    H229044   2.573   5.638   7.216
 9694TIP3   OH229045   4.358   5.025   7.505
 9694TIP3    H129046   4.297   5.095   7.528
 9694TIP3    H229047   4.302   4.962   7.456
 9695TIP3   OH229048   4.247   5.518   7.226
 9695TIP3    H129049   4.216   5.547   7.138
 9695TIP3    H229050   4.272   5.605   7.266
 9696TIP3   OH229051   5.179   5.135   6.772
 9696TIP3    H129052   5.222   5.172   6.851
 9696TIP3    H229053   5.252   5.083   6.731
 9697TIP3   OH229054   5.908   4.537   6.894
 9697TIP3    H129055   5.832   4.505   6.950
 9697TIP3    H229056   5.871   4.622   6.869
 9698TIP3   OH229057   4.679   5.248   7.208
 9698TIP3    H129058   4.587   5.280   7.195
 9698TIP3    H229059   4.680   5.219   7.301
 9699TIP3   OH229060   5.421   5.394   6.563
 9699TIP3    H129061   5.421   5.334   6.486
 9699TIP3    H229062   5.516   5.400   6.583
 9700TIP3   OH229063   5.205   4.711   6.910
 9700TIP3    H129064   5.173   4.709   7.003
 9700TIP3    H229065   5.165   4.628   6.878
 9701TIP3   OH229066   4.854   4.685   6.877
 9701TIP3    H129067   4.848   4.677   6.975
 9701TIP3    H229068   4.778   4.742   6.859
 9702TIP3   OH229069   4.365   4.703   7.271
 9702TIP3    H129070   4.418   4.737   7.196
 9702TIP3    H229071   4.312   4.782   7.292
 9703TIP3   OH229072   4.871   4.904   7.229
 9703TIP3    H129073   4.954   4.954   7.228
 9703TIP3    H229074   4.817   4.948   7.160
 9704TIP3   OH229075   4.732   4.975   7.001
 9704TIP3    H129076   4.664   4.930   6.949
 9704TIP3    H229077   4.794   5.004   6.932
 9705TIP3   OH229078   4.971   5.449   7.060
 9705TIP3    H129079   4.911   5.388   7.013
 9705TIP3    H229080   4.907   5.497   7.115
 9706TIP3   OH229081   5.449   4.825   6.882
 9706TIP3    H129082   5.355   4.800   6.892
 9706TIP3    H229083   5.446   4.921   6.875
 9707TIP3   OH229084   4.349   5.128   7.024
 9707TIP3    H129085   4.399   5.209   7.048
 9707TIP3    H229086   4.277   5.131   7.090
 9708TIP3   OH229087   4.798   5.658   6.639
 9708TIP3    H129088   4.787   5.565   6.612
 9708TIP3    H229089   4.759   5.657   6.729
 9709TIP3   OH229090   4.718   5.693   6.903
 9709TIP3    H129091   4.771   5.667   6.980
 9709TIP3    H229092   4.750   5.785   6.893
 9710TIP3   OH229093   4.448   5.373   7.109
 9710TIP3    H129094   4.382   5.419   7.164
 9710TIP3    H229095   4.465   5.440   7.041
 9711TIP3   OH229096   5.531   4.732   7.128
 9711TIP3    H129097   5.504   4.753   7.037
 9711TIP3    H229098   5.576   4.813   7.154
 9712TIP3   OH229099   5.148   4.964   7.266
 9712TIP3    H129100   5.245   4.967   7.254
 9712TIP3    H229101   5.140   4.994   7.357
 9713TIP3   OH229102   4.838   4.650   7.147
 9713TIP3    H129103   4.834   4.740   7.188
 9713TIP3    H229104   4.933   4.632   7.162
 9714TIP3   OH229105   4.457   5.575   6.910
 9714TIP3    H129106   4.528   5.643   6.916
 9714TIP3    H229107   4.502   5.514   6.846
 9715TIP3   OH229108   4.400   4.857   7.040
 9715TIP3    H129109   4.410   4.954   7.043
 9715TIP3    H229110   4.310   4.846   7.009
 9716TIP3   OH229111   4.296   5.773   7.303
 9716TIP3    H129112   4.257   5.837   7.366
 9716TIP3    H229113   4.271   5.818   7.218
 9717TIP3   OH229114   4.939   5.862   6.527
 9717TIP3    H129115   4.881   5.792   6.565
 9717TIP3    H229116   5.000   5.812   6.471
 9718TIP3   OH229117   4.596   5.390   6.769
 9718TIP3    H129118   4.649   5.354   6.844
 9718TIP3    H229119   4.666   5.393   6.701
 9719TIP3   OH229120   5.096   5.591   6.577
 9719TIP3    H129121   5.019   5.603   6.635
 9719TIP3    H229122   5.099   5.493   6.567
 9720TIP3   OH229123   4.767   5.291   6.958
 9720TIP3    H129124   4.733   5.266   7.047
 9720TIP3    H229125   4.807   5.207   6.929
 9721TIP3   OH229126   4.904   5.088   6.820
 9721TIP3    H129127   4.881   5.105   6.727
 9721TIP3    H229128   5.002   5.091   6.816
 9722TIP3   OH229129   4.189   5.538   6.949
 9722TIP3    H129130   4.283   5.561   6.934
 9722TIP3    H229131   4.184   5.450   6.907
 9723TIP3   OH229132   5.696   5.079   6.601
 9723TIP3    H129133   5.789   5.090   6.575
 9723TIP3    H229134   5.690   4.981   6.602
 9724TIP3   OH229135   5.698   4.809   6.591
 9724TIP3    H129136   5.785   4.778   6.625
 9724TIP3    H229137   5.637   4.738   6.616
 9725TIP3   OH229138   5.964   4.755   6.666
 9725TIP3    H129139   5.984   4.664   6.635
 9725TIP3    H229140   6.042   4.801   6.628
 9726TIP3   OH229141   4.380   4.534   7.483
 9726TIP3    H129142   4.292   4.552   7.519
 9726TIP3    H229143   4.393   4.609   7.422
 9727TIP3   OH229144   4.475   4.351   7.304
 9727TIP3    H129145   4.516   4.414   7.242
 9727TIP3    H229146   4.448   4.411   7.377
 9728TIP3   OH229147   5.682   4.520   7.045
 9728TIP3    H129148   5.642   4.603   7.077
 9728TIP3    H229149   5.671   4.465   7.125
 9729TIP3   OH229150   4.215   5.906   7.080
 9729TIP3    H129151   4.125   5.886   7.050
 9729TIP3    H229152   4.211   6.003   7.078
 9730TIP3   OH229153   4.607   4.516   7.077
 9730TIP3    H129154   4.657   4.451   7.023
 9730TIP3    H229155   4.681   4.568   7.114
 9731TIP3   OH229156   5.118   4.700   7.174
 9731TIP3    H129157   5.153   4.655   7.251
 9731TIP3    H229158   5.118   4.794   7.204
 9732TIP3   OH229159   4.280   5.945   6.740
 9732TIP3    H129160   4.279   5.960   6.836
 9732TIP3    H229161   4.368   5.904   6.726
 9733TIP3   OH229162   3.772   6.076   7.066
 9733TIP3    H129163   3.694   6.104   7.118
 9733TIP3    H229164   3.784   6.155   7.009
 9734TIP3   OH229165   3.347   6.788   6.742
 9734TIP3    H129166   3.313   6.786   6.650
 9734TIP3    H229167   3.402   6.868   6.740
 9735TIP3   OH229168   3.062   6.215   7.097
 9735TIP3    H129169   2.993   6.277   7.126
 9735TIP3    H229170   3.007   6.146   7.053
 9736TIP3   OH229171   3.289   6.363   7.020
 9736TIP3    H129172   3.203   6.323   7.047
 9736TIP3    H229173   3.274   6.456   7.040
 9737TIP3   OH229174   3.779   6.684   6.969
 9737TIP3    H129175   3.724   6.669   6.888
 9737TIP3    H229176   3.811   6.774   6.956
 9738TIP3   OH229177   3.576   7.012   6.613
 9738TIP3    H129178   3.549   6.949   6.543
 9738TIP3    H229179   3.648   7.058   6.569
 9739TIP3   OH229180   3.634   6.624   6.748
 9739TIP3    H129181   3.555   6.653   6.700
 9739TIP3    H229182   3.618   6.527   6.747
 9740TIP3   OH229183   3.568   6.358   6.762
 9740TIP3    H129184   3.643   6.320   6.813
 9740TIP3    H229185   3.498   6.291   6.773
 9741TIP3   OH229186   3.666   6.597   7.197
 9741TIP3    H129187   3.703   6.508   7.211
 9741TIP3    H229188   3.710   6.625   7.114
 9742TIP3   OH229189   3.763   6.347   7.276
 9742TIP3    H129190   3.825   6.291   7.324
 9742TIP3    H229191   3.688   6.285   7.264
 9743TIP3   OH229192   3.798   6.276   6.884
 9743TIP3    H129193   3.844   6.210   6.827
 9743TIP3    H229194   3.859   6.353   6.876
 9744TIP3   OH229195   3.570   6.152   7.243
 9744TIP3    H129196   3.478   6.165   7.219
 9744TIP3    H229197   3.565   6.069   7.295
 9745TIP3   OH229198   3.963   6.493   6.849
 9745TIP3    H129199   4.044   6.529   6.811
 9745TIP3    H229200   3.935   6.565   6.909
 9746TIP3   OH229201   4.007   6.693   6.623
 9746TIP3    H129202   4.038   6.725   6.710
 9746TIP3    H229203   3.930   6.640   6.646
 9747TIP3   OH229204   3.996   6.341   7.102
 9747TIP3    H129205   3.913   6.357   7.149
 9747TIP3    H229206   4.019   6.429   7.068
 9748TIP3   OH229207   4.135   6.156   6.958
 9748TIP3    H129208   4.169   6.213   6.888
 9748TIP3    H229209   4.077   6.219   7.007
 9749TIP3   OH229210   4.263   6.344   6.715
 9749TIP3    H129211   4.284   6.264   6.663
 9749TIP3    H229212   4.348   6.391   6.706
   7.40000   6.97679   6.04207   0.00000   0.00000  -2.46667   0.00000  -2.46667  -3.48839
