Generated by CHARMM-GUI FF-Converter
46055
    1GLY      N    1   6.407   4.635   3.759
    1GLY    HT1    2   6.506   4.613   3.781
    1GLY    HT2    3   6.369   4.706   3.828
    1GLY    HT3    4   6.400   4.677   3.664
    1GLY     CA    5   6.327   4.513   3.760
    1GLY    HA1    6   6.322   4.478   3.860
    1GLY    HA2    7   6.369   4.444   3.689
    1GLY      C    8   6.183   4.536   3.719
    1GLY      O    9   6.140   4.650   3.702
    2PRO      N   10   6.090   4.428   3.692
    2PRO     CD   11   6.127   4.287   3.720
    2PRO    HD1   12   6.176   4.277   3.820
    2PRO    HD2   13   6.194   4.250   3.639
    2PRO     CA   14   5.947   4.446   3.667
    2PRO     HA   15   5.935   4.511   3.581
    2PRO     CB   16   5.896   4.303   3.646
    2PRO    HB1   17   5.903   4.281   3.537
    2PRO    HB2   18   5.791   4.287   3.677
    2PRO     CG   19   5.994   4.217   3.719
    2PRO    HG1   20   5.959   4.211   3.825
    2PRO    HG2   21   5.999   4.113   3.682
    2PRO      C   22   5.874   4.513   3.784
    2PRO      O   23   5.923   4.508   3.897
    3GLY      N   24   5.771   4.586   3.748
    3GLY     HN   25   5.747   4.594   3.651
    3GLY     CA   26   5.688   4.649   3.850
    3GLY    HA1   27   5.609   4.699   3.798
    3GLY    HA2   28   5.750   4.714   3.910
    3GLY      C   29   5.623   4.548   3.943
    3GLY      O   30   5.623   4.428   3.916
    4ALA      N   31   5.576   4.594   4.050
    4ALA     HN   32   5.587   4.689   4.078
    4ALA     CA   33   5.500   4.508   4.142
    4ALA     HA   34   5.566   4.424   4.160
    4ALA     CB   35   5.477   4.580   4.275
    4ALA    HB1   36   5.417   4.672   4.258
    4ALA    HB2   37   5.575   4.610   4.319
    4ALA    HB3   38   5.424   4.516   4.348
    4ALA      C   39   5.367   4.466   4.081
    4ALA      O   40   5.314   4.535   3.993
    5PRO      N   41   5.321   4.361   4.122
    5PRO     CD   42   5.386   4.266   4.197
    5PRO    HD1   43   5.401   4.302   4.301
    5PRO    HD2   44   5.483   4.236   4.151
    5PRO     CA   45   5.186   4.325   4.077
    5PRO     HA   46   5.188   4.315   3.969
    5PRO     CB   47   5.159   4.193   4.149
    5PRO    HB1   48   5.112   4.119   4.081
    5PRO    HB2   49   5.091   4.207   4.236
    5PRO     CG   50   5.292   4.148   4.198
    5PRO    HG1   51   5.288   4.099   4.297
    5PRO    HG2   52   5.331   4.074   4.124
    5PRO      C   53   5.082   4.430   4.113
    5PRO      O   54   5.101   4.507   4.208
    6GLY      N   55   4.983   4.434   4.023
    6GLY     HN   56   4.973   4.369   3.950
    6GLY     CA   57   4.874   4.527   4.051
    6GLY    HA1   58   4.807   4.519   3.967
    6GLY    HA2   59   4.918   4.625   4.063
    6GLY      C   60   4.796   4.490   4.176
    6GLY      O   61   4.819   4.385   4.236
    7PRO      N   62   4.717   4.568   4.212
    7PRO     CD   63   4.684   4.696   4.144
    7PRO    HD1   64   4.663   4.683   4.035
    7PRO    HD2   65   4.767   4.769   4.159
    7PRO     CA   66   4.624   4.535   4.320
    7PRO     HA   67   4.679   4.501   4.407
    7PRO     CB   68   4.551   4.667   4.345
    7PRO    HB1   69   4.607   4.724   4.423
    7PRO    HB2   70   4.446   4.655   4.382
    7PRO     CG   71   4.560   4.741   4.216
    7PRO    HG1   72   4.472   4.712   4.153
    7PRO    HG2   73   4.556   4.852   4.230
    7PRO      C   74   4.526   4.424   4.282
    7PRO      O   75   4.506   4.397   4.164
    8GLY      N   76   4.471   4.361   4.388
    8GLY     HN   77   4.490   4.389   4.481
    8GLY     CA   78   4.373   4.257   4.361
    8GLY    HA1   79   4.350   4.210   4.455
    8GLY    HA2   80   4.414   4.188   4.288
    8GLY      C   81   4.242   4.312   4.306
    8GLY      O   82   4.219   4.433   4.308
    9ALA      N   83   4.159   4.231   4.258
    9ALA     HN   84   4.180   4.134   4.258
    9ALA     CA   85   4.027   4.266   4.208
    9ALA     HA   86   4.043   4.351   4.143
    9ALA     CB   87   3.968   4.151   4.127
    9ALA    HB1   88   3.959   4.060   4.191
    9ALA    HB2   89   4.035   4.126   4.042
    9ALA    HB3   90   3.867   4.171   4.086
    9ALA      C   91   3.933   4.304   4.323
    9ALA      O   92   3.957   4.267   4.438
   10PRO      N   93   3.830   4.371   4.278
   10PRO     CD   94   3.805   4.429   4.155
   10PRO    HD1   95   3.764   4.351   4.086
   10PRO    HD2   96   3.893   4.479   4.109
   10PRO     CA   97   3.731   4.400   4.383
   10PRO     HA   98   3.780   4.449   4.466
   10PRO     CB   99   3.630   4.490   4.313
   10PRO    HB1  100   3.604   4.578   4.375
   10PRO    HB2  101   3.536   4.436   4.289
   10PRO     CG  102   3.696   4.528   4.184
   10PRO    HG1  103   3.623   4.535   4.100
   10PRO    HG2  104   3.744   4.628   4.194
   10PRO      C  105   3.664   4.273   4.436
   10PRO      O  106   3.663   4.170   4.369
   11GLY      N  107   3.620   4.277   4.563
   11GLY     HN  108   3.633   4.359   4.618
   11GLY     CA  109   3.547   4.165   4.620
   11GLY    HA1  110   3.527   4.191   4.723
   11GLY    HA2  111   3.610   4.078   4.611
   11GLY      C  112   3.415   4.139   4.552
   11GLY      O  113   3.375   4.213   4.461
   12PRO      N  114   3.346   4.042   4.578
   12PRO     CD  115   3.388   3.946   4.685
   12PRO    HD1  116   3.409   3.997   4.782
   12PRO    HD2  117   3.476   3.887   4.654
   12PRO     CA  118   3.212   4.014   4.525
   12PRO     HA  119   3.213   4.022   4.419
   12PRO     CB  120   3.184   3.871   4.574
   12PRO    HB1  121   3.223   3.800   4.497
   12PRO    HB2  122   3.077   3.849   4.591
   12PRO     CG  123   3.267   3.857   4.698
   12PRO    HG1  124   3.206   3.891   4.784
   12PRO    HG2  125   3.296   3.751   4.717
   12PRO      C  126   3.106   4.111   4.577
   12PRO      O  127   3.125   4.174   4.681
   13GLY      N  128   2.999   4.132   4.498
   13GLY     HN  129   2.988   4.085   4.411
   13GLY     CA  130   2.887   4.213   4.543
   13GLY    HA1  131   2.815   4.217   4.463
   13GLY    HA2  132   2.924   4.310   4.573
   13GLY      C  133   2.815   4.153   4.663
   13GLY      O  134   2.835   4.036   4.697
   14ALA      N  135   2.743   4.208   4.728
   14ALA     HN  136   2.725   4.303   4.705
   14ALA     CA  137   2.660   4.164   4.840
   14ALA     HA  138   2.727   4.109   4.903
   14ALA     CB  139   2.613   4.284   4.921
   14ALA    HB1  140   2.551   4.352   4.859
   14ALA    HB2  141   2.700   4.340   4.961
   14ALA    HB3  142   2.552   4.252   5.008
   14ALA      C  143   2.541   4.082   4.791
   14ALA      O  144   2.496   4.098   4.677
   15PRO      N  145   2.526   3.954   4.863
   15PRO     CD  146   2.593   3.922   4.971
   15PRO    HD1  147   2.576   3.998   5.049
   15PRO    HD2  148   2.702   3.913   4.948
   15PRO     CA  149   2.413   3.868   4.827
   15PRO     HA  150   2.424   3.836   4.725
   15PRO     CB  151   2.420   3.756   4.931
   15PRO    HB1  152   2.433   3.659   4.877
   15PRO    HB2  153   2.327   3.748   4.990
   15PRO     CG  154   2.540   3.788   5.014
   15PRO    HG1  155   2.515   3.788   5.122
   15PRO    HG2  156   2.619   3.710   4.998
   15PRO      C  157   2.279   3.942   4.835
   15PRO    OT1  158   2.280   4.063   4.870
   15PRO    OT2  159   2.175   3.877   4.807
   16LIT    LIT  160   3.044   1.982   5.470
   17LIT    LIT  161   5.121   4.057   7.833
   18LIT    LIT  162   2.621   1.267   4.665
   19LIT    LIT  163   3.228   0.891   4.209
   20LIT    LIT  164   5.261   3.259   8.439
   21LIT    LIT  165   5.138   6.484   1.680
   22LIT    LIT  166   2.692   4.272   8.189
   23LIT    LIT  167   2.676   2.334   3.207
   24LIT    LIT  168   2.434   1.168   2.634
   25LIT    LIT  169   4.620   7.907   6.440
   26LIT    LIT  170   5.202   1.823   1.059
   27LIT    LIT  171   3.858   0.636   7.593
   28LIT    LIT  172   2.732   8.058   5.117
   29LIT    LIT  173   7.794   4.393   4.746
   30LIT    LIT  174   4.418   1.370   6.246
   31LIT    LIT  175   5.596   6.917   4.739
   32LIT    LIT  176   2.372   3.646   6.241
   33LIT    LIT  177   2.450   1.987   7.690
   34LIT    LIT  178   7.644   5.864   5.843
   35LIT    LIT  179   5.138   4.065   5.916
   36LIT    LIT  180   0.943   6.402   6.733
   37LIT    LIT  181   2.010   1.529   1.976
   38LIT    LIT  182   1.948   1.087   5.048
   39LIT    LIT  183   0.461   2.468   5.703
   40LIT    LIT  184   8.495   5.544   5.817
   41LIT    LIT  185   6.055   6.195   5.618
   42LIT    LIT  186   1.050   1.708   6.125
   43LIT    LIT  187   5.428   7.832   5.597
   44LIT    LIT  188   7.477   5.700   1.697
   45LIT    LIT  189   2.409   7.788   2.085
   46LIT    LIT  190   3.507   6.188   8.603
   47LIT    LIT  191   2.514   8.341   3.851
   48LIT    LIT  192   2.352   6.535   1.901
   49LIT    LIT  193   3.268   7.499   0.645
   50LIT    LIT  194   0.847   4.156   3.439
   51LIT    LIT  195   3.552   6.578   7.318
   52LIT    LIT  196   6.740   1.362   4.886
   53LIT    LIT  197   2.297   0.287   5.878
   54LIT    LIT  198   4.619   0.748   3.502
   55LIT    LIT  199   5.733   3.014   0.268
   56LIT    LIT  200   6.301   7.665   6.057
   57LIT    LIT  201   4.046   4.340   6.680
   58LIT    LIT  202   0.124   6.101   2.966
   59CLA    CLA  203   2.828   8.077   2.632
   60CLA    CLA  204   4.199   2.949   8.027
   61CLA    CLA  205   4.954   4.131   6.427
   62CLA    CLA  206   4.345   2.860   4.776
   63CLA    CLA  207   3.149   2.982   0.131
   64CLA    CLA  208   5.444   5.743   8.141
   65CLA    CLA  209   3.376   1.485   7.052
   66CLA    CLA  210   7.423   6.402   2.186
   67CLA    CLA  211   5.901   2.603   0.539
   68CLA    CLA  212   5.203   6.198   5.344
   69CLA    CLA  213   5.253   4.437   0.972
   70CLA    CLA  214   4.953   0.790   6.844
   71CLA    CLA  215   4.810   1.178   1.598
   72CLA    CLA  216   8.240   4.684   3.441
   73CLA    CLA  217   1.907   4.110   4.423
   74CLA    CLA  218   5.691   7.744   1.674
   75CLA    CLA  219   7.707   6.023   5.706
   76CLA    CLA  220   8.139   2.188   4.469
   77CLA    CLA  221   3.303   4.502   2.585
   78CLA    CLA  222   3.668   5.502   7.299
   79CLA    CLA  223   6.070   3.449   6.689
   80CLA    CLA  224   2.617   2.282   6.832
   81CLA    CLA  225   8.632   6.245   4.009
   82CLA    CLA  226   3.051   4.136   5.890
   83CLA    CLA  227   2.436   1.314   4.780
   84CLA    CLA  228   0.765   6.532   5.594
   85CLA    CLA  229   4.368   3.029   7.064
   86CLA    CLA  230   0.378   6.802   3.303
   87CLA    CLA  231   5.549   7.673   5.502
   88CLA    CLA  232   1.565   6.720   3.900
   89CLA    CLA  233   6.543   7.297   3.987
   90CLA    CLA  234   5.344   4.518   8.276
   91CLA    CLA  235   1.076   5.637   1.070
   92CLA    CLA  236   7.896   3.078   6.960
   93CLA    CLA  237   2.325   3.714   0.888
   94CLA    CLA  238   5.826   5.952   4.689
   95CLA    CLA  239   2.794   7.027   0.967
   96CLA    CLA  240   0.388   1.836   5.437
   97CLA    CLA  241   6.837   5.116   3.449
   98CLA    CLA  242   4.125   4.872   4.949
   99CLA    CLA  243   2.052   0.890   5.057
  100CLA    CLA  244   1.073   5.546   7.260
  101CLA    CLA  245   5.131   7.252   3.408
  102TIP3   OH2  246   3.263   0.354   2.269
  102TIP3    H1  247   3.259   0.256   2.265
  102TIP3    H2  248   3.174   0.375   2.304
  103TIP3   OH2  249   2.949   0.693   2.340
  103TIP3    H1  250   2.951   0.723   2.247
  103TIP3    H2  251   3.024   0.743   2.377
  104TIP3   OH2  252   3.259   0.070   2.284
  104TIP3    H1  253   3.167   0.046   2.301
  104TIP3    H2  254   3.293  -0.011   2.240
  105TIP3   OH2  255   2.702   0.256   2.576
  105TIP3    H1  256   2.719   0.180   2.633
  105TIP3    H2  257   2.768   0.321   2.608
  106TIP3   OH2  258   3.066   0.466   2.032
  106TIP3    H1  259   3.055   0.397   1.965
  106TIP3    H2  260   3.161   0.456   2.050
  107TIP3   OH2  261   3.118   0.146   2.589
  107TIP3    H1  262   3.050   0.158   2.659
  107TIP3    H2  263   3.163   0.233   2.591
  108TIP3   OH2  264   3.004   0.428   2.354
  108TIP3    H1  265   2.939   0.419   2.284
  108TIP3    H2  266   3.006   0.525   2.361
  109TIP3   OH2  267   4.220  -0.184   1.580
  109TIP3    H1  268   4.299  -0.192   1.637
  109TIP3    H2  269   4.213  -0.276   1.549
  110TIP3   OH2  270   4.512   0.094   1.169
  110TIP3    H1  271   4.485   0.035   1.240
  110TIP3    H2  272   4.543   0.172   1.218
  111TIP3   OH2  273   4.148   0.556   1.190
  111TIP3    H1  274   4.195   0.486   1.140
  111TIP3    H2  275   4.171   0.534   1.281
  112TIP3   OH2  276   4.064   0.034   1.555
  112TIP3    H1  277   4.109  -0.053   1.548
  112TIP3    H2  278   4.144   0.090   1.565
  113TIP3   OH2  279   3.917  -0.054   1.768
  113TIP3    H1  280   3.866   0.021   1.805
  113TIP3    H2  281   3.968  -0.008   1.697
  114TIP3   OH2  282   3.751   0.141   1.863
  114TIP3    H1  283   3.726   0.231   1.834
  114TIP3    H2  284   3.673   0.119   1.918
  115TIP3   OH2  285   4.586   0.341   1.342
  115TIP3    H1  286   4.497   0.334   1.382
  115TIP3    H2  287   4.580   0.430   1.300
  116TIP3   OH2  288   4.296   0.390   1.033
  116TIP3    H1  289   4.344   0.309   1.014
  116TIP3    H2  290   4.337   0.453   0.969
  117TIP3   OH2  291   4.814   0.257   1.694
  117TIP3    H1  292   4.809   0.178   1.637
  117TIP3    H2  293   4.794   0.330   1.632
  118TIP3   OH2  294   4.673  -0.214   1.847
  118TIP3    H1  295   4.681  -0.122   1.879
  118TIP3    H2  296   4.594  -0.208   1.791
  119TIP3   OH2  297   4.344   0.340   1.463
  119TIP3    H1  298   4.332   0.422   1.514
  119TIP3    H2  299   4.331   0.270   1.530
  120TIP3   OH2  300   3.956   0.259   2.015
  120TIP3    H1  301   3.896   0.323   2.060
  120TIP3    H2  302   3.891   0.209   1.962
  121TIP3   OH2  303   3.700  -0.172   2.098
  121TIP3    H1  304   3.716  -0.091   2.151
  121TIP3    H2  305   3.605  -0.184   2.114
  122TIP3   OH2  306   3.752   0.430   2.100
  122TIP3    H1  307   3.718   0.430   2.008
  122TIP3    H2  308   3.672   0.404   2.151
  123TIP3   OH2  309   5.049   0.602   1.736
  123TIP3    H1  310   5.048   0.505   1.747
  123TIP3    H2  311   4.966   0.626   1.782
  124TIP3   OH2  312   4.155   0.389   1.869
  124TIP3    H1  313   4.155   0.481   1.902
  124TIP3    H2  314   4.084   0.350   1.925
  125TIP3   OH2  315   4.931  -0.287   2.015
  125TIP3    H1  316   4.867  -0.233   1.965
  125TIP3    H2  317   4.904  -0.376   1.986
  126TIP3   OH2  318   3.547   0.109   2.040
  126TIP3    H1  319   3.596   0.112   2.125
  126TIP3    H2  320   3.458   0.090   2.068
  127TIP3   OH2  321   4.722  -0.459   1.957
  127TIP3    H1  322   4.707  -0.426   2.046
  127TIP3    H2  323   4.710  -0.379   1.902
  128TIP3   OH2  324   4.421  -0.247   2.158
  128TIP3    H1  325   4.396  -0.322   2.217
  128TIP3    H2  326   4.514  -0.233   2.183
  129TIP3   OH2  327   4.423  -0.281   1.734
  129TIP3    H1  328   4.464  -0.357   1.691
  129TIP3    H2  329   4.392  -0.323   1.818
  130TIP3   OH2  330   4.730   0.956   1.825
  130TIP3    H1  331   4.712   1.003   1.741
  130TIP3    H2  332   4.809   1.006   1.854
  131TIP3   OH2  333   3.702   0.055   2.266
  131TIP3    H1  334   3.782   0.090   2.309
  131TIP3    H2  335   3.637   0.066   2.339
  132TIP3   OH2  336   4.784   0.035   1.538
  132TIP3    H1  337   4.818   0.085   1.460
  132TIP3    H2  338   4.690   0.019   1.516
  133TIP3   OH2  339   4.268   0.119   1.893
  133TIP3    H1  340   4.298   0.101   1.983
  133TIP3    H2  341   4.239   0.211   1.897
  134TIP3   OH2  342   4.172  -0.140   2.203
  134TIP3    H1  343   4.115  -0.200   2.153
  134TIP3    H2  344   4.261  -0.168   2.173
  135TIP3   OH2  345   4.435   0.372   1.793
  135TIP3    H1  346   4.338   0.380   1.801
  135TIP3    H2  347   4.463   0.431   1.866
  136TIP3   OH2  348   5.065   0.313   1.780
  136TIP3    H1  349   4.967   0.306   1.770
  136TIP3    H2  350   5.093   0.282   1.691
  137TIP3   OH2  351   4.532  -0.059   1.478
  137TIP3    H1  352   4.436  -0.073   1.471
  137TIP3    H2  353   4.562  -0.145   1.444
  138TIP3   OH2  354   3.937   0.475   1.662
  138TIP3    H1  355   3.979   0.548   1.612
  138TIP3    H2  356   4.013   0.439   1.711
  139TIP3   OH2  357   4.330   0.111   1.624
  139TIP3    H1  358   4.316   0.104   1.721
  139TIP3    H2  359   4.417   0.070   1.615
  140TIP3   OH2  360   4.575   0.640   1.671
  140TIP3    H1  361   4.492   0.592   1.657
  140TIP3    H2  362   4.566   0.712   1.604
  141TIP3   OH2  363   3.368   0.388   1.975
  141TIP3    H1  364   3.368   0.298   1.939
  141TIP3    H2  365   3.414   0.433   1.903
  142TIP3   OH2  366   4.349  -0.427   1.952
  142TIP3    H1  367   4.354  -0.360   2.024
  142TIP3    H2  368   4.372  -0.508   1.999
  143TIP3   OH2  369   4.598   0.607   1.263
  143TIP3    H1  370   4.554   0.656   1.189
  143TIP3    H2  371   4.691   0.630   1.243
  144TIP3   OH2  372   3.362   0.642   2.249
  144TIP3    H1  373   3.450   0.638   2.293
  144TIP3    H2  374   3.344   0.547   2.236
  145TIP3   OH2  375   3.847   0.610   2.293
  145TIP3    H1  376   3.943   0.592   2.296
  145TIP3    H2  377   3.821   0.553   2.218
  146TIP3   OH2  378   4.484   0.517   2.025
  146TIP3    H1  379   4.478   0.447   2.094
  146TIP3    H2  380   4.563   0.567   2.053
  147TIP3   OH2  381   3.491   0.048   2.448
  147TIP3    H1  382   3.507  -0.048   2.446
  147TIP3    H2  383   3.409   0.058   2.396
  148TIP3   OH2  384   4.103   0.135   2.221
  148TIP3    H1  385   4.064   0.152   2.133
  148TIP3    H2  386   4.134   0.042   2.213
  149TIP3   OH2  387   4.596   0.141   1.825
  149TIP3    H1  388   4.672   0.183   1.782
  149TIP3    H2  389   4.528   0.211   1.813
  150TIP3   OH2  390   3.597  -0.237   2.443
  150TIP3    H1  391   3.678  -0.279   2.409
  150TIP3    H2  392   3.633  -0.192   2.523
  151TIP3   OH2  393   3.949  -0.323   2.086
  151TIP3    H1  394   3.865  -0.273   2.086
  151TIP3    H2  395   3.993  -0.289   2.005
  152TIP3   OH2  396   4.471   0.075   2.227
  152TIP3    H1  397   4.546   0.049   2.172
  152TIP3    H2  398   4.465   0.001   2.290
  153TIP3   OH2  399   4.060  -0.532   2.214
  153TIP3    H1  400   4.067  -0.590   2.138
  153TIP3    H2  401   4.015  -0.454   2.173
  154TIP3   OH2  402   4.103  -0.219   1.887
  154TIP3    H1  403   4.180  -0.212   1.829
  154TIP3    H2  404   4.043  -0.154   1.846
  155TIP3   OH2  405   4.674  -0.223   2.271
  155TIP3    H1  406   4.701  -0.317   2.271
  155TIP3    H2  407   4.755  -0.179   2.240
  156TIP3   OH2  408   4.730   0.009   2.019
  156TIP3    H1  409   4.670   0.058   1.958
  156TIP3    H2  410   4.817   0.028   1.976
  157TIP3   OH2  411   3.924  -0.412   2.443
  157TIP3    H1  412   3.865  -0.487   2.466
  157TIP3    H2  413   3.978  -0.451   2.373
  158TIP3   OH2  414   4.318  -0.456   2.288
  158TIP3    H1  415   4.335  -0.514   2.366
  158TIP3    H2  416   4.226  -0.483   2.268
  159TIP3   OH2  417   4.850   0.699   1.223
  159TIP3    H1  418   4.871   0.724   1.316
  159TIP3    H2  419   4.887   0.775   1.177
  160TIP3   OH2  420   4.900   0.708   1.489
  160TIP3    H1  421   4.847   0.626   1.501
  160TIP3    H2  422   4.953   0.707   1.569
  161TIP3   OH2  423   4.923   0.405   2.078
  161TIP3    H1  424   4.848   0.414   2.141
  161TIP3    H2  425   4.963   0.493   2.081
  162TIP3   OH2  426   4.931   0.171   1.355
  162TIP3    H1  427   4.972   0.136   1.275
  162TIP3    H2  428   4.931   0.267   1.334
  163TIP3   OH2  429   4.750   0.473   1.533
  163TIP3    H1  430   4.681   0.523   1.581
  163TIP3    H2  431   4.699   0.431   1.461
  164TIP3   OH2  432   4.970   0.065   1.905
  164TIP3    H1  433   5.045   0.002   1.902
  164TIP3    H2  434   4.995   0.130   1.838
  165TIP3   OH2  435   5.148  -0.122   2.005
  165TIP3    H1  436   5.079  -0.191   1.994
  165TIP3    H2  437   5.214  -0.149   1.940
  166TIP3   OH2  438   4.453   0.556   0.878
  166TIP3    H1  439   4.534   0.504   0.875
  166TIP3    H2  440   4.475   0.629   0.940
  167TIP3   OH2  441   3.540   0.366   2.268
  167TIP3    H1  442   3.447   0.356   2.238
  167TIP3    H2  443   3.530   0.361   2.363
  168TIP3   OH2  444   3.717   0.408   1.818
  168TIP3    H1  445   3.653   0.467   1.773
  168TIP3    H2  446   3.798   0.435   1.771
  169TIP3   OH2  447   4.157   0.655   1.953
  169TIP3    H1  448   4.200   0.658   2.041
  169TIP3    H2  449   4.222   0.705   1.899
  170TIP3   OH2  450   4.334   0.805   1.810
  170TIP3    H1  451   4.405   0.761   1.762
  170TIP3    H2  452   4.386   0.864   1.869
  171TIP3   OH2  453   3.393   0.670   1.833
  171TIP3    H1  454   3.302   0.698   1.810
  171TIP3    H2  455   3.392   0.684   1.928
  172TIP3   OH2  456   3.630   0.648   1.694
  172TIP3    H1  457   3.543   0.657   1.739
  172TIP3    H2  458   3.607   0.674   1.603
  173TIP3   OH2  459   4.051   0.675   1.494
  173TIP3    H1  460   3.980   0.695   1.430
  173TIP3    H2  461   4.064   0.763   1.535
  174TIP3   OH2  462   4.319   0.609   1.544
  174TIP3    H1  463   4.227   0.635   1.523
  174TIP3    H2  464   4.370   0.683   1.504
  175TIP3   OH2  465   4.510   0.799   1.461
  175TIP3    H1  466   4.510   0.890   1.423
  175TIP3    H2  467   4.548   0.749   1.387
  176TIP3   OH2  468   3.763   0.439   1.429
  176TIP3    H1  469   3.811   0.356   1.416
  176TIP3    H2  470   3.790   0.461   1.520
  177TIP3   OH2  471   4.801   0.686   1.837
  177TIP3    H1  472   4.724   0.654   1.786
  177TIP3    H2  473   4.785   0.783   1.831
  178TIP3   OH2  474   5.556   0.392   1.367
  178TIP3    H1  475   5.521   0.454   1.302
  178TIP3    H2  476   5.478   0.380   1.423
  179TIP3   OH2  477   5.745   0.522   1.520
  179TIP3    H1  478   5.675   0.585   1.546
  179TIP3    H2  479   5.693   0.460   1.464
  180TIP3   OH2  480   5.543   0.693   1.587
  180TIP3    H1  481   5.508   0.686   1.495
  180TIP3    H2  482   5.465   0.666   1.640
  181TIP3   OH2  483   5.132   0.215   1.539
  181TIP3    H1  484   5.060   0.194   1.475
  181TIP3    H2  485   5.157   0.125   1.572
  182TIP3   OH2  486   5.000   0.412   1.259
  182TIP3    H1  487   5.038   0.414   1.170
  182TIP3    H2  488   4.960   0.500   1.265
  183TIP3   OH2  489   5.924   0.674   1.338
  183TIP3    H1  490   5.943   0.756   1.387
  183TIP3    H2  491   5.912   0.609   1.409
  184TIP3   OH2  492   5.331   0.401   1.525
  184TIP3    H1  493   5.385   0.381   1.605
  184TIP3    H2  494   5.261   0.333   1.530
  185TIP3   OH2  495   6.521   1.216   1.328
  185TIP3    H1  496   6.518   1.214   1.232
  185TIP3    H2  497   6.607   1.257   1.346
  186TIP3   OH2  498   5.485   0.337   1.747
  186TIP3    H1  499   5.568   0.363   1.793
  186TIP3    H2  500   5.423   0.330   1.822
  187TIP3   OH2  501   5.203  -0.004   1.680
  187TIP3    H1  502   5.280  -0.006   1.740
  187TIP3    H2  503   5.157  -0.088   1.701
  188TIP3   OH2  504   5.719   0.743   1.182
  188TIP3    H1  505   5.745   0.834   1.164
  188TIP3    H2  506   5.794   0.713   1.239
  189TIP3   OH2  507   5.201   0.607   1.303
  189TIP3    H1  508   5.195   0.521   1.348
  189TIP3    H2  509   5.221   0.665   1.377
  190TIP3   OH2  510   5.160   0.898   1.736
  190TIP3    H1  511   5.248   0.896   1.779
  190TIP3    H2  512   5.140   0.803   1.730
  191TIP3   OH2  513   5.646   0.867   1.779
  191TIP3    H1  514   5.741   0.848   1.779
  191TIP3    H2  515   5.616   0.811   1.705
  192TIP3   OH2  516   6.280   0.782   1.518
  192TIP3    H1  517   6.272   0.703   1.575
  192TIP3    H2  518   6.353   0.832   1.559
  193TIP3   OH2  519   5.290   0.303   1.940
  193TIP3    H1  520   5.302   0.206   1.942
  193TIP3    H2  521   5.204   0.309   1.891
  194TIP3   OH2  522   5.882   0.370   1.689
  194TIP3    H1  523   5.844   0.434   1.624
  194TIP3    H2  524   5.864   0.290   1.636
  195TIP3   OH2  525   5.386   0.038   1.929
  195TIP3    H1  526   5.458   0.033   1.863
  195TIP3    H2  527   5.433   0.066   2.010
  196TIP3   OH2  528   4.730   0.700   0.740
  196TIP3    H1  529   4.724   0.623   0.683
  196TIP3    H2  530   4.789   0.668   0.811
  197TIP3   OH2  531   4.895   0.601   0.927
  197TIP3    H1  532   4.885   0.509   0.960
  197TIP3    H2  533   4.939   0.642   1.004
  198TIP3   OH2  534   5.327   0.641   1.757
  198TIP3    H1  535   5.239   0.606   1.732
  198TIP3    H2  536   5.333   0.615   1.849
  199TIP3   OH2  537   5.493   0.673   1.312
  199TIP3    H1  538   5.447   0.747   1.267
  199TIP3    H2  539   5.581   0.685   1.272
  200TIP3   OH2  540   5.953   0.929   1.449
  200TIP3    H1  541   5.999   0.926   1.535
  200TIP3    H2  542   6.021   0.971   1.392
  201TIP3   OH2  543   6.129   1.062   1.286
  201TIP3    H1  544   6.197   1.018   1.232
  201TIP3    H2  545   6.184   1.114   1.349
  202TIP3   OH2  546   5.177   0.936   1.316
  202TIP3    H1  547   5.083   0.962   1.305
  202TIP3    H2  548   5.187   0.947   1.411
  203TIP3   OH2  549   5.419   0.907   1.184
  203TIP3    H1  550   5.331   0.920   1.224
  203TIP3    H2  551   5.403   0.937   1.092
  204TIP3   OH2  552   5.834   0.947   0.973
  204TIP3    H1  553   5.773   0.994   0.915
  204TIP3    H2  554   5.873   1.021   1.024
  205TIP3   OH2  555   5.102   0.722   1.076
  205TIP3    H1  556   5.129   0.702   1.169
  205TIP3    H2  557   5.168   0.669   1.028
  206TIP3   OH2  558   0.742   2.372   2.496
  206TIP3    H1  559   0.776   2.324   2.418
  206TIP3    H2  560   0.819   2.369   2.556
  207TIP3   OH2  561   1.134   1.707   2.664
  207TIP3    H1  562   1.077   1.633   2.691
  207TIP3    H2  563   1.091   1.784   2.705
  208TIP3   OH2  564   2.057   2.110   1.344
  208TIP3    H1  565   2.131   2.068   1.297
  208TIP3    H2  566   2.085   2.104   1.437
  209TIP3   OH2  567   2.958   0.917   1.683
  209TIP3    H1  568   2.958   0.984   1.754
  209TIP3    H2  569   2.970   0.977   1.607
  210TIP3   OH2  570   2.996   1.109   1.880
  210TIP3    H1  571   2.921   1.166   1.850
  210TIP3    H2  572   3.023   1.156   1.961
  211TIP3   OH2  573   2.429   1.913   1.523
  211TIP3    H1  574   2.345   1.868   1.509
  211TIP3    H2  575   2.422   1.991   1.465
  212TIP3   OH2  576   2.648   1.813   1.846
  212TIP3    H1  577   2.649   1.742   1.779
  212TIP3    H2  578   2.634   1.893   1.790
  213TIP3   OH2  579   2.849   1.446   1.681
  213TIP3    H1  580   2.769   1.502   1.686
  213TIP3    H2  581   2.883   1.473   1.593
  214TIP3   OH2  582   2.536   1.324   1.996
  214TIP3    H1  583   2.527   1.413   2.036
  214TIP3    H2  584   2.457   1.319   1.937
  215TIP3   OH2  585   2.148   1.899   1.611
  215TIP3    H1  586   2.159   1.989   1.648
  215TIP3    H2  587   2.206   1.847   1.668
  216TIP3   OH2  588   1.789   1.803   2.172
  216TIP3    H1  589   1.755   1.890   2.202
  216TIP3    H2  590   1.709   1.751   2.185
  217TIP3   OH2  591   1.598   1.991   2.256
  217TIP3    H1  592   1.566   1.990   2.164
  217TIP3    H2  593   1.517   1.976   2.307
  218TIP3   OH2  594   2.893   2.159   1.888
  218TIP3    H1  595   2.888   2.063   1.900
  218TIP3    H2  596   2.808   2.187   1.930
  219TIP3   OH2  597   2.002   1.946   2.017
  219TIP3    H1  598   2.003   2.039   2.050
  219TIP3    H2  599   1.930   1.908   2.071
  220TIP3   OH2  600   2.782   1.287   2.155
  220TIP3    H1  601   2.702   1.299   2.102
  220TIP3    H2  602   2.794   1.190   2.151
  221TIP3   OH2  603   2.554   1.066   2.091
  221TIP3    H1  604   2.510   1.076   2.178
  221TIP3    H2  605   2.537   1.153   2.049
  222TIP3   OH2  606   2.275   1.312   2.351
  222TIP3    H1  607   2.243   1.232   2.399
  222TIP3    H2  608   2.351   1.276   2.304
  223TIP3   OH2  609   2.580   2.510   1.983
  223TIP3    H1  610   2.578   2.536   1.889
  223TIP3    H2  611   2.657   2.561   2.015
  224TIP3   OH2  612   1.526   1.679   2.445
  224TIP3    H1  613   1.616   1.696   2.478
  224TIP3    H2  614   1.486   1.639   2.523
  225TIP3   OH2  615   2.626   1.605   1.670
  225TIP3    H1  616   2.666   1.656   1.596
  225TIP3    H2  617   2.539   1.587   1.634
  226TIP3   OH2  618   2.008   1.427   2.359
  226TIP3    H1  619   1.935   1.387   2.310
  226TIP3    H2  620   2.088   1.383   2.325
  227TIP3   OH2  621   2.267   1.916   1.945
  227TIP3    H1  622   2.172   1.930   1.962
  227TIP3    H2  623   2.305   1.975   2.013
  228TIP3   OH2  624   2.901   1.864   1.932
  228TIP3    H1  625   2.803   1.863   1.923
  228TIP3    H2  626   2.927   1.837   1.841
  229TIP3   OH2  627   1.785   2.043   1.868
  229TIP3    H1  628   1.793   2.069   1.775
  229TIP3    H2  629   1.876   2.020   1.890
  230TIP3   OH2  630   2.413   2.200   1.820
  230TIP3    H1  631   2.329   2.152   1.803
  230TIP3    H2  632   2.407   2.270   1.751
  231TIP3   OH2  633   2.186   1.071   2.202
  231TIP3    H1  634   2.206   1.162   2.180
  231TIP3    H2  635   2.186   1.030   2.114
  232TIP3   OH2  636   2.817   1.013   2.083
  232TIP3    H1  637   2.719   1.016   2.082
  232TIP3    H2  638   2.838   1.012   1.989
  233TIP3   OH2  639   2.432   2.169   1.411
  233TIP3    H1  640   2.393   2.224   1.339
  233TIP3    H2  641   2.527   2.190   1.395
  234TIP3   OH2  642   1.204   2.203   2.390
  234TIP3    H1  643   1.288   2.215   2.439
  234TIP3    H2  644   1.193   2.108   2.403
  235TIP3   OH2  645   1.690   2.168   2.447
  235TIP3    H1  646   1.786   2.156   2.449
  235TIP3    H2  647   1.666   2.112   2.370
  236TIP3   OH2  648   2.335   2.067   2.166
  236TIP3    H1  649   2.323   2.004   2.241
  236TIP3    H2  650   2.407   2.124   2.199
  237TIP3   OH2  651   1.950   1.697   2.372
  237TIP3    H1  652   1.898   1.710   2.291
  237TIP3    H2  653   1.974   1.602   2.369
  238TIP3   OH2  654   2.429   1.696   1.966
  238TIP3    H1  655   2.510   1.733   1.926
  238TIP3    H2  656   2.370   1.775   1.958
  239TIP3   OH2  657   2.309   1.638   2.361
  239TIP3    H1  658   2.399   1.630   2.327
  239TIP3    H2  659   2.302   1.569   2.427
  240TIP3   OH2  660   2.563   1.560   2.159
  240TIP3    H1  661   2.509   1.618   2.100
  240TIP3    H2  662   2.653   1.578   2.123
  241TIP3   OH2  663   2.187   1.096   2.499
  241TIP3    H1  664   2.129   1.058   2.568
  241TIP3    H2  665   2.147   1.056   2.420
  242TIP3   OH2  666   2.436   1.056   2.338
  242TIP3    H1  667   2.349   1.014   2.332
  242TIP3    H2  668   2.489   0.991   2.388
  243TIP3   OH2  669   2.620   0.969   2.543
  243TIP3    H1  670   2.629   0.882   2.496
  243TIP3    H2  671   2.686   0.950   2.611
  244TIP3   OH2  672   2.212   0.786   2.638
  244TIP3    H1  673   2.186   0.700   2.602
  244TIP3    H2  674   2.129   0.836   2.649
  245TIP3   OH2  675   2.685   2.262   1.378
  245TIP3    H1  676   2.717   2.308   1.458
  245TIP3    H2  677   2.738   2.305   1.308
  246TIP3   OH2  678   2.714   2.289   1.660
  246TIP3    H1  679   2.681   2.197   1.651
  246TIP3    H2  680   2.797   2.273   1.706
  247TIP3   OH2  681   2.763   1.961   2.228
  247TIP3    H1  682   2.689   1.972   2.291
  247TIP3    H2  683   2.804   2.050   2.229
  248TIP3   OH2  684   2.753   1.728   1.473
  248TIP3    H1  685   2.820   1.672   1.429
  248TIP3    H2  686   2.760   1.812   1.422
  249TIP3   OH2  687   2.601   2.036   1.692
  249TIP3    H1  688   2.531   2.088   1.736
  249TIP3    H2  689   2.550   1.991   1.621
  250TIP3   OH2  690   2.808   1.622   2.054
  250TIP3    H1  691   2.881   1.558   2.048
  250TIP3    H2  692   2.839   1.695   1.997
  251TIP3   OH2  693   2.995   1.431   2.078
  251TIP3    H1  694   2.922   1.378   2.116
  251TIP3    H2  695   3.070   1.371   2.092
  252TIP3   OH2  696   7.672   6.028   6.566
  252TIP3    H1  697   7.737   6.076   6.513
  252TIP3    H2  698   7.668   6.082   6.646
  253TIP3   OH2  699   2.754   1.235   1.829
  253TIP3    H1  700   2.676   1.272   1.873
  253TIP3    H2  701   2.786   1.312   1.776
  254TIP3   OH2  702   3.197   0.819   2.379
  254TIP3    H1  703   3.259   0.756   2.338
  254TIP3    H2  704   3.173   0.876   2.303
  255TIP3   OH2  705   3.072   0.966   2.185
  255TIP3    H1  706   2.981   1.002   2.193
  255TIP3    H2  707   3.055   0.895   2.122
  256TIP3   OH2  708   1.364   1.956   2.448
  256TIP3    H1  709   1.308   1.877   2.456
  256TIP3    H2  710   1.410   1.956   2.533
  257TIP3   OH2  711   1.559   1.955   1.983
  257TIP3    H1  712   1.487   2.000   1.936
  257TIP3    H2  713   1.637   2.000   1.944
  258TIP3   OH2  714   2.001   2.209   2.102
  258TIP3    H1  715   2.040   2.217   2.191
  258TIP3    H2  716   2.064   2.262   2.049
  259TIP3   OH2  717   2.179   2.361   1.960
  259TIP3    H1  718   2.255   2.317   1.919
  259TIP3    H2  719   2.225   2.422   2.022
  260TIP3   OH2  720   2.975   0.727   2.062
  260TIP3    H1  721   2.884   0.724   2.030
  260TIP3    H2  722   3.004   0.633   2.056
  261TIP3   OH2  723   1.262   2.210   2.039
  261TIP3    H1  724   1.214   2.291   2.015
  261TIP3    H2  725   1.240   2.202   2.133
  262TIP3   OH2  726   1.477   2.219   1.848
  262TIP3    H1  727   1.424   2.225   1.930
  262TIP3    H2  728   1.408   2.238   1.783
  263TIP3   OH2  729   1.897   2.239   1.626
  263TIP3    H1  730   1.806   2.246   1.593
  263TIP3    H2  731   1.907   2.322   1.677
  264TIP3   OH2  732   2.161   2.164   1.680
  264TIP3    H1  733   2.067   2.191   1.670
  264TIP3    H2  734   2.207   2.245   1.653
  265TIP3   OH2  735   2.361   2.361   1.609
  265TIP3    H1  736   2.349   2.449   1.566
  265TIP3    H2  737   2.391   2.307   1.533
  266TIP3   OH2  738   2.719   0.721   2.504
  266TIP3    H1  739   2.726   0.670   2.587
  266TIP3    H2  740   2.792   0.684   2.450
  267TIP3   OH2  741   2.644   2.242   1.988
  267TIP3    H1  742   2.566   2.213   1.937
  267TIP3    H2  743   2.629   2.339   1.987
  268TIP3   OH2  744   3.909   1.612   0.753
  268TIP3    H1  745   3.881   1.704   0.732
  268TIP3    H2  746   3.831   1.564   0.723
  269TIP3   OH2  747   3.907   1.615   1.132
  269TIP3    H1  748   3.940   1.584   1.219
  269TIP3    H2  749   3.871   1.533   1.094
  270TIP3   OH2  750   3.207   1.513   1.503
  270TIP3    H1  751   3.241   1.444   1.563
  270TIP3    H2  752   3.287   1.566   1.489
  271TIP3   OH2  753   4.155   1.912   0.814
  271TIP3    H1  754   4.137   1.846   0.881
  271TIP3    H2  755   4.178   1.990   0.867
  272TIP3   OH2  756   3.178   1.916   1.228
  272TIP3    H1  757   3.175   1.818   1.230
  272TIP3    H2  758   3.274   1.930   1.217
  273TIP3   OH2  759   2.971   1.426   1.185
  273TIP3    H1  760   3.023   1.351   1.222
  273TIP3    H2  761   3.017   1.442   1.102
  274TIP3   OH2  762   3.798   2.378   0.829
  274TIP3    H1  763   3.846   2.307   0.782
  274TIP3    H2  764   3.795   2.343   0.919
  275TIP3   OH2  765   3.709   1.838   1.182
  275TIP3    H1  766   3.749   1.762   1.137
  275TIP3    H2  767   3.791   1.885   1.206
  276TIP3   OH2  768   4.722   1.165   1.183
  276TIP3    H1  769   4.750   1.244   1.234
  276TIP3    H2  770   4.730   1.197   1.092
  277TIP3   OH2  771   4.115   1.349   1.212
  277TIP3    H1  772   4.155   1.263   1.238
  277TIP3    H2  773   4.089   1.328   1.121
  278TIP3   OH2  774   3.450   1.003   1.193
  278TIP3    H1  775   3.433   1.069   1.122
  278TIP3    H2  776   3.424   0.920   1.154
  279TIP3   OH2  777   4.151   1.094   0.807
  279TIP3    H1  778   4.224   1.073   0.870
  279TIP3    H2  779   4.203   1.126   0.731
  280TIP3   OH2  780   3.097   1.207   1.274
  280TIP3    H1  781   3.173   1.187   1.332
  280TIP3    H2  782   3.091   1.127   1.220
  281TIP3   OH2  783   3.538   1.406   1.078
  281TIP3    H1  784   3.632   1.381   1.091
  281TIP3    H2  785   3.499   1.320   1.053
  282TIP3   OH2  786   4.793   1.366   1.350
  282TIP3    H1  787   4.708   1.415   1.345
  282TIP3    H2  788   4.779   1.311   1.431
  283TIP3   OH2  789   3.450   0.979   1.609
  283TIP3    H1  790   3.396   1.033   1.549
  283TIP3    H2  791   3.405   0.997   1.695
  284TIP3   OH2  792   3.799   1.832   0.621
  284TIP3    H1  793   3.764   1.821   0.531
  284TIP3    H2  794   3.758   1.917   0.647
  285TIP3   OH2  795   3.560   1.759   1.410
  285TIP3    H1  796   3.499   1.825   1.448
  285TIP3    H2  797   3.602   1.810   1.338
  286TIP3   OH2  798   4.362   1.093   0.979
  286TIP3    H1  799   4.355   1.047   1.063
  286TIP3    H2  800   4.418   1.169   1.003
  287TIP3   OH2  801   3.321   1.109   1.405
  287TIP3    H1  802   3.382   1.183   1.429
  287TIP3    H2  803   3.372   1.069   1.331
  288TIP3   OH2  804   3.387   1.952   1.507
  288TIP3    H1  805   3.364   2.038   1.465
  288TIP3    H2  806   3.308   1.939   1.563
  289TIP3   OH2  807   4.225   2.158   0.982
  289TIP3    H1  808   4.136   2.149   1.023
  289TIP3    H2  809   4.216   2.244   0.936
  290TIP3   OH2  810   4.501   1.032   1.311
  290TIP3    H1  811   4.446   1.106   1.339
  290TIP3    H2  812   4.578   1.077   1.270
  291TIP3   OH2  813   3.821   0.708   1.334
  291TIP3    H1  814   3.800   0.614   1.345
  291TIP3    H2  815   3.738   0.748   1.368
  292TIP3   OH2  816   3.928   2.204   0.659
  292TIP3    H1  817   3.977   2.122   0.636
  292TIP3    H2  818   3.990   2.270   0.619
  293TIP3   OH2  819   4.069   1.989   0.563
  293TIP3    H1  820   4.032   1.911   0.519
  293TIP3    H2  821   4.103   1.951   0.646
  294TIP3   OH2  822   4.451   2.072   1.326
  294TIP3    H1  823   4.436   1.994   1.267
  294TIP3    H2  824   4.430   2.147   1.266
  295TIP3   OH2  825   3.741   1.460   0.576
  295TIP3    H1  826   3.677   1.532   0.557
  295TIP3    H2  827   3.802   1.465   0.499
  296TIP3   OH2  828   4.645   1.714   1.172
  296TIP3    H1  829   4.560   1.763   1.180
  296TIP3    H2  830   4.668   1.734   1.079
  297TIP3   OH2  831   4.097   1.556   0.560
  297TIP3    H1  832   4.040   1.577   0.637
  297TIP3    H2  833   4.178   1.525   0.605
  298TIP3   OH2  834   4.326   1.591   1.466
  298TIP3    H1  835   4.320   1.674   1.516
  298TIP3    H2  836   4.239   1.593   1.420
  299TIP3   OH2  837   3.320   1.545   0.977
  299TIP3    H1  838   3.291   1.494   0.901
  299TIP3    H2  839   3.401   1.497   1.006
  300TIP3   OH2  840   3.446   1.950   1.125
  300TIP3    H1  841   3.429   1.918   1.035
  300TIP3    H2  842   3.538   1.920   1.141
  301TIP3   OH2  843   3.455   1.518   1.326
  301TIP3    H1  844   3.491   1.498   1.237
  301TIP3    H2  845   3.499   1.604   1.347
  302TIP3   OH2  846   3.985   2.154   1.103
  302TIP3    H1  847   3.969   2.236   1.153
  302TIP3    H2  848   3.967   2.083   1.168
  303TIP3   OH2  849   3.595   2.073   1.651
  303TIP3    H1  850   3.535   2.136   1.696
  303TIP3    H2  851   3.530   2.020   1.600
  304TIP3   OH2  852   3.930   1.425   0.384
  304TIP3    H1  853   4.000   1.473   0.433
  304TIP3    H2  854   3.964   1.428   0.292
  305TIP3   OH2  855   3.350   1.631   1.752
  305TIP3    H1  856   3.354   1.719   1.796
  305TIP3    H2  857   3.254   1.614   1.757
  306TIP3   OH2  858   3.669   2.088   0.665
  306TIP3    H1  859   3.747   2.145   0.678
  306TIP3    H2  860   3.611   2.145   0.612
  307TIP3   OH2  861   3.390   2.242   1.735
  307TIP3    H1  862   3.354   2.244   1.644
  307TIP3    H2  863   3.310   2.219   1.788
  308TIP3   OH2  864   4.237   2.021  -0.027
  308TIP3    H1  865   4.253   2.116  -0.042
  308TIP3    H2  866   4.326   1.984  -0.036
  309TIP3   OH2  867   2.964   1.772   1.687
  309TIP3    H1  868   2.915   1.748   1.607
  309TIP3    H2  869   3.006   1.687   1.714
  310TIP3   OH2  870   2.825   1.956   1.329
  310TIP3    H1  871   2.919   1.961   1.308
  310TIP3    H2  872   2.810   2.044   1.369
  311TIP3   OH2  873   4.688   2.415   1.373
  311TIP3    H1  874   4.684   2.319   1.389
  311TIP3    H2  875   4.605   2.444   1.417
  312TIP3   OH2  876   3.794   2.202   1.507
  312TIP3    H1  877   3.794   2.295   1.538
  312TIP3    H2  878   3.722   2.164   1.562
  313TIP3   OH2  879   3.553   2.330   0.457
  313TIP3    H1  880   3.510   2.316   0.371
  313TIP3    H2  881   3.525   2.420   0.482
  314TIP3   OH2  882   2.997   2.191   0.841
  314TIP3    H1  883   3.046   2.182   0.925
  314TIP3    H2  884   2.941   2.111   0.847
  315TIP3   OH2  885   3.753   2.229   0.107
  315TIP3    H1  886   3.806   2.164   0.059
  315TIP3    H2  887   3.794   2.233   0.195
  316TIP3   OH2  888   3.807   2.280   0.376
  316TIP3    H1  889   3.716   2.291   0.410
  316TIP3    H2  890   3.851   2.239   0.452
  317TIP3   OH2  891   4.576   1.543   1.642
  317TIP3    H1  892   4.497   1.553   1.587
  317TIP3    H2  893   4.587   1.446   1.644
  318TIP3   OH2  894   3.172   1.953   1.673
  318TIP3    H1  895   3.223   1.940   1.756
  318TIP3    H2  896   3.097   1.891   1.684
  319TIP3   OH2  897   3.570   0.778   1.452
  319TIP3    H1  898   3.488   0.738   1.419
  319TIP3    H2  899   3.536   0.854   1.504
  320TIP3   OH2  900   4.108   0.895   1.650
  320TIP3    H1  901   4.176   0.867   1.714
  320TIP3    H2  902   4.024   0.875   1.696
  321TIP3   OH2  903   4.334   1.319   1.554
  321TIP3    H1  904   4.304   1.316   1.646
  321TIP3    H2  905   4.326   1.413   1.530
  322TIP3   OH2  906   4.027   1.440   0.124
  322TIP3    H1  907   3.943   1.458   0.080
  322TIP3    H2  908   4.081   1.517   0.097
  323TIP3   OH2  909   3.502   1.298   1.476
  323TIP3    H1  910   3.457   1.325   1.559
  323TIP3    H2  911   3.489   1.378   1.420
  324TIP3   OH2  912   3.387   1.187   0.997
  324TIP3    H1  913   3.293   1.189   0.972
  324TIP3    H2  914   3.427   1.148   0.918
  325TIP3   OH2  915   3.870   1.262   0.716
  325TIP3    H1  916   3.825   1.334   0.666
  325TIP3    H2  917   3.937   1.234   0.649
  326TIP3   OH2  918   4.053   1.547   1.804
  326TIP3    H1  919   4.033   1.472   1.865
  326TIP3    H2  920   4.148   1.559   1.822
  327TIP3   OH2  921   4.032   1.297   0.955
  327TIP3    H1  922   3.976   1.324   0.879
  327TIP3    H2  923   4.070   1.215   0.917
  328TIP3   OH2  924   3.319   1.325   1.685
  328TIP3    H1  925   3.358   1.388   1.748
  328TIP3    H2  926   3.313   1.243   1.738
  329TIP3   OH2  927   4.044   1.543   1.382
  329TIP3    H1  928   4.078   1.472   1.322
  329TIP3    H2  929   4.018   1.489   1.459
  330TIP3   OH2  930   3.705   0.992   1.075
  330TIP3    H1  931   3.641   0.997   1.148
  330TIP3    H2  932   3.789   0.973   1.122
  331TIP3   OH2  933   4.184   1.089   1.245
  331TIP3    H1  934   4.160   1.092   1.340
  331TIP3    H2  935   4.132   1.014   1.214
  332TIP3   OH2  936   4.376   2.766   1.470
  332TIP3    H1  937   4.374   2.792   1.376
  332TIP3    H2  938   4.452   2.818   1.502
  333TIP3   OH2  939   3.334   1.876   1.894
  333TIP3    H1  940   3.415   1.907   1.939
  333TIP3    H2  941   3.271   1.882   1.968
  334TIP3   OH2  942   3.798   1.325   1.143
  334TIP3    H1  943   3.877   1.296   1.094
  334TIP3    H2  944   3.814   1.286   1.231
  335TIP3   OH2  945   3.775   1.222   1.443
  335TIP3    H1  946   3.688   1.267   1.453
  335TIP3    H2  947   3.836   1.282   1.489
  336TIP3   OH2  948   3.518   1.617   0.538
  336TIP3    H1  949   3.430   1.581   0.519
  336TIP3    H2  950   3.503   1.655   0.628
  337TIP3   OH2  951   4.411   1.854   1.163
  337TIP3    H1  952   4.432   1.904   1.082
  337TIP3    H2  953   4.326   1.810   1.140
  338TIP3   OH2  954   3.908   1.935   1.530
  338TIP3    H1  955   3.936   1.917   1.621
  338TIP3    H2  956   3.874   2.026   1.535
  339TIP3   OH2  957   4.033   1.171   0.518
  339TIP3    H1  958   4.129   1.179   0.508
  339TIP3    H2  959   3.999   1.209   0.435
  340TIP3   OH2  960   3.202   1.640   1.211
  340TIP3    H1  961   3.239   1.613   1.124
  340TIP3    H2  962   3.247   1.578   1.271
  341TIP3   OH2  963   3.671   1.775   0.366
  341TIP3    H1  964   3.620   1.859   0.364
  341TIP3    H2  965   3.608   1.717   0.415
  342TIP3   OH2  966   3.082   1.564   1.823
  342TIP3    H1  967   3.109   1.551   1.916
  342TIP3    H2  968   3.020   1.491   1.810
  343TIP3   OH2  969   3.810   1.673   1.841
  343TIP3    H1  970   3.755   1.616   1.786
  343TIP3    H2  971   3.900   1.641   1.816
  344TIP3   OH2  972   4.073   2.191   1.427
  344TIP3    H1  973   3.976   2.195   1.437
  344TIP3    H2  974   4.101   2.246   1.503
  345TIP3   OH2  975   4.463   1.276   0.339
  345TIP3    H1  976   4.403   1.231   0.276
  345TIP3    H2  977   4.462   1.366   0.299
  346TIP3   OH2  978   4.701   2.122   1.414
  346TIP3    H1  979   4.603   2.118   1.407
  346TIP3    H2  980   4.725   2.094   1.323
  347TIP3   OH2  981   4.188   2.085   0.241
  347TIP3    H1  982   4.151   2.018   0.300
  347TIP3    H2  983   4.192   2.039   0.155
  348TIP3   OH2  984   4.179   1.716   1.083
  348TIP3    H1  985   4.085   1.692   1.096
  348TIP3    H2  986   4.212   1.636   1.037
  349TIP3   OH2  987   3.305   1.944   0.834
  349TIP3    H1  988   3.309   2.027   0.781
  349TIP3    H2  989   3.210   1.931   0.838
  350TIP3   OH2  990   3.440   1.711   0.777
  350TIP3    H1  991   3.411   1.803   0.792
  350TIP3    H2  992   3.409   1.668   0.858
  351TIP3   OH2  993   3.573   2.288   1.303
  351TIP3    H1  994   3.612   2.362   1.252
  351TIP3    H2  995   3.651   2.255   1.351
  352TIP3   OH2  996   3.229   2.179   0.685
  352TIP3    H1  997   3.142   2.194   0.728
  352TIP3    H2  998   3.264   2.272   0.685
  353TIP3   OH2  999   3.962   1.920   1.261
  353TIP3    H1 1000   3.953   1.918   1.359
  353TIP3    H2 1001   4.044   1.870   1.249
  354TIP3   OH2 1002   3.927   1.813   0.149
  354TIP3    H1 1003   3.984   1.790   0.225
  354TIP3    H2 1004   3.840   1.792   0.185
  355TIP3   OH2 1005   4.212   2.455   1.308
  355TIP3    H1 1006   4.130   2.402   1.300
  355TIP3    H2 1007   4.198   2.522   1.238
  356TIP3   OH2 1008   4.277   2.296  -0.042
  356TIP3    H1 1009   4.325   2.372  -0.077
  356TIP3    H2 1010   4.198   2.342  -0.005
  357TIP3   OH2 1011   3.297   1.066   1.830
  357TIP3    H1 1012   3.201   1.068   1.845
  357TIP3    H2 1013   3.327   1.004   1.898
  358TIP3   OH2 1014   4.097   1.751   0.362
  358TIP3    H1 1015   4.087   1.685   0.434
  358TIP3    H2 1016   4.194   1.747   0.349
  359TIP3   OH2 1017   3.010   2.151   1.465
  359TIP3    H1 1018   3.069   2.079   1.494
  359TIP3    H2 1019   3.044   2.225   1.517
  360TIP3   OH2 1020   3.282   1.788   0.438
  360TIP3    H1 1021   3.327   1.775   0.521
  360TIP3    H2 1022   3.260   1.883   0.442
  361TIP3   OH2 1023   4.127   1.134   1.512
  361TIP3    H1 1024   4.211   1.176   1.537
  361TIP3    H2 1025   4.125   1.054   1.568
  362TIP3   OH2 1026   4.005   0.904   0.664
  362TIP3    H1 1027   3.989   0.942   0.576
  362TIP3    H2 1028   4.054   0.976   0.709
  363TIP3   OH2 1029   3.519   2.000   0.380
  363TIP3    H1 1030   3.430   2.031   0.404
  363TIP3    H2 1031   3.531   2.039   0.293
  364TIP3   OH2 1032   3.663   1.117   0.836
  364TIP3    H1 1033   3.737   1.175   0.807
  364TIP3    H2 1034   3.695   1.086   0.923
  365TIP3   OH2 1035   3.971   1.379   1.587
  365TIP3    H1 1036   3.995   1.430   1.667
  365TIP3    H2 1037   4.030   1.302   1.593
  366TIP3   OH2 1038   3.861   0.811   0.880
  366TIP3    H1 1039   3.898   0.860   0.954
  366TIP3    H2 1040   3.923   0.832   0.807
  367TIP3   OH2 1041   3.245   2.065   0.427
  367TIP3    H1 1042   3.227   2.143   0.368
  367TIP3    H2 1043   3.234   2.107   0.515
  368TIP3   OH2 1044   4.262   1.475   0.953
  368TIP3    H1 1045   4.187   1.415   0.967
  368TIP3    H2 1046   4.335   1.429   1.000
  369TIP3   OH2 1047   4.232   2.428   0.904
  369TIP3    H1 1048   4.188   2.475   0.830
  369TIP3    H2 1049   4.326   2.448   0.881
  370TIP3   OH2 1050   2.878   1.944   0.882
  370TIP3    H1 1051   2.784   1.955   0.902
  370TIP3    H2 1052   2.873   1.922   0.788
  371TIP3   OH2 1053   3.002   2.456   1.886
  371TIP3    H1 1054   3.089   2.458   1.932
  371TIP3    H2 1055   2.985   2.361   1.882
  372TIP3   OH2 1056   3.483   2.424   1.931
  372TIP3    H1 1057   3.579   2.411   1.936
  372TIP3    H2 1058   3.461   2.367   1.854
  373TIP3   OH2 1059   3.495   1.983   0.096
  373TIP3    H1 1060   3.418   1.925   0.112
  373TIP3    H2 1061   3.527   1.950   0.011
  374TIP3   OH2 1062   4.125   2.329   1.661
  374TIP3    H1 1063   4.116   2.260   1.731
  374TIP3    H2 1064   4.201   2.381   1.692
  375TIP3   OH2 1065   3.908   2.029  -0.053
  375TIP3    H1 1066   3.933   1.967   0.019
  375TIP3    H2 1067   3.992   2.070  -0.075
  376TIP3   OH2 1068   3.132   1.863   2.085
  376TIP3    H1 1069   3.150   1.767   2.086
  376TIP3    H2 1070   3.045   1.866   2.039
  377TIP3   OH2 1071   3.740   1.949   1.858
  377TIP3    H1 1072   3.702   1.967   1.770
  377TIP3    H2 1073   3.772   1.856   1.849
  378TIP3   OH2 1074   4.233   1.957   1.462
  378TIP3    H1 1075   4.309   2.002   1.420
  378TIP3    H2 1076   4.163   2.023   1.450
  379TIP3   OH2 1077   3.251   1.593   2.065
  379TIP3    H1 1078   3.332   1.546   2.041
  379TIP3    H2 1079   3.277   1.631   2.152
  380TIP3   OH2 1080   3.584   1.479   1.722
  380TIP3    H1 1081   3.511   1.545   1.727
  380TIP3    H2 1082   3.638   1.516   1.649
  381TIP3   OH2 1083   4.104   1.886   1.862
  381TIP3    H1 1084   4.185   1.865   1.813
  381TIP3    H2 1085   4.103   1.817   1.931
  382TIP3   OH2 1086   4.252   1.558  -0.019
  382TIP3    H1 1087   4.233   1.515  -0.103
  382TIP3    H2 1088   4.244   1.651  -0.043
  383TIP3   OH2 1089   3.708   1.271   1.856
  383TIP3    H1 1090   3.712   1.191   1.799
  383TIP3    H2 1091   3.667   1.336   1.795
  384TIP3   OH2 1092   3.710   1.058   1.663
  384TIP3    H1 1093   3.742   1.099   1.580
  384TIP3    H2 1094   3.618   1.033   1.639
  385TIP3   OH2 1095   3.740   1.593   1.534
  385TIP3    H1 1096   3.825   1.600   1.489
  385TIP3    H2 1097   3.687   1.662   1.489
  386TIP3   OH2 1098   4.325   1.561   1.918
  386TIP3    H1 1099   4.371   1.475   1.921
  386TIP3    H2 1100   4.394   1.619   1.884
  387TIP3   OH2 1101   4.363   1.816   1.653
  387TIP3    H1 1102   4.305   1.868   1.592
  387TIP3    H2 1103   4.451   1.834   1.612
  388TIP3   OH2 1104   3.584   1.387   2.083
  388TIP3    H1 1105   3.518   1.316   2.096
  388TIP3    H2 1106   3.622   1.362   1.996
  389TIP3   OH2 1107   3.847   0.824   1.728
  389TIP3    H1 1108   3.797   0.905   1.705
  389TIP3    H2 1109   3.778   0.755   1.716
  390TIP3   OH2 1110   3.970   1.328   1.944
  390TIP3    H1 1111   3.963   1.317   2.040
  390TIP3    H2 1112   3.880   1.302   1.917
  391TIP3   OH2 1113   4.216   1.284   1.799
  391TIP3    H1 1114   4.141   1.279   1.861
  391TIP3    H2 1115   4.290   1.250   1.854
  392TIP3   OH2 1116   4.432   1.216   1.951
  392TIP3    H1 1117   4.452   1.121   1.967
  392TIP3    H2 1118   4.441   1.256   2.040
  393TIP3   OH2 1119   3.426   1.167   2.136
  393TIP3    H1 1120   3.433   1.077   2.100
  393TIP3    H2 1121   3.464   1.154   2.225
  394TIP3   OH2 1122   3.940   0.830   1.985
  394TIP3    H1 1123   4.008   0.761   1.979
  394TIP3    H2 1124   3.901   0.825   1.896
  395TIP3   OH2 1125   4.005   1.045   2.146
  395TIP3    H1 1126   3.984   0.975   2.081
  395TIP3    H2 1127   3.928   1.105   2.137
  396TIP3   OH2 1128   3.228   2.270   0.247
  396TIP3    H1 1129   3.321   2.278   0.216
  396TIP3    H2 1130   3.179   2.316   0.178
  397TIP3   OH2 1131   2.625   2.268   0.872
  397TIP3    H1 1132   2.531   2.244   0.876
  397TIP3    H2 1133   2.664   2.218   0.947
  398TIP3   OH2 1134   2.738   2.133   1.078
  398TIP3    H1 1135   2.759   2.049   1.120
  398TIP3    H2 1136   2.802   2.192   1.122
  399TIP3   OH2 1137   4.486   2.516   0.860
  399TIP3    H1 1138   4.508   2.554   0.947
  399TIP3    H2 1139   4.538   2.572   0.800
  400TIP3   OH2 1140   4.512   2.542   1.140
  400TIP3    H1 1141   4.471   2.453   1.137
  400TIP3    H2 1142   4.588   2.524   1.198
  401TIP3   OH2 1143   4.560   2.218   1.714
  401TIP3    H1 1144   4.486   2.227   1.777
  401TIP3    H2 1145   4.601   2.307   1.718
  402TIP3   OH2 1146   4.377   1.730   0.335
  402TIP3    H1 1147   4.442   1.796   0.307
  402TIP3    H2 1148   4.420   1.693   0.415
  403TIP3   OH2 1149   4.504   1.599   0.541
  403TIP3    H1 1150   4.435   1.554   0.594
  403TIP3    H2 1151   4.557   1.644   0.609
  404TIP3   OH2 1152   4.558   1.992   0.975
  404TIP3    H1 1153   4.600   1.931   0.913
  404TIP3    H2 1154   4.544   2.071   0.920
  405TIP3   OH2 1155   4.389   2.290   1.168
  405TIP3    H1 1156   4.319   2.337   1.218
  405TIP3    H2 1157   4.338   2.246   1.097
  406TIP3   OH2 1158   4.434   1.504   0.187
  406TIP3    H1 1159   4.370   1.513   0.114
  406TIP3    H2 1160   4.410   1.583   0.241
  407TIP3   OH2 1161   4.299   1.169   0.138
  407TIP3    H1 1162   4.239   1.242   0.117
  407TIP3    H2 1163   4.237   1.094   0.134
  408TIP3   OH2 1164   4.324   1.454   0.687
  408TIP3    H1 1165   4.324   1.357   0.677
  408TIP3    H2 1166   4.307   1.464   0.784
  409TIP3   OH2 1167   2.945   1.532   1.435
  409TIP3    H1 1168   2.947   1.503   1.341
  409TIP3    H2 1169   3.042   1.533   1.454
  410TIP3   OH2 1170   4.606   1.880   1.543
  410TIP3    H1 1171   4.678   1.814   1.535
  410TIP3    H2 1172   4.635   1.950   1.482
  411TIP3   OH2 1173   4.792   1.687   1.558
  411TIP3    H1 1174   4.718   1.634   1.594
  411TIP3    H2 1175   4.866   1.624   1.576
  412TIP3   OH2 1176   4.318   1.176   0.584
  412TIP3    H1 1177   4.359   1.087   0.601
  412TIP3    H2 1178   4.376   1.206   0.511
  413TIP3   OH2 1179   4.475   1.349   1.074
  413TIP3    H1 1180   4.562   1.373   1.037
  413TIP3    H2 1181   4.488   1.380   1.166
  414TIP3   OH2 1182   4.542   1.489   1.308
  414TIP3    H1 1183   4.463   1.520   1.356
  414TIP3    H2 1184   4.575   1.571   1.267
  415TIP3   OH2 1185   3.159   1.217   2.106
  415TIP3    H1 1186   3.257   1.212   2.107
  415TIP3    H2 1187   3.138   1.132   2.151
  416TIP3   OH2 1188   4.993   1.090   1.848
  416TIP3    H1 1189   5.051   1.018   1.816
  416TIP3    H2 1190   4.955   1.122   1.763
  417TIP3   OH2 1191   4.439   0.934   0.620
  417TIP3    H1 1192   4.464   0.913   0.712
  417TIP3    H2 1193   4.373   0.864   0.603
  418TIP3   OH2 1194   3.139   0.896   1.408
  418TIP3    H1 1195   3.173   0.837   1.478
  418TIP3    H2 1196   3.188   0.978   1.428
  419TIP3   OH2 1197   2.969   1.171   1.540
  419TIP3    H1 1198   2.950   1.173   1.444
  419TIP3    H2 1199   2.987   1.264   1.556
  420TIP3   OH2 1200   4.076   2.382   0.521
  420TIP3    H1 1201   4.121   2.373   0.435
  420TIP3    H2 1202   4.120   2.459   0.559
  421TIP3   OH2 1203   3.136   0.771   1.833
  421TIP3    H1 1204   3.083   0.762   1.913
  421TIP3    H2 1205   3.073   0.812   1.771
  422TIP3   OH2 1206   3.170   2.188   1.902
  422TIP3    H1 1207   3.077   2.163   1.888
  422TIP3    H2 1208   3.179   2.180   1.998
  423TIP3   OH2 1209   3.345   2.223   1.449
  423TIP3    H1 1210   3.299   2.300   1.409
  423TIP3    H2 1211   3.432   2.236   1.407
  424TIP3   OH2 1212   3.793   2.469   1.589
  424TIP3    H1 1213   3.835   2.472   1.677
  424TIP3    H2 1214   3.859   2.520   1.536
  425TIP3   OH2 1215   3.972   2.619   1.448
  425TIP3    H1 1216   4.044   2.571   1.405
  425TIP3    H2 1217   4.023   2.677   1.509
  426TIP3   OH2 1218   3.022   2.476   1.478
  426TIP3    H1 1219   2.935   2.512   1.449
  426TIP3    H2 1220   3.033   2.523   1.561
  427TIP3   OH2 1221   3.259   2.457   1.331
  427TIP3    H1 1222   3.173   2.472   1.375
  427TIP3    H2 1223   3.242   2.493   1.242
  428TIP3   OH2 1224   3.685   2.488   1.131
  428TIP3    H1 1225   3.619   2.509   1.062
  428TIP3    H2 1226   3.699   2.577   1.171
  429TIP3   OH2 1227   3.954   2.427   1.180
  429TIP3    H1 1228   3.860   2.446   1.161
  429TIP3    H2 1229   3.997   2.505   1.139
  430TIP3   OH2 1230   4.163   2.621   1.097
  430TIP3    H1 1231   4.148   2.706   1.051
  430TIP3    H2 1232   4.187   2.562   1.023
  431TIP3   OH2 1233   2.932   2.272   1.219
  431TIP3    H1 1234   2.961   2.252   1.310
  431TIP3    H2 1235   3.006   2.231   1.168
  432TIP3   OH2 1236   3.128   2.148   1.077
  432TIP3    H1 1237   3.147   2.063   1.123
  432TIP3    H2 1238   3.218   2.187   1.069
  433TIP3   OH2 1239   3.391   2.242   1.079
  433TIP3    H1 1240   3.428   2.154   1.062
  433TIP3    H2 1241   3.436   2.265   1.162
  434TIP3   OH2 1242   3.963   0.893   1.154
  434TIP3    H1 1243   3.928   0.826   1.215
  434TIP3    H2 1244   4.046   0.852   1.122
  435TIP3   OH2 1245   4.492   0.758   1.063
  435TIP3    H1 1246   4.532   0.822   1.000
  435TIP3    H2 1247   4.404   0.797   1.075
  436TIP3   OH2 1248   4.587   0.899   0.853
  436TIP3    H1 1249   4.647   0.838   0.804
  436TIP3    H2 1250   4.621   0.987   0.826
  437TIP3   OH2 1251   4.201   0.785   1.047
  437TIP3    H1 1252   4.214   0.761   0.953
  437TIP3    H2 1253   4.188   0.699   1.091
  438TIP3   OH2 1254   4.235   0.749   0.717
  438TIP3    H1 1255   4.153   0.776   0.672
  438TIP3    H2 1256   4.253   0.664   0.676
  439TIP3   OH2 1257   3.494   2.248   0.185
  439TIP3    H1 1258   3.584   2.270   0.154
  439TIP3    H2 1259   3.484   2.163   0.137
  440TIP3   OH2 1260   4.216   2.354   0.284
  440TIP3    H1 1261   4.207   2.256   0.273
  440TIP3    H2 1262   4.166   2.386   0.206
  441TIP3   OH2 1263   3.425   0.892   2.078
  441TIP3    H1 1264   3.394   0.816   2.129
  441TIP3    H2 1265   3.521   0.890   2.101
  442TIP3   OH2 1266   3.676   0.886   2.194
  442TIP3    H1 1267   3.761   0.863   2.151
  442TIP3    H2 1268   3.667   0.813   2.258
  443TIP3   OH2 1269   4.501   0.946   1.980
  443TIP3    H1 1270   4.523   0.914   2.069
  443TIP3    H2 1271   4.588   0.942   1.934
  444TIP3   OH2 1272   4.442   2.499   1.471
  444TIP3    H1 1273   4.363   2.468   1.424
  444TIP3    H2 1274   4.423   2.595   1.475
  445TIP3   OH2 1275   5.700   1.869   0.256
  445TIP3    H1 1276   5.698   1.961   0.224
  445TIP3    H2 1277   5.638   1.828   0.194
  446TIP3   OH2 1278   5.697   1.875   0.617
  446TIP3    H1 1279   5.731   1.839   0.700
  446TIP3    H2 1280   5.666   1.798   0.568
  447TIP3   OH2 1281   5.948   2.173   0.300
  447TIP3    H1 1282   5.931   2.098   0.359
  447TIP3    H2 1283   5.945   2.248   0.360
  448TIP3   OH2 1284   4.980   2.180   0.712
  448TIP3    H1 1285   4.970   2.087   0.693
  448TIP3    H2 1286   5.076   2.192   0.701
  449TIP3   OH2 1287   4.684   1.388   0.495
  449TIP3    H1 1288   4.630   1.468   0.508
  449TIP3    H2 1289   4.613   1.324   0.478
  450TIP3   OH2 1290   4.753   1.673   0.664
  450TIP3    H1 1291   4.799   1.593   0.698
  450TIP3    H2 1292   4.795   1.685   0.578
  451TIP3   OH2 1293   5.597   2.636   0.321
  451TIP3    H1 1294   5.645   2.561   0.281
  451TIP3    H2 1295   5.612   2.619   0.415
  452TIP3   OH2 1296   5.497   2.088   0.675
  452TIP3    H1 1297   5.540   2.017   0.625
  452TIP3    H2 1298   5.579   2.137   0.700
  453TIP3   OH2 1299   5.887   1.621   0.723
  453TIP3    H1 1300   5.924   1.531   0.736
  453TIP3    H2 1301   5.873   1.616   0.626
  454TIP3   OH2 1302   5.233   1.255   0.671
  454TIP3    H1 1303   5.211   1.320   0.600
  454TIP3    H2 1304   5.226   1.171   0.625
  455TIP3   OH2 1305   4.890   1.462   0.770
  455TIP3    H1 1306   4.971   1.437   0.819
  455TIP3    H2 1307   4.898   1.401   0.694
  456TIP3   OH2 1308   5.320   1.651   0.571
  456TIP3    H1 1309   5.416   1.634   0.580
  456TIP3    H2 1310   5.288   1.566   0.533
  457TIP3   OH2 1311   6.556   1.590   0.849
  457TIP3    H1 1312   6.493   1.661   0.825
  457TIP3    H2 1313   6.628   1.641   0.890
  458TIP3   OH2 1314   5.250   1.249   1.103
  458TIP3    H1 1315   5.185   1.280   1.038
  458TIP3    H2 1316   5.199   1.258   1.186
  459TIP3   OH2 1317   5.626   2.106   0.098
  459TIP3    H1 1318   5.579   2.033   0.054
  459TIP3    H2 1319   5.554   2.169   0.119
  460TIP3   OH2 1320   5.325   1.992   0.912
  460TIP3    H1 1321   5.282   2.078   0.937
  460TIP3    H2 1322   5.374   2.022   0.833
  461TIP3   OH2 1323   5.117   1.358   0.890
  461TIP3    H1 1324   5.183   1.428   0.908
  461TIP3    H2 1325   5.160   1.314   0.813
  462TIP3   OH2 1326   5.179   2.209   0.993
  462TIP3    H1 1327   5.161   2.296   0.951
  462TIP3    H2 1328   5.100   2.203   1.051
  463TIP3   OH2 1329   4.582   1.897   0.234
  463TIP3    H1 1330   4.541   1.917   0.147
  463TIP3    H2 1331   4.609   1.986   0.266
  464TIP3   OH2 1332   5.717   2.459   0.134
  464TIP3    H1 1333   5.769   2.376   0.122
  464TIP3    H2 1334   5.785   2.525   0.109
  465TIP3   OH2 1335   5.868   2.237   0.046
  465TIP3    H1 1336   5.790   2.177   0.046
  465TIP3    H2 1337   5.912   2.208   0.129
  466TIP3   OH2 1338   6.247   2.327   0.814
  466TIP3    H1 1339   6.234   2.250   0.755
  466TIP3    H2 1340   6.225   2.402   0.754
  467TIP3   OH2 1341   6.438   1.961   0.658
  467TIP3    H1 1342   6.356   2.015   0.660
  467TIP3    H2 1343   6.471   1.981   0.568
  468TIP3   OH2 1344   6.115   1.848   0.954
  468TIP3    H1 1345   6.114   1.931   1.005
  468TIP3    H2 1346   6.028   1.855   0.910
  469TIP3   OH2 1347   5.120   1.805   0.450
  469TIP3    H1 1348   5.081   1.739   0.390
  469TIP3    H2 1349   5.190   1.754   0.496
  470TIP3   OH2 1350   5.240   2.201   0.613
  470TIP3    H1 1351   5.232   2.167   0.522
  470TIP3    H2 1352   5.333   2.176   0.634
  471TIP3   OH2 1353   5.388   2.327   1.143
  471TIP3    H1 1354   5.330   2.392   1.187
  471TIP3    H2 1355   5.323   2.279   1.088
  472TIP3   OH2 1356   5.113   1.905   1.205
  472TIP3    H1 1357   5.127   1.989   1.260
  472TIP3    H2 1358   5.030   1.874   1.250
  473TIP3   OH2 1359   5.461   2.342   0.150
  473TIP3    H1 1360   5.545   2.389   0.161
  473TIP3    H2 1361   5.406   2.408   0.106
  474TIP3   OH2 1362   5.185   2.498   1.223
  474TIP3    H1 1363   5.149   2.502   1.132
  474TIP3    H2 1364   5.106   2.477   1.276
  475TIP3   OH2 1365   4.978   1.637   0.263
  475TIP3    H1 1366   4.915   1.690   0.209
  475TIP3    H2 1367   4.925   1.558   0.279
  476TIP3   OH2 1368   4.764   2.024   1.170
  476TIP3    H1 1369   4.691   2.008   1.106
  476TIP3    H2 1370   4.789   1.934   1.198
  477TIP3   OH2 1371   4.621   2.221   0.808
  477TIP3    H1 1372   4.717   2.233   0.800
  477TIP3    H2 1373   4.596   2.302   0.855
  478TIP3   OH2 1374   6.483   2.673   0.858
  478TIP3    H1 1375   6.480   2.577   0.872
  478TIP3    H2 1376   6.400   2.700   0.904
  479TIP3   OH2 1377   5.579   2.462   0.990
  479TIP3    H1 1378   5.585   2.553   1.025
  479TIP3    H2 1379   5.516   2.421   1.052
  480TIP3   OH2 1380   5.350   2.601  -0.055
  480TIP3    H1 1381   5.276   2.570  -0.108
  480TIP3    H2 1382   5.318   2.687  -0.022
  481TIP3   OH2 1383   4.788   2.439   0.328
  481TIP3    H1 1384   4.835   2.430   0.413
  481TIP3    H2 1385   4.725   2.365   0.335
  482TIP3   OH2 1386   5.598   2.518  -0.144
  482TIP3    H1 1387   5.509   2.540  -0.109
  482TIP3    H2 1388   5.642   2.487  -0.064
  483TIP3   OH2 1389   6.374   1.803   1.136
  483TIP3    H1 1390   6.297   1.818   1.080
  483TIP3    H2 1391   6.387   1.707   1.128
  484TIP3   OH2 1392   4.968   2.209   1.161
  484TIP3    H1 1393   5.015   2.200   1.246
  484TIP3    H2 1394   4.893   2.147   1.171
  485TIP3   OH2 1395   5.352   1.036   0.953
  485TIP3    H1 1396   5.260   1.012   0.930
  485TIP3    H2 1397   5.338   1.123   0.993
  486TIP3   OH2 1398   5.904   1.155   1.142
  486TIP3    H1 1399   5.971   1.123   1.206
  486TIP3    H2 1400   5.819   1.131   1.185
  487TIP3   OH2 1401   6.139   1.581   1.053
  487TIP3    H1 1402   6.093   1.579   1.140
  487TIP3    H2 1403   6.119   1.670   1.020
  488TIP3   OH2 1404   5.303   1.554   0.950
  488TIP3    H1 1405   5.274   1.576   1.041
  488TIP3    H2 1406   5.343   1.635   0.916
  489TIP3   OH2 1407   5.191   1.427   0.466
  489TIP3    H1 1408   5.096   1.407   0.466
  489TIP3    H2 1409   5.219   1.405   0.375
  490TIP3   OH2 1410   5.848   1.802   1.289
  490TIP3    H1 1411   5.830   1.729   1.352
  490TIP3    H2 1412   5.942   1.820   1.308
  491TIP3   OH2 1413   5.818   1.548   0.470
  491TIP3    H1 1414   5.763   1.582   0.397
  491TIP3    H2 1415   5.846   1.464   0.430
  492TIP3   OH2 1416   5.119   1.601   1.160
  492TIP3    H1 1417   5.136   1.638   1.248
  492TIP3    H2 1418   5.090   1.512   1.185
  493TIP3   OH2 1419   4.704   1.122   0.751
  493TIP3    H1 1420   4.788   1.137   0.800
  493TIP3    H2 1421   4.731   1.076   0.670
  494TIP3   OH2 1422   4.670   1.112   0.270
  494TIP3    H1 1423   4.755   1.159   0.258
  494TIP3    H2 1424   4.607   1.184   0.290
  495TIP3   OH2 1425   5.833   1.816   0.889
  495TIP3    H1 1426   5.865   1.752   0.822
  495TIP3    H2 1427   5.811   1.754   0.961
  496TIP3   OH2 1428   5.495   1.304   0.574
  496TIP3    H1 1429   5.404   1.302   0.609
  496TIP3    H2 1430   5.518   1.397   0.584
  497TIP3   OH2 1431   4.937   1.309   0.538
  497TIP3    H1 1432   4.844   1.336   0.521
  497TIP3    H2 1433   4.936   1.219   0.504
  498TIP3   OH2 1434   5.950   1.360   0.722
  498TIP3    H1 1435   5.938   1.370   0.820
  498TIP3    H2 1436   6.019   1.294   0.720
  499TIP3   OH2 1437   6.173   3.023   0.957
  499TIP3    H1 1438   6.170   3.047   0.863
  499TIP3    H2 1439   6.250   3.075   0.988
  500TIP3   OH2 1440   5.135   2.125   1.376
  500TIP3    H1 1441   5.213   2.160   1.424
  500TIP3    H2 1442   5.069   2.127   1.448
  501TIP3   OH2 1443   5.590   1.561   0.634
  501TIP3    H1 1444   5.668   1.556   0.576
  501TIP3    H2 1445   5.629   1.546   0.721
  502TIP3   OH2 1446   5.581   1.473   0.933
  502TIP3    H1 1447   5.493   1.512   0.935
  502TIP3    H2 1448   5.638   1.538   0.979
  503TIP3   OH2 1449   5.284   1.924   0.006
  503TIP3    H1 1450   5.233   1.840   0.015
  503TIP3    H2 1451   5.292   1.946   0.102
  504TIP3   OH2 1452   6.210   2.109   0.649
  504TIP3    H1 1453   6.232   2.160   0.568
  504TIP3    H2 1454   6.121   2.073   0.628
  505TIP3   OH2 1455   5.687   2.186   1.030
  505TIP3    H1 1456   5.740   2.184   1.110
  505TIP3    H2 1457   5.676   2.281   1.015
  506TIP3   OH2 1458   5.446   2.049  -0.190
  506TIP3    H1 1459   5.410   2.137  -0.168
  506TIP3    H2 1460   5.391   1.994  -0.131
  507TIP3   OH2 1461   4.881   1.810   1.310
  507TIP3    H1 1462   4.897   1.798   1.406
  507TIP3    H2 1463   4.810   1.745   1.295
  508TIP3   OH2 1464   5.607   1.926   1.326
  508TIP3    H1 1465   5.569   1.874   1.255
  508TIP3    H2 1466   5.702   1.905   1.311
  509TIP3   OH2 1467   5.872   2.423   0.937
  509TIP3    H1 1468   5.788   2.451   0.897
  509TIP3    H2 1469   5.889   2.495   1.001
  510TIP3   OH2 1470   6.497   2.381   0.902
  510TIP3    H1 1471   6.399   2.377   0.894
  510TIP3    H2 1472   6.522   2.352   0.811
  511TIP3   OH2 1473   5.965   1.994   0.578
  511TIP3    H1 1474   5.869   1.979   0.588
  511TIP3    H2 1475   5.993   1.903   0.552
  512TIP3   OH2 1476   5.098   2.200   0.321
  512TIP3    H1 1477   5.104   2.281   0.267
  512TIP3    H2 1478   5.002   2.186   0.323
  513TIP3   OH2 1479   4.659   1.528   0.015
  513TIP3    H1 1480   4.704   1.607   0.050
  513TIP3    H2 1481   4.590   1.513   0.081
  514TIP3   OH2 1482   5.250   1.974   0.271
  514TIP3    H1 1483   5.205   2.059   0.289
  514TIP3    H2 1484   5.211   1.916   0.340
  515TIP3   OH2 1485   5.370   2.542   0.788
  515TIP3    H1 1486   5.411   2.614   0.735
  515TIP3    H2 1487   5.448   2.509   0.836
  516TIP3   OH2 1488   5.019   2.440   0.169
  516TIP3    H1 1489   4.934   2.446   0.217
  516TIP3    H2 1490   5.050   2.533   0.175
  517TIP3   OH2 1491   5.749   2.160   0.747
  517TIP3    H1 1492   5.750   2.170   0.844
  517TIP3    H2 1493   5.843   2.148   0.727
  518TIP3   OH2 1494   5.998   2.725   0.808
  518TIP3    H1 1495   5.945   2.657   0.761
  518TIP3    H2 1496   5.999   2.793   0.738
  519TIP3   OH2 1497   5.086   1.324   1.315
  519TIP3    H1 1498   4.990   1.333   1.335
  519TIP3    H2 1499   5.113   1.264   1.386
  520TIP3   OH2 1500   4.811   2.407   0.948
  520TIP3    H1 1501   4.865   2.336   0.986
  520TIP3    H2 1502   4.833   2.481   1.005
  521TIP3   OH2 1503   5.103   2.116  -0.363
  521TIP3    H1 1504   5.141   2.032  -0.393
  521TIP3    H2 1505   5.072   2.090  -0.274
  522TIP3   OH2 1506   5.050   2.054  -0.096
  522TIP3    H1 1507   5.130   2.021  -0.050
  522TIP3    H2 1508   5.056   2.151  -0.081
  523TIP3   OH2 1509   4.787   1.762   0.108
  523TIP3    H1 1510   4.718   1.804   0.165
  523TIP3    H2 1511   4.798   1.832   0.041
  524TIP3   OH2 1512   5.941   1.381   0.991
  524TIP3    H1 1513   6.013   1.428   1.036
  524TIP3    H2 1514   5.922   1.307   1.052
  525TIP3   OH2 1515   5.312   2.281  -0.156
  525TIP3    H1 1516   5.224   2.289  -0.112
  525TIP3    H2 1517   5.290   2.314  -0.243
  526TIP3   OH2 1518   5.764   1.635   1.081
  526TIP3    H1 1519   5.788   1.693   1.156
  526TIP3    H2 1520   5.825   1.561   1.094
  527TIP3   OH2 1521   5.054   2.327  -0.080
  527TIP3    H1 1522   5.025   2.395  -0.145
  527TIP3    H2 1523   5.034   2.370   0.006
  528TIP3   OH2 1524   6.407   1.530   1.072
  528TIP3    H1 1525   6.310   1.524   1.061
  528TIP3    H2 1526   6.438   1.535   0.979
  529TIP3   OH2 1527   6.036   1.742   0.502
  529TIP3    H1 1528   5.979   1.668   0.476
  529TIP3    H2 1529   6.118   1.696   0.530
  530TIP3   OH2 1530   4.769   1.975  -0.081
  530TIP3    H1 1531   4.842   2.039  -0.071
  530TIP3    H2 1532   4.810   1.918  -0.150
  531TIP3   OH2 1533   5.091   0.942   0.917
  531TIP3    H1 1534   5.010   0.915   0.872
  531TIP3    H2 1535   5.096   0.875   0.989
  532TIP3   OH2 1536   4.643   2.172   0.301
  532TIP3    H1 1537   4.569   2.206   0.353
  532TIP3    H2 1538   4.623   2.212   0.213
  533TIP3   OH2 1539   4.798   2.714   1.371
  533TIP3    H1 1540   4.884   2.715   1.418
  533TIP3    H2 1541   4.778   2.619   1.370
  534TIP3   OH2 1542   5.281   2.681   1.417
  534TIP3    H1 1543   5.377   2.667   1.423
  534TIP3    H2 1544   5.259   2.624   1.340
  535TIP3   OH2 1545   5.915   2.593   1.154
  535TIP3    H1 1546   5.910   2.520   1.220
  535TIP3    H2 1547   5.995   2.642   1.181
  536TIP3   OH2 1548   4.932   2.123   1.567
  536TIP3    H1 1549   4.946   2.027   1.579
  536TIP3    H2 1550   4.843   2.125   1.527
  537TIP3   OH2 1551   4.900   1.792  -0.230
  537TIP3    H1 1552   4.903   1.714  -0.174
  537TIP3    H2 1553   4.882   1.757  -0.318
  538TIP3   OH2 1554   5.538   2.206   1.346
  538TIP3    H1 1555   5.503   2.228   1.257
  538TIP3    H2 1556   5.572   2.115   1.334
  539TIP3   OH2 1557   6.033   2.208   0.948
  539TIP3    H1 1558   6.108   2.253   0.906
  539TIP3    H2 1559   5.966   2.280   0.944
  540TIP3   OH2 1560   5.056   1.853   1.546
  540TIP3    H1 1561   5.120   1.781   1.545
  540TIP3    H2 1562   5.074   1.891   1.635
  541TIP3   OH2 1563   5.146   1.695   0.051
  541TIP3    H1 1564   5.098   1.681   0.135
  541TIP3    H2 1565   5.172   1.604   0.029
  542TIP3   OH2 1566   5.355   1.749   1.168
  542TIP3    H1 1567   5.352   1.805   1.248
  542TIP3    H2 1568   5.442   1.773   1.128
  543TIP3   OH2 1569   5.897   2.138   1.348
  543TIP3    H1 1570   5.979   2.124   1.300
  543TIP3    H2 1571   5.903   2.075   1.421
  544TIP3   OH2 1572   5.504   1.531   1.338
  544TIP3    H1 1573   5.510   1.443   1.295
  544TIP3    H2 1574   5.459   1.582   1.270
  545TIP3   OH2 1575   5.509   1.316   1.154
  545TIP3    H1 1576   5.540   1.349   1.067
  545TIP3    H2 1577   5.416   1.290   1.133
  546TIP3   OH2 1578   5.542   1.849   1.017
  546TIP3    H1 1579   5.630   1.858   0.977
  546TIP3    H2 1580   5.493   1.921   0.973
  547TIP3   OH2 1581   6.119   1.817   1.401
  547TIP3    H1 1582   6.171   1.736   1.412
  547TIP3    H2 1583   6.186   1.879   1.368
  548TIP3   OH2 1584   6.161   2.070   1.138
  548TIP3    H1 1585   6.102   2.122   1.078
  548TIP3    H2 1586   6.248   2.092   1.098
  549TIP3   OH2 1587   5.376   1.647   1.559
  549TIP3    H1 1588   5.313   1.576   1.584
  549TIP3    H2 1589   5.420   1.607   1.483
  550TIP3   OH2 1590   5.642   1.076   1.212
  550TIP3    H1 1591   5.592   1.158   1.193
  550TIP3    H2 1592   5.571   1.009   1.201
  551TIP3   OH2 1593   5.768   1.585   1.432
  551TIP3    H1 1594   5.762   1.573   1.528
  551TIP3    H2 1595   5.678   1.558   1.405
  552TIP3   OH2 1596   6.005   1.531   1.284
  552TIP3    H1 1597   5.932   1.533   1.349
  552TIP3    H2 1598   6.080   1.501   1.339
  553TIP3   OH2 1599   6.233   1.472   1.435
  553TIP3    H1 1600   6.246   1.377   1.454
  553TIP3    H2 1601   6.232   1.512   1.524
  554TIP3   OH2 1602   5.231   1.421   1.619
  554TIP3    H1 1603   5.230   1.329   1.588
  554TIP3    H2 1604   5.261   1.409   1.712
  555TIP3   OH2 1605   5.732   1.092   1.472
  555TIP3    H1 1606   5.803   1.025   1.469
  555TIP3    H2 1607   5.694   1.081   1.382
  556TIP3   OH2 1608   5.803   1.304   1.631
  556TIP3    H1 1609   5.780   1.233   1.567
  556TIP3    H2 1610   5.724   1.362   1.625
  557TIP3   OH2 1611   5.039   2.525  -0.282
  557TIP3    H1 1612   5.112   2.557  -0.337
  557TIP3    H2 1613   4.964   2.573  -0.318
  558TIP3   OH2 1614   4.505   1.907  -0.037
  558TIP3    H1 1615   4.593   1.944  -0.059
  558TIP3    H2 1616   4.499   1.835  -0.102
  559TIP3   OH2 1617   4.420   2.527   0.356
  559TIP3    H1 1618   4.350   2.467   0.322
  559TIP3    H2 1619   4.461   2.470   0.425
  560TIP3   OH2 1620   4.555   2.381   0.545
  560TIP3    H1 1621   4.537   2.308   0.606
  560TIP3    H2 1622   4.605   2.441   0.603
  561TIP3   OH2 1623   6.279   2.776   0.352
  561TIP3    H1 1624   6.298   2.816   0.438
  561TIP3    H2 1625   6.338   2.824   0.293
  562TIP3   OH2 1626   6.315   2.802   0.633
  562TIP3    H1 1627   6.268   2.718   0.614
  562TIP3    H2 1628   6.386   2.770   0.690
  563TIP3   OH2 1629   6.357   2.474   1.202
  563TIP3    H1 1630   6.282   2.484   1.265
  563TIP3    H2 1631   6.397   2.563   1.205
  564TIP3   OH2 1632   6.344   2.244   0.454
  564TIP3    H1 1633   6.406   2.186   0.407
  564TIP3    H2 1634   6.351   2.327   0.402
  565TIP3   OH2 1635   6.185   2.547   0.655
  565TIP3    H1 1636   6.124   2.596   0.712
  565TIP3    H2 1637   6.123   2.532   0.580
  566TIP3   OH2 1638   4.741   1.778   0.915
  566TIP3    H1 1639   4.727   1.741   0.825
  566TIP3    H2 1640   4.831   1.811   0.905
  567TIP3   OH2 1641   6.403   2.136   1.028
  567TIP3    H1 1642   6.477   2.072   1.020
  567TIP3    H2 1643   6.428   2.206   0.966
  568TIP3   OH2 1644   6.590   1.944   1.052
  568TIP3    H1 1645   6.514   1.893   1.090
  568TIP3    H2 1646   6.661   1.877   1.064
  569TIP3   OH2 1647   6.289   1.651   0.579
  569TIP3    H1 1648   6.382   1.641   0.552
  569TIP3    H2 1649   6.298   1.687   0.669
  570TIP3   OH2 1650   6.344   1.762   0.819
  570TIP3    H1 1651   6.260   1.795   0.858
  570TIP3    H2 1652   6.376   1.842   0.771
  571TIP3   OH2 1653   4.963   1.486   1.615
  571TIP3    H1 1654   5.057   1.458   1.607
  571TIP3    H2 1655   4.917   1.400   1.621
  572TIP3   OH2 1656   6.800   1.333   1.353
  572TIP3    H1 1657   6.840   1.262   1.302
  572TIP3    H2 1658   6.763   1.390   1.282
  573TIP3   OH2 1659   4.921   1.163   0.916
  573TIP3    H1 1660   4.982   1.095   0.947
  573TIP3    H2 1661   4.979   1.241   0.916
  574TIP3   OH2 1662   4.723   1.434   0.996
  574TIP3    H1 1663   4.772   1.431   0.912
  574TIP3    H2 1664   4.749   1.520   1.032
  575TIP3   OH2 1665   6.665   1.476   1.164
  575TIP3    H1 1666   6.575   1.511   1.182
  575TIP3    H2 1667   6.650   1.434   1.079
  576TIP3   OH2 1668   4.691   0.979   0.509
  576TIP3    H1 1669   4.603   0.952   0.544
  576TIP3    H2 1670   4.666   1.027   0.428
  577TIP3   OH2 1671   5.874   2.654   0.023
  577TIP3    H1 1672   5.880   2.630  -0.071
  577TIP3    H2 1673   5.962   2.691   0.035
  578TIP3   OH2 1674   4.913   1.012   1.319
  578TIP3    H1 1675   4.877   1.028   1.408
  578TIP3    H2 1676   4.847   1.058   1.264
  579TIP3   OH2 1677   4.966   2.441   1.389
  579TIP3    H1 1678   4.872   2.419   1.376
  579TIP3    H2 1679   4.975   2.433   1.484
  580TIP3   OH2 1680   5.145   2.478   0.935
  580TIP3    H1 1681   5.096   2.554   0.896
  580TIP3    H2 1682   5.231   2.495   0.893
  581TIP3   OH2 1683   5.590   2.727   1.077
  581TIP3    H1 1684   5.633   2.730   1.165
  581TIP3    H2 1685   5.656   2.776   1.022
  582TIP3   OH2 1686   5.770   2.872   0.929
  582TIP3    H1 1687   5.843   2.823   0.889
  582TIP3    H2 1688   5.819   2.930   0.991
  583TIP3   OH2 1689   4.818   2.735   0.963
  583TIP3    H1 1690   4.730   2.770   0.939
  583TIP3    H2 1691   4.830   2.777   1.049
  584TIP3   OH2 1692   5.055   2.714   0.818
  584TIP3    H1 1693   4.968   2.728   0.863
  584TIP3    H2 1694   5.037   2.749   0.729
  585TIP3   OH2 1695   5.462   2.740   0.621
  585TIP3    H1 1696   5.407   2.784   0.555
  585TIP3    H2 1697   5.510   2.815   0.660
  586TIP3   OH2 1698   5.991   2.898   0.587
  586TIP3    H1 1699   5.951   2.957   0.520
  586TIP3    H2 1700   5.963   2.809   0.553
  587TIP3   OH2 1701   4.732   2.533   0.705
  587TIP3    H1 1702   4.757   2.510   0.797
  587TIP3    H2 1703   4.805   2.489   0.656
  588TIP3   OH2 1704   4.925   2.405   0.561
  588TIP3    H1 1705   4.945   2.323   0.613
  588TIP3    H2 1706   5.015   2.445   0.555
  589TIP3   OH2 1707   5.188   2.499   0.566
  589TIP3    H1 1708   5.227   2.412   0.551
  589TIP3    H2 1709   5.235   2.525   0.647
  590TIP3   OH2 1710   4.520   2.301   0.098
  590TIP3    H1 1711   4.435   2.265   0.066
  590TIP3    H2 1712   4.505   2.396   0.083
  591TIP3   OH2 1713   5.226   1.150   1.563
  591TIP3    H1 1714   5.185   1.079   1.613
  591TIP3    H2 1715   5.319   1.145   1.594
  592TIP3   OH2 1716   5.475   1.143   1.681
  592TIP3    H1 1717   5.558   1.114   1.639
  592TIP3    H2 1718   5.461   1.071   1.747
  593TIP3   OH2 1719   4.641   2.363  -0.242
  593TIP3    H1 1720   4.578   2.380  -0.172
  593TIP3    H2 1721   4.665   2.272  -0.228
  594TIP3   OH2 1722   6.290   1.199   1.469
  594TIP3    H1 1723   6.314   1.169   1.559
  594TIP3    H2 1724   6.378   1.201   1.425
  595TIP3   OH2 1725   6.236   2.755   0.959
  595TIP3    H1 1726   6.153   2.726   0.916
  595TIP3    H2 1727   6.219   2.852   0.962
  596TIP3   OH2 1728   6.809   2.019   0.459
  596TIP3    H1 1729   6.812   1.976   0.547
  596TIP3    H2 1730   6.879   2.085   0.468
  597TIP3   OH2 1731   6.778   2.427   0.191
  597TIP3    H1 1732   6.749   2.340   0.220
  597TIP3    H2 1733   6.866   2.434   0.229
  598TIP3   OH2 1734   7.077   2.253   0.366
  598TIP3    H1 1735   7.054   2.335   0.414
  598TIP3    H2 1736   7.174   2.249   0.374
  599TIP3   OH2 1737   6.973   2.480   0.485
  599TIP3    H1 1738   6.951   2.571   0.454
  599TIP3    H2 1739   6.895   2.465   0.544
  600TIP3   OH2 1740   7.187   2.585   0.628
  600TIP3    H1 1741   7.128   2.650   0.672
  600TIP3    H2 1742   7.121   2.536   0.576
  601TIP3   OH2 1743   6.938   2.147   0.721
  601TIP3    H1 1744   6.942   2.234   0.767
  601TIP3    H2 1745   6.845   2.122   0.740
  602TIP3   OH2 1746   6.983   2.754   0.710
  602TIP3    H1 1747   6.945   2.761   0.620
  602TIP3    H2 1748   6.903   2.734   0.764
  603TIP3   OH2 1749   6.559   2.288   0.655
  603TIP3    H1 1750   6.491   2.261   0.591
  603TIP3    H2 1751   6.592   2.202   0.689
  604TIP3   OH2 1752   6.420   2.468   0.308
  604TIP3    H1 1753   6.510   2.499   0.287
  604TIP3    H2 1754   6.378   2.551   0.335
  605TIP3   OH2 1755   7.381   2.711   0.479
  605TIP3    H1 1756   7.380   2.803   0.514
  605TIP3    H2 1757   7.310   2.670   0.535
  606TIP3   OH2 1758   6.760   2.470   0.651
  606TIP3    H1 1759   6.810   2.453   0.734
  606TIP3    H2 1760   6.687   2.406   0.658
  607TIP3   OH2 1761   6.836   1.867   0.682
  607TIP3    H1 1762   6.917   1.902   0.723
  607TIP3    H2 1763   6.858   1.773   0.682
  608TIP3   OH2 1764   6.928   2.390   0.867
  608TIP3    H1 1765   7.007   2.421   0.915
  608TIP3    H2 1766   6.862   2.389   0.939
  609TIP3   OH2 1767   7.492   2.446   0.502
  609TIP3    H1 1768   7.508   2.427   0.594
  609TIP3    H2 1769   7.463   2.539   0.503
  610TIP3   OH2 1770   6.669   2.085   0.800
  610TIP3    H1 1771   6.696   2.067   0.892
  610TIP3    H2 1772   6.619   2.005   0.779
  611TIP3   OH2 1773   7.406   2.183   0.818
  611TIP3    H1 1774   7.330   2.133   0.779
  611TIP3    H2 1775   7.481   2.140   0.773
  612TIP3   OH2 1776   7.653   2.724   0.408
  612TIP3    H1 1777   7.558   2.701   0.409
  612TIP3    H2 1778   7.661   2.777   0.487
  613TIP3   OH2 1779   7.164   2.794   0.283
  613TIP3    H1 1780   7.198   2.875   0.242
  613TIP3    H2 1781   7.241   2.762   0.332
  614TIP3   OH2 1782   6.614   2.663   0.437
  614TIP3    H1 1783   6.656   2.588   0.482
  614TIP3    H2 1784   6.633   2.735   0.498
  615TIP3   OH2 1785   6.594   2.970   0.858
  615TIP3    H1 1786   6.680   2.969   0.904
  615TIP3    H2 1787   6.572   2.876   0.855
  616TIP3   OH2 1788   7.077   2.936   0.905
  616TIP3    H1 1789   7.173   2.921   0.909
  616TIP3    H2 1790   7.053   2.880   0.828
  617TIP3   OH2 1791   6.727   2.378   1.057
  617TIP3    H1 1792   6.742   2.282   1.061
  617TIP3    H2 1793   6.639   2.381   1.013
  618TIP3   OH2 1794   7.343   2.463   0.827
  618TIP3    H1 1795   7.292   2.481   0.745
  618TIP3    H2 1796   7.361   2.366   0.821
  619TIP3   OH2 1797   6.844   2.114   1.037
  619TIP3    H1 1798   6.910   2.046   1.022
  619TIP3    H2 1799   6.869   2.148   1.125
  620TIP3   OH2 1800   7.199   2.051   0.698
  620TIP3    H1 1801   7.107   2.083   0.711
  620TIP3    H2 1802   7.200   2.038   0.603
  621TIP3   OH2 1803   7.177   1.903   1.050
  621TIP3    H1 1804   7.112   1.832   1.069
  621TIP3    H2 1805   7.182   1.900   0.954
  622TIP3   OH2 1806   7.557   1.857   0.920
  622TIP3    H1 1807   7.584   1.891   1.006
  622TIP3    H2 1808   7.480   1.804   0.944
  623TIP3   OH2 1809   7.022   1.677   1.099
  623TIP3    H1 1810   7.047   1.601   1.044
  623TIP3    H2 1811   7.059   1.654   1.187
  624TIP3   OH2 1812   6.320   2.693   0.050
  624TIP3    H1 1813   6.328   2.597   0.050
  624TIP3    H2 1814   6.387   2.718   0.116
  625TIP3   OH2 1815   6.543   2.052   0.404
  625TIP3    H1 1816   6.537   1.997   0.326
  625TIP3    H2 1817   6.640   2.047   0.424
  626TIP3   OH2 1818   6.753   1.729   1.080
  626TIP3    H1 1819   6.851   1.718   1.079
  626TIP3    H2 1820   6.727   1.648   1.127
  627TIP3   OH2 1821   6.763   2.703   0.878
  627TIP3    H1 1822   6.670   2.677   0.860
  627TIP3    H2 1823   6.769   2.689   0.973
  628TIP3   OH2 1824   6.935   2.744   0.425
  628TIP3    H1 1825   6.884   2.814   0.380
  628TIP3    H2 1826   7.020   2.757   0.379
  629TIP3   OH2 1827   7.382   2.969   0.571
  629TIP3    H1 1828   7.427   2.978   0.658
  629TIP3    H2 1829   7.428   3.039   0.519
  630TIP3   OH2 1830   7.523   3.148   0.425
  630TIP3    H1 1831   7.570   3.096   0.359
  630TIP3    H2 1832   7.596   3.192   0.472
  631TIP3   OH2 1833   6.618   2.991   0.453
  631TIP3    H1 1834   6.533   3.028   0.421
  631TIP3    H2 1835   6.621   3.031   0.541
  632TIP3   OH2 1836   6.844   2.976   0.299
  632TIP3    H1 1837   6.763   2.988   0.353
  632TIP3    H2 1838   6.816   3.011   0.213
  633TIP3   OH2 1839   6.533   2.790   0.205
  633TIP3    H1 1840   6.565   2.761   0.293
  633TIP3    H2 1841   6.599   2.745   0.148
  634TIP3   OH2 1842   6.710   2.656   0.055
  634TIP3    H1 1843   6.727   2.567   0.091
  634TIP3    H2 1844   6.802   2.687   0.044
  635TIP3   OH2 1845   6.976   2.729   0.064
  635TIP3    H1 1846   7.049   2.696   0.006
  635TIP3    H2 1847   7.028   2.754   0.142
  636TIP3   OH2 1848   0.865   2.655   2.046
  636TIP3    H1 1849   0.791   2.687   1.994
  636TIP3    H2 1850   0.866   2.716   2.122
  637TIP3   OH2 1851   0.495   3.364   1.964
  637TIP3    H1 1852   0.552   3.328   1.895
  637TIP3    H2 1853   0.472   3.451   1.924
  638TIP3   OH2 1854   0.733   3.022   1.835
  638TIP3    H1 1855   0.637   3.034   1.828
  638TIP3    H2 1856   0.758   3.030   1.741
  639TIP3   OH2 1857   0.732   3.716   2.035
  639TIP3    H1 1858   0.731   3.621   2.055
  639TIP3    H2 1859   0.650   3.745   2.080
  640TIP3   OH2 1860  -0.115   3.495   2.223
  640TIP3    H1 1861  -0.137   3.590   2.226
  640TIP3    H2 1862  -0.202   3.454   2.218
  641TIP3   OH2 1863   0.623   2.841   2.292
  641TIP3    H1 1864   0.536   2.879   2.273
  641TIP3    H2 1865   0.601   2.753   2.327
  642TIP3   OH2 1866   0.103   2.868   2.475
  642TIP3    H1 1867   0.089   2.773   2.492
  642TIP3    H2 1868   0.196   2.878   2.502
  643TIP3   OH2 1869   0.421   4.067   2.134
  643TIP3    H1 1870   0.419   4.093   2.039
  643TIP3    H2 1871   0.498   4.118   2.166
  644TIP3   OH2 1872   0.116   3.496   2.086
  644TIP3    H1 1873   0.026   3.486   2.126
  644TIP3    H2 1874   0.155   3.550   2.159
  645TIP3   OH2 1875   0.740   3.427   2.087
  645TIP3    H1 1876   0.643   3.423   2.076
  645TIP3    H2 1877   0.770   3.398   1.998
  646TIP3   OH2 1878   0.256   3.753   1.974
  646TIP3    H1 1879   0.179   3.694   1.966
  646TIP3    H2 1880   0.238   3.821   1.905
  647TIP3   OH2 1881   0.276   3.750   1.581
  647TIP3    H1 1882   0.237   3.726   1.496
  647TIP3    H2 1883   0.369   3.769   1.554
  648TIP3   OH2 1884  -0.463   3.727   2.597
  648TIP3    H1 1885  -0.372   3.701   2.615
  648TIP3    H2 1886  -0.476   3.696   2.508
  649TIP3   OH2 1887   0.181   3.625   2.316
  649TIP3    H1 1888   0.160   3.560   2.388
  649TIP3    H2 1889   0.250   3.680   2.358
  650TIP3   OH2 1890  -0.205   3.212   2.487
  650TIP3    H1 1891  -0.237   3.216   2.394
  650TIP3    H2 1892  -0.112   3.192   2.476
  651TIP3   OH2 1893   0.284   3.281   2.147
  651TIP3    H1 1894   0.361   3.320   2.103
  651TIP3    H2 1895   0.216   3.350   2.129
  652TIP3   OH2 1896   0.143   3.191   2.531
  652TIP3    H1 1897   0.219   3.168   2.476
  652TIP3    H2 1898   0.140   3.116   2.593
  653TIP3   OH2 1899   0.368   2.859   2.569
  653TIP3    H1 1900   0.418   2.784   2.603
  653TIP3    H2 1901   0.436   2.926   2.555
  654TIP3   OH2 1902   0.420   3.117   2.327
  654TIP3    H1 1903   0.352   3.158   2.270
  654TIP3    H2 1904   0.500   3.136   2.274
  655TIP3   OH2 1905   0.543   2.509   2.659
  655TIP3    H1 1906   0.466   2.490   2.604
  655TIP3    H2 1907   0.507   2.571   2.727
  656TIP3   OH2 1908   0.529   3.825   1.524
  656TIP3    H1 1909   0.555   3.865   1.609
  656TIP3    H2 1910   0.589   3.870   1.462
  657TIP3   OH2 1911   0.556   3.844   1.806
  657TIP3    H1 1912   0.521   3.753   1.800
  657TIP3    H2 1913   0.636   3.829   1.859
  658TIP3   OH2 1914   0.604   3.519   2.376
  658TIP3    H1 1915   0.531   3.527   2.441
  658TIP3    H2 1916   0.645   3.607   2.382
  659TIP3   OH2 1917   0.629   3.312   1.656
  659TIP3    H1 1918   0.648   3.231   1.605
  659TIP3    H2 1919   0.627   3.380   1.586
  660TIP3   OH2 1920   0.426   3.594   1.831
  660TIP3    H1 1921   0.368   3.648   1.888
  660TIP3    H2 1922   0.373   3.584   1.751
  661TIP3   OH2 1923   0.653   3.182   2.198
  661TIP3    H1 1924   0.725   3.116   2.193
  661TIP3    H2 1925   0.691   3.257   2.148
  662TIP3   OH2 1926   0.839   2.993   2.228
  662TIP3    H1 1927   0.765   2.935   2.258
  662TIP3    H2 1928   0.915   2.932   2.242
  663TIP3   OH2 1929   1.048   2.390   2.530
  663TIP3    H1 1930   1.100   2.318   2.490
  663TIP3    H2 1931   1.018   2.440   2.451
  664TIP3   OH2 1932   0.916   2.534   2.338
  664TIP3    H1 1933   0.844   2.550   2.402
  664TIP3    H2 1934   0.874   2.473   2.275
  665TIP3   OH2 1935  -0.161   3.771   2.253
  665TIP3    H1 1936  -0.119   3.773   2.342
  665TIP3    H2 1937  -0.095   3.819   2.200
  666TIP3   OH2 1938   0.025   3.910   2.105
  666TIP3    H1 1939   0.108   3.866   2.080
  666TIP3    H2 1940   0.061   3.978   2.166
  667TIP3   OH2 1941  -0.018   3.748   1.817
  667TIP3    H1 1942  -0.079   3.759   1.891
  667TIP3    H2 1943   0.034   3.830   1.819
  668TIP3   OH2 1944   0.204   3.929   1.772
  668TIP3    H1 1945   0.191   4.012   1.720
  668TIP3    H2 1946   0.229   3.866   1.700
  669TIP3   OH2 1947   0.580   2.238   2.684
  669TIP3    H1 1948   0.574   2.227   2.781
  669TIP3    H2 1949   0.589   2.336   2.677
  670TIP3   OH2 1950   0.487   3.800   2.135
  670TIP3    H1 1951   0.406   3.770   2.090
  670TIP3    H2 1952   0.470   3.896   2.139
  671TIP3   OH2 1953   1.738   3.164   0.916
  671TIP3    H1 1954   1.738   3.262   0.911
  671TIP3    H2 1955   1.653   3.150   0.872
  672TIP3   OH2 1956   1.740   3.172   1.284
  672TIP3    H1 1957   1.778   3.147   1.370
  672TIP3    H2 1958   1.722   3.087   1.242
  673TIP3   OH2 1959   1.062   3.068   1.637
  673TIP3    H1 1960   1.079   2.998   1.703
  673TIP3    H2 1961   1.119   3.139   1.672
  674TIP3   OH2 1962   1.980   3.466   0.967
  674TIP3    H1 1963   1.992   3.410   1.044
  674TIP3    H2 1964   2.033   3.544   0.991
  675TIP3   OH2 1965   1.018   3.476   1.372
  675TIP3    H1 1966   1.012   3.379   1.382
  675TIP3    H2 1967   1.114   3.488   1.363
  676TIP3   OH2 1968   1.638   3.935   0.982
  676TIP3    H1 1969   1.683   3.866   0.929
  676TIP3    H2 1970   1.645   3.898   1.071
  677TIP3   OH2 1971   1.550   3.393   1.335
  677TIP3    H1 1972   1.594   3.322   1.287
  677TIP3    H2 1973   1.630   3.445   1.359
  678TIP3   OH2 1974   2.560   2.716   1.329
  678TIP3    H1 1975   2.588   2.800   1.370
  678TIP3    H2 1976   2.584   2.732   1.236
  679TIP3   OH2 1977   1.959   2.898   1.374
  679TIP3    H1 1978   2.005   2.813   1.391
  679TIP3    H2 1979   1.931   2.886   1.282
  680TIP3   OH2 1980   2.013   2.691   0.975
  680TIP3    H1 1981   2.087   2.659   1.032
  680TIP3    H2 1982   2.066   2.720   0.897
  681TIP3   OH2 1983   1.383   2.858   1.198
  681TIP3    H1 1984   1.475   2.886   1.224
  681TIP3    H2 1985   1.333   2.901   1.269
  682TIP3   OH2 1986   2.633   2.920   1.506
  682TIP3    H1 1987   2.554   2.973   1.480
  682TIP3    H2 1988   2.657   2.963   1.590
  683TIP3   OH2 1989   1.295   2.557   1.766
  683TIP3    H1 1990   1.226   2.568   1.700
  683TIP3    H2 1991   1.244   2.570   1.848
  684TIP3   OH2 1992   1.621   3.379   0.781
  684TIP3    H1 1993   1.639   3.383   0.686
  684TIP3    H2 1994   1.604   3.472   0.801
  685TIP3   OH2 1995   1.393   3.312   1.561
  685TIP3    H1 1996   1.335   3.382   1.599
  685TIP3    H2 1997   1.441   3.361   1.492
  686TIP3   OH2 1998   2.223   2.645   1.139
  686TIP3    H1 1999   2.227   2.600   1.224
  686TIP3    H2 2000   2.276   2.725   1.155
  687TIP3   OH2 2001   1.227   3.510   1.655
  687TIP3    H1 2002   1.205   3.597   1.617
  687TIP3    H2 2003   1.148   3.497   1.713
  688TIP3   OH2 2004   2.065   3.706   1.155
  688TIP3    H1 2005   1.969   3.713   1.171
  688TIP3    H2 2006   2.079   3.768   1.080
  689TIP3   OH2 2007   2.355   2.612   1.495
  689TIP3    H1 2008   2.269   2.649   1.466
  689TIP3    H2 2009   2.417   2.648   1.427
  690TIP3   OH2 2010   1.761   3.764   0.806
  690TIP3    H1 2011   1.809   3.680   0.784
  690TIP3    H2 2012   1.826   3.828   0.768
  691TIP3   OH2 2013   1.885   3.542   0.714
  691TIP3    H1 2014   1.905   3.472   0.648
  691TIP3    H2 2015   1.935   3.508   0.792
  692TIP3   OH2 2016   2.288   3.626   1.478
  692TIP3    H1 2017   2.283   3.555   1.412
  692TIP3    H2 2018   2.271   3.706   1.423
  693TIP3   OH2 2019   2.482   3.263   1.329
  693TIP3    H1 2020   2.403   3.321   1.324
  693TIP3    H2 2021   2.520   3.281   1.240
  694TIP3   OH2 2022   1.947   3.131   0.732
  694TIP3    H1 2023   1.896   3.152   0.812
  694TIP3    H2 2024   2.033   3.104   0.770
  695TIP3   OH2 2025   2.164   3.146   1.616
  695TIP3    H1 2026   2.163   3.229   1.669
  695TIP3    H2 2027   2.079   3.156   1.568
  696TIP3   OH2 2028   1.287   3.501   1.270
  696TIP3    H1 2029   1.283   3.469   1.179
  696TIP3    H2 2030   1.379   3.476   1.294
  697TIP3   OH2 2031   1.316   3.076   1.447
  697TIP3    H1 2032   1.368   3.112   1.374
  697TIP3    H2 2033   1.328   3.150   1.511
  698TIP3   OH2 2034   1.806   3.715   1.250
  698TIP3    H1 2035   1.808   3.796   1.304
  698TIP3    H2 2036   1.803   3.644   1.316
  699TIP3   OH2 2037   1.435   3.630   1.802
  699TIP3    H1 2038   1.376   3.694   1.848
  699TIP3    H2 2039   1.370   3.578   1.752
  700TIP3   OH2 2040   1.187   3.193   1.890
  700TIP3    H1 2041   1.197   3.278   1.937
  700TIP3    H2 2042   1.097   3.169   1.919
  701TIP3   OH2 2043   1.503   3.656   0.802
  701TIP3    H1 2044   1.590   3.696   0.820
  701TIP3    H2 2045   1.451   3.732   0.771
  702TIP3   OH2 2046   1.230   3.800   1.886
  702TIP3    H1 2047   1.194   3.802   1.795
  702TIP3    H2 2048   1.151   3.778   1.940
  703TIP3   OH2 2049   2.088   3.583   0.142
  703TIP3    H1 2050   2.103   3.675   0.113
  703TIP3    H2 2051   2.174   3.541   0.122
  704TIP3   OH2 2052   0.812   3.333   1.849
  704TIP3    H1 2053   0.753   3.320   1.771
  704TIP3    H2 2054   0.849   3.244   1.862
  705TIP3   OH2 2055   0.666   3.523   1.474
  705TIP3    H1 2056   0.760   3.525   1.452
  705TIP3    H2 2057   0.654   3.610   1.515
  706TIP3   OH2 2058   2.530   3.975   1.524
  706TIP3    H1 2059   2.525   3.878   1.533
  706TIP3    H2 2060   2.445   4.001   1.567
  707TIP3   OH2 2061   1.633   3.761   1.656
  707TIP3    H1 2062   1.634   3.854   1.688
  707TIP3    H2 2063   1.563   3.722   1.713
  708TIP3   OH2 2064   1.387   3.885   0.631
  708TIP3    H1 2065   1.350   3.880   0.540
  708TIP3    H2 2066   1.369   3.979   0.653
  709TIP3   OH2 2067   0.833   3.757   0.983
  709TIP3    H1 2068   0.879   3.755   1.070
  709TIP3    H2 2069   0.743   3.730   1.005
  710TIP3   OH2 2070   1.581   3.784   0.271
  710TIP3    H1 2071   1.667   3.758   0.231
  710TIP3    H2 2072   1.611   3.802   0.362
  711TIP3   OH2 2073   1.641   3.847   0.530
  711TIP3    H1 2074   1.556   3.850   0.579
  711TIP3    H2 2075   1.700   3.804   0.594
  712TIP3   OH2 2076   2.417   3.102   1.800
  712TIP3    H1 2077   2.340   3.120   1.744
  712TIP3    H2 2078   2.431   3.007   1.786
  713TIP3   OH2 2079   1.015   3.513   1.824
  713TIP3    H1 2080   1.067   3.499   1.906
  713TIP3    H2 2081   0.941   3.450   1.836
  714TIP3   OH2 2082   1.949   2.448   1.798
  714TIP3    H1 2083   2.015   2.426   1.866
  714TIP3    H2 2084   1.863   2.432   1.842
  715TIP3   OH2 2085   2.184   2.879   1.716
  715TIP3    H1 2086   2.136   2.878   1.801
  715TIP3    H2 2087   2.165   2.969   1.682
  716TIP3   OH2 2088   1.348   2.854   1.619
  716TIP3    H1 2089   1.288   2.861   1.696
  716TIP3    H2 2090   1.326   2.933   1.567
  717TIP3   OH2 2091   1.893   3.102   1.951
  717TIP3    H1 2092   1.874   3.030   2.015
  717TIP3    H2 2093   1.986   3.122   1.972
  718TIP3   OH2 2094   1.868   2.866   1.120
  718TIP3    H1 2095   1.826   2.904   1.042
  718TIP3    H2 2096   1.917   2.791   1.078
  719TIP3   OH2 2097   1.160   2.880   1.830
  719TIP3    H1 2098   1.192   2.945   1.894
  719TIP3    H2 2099   1.151   2.800   1.884
  720TIP3   OH2 2100   1.878   3.100   1.529
  720TIP3    H1 2101   1.915   3.027   1.474
  720TIP3    H2 2102   1.854   3.049   1.609
  721TIP3   OH2 2103   2.050   2.637   1.406
  721TIP3    H1 2104   2.014   2.651   1.497
  721TIP3    H2 2105   1.983   2.575   1.371
  722TIP3   OH2 2106   2.216   4.325   1.620
  722TIP3    H1 2107   2.215   4.347   1.525
  722TIP3    H2 2108   2.295   4.374   1.650
  723TIP3   OH2 2109   1.177   3.434   2.043
  723TIP3    H1 2110   1.257   3.465   2.090
  723TIP3    H2 2111   1.113   3.435   2.116
  724TIP3   OH2 2112   1.639   2.874   1.294
  724TIP3    H1 2113   1.723   2.857   1.248
  724TIP3    H2 2114   1.658   2.844   1.385
  725TIP3   OH2 2115   1.616   2.782   1.589
  725TIP3    H1 2116   1.527   2.820   1.602
  725TIP3    H2 2117   1.674   2.844   1.639
  726TIP3   OH2 2118   2.259   3.420   1.295
  726TIP3    H1 2119   2.257   3.465   1.209
  726TIP3    H2 2120   2.174   3.372   1.293
  727TIP3   OH2 2121   1.742   3.488   1.685
  727TIP3    H1 2122   1.780   3.478   1.773
  727TIP3    H2 2123   1.717   3.582   1.683
  728TIP3   OH2 2124   1.032   3.191   1.368
  728TIP3    H1 2125   1.080   3.154   1.292
  728TIP3    H2 2126   1.069   3.140   1.442
  729TIP3   OH2 2127   0.941   3.123   1.978
  729TIP3    H1 2128   0.950   3.104   2.074
  729TIP3    H2 2129   0.868   3.063   1.951
  730TIP3   OH2 2130   1.651   3.230   1.992
  730TIP3    H1 2131   1.594   3.171   1.941
  730TIP3    H2 2132   1.740   3.199   1.964
  731TIP3   OH2 2133   1.911   3.741   1.583
  731TIP3    H1 2134   1.815   3.754   1.588
  731TIP3    H2 2135   1.941   3.801   1.654
  732TIP3   OH2 2136   2.334   2.823   0.487
  732TIP3    H1 2137   2.254   2.768   0.470
  732TIP3    H2 2138   2.318   2.901   0.430
  733TIP3   OH2 2139   2.540   3.679   1.566
  733TIP3    H1 2140   2.442   3.678   1.558
  733TIP3    H2 2141   2.565   3.650   1.475
  734TIP3   OH2 2142   2.025   3.645   0.400
  734TIP3    H1 2143   1.999   3.569   0.454
  734TIP3    H2 2144   2.047   3.605   0.314
  735TIP3   OH2 2145   2.023   3.273   1.242
  735TIP3    H1 2146   1.927   3.254   1.246
  735TIP3    H2 2147   2.055   3.196   1.191
  736TIP3   OH2 2148   1.139   3.494   0.971
  736TIP3    H1 2149   1.149   3.584   0.930
  736TIP3    H2 2150   1.050   3.501   1.006
  737TIP3   OH2 2151   1.297   3.267   0.995
  737TIP3    H1 2152   1.278   3.358   0.965
  737TIP3    H2 2153   1.222   3.218   0.958
  738TIP3   OH2 2154   1.414   3.846   1.452
  738TIP3    H1 2155   1.455   3.919   1.401
  738TIP3    H2 2156   1.492   3.812   1.500
  739TIP3   OH2 2157   1.089   3.736   0.857
  739TIP3    H1 2158   0.994   3.753   0.867
  739TIP3    H2 2159   1.121   3.827   0.841
  740TIP3   OH2 2160   1.803   3.478   1.412
  740TIP3    H1 2161   1.796   3.474   1.510
  740TIP3    H2 2162   1.889   3.437   1.397
  741TIP3   OH2 2163   2.049   4.017   1.462
  741TIP3    H1 2164   1.969   3.964   1.447
  741TIP3    H2 2165   2.040   4.084   1.390
  742TIP3   OH2 2166   2.119   3.856   0.105
  742TIP3    H1 2167   2.168   3.935   0.078
  742TIP3    H2 2168   2.038   3.897   0.140
  743TIP3   OH2 2169   1.133   2.621   1.982
  743TIP3    H1 2170   1.036   2.627   1.998
  743TIP3    H2 2171   1.162   2.578   2.063
  744TIP3   OH2 2172   1.958   3.336   0.545
  744TIP3    H1 2173   1.946   3.260   0.606
  744TIP3    H2 2174   2.043   3.314   0.504
  745TIP3   OH2 2175   0.853   3.707   1.615
  745TIP3    H1 2176   0.909   3.636   1.649
  745TIP3    H2 2177   0.881   3.782   1.670
  746TIP3   OH2 2178   1.971   2.688   1.662
  746TIP3    H1 2179   2.051   2.730   1.699
  746TIP3    H2 2180   1.961   2.608   1.717
  747TIP3   OH2 2181   1.812   2.938   1.738
  747TIP3    H1 2182   1.832   2.993   1.816
  747TIP3    H2 2183   1.869   2.861   1.752
  748TIP3   OH2 2184   2.453   2.835   1.721
  748TIP3    H1 2185   2.354   2.832   1.721
  748TIP3    H2 2186   2.472   2.814   1.629
  749TIP3   OH2 2187   2.104   3.034   1.112
  749TIP3    H1 2188   2.033   2.970   1.125
  749TIP3    H2 2189   2.181   2.990   1.154
  750TIP3   OH2 2190   2.072   3.993   1.059
  750TIP3    H1 2191   2.030   4.037   0.983
  750TIP3    H2 2192   2.166   4.004   1.033
  751TIP3   OH2 2193   0.843   4.015   2.036
  751TIP3    H1 2194   0.930   4.016   2.081
  751TIP3    H2 2195   0.825   3.919   2.032
  752TIP3   OH2 2196   1.325   3.982   2.080
  752TIP3    H1 2197   1.421   3.968   2.086
  752TIP3    H2 2198   1.303   3.925   2.004
  753TIP3   OH2 2199   1.963   3.888   1.812
  753TIP3    H1 2200   1.957   3.819   1.882
  753TIP3    H2 2201   2.042   3.939   1.840
  754TIP3   OH2 2202   1.814   3.683   0.165
  754TIP3    H1 2203   1.897   3.633   0.171
  754TIP3    H2 2204   1.814   3.711   0.071
  755TIP3   OH2 2205   0.976   3.422   2.234
  755TIP3    H1 2206   0.992   3.327   2.239
  755TIP3    H2 2207   0.887   3.425   2.193
  756TIP3   OH2 2208   1.581   3.507   2.009
  756TIP3    H1 2209   1.544   3.526   1.920
  756TIP3    H2 2210   1.614   3.415   1.999
  757TIP3   OH2 2211   2.073   3.514   1.612
  757TIP3    H1 2212   2.151   3.556   1.569
  757TIP3    H2 2213   2.007   3.586   1.599
  758TIP3   OH2 2214   1.097   3.154   2.218
  758TIP3    H1 2215   1.174   3.098   2.201
  758TIP3    H2 2216   1.121   3.191   2.306
  759TIP3   OH2 2217   1.429   3.041   1.876
  759TIP3    H1 2218   1.353   3.103   1.877
  759TIP3    H2 2219   1.480   3.073   1.798
  760TIP3   OH2 2220   1.943   3.442   2.012
  760TIP3    H1 2221   2.026   3.427   1.965
  760TIP3    H2 2222   1.947   3.376   2.083
  761TIP3   OH2 2223   1.551   2.829   2.004
  761TIP3    H1 2224   1.552   2.749   1.947
  761TIP3    H2 2225   1.509   2.895   1.946
  762TIP3   OH2 2226   1.556   2.614   1.810
  762TIP3    H1 2227   1.584   2.659   1.727
  762TIP3    H2 2228   1.462   2.594   1.790
  763TIP3   OH2 2229   1.583   3.148   1.678
  763TIP3    H1 2230   1.669   3.161   1.636
  763TIP3    H2 2231   1.530   3.220   1.638
  764TIP3   OH2 2232   2.165   3.119   2.066
  764TIP3    H1 2233   2.219   3.039   2.072
  764TIP3    H2 2234   2.229   3.183   2.032
  765TIP3   OH2 2235   2.205   3.370   1.799
  765TIP3    H1 2236   2.147   3.424   1.740
  765TIP3    H2 2237   2.293   3.393   1.760
  766TIP3   OH2 2238   1.429   2.945   2.233
  766TIP3    H1 2239   1.361   2.877   2.247
  766TIP3    H2 2240   1.464   2.919   2.145
  767TIP3   OH2 2241   1.693   2.384   1.876
  767TIP3    H1 2242   1.640   2.465   1.855
  767TIP3    H2 2243   1.626   2.314   1.860
  768TIP3   OH2 2244   1.814   2.884   2.094
  768TIP3    H1 2245   1.803   2.875   2.191
  768TIP3    H2 2246   1.723   2.860   2.065
  769TIP3   OH2 2247   2.051   2.830   1.947
  769TIP3    H1 2248   1.977   2.836   2.011
  769TIP3    H2 2249   2.125   2.804   2.005
  770TIP3   OH2 2250   2.277   2.772   2.100
  770TIP3    H1 2251   2.291   2.678   2.121
  770TIP3    H2 2252   2.276   2.814   2.189
  771TIP3   OH2 2253   1.269   2.727   2.286
  771TIP3    H1 2254   1.273   2.634   2.256
  771TIP3    H2 2255   1.303   2.718   2.377
  772TIP3   OH2 2256   1.782   2.385   2.135
  772TIP3    H1 2257   1.849   2.315   2.125
  772TIP3    H2 2258   1.743   2.384   2.045
  773TIP3   OH2 2259   1.846   2.603   2.296
  773TIP3    H1 2260   1.824   2.534   2.230
  773TIP3    H2 2261   1.770   2.664   2.288
  774TIP3   OH2 2262   0.590   3.716   1.218
  774TIP3    H1 2263   0.606   3.624   1.243
  774TIP3    H2 2264   0.649   3.762   1.281
  775TIP3   OH2 2265   2.314   4.118   1.006
  775TIP3    H1 2266   2.358   4.117   1.092
  775TIP3    H2 2267   2.389   4.110   0.945
  776TIP3   OH2 2268   2.354   4.101   1.294
  776TIP3    H1 2269   2.313   4.012   1.283
  776TIP3    H2 2270   2.434   4.076   1.343
  777TIP3   OH2 2271   2.401   3.775   1.867
  777TIP3    H1 2272   2.327   3.786   1.929
  777TIP3    H2 2273   2.442   3.864   1.868
  778TIP3   OH2 2274   2.222   3.288   0.482
  778TIP3    H1 2275   2.286   3.358   0.458
  778TIP3    H2 2276   2.261   3.256   0.566
  779TIP3   OH2 2277   2.344   3.156   0.685
  779TIP3    H1 2278   2.281   3.116   0.750
  779TIP3    H2 2279   2.410   3.199   0.744
  780TIP3   OH2 2280   2.233   3.849   1.325
  780TIP3    H1 2281   2.158   3.896   1.364
  780TIP3    H2 2282   2.190   3.802   1.249
  781TIP3   OH2 2283   2.257   3.065   0.331
  781TIP3    H1 2284   2.167   3.087   0.304
  781TIP3    H2 2285   2.268   3.134   0.399
  782TIP3   OH2 2286   2.169   3.021   0.846
  782TIP3    H1 2287   2.172   2.926   0.825
  782TIP3    H2 2288   2.158   3.022   0.943
  783TIP3   OH2 2289   5.759   8.048   6.541
  783TIP3    H1 2290   5.759   8.033   6.446
  783TIP3    H2 2291   5.855   8.052   6.560
  784TIP3   OH2 2292   2.447   3.438   1.692
  784TIP3    H1 2293   2.521   3.374   1.683
  784TIP3    H2 2294   2.472   3.508   1.630
  785TIP3   OH2 2295   2.632   3.243   1.714
  785TIP3    H1 2296   2.559   3.192   1.755
  785TIP3    H2 2297   2.706   3.181   1.726
  786TIP3   OH2 2298   2.170   2.760   0.765
  786TIP3    H1 2299   2.205   2.670   0.783
  786TIP3    H2 2300   2.191   2.769   0.671
  787TIP3   OH2 2301   2.319   2.907   1.227
  787TIP3    H1 2302   2.404   2.932   1.184
  787TIP3    H2 2303   2.335   2.945   1.316
  788TIP3   OH2 2304   2.385   3.046   1.461
  788TIP3    H1 2305   2.306   3.083   1.505
  788TIP3    H2 2306   2.420   3.125   1.414
  789TIP3   OH2 2307   1.004   2.783   2.262
  789TIP3    H1 2308   1.102   2.773   2.260
  789TIP3    H2 2309   0.978   2.696   2.297
  790TIP3   OH2 2310   2.835   2.634   2.016
  790TIP3    H1 2311   2.897   2.572   1.971
  790TIP3    H2 2312   2.807   2.691   1.941
  791TIP3   OH2 2313   2.224   2.501   0.824
  791TIP3    H1 2314   2.295   2.483   0.889
  791TIP3    H2 2315   2.250   2.441   0.753
  792TIP3   OH2 2316   2.709   2.778   1.824
  792TIP3    H1 2317   2.622   2.820   1.844
  792TIP3    H2 2318   2.679   2.710   1.761
  793TIP3   OH2 2319   1.907   3.947   0.668
  793TIP3    H1 2320   1.959   3.929   0.587
  793TIP3    H2 2321   1.968   4.004   0.717
  794TIP3   OH2 2322   1.010   3.748   2.053
  794TIP3    H1 2323   0.918   3.720   2.037
  794TIP3    H2 2324   1.020   3.734   2.148
  795TIP3   OH2 2325   1.187   3.780   1.599
  795TIP3    H1 2326   1.141   3.857   1.560
  795TIP3    H2 2327   1.274   3.794   1.557
  796TIP3   OH2 2328   1.634   4.027   1.739
  796TIP3    H1 2329   1.677   4.030   1.828
  796TIP3    H2 2330   1.700   4.077   1.686
  797TIP3   OH2 2331   1.813   4.177   1.598
  797TIP3    H1 2332   1.884   4.130   1.552
  797TIP3    H2 2333   1.865   4.234   1.658
  798TIP3   OH2 2334   2.605   2.544   1.700
  798TIP3    H1 2335   2.517   2.544   1.659
  798TIP3    H2 2336   2.634   2.450   1.685
  799TIP3   OH2 2337   0.863   4.033   1.628
  799TIP3    H1 2338   0.776   4.070   1.602
  799TIP3    H2 2339   0.876   4.079   1.712
  800TIP3   OH2 2340   1.100   4.014   1.482
  800TIP3    H1 2341   1.013   4.030   1.525
  800TIP3    H2 2342   1.084   4.051   1.392
  801TIP3   OH2 2343   1.525   4.046   1.282
  801TIP3    H1 2344   1.461   4.068   1.213
  801TIP3    H2 2345   1.540   4.134   1.323
  802TIP3   OH2 2346   1.796   3.985   1.334
  802TIP3    H1 2347   1.703   4.004   1.311
  802TIP3    H2 2348   1.843   4.057   1.288
  803TIP3   OH2 2349   2.001   4.179   1.248
  803TIP3    H1 2350   1.989   4.263   1.199
  803TIP3    H2 2351   2.032   4.119   1.176
  804TIP3   OH2 2352   0.780   3.834   1.375
  804TIP3    H1 2353   0.808   3.811   1.466
  804TIP3    H2 2354   0.853   3.792   1.324
  805TIP3   OH2 2355   0.966   3.709   1.219
  805TIP3    H1 2356   0.984   3.627   1.269
  805TIP3    H2 2357   1.056   3.749   1.215
  806TIP3   OH2 2358   1.230   3.801   1.232
  806TIP3    H1 2359   1.273   3.716   1.211
  806TIP3    H2 2360   1.278   3.824   1.314
  807TIP3   OH2 2361   1.842   2.462   1.325
  807TIP3    H1 2362   1.772   2.399   1.347
  807TIP3    H2 2363   1.911   2.405   1.286
  808TIP3   OH2 2364   2.333   2.342   1.230
  808TIP3    H1 2365   2.381   2.376   1.151
  808TIP3    H2 2366   2.242   2.369   1.209
  809TIP3   OH2 2367   2.443   2.437   0.994
  809TIP3    H1 2368   2.520   2.404   0.945
  809TIP3    H2 2369   2.463   2.534   0.987
  810TIP3   OH2 2370   2.053   2.344   1.190
  810TIP3    H1 2371   2.076   2.318   1.099
  810TIP3    H2 2372   2.061   2.260   1.238
  811TIP3   OH2 2373   1.322   3.854   0.368
  811TIP3    H1 2374   1.409   3.863   0.326
  811TIP3    H2 2375   1.295   3.766   0.338
  812TIP3   OH2 2376   2.053   3.913   0.435
  812TIP3    H1 2377   2.045   3.814   0.427
  812TIP3    H2 2378   2.007   3.942   0.353
  813TIP3   OH2 2379   1.266   2.455   2.227
  813TIP3    H1 2380   1.234   2.384   2.285
  813TIP3    H2 2381   1.362   2.454   2.250
  814TIP3   OH2 2382   1.517   2.443   2.341
  814TIP3    H1 2383   1.603   2.419   2.303
  814TIP3    H2 2384   1.506   2.374   2.410
  815TIP3   OH2 2385   2.342   2.501   2.131
  815TIP3    H1 2386   2.363   2.472   2.222
  815TIP3    H2 2387   2.431   2.501   2.088
  816TIP3   OH2 2388   2.281   4.057   1.625
  816TIP3    H1 2389   2.204   4.025   1.573
  816TIP3    H2 2390   2.263   4.153   1.625
  817TIP3   OH2 2391   3.550   3.431   0.392
  817TIP3    H1 2392   3.519   3.522   0.372
  817TIP3    H2 2393   3.479   3.380   0.349
  818TIP3   OH2 2394   3.549   3.429   0.766
  818TIP3    H1 2395   3.575   3.396   0.854
  818TIP3    H2 2396   3.505   3.351   0.728
  819TIP3   OH2 2397   2.851   3.329   1.136
  819TIP3    H1 2398   2.885   3.261   1.197
  819TIP3    H2 2399   2.929   3.384   1.123
  820TIP3   OH2 2400   3.791   3.733   0.448
  820TIP3    H1 2401   3.771   3.662   0.510
  820TIP3    H2 2402   3.817   3.806   0.507
  821TIP3   OH2 2403   2.827   3.742   0.862
  821TIP3    H1 2404   2.803   3.648   0.869
  821TIP3    H2 2405   2.923   3.737   0.851
  822TIP3   OH2 2406   2.527   2.934   0.653
  822TIP3    H1 2407   2.479   3.018   0.668
  822TIP3    H2 2408   2.457   2.884   0.607
  823TIP3   OH2 2409   2.579   3.222   0.812
  823TIP3    H1 2410   2.631   3.150   0.853
  823TIP3    H2 2411   2.641   3.258   0.747
  824TIP3   OH2 2412   3.438   4.193   0.466
  824TIP3    H1 2413   3.485   4.120   0.421
  824TIP3    H2 2414   3.428   4.158   0.556
  825TIP3   OH2 2415   3.346   3.653   0.819
  825TIP3    H1 2416   3.382   3.578   0.770
  825TIP3    H2 2417   3.430   3.697   0.843
  826TIP3   OH2 2418   4.359   2.974   0.817
  826TIP3    H1 2419   4.387   3.057   0.862
  826TIP3    H2 2420   4.373   2.998   0.724
  827TIP3   OH2 2421   3.757   3.156   0.852
  827TIP3    H1 2422   3.799   3.070   0.870
  827TIP3    H2 2423   3.726   3.142   0.760
  828TIP3   OH2 2424   3.092   2.814   0.819
  828TIP3    H1 2425   3.074   2.886   0.755
  828TIP3    H2 2426   3.048   2.740   0.772
  829TIP3   OH2 2427   3.788   2.906   0.445
  829TIP3    H1 2428   3.865   2.889   0.504
  829TIP3    H2 2429   3.833   2.941   0.366
  830TIP3   OH2 2430   2.728   3.016   0.923
  830TIP3    H1 2431   2.811   2.996   0.969
  830TIP3    H2 2432   2.739   2.961   0.842
  831TIP3   OH2 2433   3.170   3.214   0.716
  831TIP3    H1 2434   3.264   3.190   0.728
  831TIP3    H2 2435   3.133   3.129   0.684
  832TIP3   OH2 2436   4.430   3.181   0.987
  832TIP3    H1 2437   4.347   3.230   0.967
  832TIP3    H2 2438   4.447   3.211   1.078
  833TIP3   OH2 2439   3.091   2.798   1.252
  833TIP3    H1 2440   3.033   2.836   1.183
  833TIP3    H2 2441   3.039   2.820   1.332
  834TIP3   OH2 2442   3.453   3.659   0.253
  834TIP3    H1 2443   3.394   3.618   0.189
  834TIP3    H2 2444   3.400   3.738   0.279
  835TIP3   OH2 2445   3.199   3.574   1.049
  835TIP3    H1 2446   3.135   3.638   1.087
  835TIP3    H2 2447   3.238   3.625   0.976
  836TIP3   OH2 2448   4.007   2.905   0.609
  836TIP3    H1 2449   3.987   2.860   0.692
  836TIP3    H2 2450   4.054   2.985   0.639
  837TIP3   OH2 2451   2.962   2.913   1.037
  837TIP3    H1 2452   3.024   2.986   1.059
  837TIP3    H2 2453   3.010   2.873   0.960
  838TIP3   OH2 2454   3.025   3.764   1.145
  838TIP3    H1 2455   2.999   3.847   1.101
  838TIP3    H2 2456   2.945   3.752   1.201
  839TIP3   OH2 2457   2.423   3.457   0.383
  839TIP3    H1 2458   2.383   3.487   0.299
  839TIP3    H2 2459   2.453   3.542   0.422
  840TIP3   OH2 2460   3.862   3.972   0.618
  840TIP3    H1 2461   3.773   3.963   0.660
  840TIP3    H2 2462   3.852   4.059   0.575
  841TIP3   OH2 2463   4.150   2.874   0.983
  841TIP3    H1 2464   4.062   2.902   0.953
  841TIP3    H2 2465   4.208   2.906   0.911
  842TIP3   OH2 2466   3.451   2.520   0.966
  842TIP3    H1 2467   3.434   2.425   0.977
  842TIP3    H2 2468   3.372   2.557   1.011
  843TIP3   OH2 2469   3.566   4.016   0.298
  843TIP3    H1 2470   3.616   3.934   0.276
  843TIP3    H2 2471   3.626   4.083   0.260
  844TIP3   OH2 2472   3.712   3.801   0.191
  844TIP3    H1 2473   3.646   3.732   0.174
  844TIP3    H2 2474   3.748   3.770   0.278
  845TIP3   OH2 2475   4.087   3.887   0.963
  845TIP3    H1 2476   4.075   3.809   0.904
  845TIP3    H2 2477   4.069   3.961   0.902
  846TIP3   OH2 2478   3.387   3.289   0.220
  846TIP3    H1 2479   3.296   3.313   0.194
  846TIP3    H2 2480   3.422   3.253   0.136
  847TIP3   OH2 2481   4.281   3.521   0.805
  847TIP3    H1 2482   4.198   3.573   0.813
  847TIP3    H2 2483   4.311   3.548   0.716
  848TIP3   OH2 2484   3.731   3.374   0.196
  848TIP3    H1 2485   3.671   3.392   0.272
  848TIP3    H2 2486   3.810   3.340   0.243
  849TIP3   OH2 2487   3.961   3.403   1.102
  849TIP3    H1 2488   3.958   3.487   1.152
  849TIP3    H2 2489   3.874   3.406   1.058
  850TIP3   OH2 2490   2.958   3.363   0.609
  850TIP3    H1 2491   2.913   3.305   0.543
  850TIP3    H2 2492   3.035   3.308   0.635
  851TIP3   OH2 2493   3.093   3.773   0.755
  851TIP3    H1 2494   3.067   3.729   0.673
  851TIP3    H2 2495   3.182   3.736   0.772
  852TIP3   OH2 2496   3.100   3.329   0.966
  852TIP3    H1 2497   3.127   3.311   0.874
  852TIP3    H2 2498   3.139   3.418   0.983
  853TIP3   OH2 2499   3.622   3.969   0.740
  853TIP3    H1 2500   3.606   4.049   0.792
  853TIP3    H2 2501   3.604   3.896   0.803
  854TIP3   OH2 2502   3.232   3.888   1.287
  854TIP3    H1 2503   3.171   3.950   1.333
  854TIP3    H2 2504   3.166   3.836   1.237
  855TIP3   OH2 2505   3.580   3.216   0.028
  855TIP3    H1 2506   3.631   3.286   0.073
  855TIP3    H2 2507   3.598   3.234  -0.067
  856TIP3   OH2 2508   2.988   3.443   1.391
  856TIP3    H1 2509   2.991   3.531   1.434
  856TIP3    H2 2510   2.892   3.426   1.393
  857TIP3   OH2 2511   3.308   3.899   0.295
  857TIP3    H1 2512   3.383   3.957   0.316
  857TIP3    H2 2513   3.245   3.958   0.253
  858TIP3   OH2 2514   3.028   4.058   1.374
  858TIP3    H1 2515   2.994   4.057   1.282
  858TIP3    H2 2516   2.948   4.034   1.426
  859TIP3   OH2 2517   4.084   2.464   0.065
  859TIP3    H1 2518   4.001   2.479   0.115
  859TIP3    H2 2519   4.093   2.548   0.016
  860TIP3   OH2 2520   2.821   3.202   0.422
  860TIP3    H1 2521   2.761   3.253   0.363
  860TIP3    H2 2522   2.783   3.114   0.415
  861TIP3   OH2 2523   2.606   3.585   1.321
  861TIP3    H1 2524   2.573   3.567   1.231
  861TIP3    H2 2525   2.644   3.499   1.346
  862TIP3   OH2 2526   4.322   4.229   1.008
  862TIP3    H1 2527   4.321   4.133   1.023
  862TIP3    H2 2528   4.240   4.256   1.055
  863TIP3   OH2 2529   3.431   4.016   1.145
  863TIP3    H1 2530   3.430   4.109   1.176
  863TIP3    H2 2531   3.358   3.978   1.198
  864TIP3   OH2 2532   3.192   4.149   0.092
  864TIP3    H1 2533   3.142   4.128   0.011
  864TIP3    H2 2534   3.157   4.237   0.117
  865TIP3   OH2 2535   2.628   3.997   0.479
  865TIP3    H1 2536   2.674   3.988   0.566
  865TIP3    H2 2537   2.569   3.920   0.484
  866TIP3   OH2 2538   3.405   4.021  -0.258
  866TIP3    H1 2539   3.458   3.941  -0.249
  866TIP3    H2 2540   3.417   4.059  -0.168
  867TIP3   OH2 2541   3.441   4.090   0.007
  867TIP3    H1 2542   3.351   4.103   0.045
  867TIP3    H2 2543   3.487   4.055   0.084
  868TIP3   OH2 2544   4.214   3.361   1.284
  868TIP3    H1 2545   4.133   3.377   1.233
  868TIP3    H2 2546   4.227   3.265   1.272
  869TIP3   OH2 2547   2.811   3.769   1.315
  869TIP3    H1 2548   2.860   3.749   1.397
  869TIP3    H2 2549   2.735   3.708   1.321
  870TIP3   OH2 2550   3.211   2.592   1.093
  870TIP3    H1 2551   3.122   2.562   1.067
  870TIP3    H2 2552   3.188   2.677   1.135
  871TIP3   OH2 2553   3.743   2.709   1.287
  871TIP3    H1 2554   3.810   2.682   1.352
  871TIP3    H2 2555   3.658   2.690   1.332
  872TIP3   OH2 2556   3.984   3.139   1.206
  872TIP3    H1 2557   3.933   3.134   1.290
  872TIP3    H2 2558   3.959   3.226   1.170
  873TIP3   OH2 2559   3.638   3.266  -0.230
  873TIP3    H1 2560   3.595   3.257  -0.315
  873TIP3    H2 2561   3.697   3.342  -0.243
  874TIP3   OH2 2562   3.380   2.643   0.067
  874TIP3    H1 2563   3.323   2.684   0.134
  874TIP3    H2 2564   3.322   2.574   0.033
  875TIP3   OH2 2565   3.142   3.107   1.113
  875TIP3    H1 2566   3.090   3.131   1.193
  875TIP3    H2 2567   3.129   3.188   1.058
  876TIP3   OH2 2568   3.029   2.993   0.622
  876TIP3    H1 2569   2.936   2.967   0.637
  876TIP3    H2 2570   3.037   2.985   0.526
  877TIP3   OH2 2571   3.515   3.088   0.356
  877TIP3    H1 2572   3.459   3.155   0.312
  877TIP3    H2 2573   3.560   3.048   0.279
  878TIP3   OH2 2574   3.690   3.360   1.439
  878TIP3    H1 2575   3.669   3.287   1.502
  878TIP3    H2 2576   3.784   3.376   1.461
  879TIP3   OH2 2577   3.672   3.112   0.592
  879TIP3    H1 2578   3.611   3.139   0.519
  879TIP3    H2 2579   3.704   3.029   0.551
  880TIP3   OH2 2580   2.962   3.139   1.321
  880TIP3    H1 2581   2.986   3.206   1.387
  880TIP3    H2 2582   2.952   3.058   1.375
  881TIP3   OH2 2583   3.002   2.564   0.030
  881TIP3    H1 2584   3.015   2.584   0.125
  881TIP3    H2 2585   2.965   2.647  -0.002
  882TIP3   OH2 2586   2.543   2.675   0.926
  882TIP3    H1 2587   2.630   2.700   0.962
  882TIP3    H2 2588   2.564   2.646   0.834
  883TIP3   OH2 2589   2.548   2.651   0.446
  883TIP3    H1 2590   2.593   2.692   0.370
  883TIP3    H2 2591   2.479   2.718   0.461
  884TIP3   OH2 2592   3.686   3.356   1.018
  884TIP3    H1 2593   3.718   3.283   0.959
  884TIP3    H2 2594   3.654   3.303   1.094
  885TIP3   OH2 2595   3.349   2.815   0.701
  885TIP3    H1 2596   3.265   2.814   0.750
  885TIP3    H2 2597   3.415   2.822   0.771
  886TIP3   OH2 2598   2.787   2.871   0.694
  886TIP3    H1 2599   2.692   2.883   0.669
  886TIP3    H2 2600   2.802   2.778   0.672
  887TIP3   OH2 2601   3.844   2.892   0.887
  887TIP3    H1 2602   3.810   2.905   0.978
  887TIP3    H2 2603   3.777   2.829   0.853
  888TIP3   OH2 2604   2.857   2.917   0.177
  888TIP3    H1 2605   2.838   2.863   0.101
  888TIP3    H2 2606   2.953   2.938   0.162
  889TIP3   OH2 2607   4.013   4.582   1.107
  889TIP3    H1 2608   4.012   4.605   1.012
  889TIP3    H2 2609   4.092   4.630   1.139
  890TIP3   OH2 2610   2.972   3.689   1.532
  890TIP3    H1 2611   3.052   3.721   1.578
  890TIP3    H2 2612   2.908   3.693   1.605
  891TIP3   OH2 2613   3.435   3.144   0.784
  891TIP3    H1 2614   3.507   3.107   0.730
  891TIP3    H2 2615   3.450   3.101   0.871
  892TIP3   OH2 2616   2.970   2.632   0.658
  892TIP3    H1 2617   2.927   2.557   0.703
  892TIP3    H2 2618   3.011   2.590   0.582
  893TIP3   OH2 2619   3.412   3.037   1.080
  893TIP3    H1 2620   3.323   3.077   1.088
  893TIP3    H2 2621   3.470   3.102   1.126
  894TIP3   OH2 2622   3.141   3.438   0.165
  894TIP3    H1 2623   3.074   3.367   0.156
  894TIP3    H2 2624   3.127   3.466   0.259
  895TIP3   OH2 2625   4.051   3.668   0.800
  895TIP3    H1 2626   4.073   3.719   0.719
  895TIP3    H2 2627   3.965   3.626   0.776
  896TIP3   OH2 2628   3.628   2.747   0.010
  896TIP3    H1 2629   3.536   2.713   0.014
  896TIP3    H2 2630   3.619   2.838   0.042
  897TIP3   OH2 2631   3.551   3.753   1.166
  897TIP3    H1 2632   3.569   3.730   1.258
  897TIP3    H2 2633   3.509   3.840   1.173
  898TIP3   OH2 2634   3.675   2.989   0.144
  898TIP3    H1 2635   3.771   3.003   0.149
  898TIP3    H2 2636   3.644   3.067   0.092
  899TIP3   OH2 2637   2.846   3.455   0.848
  899TIP3    H1 2638   2.879   3.428   0.760
  899TIP3    H2 2639   2.880   3.385   0.906
  900TIP3   OH2 2640   3.290   3.583  -0.017
  900TIP3    H1 2641   3.246   3.670  -0.003
  900TIP3    H2 2642   3.240   3.528   0.048
  901TIP3   OH2 2643   2.722   3.375   1.459
  901TIP3    H1 2644   2.742   3.362   1.553
  901TIP3    H2 2645   2.651   3.309   1.443
  902TIP3   OH2 2646   3.447   3.487   1.479
  902TIP3    H1 2647   3.388   3.431   1.426
  902TIP3    H2 2648   3.535   3.455   1.450
  903TIP3   OH2 2649   3.710   4.011   1.061
  903TIP3    H1 2650   3.614   4.008   1.075
  903TIP3    H2 2651   3.738   4.062   1.140
  904TIP3   OH2 2652   4.120   3.079  -0.027
  904TIP3    H1 2653   4.060   3.034  -0.091
  904TIP3    H2 2654   4.116   3.168  -0.067
  905TIP3   OH2 2655   4.337   3.937   1.053
  905TIP3    H1 2656   4.239   3.934   1.044
  905TIP3    H2 2657   4.363   3.909   0.962
  906TIP3   OH2 2658   3.821   3.861  -0.138
  906TIP3    H1 2659   3.807   3.840  -0.044
  906TIP3    H2 2660   3.739   3.825  -0.175
  907TIP3   OH2 2661   3.816   3.530   0.721
  907TIP3    H1 2662   3.722   3.506   0.733
  907TIP3    H2 2663   3.848   3.451   0.673
  908TIP3   OH2 2664   2.941   3.757   0.467
  908TIP3    H1 2665   2.937   3.839   0.415
  908TIP3    H2 2666   2.847   3.741   0.484
  909TIP3   OH2 2667   2.505   3.090   0.184
  909TIP3    H1 2668   2.563   3.167   0.199
  909TIP3    H2 2669   2.432   3.105   0.245
  910TIP3   OH2 2670   3.085   3.525   0.416
  910TIP3    H1 2671   3.047   3.614   0.432
  910TIP3    H2 2672   3.047   3.474   0.490
  911TIP3   OH2 2673   3.210   4.104   0.941
  911TIP3    H1 2674   3.251   4.175   0.889
  911TIP3    H2 2675   3.287   4.068   0.989
  912TIP3   OH2 2676   2.861   3.997   0.322
  912TIP3    H1 2677   2.775   4.003   0.370
  912TIP3    H2 2678   2.890   4.091   0.325
  913TIP3   OH2 2679   3.601   3.735   0.897
  913TIP3    H1 2680   3.591   3.734   0.995
  913TIP3    H2 2681   3.681   3.682   0.885
  914TIP3   OH2 2682   3.568   3.626  -0.213
  914TIP3    H1 2683   3.620   3.596  -0.136
  914TIP3    H2 2684   3.478   3.606  -0.184
  915TIP3   OH2 2685   3.849   4.270   0.947
  915TIP3    H1 2686   3.769   4.214   0.941
  915TIP3    H2 2687   3.832   4.336   0.876
  916TIP3   OH2 2688   2.934   2.880   1.469
  916TIP3    H1 2689   2.838   2.885   1.482
  916TIP3    H2 2690   2.961   2.820   1.541
  917TIP3   OH2 2691   3.734   3.559  -0.007
  917TIP3    H1 2692   3.721   3.500   0.070
  917TIP3    H2 2693   3.831   3.557  -0.014
  918TIP3   OH2 2694   2.654   3.988   1.103
  918TIP3    H1 2695   2.671   3.894   1.094
  918TIP3    H2 2696   2.704   4.011   1.182
  919TIP3   OH2 2697   2.947   3.616  -0.217
  919TIP3    H1 2698   2.957   3.526  -0.249
  919TIP3    H2 2699   2.918   3.603  -0.125
  920TIP3   OH2 2700   2.885   3.616   0.055
  920TIP3    H1 2701   2.957   3.586   0.112
  920TIP3    H2 2702   2.892   3.714   0.060
  921TIP3   OH2 2703   2.631   3.324   0.261
  921TIP3    H1 2704   2.563   3.367   0.317
  921TIP3    H2 2705   2.641   3.391   0.191
  922TIP3   OH2 2706   3.770   2.945   1.147
  922TIP3    H1 2707   3.849   2.984   1.188
  922TIP3    H2 2708   3.755   2.865   1.201
  923TIP3   OH2 2709   3.656   2.692   0.306
  923TIP3    H1 2710   3.631   2.714   0.214
  923TIP3    H2 2711   3.679   2.780   0.342
  924TIP3   OH2 2712   3.155   3.815   0.009
  924TIP3    H1 2713   3.067   3.842   0.041
  924TIP3    H2 2714   3.161   3.867  -0.073
  925TIP3   OH2 2715   3.374   2.854   0.423
  925TIP3    H1 2716   3.398   2.941   0.387
  925TIP3    H2 2717   3.356   2.874   0.517
  926TIP3   OH2 2718   3.608   3.196   1.223
  926TIP3    H1 2719   3.627   3.251   1.301
  926TIP3    H2 2720   3.664   3.118   1.238
  927TIP3   OH2 2721   3.493   2.605   0.522
  927TIP3    H1 2722   3.463   2.689   0.562
  927TIP3    H2 2723   3.548   2.640   0.449
  928TIP3   OH2 2724   2.896   3.889   0.069
  928TIP3    H1 2725   2.866   3.960   0.007
  928TIP3    H2 2726   2.878   3.929   0.156
  929TIP3   OH2 2727   3.004   2.613   0.306
  929TIP3    H1 2728   2.997   2.707   0.326
  929TIP3    H2 2729   3.101   2.599   0.320
  930TIP3   OH2 2730   4.251   3.093   1.204
  930TIP3    H1 2731   4.153   3.092   1.211
  930TIP3    H2 2732   4.261   3.058   1.114
  931TIP3   OH2 2733   3.901   3.289   0.589
  931TIP3    H1 2734   3.823   3.231   0.600
  931TIP3    H2 2735   3.970   3.240   0.638
  932TIP3   OH2 2736   2.613   3.525   0.061
  932TIP3    H1 2737   2.682   3.592   0.075
  932TIP3    H2 2738   2.662   3.466  -0.001
  933TIP3   OH2 2739   2.556   2.825   0.234
  933TIP3    H1 2740   2.559   2.922   0.216
  933TIP3    H2 2741   2.506   2.793   0.158
  934TIP3   OH2 2742   3.869   4.242   0.541
  934TIP3    H1 2743   3.825   4.291   0.468
  934TIP3    H2 2744   3.963   4.263   0.520
  935TIP3   OH2 2745   2.946   2.514   1.071
  935TIP3    H1 2746   2.916   2.485   0.982
  935TIP3    H2 2747   2.932   2.434   1.125
  936TIP3   OH2 2748   2.489   3.728   0.444
  936TIP3    H1 2749   2.432   3.754   0.519
  936TIP3    H2 2750   2.446   3.774   0.368
  937TIP3   OH2 2751   2.638   4.271   1.522
  937TIP3    H1 2752   2.725   4.270   1.567
  937TIP3    H2 2753   2.617   4.176   1.518
  938TIP3   OH2 2754   3.123   4.241   1.564
  938TIP3    H1 2755   3.217   4.220   1.572
  938TIP3    H2 2756   3.097   4.181   1.491
  939TIP3   OH2 2757   3.118   3.813  -0.287
  939TIP3    H1 2758   3.040   3.758  -0.263
  939TIP3    H2 2759   3.173   3.744  -0.327
  940TIP3   OH2 2760   3.763   4.143   1.297
  940TIP3    H1 2761   3.752   4.075   1.367
  940TIP3    H2 2762   3.839   4.195   1.329
  941TIP3   OH2 2763   2.770   3.678   1.721
  941TIP3    H1 2764   2.785   3.582   1.724
  941TIP3    H2 2765   2.683   3.682   1.676
  942TIP3   OH2 2766   2.758   3.342  -0.073
  942TIP3    H1 2767   2.814   3.298  -0.006
  942TIP3    H2 2768   2.797   3.310  -0.155
  943TIP3   OH2 2769   3.378   3.764   1.494
  943TIP3    H1 2770   3.336   3.781   1.408
  943TIP3    H2 2771   3.408   3.671   1.486
  944TIP3   OH2 2772   3.248   3.520  -0.280
  944TIP3    H1 2773   3.257   3.552  -0.188
  944TIP3    H2 2774   3.242   3.425  -0.266
  945TIP3   OH2 2775   3.871   3.770   1.100
  945TIP3    H1 2776   3.945   3.817   1.057
  945TIP3    H2 2777   3.799   3.834   1.088
  946TIP3   OH2 2778   2.888   3.408   1.705
  946TIP3    H1 2779   2.969   3.361   1.680
  946TIP3    H2 2780   2.914   3.446   1.791
  947TIP3   OH2 2781   2.963   3.228   0.130
  947TIP3    H1 2782   2.925   3.192   0.211
  947TIP3    H2 2783   3.029   3.157   0.112
  948TIP3   OH2 2784   3.225   3.298   1.365
  948TIP3    H1 2785   3.147   3.357   1.367
  948TIP3    H2 2786   3.274   3.332   1.287
  949TIP3   OH2 2787   3.740   3.700   1.500
  949TIP3    H1 2788   3.822   3.680   1.451
  949TIP3    H2 2789   3.740   3.632   1.569
  950TIP3   OH2 2790   3.853   3.425  -0.317
  950TIP3    H1 2791   3.880   3.361  -0.386
  950TIP3    H2 2792   3.806   3.491  -0.368
  951TIP3   OH2 2793   3.348   3.086   1.490
  951TIP3    H1 2794   3.348   3.007   1.433
  951TIP3    H2 2795   3.305   3.153   1.433
  952TIP3   OH2 2796   3.350   2.870   1.298
  952TIP3    H1 2797   3.378   2.915   1.216
  952TIP3    H2 2798   3.256   2.850   1.279
  953TIP3   OH2 2799   3.380   3.410   1.171
  953TIP3    H1 2800   3.461   3.419   1.120
  953TIP3    H2 2801   3.321   3.476   1.129
  954TIP3   OH2 2802   3.960   3.376   1.553
  954TIP3    H1 2803   4.013   3.294   1.561
  954TIP3    H2 2804   4.026   3.438   1.520
  955TIP3   OH2 2805   4.002   3.627   1.288
  955TIP3    H1 2806   3.943   3.680   1.229
  955TIP3    H2 2807   4.089   3.649   1.247
  956TIP3   OH2 2808   3.226   3.200   1.721
  956TIP3    H1 2809   3.156   3.132   1.733
  956TIP3    H2 2810   3.260   3.177   1.633
  957TIP3   OH2 2811   3.483   2.636   1.364
  957TIP3    H1 2812   3.434   2.719   1.341
  957TIP3    H2 2813   3.414   2.569   1.351
  958TIP3   OH2 2814   3.610   3.141   1.580
  958TIP3    H1 2815   3.599   3.131   1.676
  958TIP3    H2 2816   3.519   3.117   1.551
  959TIP3   OH2 2817   3.847   3.088   1.434
  959TIP3    H1 2818   3.773   3.093   1.497
  959TIP3    H2 2819   3.921   3.060   1.492
  960TIP3   OH2 2820   4.077   3.030   1.586
  960TIP3    H1 2821   4.089   2.935   1.607
  960TIP3    H2 2822   4.073   3.071   1.675
  961TIP3   OH2 2823   3.062   2.981   1.772
  961TIP3    H1 2824   3.074   2.892   1.735
  961TIP3    H2 2825   3.099   2.969   1.862
  962TIP3   OH2 2826   3.576   2.644   1.622
  962TIP3    H1 2827   3.645   2.575   1.615
  962TIP3    H2 2828   3.537   2.640   1.532
  963TIP3   OH2 2829   3.642   2.860   1.783
  963TIP3    H1 2830   3.620   2.791   1.717
  963TIP3    H2 2831   3.566   2.921   1.775
  964TIP3   OH2 2832   2.861   4.091  -0.119
  964TIP3    H1 2833   2.954   4.091  -0.147
  964TIP3    H2 2834   2.817   4.120  -0.201
  965TIP3   OH2 2835   2.347   3.472   0.110
  965TIP3    H1 2836   2.438   3.504   0.088
  965TIP3    H2 2837   2.344   3.389   0.061
  966TIP3   OH2 2838   2.258   4.084   0.510
  966TIP3    H1 2839   2.190   4.021   0.479
  966TIP3    H2 2840   2.304   4.028   0.578
  967TIP3   OH2 2841   2.395   3.935   0.689
  967TIP3    H1 2842   2.365   3.858   0.743
  967TIP3    H2 2843   2.443   3.983   0.760
  968TIP3   OH2 2844   4.120   4.336   0.495
  968TIP3    H1 2845   4.147   4.368   0.583
  968TIP3    H2 2846   4.183   4.382   0.437
  969TIP3   OH2 2847   4.151   4.357   0.777
  969TIP3    H1 2848   4.108   4.269   0.775
  969TIP3    H2 2849   4.226   4.336   0.835
  970TIP3   OH2 2850   4.197   4.032   1.352
  970TIP3    H1 2851   4.123   4.042   1.416
  970TIP3    H2 2852   4.238   4.121   1.356
  971TIP3   OH2 2853   4.020   3.547  -0.026
  971TIP3    H1 2854   4.088   3.615  -0.040
  971TIP3    H2 2855   4.053   3.504   0.056
  972TIP3   OH2 2856   4.140   3.413   0.176
  972TIP3    H1 2857   4.073   3.369   0.234
  972TIP3    H2 2858   4.203   3.451   0.241
  973TIP3   OH2 2859   4.195   3.805   0.609
  973TIP3    H1 2860   4.247   3.742   0.556
  973TIP3    H2 2861   4.183   3.880   0.547
  974TIP3   OH2 2862   4.026   4.106   0.803
  974TIP3    H1 2863   3.956   4.149   0.855
  974TIP3    H2 2864   3.975   4.059   0.734
  975TIP3   OH2 2865   4.082   3.325  -0.177
  975TIP3    H1 2866   3.994   3.322  -0.218
  975TIP3    H2 2867   4.066   3.400  -0.115
  976TIP3   OH2 2868   3.961   2.996  -0.229
  976TIP3    H1 2869   3.898   3.031  -0.292
  976TIP3    H2 2870   3.931   2.903  -0.222
  977TIP3   OH2 2871   3.959   3.268   0.323
  977TIP3    H1 2872   3.960   3.171   0.315
  977TIP3    H2 2873   3.944   3.281   0.419
  978TIP3   OH2 2874   2.582   3.320   1.088
  978TIP3    H1 2875   2.563   3.328   0.992
  978TIP3    H2 2876   2.680   3.332   1.089
  979TIP3   OH2 2877   4.244   3.695   1.179
  979TIP3    H1 2878   4.317   3.630   1.170
  979TIP3    H2 2879   4.272   3.766   1.118
  980TIP3   OH2 2880   4.429   3.500   1.197
  980TIP3    H1 2881   4.355   3.450   1.238
  980TIP3    H2 2882   4.503   3.437   1.211
  981TIP3   OH2 2883   3.890   2.737  -0.222
  981TIP3    H1 2884   3.971   2.697  -0.185
  981TIP3    H2 2885   3.820   2.693  -0.171
  982TIP3   OH2 2886   3.956   2.988   0.222
  982TIP3    H1 2887   3.991   2.897   0.238
  982TIP3    H2 2888   4.013   3.015   0.149
  983TIP3   OH2 2889   4.114   3.159   0.714
  983TIP3    H1 2890   4.199   3.186   0.674
  983TIP3    H2 2891   4.126   3.198   0.803
  984TIP3   OH2 2892   4.181   3.303   0.946
  984TIP3    H1 2893   4.102   3.337   0.993
  984TIP3    H2 2894   4.213   3.384   0.900
  985TIP3   OH2 2895   2.795   3.027   1.739
  985TIP3    H1 2896   2.893   3.025   1.742
  985TIP3    H2 2897   2.774   2.944   1.785
  986TIP3   OH2 2898   4.633   2.893   1.502
  986TIP3    H1 2899   4.693   2.829   1.457
  986TIP3    H2 2900   4.604   2.949   1.427
  987TIP3   OH2 2901   4.063   2.735   0.253
  987TIP3    H1 2902   4.106   2.720   0.339
  987TIP3    H2 2903   3.998   2.661   0.252
  988TIP3   OH2 2904   2.764   2.723   1.087
  988TIP3    H1 2905   2.828   2.649   1.088
  988TIP3    H2 2906   2.824   2.798   1.073
  989TIP3   OH2 2907   2.565   2.998   1.151
  989TIP3    H1 2908   2.612   2.987   1.066
  989TIP3    H2 2909   2.584   3.091   1.168
  990TIP3   OH2 2910   4.505   3.035   1.309
  990TIP3    H1 2911   4.420   3.077   1.332
  990TIP3    H2 2912   4.474   2.965   1.248
  991TIP3   OH2 2913   4.149   2.670  -0.126
  991TIP3    H1 2914   4.201   2.612  -0.183
  991TIP3    H2 2915   4.207   2.749  -0.121
  992TIP3   OH2 2916   2.570   2.537   0.691
  992TIP3    H1 2917   2.512   2.461   0.674
  992TIP3    H2 2918   2.577   2.576   0.601
  993TIP3   OH2 2919   3.702   4.204   0.164
  993TIP3    H1 2920   3.749   4.187   0.080
  993TIP3    H2 2921   3.755   4.275   0.203
  994TIP3   OH2 2922   2.764   2.574   1.463
  994TIP3    H1 2923   2.714   2.580   1.546
  994TIP3    H2 2924   2.702   2.617   1.401
  995TIP3   OH2 2925   2.807   4.005   1.542
  995TIP3    H1 2926   2.716   3.978   1.524
  995TIP3    H2 2927   2.814   3.990   1.637
  996TIP3   OH2 2928   2.985   4.038   1.091
  996TIP3    H1 2929   2.931   4.108   1.050
  996TIP3    H2 2930   3.069   4.056   1.045
  997TIP3   OH2 2931   3.431   4.283   1.226
  997TIP3    H1 2932   3.472   4.285   1.315
  997TIP3    H2 2933   3.497   4.335   1.174
  998TIP3   OH2 2934   3.609   4.435   1.083
  998TIP3    H1 2935   3.681   4.384   1.043
  998TIP3    H2 2936   3.660   4.492   1.145
  999TIP3   OH2 2937   4.403   2.799   1.184
  999TIP3    H1 2938   4.312   2.798   1.149
  999TIP3    H2 2939   4.430   2.705   1.172
 1000TIP3   OH2 2940   2.667   4.312   1.106
 1000TIP3    H1 2941   2.576   4.339   1.083
 1000TIP3    H2 2942   2.663   4.320   1.202
 1001TIP3   OH2 2943   2.901   4.276   0.968
 1001TIP3    H1 2944   2.815   4.290   1.014
 1001TIP3    H2 2945   2.878   4.306   0.878
 1002TIP3   OH2 2946   3.325   4.305   0.765
 1002TIP3    H1 2947   3.253   4.323   0.702
 1002TIP3    H2 2948   3.335   4.392   0.808
 1003TIP3   OH2 2949   3.592   4.243   0.817
 1003TIP3    H1 2950   3.497   4.260   0.798
 1003TIP3    H2 2951   3.634   4.320   0.777
 1004TIP3   OH2 2952   3.802   4.437   0.734
 1004TIP3    H1 2953   3.786   4.521   0.686
 1004TIP3    H2 2954   3.826   4.376   0.662
 1005TIP3   OH2 2955   2.568   4.090   0.861
 1005TIP3    H1 2956   2.596   4.063   0.952
 1005TIP3    H2 2957   2.635   4.042   0.809
 1006TIP3   OH2 2958   2.763   3.962   0.713
 1006TIP3    H1 2959   2.775   3.880   0.766
 1006TIP3    H2 2960   2.854   3.996   0.710
 1007TIP3   OH2 2961   3.035   4.058   0.713
 1007TIP3    H1 2962   3.063   3.966   0.701
 1007TIP3    H2 2963   3.074   4.077   0.800
 1008TIP3   OH2 2964   3.617   2.717   0.817
 1008TIP3    H1 2965   3.564   2.647   0.860
 1008TIP3    H2 2966   3.668   2.667   0.751
 1009TIP3   OH2 2967   4.136   2.592   0.711
 1009TIP3    H1 2968   4.169   2.646   0.636
 1009TIP3    H2 2969   4.040   2.606   0.704
 1010TIP3   OH2 2970   4.229   2.694   0.473
 1010TIP3    H1 2971   4.302   2.646   0.430
 1010TIP3    H2 2972   4.257   2.787   0.458
 1011TIP3   OH2 2973   2.860   2.428   0.824
 1011TIP3    H1 2974   2.767   2.400   0.813
 1011TIP3    H2 2975   2.906   2.342   0.815
 1012TIP3   OH2 2976   3.304   2.448   0.702
 1012TIP3    H1 2977   3.357   2.501   0.639
 1012TIP3    H2 2978   3.317   2.497   0.784
 1013TIP3   OH2 2979   3.860   2.598   0.682
 1013TIP3    H1 2980   3.835   2.570   0.593
 1013TIP3    H2 2981   3.835   2.519   0.736
 1014TIP3   OH2 2982   3.880   2.522   0.246
 1014TIP3    H1 2983   3.793   2.568   0.251
 1014TIP3    H2 2984   3.858   2.438   0.293
 1015TIP3   OH2 2985   2.362   3.858   0.244
 1015TIP3    H1 2986   2.279   3.821   0.210
 1015TIP3    H2 2987   2.342   3.952   0.244
 1016TIP3   OH2 2988   2.786   2.433   0.302
 1016TIP3    H1 2989   2.799   2.397   0.214
 1016TIP3    H2 2990   2.859   2.497   0.309
 1017TIP3   OH2 2991   3.269   2.622   0.339
 1017TIP3    H1 2992   3.340   2.579   0.390
 1017TIP3    H2 2993   3.297   2.716   0.352
 1018TIP3   OH2 2994   3.131   4.061  -0.177
 1018TIP3    H1 2995   3.219   4.080  -0.214
 1018TIP3    H2 2996   3.111   3.979  -0.229
 1019TIP3   OH2 2997   3.841   4.143  -0.063
 1019TIP3    H1 2998   3.840   4.050  -0.091
 1019TIP3    H2 2999   3.803   4.188  -0.142
 1020TIP3   OH2 3000   3.064   2.698   1.707
 1020TIP3    H1 3001   3.030   2.631   1.769
 1020TIP3    H2 3002   3.158   2.701   1.735
 1021TIP3   OH2 3003   3.312   2.698   1.830
 1021TIP3    H1 3004   3.398   2.679   1.788
 1021TIP3    H2 3005   3.305   2.626   1.895
 1022TIP3   OH2 3006   2.445   3.909  -0.096
 1022TIP3    H1 3007   2.420   3.924  -0.004
 1022TIP3    H2 3008   2.522   3.852  -0.088
 1023TIP3   OH2 3009   4.138   2.758   1.618
 1023TIP3    H1 3010   4.158   2.728   1.709
 1023TIP3    H2 3011   4.227   2.755   1.577
 1024TIP3   OH2 3012   4.078   4.314   1.110
 1024TIP3    H1 3013   3.999   4.282   1.062
 1024TIP3    H2 3014   4.058   4.409   1.113
 1025TIP3   OH2 3015   5.341   3.681   0.250
 1025TIP3    H1 3016   5.373   3.666   0.341
 1025TIP3    H2 3017   5.294   3.598   0.231
 1026TIP3   OH2 3018   4.646   3.582   0.618
 1026TIP3    H1 3019   4.673   3.514   0.682
 1026TIP3    H2 3020   4.717   3.647   0.629
 1027TIP3   OH2 3021   4.608   3.988   0.343
 1027TIP3    H1 3022   4.603   3.891   0.351
 1027TIP3    H2 3023   4.705   4.001   0.347
 1028TIP3   OH2 3024   4.325   3.198   0.130
 1028TIP3    H1 3025   4.273   3.278   0.150
 1028TIP3    H2 3026   4.253   3.137   0.105
 1029TIP3   OH2 3027   4.379   3.481   0.301
 1029TIP3    H1 3028   4.425   3.404   0.341
 1029TIP3    H2 3029   4.445   3.514   0.240
 1030TIP3   OH2 3030   5.144   3.909   0.302
 1030TIP3    H1 3031   5.187   3.835   0.257
 1030TIP3    H2 3032   5.225   3.956   0.332
 1031TIP3   OH2 3033   6.149   3.227   0.308
 1031TIP3    H1 3034   6.175   3.311   0.352
 1031TIP3    H2 3035   6.191   3.240   0.221
 1032TIP3   OH2 3036   5.560   3.417   0.342
 1032TIP3    H1 3037   5.592   3.329   0.365
 1032TIP3    H2 3038   5.522   3.401   0.253
 1033TIP3   OH2 3039   4.895   3.070   0.302
 1033TIP3    H1 3040   4.867   3.146   0.248
 1033TIP3    H2 3041   4.844   2.997   0.259
 1034TIP3   OH2 3042   5.579   3.169  -0.057
 1034TIP3    H1 3043   5.646   3.150   0.011
 1034TIP3    H2 3044   5.632   3.186  -0.136
 1035TIP3   OH2 3045   4.525   3.276   0.408
 1035TIP3    H1 3046   4.606   3.256   0.458
 1035TIP3    H2 3047   4.536   3.215   0.332
 1036TIP3   OH2 3048   4.968   3.475   0.193
 1036TIP3    H1 3049   5.060   3.447   0.214
 1036TIP3    H2 3050   4.925   3.389   0.175
 1037TIP3   OH2 3051   6.222   3.429   0.486
 1037TIP3    H1 3052   6.151   3.488   0.452
 1037TIP3    H2 3053   6.246   3.472   0.569
 1038TIP3   OH2 3054   4.887   3.054   0.736
 1038TIP3    H1 3055   4.826   3.094   0.672
 1038TIP3    H2 3056   4.838   3.072   0.819
 1039TIP3   OH2 3057   4.991   3.829   0.535
 1039TIP3    H1 3058   4.928   3.893   0.576
 1039TIP3    H2 3059   5.037   3.885   0.470
 1040TIP3   OH2 3060   5.797   3.156   0.129
 1040TIP3    H1 3061   5.879   3.103   0.132
 1040TIP3    H2 3062   5.832   3.244   0.159
 1041TIP3   OH2 3063   4.758   3.171   0.521
 1041TIP3    H1 3064   4.818   3.244   0.547
 1041TIP3    H2 3065   4.811   3.129   0.450
 1042TIP3   OH2 3066   4.812   4.019   0.623
 1042TIP3    H1 3067   4.794   4.110   0.590
 1042TIP3    H2 3068   4.736   4.008   0.683
 1043TIP3   OH2 3069   4.213   3.722  -0.141
 1043TIP3    H1 3070   4.140   3.750  -0.198
 1043TIP3    H2 3071   4.236   3.807  -0.097
 1044TIP3   OH2 3072   5.660   4.245   0.134
 1044TIP3    H1 3073   5.571   4.232   0.174
 1044TIP3    H2 3074   5.645   4.327   0.085
 1045TIP3   OH2 3075   5.911   3.127   0.423
 1045TIP3    H1 3076   5.877   3.208   0.464
 1045TIP3    H2 3077   5.998   3.156   0.388
 1046TIP3   OH2 3078   5.239   2.786   0.439
 1046TIP3    H1 3079   5.242   2.692   0.464
 1046TIP3    H2 3080   5.162   2.817   0.493
 1047TIP3   OH2 3081   5.876   4.143   0.463
 1047TIP3    H1 3082   5.886   4.072   0.396
 1047TIP3    H2 3083   5.870   4.223   0.406
 1048TIP3   OH2 3084   6.075   3.776   0.297
 1048TIP3    H1 3085   5.999   3.838   0.307
 1048TIP3    H2 3086   6.101   3.798   0.206
 1049TIP3   OH2 3087   5.755   3.661   0.589
 1049TIP3    H1 3088   5.756   3.741   0.646
 1049TIP3    H2 3089   5.669   3.673   0.544
 1050TIP3   OH2 3090   4.758   3.616   0.088
 1050TIP3    H1 3091   4.712   3.552   0.030
 1050TIP3    H2 3092   4.833   3.563   0.124
 1051TIP3   OH2 3093   4.885   4.021   0.239
 1051TIP3    H1 3094   4.880   3.958   0.166
 1051TIP3    H2 3095   4.975   4.003   0.272
 1052TIP3   OH2 3096   4.896   3.588   0.446
 1052TIP3    H1 3097   4.932   3.577   0.356
 1052TIP3    H2 3098   4.934   3.674   0.474
 1053TIP3   OH2 3099   5.412   4.220   0.229
 1053TIP3    H1 3100   5.393   4.303   0.277
 1053TIP3    H2 3101   5.395   4.152   0.297
 1054TIP3   OH2 3102   5.034   4.140   0.768
 1054TIP3    H1 3103   4.991   4.204   0.828
 1054TIP3    H2 3104   4.957   4.094   0.732
 1055TIP3   OH2 3105   4.779   3.702   0.871
 1055TIP3    H1 3106   4.788   3.789   0.915
 1055TIP3    H2 3107   4.685   3.684   0.888
 1056TIP3   OH2 3108   4.820   4.315   0.858
 1056TIP3    H1 3109   4.785   4.311   0.768
 1056TIP3    H2 3110   4.741   4.294   0.913
 1057TIP3   OH2 3111   4.608   3.455  -0.089
 1057TIP3    H1 3112   4.529   3.495  -0.131
 1057TIP3    H2 3113   4.574   3.369  -0.063
 1058TIP3   OH2 3114   4.401   3.843   0.808
 1058TIP3    H1 3115   4.335   3.820   0.740
 1058TIP3    H2 3116   4.438   3.756   0.833
 1059TIP3   OH2 3117   4.255   4.039   0.437
 1059TIP3    H1 3118   4.352   4.034   0.434
 1059TIP3    H2 3119   4.243   4.115   0.495
 1060TIP3   OH2 3120   6.112   4.491   0.492
 1060TIP3    H1 3121   6.127   4.399   0.520
 1060TIP3    H2 3122   6.033   4.515   0.545
 1061TIP3   OH2 3123   5.225   4.276   0.627
 1061TIP3    H1 3124   5.225   4.368   0.662
 1061TIP3    H2 3125   5.161   4.235   0.689
 1062TIP3   OH2 3126   4.414   4.219  -0.049
 1062TIP3    H1 3127   4.483   4.229   0.020
 1062TIP3    H2 3128   4.336   4.239   0.005
 1063TIP3   OH2 3129   6.015   3.620   0.770
 1063TIP3    H1 3130   5.930   3.637   0.727
 1063TIP3    H2 3131   6.024   3.523   0.762
 1064TIP3   OH2 3132   4.605   4.026   0.798
 1064TIP3    H1 3133   4.656   4.012   0.880
 1064TIP3    H2 3134   4.532   3.962   0.808
 1065TIP3   OH2 3135   5.006   2.852   0.579
 1065TIP3    H1 3136   4.917   2.821   0.554
 1065TIP3    H2 3137   4.981   2.933   0.628
 1066TIP3   OH2 3138   5.540   2.963   0.771
 1066TIP3    H1 3139   5.608   2.934   0.835
 1066TIP3    H2 3140   5.456   2.940   0.816
 1067TIP3   OH2 3141   5.780   3.397   0.688
 1067TIP3    H1 3142   5.732   3.390   0.774
 1067TIP3    H2 3143   5.755   3.486   0.658
 1068TIP3   OH2 3144   4.936   3.365   0.597
 1068TIP3    H1 3145   4.890   3.389   0.680
 1068TIP3    H2 3146   4.922   3.447   0.543
 1069TIP3   OH2 3147   4.814   3.256   0.124
 1069TIP3    H1 3148   4.722   3.230   0.145
 1069TIP3    H2 3149   4.830   3.199   0.046
 1070TIP3   OH2 3150   5.487   3.607   0.914
 1070TIP3    H1 3151   5.470   3.541   0.986
 1070TIP3    H2 3152   5.571   3.647   0.944
 1071TIP3   OH2 3153   5.457   3.369   0.097
 1071TIP3    H1 3154   5.454   3.444   0.033
 1071TIP3    H2 3155   5.490   3.297   0.040
 1072TIP3   OH2 3156   4.754   3.394   0.806
 1072TIP3    H1 3157   4.784   3.461   0.870
 1072TIP3    H2 3158   4.745   3.314   0.862
 1073TIP3   OH2 3159   4.349   2.921   0.384
 1073TIP3    H1 3160   4.426   2.946   0.439
 1073TIP3    H2 3161   4.387   2.880   0.305
 1074TIP3   OH2 3162   4.326   2.900  -0.088
 1074TIP3    H1 3163   4.373   2.934  -0.166
 1074TIP3    H2 3164   4.265   2.974  -0.070
 1075TIP3   OH2 3165   5.469   3.615   0.502
 1075TIP3    H1 3166   5.510   3.545   0.447
 1075TIP3    H2 3167   5.447   3.564   0.583
 1076TIP3   OH2 3168   5.147   3.069   0.175
 1076TIP3    H1 3169   5.060   3.063   0.221
 1076TIP3    H2 3170   5.204   3.092   0.250
 1077TIP3   OH2 3171   4.582   3.128   0.180
 1077TIP3    H1 3172   4.488   3.138   0.154
 1077TIP3    H2 3173   4.600   3.034   0.161
 1078TIP3   OH2 3174   4.846   3.125  -0.112
 1078TIP3    H1 3175   4.943   3.121  -0.129
 1078TIP3    H2 3176   4.824   3.210  -0.152
 1079TIP3   OH2 3177   5.610   3.128   0.372
 1079TIP3    H1 3178   5.607   3.156   0.468
 1079TIP3    H2 3179   5.517   3.097   0.362
 1080TIP3   OH2 3180   5.811   4.836   0.590
 1080TIP3    H1 3181   5.809   4.868   0.497
 1080TIP3    H2 3182   5.879   4.895   0.626
 1081TIP3   OH2 3183   4.768   3.946   1.016
 1081TIP3    H1 3184   4.850   3.976   1.061
 1081TIP3    H2 3185   4.706   3.951   1.091
 1082TIP3   OH2 3186   5.225   3.394   0.268
 1082TIP3    H1 3187   5.309   3.372   0.223
 1082TIP3    H2 3188   5.240   3.363   0.360
 1083TIP3   OH2 3189   4.759   2.889   0.148
 1083TIP3    H1 3190   4.719   2.814   0.196
 1083TIP3    H2 3191   4.810   2.844   0.080
 1084TIP3   OH2 3192   5.211   3.300   0.558
 1084TIP3    H1 3193   5.121   3.337   0.574
 1084TIP3    H2 3194   5.268   3.359   0.612
 1085TIP3   OH2 3195   5.850   3.932   0.272
 1085TIP3    H1 3196   5.833   3.978   0.189
 1085TIP3    H2 3197   5.767   3.881   0.281
 1086TIP3   OH2 3198   5.340   4.004   0.657
 1086TIP3    H1 3199   5.377   3.990   0.745
 1086TIP3    H2 3200   5.304   4.095   0.664
 1087TIP3   OH2 3201   4.633   3.705   0.333
 1087TIP3    H1 3202   4.679   3.677   0.252
 1087TIP3    H2 3203   4.675   3.649   0.401
 1088TIP3   OH2 3204   4.517   3.632   0.946
 1088TIP3    H1 3205   4.540   3.620   1.040
 1088TIP3    H2 3206   4.448   3.565   0.934
 1089TIP3   OH2 3207   5.248   3.730   0.967
 1089TIP3    H1 3208   5.192   3.676   0.909
 1089TIP3    H2 3209   5.337   3.707   0.935
 1090TIP3   OH2 3210   5.500   4.255   0.546
 1090TIP3    H1 3211   5.405   4.268   0.563
 1090TIP3    H2 3212   5.539   4.307   0.619
 1091TIP3   OH2 3213   6.121   4.213   0.578
 1091TIP3    H1 3214   6.024   4.219   0.592
 1091TIP3    H2 3215   6.122   4.170   0.489
 1092TIP3   OH2 3216   5.619   3.779   0.233
 1092TIP3    H1 3217   5.522   3.770   0.226
 1092TIP3    H2 3218   5.649   3.709   0.174
 1093TIP3   OH2 3219   4.713   4.012  -0.065
 1093TIP3    H1 3220   4.768   4.094  -0.074
 1093TIP3    H2 3221   4.640   4.046  -0.011
 1094TIP3   OH2 3222   4.303   3.315  -0.337
 1094TIP3    H1 3223   4.349   3.392  -0.297
 1094TIP3    H2 3224   4.231   3.301  -0.272
 1095TIP3   OH2 3225   4.897   3.814  -0.046
 1095TIP3    H1 3226   4.826   3.881  -0.051
 1095TIP3    H2 3227   4.854   3.745   0.008
 1096TIP3   OH2 3228   5.007   4.356   0.426
 1096TIP3    H1 3229   5.050   4.430   0.379
 1096TIP3    H2 3230   5.080   4.327   0.483
 1097TIP3   OH2 3231   5.393   3.984   0.388
 1097TIP3    H1 3232   5.383   3.990   0.486
 1097TIP3    H2 3233   5.482   3.947   0.381
 1098TIP3   OH2 3234   5.646   4.510   0.452
 1098TIP3    H1 3235   5.562   4.463   0.435
 1098TIP3    H2 3236   5.641   4.582   0.384
 1099TIP3   OH2 3237   4.731   3.135   0.954
 1099TIP3    H1 3238   4.635   3.143   0.971
 1099TIP3    H2 3239   4.759   3.078   1.028
 1100TIP3   OH2 3240   4.447   4.220   0.586
 1100TIP3    H1 3241   4.500   4.147   0.621
 1100TIP3    H2 3242   4.474   4.292   0.645
 1101TIP3   OH2 3243   4.404   3.555  -0.242
 1101TIP3    H1 3244   4.332   3.607  -0.200
 1101TIP3    H2 3245   4.442   3.622  -0.301
 1102TIP3   OH2 3246   5.577   3.198   0.634
 1102TIP3    H1 3247   5.639   3.245   0.692
 1102TIP3    H2 3248   5.555   3.120   0.689
 1103TIP3   OH2 3249   5.135   3.124  -0.096
 1103TIP3    H1 3250   5.181   3.205  -0.118
 1103TIP3    H2 3251   5.143   3.120   0.002
 1104TIP3   OH2 3252   5.405   3.448   0.709
 1104TIP3    H1 3253   5.421   3.511   0.784
 1104TIP3    H2 3254   5.462   3.374   0.735
 1105TIP3   OH2 3255   5.283   2.873   0.014
 1105TIP3    H1 3256   5.252   2.943   0.076
 1105TIP3    H2 3257   5.345   2.924  -0.040
 1106TIP3   OH2 3258   4.792   2.859  -0.221
 1106TIP3    H1 3259   4.784   2.939  -0.165
 1106TIP3    H2 3260   4.887   2.839  -0.206
 1107TIP3   OH2 3261   6.046   3.350   0.700
 1107TIP3    H1 3262   5.947   3.349   0.696
 1107TIP3    H2 3263   6.071   3.333   0.608
 1108TIP3   OH2 3264   5.726   3.563   0.080
 1108TIP3    H1 3265   5.639   3.521   0.087
 1108TIP3    H2 3266   5.783   3.504   0.133
 1109TIP3   OH2 3267   4.364   3.048  -0.317
 1109TIP3    H1 3268   4.349   3.143  -0.336
 1109TIP3    H2 3269   4.294   3.005  -0.367
 1110TIP3   OH2 3270   4.742   2.770   0.555
 1110TIP3    H1 3271   4.710   2.736   0.469
 1110TIP3    H2 3272   4.731   2.692   0.614
 1111TIP3   OH2 3273   4.258   3.987  -0.084
 1111TIP3    H1 3274   4.211   4.020  -0.006
 1111TIP3    H2 3275   4.318   4.062  -0.099
 1112TIP3   OH2 3276   4.435   4.529   1.009
 1112TIP3    H1 3277   4.523   4.528   1.053
 1112TIP3    H2 3278   4.416   4.433   1.006
 1113TIP3   OH2 3279   4.927   4.496   1.050
 1113TIP3    H1 3280   5.024   4.484   1.048
 1113TIP3    H2 3281   4.901   4.438   0.976
 1114TIP3   OH2 3282   5.575   4.387   0.775
 1114TIP3    H1 3283   5.517   4.369   0.850
 1114TIP3    H2 3284   5.635   4.455   0.811
 1115TIP3   OH2 3285   4.567   3.936   1.208
 1115TIP3    H1 3286   4.583   3.840   1.212
 1115TIP3    H2 3287   4.479   3.939   1.164
 1116TIP3   OH2 3288   5.151   3.993   0.986
 1116TIP3    H1 3289   5.148   4.040   0.901
 1116TIP3    H2 3290   5.200   3.911   0.967
 1117TIP3   OH2 3291   5.663   4.022   0.584
 1117TIP3    H1 3292   5.739   4.070   0.545
 1117TIP3    H2 3293   5.594   4.090   0.577
 1118TIP3   OH2 3294   4.686   3.666   1.189
 1118TIP3    H1 3295   4.766   3.615   1.169
 1118TIP3    H2 3296   4.709   3.703   1.276
 1119TIP3   OH2 3297   5.018   3.549   0.844
 1119TIP3    H1 3298   4.946   3.614   0.853
 1119TIP3    H2 3299   5.070   3.586   0.770
 1120TIP3   OH2 3300   5.532   3.915   0.960
 1120TIP3    H1 3301   5.614   3.963   0.949
 1120TIP3    H2 3302   5.532   3.893   1.055
 1121TIP3   OH2 3303   5.144   3.343   0.978
 1121TIP3    H1 3304   5.144   3.263   0.922
 1121TIP3    H2 3305   5.100   3.409   0.920
 1122TIP3   OH2 3306   5.146   3.129   0.782
 1122TIP3    H1 3307   5.173   3.172   0.699
 1122TIP3    H2 3308   5.052   3.107   0.765
 1123TIP3   OH2 3309   5.175   3.661   0.652
 1123TIP3    H1 3310   5.261   3.681   0.612
 1123TIP3    H2 3311   5.119   3.732   0.614
 1124TIP3   OH2 3312   5.757   3.631   1.043
 1124TIP3    H1 3313   5.812   3.553   1.052
 1124TIP3    H2 3314   5.819   3.697   1.008
 1125TIP3   OH2 3315   5.801   3.878   0.769
 1125TIP3    H1 3316   5.737   3.932   0.717
 1125TIP3    H2 3317   5.886   3.906   0.728
 1126TIP3   OH2 3318   5.020   3.457   1.208
 1126TIP3    H1 3319   4.952   3.388   1.221
 1126TIP3    H2 3320   5.056   3.432   1.120
 1127TIP3   OH2 3321   5.278   2.893   0.852
 1127TIP3    H1 3322   5.229   2.975   0.829
 1127TIP3    H2 3323   5.210   2.824   0.839
 1128TIP3   OH2 3324   5.408   3.395   1.068
 1128TIP3    H1 3325   5.398   3.389   1.164
 1128TIP3    H2 3326   5.316   3.374   1.040
 1129TIP3   OH2 3327   5.643   3.335   0.915
 1129TIP3    H1 3328   5.570   3.349   0.978
 1129TIP3    H2 3329   5.718   3.313   0.975
 1130TIP3   OH2 3330   5.873   3.287   1.071
 1130TIP3    H1 3331   5.885   3.192   1.091
 1130TIP3    H2 3332   5.869   3.328   1.161
 1131TIP3   OH2 3333   4.860   3.236   1.258
 1131TIP3    H1 3334   4.870   3.146   1.225
 1131TIP3    H2 3335   4.895   3.227   1.349
 1132TIP3   OH2 3336   5.373   2.901   1.109
 1132TIP3    H1 3337   5.442   2.832   1.102
 1132TIP3    H2 3338   5.335   2.896   1.018
 1133TIP3   OH2 3339   5.438   3.117   1.269
 1133TIP3    H1 3340   5.417   3.047   1.204
 1133TIP3    H2 3341   5.362   3.177   1.261
 1134TIP3   OH2 3342   4.025   4.324   0.025
 1134TIP3    H1 3343   3.965   4.253  -0.007
 1134TIP3    H2 3344   4.090   4.274   0.078
 1135TIP3   OH2 3345   4.208   4.178   0.174
 1135TIP3    H1 3346   4.187   4.117   0.247
 1135TIP3    H2 3347   4.251   4.249   0.225
 1136TIP3   OH2 3348   5.949   4.615   0.301
 1136TIP3    H1 3349   5.906   4.527   0.303
 1136TIP3    H2 3350   6.027   4.595   0.356
 1137TIP3   OH2 3351   5.990   4.286   0.847
 1137TIP3    H1 3352   5.914   4.299   0.908
 1137TIP3    H2 3353   6.029   4.376   0.846
 1138TIP3   OH2 3354   5.832   4.366   0.311
 1138TIP3    H1 3355   5.760   4.405   0.364
 1138TIP3    H2 3356   5.783   4.323   0.238
 1139TIP3   OH2 3357   4.380   3.599   0.556
 1139TIP3    H1 3358   4.378   3.572   0.462
 1139TIP3    H2 3359   4.477   3.600   0.572
 1140TIP3   OH2 3360   6.040   3.950   0.664
 1140TIP3    H1 3361   6.116   3.889   0.653
 1140TIP3    H2 3362   6.062   4.024   0.606
 1141TIP3   OH2 3363   6.229   3.757   0.679
 1141TIP3    H1 3364   6.154   3.711   0.723
 1141TIP3    H2 3365   6.301   3.693   0.697
 1142TIP3   OH2 3366   5.911   3.404   0.208
 1142TIP3    H1 3367   6.001   3.430   0.177
 1142TIP3    H2 3368   5.917   3.447   0.296
 1143TIP3   OH2 3369   5.968   3.557   0.432
 1143TIP3    H1 3370   5.894   3.596   0.482
 1143TIP3    H2 3371   6.007   3.636   0.388
 1144TIP3   OH2 3372   4.593   3.285   1.226
 1144TIP3    H1 3373   4.691   3.281   1.231
 1144TIP3    H2 3374   4.570   3.202   1.272
 1145TIP3   OH2 3375   6.431   3.151   0.988
 1145TIP3    H1 3376   6.490   3.086   0.945
 1145TIP3    H2 3377   6.401   3.206   0.913
 1146TIP3   OH2 3378   4.557   2.977   0.556
 1146TIP3    H1 3379   4.620   2.903   0.570
 1146TIP3    H2 3380   4.618   3.053   0.556
 1147TIP3   OH2 3381   4.361   3.251   0.636
 1147TIP3    H1 3382   4.410   3.250   0.551
 1147TIP3    H2 3383   4.385   3.338   0.670
 1148TIP3   OH2 3384   6.302   3.291   0.795
 1148TIP3    H1 3385   6.216   3.331   0.819
 1148TIP3    H2 3386   6.271   3.221   0.735
 1149TIP3   OH2 3387   4.343   2.759   0.141
 1149TIP3    H1 3388   4.249   2.752   0.165
 1149TIP3    H2 3389   4.340   2.815   0.061
 1150TIP3   OH2 3390   4.561   2.832   0.948
 1150TIP3    H1 3391   4.513   2.831   1.032
 1150TIP3    H2 3392   4.496   2.874   0.889
 1151TIP3   OH2 3393   4.600   4.263   1.025
 1151TIP3    H1 3394   4.508   4.233   1.015
 1151TIP3    H2 3395   4.617   4.245   1.119
 1152TIP3   OH2 3396   4.779   4.289   0.570
 1152TIP3    H1 3397   4.735   4.369   0.534
 1152TIP3    H2 3398   4.867   4.303   0.532
 1153TIP3   OH2 3399   5.219   4.546   0.695
 1153TIP3    H1 3400   5.236   4.513   0.787
 1153TIP3    H2 3401   5.301   4.594   0.674
 1154TIP3   OH2 3402   5.415   4.694   0.567
 1154TIP3    H1 3403   5.486   4.637   0.536
 1154TIP3    H2 3404   5.464   4.753   0.628
 1155TIP3   OH2 3405   6.203   3.052   0.673
 1155TIP3    H1 3406   6.112   3.027   0.646
 1155TIP3    H2 3407   6.244   2.964   0.665
 1156TIP3   OH2 3408   4.455   4.552   0.595
 1156TIP3    H1 3409   4.366   4.589   0.576
 1156TIP3    H2 3410   4.467   4.584   0.686
 1157TIP3   OH2 3411   4.694   4.528   0.456
 1157TIP3    H1 3412   4.607   4.543   0.500
 1157TIP3    H2 3413   4.678   4.562   0.367
 1158TIP3   OH2 3414   5.119   4.558   0.260
 1158TIP3    H1 3415   5.047   4.574   0.196
 1158TIP3    H2 3416   5.133   4.647   0.298
 1159TIP3   OH2 3417   5.382   4.487   0.311
 1159TIP3    H1 3418   5.286   4.501   0.298
 1159TIP3    H2 3419   5.417   4.569   0.273
 1160TIP3   OH2 3420   5.617   4.683   0.254
 1160TIP3    H1 3421   5.553   4.747   0.215
 1160TIP3    H2 3422   5.624   4.620   0.179
 1161TIP3   OH2 3423   4.370   4.344   0.343
 1161TIP3    H1 3424   4.397   4.320   0.434
 1161TIP3    H2 3425   4.441   4.301   0.292
 1162TIP3   OH2 3426   4.562   4.214   0.189
 1162TIP3    H1 3427   4.577   4.136   0.247
 1162TIP3    H2 3428   4.649   4.259   0.194
 1163TIP3   OH2 3429   4.820   4.315   0.212
 1163TIP3    H1 3430   4.863   4.232   0.185
 1163TIP3    H2 3431   4.871   4.334   0.294
 1164TIP3   OH2 3432   5.400   2.965   0.295
 1164TIP3    H1 3433   5.350   2.904   0.353
 1164TIP3    H2 3434   5.449   2.903   0.239
 1165TIP3   OH2 3435   5.894   2.915   0.208
 1165TIP3    H1 3436   5.988   2.926   0.182
 1165TIP3    H2 3437   5.880   2.821   0.190
 1166TIP3   OH2 3438   6.077   2.995  -0.001
 1166TIP3    H1 3439   6.057   2.910  -0.045
 1166TIP3    H2 3440   6.145   3.029  -0.060
 1167TIP3   OH2 3441   4.654   2.679   0.305
 1167TIP3    H1 3442   4.561   2.647   0.307
 1167TIP3    H2 3443   4.701   2.594   0.301
 1168TIP3   OH2 3444   4.429   2.541  -0.049
 1168TIP3    H1 3445   4.475   2.597  -0.116
 1168TIP3    H2 3446   4.407   2.609   0.018
 1169TIP3   OH2 3447   5.096   2.710   0.188
 1169TIP3    H1 3448   5.159   2.763   0.139
 1169TIP3    H2 3449   5.109   2.743   0.278
 1170TIP3   OH2 3450   5.626   2.850   0.163
 1170TIP3    H1 3451   5.643   2.802   0.080
 1170TIP3    H2 3452   5.613   2.772   0.223
 1171TIP3   OH2 3453   4.560   2.694  -0.235
 1171TIP3    H1 3454   4.564   2.652  -0.322
 1171TIP3    H2 3455   4.637   2.754  -0.236
 1172TIP3   OH2 3456   5.059   2.862  -0.158
 1172TIP3    H1 3457   5.125   2.829  -0.095
 1172TIP3    H2 3458   5.088   2.955  -0.164
 1173TIP3   OH2 3459   4.861   2.956   1.194
 1173TIP3    H1 3460   4.825   2.889   1.254
 1173TIP3    H2 3461   4.955   2.957   1.223
 1174TIP3   OH2 3462   5.109   2.955   1.316
 1174TIP3    H1 3463   5.195   2.933   1.277
 1174TIP3    H2 3464   5.099   2.884   1.383
 1175TIP3   OH2 3465   5.933   3.015   1.104
 1175TIP3    H1 3466   5.952   2.984   1.195
 1175TIP3    H2 3467   6.022   3.010   1.062
 1176TIP3   OH2 3468   5.872   4.567   0.609
 1176TIP3    H1 3469   5.792   4.536   0.560
 1176TIP3    H2 3470   5.861   4.664   0.599
 1177TIP3   OH2 3471   6.697   3.310   0.238
 1177TIP3    H1 3472   6.645   3.301   0.157
 1177TIP3    H2 3473   6.630   3.334   0.305
 1178TIP3   OH2 3474   6.575   3.957   0.380
 1178TIP3    H1 3475   6.563   4.037   0.436
 1178TIP3    H2 3476   6.482   3.927   0.378
 1179TIP3   OH2 3477   6.148   4.074   0.354
 1179TIP3    H1 3478   6.164   4.082   0.257
 1179TIP3    H2 3479   6.207   3.998   0.372
 1180TIP3   OH2 3480   6.369   4.246   0.323
 1180TIP3    H1 3481   6.422   4.265   0.402
 1180TIP3    H2 3482   6.288   4.209   0.361
 1181TIP3   OH2 3483   7.306   3.193   0.267
 1181TIP3    H1 3484   7.390   3.200   0.315
 1181TIP3    H2 3485   7.243   3.220   0.335
 1182TIP3   OH2 3486   7.294   3.894   0.457
 1182TIP3    H1 3487   7.270   3.807   0.497
 1182TIP3    H2 3488   7.392   3.886   0.459
 1183TIP3   OH2 3489   6.530   3.653   0.285
 1183TIP3    H1 3490   6.559   3.718   0.350
 1183TIP3    H2 3491   6.536   3.570   0.336
 1184TIP3   OH2 3492   6.572   4.200   0.513
 1184TIP3    H1 3493   6.647   4.234   0.567
 1184TIP3    H2 3494   6.499   4.218   0.577
 1185TIP3   OH2 3495   6.319   3.877   0.433
 1185TIP3    H1 3496   6.338   3.868   0.529
 1185TIP3    H2 3497   6.247   3.812   0.421
 1186TIP3   OH2 3498   7.036   4.003   0.470
 1186TIP3    H1 3499   6.982   3.944   0.414
 1186TIP3    H2 3500   7.126   3.975   0.447
 1187TIP3   OH2 3501   6.522   3.397   0.440
 1187TIP3    H1 3502   6.427   3.399   0.461
 1187TIP3    H2 3503   6.556   3.337   0.508
 1188TIP3   OH2 3504   6.521   3.042   0.096
 1188TIP3    H1 3505   6.541   3.011   0.006
 1188TIP3    H2 3506   6.533   2.960   0.147
 1189TIP3   OH2 3507   6.210   4.762   0.537
 1189TIP3    H1 3508   6.305   4.775   0.550
 1189TIP3    H2 3509   6.207   4.677   0.489
 1190TIP3   OH2 3510   6.735   4.750   0.500
 1190TIP3    H1 3511   6.818   4.721   0.541
 1190TIP3    H2 3512   6.701   4.666   0.465
 1191TIP3   OH2 3513   6.366   4.186   0.703
 1191TIP3    H1 3514   6.374   4.090   0.699
 1191TIP3    H2 3515   6.275   4.201   0.669
 1192TIP3   OH2 3516   6.966   4.280   0.479
 1192TIP3    H1 3517   6.898   4.234   0.428
 1192TIP3    H2 3518   7.025   4.204   0.498
 1193TIP3   OH2 3519   6.484   3.920   0.675
 1193TIP3    H1 3520   6.559   3.861   0.664
 1193TIP3    H2 3521   6.506   3.962   0.761
 1194TIP3   OH2 3522   6.823   3.819   0.334
 1194TIP3    H1 3523   6.743   3.854   0.376
 1194TIP3    H2 3524   6.828   3.877   0.256
 1195TIP3   OH2 3525   7.313   4.209   0.505
 1195TIP3    H1 3526   7.367   4.162   0.439
 1195TIP3    H2 3527   7.313   4.144   0.578
 1196TIP3   OH2 3528   6.934   3.598   0.467
 1196TIP3    H1 3529   6.941   3.518   0.410
 1196TIP3    H2 3530   6.900   3.664   0.403
 1197TIP3   OH2 3531   6.949   3.397   0.278
 1197TIP3    H1 3532   6.992   3.395   0.191
 1197TIP3    H2 3533   6.858   3.364   0.258
 1198TIP3   OH2 3534   7.566   3.893   0.548
 1198TIP3    H1 3535   7.590   3.801   0.526
 1198TIP3    H2 3536   7.633   3.943   0.497
 1199TIP3   OH2 3537   6.813   3.716   0.689
 1199TIP3    H1 3538   6.747   3.647   0.708
 1199TIP3    H2 3539   6.853   3.682   0.606
 1200TIP3   OH2 3540   7.047   3.153   0.382
 1200TIP3    H1 3541   7.017   3.233   0.335
 1200TIP3    H2 3542   6.982   3.087   0.351
 1201TIP3   OH2 3543   7.193   3.659   0.557
 1201TIP3    H1 3544   7.184   3.642   0.652
 1201TIP3    H2 3545   7.105   3.631   0.526
 1202TIP3   OH2 3546   7.437   3.638   0.410
 1202TIP3    H1 3547   7.364   3.605   0.464
 1202TIP3    H2 3548   7.515   3.596   0.450
 1203TIP3   OH2 3549   7.659   3.565   0.552
 1203TIP3    H1 3550   7.675   3.471   0.573
 1203TIP3    H2 3551   7.669   3.606   0.640
 1204TIP3   OH2 3552   6.657   3.495   0.746
 1204TIP3    H1 3553   6.664   3.404   0.710
 1204TIP3    H2 3554   6.693   3.481   0.836
 1205TIP3   OH2 3555   7.176   3.155   0.617
 1205TIP3    H1 3556   7.237   3.081   0.601
 1205TIP3    H2 3557   7.124   3.154   0.534
 1206TIP3   OH2 3558   7.239   3.380   0.760
 1206TIP3    H1 3559   7.219   3.305   0.699
 1206TIP3    H2 3560   7.160   3.437   0.750
 1207TIP3   OH2 3561   6.390   3.541   0.713
 1207TIP3    H1 3562   6.488   3.536   0.717
 1207TIP3    H2 3563   6.367   3.458   0.758
 1208TIP3   OH2 3564   6.333   3.241   0.064
 1208TIP3    H1 3565   6.383   3.157   0.075
 1208TIP3    H2 3566   6.410   3.300   0.054
 1209TIP3   OH2 3567   6.168   3.506   0.187
 1209TIP3    H1 3568   6.179   3.486   0.092
 1209TIP3    H2 3569   6.194   3.599   0.190
 1210TIP3   OH2 3570   6.360   3.094   0.439
 1210TIP3    H1 3571   6.311   3.087   0.523
 1210TIP3    H2 3572   6.291   3.130   0.381
 1211TIP3   OH2 3573   6.413   4.452   0.561
 1211TIP3    H1 3574   6.375   4.492   0.481
 1211TIP3    H2 3575   6.374   4.506   0.630
 1212TIP3   OH2 3576   6.657   3.216   0.684
 1212TIP3    H1 3577   6.622   3.146   0.742
 1212TIP3    H2 3578   6.751   3.216   0.711
 1213TIP3   OH2 3579   6.906   3.212   0.804
 1213TIP3    H1 3580   6.992   3.189   0.765
 1213TIP3    H2 3581   6.895   3.142   0.871
 1214TIP3   OH2 3582   7.713   3.302   0.619
 1214TIP3    H1 3583   7.736   3.273   0.709
 1214TIP3    H2 3584   7.788   3.269   0.567
 1215TIP3   OH2 3585   0.412   4.267   1.486
 1215TIP3    H1 3586   0.434   4.353   1.527
 1215TIP3    H2 3587   0.412   4.292   1.392
 1216TIP3   OH2 3588  -0.191   4.460   1.508
 1216TIP3    H1 3589  -0.157   4.380   1.553
 1216TIP3    H2 3590  -0.141   4.456   1.426
 1217TIP3   OH2 3591   0.475   4.479   1.656
 1217TIP3    H1 3592   0.395   4.530   1.630
 1217TIP3    H2 3593   0.494   4.518   1.743
 1218TIP3   OH2 3594   0.057   4.186   1.294
 1218TIP3    H1 3595   0.070   4.189   1.389
 1218TIP3    H2 3596   0.080   4.278   1.273
 1219TIP3   OH2 3597   0.192   4.169   1.634
 1219TIP3    H1 3598   0.108   4.213   1.613
 1219TIP3    H2 3599   0.255   4.210   1.571
 1220TIP3   OH2 3600   0.125   5.203   1.622
 1220TIP3    H1 3601   0.132   5.118   1.573
 1220TIP3    H2 3602   0.111   5.265   1.550
 1221TIP3   OH2 3603   0.327   4.818   1.475
 1221TIP3    H1 3604   0.254   4.882   1.480
 1221TIP3    H2 3605   0.362   4.841   1.385
 1222TIP3   OH2 3606   0.011   4.707   1.768
 1222TIP3    H1 3607   0.003   4.789   1.821
 1222TIP3    H2 3608  -0.080   4.703   1.730
 1223TIP3   OH2 3609   0.387   5.510   1.690
 1223TIP3    H1 3610   0.376   5.413   1.698
 1223TIP3    H2 3611   0.299   5.542   1.718
 1224TIP3   OH2 3612   0.256   4.661   1.949
 1224TIP3    H1 3613   0.179   4.675   1.892
 1224TIP3    H2 3614   0.271   4.565   1.938
 1225TIP3   OH2 3615  -0.207   4.036   1.975
 1225TIP3    H1 3616  -0.142   3.988   2.028
 1225TIP3    H2 3617  -0.289   3.985   1.988
 1226TIP3   OH2 3618   0.029   4.439   1.867
 1226TIP3    H1 3619  -0.019   4.435   1.952
 1226TIP3    H2 3620   0.005   4.527   1.833
 1227TIP3   OH2 3621  -0.228   4.653   2.101
 1227TIP3    H1 3622  -0.251   4.577   2.159
 1227TIP3    H2 3623  -0.134   4.667   2.127
 1228TIP3   OH2 3624  -0.246   4.667   1.676
 1228TIP3    H1 3625  -0.234   4.589   1.618
 1228TIP3    H2 3626  -0.304   4.629   1.746
 1229TIP3   OH2 3627  -0.100   4.206   1.569
 1229TIP3    H1 3628  -0.141   4.214   1.658
 1229TIP3    H2 3629  -0.165   4.150   1.523
 1230TIP3   OH2 3630  -0.530   4.327   1.768
 1230TIP3    H1 3631  -0.589   4.400   1.788
 1230TIP3    H2 3632  -0.447   4.369   1.797
 1231TIP3   OH2 3633   0.111   4.987   1.457
 1231TIP3    H1 3634   0.113   5.002   1.361
 1231TIP3    H2 3635   0.023   4.948   1.474
 1232TIP3   OH2 3636  -0.476   4.742   2.097
 1232TIP3    H1 3637  -0.489   4.739   2.002
 1232TIP3    H2 3638  -0.381   4.718   2.101
 1233TIP3   OH2 3639   0.380   5.230   1.718
 1233TIP3    H1 3640   0.282   5.235   1.711
 1233TIP3    H2 3641   0.402   5.204   1.625
 1234TIP3   OH2 3642  -0.193   4.259   1.821
 1234TIP3    H1 3643  -0.108   4.290   1.856
 1234TIP3    H2 3644  -0.207   4.178   1.876
 1235TIP3   OH2 3645  -0.338   4.507   1.885
 1235TIP3    H1 3646  -0.304   4.552   1.965
 1235TIP3    H2 3647  -0.290   4.423   1.888
 1236TIP3   OH2 3648   0.296   4.394   1.871
 1236TIP3    H1 3649   0.198   4.391   1.873
 1236TIP3    H2 3650   0.313   4.373   1.778
 1237TIP3   OH2 3651  -0.209   5.506   2.060
 1237TIP3    H1 3652  -0.221   5.410   2.053
 1237TIP3    H2 3653  -0.118   5.521   2.028
 1238TIP3   OH2 3654  -0.074   5.064   1.762
 1238TIP3    H1 3655  -0.008   5.129   1.728
 1238TIP3    H2 3656  -0.157   5.099   1.723
 1239TIP3   OH2 3657  -0.218   4.987   2.176
 1239TIP3    H1 3658  -0.146   4.974   2.113
 1239TIP3    H2 3659  -0.200   4.919   2.244
 1240TIP3   OH2 3660   0.017   4.675   2.219
 1240TIP3    H1 3661   0.066   4.592   2.228
 1240TIP3    H2 3662   0.083   4.733   2.180
 1241TIP3   OH2 3663   0.050   4.928   1.956
 1241TIP3    H1 3664  -0.008   4.981   1.897
 1241TIP3    H2 3665   0.137   4.947   1.915
 1242TIP3   OH2 3666  -0.489   3.964   2.042
 1242TIP3    H1 3667  -0.530   4.045   2.008
 1242TIP3    H2 3668  -0.555   3.897   2.018
 1243TIP3   OH2 3669  -0.329   4.443   2.241
 1243TIP3    H1 3670  -0.331   4.458   2.337
 1243TIP3    H2 3671  -0.408   4.388   2.228
 1244TIP3   OH2 3672  -0.099   4.389   2.098
 1244TIP3    H1 3673  -0.176   4.388   2.158
 1244TIP3    H2 3674  -0.026   4.358   2.156
 1245TIP3   OH2 3675   0.125   4.330   2.251
 1245TIP3    H1 3676   0.134   4.235   2.272
 1245TIP3    H2 3677   0.119   4.371   2.340
 1246TIP3   OH2 3678  -0.368   3.951   2.287
 1246TIP3    H1 3679  -0.303   3.880   2.273
 1246TIP3    H2 3680  -0.414   3.953   2.200
 1247TIP3   OH2 3681  -0.327   4.173   2.441
 1247TIP3    H1 3682  -0.335   4.092   2.384
 1247TIP3    H2 3683  -0.416   4.209   2.437
 1248TIP3   OH2 3684   0.243   5.335   2.011
 1248TIP3    H1 3685   0.173   5.344   2.078
 1248TIP3    H2 3686   0.287   5.422   2.016
 1249TIP3   OH2 3687   0.288   4.996   1.839
 1249TIP3    H1 3688   0.361   4.929   1.834
 1249TIP3    H2 3689   0.324   5.068   1.785
 1250TIP3   OH2 3690   0.471   4.802   1.867
 1250TIP3    H1 3691   0.398   4.748   1.905
 1250TIP3    H2 3692   0.546   4.740   1.878
 1251TIP3   OH2 3693   0.176   4.425   1.406
 1251TIP3    H1 3694   0.238   4.467   1.343
 1251TIP3    H2 3695   0.179   4.489   1.478
 1252TIP3   OH2 3696   0.229   4.606   1.617
 1252TIP3    H1 3697   0.151   4.645   1.661
 1252TIP3    H2 3698   0.264   4.683   1.566
 1253TIP3   OH2 3699   0.678   4.194   2.166
 1253TIP3    H1 3700   0.738   4.130   2.122
 1253TIP3    H2 3701   0.649   4.250   2.090
 1254TIP3   OH2 3702   0.550   4.337   1.973
 1254TIP3    H1 3703   0.463   4.377   1.992
 1254TIP3    H2 3704   0.522   4.267   1.911
 1255TIP3   OH2 3705   0.449   4.100   1.850
 1255TIP3    H1 3706   0.358   4.098   1.815
 1255TIP3    H2 3707   0.477   4.007   1.836
 1256TIP3   OH2 3708   0.181   4.058   2.280
 1256TIP3    H1 3709   0.200   4.028   2.372
 1256TIP3    H2 3710   0.270   4.056   2.240
 1257TIP3   OH2 3711   0.133   5.589   1.759
 1257TIP3    H1 3712   0.051   5.538   1.762
 1257TIP3    H2 3713   0.098   5.680   1.753
 1258TIP3   OH2 3714   1.392   4.981   0.545
 1258TIP3    H1 3715   1.358   5.071   0.527
 1258TIP3    H2 3716   1.311   4.929   0.532
 1259TIP3   OH2 3717   1.392   4.981   0.914
 1259TIP3    H1 3718   1.419   4.960   1.005
 1259TIP3    H2 3719   1.346   4.899   0.888
 1260TIP3   OH2 3720   0.687   4.886   1.293
 1260TIP3    H1 3721   0.724   4.817   1.351
 1260TIP3    H2 3722   0.764   4.942   1.277
 1261TIP3   OH2 3723   1.628   5.284   0.601
 1261TIP3    H1 3724   1.618   5.218   0.671
 1261TIP3    H2 3725   1.655   5.363   0.652
 1262TIP3   OH2 3726   0.649   5.257   0.988
 1262TIP3    H1 3727   0.653   5.160   1.003
 1262TIP3    H2 3728   0.745   5.276   0.980
 1263TIP3   OH2 3729   0.442   4.777   0.978
 1263TIP3    H1 3730   0.487   4.697   1.014
 1263TIP3    H2 3731   0.488   4.792   0.896
 1264TIP3   OH2 3732   1.314   5.738   0.621
 1264TIP3    H1 3733   1.363   5.679   0.561
 1264TIP3    H2 3734   1.336   5.702   0.707
 1265TIP3   OH2 3735   1.199   5.195   0.971
 1265TIP3    H1 3736   1.251   5.127   0.926
 1265TIP3    H2 3737   1.272   5.257   0.994
 1266TIP3   OH2 3738   2.193   4.534   0.966
 1266TIP3    H1 3739   2.228   4.614   1.010
 1266TIP3    H2 3740   2.220   4.550   0.874
 1267TIP3   OH2 3741   1.596   4.713   1.005
 1267TIP3    H1 3742   1.641   4.629   1.023
 1267TIP3    H2 3743   1.569   4.699   0.912
 1268TIP3   OH2 3744   0.939   4.376   0.970
 1268TIP3    H1 3745   0.917   4.450   0.910
 1268TIP3    H2 3746   0.893   4.302   0.924
 1269TIP3   OH2 3747   1.630   4.461   0.593
 1269TIP3    H1 3748   1.704   4.446   0.656
 1269TIP3    H2 3749   1.680   4.498   0.518
 1270TIP3   OH2 3750   0.572   4.563   1.080
 1270TIP3    H1 3751   0.658   4.547   1.124
 1270TIP3    H2 3752   0.584   4.509   0.998
 1271TIP3   OH2 3753   1.014   4.776   0.856
 1271TIP3    H1 3754   1.106   4.749   0.876
 1271TIP3    H2 3755   0.972   4.691   0.835
 1272TIP3   OH2 3756   2.273   4.741   1.135
 1272TIP3    H1 3757   2.189   4.787   1.116
 1272TIP3    H2 3758   2.283   4.763   1.229
 1273TIP3   OH2 3759   0.932   4.355   1.403
 1273TIP3    H1 3760   0.875   4.395   1.334
 1273TIP3    H2 3761   0.880   4.376   1.483
 1274TIP3   OH2 3762   1.257   5.187   0.417
 1274TIP3    H1 3763   1.266   5.176   0.322
 1274TIP3    H2 3764   1.269   5.282   0.429
 1275TIP3   OH2 3765   1.038   5.132   1.200
 1275TIP3    H1 3766   0.976   5.199   1.236
 1275TIP3    H2 3767   1.073   5.179   1.122
 1276TIP3   OH2 3768   1.843   4.466   0.760
 1276TIP3    H1 3769   1.840   4.412   0.840
 1276TIP3    H2 3770   1.897   4.542   0.787
 1277TIP3   OH2 3771   0.807   4.470   1.189
 1277TIP3    H1 3772   0.867   4.545   1.211
 1277TIP3    H2 3773   0.855   4.432   1.112
 1278TIP3   OH2 3774   0.858   5.321   1.293
 1278TIP3    H1 3775   0.833   5.395   1.235
 1278TIP3    H2 3776   0.779   5.319   1.351
 1279TIP3   OH2 3777   1.704   5.525   0.768
 1279TIP3    H1 3778   1.616   5.519   0.813
 1279TIP3    H2 3779   1.697   5.614   0.727
 1280TIP3   OH2 3780   1.991   4.435   1.136
 1280TIP3    H1 3781   1.904   4.461   1.101
 1280TIP3    H2 3782   2.052   4.463   1.064
 1281TIP3   OH2 3783   1.291   4.079   1.113
 1281TIP3    H1 3784   1.277   3.983   1.127
 1281TIP3    H2 3785   1.214   4.115   1.161
 1282TIP3   OH2 3786   1.444   5.582   0.434
 1282TIP3    H1 3787   1.486   5.496   0.409
 1282TIP3    H2 3788   1.510   5.645   0.399
 1283TIP3   OH2 3789   1.543   5.344   0.347
 1283TIP3    H1 3790   1.539   5.265   0.289
 1283TIP3    H2 3791   1.580   5.308   0.430
 1284TIP3   OH2 3792   1.930   5.445   1.114
 1284TIP3    H1 3793   1.916   5.367   1.055
 1284TIP3    H2 3794   1.909   5.519   1.053
 1285TIP3   OH2 3795   1.206   4.810   0.413
 1285TIP3    H1 3796   1.115   4.807   0.382
 1285TIP3    H2 3797   1.247   4.854   0.336
 1286TIP3   OH2 3798   1.199   4.556   0.195
 1286TIP3    H1 3799   1.270   4.620   0.196
 1286TIP3    H2 3800   1.190   4.540   0.101
 1287TIP3   OH2 3801   2.123   5.082   0.958
 1287TIP3    H1 3802   2.039   5.133   0.963
 1287TIP3    H2 3803   2.152   5.105   0.867
 1288TIP3   OH2 3804   1.570   4.897   0.357
 1288TIP3    H1 3805   1.515   4.925   0.434
 1288TIP3    H2 3806   1.655   4.876   0.402
 1289TIP3   OH2 3807   1.801   4.961   1.253
 1289TIP3    H1 3808   1.798   5.045   1.302
 1289TIP3    H2 3809   1.715   4.964   1.207
 1290TIP3   OH2 3810   0.788   4.909   0.764
 1290TIP3    H1 3811   0.765   4.856   0.687
 1290TIP3    H2 3812   0.875   4.874   0.790
 1291TIP3   OH2 3813   0.913   5.283   0.932
 1291TIP3    H1 3814   0.921   5.288   0.837
 1291TIP3    H2 3815   0.996   5.326   0.960
 1292TIP3   OH2 3816   0.939   4.890   1.113
 1292TIP3    H1 3817   0.971   4.878   1.022
 1292TIP3    H2 3818   0.976   4.979   1.136
 1293TIP3   OH2 3819   1.463   5.525   0.890
 1293TIP3    H1 3820   1.437   5.602   0.942
 1293TIP3    H2 3821   1.442   5.451   0.950
 1294TIP3   OH2 3822   1.063   5.426   1.453
 1294TIP3    H1 3823   1.011   5.503   1.486
 1294TIP3    H2 3824   0.999   5.388   1.389
 1295TIP3   OH2 3825   1.451   4.756   0.157
 1295TIP3    H1 3826   1.490   4.816   0.225
 1295TIP3    H2 3827   1.475   4.798   0.074
 1296TIP3   OH2 3828   0.830   4.998   1.543
 1296TIP3    H1 3829   0.835   5.088   1.583
 1296TIP3    H2 3830   0.733   4.985   1.543
 1297TIP3   OH2 3831   0.875   5.621   1.539
 1297TIP3    H1 3832   0.851   5.629   1.444
 1297TIP3    H2 3833   0.791   5.591   1.580
 1298TIP3   OH2 3834   1.925   4.024   0.213
 1298TIP3    H1 3835   1.844   4.037   0.265
 1298TIP3    H2 3836   1.931   4.109   0.165
 1299TIP3   OH2 3837   0.436   5.135   1.469
 1299TIP3    H1 3838   0.431   5.109   1.376
 1299TIP3    H2 3839   0.483   5.057   1.508
 1300TIP3   OH2 3840   2.165   5.788   1.159
 1300TIP3    H1 3841   2.163   5.692   1.171
 1300TIP3    H2 3842   2.081   5.813   1.204
 1301TIP3   OH2 3843   1.297   5.567   1.322
 1301TIP3    H1 3844   1.278   5.662   1.317
 1301TIP3    H2 3845   1.207   5.533   1.304
 1302TIP3   OH2 3846   2.055   4.920   1.434
 1302TIP3    H1 3847   1.975   4.934   1.381
 1302TIP3    H2 3848   2.071   4.825   1.421
 1303TIP3   OH2 3849   0.650   5.321   1.469
 1303TIP3    H1 3850   0.703   5.306   1.550
 1303TIP3    H2 3851   0.574   5.261   1.480
 1304TIP3   OH2 3852   1.054   4.151   1.244
 1304TIP3    H1 3853   0.964   4.121   1.219
 1304TIP3    H2 3854   1.031   4.236   1.286
 1305TIP3   OH2 3855   1.585   4.267   1.437
 1305TIP3    H1 3856   1.653   4.239   1.501
 1305TIP3    H2 3857   1.501   4.247   1.484
 1306TIP3   OH2 3858   1.824   4.696   1.356
 1306TIP3    H1 3859   1.773   4.692   1.440
 1306TIP3    H2 3860   1.800   4.783   1.320
 1307TIP3   OH2 3861   1.183   4.218   0.213
 1307TIP3    H1 3862   1.173   4.212   0.309
 1307TIP3    H2 3863   1.180   4.125   0.188
 1308TIP3   OH2 3864   0.981   4.668   1.262
 1308TIP3    H1 3865   0.932   4.693   1.343
 1308TIP3    H2 3866   0.969   4.749   1.207
 1309TIP3   OH2 3867   0.860   4.557   0.786
 1309TIP3    H1 3868   0.766   4.533   0.798
 1309TIP3    H2 3869   0.876   4.522   0.696
 1310TIP3   OH2 3870   1.371   4.621   0.516
 1310TIP3    H1 3871   1.310   4.688   0.477
 1310TIP3    H2 3872   1.421   4.591   0.437
 1311TIP3   OH2 3873   1.532   4.918   1.590
 1311TIP3    H1 3874   1.511   4.845   1.652
 1311TIP3    H2 3875   1.626   4.932   1.610
 1312TIP3   OH2 3876   1.517   4.667   0.747
 1312TIP3    H1 3877   1.458   4.692   0.673
 1312TIP3    H2 3878   1.551   4.583   0.707
 1313TIP3   OH2 3879   0.801   4.697   1.471
 1313TIP3    H1 3880   0.832   4.762   1.535
 1313TIP3    H2 3881   0.792   4.616   1.525
 1314TIP3   OH2 3882   0.428   4.216   1.042
 1314TIP3    H1 3883   0.473   4.260   1.117
 1314TIP3    H2 3884   0.503   4.201   0.984
 1315TIP3   OH2 3885   1.525   4.914   1.167
 1315TIP3    H1 3886   1.557   4.842   1.109
 1315TIP3    H2 3887   1.494   4.862   1.244
 1316TIP3   OH2 3888   1.192   4.377   0.838
 1316TIP3    H1 3889   1.110   4.375   0.892
 1316TIP3    H2 3890   1.261   4.376   0.906
 1317TIP3   OH2 3891   0.622   4.424   0.853
 1317TIP3    H1 3892   0.550   4.439   0.787
 1317TIP3    H2 3893   0.661   4.340   0.823
 1318TIP3   OH2 3894   0.907   4.460   0.539
 1318TIP3    H1 3895   1.004   4.447   0.539
 1318TIP3    H2 3896   0.886   4.456   0.446
 1319TIP3   OH2 3897   1.686   4.452   1.040
 1319TIP3    H1 3898   1.649   4.463   1.130
 1319TIP3    H2 3899   1.622   4.389   1.001
 1320TIP3   OH2 3900   1.854   6.140   1.257
 1320TIP3    H1 3901   1.849   6.159   1.161
 1320TIP3    H2 3902   1.932   6.190   1.283
 1321TIP3   OH2 3903   0.812   5.243   1.684
 1321TIP3    H1 3904   0.894   5.280   1.723
 1321TIP3    H2 3905   0.750   5.255   1.758
 1322TIP3   OH2 3906   1.276   4.701   0.933
 1322TIP3    H1 3907   1.351   4.666   0.882
 1322TIP3    H2 3908   1.290   4.661   1.020
 1323TIP3   OH2 3909   0.801   4.201   0.813
 1323TIP3    H1 3910   0.768   4.121   0.858
 1323TIP3    H2 3911   0.842   4.157   0.735
 1324TIP3   OH2 3912   1.253   4.596   1.231
 1324TIP3    H1 3913   1.165   4.637   1.239
 1324TIP3    H2 3914   1.312   4.659   1.276
 1325TIP3   OH2 3915   1.891   5.227   0.951
 1325TIP3    H1 3916   1.914   5.277   0.870
 1325TIP3    H2 3917   1.806   5.185   0.926
 1326TIP3   OH2 3918   1.453   4.295   0.182
 1326TIP3    H1 3919   1.358   4.285   0.166
 1326TIP3    H2 3920   1.462   4.391   0.194
 1327TIP3   OH2 3921   1.396   5.312   1.318
 1327TIP3    H1 3922   1.406   5.287   1.410
 1327TIP3    H2 3923   1.359   5.402   1.325
 1328TIP3   OH2 3924   1.525   4.539   0.297
 1328TIP3    H1 3925   1.621   4.545   0.308
 1328TIP3    H2 3926   1.507   4.613   0.235
 1329TIP3   OH2 3927   0.681   4.988   1.002
 1329TIP3    H1 3928   0.719   4.966   0.914
 1329TIP3    H2 3929   0.730   4.927   1.060
 1330TIP3   OH2 3930   0.559   4.939   1.612
 1330TIP3    H1 3931   0.587   4.923   1.705
 1330TIP3    H2 3932   0.497   4.865   1.597
 1331TIP3   OH2 3933   1.287   5.043   1.630
 1331TIP3    H1 3934   1.229   4.989   1.574
 1331TIP3    H2 3935   1.376   5.012   1.601
 1332TIP3   OH2 3936   1.559   5.567   1.215
 1332TIP3    H1 3937   1.462   5.560   1.225
 1332TIP3    H2 3938   1.580   5.622   1.293
 1333TIP3   OH2 3939   1.960   4.638   0.121
 1333TIP3    H1 3940   1.899   4.594   0.057
 1333TIP3    H2 3941   1.958   4.727   0.082
 1334TIP3   OH2 3942   2.180   5.498   1.201
 1334TIP3    H1 3943   2.082   5.493   1.194
 1334TIP3    H2 3944   2.205   5.467   1.112
 1335TIP3   OH2 3945   1.657   5.088   0.870
 1335TIP3    H1 3946   1.564   5.064   0.882
 1335TIP3    H2 3947   1.690   5.008   0.823
 1336TIP3   OH2 3948   1.445   5.292   1.049
 1336TIP3    H1 3949   1.430   5.293   1.146
 1336TIP3    H2 3950   1.527   5.241   1.042
 1337TIP3   OH2 3951   1.692   5.831   1.098
 1337TIP3    H1 3952   1.613   5.774   1.091
 1337TIP3    H2 3953   1.675   5.895   1.026
 1338TIP3   OH2 3954   0.775   4.439   1.619
 1338TIP3    H1 3955   0.678   4.442   1.631
 1338TIP3    H2 3956   0.802   4.378   1.691
 1339TIP3   OH2 3957   1.544   5.110   0.187
 1339TIP3    H1 3958   1.569   5.038   0.248
 1339TIP3    H2 3959   1.629   5.131   0.144
 1340TIP3   OH2 3960   0.447   5.581   1.369
 1340TIP3    H1 3961   0.466   5.498   1.322
 1340TIP3    H2 3962   0.538   5.609   1.385
 1341TIP3   OH2 3963   1.609   4.504   1.299
 1341TIP3    H1 3964   1.691   4.541   1.335
 1341TIP3    H2 3965   1.597   4.423   1.353
 1342TIP3   OH2 3966   1.483   4.258   0.461
 1342TIP3    H1 3967   1.473   4.276   0.365
 1342TIP3    H2 3968   1.524   4.341   0.493
 1343TIP3   OH2 3969   1.178   4.434   0.570
 1343TIP3    H1 3970   1.251   4.496   0.548
 1343TIP3    H2 3971   1.187   4.427   0.667
 1344TIP3   OH2 3972   1.449   4.753   1.373
 1344TIP3    H1 3973   1.469   4.808   1.452
 1344TIP3    H2 3974   1.505   4.675   1.387
 1345TIP3   OH2 3975   1.336   4.163   0.675
 1345TIP3    H1 3976   1.332   4.240   0.735
 1345TIP3    H2 3977   1.392   4.199   0.602
 1346TIP3   OH2 3978   0.880   4.209   0.403
 1346TIP3    H1 3979   0.834   4.251   0.477
 1346TIP3    H2 3980   0.967   4.189   0.445
 1347TIP3   OH2 3981   2.092   4.654   1.352
 1347TIP3    H1 3982   1.994   4.652   1.360
 1347TIP3    H2 3983   2.103   4.610   1.267
 1348TIP3   OH2 3984   1.741   4.847   0.741
 1348TIP3    H1 3985   1.666   4.787   0.754
 1348TIP3    H2 3986   1.814   4.801   0.789
 1349TIP3   OH2 3987   1.714   5.790   0.699
 1349TIP3    H1 3988   1.664   5.846   0.634
 1349TIP3    H2 3989   1.805   5.815   0.674
 1350TIP3   OH2 3990   0.790   4.070   1.223
 1350TIP3    H1 3991   0.747   4.042   1.140
 1350TIP3    H2 3992   0.778   3.993   1.282
 1351TIP3   OH2 3993   0.459   5.788   1.712
 1351TIP3    H1 3994   0.551   5.821   1.727
 1351TIP3    H2 3995   0.476   5.693   1.699
 1352TIP3   OH2 3996   0.973   5.803   1.717
 1352TIP3    H1 3997   1.064   5.771   1.717
 1352TIP3    H2 3998   0.935   5.743   1.649
 1353TIP3   OH2 3999   1.601   5.707   1.451
 1353TIP3    H1 4000   1.589   5.634   1.516
 1353TIP3    H2 4001   1.681   5.752   1.484
 1354TIP3   OH2 4002   0.610   5.235   1.875
 1354TIP3    H1 4003   0.629   5.140   1.873
 1354TIP3    H2 4004   0.524   5.239   1.828
 1355TIP3   OH2 4005   1.220   5.322   1.648
 1355TIP3    H1 4006   1.174   5.345   1.564
 1355TIP3    H2 4007   1.247   5.229   1.633
 1356TIP3   OH2 4008   1.713   5.327   1.251
 1356TIP3    H1 4009   1.784   5.376   1.206
 1356TIP3    H2 4010   1.639   5.389   1.240
 1357TIP3   OH2 4011   0.727   4.965   1.854
 1357TIP3    H1 4012   0.809   4.921   1.827
 1357TIP3    H2 4013   0.755   5.003   1.941
 1358TIP3   OH2 4014   1.065   4.853   1.512
 1358TIP3    H1 4015   0.989   4.915   1.516
 1358TIP3    H2 4016   1.116   4.889   1.436
 1359TIP3   OH2 4017   1.582   5.259   1.652
 1359TIP3    H1 4018   1.659   5.236   1.598
 1359TIP3    H2 4019   1.582   5.188   1.719
 1360TIP3   OH2 4020   1.188   4.644   1.641
 1360TIP3    H1 4021   1.189   4.565   1.584
 1360TIP3    H2 4022   1.146   4.710   1.583
 1361TIP3   OH2 4023   1.191   4.428   1.449
 1361TIP3    H1 4024   1.219   4.473   1.366
 1361TIP3    H2 4025   1.097   4.408   1.429
 1362TIP3   OH2 4026   1.219   4.968   1.321
 1362TIP3    H1 4027   1.301   4.980   1.272
 1362TIP3    H2 4028   1.161   5.035   1.279
 1363TIP3   OH2 4029   1.803   4.933   1.704
 1363TIP3    H1 4030   1.852   4.851   1.710
 1363TIP3    H2 4031   1.869   4.994   1.668
 1364TIP3   OH2 4032   1.843   5.187   1.441
 1364TIP3    H1 4033   1.784   5.238   1.380
 1364TIP3    H2 4034   1.930   5.207   1.400
 1365TIP3   OH2 4035   1.066   4.758   1.872
 1365TIP3    H1 4036   0.997   4.689   1.884
 1365TIP3    H2 4037   1.101   4.736   1.784
 1366TIP3   OH2 4038   1.324   4.194   1.515
 1366TIP3    H1 4039   1.275   4.277   1.492
 1366TIP3    H2 4040   1.255   4.127   1.501
 1367TIP3   OH2 4041   1.450   4.699   1.731
 1367TIP3    H1 4042   1.440   4.689   1.827
 1367TIP3    H2 4043   1.360   4.675   1.701
 1368TIP3   OH2 4044   1.689   4.648   1.586
 1368TIP3    H1 4045   1.614   4.651   1.649
 1368TIP3    H2 4046   1.763   4.618   1.642
 1369TIP3   OH2 4047   1.916   4.588   1.737
 1369TIP3    H1 4048   1.930   4.493   1.756
 1369TIP3    H2 4049   1.915   4.628   1.827
 1370TIP3   OH2 4050   0.903   4.539   1.923
 1370TIP3    H1 4051   0.914   4.449   1.886
 1370TIP3    H2 4052   0.941   4.526   2.013
 1371TIP3   OH2 4053   1.417   4.202   1.772
 1371TIP3    H1 4054   1.486   4.133   1.765
 1371TIP3    H2 4055   1.379   4.198   1.682
 1372TIP3   OH2 4056   1.483   4.418   1.933
 1372TIP3    H1 4057   1.462   4.348   1.867
 1372TIP3    H2 4058   1.407   4.479   1.924
 1373TIP3   OH2 4059   1.959   5.895   0.647
 1373TIP3    H1 4060   1.989   5.933   0.732
 1373TIP3    H2 4061   2.025   5.928   0.585
 1374TIP3   OH2 4062   1.992   5.916   0.932
 1374TIP3    H1 4063   1.945   5.830   0.923
 1374TIP3    H2 4064   2.067   5.887   0.986
 1375TIP3   OH2 4065   2.039   5.591   1.503
 1375TIP3    H1 4066   1.964   5.599   1.566
 1375TIP3    H2 4067   2.079   5.680   1.507
 1376TIP3   OH2 4068   1.861   5.099   0.122
 1376TIP3    H1 4069   1.927   5.169   0.111
 1376TIP3    H2 4070   1.895   5.056   0.204
 1377TIP3   OH2 4071   1.981   4.971   0.329
 1377TIP3    H1 4072   1.917   4.928   0.389
 1377TIP3    H2 4073   2.046   5.010   0.390
 1378TIP3   OH2 4074   2.036   5.363   0.760
 1378TIP3    H1 4075   2.087   5.299   0.708
 1378TIP3    H2 4076   2.026   5.438   0.699
 1379TIP3   OH2 4077   1.867   5.664   0.954
 1379TIP3    H1 4078   1.794   5.706   1.004
 1379TIP3    H2 4079   1.818   5.617   0.883
 1380TIP3   OH2 4080   1.919   4.875  -0.026
 1380TIP3    H1 4081   1.837   4.873  -0.076
 1380TIP3    H2 4082   1.905   4.957   0.027
 1381TIP3   OH2 4083   1.795   4.555  -0.081
 1381TIP3    H1 4084   1.724   4.586  -0.138
 1381TIP3    H2 4085   1.771   4.459  -0.076
 1382TIP3   OH2 4086   1.804   4.824   0.478
 1382TIP3    H1 4087   1.808   4.727   0.470
 1382TIP3    H2 4088   1.788   4.837   0.574
 1383TIP3   OH2 4089   0.420   4.900   1.231
 1383TIP3    H1 4090   0.411   4.878   1.136
 1383TIP3    H2 4091   0.518   4.902   1.239
 1384TIP3   OH2 4092   2.086   5.253   1.331
 1384TIP3    H1 4093   2.158   5.187   1.321
 1384TIP3    H2 4094   2.109   5.320   1.265
 1385TIP3   OH2 4095   2.272   5.059   1.350
 1385TIP3    H1 4096   2.197   5.009   1.388
 1385TIP3    H2 4097   2.344   4.994   1.363
 1386TIP3   OH2 4098   1.733   4.293  -0.071
 1386TIP3    H1 4099   1.816   4.255  -0.036
 1386TIP3    H2 4100   1.665   4.236  -0.032
 1387TIP3   OH2 4101   1.797   4.544   0.371
 1387TIP3    H1 4102   1.834   4.454   0.387
 1387TIP3    H2 4103   1.856   4.574   0.299
 1388TIP3   OH2 4104   1.954   4.722   0.863
 1388TIP3    H1 4105   2.041   4.746   0.823
 1388TIP3    H2 4106   1.968   4.755   0.954
 1389TIP3   OH2 4107   2.022   4.862   1.097
 1389TIP3    H1 4108   1.943   4.896   1.143
 1389TIP3    H2 4109   2.055   4.942   1.051
 1390TIP3   OH2 4110   0.636   4.588   1.893
 1390TIP3    H1 4111   0.735   4.583   1.894
 1390TIP3    H2 4112   0.615   4.503   1.936
 1391TIP3   OH2 4113   2.473   4.451   1.652
 1391TIP3    H1 4114   2.533   4.386   1.609
 1391TIP3    H2 4115   2.446   4.506   1.575
 1392TIP3   OH2 4116   1.903   4.293   0.404
 1392TIP3    H1 4117   1.950   4.278   0.488
 1392TIP3    H2 4118   1.841   4.217   0.404
 1393TIP3   OH2 4119   0.609   4.281   1.239
 1393TIP3    H1 4120   0.674   4.208   1.247
 1393TIP3    H2 4121   0.668   4.357   1.229
 1394TIP3   OH2 4122   0.406   4.556   1.300
 1394TIP3    H1 4123   0.452   4.546   1.215
 1394TIP3    H2 4124   0.432   4.646   1.324
 1395TIP3   OH2 4125   2.346   4.594   1.457
 1395TIP3    H1 4126   2.258   4.633   1.475
 1395TIP3    H2 4127   2.320   4.522   1.397
 1396TIP3   OH2 4128   1.991   4.231   0.021
 1396TIP3    H1 4129   2.056   4.165  -0.005
 1396TIP3    H2 4130   2.048   4.310   0.030
 1397TIP3   OH2 4131   0.609   4.130   1.615
 1397TIP3    H1 4132   0.558   4.135   1.697
 1397TIP3    H2 4133   0.548   4.174   1.552
 1398TIP3   OH2 4134   0.654   5.552   1.690
 1398TIP3    H1 4135   0.563   5.520   1.674
 1398TIP3    H2 4136   0.656   5.560   1.786
 1399TIP3   OH2 4137   0.845   5.622   1.269
 1399TIP3    H1 4138   0.784   5.638   1.197
 1399TIP3    H2 4139   0.930   5.621   1.218
 1400TIP3   OH2 4140   1.270   5.857   1.381
 1400TIP3    H1 4141   1.318   5.843   1.465
 1400TIP3    H2 4142   1.338   5.897   1.324
 1401TIP3   OH2 4143   1.449   5.998   1.228
 1401TIP3    H1 4144   1.515   5.941   1.186
 1401TIP3    H2 4145   1.504   6.049   1.291
 1402TIP3   OH2 4146   2.242   4.354   1.337
 1402TIP3    H1 4147   2.154   4.349   1.298
 1402TIP3    H2 4148   2.274   4.261   1.323
 1403TIP3   OH2 4149   1.213   5.925   0.901
 1403TIP3    H1 4150   1.122   5.895   0.891
 1403TIP3    H2 4151   1.206   5.987   0.975
 1404TIP3   OH2 4152   1.447   5.798   0.976
 1404TIP3    H1 4153   1.350   5.810   0.970
 1404TIP3    H2 4154   1.476   5.871   0.919
 1405TIP3   OH2 4155   1.652   6.002   0.880
 1405TIP3    H1 4156   1.635   6.082   0.826
 1405TIP3    H2 4157   1.670   5.935   0.812
 1406TIP3   OH2 4158   1.447   4.271   0.950
 1406TIP3    H1 4159   1.405   4.201   1.003
 1406TIP3    H2 4160   1.522   4.224   0.908
 1407TIP3   OH2 4161   1.970   4.152   0.861
 1407TIP3    H1 4162   2.010   4.201   0.786
 1407TIP3    H2 4163   1.875   4.170   0.849
 1408TIP3   OH2 4164   2.067   4.253   0.623
 1408TIP3    H1 4165   2.141   4.199   0.586
 1408TIP3    H2 4166   2.102   4.344   0.608
 1409TIP3   OH2 4167   0.687   3.989   0.976
 1409TIP3    H1 4168   0.609   3.943   0.942
 1409TIP3    H2 4169   0.758   3.924   0.959
 1410TIP3   OH2 4170   1.148   4.008   0.854
 1410TIP3    H1 4171   1.198   4.061   0.790
 1410TIP3    H2 4172   1.166   4.054   0.937
 1411TIP3   OH2 4173   1.684   4.158   0.834
 1411TIP3    H1 4174   1.690   4.121   0.745
 1411TIP3    H2 4175   1.671   4.076   0.888
 1412TIP3   OH2 4176   1.720   4.079   0.395
 1412TIP3    H1 4177   1.631   4.117   0.395
 1412TIP3    H2 4178   1.706   3.998   0.448
 1413TIP3   OH2 4179   1.136   4.180   0.489
 1413TIP3    H1 4180   1.198   4.138   0.551
 1413TIP3    H2 4181   1.156   4.274   0.510
 1414TIP3   OH2 4182   0.905   4.257   1.858
 1414TIP3    H1 4183   0.871   4.189   1.918
 1414TIP3    H2 4184   0.999   4.259   1.886
 1415TIP3   OH2 4185   1.153   4.257   1.980
 1415TIP3    H1 4186   1.239   4.236   1.939
 1415TIP3    H2 4187   1.145   4.185   2.046
 1416TIP3   OH2 4188   1.979   4.317   1.768
 1416TIP3    H1 4189   1.999   4.285   1.859
 1416TIP3    H2 4190   2.068   4.314   1.726
 1417TIP3   OH2 4191   1.918   5.871   1.262
 1417TIP3    H1 4192   1.841   5.836   1.212
 1417TIP3    H2 4193   1.896   5.966   1.263
 1418TIP3   OH2 4194   3.183   5.255   0.055
 1418TIP3    H1 4195   3.158   5.343   0.021
 1418TIP3    H2 4196   3.106   5.203   0.027
 1419TIP3   OH2 4197   3.184   5.246   0.408
 1419TIP3    H1 4198   3.212   5.208   0.493
 1419TIP3    H2 4199   3.144   5.169   0.365
 1420TIP3   OH2 4200   2.484   5.139   0.772
 1420TIP3    H1 4201   2.514   5.071   0.834
 1420TIP3    H2 4202   2.562   5.196   0.768
 1421TIP3   OH2 4203   3.428   5.544   0.104
 1421TIP3    H1 4204   3.408   5.467   0.158
 1421TIP3    H2 4205   3.460   5.607   0.170
 1422TIP3   OH2 4206   2.459   5.540   0.509
 1422TIP3    H1 4207   2.449   5.443   0.506
 1422TIP3    H2 4208   2.555   5.548   0.497
 1423TIP3   OH2 4209   2.163   4.753   0.282
 1423TIP3    H1 4210   2.114   4.836   0.298
 1423TIP3    H2 4211   2.091   4.695   0.253
 1424TIP3   OH2 4212   2.221   5.038   0.453
 1424TIP3    H1 4213   2.269   4.961   0.490
 1424TIP3    H2 4214   2.280   5.065   0.381
 1425TIP3   OH2 4215   3.077   5.999   0.108
 1425TIP3    H1 4216   3.139   5.938   0.067
 1425TIP3    H2 4217   3.070   5.966   0.199
 1426TIP3   OH2 4218   2.983   5.470   0.455
 1426TIP3    H1 4219   3.018   5.391   0.409
 1426TIP3    H2 4220   3.069   5.512   0.478
 1427TIP3   OH2 4221   3.993   4.789   0.454
 1427TIP3    H1 4222   4.023   4.872   0.497
 1427TIP3    H2 4223   4.018   4.806   0.362
 1428TIP3   OH2 4224   3.395   4.972   0.491
 1428TIP3    H1 4225   3.437   4.886   0.511
 1428TIP3    H2 4226   3.366   4.957   0.399
 1429TIP3   OH2 4227   2.731   4.629   0.454
 1429TIP3    H1 4228   2.710   4.701   0.391
 1429TIP3    H2 4229   2.684   4.555   0.410
 1430TIP3   OH2 4230   3.410   4.708   0.098
 1430TIP3    H1 4231   3.477   4.687   0.166
 1430TIP3    H2 4232   3.471   4.746   0.032
 1431TIP3   OH2 4233   2.366   4.833   0.558
 1431TIP3    H1 4234   2.448   4.812   0.608
 1431TIP3    H2 4235   2.379   4.775   0.480
 1432TIP3   OH2 4236   2.807   5.029   0.352
 1432TIP3    H1 4237   2.901   5.004   0.366
 1432TIP3    H2 4238   2.768   4.945   0.321
 1433TIP3   OH2 4239   4.069   4.998   0.622
 1433TIP3    H1 4240   3.985   5.043   0.603
 1433TIP3    H2 4241   4.077   5.015   0.717
 1434TIP3   OH2 4242   2.730   4.614   0.887
 1434TIP3    H1 4243   2.667   4.650   0.822
 1434TIP3    H2 4244   2.679   4.628   0.970
 1435TIP3   OH2 4245   3.084   5.459  -0.091
 1435TIP3    H1 4246   3.031   5.425  -0.164
 1435TIP3    H2 4247   3.038   5.543  -0.070
 1436TIP3   OH2 4248   2.837   5.388   0.685
 1436TIP3    H1 4249   2.773   5.451   0.724
 1436TIP3    H2 4250   2.875   5.441   0.612
 1437TIP3   OH2 4251   3.634   4.718   0.252
 1437TIP3    H1 4252   3.632   4.667   0.334
 1437TIP3    H2 4253   3.687   4.796   0.276
 1438TIP3   OH2 4254   2.599   4.728   0.672
 1438TIP3    H1 4255   2.662   4.799   0.697
 1438TIP3    H2 4256   2.648   4.687   0.598
 1439TIP3   OH2 4257   2.663   5.579   0.783
 1439TIP3    H1 4258   2.636   5.664   0.743
 1439TIP3    H2 4259   2.583   5.563   0.838
 1440TIP3   OH2 4260   2.098   5.255   0.039
 1440TIP3    H1 4261   2.037   5.249  -0.037
 1440TIP3    H2 4262   2.085   5.348   0.070
 1441TIP3   OH2 4263   3.503   5.783   0.268
 1441TIP3    H1 4264   3.412   5.777   0.305
 1441TIP3    H2 4265   3.490   5.846   0.195
 1442TIP3   OH2 4266   3.786   4.691   0.621
 1442TIP3    H1 4267   3.698   4.718   0.589
 1442TIP3    H2 4268   3.845   4.722   0.549
 1443TIP3   OH2 4269   3.087   4.332   0.602
 1443TIP3    H1 4270   3.073   4.237   0.620
 1443TIP3    H2 4271   3.009   4.370   0.648
 1444TIP3   OH2 4272   3.725   5.702   0.599
 1444TIP3    H1 4273   3.711   5.623   0.543
 1444TIP3    H2 4274   3.707   5.775   0.537
 1445TIP3   OH2 4275   3.007   5.107  -0.095
 1445TIP3    H1 4276   2.920   5.148  -0.112
 1445TIP3    H2 4277   3.047   5.124  -0.183
 1446TIP3   OH2 4278   3.920   5.341   0.448
 1446TIP3    H1 4279   3.834   5.390   0.454
 1446TIP3    H2 4280   3.947   5.363   0.357
 1447TIP3   OH2 4281   3.315   5.110  -0.138
 1447TIP3    H1 4282   3.273   5.174  -0.076
 1447TIP3    H2 4283   3.407   5.113  -0.107
 1448TIP3   OH2 4284   3.598   5.219   0.738
 1448TIP3    H1 4285   3.593   5.301   0.790
 1448TIP3    H2 4286   3.510   5.219   0.695
 1449TIP3   OH2 4287   2.595   5.174   0.247
 1449TIP3    H1 4288   2.554   5.116   0.179
 1449TIP3    H2 4289   2.672   5.122   0.275
 1450TIP3   OH2 4290   2.725   5.585   0.395
 1450TIP3    H1 4291   2.702   5.541   0.312
 1450TIP3    H2 4292   2.815   5.551   0.412
 1451TIP3   OH2 4293   2.734   5.145   0.601
 1451TIP3    H1 4294   2.765   5.124   0.511
 1451TIP3    H2 4295   2.776   5.232   0.619
 1452TIP3   OH2 4296   3.252   5.781   0.372
 1452TIP3    H1 4297   3.255   5.859   0.429
 1452TIP3    H2 4298   3.242   5.707   0.435
 1453TIP3   OH2 4299   2.869   5.704   0.922
 1453TIP3    H1 4300   2.808   5.765   0.970
 1453TIP3    H2 4301   2.804   5.649   0.874
 1454TIP3   OH2 4302   2.623   5.261   1.023
 1454TIP3    H1 4303   2.626   5.347   1.070
 1454TIP3    H2 4304   2.528   5.240   1.033
 1455TIP3   OH2 4305   2.956   5.705  -0.080
 1455TIP3    H1 4306   2.993   5.767  -0.016
 1455TIP3    H2 4307   2.876   5.755  -0.106
 1456TIP3   OH2 4308   2.663   5.873   1.012
 1456TIP3    H1 4309   2.629   5.870   0.921
 1456TIP3    H2 4310   2.584   5.850   1.065
 1457TIP3   OH2 4311   2.467   5.011   0.052
 1457TIP3    H1 4312   2.400   5.052  -0.006
 1457TIP3    H2 4313   2.423   4.928   0.076
 1458TIP3   OH2 4314   2.244   5.402   0.957
 1458TIP3    H1 4315   2.177   5.381   0.889
 1458TIP3    H2 4316   2.279   5.314   0.982
 1459TIP3   OH2 4317   2.095   5.594   0.592
 1459TIP3    H1 4318   2.191   5.593   0.580
 1459TIP3    H2 4319   2.081   5.676   0.641
 1460TIP3   OH2 4320   3.962   6.042   0.644
 1460TIP3    H1 4321   3.960   5.946   0.662
 1460TIP3    H2 4322   3.879   6.070   0.690
 1461TIP3   OH2 4323   3.065   5.832   0.779
 1461TIP3    H1 4324   3.067   5.923   0.815
 1461TIP3    H2 4325   2.995   5.792   0.835
 1462TIP3   OH2 4326   2.237   5.775   0.111
 1462TIP3    H1 4327   2.302   5.804   0.177
 1462TIP3    H2 4328   2.160   5.763   0.170
 1463TIP3   OH2 4329   3.852   5.178   0.918
 1463TIP3    H1 4330   3.769   5.189   0.869
 1463TIP3    H2 4331   3.867   5.082   0.909
 1464TIP3   OH2 4332   2.446   5.586   0.949
 1464TIP3    H1 4333   2.497   5.566   1.031
 1464TIP3    H2 4334   2.373   5.521   0.954
 1465TIP3   OH2 4335   2.847   4.410   0.726
 1465TIP3    H1 4336   2.758   4.376   0.702
 1465TIP3    H2 4337   2.821   4.490   0.776
 1466TIP3   OH2 4338   3.380   4.524   0.924
 1466TIP3    H1 4339   3.447   4.495   0.989
 1466TIP3    H2 4340   3.295   4.504   0.969
 1467TIP3   OH2 4341   3.622   4.954   0.845
 1467TIP3    H1 4342   3.570   4.948   0.928
 1467TIP3    H2 4343   3.594   5.039   0.808
 1468TIP3   OH2 4344   3.021   4.480  -0.291
 1468TIP3    H1 4345   2.970   4.464  -0.209
 1468TIP3    H2 4346   3.002   4.399  -0.341
 1469TIP3   OH2 4347   2.779   4.923   0.750
 1469TIP3    H1 4348   2.727   4.945   0.830
 1469TIP3    H2 4349   2.763   5.004   0.696
 1470TIP3   OH2 4350   2.662   4.809   0.262
 1470TIP3    H1 4351   2.570   4.783   0.281
 1470TIP3    H2 4352   2.674   4.769   0.174
 1471TIP3   OH2 4353   3.151   4.889  -0.005
 1471TIP3    H1 4354   3.092   4.965  -0.024
 1471TIP3    H2 4355   3.201   4.885  -0.087
 1472TIP3   OH2 4356   3.327   5.176   1.079
 1472TIP3    H1 4357   3.305   5.102   1.140
 1472TIP3    H2 4358   3.422   5.188   1.099
 1473TIP3   OH2 4359   3.314   4.929   0.231
 1473TIP3    H1 4360   3.253   4.957   0.160
 1473TIP3    H2 4361   3.343   4.844   0.193
 1474TIP3   OH2 4362   2.598   4.952   0.957
 1474TIP3    H1 4363   2.622   5.015   1.027
 1474TIP3    H2 4364   2.586   4.869   1.008
 1475TIP3   OH2 4365   2.665   4.389  -0.329
 1475TIP3    H1 4366   2.652   4.407  -0.234
 1475TIP3    H2 4367   2.599   4.445  -0.370
 1476TIP3   OH2 4368   2.190   4.477   0.535
 1476TIP3    H1 4369   2.266   4.505   0.591
 1476TIP3    H2 4370   2.232   4.438   0.457
 1477TIP3   OH2 4371   2.162   4.457   0.054
 1477TIP3    H1 4372   2.219   4.492  -0.017
 1477TIP3    H2 4373   2.106   4.535   0.075
 1478TIP3   OH2 4374   3.325   5.172   0.655
 1478TIP3    H1 4375   3.355   5.099   0.596
 1478TIP3    H2 4376   3.293   5.119   0.732
 1479TIP3   OH2 4377   2.988   4.635   0.325
 1479TIP3    H1 4378   2.905   4.630   0.377
 1479TIP3    H2 4379   3.055   4.631   0.395
 1480TIP3   OH2 4380   2.425   4.687   0.332
 1480TIP3    H1 4381   2.330   4.694   0.306
 1480TIP3    H2 4382   2.446   4.594   0.312
 1481TIP3   OH2 4383   2.692   4.687   0.017
 1481TIP3    H1 4384   2.789   4.695   0.007
 1481TIP3    H2 4385   2.658   4.718  -0.069
 1482TIP3   OH2 4386   3.481   4.708   0.527
 1482TIP3    H1 4387   3.445   4.720   0.618
 1482TIP3    H2 4388   3.417   4.646   0.490
 1483TIP3   OH2 4389   2.551   4.734  -0.219
 1483TIP3    H1 4390   2.465   4.692  -0.218
 1483TIP3    H2 4391   2.593   4.702  -0.301
 1484TIP3   OH2 4392   3.650   6.396   0.746
 1484TIP3    H1 4393   3.647   6.421   0.652
 1484TIP3    H2 4394   3.726   6.448   0.778
 1485TIP3   OH2 4395   2.609   5.508   1.167
 1485TIP3    H1 4396   2.689   5.537   1.216
 1485TIP3    H2 4397   2.544   5.504   1.240
 1486TIP3   OH2 4398   3.073   4.960   0.423
 1486TIP3    H1 4399   3.145   4.919   0.373
 1486TIP3    H2 4400   3.081   4.917   0.510
 1487TIP3   OH2 4401   2.597   4.448   0.299
 1487TIP3    H1 4402   2.561   4.370   0.347
 1487TIP3    H2 4403   2.651   4.405   0.230
 1488TIP3   OH2 4404   3.050   4.856   0.709
 1488TIP3    H1 4405   2.960   4.891   0.724
 1488TIP3    H2 4406   3.106   4.916   0.762
 1489TIP3   OH2 4407   2.779   5.251  -0.180
 1489TIP3    H1 4408   2.718   5.175  -0.189
 1489TIP3    H2 4409   2.762   5.284  -0.088
 1490TIP3   OH2 4410   3.685   5.483   0.439
 1490TIP3    H1 4411   3.706   5.531   0.356
 1490TIP3    H2 4412   3.600   5.439   0.416
 1491TIP3   OH2 4413   3.193   5.570   0.801
 1491TIP3    H1 4414   3.204   5.538   0.891
 1491TIP3    H2 4415   3.145   5.654   0.814
 1492TIP3   OH2 4416   2.479   5.267   0.483
 1492TIP3    H1 4417   2.516   5.237   0.398
 1492TIP3    H2 4418   2.516   5.202   0.545
 1493TIP3   OH2 4419   2.359   5.190   1.096
 1493TIP3    H1 4420   2.378   5.175   1.190
 1493TIP3    H2 4421   2.289   5.123   1.079
 1494TIP3   OH2 4422   3.083   5.304   1.114
 1494TIP3    H1 4423   3.023   5.244   1.067
 1494TIP3    H2 4424   3.171   5.268   1.087
 1495TIP3   OH2 4425   3.346   5.832   0.694
 1495TIP3    H1 4426   3.251   5.821   0.712
 1495TIP3    H2 4427   3.375   5.878   0.775
 1496TIP3   OH2 4428   3.975   5.754   0.688
 1496TIP3    H1 4429   3.877   5.749   0.682
 1496TIP3    H2 4430   3.999   5.723   0.598
 1497TIP3   OH2 4431   3.451   5.348   0.356
 1497TIP3    H1 4432   3.357   5.321   0.370
 1497TIP3    H2 4433   3.485   5.267   0.313
 1498TIP3   OH2 4434   2.577   5.569   0.106
 1498TIP3    H1 4435   2.584   5.657   0.064
 1498TIP3    H2 4436   2.483   5.568   0.126
 1499TIP3   OH2 4437   2.144   4.874  -0.191
 1499TIP3    H1 4438   2.191   4.958  -0.175
 1499TIP3    H2 4439   2.066   4.884  -0.133
 1500TIP3   OH2 4440   2.725   5.342   0.066
 1500TIP3    H1 4441   2.679   5.428   0.073
 1500TIP3    H2 4442   2.681   5.291   0.136
 1501TIP3   OH2 4443   2.849   5.908   0.583
 1501TIP3    H1 4444   2.883   5.995   0.545
 1501TIP3    H2 4445   2.922   5.878   0.630
 1502TIP3   OH2 4446   2.515   5.828   0.032
 1502TIP3    H1 4447   2.419   5.823   0.028
 1502TIP3    H2 4448   2.539   5.871  -0.052
 1503TIP3   OH2 4449   3.240   5.552   0.534
 1503TIP3    H1 4450   3.229   5.550   0.632
 1503TIP3    H2 4451   3.315   5.492   0.522
 1504TIP3   OH2 4452   3.494   6.085   0.592
 1504TIP3    H1 4453   3.415   6.028   0.579
 1504TIP3    H2 4454   3.473   6.152   0.521
 1505TIP3   OH2 4455   2.571   4.697   1.105
 1505TIP3    H1 4456   2.474   4.696   1.116
 1505TIP3    H2 4457   2.598   4.631   1.172
 1506TIP3   OH2 4458   2.292   5.779   0.741
 1506TIP3    H1 4459   2.341   5.700   0.771
 1506TIP3    H2 4460   2.320   5.844   0.807
 1507TIP3   OH2 4461   2.541   5.384  -0.282
 1507TIP3    H1 4462   2.622   5.343  -0.246
 1507TIP3    H2 4463   2.583   5.450  -0.340
 1508TIP3   OH2 4464   2.281   5.111  -0.118
 1508TIP3    H1 4465   2.212   5.152  -0.060
 1508TIP3    H2 4466   2.323   5.187  -0.157
 1509TIP3   OH2 4467   3.405   4.761   0.786
 1509TIP3    H1 4468   3.486   4.796   0.826
 1509TIP3    H2 4469   3.390   4.680   0.839
 1510TIP3   OH2 4470   3.278   4.518  -0.057
 1510TIP3    H1 4471   3.253   4.554  -0.142
 1510TIP3    H2 4472   3.323   4.593  -0.012
 1511TIP3   OH2 4473   2.971   4.688   0.054
 1511TIP3    H1 4474   3.040   4.756   0.037
 1511TIP3    H2 4475   2.978   4.679   0.152
 1512TIP3   OH2 4476   3.247   5.011   0.859
 1512TIP3    H1 4477   3.265   5.063   0.940
 1512TIP3    H2 4478   3.299   4.931   0.874
 1513TIP3   OH2 4479   3.123   4.421   0.155
 1513TIP3    H1 4480   3.119   4.497   0.216
 1513TIP3    H2 4481   3.181   4.457   0.084
 1514TIP3   OH2 4482   2.632   4.420  -0.052
 1514TIP3    H1 4483   2.636   4.509  -0.011
 1514TIP3    H2 4484   2.726   4.395  -0.046
 1515TIP3   OH2 4485   3.889   4.911   0.837
 1515TIP3    H1 4486   3.791   4.910   0.848
 1515TIP3    H2 4487   3.896   4.863   0.753
 1516TIP3   OH2 4488   3.538   5.108   0.233
 1516TIP3    H1 4489   3.462   5.047   0.242
 1516TIP3    H2 4490   3.609   5.058   0.279
 1517TIP3   OH2 4491   2.313   5.551  -0.317
 1517TIP3    H1 4492   2.243   5.536  -0.251
 1517TIP3    H2 4493   2.372   5.474  -0.304
 1518TIP3   OH2 4494   2.213   4.614  -0.184
 1518TIP3    H1 4495   2.196   4.711  -0.188
 1518TIP3    H2 4496   2.124   4.580  -0.199
 1519TIP3   OH2 4497   3.493   6.090   0.191
 1519TIP3    H1 4498   3.456   6.045   0.114
 1519TIP3    H2 4499   3.588   6.093   0.168
 1520TIP3   OH2 4500   2.582   4.328   0.706
 1520TIP3    H1 4501   2.550   4.292   0.621
 1520TIP3    H2 4502   2.571   4.252   0.767
 1521TIP3   OH2 4503   2.055   5.517   0.091
 1521TIP3    H1 4504   2.012   5.577   0.153
 1521TIP3    H2 4505   2.090   5.577   0.024
 1522TIP3   OH2 4506   2.274   6.085   1.164
 1522TIP3    H1 4507   2.363   6.080   1.205
 1522TIP3    H2 4508   2.252   5.990   1.156
 1523TIP3   OH2 4509   2.760   6.054   1.203
 1523TIP3    H1 4510   2.854   6.032   1.209
 1523TIP3    H2 4511   2.733   5.997   1.129
 1524TIP3   OH2 4512   3.400   5.957   0.934
 1524TIP3    H1 4513   3.389   5.888   1.004
 1524TIP3    H2 4514   3.476   6.008   0.967
 1525TIP3   OH2 4515   2.408   5.494   1.358
 1525TIP3    H1 4516   2.424   5.398   1.364
 1525TIP3    H2 4517   2.320   5.496   1.313
 1526TIP3   OH2 4518   3.016   5.579   1.131
 1526TIP3    H1 4519   2.972   5.592   1.044
 1526TIP3    H2 4520   3.046   5.485   1.125
 1527TIP3   OH2 4521   3.510   5.584   0.738
 1527TIP3    H1 4522   3.581   5.634   0.694
 1527TIP3    H2 4523   3.434   5.644   0.725
 1528TIP3   OH2 4524   2.528   5.229   1.338
 1528TIP3    H1 4525   2.600   5.167   1.320
 1528TIP3    H2 4526   2.552   5.261   1.427
 1529TIP3   OH2 4527   2.611   5.037  -0.212
 1529TIP3    H1 4528   2.567   5.011  -0.129
 1529TIP3    H2 4529   2.618   4.951  -0.257
 1530TIP3   OH2 4530   2.862   5.114   1.003
 1530TIP3    H1 4531   2.783   5.172   1.004
 1530TIP3    H2 4532   2.911   5.147   0.924
 1531TIP3   OH2 4533   3.381   5.517   1.137
 1531TIP3    H1 4534   3.459   5.490   1.088
 1531TIP3    H2 4535   3.375   5.448   1.205
 1532TIP3   OH2 4536   2.986   4.901   1.128
 1532TIP3    H1 4537   2.984   4.820   1.073
 1532TIP3    H2 4538   2.941   4.966   1.070
 1533TIP3   OH2 4539   2.988   4.688   0.935
 1533TIP3    H1 4540   3.015   4.727   0.850
 1533TIP3    H2 4541   2.894   4.664   0.918
 1534TIP3   OH2 4542   3.018   5.225   0.809
 1534TIP3    H1 4543   3.098   5.229   0.756
 1534TIP3    H2 4544   2.960   5.290   0.764
 1535TIP3   OH2 4545   3.598   5.190   1.189
 1535TIP3    H1 4546   3.645   5.106   1.202
 1535TIP3    H2 4547   3.668   5.247   1.156
 1536TIP3   OH2 4548   3.639   5.443   0.927
 1536TIP3    H1 4549   3.581   5.495   0.867
 1536TIP3    H2 4550   3.726   5.463   0.886
 1537TIP3   OH2 4551   2.862   5.016   1.357
 1537TIP3    H1 4552   2.794   4.946   1.372
 1537TIP3    H2 4553   2.897   4.989   1.269
 1538TIP3   OH2 4554   3.120   4.451   0.999
 1538TIP3    H1 4555   3.069   4.532   0.979
 1538TIP3    H2 4556   3.051   4.382   0.989
 1539TIP3   OH2 4557   3.246   4.957   1.218
 1539TIP3    H1 4558   3.235   4.943   1.313
 1539TIP3    H2 4559   3.156   4.932   1.188
 1540TIP3   OH2 4560   3.485   4.905   1.073
 1540TIP3    H1 4561   3.410   4.906   1.135
 1540TIP3    H2 4562   3.559   4.874   1.129
 1541TIP3   OH2 4563   3.716   4.844   1.222
 1541TIP3    H1 4564   3.727   4.749   1.242
 1541TIP3    H2 4565   3.711   4.885   1.312
 1542TIP3   OH2 4566   2.703   4.796   1.409
 1542TIP3    H1 4567   2.706   4.705   1.374
 1542TIP3    H2 4568   2.739   4.782   1.499
 1543TIP3   OH2 4569   3.216   4.461   1.257
 1543TIP3    H1 4570   3.282   4.390   1.252
 1543TIP3    H2 4571   3.174   4.454   1.168
 1544TIP3   OH2 4572   3.282   4.677   1.417
 1544TIP3    H1 4573   3.259   4.605   1.353
 1544TIP3    H2 4574   3.203   4.735   1.411
 1545TIP3   OH2 4575   2.004   5.156  -0.208
 1545TIP3    H1 4576   2.055   5.223  -0.256
 1545TIP3    H2 4577   1.972   5.103  -0.281
 1546TIP3   OH2 4578   1.877   5.844   0.121
 1546TIP3    H1 4579   1.795   5.866   0.166
 1546TIP3    H2 4580   1.932   5.817   0.196
 1547TIP3   OH2 4581   2.039   5.757   0.324
 1547TIP3    H1 4582   2.015   5.689   0.390
 1547TIP3    H2 4583   2.087   5.819   0.382
 1548TIP3   OH2 4584   3.753   6.139   0.119
 1548TIP3    H1 4585   3.772   6.175   0.207
 1548TIP3    H2 4586   3.804   6.197   0.060
 1549TIP3   OH2 4587   3.788   6.168   0.403
 1549TIP3    H1 4588   3.743   6.080   0.411
 1549TIP3    H2 4589   3.860   6.155   0.466
 1550TIP3   OH2 4590   3.833   5.848   0.988
 1550TIP3    H1 4591   3.760   5.855   1.052
 1550TIP3    H2 4592   3.874   5.936   0.994
 1551TIP3   OH2 4593   3.826   5.612   0.245
 1551TIP3    H1 4594   3.890   5.552   0.201
 1551TIP3    H2 4595   3.828   5.691   0.187
 1552TIP3   OH2 4596   3.665   5.923   0.440
 1552TIP3    H1 4597   3.594   5.963   0.495
 1552TIP3    H2 4598   3.612   5.872   0.375
 1553TIP3   OH2 4599   3.568   5.102  -0.042
 1553TIP3    H1 4600   3.604   5.012  -0.044
 1553TIP3    H2 4601   3.559   5.116   0.055
 1554TIP3   OH2 4602   2.219   5.156   0.706
 1554TIP3    H1 4603   2.217   5.128   0.612
 1554TIP3    H2 4604   2.316   5.158   0.723
 1555TIP3   OH2 4605   3.882   5.510   0.816
 1555TIP3    H1 4606   3.954   5.443   0.808
 1555TIP3    H2 4607   3.910   5.578   0.754
 1556TIP3   OH2 4608   4.069   5.317   0.835
 1556TIP3    H1 4609   3.994   5.266   0.873
 1556TIP3    H2 4610   4.141   5.252   0.849
 1557TIP3   OH2 4611   3.600   4.786  -0.071
 1557TIP3    H1 4612   3.638   4.694  -0.071
 1557TIP3    H2 4613   3.678   4.835  -0.106
 1558TIP3   OH2 4614   3.746   4.973   0.353
 1558TIP3    H1 4615   3.833   5.001   0.314
 1558TIP3    H2 4616   3.760   5.007   0.443
 1559TIP3   OH2 4617   3.818   5.117   0.583
 1559TIP3    H1 4618   3.740   5.151   0.631
 1559TIP3    H2 4619   3.851   5.199   0.539
 1560TIP3   OH2 4620   2.437   4.847   1.385
 1560TIP3    H1 4621   2.534   4.837   1.382
 1560TIP3    H2 4622   2.412   4.760   1.423
 1561TIP3   OH2 4623   4.268   4.708   1.138
 1561TIP3    H1 4624   4.330   4.643   1.097
 1561TIP3    H2 4625   4.243   4.763   1.061
 1562TIP3   OH2 4626   3.703   4.540  -0.103
 1562TIP3    H1 4627   3.749   4.513  -0.020
 1562TIP3    H2 4628   3.643   4.464  -0.116
 1563TIP3   OH2 4629   2.396   4.536   0.711
 1563TIP3    H1 4630   2.456   4.460   0.722
 1563TIP3    H2 4631   2.460   4.609   0.706
 1564TIP3   OH2 4632   2.201   4.811   0.785
 1564TIP3    H1 4633   2.250   4.803   0.701
 1564TIP3    H2 4634   2.230   4.898   0.816
 1565TIP3   OH2 4635   4.143   4.852   0.942
 1565TIP3    H1 4636   4.056   4.890   0.965
 1565TIP3    H2 4637   4.115   4.778   0.885
 1566TIP3   OH2 4638   2.184   4.318   0.286
 1566TIP3    H1 4639   2.091   4.311   0.314
 1566TIP3    H2 4640   2.179   4.374   0.206
 1567TIP3   OH2 4641   2.408   4.410   1.108
 1567TIP3    H1 4642   2.353   4.388   1.184
 1567TIP3    H2 4643   2.340   4.428   1.040
 1568TIP3   OH2 4644   2.443   5.825   1.180
 1568TIP3    H1 4645   2.353   5.792   1.159
 1568TIP3    H2 4646   2.452   5.799   1.272
 1569TIP3   OH2 4647   2.623   5.850   0.729
 1569TIP3    H1 4648   2.572   5.923   0.689
 1569TIP3    H2 4649   2.708   5.863   0.682
 1570TIP3   OH2 4650   3.069   6.097   0.863
 1570TIP3    H1 4651   3.110   6.100   0.953
 1570TIP3    H2 4652   3.134   6.148   0.812
 1571TIP3   OH2 4653   3.247   6.246   0.722
 1571TIP3    H1 4654   3.322   6.197   0.682
 1571TIP3    H2 4655   3.297   6.306   0.782
 1572TIP3   OH2 4656   4.040   4.612   0.822
 1572TIP3    H1 4657   3.949   4.605   0.789
 1572TIP3    H2 4658   4.070   4.519   0.811
 1573TIP3   OH2 4659   2.309   6.108   0.751
 1573TIP3    H1 4660   2.218   6.136   0.724
 1573TIP3    H2 4661   2.309   6.146   0.841
 1574TIP3   OH2 4662   2.538   6.090   0.609
 1574TIP3    H1 4663   2.457   6.102   0.663
 1574TIP3    H2 4664   2.502   6.104   0.520
 1575TIP3   OH2 4665   2.979   6.160   0.446
 1575TIP3    H1 4666   2.957   6.186   0.358
 1575TIP3    H2 4667   2.916   6.151   0.493
 1576TIP3   OH2 4668   3.247   6.039   0.445
 1576TIP3    H1 4669   3.202   6.042   0.442
 1576TIP3    H2 4670   3.294   6.145   0.416
 1577TIP3   OH2 4671   3.442   6.270   0.386
 1577TIP3    H1 4672   3.423   6.348   0.331
 1577TIP3    H2 4673   3.459   6.201   0.317
 1578TIP3   OH2 4674   2.203   5.893   0.502
 1578TIP3    H1 4675   2.238   5.865   0.590
 1578TIP3    H2 4676   2.273   5.856   0.445
 1579TIP3   OH2 4677   2.398   5.764   0.364
 1579TIP3    H1 4678   2.421   5.682   0.414
 1579TIP3    H2 4679   2.486   5.799   0.341
 1580TIP3   OH2 4680   2.676   5.879   0.355
 1580TIP3    H1 4681   2.695   5.787   0.332
 1580TIP3    H2 4682   2.719   5.882   0.444
 1581TIP3   OH2 4683   3.243   4.527   0.438
 1581TIP3    H1 4684   3.200   4.458   0.493
 1581TIP3    H2 4685   3.316   4.477   0.396
 1582TIP3   OH2 4686   3.767   4.409   0.354
 1582TIP3    H1 4687   3.802   4.460   0.278
 1582TIP3    H2 4688   3.671   4.422   0.344
 1583TIP3   OH2 4689   3.857   4.511   0.122
 1583TIP3    H1 4690   3.928   4.453   0.085
 1583TIP3    H2 4691   3.894   4.600   0.104
 1584TIP3   OH2 4692   2.494   4.235   0.456
 1584TIP3    H1 4693   2.402   4.201   0.462
 1584TIP3    H2 4694   2.543   4.151   0.454
 1585TIP3   OH2 4695   2.257   4.107   0.095
 1585TIP3    H1 4696   2.308   4.160   0.030
 1585TIP3    H2 4697   2.249   4.170   0.169
 1586TIP3   OH2 4698   2.935   4.270   0.336
 1586TIP3    H1 4699   2.996   4.320   0.280
 1586TIP3    H2 4700   2.954   4.305   0.424
 1587TIP3   OH2 4701   3.487   4.415   0.321
 1587TIP3    H1 4702   3.483   4.379   0.231
 1587TIP3    H2 4703   3.471   4.334   0.375
 1588TIP3   OH2 4704   3.510   4.341  -0.099
 1588TIP3    H1 4705   3.419   4.374  -0.103
 1588TIP3    H2 4706   3.498   4.251  -0.063
 1589TIP3   OH2 4707   2.400   4.258  -0.093
 1589TIP3    H1 4708   2.430   4.204  -0.166
 1589TIP3    H2 4709   2.477   4.316  -0.077
 1590TIP3   OH2 4710   2.909   4.438  -0.033
 1590TIP3    H1 4711   2.968   4.389   0.027
 1590TIP3    H2 4712   2.932   4.529  -0.007
 1591TIP3   OH2 4713   2.701   4.523   1.353
 1591TIP3    H1 4714   2.666   4.448   1.403
 1591TIP3    H2 4715   2.796   4.519   1.377
 1592TIP3   OH2 4716   2.952   4.514   1.469
 1592TIP3    H1 4717   3.036   4.487   1.428
 1592TIP3    H2 4718   2.939   4.443   1.535
 1593TIP3   OH2 4719   3.775   4.573   1.255
 1593TIP3    H1 4720   3.794   4.542   1.346
 1593TIP3    H2 4721   3.864   4.569   1.214
 1594TIP3   OH2 4722   3.719   6.129   0.745
 1594TIP3    H1 4723   3.638   6.095   0.700
 1594TIP3    H2 4724   3.696   6.224   0.751
 1595TIP3   OH2 4725   4.294   5.395   0.252
 1595TIP3    H1 4726   4.314   5.325   0.317
 1595TIP3    H2 4727   4.352   5.466   0.283
 1596TIP3   OH2 4728   4.151   5.068   0.075
 1596TIP3    H1 4729   4.246   5.051   0.090
 1596TIP3    H2 4730   4.131   5.013  -0.003
 1597TIP3   OH2 4731   4.523   4.872   0.378
 1597TIP3    H1 4732   4.464   4.907   0.309
 1597TIP3    H2 4733   4.471   4.889   0.459
 1598TIP3   OH2 4734   4.627   5.647   0.168
 1598TIP3    H1 4735   4.563   5.689   0.228
 1598TIP3    H2 4736   4.705   5.702   0.179
 1599TIP3   OH2 4737   4.405   4.976   0.149
 1599TIP3    H1 4738   4.463   5.054   0.169
 1599TIP3    H2 4739   4.444   4.947   0.065
 1600TIP3   OH2 4740   4.455   5.844   0.266
 1600TIP3    H1 4741   4.399   5.906   0.219
 1600TIP3    H2 4742   4.390   5.815   0.334
 1601TIP3   OH2 4743   4.884   4.568   0.100
 1601TIP3    H1 4744   4.854   4.478   0.126
 1601TIP3    H2 4745   4.808   4.621   0.130
 1602TIP3   OH2 4746   4.650   5.927   0.448
 1602TIP3    H1 4747   4.612   6.012   0.475
 1602TIP3    H2 4748   4.587   5.899   0.379
 1603TIP3   OH2 4749   4.410   5.529   0.496
 1603TIP3    H1 4750   4.419   5.608   0.554
 1603TIP3    H2 4751   4.321   5.498   0.524
 1604TIP3   OH2 4752   4.453   6.131   0.500
 1604TIP3    H1 4753   4.401   6.119   0.420
 1604TIP3    H2 4754   4.384   6.115   0.569
 1605TIP3   OH2 4755   4.041   5.658   0.444
 1605TIP3    H1 4756   3.973   5.631   0.379
 1605TIP3    H2 4757   4.078   5.572   0.473
 1606TIP3   OH2 4758   3.890   5.840   0.098
 1606TIP3    H1 4759   3.982   5.862   0.079
 1606TIP3    H2 4760   3.861   5.923   0.138
 1607TIP3   OH2 4761   5.618   5.451   0.419
 1607TIP3    H1 4762   5.640   5.456   0.325
 1607TIP3    H2 4763   5.618   5.354   0.432
 1608TIP3   OH2 4764   4.241   5.843   0.433
 1608TIP3    H1 4765   4.292   5.828   0.516
 1608TIP3    H2 4766   4.172   5.774   0.441
 1609TIP3   OH2 4767   4.635   4.675   0.219
 1609TIP3    H1 4768   4.545   4.638   0.212
 1609TIP3    H2 4769   4.615   4.750   0.279
 1610TIP3   OH2 4770   5.178   4.781   0.409
 1610TIP3    H1 4771   5.247   4.752   0.473
 1610TIP3    H2 4772   5.095   4.760   0.456
 1611TIP3   OH2 4773   5.395   5.240   0.331
 1611TIP3    H1 4774   5.352   5.210   0.415
 1611TIP3    H2 4775   5.318   5.256   0.275
 1612TIP3   OH2 4776   4.570   5.193   0.230
 1612TIP3    H1 4777   4.526   5.205   0.317
 1612TIP3    H2 4778   4.522   5.256   0.175
 1613TIP3   OH2 4779   5.126   5.435   0.567
 1613TIP3    H1 4780   5.102   5.358   0.623
 1613TIP3    H2 4781   5.221   5.441   0.587
 1614TIP3   OH2 4782   4.390   5.208   0.445
 1614TIP3    H1 4783   4.429   5.265   0.514
 1614TIP3    H2 4784   4.379   5.124   0.493
 1615TIP3   OH2 4785   3.989   4.735   0.046
 1615TIP3    H1 4786   4.056   4.767   0.111
 1615TIP3    H2 4787   4.045   4.715  -0.031
 1616TIP3   OH2 4788   4.404   5.766   0.651
 1616TIP3    H1 4789   4.485   5.794   0.698
 1616TIP3    H2 4790   4.341   5.762   0.727
 1617TIP3   OH2 4791   4.838   5.089   0.219
 1617TIP3    H1 4792   4.756   5.142   0.216
 1617TIP3    H2 4793   4.906   5.154   0.245
 1618TIP3   OH2 4794   4.989   5.809   0.291
 1618TIP3    H1 4795   5.006   5.779   0.381
 1618TIP3    H2 4796   4.929   5.883   0.306
 1619TIP3   OH2 4797   4.155   5.448   0.583
 1619TIP3    H1 4798   4.175   5.433   0.677
 1619TIP3    H2 4799   4.087   5.381   0.566
 1620TIP3   OH2 4800   4.881   5.558   0.600
 1620TIP3    H1 4801   4.826   5.498   0.548
 1620TIP3    H2 4802   4.971   5.525   0.578
 1621TIP3   OH2 4803   4.365   4.954   0.591
 1621TIP3    H1 4804   4.269   4.956   0.607
 1621TIP3    H2 4805   4.396   4.894   0.662
 1622TIP3   OH2 4806   4.097   6.010   0.239
 1622TIP3    H1 4807   4.124   5.952   0.312
 1622TIP3    H2 4808   4.081   6.094   0.283
 1623TIP3   OH2 4809   5.183   5.040   0.301
 1623TIP3    H1 4810   5.277   5.045   0.280
 1623TIP3    H2 4811   5.176   4.947   0.330
 1624TIP3   OH2 4812   5.023   5.264   0.348
 1624TIP3    H1 4813   5.064   5.310   0.423
 1624TIP3    H2 4814   5.079   5.183   0.341
 1625TIP3   OH2 4815   5.664   5.183   0.366
 1625TIP3    H1 4816   5.567   5.179   0.354
 1625TIP3    H2 4817   5.694   5.140   0.283
 1626TIP3   OH2 4818   4.378   4.592   0.217
 1626TIP3    H1 4819   4.352   4.555   0.129
 1626TIP3    H2 4820   4.368   4.513   0.273
 1627TIP3   OH2 4821   4.072   6.344   0.645
 1627TIP3    H1 4822   4.158   6.342   0.692
 1627TIP3    H2 4823   4.052   6.249   0.642
 1628TIP3   OH2 4824   4.558   6.312   0.692
 1628TIP3    H1 4825   4.653   6.291   0.696
 1628TIP3    H2 4826   4.533   6.260   0.613
 1629TIP3   OH2 4827   5.180   6.220   0.411
 1629TIP3    H1 4828   5.171   6.147   0.477
 1629TIP3    H2 4829   5.261   6.264   0.443
 1630TIP3   OH2 4830   4.205   5.751   0.844
 1630TIP3    H1 4831   4.221   5.656   0.854
 1630TIP3    H2 4832   4.117   5.752   0.801
 1631TIP3   OH2 4833   4.824   5.833   0.628
 1631TIP3    H1 4834   4.766   5.853   0.551
 1631TIP3    H2 4835   4.846   5.739   0.615
 1632TIP3   OH2 4836   4.327   5.485   0.822
 1632TIP3    H1 4837   4.397   5.420   0.809
 1632TIP3    H2 4838   4.349   5.518   0.911
 1633TIP3   OH2 4839   4.649   5.366   0.491
 1633TIP3    H1 4840   4.578   5.433   0.492
 1633TIP3    H2 4841   4.707   5.401   0.420
 1634TIP3   OH2 4842   5.177   5.769   0.619
 1634TIP3    H1 4843   5.269   5.755   0.592
 1634TIP3    H2 4844   5.167   5.702   0.689
 1635TIP3   OH2 4845   4.779   5.155   0.618
 1635TIP3    H1 4846   4.784   5.073   0.565
 1635TIP3    H2 4847   4.738   5.218   0.556
 1636TIP3   OH2 4848   4.781   4.938   0.436
 1636TIP3    H1 4849   4.814   4.982   0.355
 1636TIP3    H2 4850   4.688   4.919   0.411
 1637TIP3   OH2 4851   4.807   5.480   0.309
 1637TIP3    H1 4852   4.893   5.454   0.272
 1637TIP3    H2 4853   4.766   5.533   0.239
 1638TIP3   OH2 4854   5.398   5.449   0.680
 1638TIP3    H1 4855   5.434   5.358   0.683
 1638TIP3    H2 4856   5.472   5.496   0.639
 1639TIP3   OH2 4857   5.451   5.737   0.413
 1639TIP3    H1 4858   5.388   5.743   0.340
 1639TIP3    H2 4859   5.523   5.688   0.371
 1640TIP3   OH2 4860   4.653   5.275   0.841
 1640TIP3    H1 4861   4.588   5.203   0.858
 1640TIP3    H2 4862   4.692   5.245   0.757
 1641TIP3   OH2 4863   4.919   4.705   0.485
 1641TIP3    H1 4864   4.868   4.788   0.469
 1641TIP3    H2 4865   4.850   4.637   0.476
 1642TIP3   OH2 4866   5.038   5.219   0.706
 1642TIP3    H1 4867   5.029   5.201   0.801
 1642TIP3    H2 4868   4.950   5.189   0.676
 1643TIP3   OH2 4869   5.285   5.174   0.569
 1643TIP3    H1 4870   5.207   5.159   0.625
 1643TIP3    H2 4871   5.357   5.134   0.622
 1644TIP3   OH2 4872   5.510   5.100   0.711
 1644TIP3    H1 4873   5.524   5.005   0.729
 1644TIP3    H2 4874   5.511   5.140   0.801
 1645TIP3   OH2 4875   4.500   5.052   0.896
 1645TIP3    H1 4876   4.506   4.961   0.861
 1645TIP3    H2 4877   4.536   5.039   0.986
 1646TIP3   OH2 4878   5.007   4.720   0.746
 1646TIP3    H1 4879   5.078   4.653   0.744
 1646TIP3    H2 4880   4.973   4.711   0.655
 1647TIP3   OH2 4881   5.080   4.935   0.901
 1647TIP3    H1 4882   5.057   4.861   0.840
 1647TIP3    H2 4883   5.000   4.991   0.895
 1648TIP3   OH2 4884   5.584   6.144   0.466
 1648TIP3    H1 4885   5.534   6.116   0.546
 1648TIP3    H2 4886   5.643   6.210   0.503
 1649TIP3   OH2 4887   4.025   5.422   0.196
 1649TIP3    H1 4888   4.013   5.386   0.106
 1649TIP3    H2 4889   4.122   5.411   0.208
 1650TIP3   OH2 4890   4.234   5.105   0.871
 1650TIP3    H1 4891   4.331   5.095   0.871
 1650TIP3    H2 4892   4.208   5.019   0.909
 1651TIP3   OH2 4893   6.087   4.969   0.651
 1651TIP3    H1 4894   6.131   4.895   0.603
 1651TIP3    H2 4895   6.037   5.010   0.577
 1652TIP3   OH2 4896   4.194   4.797   0.214
 1652TIP3    H1 4897   4.254   4.720   0.221
 1652TIP3    H2 4898   4.259   4.868   0.199
 1653TIP3   OH2 4899   3.988   5.073   0.287
 1653TIP3    H1 4900   4.042   5.060   0.205
 1653TIP3    H2 4901   4.028   5.153   0.322
 1654TIP3   OH2 4902   5.922   5.085   0.476
 1654TIP3    H1 4903   5.839   5.127   0.448
 1654TIP3    H2 4904   5.980   5.102   0.400
 1655TIP3   OH2 4905   4.199   4.652   0.588
 1655TIP3    H1 4906   4.149   4.646   0.671
 1655TIP3    H2 4907   4.132   4.689   0.528
 1656TIP3   OH2 4908   4.239   6.079   0.666
 1656TIP3    H1 4909   4.147   6.049   0.650
 1656TIP3    H2 4910   4.252   6.055   0.758
 1657TIP3   OH2 4911   5.826   4.861   0.304
 1657TIP3    H1 4912   5.744   4.813   0.283
 1657TIP3    H2 4913   5.889   4.786   0.302
 1658TIP3   OH2 4914   4.071   6.355   0.293
 1658TIP3    H1 4915   3.985   6.401   0.287
 1658TIP3    H2 4916   4.112   6.403   0.366
 1659TIP3   OH2 4917   4.304   4.476  -0.012
 1659TIP3    H1 4918   4.231   4.492  -0.076
 1659TIP3    H2 4919   4.364   4.423  -0.065
 1660TIP3   OH2 4920   4.499   4.775   0.834
 1660TIP3    H1 4921   4.464   4.704   0.891
 1660TIP3    H2 4922   4.593   4.774   0.862
 1661TIP3   OH2 4923   4.748   4.770   0.954
 1661TIP3    H1 4924   4.832   4.744   0.913
 1661TIP3    H2 4925   4.738   4.699   1.021
 1662TIP3   OH2 4926   5.575   4.832   0.742
 1662TIP3    H1 4927   5.594   4.799   0.833
 1662TIP3    H2 4928   5.663   4.825   0.699
 1663TIP3   OH2 4929   6.556   5.046   0.475
 1663TIP3    H1 4930   6.513   4.995   0.405
 1663TIP3    H2 4931   6.522   4.996   0.552
 1664TIP3   OH2 4932   0.350   6.022   1.814
 1664TIP3    H1 4933   0.402   5.951   1.772
 1664TIP3    H2 4934   0.289   6.047   1.744
 1665TIP3   OH2 4935   1.891   6.350   0.598
 1665TIP3    H1 4936   1.881   6.438   0.637
 1665TIP3    H2 4937   1.819   6.347   0.532
 1666TIP3   OH2 4938   1.906   6.573   0.778
 1666TIP3    H1 4939   1.825   6.627   0.767
 1666TIP3    H2 4940   1.916   6.578   0.873
 1667TIP3   OH2 4941   1.639   6.269   0.767
 1667TIP3    H1 4942   1.551   6.303   0.743
 1667TIP3    H2 4943   1.674   6.256   0.676
 1668TIP3   OH2 4944   1.702   6.729   1.086
 1668TIP3    H1 4945   1.624   6.759   1.036
 1668TIP3    H2 4946   1.708   6.636   1.059
 1669TIP3   OH2 4947   1.209   6.098   1.111
 1669TIP3    H1 4948   1.289   6.063   1.156
 1669TIP3    H2 4949   1.137   6.050   1.156
 1670TIP3   OH2 4950   1.470   6.532   1.001
 1670TIP3    H1 4951   1.424   6.509   1.085
 1670TIP3    H2 4952   1.396   6.570   0.951
 1671TIP3   OH2 4953   1.214   6.729   1.259
 1671TIP3    H1 4954   1.189   6.658   1.320
 1671TIP3    H2 4955   1.308   6.741   1.282
 1672TIP3   OH2 4956   1.254   6.319   0.950
 1672TIP3    H1 4957   1.340   6.344   0.986
 1672TIP3    H2 4958   1.238   6.236   0.998
 1673TIP3   OH2 4959   1.734   6.465   0.987
 1673TIP3    H1 4960   1.637   6.473   0.997
 1673TIP3    H2 4961   1.738   6.410   0.906
 1674TIP3   OH2 4962   1.213   7.023   1.293
 1674TIP3    H1 4963   1.282   7.087   1.269
 1674TIP3    H2 4964   1.236   6.999   1.384
 1675TIP3   OH2 4965   1.470   6.748   1.356
 1675TIP3    H1 4966   1.516   6.663   1.352
 1675TIP3    H2 4967   1.528   6.804   1.303
 1676TIP3   OH2 4968   1.507   6.956   1.067
 1676TIP3    H1 4969   1.433   7.018   1.057
 1676TIP3    H2 4970   1.577   6.998   1.014
 1677TIP3   OH2 4971   0.944   5.989   1.139
 1677TIP3    H1 4972   0.896   6.030   1.065
 1677TIP3    H2 4973   0.934   5.894   1.119
 1678TIP3   OH2 4974   1.111   6.511   1.386
 1678TIP3    H1 4975   1.098   6.489   1.480
 1678TIP3    H2 4976   1.020   6.494   1.354
 1679TIP3   OH2 4977   1.339   6.460   1.226
 1679TIP3    H1 4978   1.262   6.459   1.287
 1679TIP3    H2 4979   1.412   6.430   1.284
 1680TIP3   OH2 4980   1.566   6.405   1.376
 1680TIP3    H1 4981   1.571   6.308   1.391
 1680TIP3    H2 4982   1.556   6.440   1.467
 1681TIP3   OH2 4983   1.052   6.024   1.402
 1681TIP3    H1 4984   1.123   5.956   1.405
 1681TIP3    H2 4985   1.003   5.995   1.323
 1682TIP3   OH2 4986   1.131   6.238   1.560
 1682TIP3    H1 4987   1.106   6.163   1.502
 1682TIP3    H2 4988   1.045   6.286   1.567
 1683TIP3   OH2 4989   1.702   7.414   1.128
 1683TIP3    H1 4990   1.624   7.415   1.187
 1683TIP3    H2 4991   1.736   7.503   1.141
 1684TIP3   OH2 4992   1.737   7.085   0.953
 1684TIP3    H1 4993   1.798   7.007   0.965
 1684TIP3    H2 4994   1.749   7.103   0.859
 1685TIP3   OH2 4995   1.905   6.878   1.000
 1685TIP3    H1 4996   1.833   6.820   1.033
 1685TIP3    H2 4997   1.980   6.815   1.005
 1686TIP3   OH2 4998   8.289   3.407   7.382
 1686TIP3    H1 4999   8.199   3.380   7.403
 1686TIP3    H2 5000   8.283   3.410   7.283
 1687TIP3   OH2 5001   2.118   6.272   1.291
 1687TIP3    H1 5002   2.173   6.202   1.248
 1687TIP3    H2 5003   2.085   6.321   1.212
 1688TIP3   OH2 5004   1.982   6.407   1.098
 1688TIP3    H1 5005   1.893   6.446   1.105
 1688TIP3    H2 5006   1.961   6.334   1.036
 1689TIP3   OH2 5007   1.881   6.168   0.975
 1689TIP3    H1 5008   1.792   6.161   0.936
 1689TIP3    H2 5009   1.912   6.075   0.964
 1690TIP3   OH2 5010   1.621   5.991   0.547
 1690TIP3    H1 5011   1.686   6.004   0.475
 1690TIP3    H2 5012   1.537   5.985   0.497
 1691TIP3   OH2 5013   0.588   6.017   1.599
 1691TIP3    H1 5014   0.503   5.997   1.559
 1691TIP3    H2 5015   0.618   6.086   1.537
 1692TIP3   OH2 5016   0.850   6.100   1.637
 1692TIP3    H1 5017   0.910   6.045   1.584
 1692TIP3    H2 5018   0.777   6.037   1.655
 1693TIP3   OH2 5019   1.616   6.133   1.405
 1693TIP3    H1 5020   1.634   6.099   1.495
 1693TIP3    H2 5021   1.704   6.125   1.363
 1694TIP3   OH2 5022   2.156   6.927   0.416
 1694TIP3    H1 5023   2.180   6.855   0.480
 1694TIP3    H2 5024   2.231   6.928   0.356
 1695TIP3   OH2 5025   3.010   6.779   0.138
 1695TIP3    H1 5026   3.065   6.701   0.154
 1695TIP3    H2 5027   3.031   6.797   0.044
 1696TIP3   OH2 5028   2.321   6.437   0.095
 1696TIP3    H1 5029   2.336   6.484   0.012
 1696TIP3    H2 5030   2.297   6.349   0.066
 1697TIP3   OH2 5031   2.437   6.833  -0.008
 1697TIP3    H1 5032   2.518   6.792   0.024
 1697TIP3    H2 5033   2.387   6.758  -0.042
 1698TIP3   OH2 5034   3.693   6.783   0.268
 1698TIP3    H1 5035   3.626   6.855   0.274
 1698TIP3    H2 5036   3.752   6.809   0.341
 1699TIP3   OH2 5037   2.386   6.462   0.553
 1699TIP3    H1 5038   2.335   6.506   0.481
 1699TIP3    H2 5039   2.328   6.478   0.629
 1700TIP3   OH2 5040   2.471   7.222   0.325
 1700TIP3    H1 5041   2.379   7.256   0.315
 1700TIP3    H2 5042   2.515   7.274   0.255
 1701TIP3   OH2 5043   2.228   6.540   0.328
 1701TIP3    H1 5044   2.267   6.624   0.338
 1701TIP3    H2 5045   2.262   6.506   0.248
 1702TIP3   OH2 5046   3.412   6.501   0.241
 1702TIP3    H1 5047   3.317   6.519   0.242
 1702TIP3    H2 5048   3.441   6.567   0.175
 1703TIP3   OH2 5049   2.736   6.124   0.187
 1703TIP3    H1 5050   2.741   6.021   0.237
 1703TIP3    H2 5051   2.687   6.165   0.240
 1704TIP3   OH2 5052   3.237   7.053   0.372
 1704TIP3    H1 5053   3.208   7.131   0.420
 1704TIP3    H2 5054   3.151   7.025   0.333
 1705TIP3   OH2 5055   2.377   6.966   0.251
 1705TIP3    H1 5056   2.401   6.956   0.158
 1705TIP3    H2 5057   2.420   7.050   0.273
 1706TIP3   OH2 5058   2.491   7.466   0.583
 1706TIP3    H1 5059   2.448   7.544   0.621
 1706TIP3    H2 5060   2.421   7.426   0.530
 1707TIP3   OH2 5061   2.246   7.088   0.659
 1707TIP3    H1 5062   2.253   7.166   0.716
 1707TIP3    H2 5063   2.154   7.061   0.674
 1708TIP3   OH2 5064   3.468   6.986   0.597
 1708TIP3    H1 5065   3.431   7.006   0.509
 1708TIP3    H2 5066   3.490   6.891   0.587
 1709TIP3   OH2 5067   2.101   7.395   0.597
 1709TIP3    H1 5068   2.169   7.361   0.659
 1709TIP3    H2 5069   2.095   7.321   0.532
 1710TIP3   OH2 5070   2.519   6.275   0.292
 1710TIP3    H1 5071   2.489   6.363   0.279
 1710TIP3    H2 5072   2.490   6.208   0.319
 1711TIP3   OH2 5073   3.017   6.365   0.590
 1711TIP3    H1 5074   3.088   6.324   0.640
 1711TIP3    H2 5075   2.943   6.322   0.609
 1712TIP3   OH2 5076   3.262   6.770   0.476
 1712TIP3    H1 5077   3.213   6.761   0.561
 1712TIP3    H2 5078   3.230   6.856   0.443
 1713TIP3   OH2 5079   2.418   6.736   0.387
 1713TIP3    H1 5080   2.390   6.766   0.477
 1713TIP3    H2 5081   2.410   6.820   0.336
 1714TIP3   OH2 5082   2.971   6.975   0.715
 1714TIP3    H1 5083   2.905   6.988   0.787
 1714TIP3    H2 5084   3.055   6.983   0.762
 1715TIP3   OH2 5085   2.241   6.756   0.617
 1715TIP3    H1 5086   2.298   6.808   0.671
 1715TIP3    H2 5087   2.226   6.675   0.672
 1716TIP3   OH2 5088   2.980   6.992   0.306
 1716TIP3    H1 5089   2.986   6.929   0.231
 1716TIP3    H2 5090   2.934   6.936   0.372
 1717TIP3   OH2 5091   2.623   6.392   0.064
 1717TIP3    H1 5092   2.527   6.399   0.070
 1717TIP3    H2 5093   2.652   6.462   0.125
 1718TIP3   OH2 5094   3.115   6.513   0.168
 1718TIP3    H1 5095   3.084   6.534   0.258
 1718TIP3    H2 5096   3.047   6.450   0.138
 1719TIP3   OH2 5097   2.261   7.318   0.809
 1719TIP3    H1 5098   2.335   7.348   0.864
 1719TIP3    H2 5099   2.188   7.314   0.875
 1720TIP3   OH2 5100   2.719   6.730   0.112
 1720TIP3    H1 5101   2.815   6.745   0.109
 1720TIP3    H2 5102   2.708   6.712   0.208
 1721TIP3   OH2 5103   2.169   6.273   0.385
 1721TIP3    H1 5104   2.149   6.277   0.465
 1721TIP3    H2 5105   2.211   6.369   0.367
 1722TIP3   OH2 5106   2.690   6.665   0.374
 1722TIP3    H1 5107   2.599   6.701   0.381
 1722TIP3    H2 5108   2.744   6.734   0.421
 1723TIP3   OH2 5109   2.802   7.349   0.469
 1723TIP3    H1 5110   2.813   7.327   0.562
 1723TIP3    H2 5111   2.816   7.445   0.469
 1724TIP3   OH2 5112   1.985   7.010   0.752
 1724TIP3    H1 5113   2.023   7.003   0.841
 1724TIP3    H2 5114   1.979   6.917   0.725
 1725TIP3   OH2 5115   2.935   7.591   0.404
 1725TIP3    H1 5116   2.928   7.588   0.308
 1725TIP3    H2 5117   3.001   7.662   0.415
 1726TIP3   OH2 5118   2.884   7.392   0.209
 1726TIP3    H1 5119   2.836   7.376   0.292
 1726TIP3    H2 5120   2.897   7.301   0.180
 1727TIP3   OH2 5121   2.202   6.514   0.757
 1727TIP3    H1 5122   2.103   6.516   0.761
 1727TIP3    H2 5123   2.224   6.445   0.818
 1728TIP3   OH2 5124   3.046   6.575   0.420
 1728TIP3    H1 5125   3.122   6.616   0.468
 1728TIP3    H2 5126   3.028   6.498   0.480
 1729TIP3   OH2 5127   2.879   6.826   0.497
 1729TIP3    H1 5128   2.898   6.880   0.577
 1729TIP3    H2 5129   2.937   6.750   0.509
 1730TIP3   OH2 5130   3.525   6.714   0.496
 1730TIP3    H1 5131   3.427   6.717   0.492
 1730TIP3    H2 5132   3.546   6.703   0.402
 1731TIP3   OH2 5133   2.334   6.035   0.235
 1731TIP3    H1 5134   2.271   6.104   0.205
 1731TIP3    H2 5135   2.324   6.043   0.330
 1732TIP3   OH2 5136   3.063   7.782   0.580
 1732TIP3    H1 5137   2.998   7.721   0.623
 1732TIP3    H2 5138   3.132   7.778   0.647
 1733TIP3   OH2 5139   2.045   7.293   0.986
 1733TIP3    H1 5140   2.072   7.199   0.988
 1733TIP3    H2 5141   1.949   7.286   0.988
 1734TIP3   OH2 5142   2.666   7.380   0.771
 1734TIP3    H1 5143   2.614   7.393   0.688
 1734TIP3    H2 5144   2.688   7.286   0.768
 1735TIP3   OH2 5145   3.178   7.425   0.428
 1735TIP3    H1 5146   3.217   7.410   0.340
 1735TIP3    H2 5147   3.085   7.442   0.405
 1736TIP3   OH2 5148   2.168   7.037   0.973
 1736TIP3    H1 5149   2.245   6.983   0.950
 1736TIP3    H2 5150   2.193   7.070   1.062
 1737TIP3   OH2 5151   2.489   6.915   0.624
 1737TIP3    H1 5152   2.427   6.990   0.633
 1737TIP3    H2 5153   2.557   6.955   0.565
 1738TIP3   OH2 5154   3.052   7.322   0.761
 1738TIP3    H1 5155   3.038   7.241   0.711
 1738TIP3    H2 5156   3.041   7.286   0.852
 1739TIP3   OH2 5157   2.588   6.703   0.778
 1739TIP3    H1 5158   2.622   6.633   0.721
 1739TIP3    H2 5159   2.568   6.775   0.715
 1740TIP3   OH2 5160   2.649   6.489   0.583
 1740TIP3    H1 5161   2.673   6.539   0.501
 1740TIP3    H2 5162   2.552   6.479   0.571
 1741TIP3   OH2 5163   2.647   7.035   0.436
 1741TIP3    H1 5164   2.729   7.042   0.387
 1741TIP3    H2 5165   2.596   7.112   0.403
 1742TIP3   OH2 5166   3.263   7.007   0.819
 1742TIP3    H1 5167   3.280   6.914   0.836
 1742TIP3    H2 5168   3.340   7.031   0.765
 1743TIP3   OH2 5169   2.458   6.851   0.993
 1743TIP3    H1 5170   2.424   6.760   1.002
 1743TIP3    H2 5171   2.523   6.837   0.922
 1744TIP3   OH2 5172   2.768   6.253   0.638
 1744TIP3    H1 5173   2.721   6.338   0.620
 1744TIP3    H2 5174   2.689   6.189   0.632
 1745TIP3   OH2 5175   3.133   6.708   0.704
 1745TIP3    H1 5176   3.057   6.717   0.763
 1745TIP3    H2 5177   3.204   6.680   0.766
 1746TIP3   OH2 5178   3.359   6.659   0.863
 1746TIP3    H1 5179   3.366   6.563   0.882
 1746TIP3    H2 5180   3.354   6.699   0.952
 1747TIP3   OH2 5181   2.336   6.608   1.052
 1747TIP3    H1 5182   2.350   6.525   1.003
 1747TIP3    H2 5183   2.380   6.588   1.136
 1748TIP3   OH2 5184   2.853   6.272   0.899
 1748TIP3    H1 5185   2.920   6.201   0.892
 1748TIP3    H2 5186   2.813   6.267   0.811
 1749TIP3   OH2 5187   2.924   6.493   1.051
 1749TIP3    H1 5188   2.901   6.420   0.988
 1749TIP3    H2 5189   2.840   6.545   1.052
 1750TIP3   OH2 5190   3.446   7.677   0.616
 1750TIP3    H1 5191   3.415   7.696   0.706
 1750TIP3    H2 5192   3.523   7.733   0.606
 1751TIP3   OH2 5193   3.509   7.339   0.466
 1751TIP3    H1 5194   3.565   7.259   0.475
 1751TIP3    H2 5195   3.534   7.365   0.375
 1752TIP3   OH2 5196   3.680   7.133   0.497
 1752TIP3    H1 5197   3.619   7.059   0.514
 1752TIP3    H2 5198   3.763   7.085   0.484
 1753TIP3   OH2 5199   3.506   6.977   0.310
 1753TIP3    H1 5200   3.409   6.971   0.302
 1753TIP3    H2 5201   3.526   7.039   0.238
 1754TIP3   OH2 5202   2.071   6.664   1.027
 1754TIP3    H1 5203   2.168   6.653   1.020
 1754TIP3    H2 5204   2.046   6.578   1.064
 1755TIP3   OH2 5205   3.911   6.526   0.777
 1755TIP3    H1 5206   3.968   6.458   0.734
 1755TIP3    H2 5207   3.878   6.577   0.701
 1756TIP3   OH2 5208   1.937   6.360   0.290
 1756TIP3    H1 5209   1.998   6.301   0.317
 1756TIP3    H2 5210   1.976   6.443   0.302
 1757TIP3   OH2 5211   3.780   6.663   0.584
 1757TIP3    H1 5212   3.692   6.702   0.602
 1757TIP3    H2 5213   3.752   6.592   0.523
 1758TIP3   OH2 5214   2.056   6.201   0.751
 1758TIP3    H1 5215   1.997   6.193   0.826
 1758TIP3    H2 5216   1.996   6.249   0.686
 1759TIP3   OH2 5217   2.092   7.664   0.848
 1759TIP3    H1 5218   2.021   7.607   0.813
 1759TIP3    H2 5219   2.100   7.632   0.939
 1760TIP3   OH2 5220   3.681   6.425   0.462
 1760TIP3    H1 5221   3.588   6.425   0.435
 1760TIP3    H2 5222   3.704   6.330   0.448
 1761TIP3   OH2 5223   2.924   6.326   0.087
 1761TIP3    H1 5224   2.857   6.279   0.134
 1761TIP3    H2 5225   2.939   6.263   0.013
 1762TIP3   OH2 5226   2.090   6.069   0.080
 1762TIP3    H1 5227   2.032   6.006   0.130
 1762TIP3    H2 5228   2.162   6.014   0.055
 1763TIP3   OH2 5229   2.584   6.103  -0.040
 1763TIP3    H1 5230   2.670   6.133  -0.024
 1763TIP3    H2 5231   2.567   6.057   0.040
 1764TIP3   OH2 5232   2.336   6.327   0.985
 1764TIP3    H1 5233   2.304   6.256   1.043
 1764TIP3    H2 5234   2.430   6.331   1.012
 1765TIP3   OH2 5235   2.583   6.329   1.106
 1765TIP3    H1 5236   2.668   6.311   1.063
 1765TIP3    H2 5237   2.577   6.256   1.171
 1766TIP3   OH2 5238   3.412   6.387   0.892
 1766TIP3    H1 5239   3.430   6.355   0.984
 1766TIP3    H2 5240   3.501   6.382   0.851
 1767TIP3   OH2 5241   3.975   6.685   0.233
 1767TIP3    H1 5242   3.962   6.781   0.229
 1767TIP3    H2 5243   4.042   6.677   0.303
 1768TIP3   OH2 5244   3.834   7.540   0.506
 1768TIP3    H1 5245   3.831   7.444   0.496
 1768TIP3    H2 5246   3.808   7.573   0.418
 1769TIP3   OH2 5247   3.950   7.272   0.518
 1769TIP3    H1 5248   4.019   7.206   0.507
 1769TIP3    H2 5249   3.979   7.319   0.600
 1770TIP3   OH2 5250   4.283   7.094   0.445
 1770TIP3    H1 5251   4.240   7.019   0.490
 1770TIP3    H2 5252   4.352   7.052   0.391
 1771TIP3   OH2 5253   4.147   6.866   0.538
 1771TIP3    H1 5254   4.145   6.773   0.508
 1771TIP3    H2 5255   4.180   6.854   0.629
 1772TIP3   OH2 5256   4.624   6.680   0.560
 1772TIP3    H1 5257   4.671   6.666   0.476
 1772TIP3    H2 5258   4.590   6.772   0.551
 1773TIP3   OH2 5259   3.871   6.915   0.502
 1773TIP3    H1 5260   3.967   6.902   0.507
 1773TIP3    H2 5261   3.840   6.833   0.546
 1774TIP3   OH2 5262   3.812   6.447   0.215
 1774TIP3    H1 5263   3.768   6.448   0.302
 1774TIP3    H2 5264   3.814   6.542   0.194
 1775TIP3   OH2 5265   4.131   6.587   0.472
 1775TIP3    H1 5266   4.096   6.522   0.536
 1775TIP3    H2 5267   4.227   6.585   0.497
 1776TIP3   OH2 5268   4.372   6.585   0.595
 1776TIP3    H1 5269   4.468   6.594   0.579
 1776TIP3    H2 5270   4.369   6.509   0.657
 1777TIP3   OH2 5271   1.029   0.486   3.988
 1777TIP3    H1 5272   1.064   0.401   3.961
 1777TIP3    H2 5273   1.006   0.468   4.080
 1778TIP3   OH2 5274   2.000  -0.507   4.467
 1778TIP3    H1 5275   1.910  -0.471   4.469
 1778TIP3    H2 5276   2.018  -0.524   4.561
 1779TIP3   OH2 5277   1.451   0.282   4.165
 1779TIP3    H1 5278   1.357   0.266   4.193
 1779TIP3    H2 5279   1.438   0.360   4.108
 1780TIP3   OH2 5280   1.665   0.192   4.495
 1780TIP3    H1 5281   1.658   0.114   4.435
 1780TIP3    H2 5282   1.647   0.266   4.433
 1781TIP3   OH2 5283   1.861  -0.175   4.340
 1781TIP3    H1 5284   1.778  -0.123   4.344
 1781TIP3    H2 5285   1.890  -0.154   4.249
 1782TIP3   OH2 5286   1.195   0.279   4.250
 1782TIP3    H1 5287   1.166   0.352   4.308
 1782TIP3    H2 5288   1.179   0.200   4.305
 1783TIP3   OH2 5289   1.905   0.532   4.539
 1783TIP3    H1 5290   1.902   0.436   4.553
 1783TIP3    H2 5291   1.821   0.558   4.584
 1784TIP3   OH2 5292   1.799  -0.350   4.814
 1784TIP3    H1 5293   1.715  -0.302   4.808
 1784TIP3    H2 5294   1.778  -0.433   4.770
 1785TIP3   OH2 5295   1.590   0.887   4.630
 1785TIP3    H1 5296   1.578   0.896   4.533
 1785TIP3    H2 5297   1.655   0.957   4.645
 1786TIP3   OH2 5298   1.633  -0.023   4.327
 1786TIP3    H1 5299   1.669   0.027   4.250
 1786TIP3    H2 5300   1.541  -0.034   4.301
 1787TIP3   OH2 5301   1.291   0.311   4.597
 1787TIP3    H1 5302   1.196   0.326   4.590
 1787TIP3    H2 5303   1.314   0.365   4.675
 1788TIP3   OH2 5304   1.916   0.245   4.580
 1788TIP3    H1 5305   1.818   0.241   4.573
 1788TIP3    H2 5306   1.940   0.213   4.490
 1789TIP3   OH2 5307   0.919   0.358   4.383
 1789TIP3    H1 5308   0.875   0.442   4.360
 1789TIP3    H2 5309   0.883   0.339   4.472
 1790TIP3   OH2 5310   1.240   0.046   4.402
 1790TIP3    H1 5311   1.228   0.065   4.497
 1790TIP3    H2 5312   1.325   0.002   4.404
 1791TIP3   OH2 5313   1.423   0.576   4.477
 1791TIP3    H1 5314   1.344   0.521   4.462
 1791TIP3    H2 5315   1.414   0.640   4.404
 1792TIP3   OH2 5316   1.447   0.549   4.070
 1792TIP3    H1 5317   1.403   0.595   3.995
 1792TIP3    H2 5318   1.541   0.565   4.047
 1793TIP3   OH2 5319   1.353   0.433   4.834
 1793TIP3    H1 5320   1.366   0.349   4.882
 1793TIP3    H2 5321   1.433   0.485   4.859
 1794TIP3   OH2 5322   1.444   0.070   4.617
 1794TIP3    H1 5323   1.522   0.119   4.585
 1794TIP3    H2 5324   1.379   0.142   4.621
 1795TIP3   OH2 5325   1.584  -0.063   4.812
 1795TIP3    H1 5326   1.523  -0.024   4.746
 1795TIP3    H2 5327   1.669  -0.039   4.772
 1796TIP3   OH2 5328   1.702   0.632   4.029
 1796TIP3    H1 5329   1.725   0.672   4.115
 1796TIP3    H2 5330   1.751   0.688   3.966
 1797TIP3   OH2 5331   1.729   0.661   4.308
 1797TIP3    H1 5332   1.686   0.572   4.303
 1797TIP3    H2 5333   1.803   0.639   4.366
 1798TIP3   OH2 5334   1.778   0.337   4.881
 1798TIP3    H1 5335   1.704   0.340   4.945
 1798TIP3    H2 5336   1.814   0.427   4.888
 1799TIP3   OH2 5337   1.773   0.107   4.139
 1799TIP3    H1 5338   1.825   0.043   4.087
 1799TIP3    H2 5339   1.765   0.183   4.077
 1800TIP3   OH2 5340   1.609   0.413   4.339
 1800TIP3    H1 5341   1.535   0.455   4.387
 1800TIP3    H2 5342   1.561   0.365   4.268
 1801TIP3   OH2 5343   1.817   0.008   4.700
 1801TIP3    H1 5344   1.888  -0.060   4.691
 1801TIP3    H2 5345   1.850   0.080   4.644
 1802TIP3   OH2 5346   1.999  -0.183   4.718
 1802TIP3    H1 5347   1.936  -0.247   4.756
 1802TIP3    H2 5348   2.083  -0.216   4.758
 1803TIP3   OH2 5349   1.684  -0.524   4.249
 1803TIP3    H1 5350   1.763  -0.503   4.197
 1803TIP3    H2 5351   1.713  -0.492   4.337
 1804TIP3   OH2 5352   1.745  -0.386   4.482
 1804TIP3    H1 5353   1.667  -0.343   4.519
 1804TIP3    H2 5354   1.791  -0.311   4.437
 1805TIP3   OH2 5355   1.358   0.480   3.674
 1805TIP3    H1 5356   1.276   0.478   3.623
 1805TIP3    H2 5357   1.339   0.552   3.736
 1806TIP3   OH2 5358   1.010   0.642   4.761
 1806TIP3    H1 5359   1.057   0.613   4.842
 1806TIP3    H2 5360   1.085   0.666   4.703
 1807TIP3   OH2 5361   1.203   0.741   4.599
 1807TIP3    H1 5362   1.276   0.691   4.561
 1807TIP3    H2 5363   1.250   0.798   4.664
 1808TIP3   OH2 5364   0.903   0.629   4.280
 1808TIP3    H1 5365   0.843   0.663   4.213
 1808TIP3    H2 5366   0.923   0.711   4.330
 1809TIP3   OH2 5367   1.169   0.547   4.352
 1809TIP3    H1 5368   1.074   0.556   4.330
 1809TIP3    H2 5369   1.207   0.624   4.307
 1810TIP3   OH2 5370   1.384   0.740   4.264
 1810TIP3    H1 5371   1.364   0.823   4.215
 1810TIP3    H2 5372   1.404   0.677   4.191
 1811TIP3   OH2 5373   1.657   0.616   4.637
 1811TIP3    H1 5374   1.578   0.584   4.589
 1811TIP3    H2 5375   1.638   0.712   4.640
 1812TIP3   OH2 5376   2.921  -0.012   3.408
 1812TIP3    H1 5377   2.891   0.078   3.385
 1812TIP3    H2 5378   2.843  -0.064   3.381
 1813TIP3   OH2 5379   2.918  -0.010   3.785
 1813TIP3    H1 5380   2.945  -0.045   3.871
 1813TIP3    H2 5381   2.880  -0.089   3.743
 1814TIP3   OH2 5382   2.221  -0.115   4.149
 1814TIP3    H1 5383   2.252  -0.186   4.208
 1814TIP3    H2 5384   2.298  -0.057   4.148
 1815TIP3   OH2 5385   3.161   0.291   3.467
 1815TIP3    H1 5386   3.150   0.216   3.528
 1815TIP3    H2 5387   3.193   0.361   3.525
 1816TIP3   OH2 5388   2.191   0.295   3.879
 1816TIP3    H1 5389   2.181   0.197   3.883
 1816TIP3    H2 5390   2.288   0.301   3.875
 1817TIP3   OH2 5391   1.973  -0.201   3.836
 1817TIP3    H1 5392   2.007  -0.288   3.866
 1817TIP3    H2 5393   2.015  -0.191   3.750
 1818TIP3   OH2 5394   2.816   0.754   3.486
 1818TIP3    H1 5395   2.861   0.683   3.436
 1818TIP3    H2 5396   2.797   0.710   3.570
 1819TIP3   OH2 5397   2.720   0.214   3.835
 1819TIP3    H1 5398   2.754   0.135   3.790
 1819TIP3    H2 5399   2.805   0.257   3.856
 1820TIP3   OH2 5400   3.126  -0.259   3.864
 1820TIP3    H1 5401   3.164  -0.348   3.882
 1820TIP3    H2 5402   3.089  -0.272   3.774
 1821TIP3   OH2 5403   2.365  -0.624   3.842
 1821TIP3    H1 5404   2.415  -0.548   3.810
 1821TIP3    H2 5405   2.434  -0.679   3.881
 1822TIP3   OH2 5406   3.136  -0.515   3.496
 1822TIP3    H1 5407   3.206  -0.582   3.506
 1822TIP3    H2 5408   3.142  -0.499   3.400
 1823TIP3   OH2 5409   2.090  -0.429   3.924
 1823TIP3    H1 5410   2.170  -0.431   3.982
 1823TIP3    H2 5411   2.107  -0.509   3.872
 1824TIP3   OH2 5412   2.548  -0.218   3.731
 1824TIP3    H1 5413   2.641  -0.244   3.750
 1824TIP3    H2 5414   2.514  -0.302   3.694
 1825TIP3   OH2 5415   3.789  -0.272   3.948
 1825TIP3    H1 5416   3.706  -0.222   3.953
 1825TIP3    H2 5417   3.817  -0.272   4.042
 1826TIP3   OH2 5418   2.813   0.208   3.274
 1826TIP3    H1 5419   2.772   0.191   3.188
 1826TIP3    H2 5420   2.769   0.292   3.299
 1827TIP3   OH2 5421   2.577   0.132   4.068
 1827TIP3    H1 5422   2.510   0.193   4.106
 1827TIP3    H2 5423   2.610   0.184   3.992
 1828TIP3   OH2 5424   2.306  -0.478   4.076
 1828TIP3    H1 5425   2.394  -0.441   4.097
 1828TIP3    H2 5426   2.329  -0.569   4.052
 1829TIP3   OH2 5427   2.400   0.324   4.161
 1829TIP3    H1 5428   2.372   0.409   4.123
 1829TIP3    H2 5429   2.322   0.306   4.218
 1830TIP3   OH2 5430   3.236   0.533   3.639
 1830TIP3    H1 5431   3.146   0.524   3.677
 1830TIP3    H2 5432   3.226   0.616   3.589
 1831TIP3   OH2 5433   2.941   0.580   3.315
 1831TIP3    H1 5434   2.988   0.496   3.293
 1831TIP3    H2 5435   3.002   0.644   3.271
 1832TIP3   OH2 5436   3.080   0.364   3.215
 1832TIP3    H1 5437   3.040   0.286   3.176
 1832TIP3    H2 5438   3.114   0.328   3.300
 1833TIP3   OH2 5439   3.458   0.448   3.979
 1833TIP3    H1 5440   3.450   0.367   3.923
 1833TIP3    H2 5441   3.447   0.519   3.913
 1834TIP3   OH2 5442   2.750  -0.165   3.229
 1834TIP3    H1 5443   2.686  -0.094   3.210
 1834TIP3    H2 5444   2.812  -0.160   3.153
 1835TIP3   OH2 5445   3.655   0.084   3.821
 1835TIP3    H1 5446   3.572   0.135   3.827
 1835TIP3    H2 5447   3.685   0.109   3.731
 1836TIP3   OH2 5448   3.107  -0.068   3.212
 1836TIP3    H1 5449   3.050  -0.050   3.290
 1836TIP3    H2 5450   3.189  -0.097   3.256
 1837TIP3   OH2 5451   3.327  -0.023   4.109
 1837TIP3    H1 5452   3.324   0.058   4.163
 1837TIP3    H2 5453   3.238  -0.021   4.068
 1838TIP3   OH2 5454   2.336  -0.078   3.625
 1838TIP3    H1 5455   2.296  -0.139   3.562
 1838TIP3    H2 5456   2.413  -0.129   3.658
 1839TIP3   OH2 5457   2.465   0.335   3.773
 1839TIP3    H1 5458   2.437   0.290   3.692
 1839TIP3    H2 5459   2.553   0.296   3.789
 1840TIP3   OH2 5460   2.476  -0.113   3.983
 1840TIP3    H1 5461   2.503  -0.131   3.891
 1840TIP3    H2 5462   2.512  -0.023   4.000
 1841TIP3   OH2 5463   2.994   0.534   3.760
 1841TIP3    H1 5464   2.975   0.604   3.823
 1841TIP3    H2 5465   2.980   0.453   3.814
 1842TIP3   OH2 5466   2.604   0.451   4.301
 1842TIP3    H1 5467   2.543   0.511   4.349
 1842TIP3    H2 5468   2.539   0.396   4.252
 1843TIP3   OH2 5469   2.936  -0.191   3.036
 1843TIP3    H1 5470   3.008  -0.154   3.090
 1843TIP3    H2 5471   2.976  -0.193   2.947
 1844TIP3   OH2 5472   2.359   0.009   4.399
 1844TIP3    H1 5473   2.361   0.093   4.451
 1844TIP3    H2 5474   2.266  -0.016   4.412
 1845TIP3   OH2 5475   2.684   0.459   3.316
 1845TIP3    H1 5476   2.759   0.519   3.331
 1845TIP3    H2 5477   2.621   0.513   3.267
 1846TIP3   OH2 5478   2.401   0.623   4.395
 1846TIP3    H1 5479   2.365   0.620   4.304
 1846TIP3    H2 5480   2.323   0.597   4.449
 1847TIP3   OH2 5481   3.252   0.385   2.629
 1847TIP3    H1 5482   3.261   0.482   2.616
 1847TIP3    H2 5483   3.346   0.356   2.618
 1848TIP3   OH2 5484   1.980   0.145   4.338
 1848TIP3    H1 5485   1.917   0.123   4.267
 1848TIP3    H2 5486   2.018   0.058   4.361
 1849TIP3   OH2 5487   1.833   0.336   3.974
 1849TIP3    H1 5488   1.929   0.338   3.963
 1849TIP3    H2 5489   1.816   0.419   4.021
 1850TIP3   OH2 5490   3.690   0.786   4.026
 1850TIP3    H1 5491   3.700   0.689   4.036
 1850TIP3    H2 5492   3.619   0.803   4.089
 1851TIP3   OH2 5493   2.805   0.574   4.164
 1851TIP3    H1 5494   2.797   0.667   4.193
 1851TIP3    H2 5495   2.730   0.533   4.213
 1852TIP3   OH2 5496   2.568   0.710   3.109
 1852TIP3    H1 5497   2.517   0.684   3.030
 1852TIP3    H2 5498   2.526   0.793   3.136
 1853TIP3   OH2 5499   2.012   0.568   3.495
 1853TIP3    H1 5500   2.056   0.557   3.582
 1853TIP3    H2 5501   1.955   0.487   3.497
 1854TIP3   OH2 5502   2.768   0.606   2.755
 1854TIP3    H1 5503   2.828   0.537   2.720
 1854TIP3    H2 5504   2.798   0.613   2.848
 1855TIP3   OH2 5505   2.818   0.654   3.023
 1855TIP3    H1 5506   2.727   0.664   3.061
 1855TIP3    H2 5507   2.863   0.608   3.096
 1856TIP3   OH2 5508   3.602  -0.098   4.303
 1856TIP3    H1 5509   3.534  -0.037   4.270
 1856TIP3    H2 5510   3.560  -0.182   4.275
 1857TIP3   OH2 5511   2.184   0.328   4.327
 1857TIP3    H1 5512   2.233   0.311   4.410
 1857TIP3    H2 5513   2.110   0.265   4.334
 1858TIP3   OH2 5514   3.406  -0.264   4.228
 1858TIP3    H1 5515   3.372  -0.265   4.319
 1858TIP3    H2 5516   3.361  -0.189   4.186
 1859TIP3   OH2 5517   3.042  -0.186   2.783
 1859TIP3    H1 5518   2.959  -0.163   2.740
 1859TIP3    H2 5519   3.104  -0.118   2.749
 1860TIP3   OH2 5520   2.534  -0.327   4.141
 1860TIP3    H1 5521   2.472  -0.308   4.215
 1860TIP3    H2 5522   2.513  -0.252   4.081
 1861TIP3   OH2 5523   2.412  -0.430   3.625
 1861TIP3    H1 5524   2.321  -0.435   3.659
 1861TIP3    H2 5525   2.405  -0.491   3.550
 1862TIP3   OH2 5526   2.885  -0.358   3.371
 1862TIP3    H1 5527   2.838  -0.288   3.321
 1862TIP3    H2 5528   2.947  -0.392   3.302
 1863TIP3   OH2 5529   3.070  -0.057   4.448
 1863TIP3    H1 5530   3.045  -0.133   4.506
 1863TIP3    H2 5531   3.164  -0.047   4.473
 1864TIP3   OH2 5532   3.030  -0.301   3.614
 1864TIP3    H1 5533   2.972  -0.280   3.538
 1864TIP3    H2 5534   3.069  -0.385   3.579
 1865TIP3   OH2 5535   2.339  -0.294   4.334
 1865TIP3    H1 5536   2.350  -0.242   4.414
 1865TIP3    H2 5537   2.294  -0.374   4.365
 1866TIP3   OH2 5538   3.051  -0.073   4.039
 1866TIP3    H1 5539   3.087  -0.138   3.974
 1866TIP3    H2 5540   3.032  -0.132   4.114
 1867TIP3   OH2 5541   3.373   1.134   4.128
 1867TIP3    H1 5542   3.373   1.166   4.036
 1867TIP3    H2 5543   3.449   1.184   4.165
 1868TIP3   OH2 5544   2.348   0.252   4.547
 1868TIP3    H1 5545   2.425   0.283   4.598
 1868TIP3    H2 5546   2.281   0.247   4.618
 1869TIP3   OH2 5547   2.802  -0.296   3.802
 1869TIP3    H1 5548   2.880  -0.331   3.757
 1869TIP3    H2 5549   2.808  -0.338   3.891
 1870TIP3   OH2 5550   2.801  -0.379   4.068
 1870TIP3    H1 5551   2.707  -0.379   4.095
 1870TIP3    H2 5552   2.844  -0.334   4.142
 1871TIP3   OH2 5553   2.531  -0.007   3.191
 1871TIP3    H1 5554   2.446  -0.051   3.177
 1871TIP3    H2 5555   2.516   0.031   3.281
 1872TIP3   OH2 5556   3.423   0.230   3.817
 1872TIP3    H1 5557   3.447   0.278   3.735
 1872TIP3    H2 5558   3.340   0.184   3.792
 1873TIP3   OH2 5559   2.940   0.322   4.183
 1873TIP3    H1 5560   2.938   0.276   4.267
 1873TIP3    H2 5561   2.877   0.396   4.196
 1874TIP3   OH2 5562   3.047  -0.440   3.176
 1874TIP3    H1 5563   3.143  -0.437   3.161
 1874TIP3    H2 5564   3.009  -0.416   3.090
 1875TIP3   OH2 5565   2.224   0.022   3.866
 1875TIP3    H1 5566   2.254  -0.015   3.780
 1875TIP3    H2 5567   2.244  -0.050   3.927
 1876TIP3   OH2 5568   2.676   0.149   3.011
 1876TIP3    H1 5569   2.628   0.234   3.018
 1876TIP3    H2 5570   2.618   0.091   3.064
 1877TIP3   OH2 5571   2.098  -0.068   4.471
 1877TIP3    H1 5572   2.111  -0.080   4.567
 1877TIP3    H2 5573   2.027  -0.132   4.454
 1878TIP3   OH2 5574   2.820   0.051   4.493
 1878TIP3    H1 5575   2.757  -0.010   4.451
 1878TIP3    H2 5576   2.906   0.017   4.461
 1879TIP3   OH2 5577   3.081   0.597   4.073
 1879TIP3    H1 5578   2.991   0.562   4.088
 1879TIP3    H2 5579   3.109   0.619   4.162
 1880TIP3   OH2 5580   3.516  -0.341   2.974
 1880TIP3    H1 5581   3.456  -0.406   2.936
 1880TIP3    H2 5582   3.494  -0.260   2.924
 1881TIP3   OH2 5583   3.709   0.503   4.066
 1881TIP3    H1 5584   3.612   0.496   4.057
 1881TIP3    H2 5585   3.737   0.469   3.978
 1882TIP3   OH2 5586   3.189   0.460   2.894
 1882TIP3    H1 5587   3.169   0.390   2.958
 1882TIP3    H2 5588   3.208   0.411   2.812
 1883TIP3   OH2 5589   3.188   0.090   3.739
 1883TIP3    H1 5590   3.095   0.063   3.748
 1883TIP3    H2 5591   3.224   0.012   3.692
 1884TIP3   OH2 5592   2.315   0.317   3.485
 1884TIP3    H1 5593   2.311   0.400   3.433
 1884TIP3    H2 5594   2.221   0.300   3.499
 1885TIP3   OH2 5595   2.456   0.086   3.430
 1885TIP3    H1 5596   2.420   0.176   3.449
 1885TIP3    H2 5597   2.421   0.037   3.506
 1886TIP3   OH2 5598   2.583   0.664   3.958
 1886TIP3    H1 5599   2.624   0.734   3.903
 1886TIP3    H2 5600   2.661   0.625   4.001
 1887TIP3   OH2 5601   2.238   0.553   3.336
 1887TIP3    H1 5602   2.153   0.562   3.383
 1887TIP3    H2 5603   2.269   0.647   3.337
 1888TIP3   OH2 5604   2.980   0.299   3.914
 1888TIP3    H1 5605   2.970   0.293   4.011
 1888TIP3    H2 5606   3.051   0.236   3.897
 1889TIP3   OH2 5607   2.942   0.179   2.801
 1889TIP3    H1 5608   3.000   0.161   2.878
 1889TIP3    H2 5609   2.856   0.160   2.842
 1890TIP3   OH2 5610   3.221   0.831   3.967
 1890TIP3    H1 5611   3.145   0.770   3.955
 1890TIP3    H2 5612   3.206   0.894   3.892
 1891TIP3   OH2 5613   3.287   0.661   2.618
 1891TIP3    H1 5614   3.327   0.731   2.564
 1891TIP3    H2 5615   3.208   0.710   2.650
 1892TIP3   OH2 5616   3.109   0.124   3.011
 1892TIP3    H1 5617   3.095   0.060   3.084
 1892TIP3    H2 5618   3.207   0.120   3.004
 1893TIP3   OH2 5619   2.028   0.526   4.113
 1893TIP3    H1 5620   2.074   0.448   4.148
 1893TIP3    H2 5621   2.048   0.591   4.182
 1894TIP3   OH2 5622   2.302   0.163   3.083
 1894TIP3    H1 5623   2.321   0.135   3.173
 1894TIP3    H2 5624   2.273   0.255   3.098
 1895TIP3   OH2 5625   2.534   0.380   3.033
 1895TIP3    H1 5626   2.443   0.400   3.059
 1895TIP3    H2 5627   2.533   0.402   2.938
 1896TIP3   OH2 5628   2.698  -0.548   3.440
 1896TIP3    H1 5629   2.765  -0.487   3.402
 1896TIP3    H2 5630   2.754  -0.599   3.499
 1897TIP3   OH2 5631   3.002  -0.248   4.249
 1897TIP3    H1 5632   2.989  -0.168   4.304
 1897TIP3    H2 5633   3.019  -0.313   4.319
 1898TIP3   OH2 5634   2.258   0.442   3.078
 1898TIP3    H1 5635   2.237   0.521   3.024
 1898TIP3    H2 5636   2.245   0.479   3.168
 1899TIP3   OH2 5637   3.275  -0.146   3.610
 1899TIP3    H1 5638   3.198  -0.204   3.618
 1899TIP3    H2 5639   3.345  -0.196   3.657
 1900TIP3   OH2 5640   3.242   0.805   3.560
 1900TIP3    H1 5641   3.199   0.852   3.485
 1900TIP3    H2 5642   3.336   0.823   3.539
 1901TIP3   OH2 5643   1.894   0.323   3.525
 1901TIP3    H1 5644   1.809   0.331   3.569
 1901TIP3    H2 5645   1.867   0.300   3.434
 1902TIP3   OH2 5646   2.022   0.825   4.517
 1902TIP3    H1 5647   2.100   0.828   4.576
 1902TIP3    H2 5648   1.990   0.735   4.532
 1903TIP3   OH2 5649   2.525   0.803   4.574
 1903TIP3    H1 5650   2.605   0.749   4.579
 1903TIP3    H2 5651   2.474   0.753   4.507
 1904TIP3   OH2 5652   2.505   0.364   2.753
 1904TIP3    H1 5653   2.433   0.299   2.759
 1904TIP3    H2 5654   2.551   0.336   2.672
 1905TIP3   OH2 5655   3.188   0.728   4.325
 1905TIP3    H1 5656   3.125   0.672   4.376
 1905TIP3    H2 5657   3.270   0.689   4.362
 1906TIP3   OH2 5658   2.921   0.417   2.629
 1906TIP3    H1 5659   2.973   0.359   2.687
 1906TIP3    H2 5660   2.974   0.419   2.547
 1907TIP3   OH2 5661   2.146   0.239   4.736
 1907TIP3    H1 5662   2.160   0.143   4.746
 1907TIP3    H2 5663   2.058   0.241   4.694
 1908TIP3   OH2 5664   2.755   0.325   4.508
 1908TIP3    H1 5665   2.706   0.334   4.425
 1908TIP3    H2 5666   2.783   0.230   4.506
 1909TIP3   OH2 5667   3.248   0.328   4.121
 1909TIP3    H1 5668   3.318   0.375   4.073
 1909TIP3    H2 5669   3.169   0.380   4.100
 1910TIP3   OH2 5670   2.267  -0.026   4.718
 1910TIP3    H1 5671   2.338  -0.090   4.703
 1910TIP3    H2 5672   2.288   0.004   4.808
 1911TIP3   OH2 5673   2.602  -0.124   4.385
 1911TIP3    H1 5674   2.516  -0.077   4.384
 1911TIP3    H2 5675   2.640  -0.102   4.298
 1912TIP3   OH2 5676   3.123   0.269   4.517
 1912TIP3    H1 5677   3.197   0.233   4.466
 1912TIP3    H2 5678   3.107   0.198   4.581
 1913TIP3   OH2 5679   3.256  -0.080   2.635
 1913TIP3    H1 5680   3.259  -0.112   2.545
 1913TIP3    H2 5681   3.221   0.011   2.622
 1914TIP3   OH2 5682   2.710  -0.340   4.505
 1914TIP3    H1 5683   2.705  -0.406   4.435
 1914TIP3    H2 5684   2.664  -0.264   4.462
 1915TIP3   OH2 5685   2.767  -0.027   4.184
 1915TIP3    H1 5686   2.839  -0.024   4.119
 1915TIP3    H2 5687   2.701   0.034   4.145
 1916TIP3   OH2 5688   3.322  -0.041   4.553
 1916TIP3    H1 5689   3.350  -0.119   4.604
 1916TIP3    H2 5690   3.405   0.006   4.538
 1917TIP3   OH2 5691   3.378   0.187   4.308
 1917TIP3    H1 5692   3.316   0.238   4.251
 1917TIP3    H2 5693   3.463   0.214   4.265
 1918TIP3   OH2 5694   2.571  -0.230   4.731
 1918TIP3    H1 5695   2.525  -0.313   4.755
 1918TIP3    H2 5696   2.629  -0.261   4.660
 1919TIP3   OH2 5697   2.968  -0.271   4.572
 1919TIP3    H1 5698   2.984  -0.325   4.653
 1919TIP3    H2 5699   2.874  -0.294   4.557
 1920TIP3   OH2 5700   2.245   0.654   2.901
 1920TIP3    H1 5701   2.339   0.655   2.875
 1920TIP3    H2 5702   2.206   0.699   2.825
 1921TIP3   OH2 5703   1.641   0.657   3.534
 1921TIP3    H1 5704   1.560   0.611   3.508
 1921TIP3    H2 5705   1.678   0.596   3.602
 1922TIP3   OH2 5706   1.759   0.504   3.727
 1922TIP3    H1 5707   1.754   0.426   3.783
 1922TIP3    H2 5708   1.814   0.563   3.782
 1923TIP3   OH2 5709   3.494   0.896   3.516
 1923TIP3    H1 5710   3.523   0.938   3.599
 1923TIP3    H2 5711   3.553   0.938   3.451
 1924TIP3   OH2 5712   3.520   0.916   3.804
 1924TIP3    H1 5713   3.483   0.826   3.790
 1924TIP3    H2 5714   3.604   0.893   3.847
 1925TIP3   OH2 5715   3.563   0.598   4.369
 1925TIP3    H1 5716   3.495   0.608   4.438
 1925TIP3    H2 5717   3.607   0.685   4.373
 1926TIP3   OH2 5718   3.386   0.107   2.988
 1926TIP3    H1 5719   3.457   0.169   2.961
 1926TIP3    H2 5720   3.428   0.067   3.069
 1927TIP3   OH2 5721   3.515  -0.022   3.191
 1927TIP3    H1 5722   3.449  -0.067   3.249
 1927TIP3    H2 5723   3.578   0.014   3.256
 1928TIP3   OH2 5724   3.567   0.364   3.625
 1928TIP3    H1 5725   3.620   0.298   3.576
 1928TIP3    H2 5726   3.561   0.437   3.560
 1929TIP3   OH2 5727   3.401   0.664   3.818
 1929TIP3    H1 5728   3.324   0.698   3.866
 1929TIP3    H2 5729   3.358   0.615   3.745
 1930TIP3   OH2 5730   3.448  -0.114   2.832
 1930TIP3    H1 5731   3.377  -0.104   2.765
 1930TIP3    H2 5732   3.424  -0.042   2.893
 1931TIP3   OH2 5733   3.324  -0.475   2.778
 1931TIP3    H1 5734   3.283  -0.389   2.768
 1931TIP3    H2 5735   3.248  -0.533   2.790
 1932TIP3   OH2 5736   3.332  -0.159   3.341
 1932TIP3    H1 5737   3.330  -0.256   3.323
 1932TIP3    H2 5738   3.319  -0.156   3.438
 1933TIP3   OH2 5739   1.955  -0.096   4.088
 1933TIP3    H1 5740   1.952  -0.125   3.994
 1933TIP3    H2 5741   2.052  -0.096   4.103
 1934TIP3   OH2 5742   3.609   0.265   4.191
 1934TIP3    H1 5743   3.680   0.196   4.182
 1934TIP3    H2 5744   3.641   0.334   4.131
 1935TIP3   OH2 5745   3.792   0.074   4.208
 1935TIP3    H1 5746   3.734   0.003   4.242
 1935TIP3    H2 5747   3.878   0.047   4.246
 1936TIP3   OH2 5748   3.328  -0.428   3.267
 1936TIP3    H1 5749   3.337  -0.511   3.318
 1936TIP3    H2 5750   3.382  -0.453   3.189
 1937TIP3   OH2 5751   3.488  -0.268   3.739
 1937TIP3    H1 5752   3.571  -0.246   3.692
 1937TIP3    H2 5753   3.505  -0.224   3.825
 1938TIP3   OH2 5754   3.549  -0.127   3.964
 1938TIP3    H1 5755   3.470  -0.093   4.010
 1938TIP3    H2 5756   3.585  -0.046   3.923
 1939TIP3   OH2 5757   2.205  -0.324   4.818
 1939TIP3    H1 5758   2.294  -0.351   4.788
 1939TIP3    H2 5759   2.159  -0.410   4.809
 1940TIP3   OH2 5760   1.934  -0.434   4.156
 1940TIP3    H1 5761   1.980  -0.434   4.070
 1940TIP3    H2 5762   1.969  -0.356   4.199
 1941TIP3   OH2 5763   3.079   0.763   3.171
 1941TIP3    H1 5764   3.128   0.747   3.088
 1941TIP3    H2 5765   3.136   0.829   3.215
 1942TIP3   OH2 5766   2.184   0.561   4.563
 1942TIP3    H1 5767   2.093   0.539   4.537
 1942TIP3    H2 5768   2.183   0.540   4.657
 1943TIP3   OH2 5769   2.359   0.597   4.109
 1943TIP3    H1 5770   2.304   0.668   4.070
 1943TIP3    H2 5771   2.443   0.615   4.061
 1944TIP3   OH2 5772   2.815   0.844   4.239
 1944TIP3    H1 5773   2.837   0.838   4.335
 1944TIP3    H2 5774   2.892   0.892   4.207
 1945TIP3   OH2 5775   3.065   0.988   4.137
 1945TIP3    H1 5776   3.049   0.932   4.058
 1945TIP3    H2 5777   3.037   1.074   4.102
 1946TIP3   OH2 5778   2.038   0.858   4.127
 1946TIP3    H1 5779   1.948   0.889   4.103
 1946TIP3    H2 5780   2.041   0.886   4.220
 1947TIP3   OH2 5781   2.274   0.836   3.986
 1947TIP3    H1 5782   2.188   0.847   4.032
 1947TIP3    H2 5783   2.251   0.867   3.896
 1948TIP3   OH2 5784   2.699   0.862   3.780
 1948TIP3    H1 5785   2.626   0.877   3.716
 1948TIP3    H2 5786   2.708   0.951   3.820
 1949TIP3   OH2 5787   2.963   0.823   3.854
 1949TIP3    H1 5788   2.871   0.826   3.820
 1949TIP3    H2 5789   3.010   0.875   3.786
 1950TIP3   OH2 5790   3.173   0.994   3.752
 1950TIP3    H1 5791   3.160   1.078   3.704
 1950TIP3    H2 5792   3.202   0.934   3.678
 1951TIP3   OH2 5793   1.949   0.652   3.874
 1951TIP3    H1 5794   1.974   0.624   3.964
 1951TIP3    H2 5795   2.018   0.604   3.822
 1952TIP3   OH2 5796   2.141   0.522   3.731
 1952TIP3    H1 5797   2.154   0.436   3.778
 1952TIP3    H2 5798   2.232   0.555   3.724
 1953TIP3   OH2 5799   2.409   0.617   3.728
 1953TIP3    H1 5800   2.438   0.525   3.716
 1953TIP3    H2 5801   2.445   0.635   3.817
 1954TIP3   OH2 5802   2.507   0.627   2.836
 1954TIP3    H1 5803   2.600   0.638   2.807
 1954TIP3    H2 5804   2.490   0.541   2.793
 1955TIP3   OH2 5805   3.223   0.726   2.939
 1955TIP3    H1 5806   3.215   0.628   2.927
 1955TIP3    H2 5807   3.181   0.758   2.857
 1956TIP3   OH2 5808   3.411   0.867   4.149
 1956TIP3    H1 5809   3.381   0.839   4.060
 1956TIP3    H2 5810   3.446   0.957   4.131
 1957TIP3   OH2 5811   4.714   0.243   2.898
 1957TIP3    H1 5812   4.687   0.335   2.875
 1957TIP3    H2 5813   4.640   0.194   2.858
 1958TIP3   OH2 5814   4.704   0.252   3.280
 1958TIP3    H1 5815   4.742   0.214   3.361
 1958TIP3    H2 5816   4.677   0.172   3.232
 1959TIP3   OH2 5817   4.016   0.140   3.637
 1959TIP3    H1 5818   4.045   0.072   3.701
 1959TIP3    H2 5819   4.093   0.198   3.637
 1960TIP3   OH2 5820   4.946   0.547   2.964
 1960TIP3    H1 5821   4.954   0.465   3.015
 1960TIP3    H2 5822   5.011   0.604   3.007
 1961TIP3   OH2 5823   3.986   0.549   3.365
 1961TIP3    H1 5824   3.976   0.451   3.368
 1961TIP3    H2 5825   4.083   0.556   3.362
 1962TIP3   OH2 5826   3.688  -0.243   3.161
 1962TIP3    H1 5827   3.633  -0.164   3.171
 1962TIP3    H2 5828   3.631  -0.296   3.102
 1963TIP3   OH2 5829   3.754   0.045   3.320
 1963TIP3    H1 5830   3.797  -0.037   3.352
 1963TIP3    H2 5831   3.809   0.067   3.243
 1964TIP3   OH2 5832   4.601   1.009   2.967
 1964TIP3    H1 5833   4.652   0.939   2.920
 1964TIP3    H2 5834   4.599   0.977   3.057
 1965TIP3   OH2 5835   4.520   0.472   3.322
 1965TIP3    H1 5836   4.515   0.392   3.268
 1965TIP3    H2 5837   4.615   0.472   3.336
 1966TIP3   OH2 5838   4.921  -0.001   3.350
 1966TIP3    H1 5839   4.958  -0.088   3.374
 1966TIP3    H2 5840   4.887  -0.019   3.260
 1967TIP3   OH2 5841   4.198  -0.357   3.359
 1967TIP3    H1 5842   4.208  -0.288   3.291
 1967TIP3    H2 5843   4.259  -0.424   3.323
 1968TIP3   OH2 5844   4.928  -0.261   2.979
 1968TIP3    H1 5845   4.995  -0.324   3.009
 1968TIP3    H2 5846   4.961  -0.242   2.890
 1969TIP3   OH2 5847   3.892  -0.167   3.416
 1969TIP3    H1 5848   3.970  -0.178   3.473
 1969TIP3    H2 5849   3.915  -0.225   3.340
 1970TIP3   OH2 5850   4.341   0.032   3.218
 1970TIP3    H1 5851   4.434   0.007   3.235
 1970TIP3    H2 5852   4.304  -0.054   3.188
 1971TIP3   OH2 5853   5.592   0.005   3.439
 1971TIP3    H1 5854   5.502   0.041   3.443
 1971TIP3    H2 5855   5.611  -0.011   3.533
 1972TIP3   OH2 5856   4.606   0.463   2.767
 1972TIP3    H1 5857   4.570   0.444   2.679
 1972TIP3    H2 5858   4.564   0.549   2.787
 1973TIP3   OH2 5859   4.370   0.387   3.551
 1973TIP3    H1 5860   4.304   0.446   3.594
 1973TIP3    H2 5861   4.400   0.443   3.477
 1974TIP3   OH2 5862   4.097  -0.242   3.576
 1974TIP3    H1 5863   4.174  -0.186   3.598
 1974TIP3    H2 5864   4.135  -0.296   3.503
 1975TIP3   OH2 5865   4.191   0.578   3.643
 1975TIP3    H1 5866   4.162   0.665   3.609
 1975TIP3    H2 5867   4.115   0.560   3.703
 1976TIP3   OH2 5868   3.592   0.272   2.883
 1976TIP3    H1 5869   3.552   0.300   2.798
 1976TIP3    H2 5870   3.623   0.357   2.920
 1977TIP3   OH2 5871   5.003   0.799   3.142
 1977TIP3    H1 5872   4.919   0.782   3.097
 1977TIP3    H2 5873   5.033   0.878   3.092
 1978TIP3   OH2 5874   4.740   0.835   2.809
 1978TIP3    H1 5875   4.783   0.751   2.779
 1978TIP3    H2 5876   4.799   0.899   2.763
 1979TIP3   OH2 5877   4.871   0.620   2.705
 1979TIP3    H1 5878   4.847   0.542   2.652
 1979TIP3    H2 5879   4.901   0.579   2.788
 1980TIP3   OH2 5880   5.250   0.704   3.469
 1980TIP3    H1 5881   5.246   0.626   3.410
 1980TIP3    H2 5882   5.244   0.778   3.405
 1981TIP3   OH2 5883   4.549   0.100   2.722
 1981TIP3    H1 5884   4.468   0.150   2.699
 1981TIP3    H2 5885   4.595   0.094   2.636
 1982TIP3   OH2 5886   4.505  -0.122   2.455
 1982TIP3    H1 5887   4.573  -0.066   2.496
 1982TIP3    H2 5888   4.562  -0.173   2.394
 1983TIP3   OH2 5889   5.451   0.342   3.314
 1983TIP3    H1 5890   5.368   0.395   3.317
 1983TIP3    H2 5891   5.480   0.360   3.222
 1984TIP3   OH2 5892   4.894   0.178   2.698
 1984TIP3    H1 5893   4.841   0.201   2.777
 1984TIP3    H2 5894   4.980   0.157   2.739
 1985TIP3   OH2 5895   5.122   0.233   3.597
 1985TIP3    H1 5896   5.122   0.313   3.653
 1985TIP3    H2 5897   5.035   0.241   3.555
 1986TIP3   OH2 5898   4.128   0.178   3.112
 1986TIP3    H1 5899   4.084   0.120   3.046
 1986TIP3    H2 5900   4.205   0.123   3.140
 1987TIP3   OH2 5901   4.260   0.590   3.260
 1987TIP3    H1 5902   4.228   0.551   3.177
 1987TIP3    H2 5903   4.348   0.549   3.271
 1988TIP3   OH2 5904   4.267   0.143   3.468
 1988TIP3    H1 5905   4.298   0.123   3.377
 1988TIP3    H2 5906   4.308   0.230   3.486
 1989TIP3   OH2 5907   4.750   0.770   3.353
 1989TIP3    H1 5908   4.760   0.862   3.318
 1989TIP3    H2 5909   4.827   0.729   3.311
 1990TIP3   OH2 5910   4.404   0.694   3.782
 1990TIP3    H1 5911   4.356   0.764   3.831
 1990TIP3    H2 5912   4.330   0.646   3.740
 1991TIP3   OH2 5913   4.736   0.035   2.522
 1991TIP3    H1 5914   4.795   0.095   2.573
 1991TIP3    H2 5915   4.763   0.057   2.429
 1992TIP3   OH2 5916   4.150   0.275   3.880
 1992TIP3    H1 5917   4.155   0.354   3.938
 1992TIP3    H2 5918   4.060   0.244   3.899
 1993TIP3   OH2 5919   4.477   0.721   2.804
 1993TIP3    H1 5920   4.555   0.777   2.815
 1993TIP3    H2 5921   4.417   0.778   2.754
 1994TIP3   OH2 5922   4.197   0.871   3.875
 1994TIP3    H1 5923   4.157   0.867   3.787
 1994TIP3    H2 5924   4.121   0.852   3.933
 1995TIP3   OH2 5925   3.992   0.016   2.922
 1995TIP3    H1 5926   3.931   0.064   2.862
 1995TIP3    H2 5927   3.949  -0.070   2.928
 1996TIP3   OH2 5928   5.050   0.646   2.120
 1996TIP3    H1 5929   5.058   0.742   2.101
 1996TIP3    H2 5930   5.142   0.616   2.106
 1997TIP3   OH2 5931   3.775   0.403   3.824
 1997TIP3    H1 5932   3.712   0.378   3.754
 1997TIP3    H2 5933   3.814   0.317   3.850
 1998TIP3   OH2 5934   3.628   0.596   3.458
 1998TIP3    H1 5935   3.724   0.587   3.447
 1998TIP3    H2 5936   3.622   0.677   3.511
 1999TIP3   OH2 5937   5.495   1.045   3.512
 1999TIP3    H1 5938   5.494   0.948   3.528
 1999TIP3    H2 5939   5.413   1.072   3.558
 2000TIP3   OH2 5940   4.359   0.960   2.600
 2000TIP3    H1 5941   4.317   0.942   2.514
 2000TIP3    H2 5942   4.329   1.050   2.621
 2001TIP3   OH2 5943   3.797   0.812   2.982
 2001TIP3    H1 5944   3.845   0.802   3.067
 2001TIP3    H2 5945   3.739   0.734   2.987
 2002TIP3   OH2 5946   4.561   0.862   2.239
 2002TIP3    H1 5947   4.621   0.794   2.201
 2002TIP3    H2 5948   4.597   0.872   2.330
 2003TIP3   OH2 5949   4.611   0.911   2.510
 2003TIP3    H1 5950   4.523   0.920   2.553
 2003TIP3    H2 5951   4.662   0.869   2.580
 2004TIP3   OH2 5952   5.395   0.157   3.790
 2004TIP3    H1 5953   5.326   0.215   3.755
 2004TIP3    H2 5954   5.361   0.071   3.759
 2005TIP3   OH2 5955   3.979   0.586   3.815
 2005TIP3    H1 5956   4.031   0.568   3.896
 2005TIP3    H2 5957   3.907   0.520   3.822
 2006TIP3   OH2 5958   5.193  -0.011   3.715
 2006TIP3    H1 5959   5.170  -0.005   3.809
 2006TIP3    H2 5960   5.156   0.070   3.676
 2007TIP3   OH2 5961   4.815   0.086   2.269
 2007TIP3    H1 5962   4.778   0.060   2.183
 2007TIP3    H2 5963   4.895   0.134   2.240
 2008TIP3   OH2 5964   4.315  -0.077   3.623
 2008TIP3    H1 5965   4.269  -0.044   3.703
 2008TIP3    H2 5966   4.303  -0.000   3.564
 2009TIP3   OH2 5967   4.199  -0.192   3.129
 2009TIP3    H1 5968   4.105  -0.214   3.145
 2009TIP3    H2 5969   4.206  -0.216   3.034
 2010TIP3   OH2 5970   4.681  -0.102   2.850
 2010TIP3    H1 5971   4.630  -0.029   2.809
 2010TIP3    H2 5972   4.740  -0.130   2.778
 2011TIP3   OH2 5973   4.864   0.196   3.934
 2011TIP3    H1 5974   4.841   0.121   3.996
 2011TIP3    H2 5975   4.958   0.209   3.959
 2012TIP3   OH2 5976   4.825  -0.047   3.102
 2012TIP3    H1 5977   4.771  -0.019   3.025
 2012TIP3    H2 5978   4.861  -0.131   3.064
 2013TIP3   OH2 5979   4.127  -0.036   3.826
 2013TIP3    H1 5980   4.172   0.016   3.895
 2013TIP3    H2 5981   4.097  -0.113   3.875
 2014TIP3   OH2 5982   3.761  -0.490   2.973
 2014TIP3    H1 5983   3.773  -0.474   2.877
 2014TIP3    H2 5984   3.670  -0.457   2.982
 2015TIP3   OH2 5985   4.838   0.182   3.524
 2015TIP3    H1 5986   4.879   0.118   3.462
 2015TIP3    H2 5987   4.828   0.124   3.602
 2016TIP3   OH2 5988   3.947  -0.306   3.178
 2016TIP3    H1 5989   3.851  -0.281   3.166
 2016TIP3    H2 5990   3.940  -0.400   3.159
 2017TIP3   OH2 5991   4.241  -0.310   2.880
 2017TIP3    H1 5992   4.332  -0.293   2.849
 2017TIP3    H2 5993   4.185  -0.294   2.801
 2018TIP3   OH2 5994   4.068  -0.286   2.667
 2018TIP3    H1 5995   3.995  -0.330   2.619
 2018TIP3    H2 5996   4.117  -0.249   2.591
 2019TIP3   OH2 5997   5.183   1.396   3.610
 2019TIP3    H1 5998   5.183   1.424   3.516
 2019TIP3    H2 5999   5.260   1.446   3.644
 2020TIP3   OH2 6000   4.142   0.511   4.034
 2020TIP3    H1 6001   4.223   0.537   4.083
 2020TIP3    H2 6002   4.079   0.507   4.108
 2021TIP3   OH2 6003   4.596  -0.044   3.286
 2021TIP3    H1 6004   4.680  -0.071   3.245
 2021TIP3    H2 6005   4.604  -0.081   3.377
 2022TIP3   OH2 6006   4.593  -0.118   3.553
 2022TIP3    H1 6007   4.501  -0.123   3.584
 2022TIP3    H2 6008   4.639  -0.083   3.631
 2023TIP3   OH2 6009   4.317   0.251   2.674
 2023TIP3    H1 6010   4.246   0.184   2.663
 2023TIP3    H2 6011   4.300   0.283   2.765
 2024TIP3   OH2 6012   5.219   0.489   3.303
 2024TIP3    H1 6013   5.245   0.535   3.219
 2024TIP3    H2 6014   5.138   0.442   3.276
 2025TIP3   OH2 6015   4.791  -0.426   2.497
 2025TIP3    H1 6016   4.700  -0.443   2.524
 2025TIP3    H2 6017   4.812  -0.345   2.547
 2026TIP3   OH2 6018   4.686   0.638   3.660
 2026TIP3    H1 6019   4.732   0.553   3.674
 2026TIP3    H2 6020   4.668   0.661   3.753
 2027TIP3   OH2 6021   4.850  -0.193   2.637
 2027TIP3    H1 6022   4.942  -0.176   2.663
 2027TIP3    H2 6023   4.828  -0.115   2.583
 2028TIP3   OH2 6024   4.015   0.274   3.351
 2028TIP3    H1 6025   4.048   0.240   3.265
 2028TIP3    H2 6026   4.048   0.207   3.413
 2029TIP3   OH2 6027   4.465   0.399   2.495
 2029TIP3    H1 6028   4.418   0.485   2.499
 2029TIP3    H2 6029   4.410   0.344   2.555
 2030TIP3   OH2 6030   3.892   0.195   3.961
 2030TIP3    H1 6031   3.917   0.180   4.054
 2030TIP3    H2 6032   3.826   0.124   3.948
 2031TIP3   OH2 6033   4.616   0.305   3.979
 2031TIP3    H1 6034   4.561   0.238   3.935
 2031TIP3    H2 6035   4.706   0.275   3.953
 2032TIP3   OH2 6036   5.307  -0.086   2.455
 2032TIP3    H1 6037   5.236  -0.141   2.417
 2032TIP3    H2 6038   5.290  -0.000   2.411
 2033TIP3   OH2 6039   5.504   0.756   3.555
 2033TIP3    H1 6040   5.407   0.753   3.547
 2033TIP3    H2 6041   5.530   0.725   3.465
 2034TIP3   OH2 6042   4.988   0.716   2.383
 2034TIP3    H1 6043   4.965   0.641   2.439
 2034TIP3    H2 6044   5.003   0.675   2.295
 2035TIP3   OH2 6045   4.990   0.351   3.211
 2035TIP3    H1 6046   4.901   0.324   3.238
 2035TIP3    H2 6047   5.023   0.268   3.171
 2036TIP3   OH2 6048   4.113   0.576   2.979
 2036TIP3    H1 6049   4.114   0.655   2.921
 2036TIP3    H2 6050   4.019   0.556   2.980
 2037TIP3   OH2 6051   3.677  -0.119   2.674
 2037TIP3    H1 6052   3.724  -0.037   2.697
 2037TIP3    H2 6053   3.601  -0.115   2.737
 2038TIP3   OH2 6054   4.254   0.342   2.921
 2038TIP3    H1 6055   4.218   0.431   2.938
 2038TIP3    H2 6056   4.214   0.290   2.993
 2039TIP3   OH2 6057   4.449   0.906   3.470
 2039TIP3    H1 6058   4.450   0.968   3.394
 2039TIP3    H2 6059   4.434   0.968   3.542
 2040TIP3   OH2 6060   4.034   0.812   2.828
 2040TIP3    H1 6061   3.947   0.823   2.872
 2040TIP3    H2 6062   4.066   0.905   2.828
 2041TIP3   OH2 6063   4.743   0.441   2.285
 2041TIP3    H1 6064   4.795   0.418   2.365
 2041TIP3    H2 6065   4.654   0.418   2.314
 2042TIP3   OH2 6066   5.018   1.085   3.444
 2042TIP3    H1 6067   4.930   1.046   3.432
 2042TIP3    H2 6068   5.015   1.157   3.378
 2043TIP3   OH2 6069   5.083   0.921   2.101
 2043TIP3    H1 6070   5.123   0.993   2.049
 2043TIP3    H2 6071   5.004   0.968   2.135
 2044TIP3   OH2 6072   4.904   0.384   2.508
 2044TIP3    H1 6073   4.894   0.313   2.574
 2044TIP3    H2 6074   5.000   0.377   2.490
 2045TIP3   OH2 6075   3.819   0.781   3.605
 2045TIP3    H1 6076   3.870   0.704   3.635
 2045TIP3    H2 6077   3.850   0.849   3.665
 2046TIP3   OH2 6078   4.110   0.426   2.284
 2046TIP3    H1 6079   4.126   0.335   2.253
 2046TIP3    H2 6080   4.090   0.411   2.378
 2047TIP3   OH2 6081   4.055   0.430   2.559
 2047TIP3    H1 6082   4.131   0.405   2.613
 2047TIP3    H2 6083   4.060   0.528   2.562
 2048TIP3   OH2 6084   3.795   0.126   2.760
 2048TIP3    H1 6085   3.728   0.170   2.816
 2048TIP3    H2 6086   3.808   0.194   2.691
 2049TIP3   OH2 6087   4.323   0.628   2.508
 2049TIP3    H1 6088   4.235   0.657   2.540
 2049TIP3    H2 6089   4.338   0.693   2.438
 2050TIP3   OH2 6090   4.524  -0.317   2.909
 2050TIP3    H1 6091   4.579  -0.241   2.880
 2050TIP3    H2 6092   4.548  -0.322   3.002
 2051TIP3   OH2 6093   4.798   0.007   3.737
 2051TIP3    H1 6094   4.787   0.085   3.795
 2051TIP3    H2 6095   4.812  -0.060   3.804
 2052TIP3   OH2 6096   4.064   0.703   2.571
 2052TIP3    H1 6097   4.034   0.771   2.507
 2052TIP3    H2 6098   4.048   0.748   2.657
 2053TIP3   OH2 6099   5.072   0.110   3.097
 2053TIP3    H1 6100   4.998   0.049   3.109
 2053TIP3    H2 6101   5.145   0.065   3.144
 2054TIP3   OH2 6102   3.781   0.335   2.566
 2054TIP3    H1 6103   3.845   0.408   2.574
 2054TIP3    H2 6104   3.827   0.282   2.498
 2055TIP3   OH2 6105   3.727  -0.391   2.717
 2055TIP3    H1 6106   3.730  -0.295   2.697
 2055TIP3    H2 6107   3.650  -0.420   2.669
 2056TIP3   OH2 6108   5.040   1.052   3.040
 2056TIP3    H1 6109   4.997   1.103   2.968
 2056TIP3    H2 6110   5.134   1.078   3.023
 2057TIP3   OH2 6111   3.657   0.549   2.956
 2057TIP3    H1 6112   3.580   0.580   3.004
 2057TIP3    H2 6113   3.637   0.585   2.867
 2058TIP3   OH2 6114   3.810   1.086   4.027
 2058TIP3    H1 6115   3.897   1.090   4.073
 2058TIP3    H2 6116   3.796   0.990   4.023
 2059TIP3   OH2 6117   4.291   1.056   4.068
 2059TIP3    H1 6118   4.386   1.041   4.079
 2059TIP3    H2 6119   4.271   0.996   3.994
 2060TIP3   OH2 6120   4.276   0.630   2.200
 2060TIP3    H1 6121   4.219   0.556   2.233
 2060TIP3    H2 6122   4.350   0.580   2.161
 2061TIP3   OH2 6123   4.928   0.958   3.795
 2061TIP3    H1 6124   4.920   0.889   3.864
 2061TIP3    H2 6125   5.007   1.008   3.824
 2062TIP3   OH2 6126   4.709   0.672   2.106
 2062TIP3    H1 6127   4.762   0.611   2.161
 2062TIP3    H2 6128   4.761   0.675   2.023
 2063TIP3   OH2 6129   3.941   0.494   4.223
 2063TIP3    H1 6130   3.959   0.399   4.234
 2063TIP3    H2 6131   3.853   0.494   4.179
 2064TIP3   OH2 6132   3.917   0.149   2.418
 2064TIP3    H1 6133   3.973   0.113   2.489
 2064TIP3    H2 6134   3.983   0.153   2.345
 2065TIP3   OH2 6135   4.551   0.581   3.995
 2065TIP3    H1 6136   4.502   0.590   3.911
 2065TIP3    H2 6137   4.582   0.487   3.992
 2066TIP3   OH2 6138   4.424   0.345   2.225
 2066TIP3    H1 6139   4.429   0.357   2.322
 2066TIP3    H2 6140   4.426   0.247   2.219
 2067TIP3   OH2 6141   5.041   0.575   3.605
 2067TIP3    H1 6142   5.116   0.621   3.561
 2067TIP3    H2 6143   4.977   0.646   3.614
 2068TIP3   OH2 6144   4.069   0.222   4.199
 2068TIP3    H1 6145   4.150   0.171   4.181
 2068TIP3    H2 6146   4.089   0.253   4.290
 2069TIP3   OH2 6147   4.129   0.049   2.643
 2069TIP3    H1 6148   4.099   0.002   2.722
 2069TIP3    H2 6149   4.164  -0.024   2.587
 2070TIP3   OH2 6150   4.376   0.125   3.848
 2070TIP3    H1 6151   4.303   0.190   3.858
 2070TIP3    H2 6152   4.434   0.165   3.780
 2071TIP3   OH2 6153   4.224  -0.156   2.482
 2071TIP3    H1 6154   4.200  -0.158   2.388
 2071TIP3    H2 6155   4.322  -0.155   2.477
 2072TIP3   OH2 6156   4.916   0.517   4.000
 2072TIP3    H1 6157   5.001   0.491   3.962
 2072TIP3    H2 6158   4.904   0.449   4.069
 2073TIP3   OH2 6159   5.047   0.175   2.143
 2073TIP3    H1 6160   5.032   0.126   2.060
 2073TIP3    H2 6161   5.013   0.264   2.116
 2074TIP3   OH2 6162   4.531  -0.058   3.967
 2074TIP3    H1 6163   4.517  -0.151   3.945
 2074TIP3    H2 6164   4.461  -0.010   3.920
 2075TIP3   OH2 6165   4.560   0.232   3.673
 2075TIP3    H1 6166   4.633   0.224   3.610
 2075TIP3    H2 6167   4.498   0.291   3.625
 2076TIP3   OH2 6168   5.117   0.215   4.039
 2076TIP3    H1 6169   5.144   0.140   4.095
 2076TIP3    H2 6170   5.201   0.263   4.027
 2077TIP3   OH2 6171   5.177   0.441   3.793
 2077TIP3    H1 6172   5.115   0.490   3.735
 2077TIP3    H2 6173   5.262   0.469   3.752
 2078TIP3   OH2 6174   4.323   0.048   4.181
 2078TIP3    H1 6175   4.343  -0.031   4.236
 2078TIP3    H2 6176   4.400   0.041   4.122
 2079TIP3   OH2 6177   4.775  -0.012   4.075
 2079TIP3    H1 6178   4.791  -0.069   4.153
 2079TIP3    H2 6179   4.681  -0.034   4.055
 2080TIP3   OH2 6180   4.033   0.905   2.385
 2080TIP3    H1 6181   4.129   0.902   2.366
 2080TIP3    H2 6182   4.003   0.953   2.305
 2081TIP3   OH2 6183   3.513   0.286   2.603
 2081TIP3    H1 6184   3.607   0.311   2.587
 2081TIP3    H2 6185   3.510   0.198   2.561
 2082TIP3   OH2 6186   3.426   0.900   3.014
 2082TIP3    H1 6187   3.360   0.837   2.978
 2082TIP3    H2 6188   3.471   0.844   3.080
 2083TIP3   OH2 6189   3.563   0.755   3.201
 2083TIP3    H1 6190   3.554   0.678   3.260
 2083TIP3    H2 6191   3.616   0.814   3.257
 2084TIP3   OH2 6192   5.287   1.153   3.002
 2084TIP3    H1 6193   5.319   1.190   3.087
 2084TIP3    H2 6194   5.347   1.195   2.938
 2085TIP3   OH2 6195   5.319   1.175   3.284
 2085TIP3    H1 6196   5.285   1.083   3.277
 2085TIP3    H2 6197   5.398   1.159   3.338
 2086TIP3   OH2 6198   5.365   0.849   3.854
 2086TIP3    H1 6199   5.293   0.858   3.920
 2086TIP3    H2 6200   5.407   0.937   3.858
 2087TIP3   OH2 6201   5.181   0.363   2.477
 2087TIP3    H1 6202   5.250   0.426   2.446
 2087TIP3    H2 6203   5.226   0.323   2.555
 2088TIP3   OH2 6204   5.311   0.233   2.678
 2088TIP3    H1 6205   5.246   0.191   2.739
 2088TIP3    H2 6206   5.378   0.269   2.741
 2089TIP3   OH2 6207   5.354   0.618   3.102
 2089TIP3    H1 6208   5.415   0.553   3.062
 2089TIP3    H2 6209   5.366   0.696   3.045
 2090TIP3   OH2 6210   5.202   0.923   3.307
 2090TIP3    H1 6211   5.135   0.973   3.358
 2090TIP3    H2 6212   5.146   0.876   3.243
 2091TIP3   OH2 6213   5.248   0.144   2.319
 2091TIP3    H1 6214   5.177   0.148   2.251
 2091TIP3    H2 6215   5.219   0.217   2.377
 2092TIP3   OH2 6216   5.112  -0.210   2.279
 2092TIP3    H1 6217   5.118  -0.131   2.223
 2092TIP3    H2 6218   5.064  -0.269   2.219
 2093TIP3   OH2 6219   5.124   0.098   2.828
 2093TIP3    H1 6220   5.124   0.002   2.813
 2093TIP3    H2 6221   5.115   0.104   2.926
 2094TIP3   OH2 6222   3.751   0.162   3.572
 2094TIP3    H1 6223   3.750   0.132   3.479
 2094TIP3    H2 6224   3.848   0.161   3.590
 2095TIP3   OH2 6225   5.405   0.520   3.676
 2095TIP3    H1 6226   5.476   0.452   3.668
 2095TIP3    H2 6227   5.440   0.592   3.620
 2096TIP3   OH2 6228   5.587   0.330   3.698
 2096TIP3    H1 6229   5.528   0.259   3.731
 2096TIP3    H2 6230   5.673   0.298   3.733
 2097TIP3   OH2 6231   5.109  -0.173   2.755
 2097TIP3    H1 6232   5.132  -0.256   2.801
 2097TIP3    H2 6233   5.165  -0.187   2.676
 2098TIP3   OH2 6234   5.283  -0.010   3.225
 2098TIP3    H1 6235   5.367   0.009   3.178
 2098TIP3    H2 6236   5.302   0.033   3.311
 2099TIP3   OH2 6237   5.342   0.129   3.452
 2099TIP3    H1 6238   5.264   0.166   3.497
 2099TIP3    H2 6239   5.382   0.208   3.410
 2100TIP3   OH2 6240   3.996  -0.057   4.316
 2100TIP3    H1 6241   4.079  -0.078   4.268
 2100TIP3    H2 6242   3.955  -0.145   4.307
 2101TIP3   OH2 6243   3.730  -0.182   3.640
 2101TIP3    H1 6244   3.774  -0.164   3.555
 2101TIP3    H2 6245   3.760  -0.108   3.695
 2102TIP3   OH2 6246   4.877   1.014   2.661
 2102TIP3    H1 6247   4.923   1.001   2.575
 2102TIP3    H2 6248   4.928   1.086   2.699
 2103TIP3   OH2 6249   3.974   0.826   4.044
 2103TIP3    H1 6250   3.886   0.789   4.029
 2103TIP3    H2 6251   3.990   0.804   4.136
 2104TIP3   OH2 6252   4.150   0.847   3.586
 2104TIP3    H1 6253   4.106   0.927   3.550
 2104TIP3    H2 6254   4.238   0.856   3.549
 2105TIP3   OH2 6255   4.592   1.100   3.718
 2105TIP3    H1 6256   4.632   1.086   3.806
 2105TIP3    H2 6257   4.667   1.144   3.672
 2106TIP3   OH2 6258   4.785   1.247   3.585
 2106TIP3    H1 6259   4.866   1.201   3.557
 2106TIP3    H2 6260   4.825   1.309   3.650
 2107TIP3   OH2 6261   3.833   1.110   3.616
 2107TIP3    H1 6262   3.745   1.144   3.590
 2107TIP3    H2 6263   3.843   1.152   3.702
 2108TIP3   OH2 6264   4.069   1.084   3.469
 2108TIP3    H1 6265   3.984   1.100   3.516
 2108TIP3    H2 6266   4.050   1.123   3.382
 2109TIP3   OH2 6267   4.493   1.115   3.272
 2109TIP3    H1 6268   4.427   1.139   3.204
 2109TIP3    H2 6269   4.508   1.203   3.313
 2110TIP3   OH2 6270   4.764   1.044   3.303
 2110TIP3    H1 6271   4.672   1.076   3.297
 2110TIP3    H2 6272   4.813   1.125   3.278
 2111TIP3   OH2 6273   4.962   1.248   3.236
 2111TIP3    H1 6274   4.951   1.336   3.194
 2111TIP3    H2 6275   4.994   1.194   3.161
 2112TIP3   OH2 6276   3.741   0.905   3.361
 2112TIP3    H1 6277   3.769   0.881   3.452
 2112TIP3    H2 6278   3.812   0.860   3.310
 2113TIP3   OH2 6279   3.933   0.776   3.216
 2113TIP3    H1 6280   3.951   0.692   3.264
 2113TIP3    H2 6281   4.023   0.813   3.204
 2114TIP3   OH2 6282   4.199   0.871   3.210
 2114TIP3    H1 6283   4.232   0.780   3.196
 2114TIP3    H2 6284   4.228   0.888   3.300
 2115TIP3   OH2 6285   3.529   0.676   2.755
 2115TIP3    H1 6286   3.445   0.643   2.718
 2115TIP3    H2 6287   3.518   0.771   2.736
 2116TIP3   OH2 6288   4.302   0.869   2.334
 2116TIP3    H1 6289   4.391   0.891   2.297
 2116TIP3    H2 6290   4.280   0.794   2.274
 2117TIP3   OH2 6291   5.018   0.983   2.427
 2117TIP3    H1 6292   5.011   0.886   2.413
 2117TIP3    H2 6293   4.975   1.016   2.345
 2118TIP3   OH2 6294   3.607   0.701   2.391
 2118TIP3    H1 6295   3.611   0.731   2.482
 2118TIP3    H2 6296   3.696   0.661   2.377
 2119TIP3   OH2 6297   5.250   1.129   3.613
 2119TIP3    H1 6298   5.170   1.098   3.567
 2119TIP3    H2 6299   5.232   1.226   3.616
 2120TIP3   OH2 6300   6.511   0.496   2.382
 2120TIP3    H1 6301   6.488   0.590   2.366
 2120TIP3    H2 6302   6.431   0.453   2.347
 2121TIP3   OH2 6303   6.510   0.499   2.757
 2121TIP3    H1 6304   6.539   0.474   2.846
 2121TIP3    H2 6305   6.468   0.418   2.725
 2122TIP3   OH2 6306   5.810   0.401   3.126
 2122TIP3    H1 6307   5.842   0.329   3.184
 2122TIP3    H2 6308   5.891   0.453   3.117
 2123TIP3   OH2 6309   6.753   0.803   2.442
 2123TIP3    H1 6310   6.744   0.733   2.508
 2123TIP3    H2 6311   6.784   0.878   2.495
 2124TIP3   OH2 6312   5.781   0.804   2.852
 2124TIP3    H1 6313   5.775   0.706   2.855
 2124TIP3    H2 6314   5.877   0.815   2.847
 2125TIP3   OH2 6315   5.484   0.011   2.644
 2125TIP3    H1 6316   5.433   0.092   2.657
 2125TIP3    H2 6317   5.422  -0.039   2.587
 2126TIP3   OH2 6318   5.546   0.301   2.805
 2126TIP3    H1 6319   5.590   0.220   2.841
 2126TIP3    H2 6320   5.610   0.330   2.739
 2127TIP3   OH2 6321   6.402   1.264   2.457
 2127TIP3    H1 6322   6.450   1.193   2.409
 2127TIP3    H2 6323   6.400   1.230   2.547
 2128TIP3   OH2 6324   6.312   0.726   2.808
 2128TIP3    H1 6325   6.351   0.650   2.763
 2128TIP3    H2 6326   6.395   0.772   2.833
 2129TIP3   OH2 6327   6.716   0.252   2.833
 2129TIP3    H1 6328   6.754   0.166   2.861
 2129TIP3    H2 6329   6.683   0.230   2.743
 2130TIP3   OH2 6330   5.986  -0.108   2.840
 2130TIP3    H1 6331   6.007  -0.033   2.782
 2130TIP3    H2 6332   6.056  -0.169   2.818
 2131TIP3   OH2 6333   6.751  -0.019   2.444
 2131TIP3    H1 6334   6.807  -0.080   2.496
 2131TIP3    H2 6335   6.808   0.003   2.369
 2132TIP3   OH2 6336   5.685   0.092   2.902
 2132TIP3    H1 6337   5.762   0.083   2.963
 2132TIP3    H2 6338   5.712   0.030   2.832
 2133TIP3   OH2 6339   6.137   0.289   2.703
 2133TIP3    H1 6340   6.230   0.264   2.721
 2133TIP3    H2 6341   6.099   0.202   2.677
 2134TIP3   OH2 6342   7.379   0.246   2.919
 2134TIP3    H1 6343   7.295   0.294   2.930
 2134TIP3    H2 6344   7.411   0.244   3.011
 2135TIP3   OH2 6345   6.406   0.720   2.251
 2135TIP3    H1 6346   6.365   0.703   2.166
 2135TIP3    H2 6347   6.364   0.805   2.275
 2136TIP3   OH2 6348   6.166   0.644   3.040
 2136TIP3    H1 6349   6.103   0.709   3.078
 2136TIP3    H2 6350   6.207   0.697   2.968
 2137TIP3   OH2 6351   5.896   0.035   3.056
 2137TIP3    H1 6352   5.982   0.075   3.076
 2137TIP3    H2 6353   5.925  -0.045   3.006
 2138TIP3   OH2 6354   5.991   0.838   3.134
 2138TIP3    H1 6355   5.966   0.925   3.095
 2138TIP3    H2 6356   5.912   0.823   3.190
 2139TIP3   OH2 6357   5.387   0.528   2.369
 2139TIP3    H1 6358   5.347   0.555   2.285
 2139TIP3    H2 6359   5.418   0.613   2.406
 2140TIP3   OH2 6360   6.826   1.044   2.610
 2140TIP3    H1 6361   6.737   1.036   2.649
 2140TIP3    H2 6362   6.819   1.131   2.565
 2141TIP3   OH2 6363   6.530   1.091   2.285
 2141TIP3    H1 6364   6.579   1.009   2.264
 2141TIP3    H2 6365   6.592   1.157   2.244
 2142TIP3   OH2 6366   6.672   0.876   2.189
 2142TIP3    H1 6367   6.635   0.795   2.150
 2142TIP3    H2 6368   6.707   0.842   2.275
 2143TIP3   OH2 6369   7.053   0.959   2.954
 2143TIP3    H1 6370   7.042   0.882   2.895
 2143TIP3    H2 6371   7.036   1.034   2.893
 2144TIP3   OH2 6372   6.334   0.348   2.211
 2144TIP3    H1 6373   6.262   0.410   2.188
 2144TIP3    H2 6374   6.387   0.350   2.127
 2145TIP3   OH2 6375   7.248   0.600   2.801
 2145TIP3    H1 6376   7.164   0.651   2.804
 2145TIP3    H2 6377   7.277   0.619   2.709
 2146TIP3   OH2 6378   6.695   0.434   2.187
 2146TIP3    H1 6379   6.641   0.459   2.266
 2146TIP3    H2 6380   6.781   0.413   2.229
 2147TIP3   OH2 6381   6.919   0.490   3.085
 2147TIP3    H1 6382   6.917   0.572   3.139
 2147TIP3    H2 6383   6.831   0.495   3.043
 2148TIP3   OH2 6384   5.924   0.432   2.598
 2148TIP3    H1 6385   5.887   0.374   2.529
 2148TIP3    H2 6386   6.002   0.381   2.629
 2149TIP3   OH2 6387   6.053   0.843   2.749
 2149TIP3    H1 6388   6.034   0.800   2.665
 2149TIP3    H2 6389   6.144   0.810   2.768
 2150TIP3   OH2 6390   6.059   0.404   2.953
 2150TIP3    H1 6391   6.093   0.384   2.864
 2150TIP3    H2 6392   6.103   0.489   2.975
 2151TIP3   OH2 6393   6.584   1.041   2.729
 2151TIP3    H1 6394   6.573   1.122   2.783
 2151TIP3    H2 6395   6.570   0.969   2.794
 2152TIP3   OH2 6396   6.198   0.961   3.277
 2152TIP3    H1 6397   6.138   1.023   3.324
 2152TIP3    H2 6398   6.133   0.907   3.228
 2153TIP3   OH2 6399   6.513   0.339   2.004
 2153TIP3    H1 6400   6.583   0.369   2.065
 2153TIP3    H2 6401   6.564   0.313   1.927
 2154TIP3   OH2 6402   5.953   0.523   3.375
 2154TIP3    H1 6403   5.955   0.607   3.425
 2154TIP3    H2 6404   5.859   0.499   3.384
 2155TIP3   OH2 6405   6.273   0.974   2.285
 2155TIP3    H1 6406   6.353   1.027   2.303
 2155TIP3    H2 6407   6.214   1.038   2.244
 2156TIP3   OH2 6408   5.993   1.129   3.363
 2156TIP3    H1 6409   5.956   1.129   3.273
 2156TIP3    H2 6410   5.914   1.108   3.417
 2157TIP3   OH2 6411   5.796   0.270   2.391
 2157TIP3    H1 6412   5.726   0.320   2.343
 2157TIP3    H2 6413   5.745   0.194   2.424
 2158TIP3   OH2 6414   6.827   0.920   1.615
 2158TIP3    H1 6415   6.836   1.018   1.607
 2158TIP3    H2 6416   6.918   0.895   1.632
 2159TIP3   OH2 6417   5.569   0.658   3.312
 2159TIP3    H1 6418   5.513   0.631   3.238
 2159TIP3    H2 6419   5.610   0.573   3.340
 2160TIP3   OH2 6420   5.425   0.849   2.952
 2160TIP3    H1 6421   5.519   0.842   2.933
 2160TIP3    H2 6422   5.422   0.934   3.000
 2161TIP3   OH2 6423   7.293   1.305   3.000
 2161TIP3    H1 6424   7.291   1.208   3.012
 2161TIP3    H2 6425   7.210   1.330   3.045
 2162TIP3   OH2 6426   6.396   1.090   3.133
 2162TIP3    H1 6427   6.396   1.182   3.166
 2162TIP3    H2 6428   6.325   1.051   3.189
 2163TIP3   OH2 6429   6.156   1.219   2.086
 2163TIP3    H1 6430   6.111   1.201   2.001
 2163TIP3    H2 6431   6.124   1.308   2.109
 2164TIP3   OH2 6432   5.594   1.068   2.469
 2164TIP3    H1 6433   5.643   1.059   2.554
 2164TIP3    H2 6434   5.534   0.992   2.475
 2165TIP3   OH2 6435   6.360   1.115   1.725
 2165TIP3    H1 6436   6.418   1.043   1.694
 2165TIP3    H2 6437   6.392   1.128   1.817
 2166TIP3   OH2 6438   6.407   1.166   1.996
 2166TIP3    H1 6439   6.319   1.176   2.038
 2166TIP3    H2 6440   6.459   1.128   2.069
 2167TIP3   OH2 6441   7.188   0.415   3.276
 2167TIP3    H1 6442   7.120   0.474   3.240
 2167TIP3    H2 6443   7.156   0.330   3.243
 2168TIP3   OH2 6444   5.775   0.842   3.301
 2168TIP3    H1 6445   5.826   0.826   3.383
 2168TIP3    H2 6446   5.702   0.777   3.310
 2169TIP3   OH2 6447   6.980   0.243   3.203
 2169TIP3    H1 6448   6.965   0.256   3.298
 2169TIP3    H2 6449   6.951   0.327   3.162
 2170TIP3   OH2 6450   6.123   0.188   3.112
 2170TIP3    H1 6451   6.063   0.208   3.188
 2170TIP3    H2 6452   6.103   0.264   3.053
 2171TIP3   OH2 6453   5.998   0.064   2.615
 2171TIP3    H1 6454   5.904   0.041   2.635
 2171TIP3    H2 6455   6.003   0.038   2.521
 2172TIP3   OH2 6456   6.483   0.155   2.327
 2172TIP3    H1 6457   6.420   0.228   2.304
 2172TIP3    H2 6458   6.536   0.156   2.246
 2173TIP3   OH2 6459   6.662   0.453   3.419
 2173TIP3    H1 6460   6.637   0.379   3.479
 2173TIP3    H2 6461   6.756   0.466   3.445
 2174TIP3   OH2 6462   6.633   0.189   2.582
 2174TIP3    H1 6463   6.579   0.224   2.509
 2174TIP3    H2 6464   6.670   0.109   2.539
 2175TIP3   OH2 6465   5.927   0.222   3.305
 2175TIP3    H1 6466   5.954   0.271   3.385
 2175TIP3    H2 6467   5.892   0.139   3.341
 2176TIP3   OH2 6468   5.544  -0.238   2.452
 2176TIP3    H1 6469   5.561  -0.219   2.358
 2176TIP3    H2 6470   5.457  -0.195   2.463
 2177TIP3   OH2 6471   6.639   0.438   3.010
 2177TIP3    H1 6472   6.676   0.373   2.946
 2177TIP3    H2 6473   6.623   0.379   3.086
 2178TIP3   OH2 6474   5.745  -0.047   2.657
 2178TIP3    H1 6475   5.649  -0.025   2.647
 2178TIP3    H2 6476   5.738  -0.142   2.673
 2179TIP3   OH2 6477   6.040  -0.055   2.368
 2179TIP3    H1 6478   6.134  -0.043   2.347
 2179TIP3    H2 6479   5.992  -0.025   2.288
 2180TIP3   OH2 6480   5.855  -0.001   2.156
 2180TIP3    H1 6481   5.765  -0.031   2.178
 2180TIP3    H2 6482   5.842   0.031   2.065
 2181TIP3   OH2 6483   6.979   1.654   3.097
 2181TIP3    H1 6484   6.978   1.678   3.003
 2181TIP3    H2 6485   7.057   1.703   3.129
 2182TIP3   OH2 6486   5.937   0.766   3.521
 2182TIP3    H1 6487   6.018   0.794   3.568
 2182TIP3    H2 6488   5.874   0.765   3.595
 2183TIP3   OH2 6489   6.394   0.209   2.771
 2183TIP3    H1 6490   6.480   0.179   2.737
 2183TIP3    H2 6491   6.398   0.178   2.864
 2184TIP3   OH2 6492   6.392   0.138   3.038
 2184TIP3    H1 6493   6.299   0.135   3.068
 2184TIP3    H2 6494   6.438   0.178   3.113
 2185TIP3   OH2 6495   6.117   0.511   2.159
 2185TIP3    H1 6496   6.046   0.443   2.150
 2185TIP3    H2 6497   6.099   0.545   2.251
 2186TIP3   OH2 6498   7.015   0.743   2.790
 2186TIP3    H1 6499   7.040   0.792   2.708
 2186TIP3    H2 6500   6.931   0.700   2.765
 2187TIP3   OH2 6501   6.514   0.823   3.156
 2187TIP3    H1 6502   6.537   0.800   3.247
 2187TIP3    H2 6503   6.477   0.912   3.165
 2188TIP3   OH2 6504   5.805   0.525   2.836
 2188TIP3    H1 6505   5.844   0.497   2.751
 2188TIP3    H2 6506   5.847   0.465   2.899
 2189TIP3   OH2 6507   6.260   0.659   1.977
 2189TIP3    H1 6508   6.212   0.744   1.985
 2189TIP3    H2 6509   6.208   0.603   2.040
 2190TIP3   OH2 6510   5.688   0.451   3.448
 2190TIP3    H1 6511   5.709   0.437   3.542
 2190TIP3    H2 6512   5.621   0.381   3.433
 2191TIP3   OH2 6513   6.414   0.562   3.468
 2191TIP3    H1 6514   6.354   0.502   3.421
 2191TIP3    H2 6515   6.502   0.532   3.436
 2192TIP3   OH2 6516   6.675   1.081   3.052
 2192TIP3    H1 6517   6.579   1.081   3.065
 2192TIP3    H2 6518   6.704   1.134   3.130
 2193TIP3   OH2 6519   7.304   1.012   3.043
 2193TIP3    H1 6520   7.206   1.010   3.033
 2193TIP3    H2 6521   7.330   0.982   2.952
 2194TIP3   OH2 6522   6.776   0.976   1.882
 2194TIP3    H1 6523   6.762   0.906   1.948
 2194TIP3    H2 6524   6.782   0.927   1.798
 2195TIP3   OH2 6525   6.781   0.604   2.711
 2195TIP3    H1 6526   6.687   0.579   2.722
 2195TIP3    H2 6527   6.816   0.525   2.666
 2196TIP3   OH2 6528   5.908   0.829   2.458
 2196TIP3    H1 6529   5.910   0.912   2.406
 2196TIP3    H2 6530   5.813   0.816   2.469
 2197TIP3   OH2 6531   5.482   0.134   2.172
 2197TIP3    H1 6532   5.520   0.223   2.188
 2197TIP3    H2 6533   5.399   0.140   2.225
 2198TIP3   OH2 6534   6.048   0.596   2.404
 2198TIP3    H1 6535   6.013   0.686   2.421
 2198TIP3    H2 6536   6.012   0.547   2.480
 2199TIP3   OH2 6537   6.176   1.175   2.930
 2199TIP3    H1 6538   6.218   1.248   2.880
 2199TIP3    H2 6539   6.253   1.140   2.979
 2200TIP3   OH2 6540   5.829   1.069   2.313
 2200TIP3    H1 6541   5.743   1.079   2.359
 2200TIP3    H2 6542   5.861   1.162   2.315
 2201TIP3   OH2 6543   6.566   0.807   2.888
 2201TIP3    H1 6544   6.557   0.806   2.986
 2201TIP3    H2 6545   6.648   0.757   2.875
 2202TIP3   OH2 6546   6.533   0.677   1.778
 2202TIP3    H1 6547   6.583   0.669   1.862
 2202TIP3    H2 6548   6.442   0.672   1.812
 2203TIP3   OH2 6549   6.814   1.343   2.938
 2203TIP3    H1 6550   6.734   1.287   2.930
 2203TIP3    H2 6551   6.800   1.409   2.867
 2204TIP3   OH2 6552   6.869   1.186   1.598
 2204TIP3    H1 6553   6.903   1.247   1.531
 2204TIP3    H2 6554   6.793   1.240   1.631
 2205TIP3   OH2 6555   6.691   0.634   1.992
 2205TIP3    H1 6556   6.683   0.565   2.061
 2205TIP3    H2 6557   6.789   0.634   1.981
 2206TIP3   OH2 6558   5.614   1.037   3.091
 2206TIP3    H1 6559   5.669   0.963   3.120
 2206TIP3    H2 6560   5.646   1.107   3.149
 2207TIP3   OH2 6561   5.909   0.688   1.771
 2207TIP3    H1 6562   5.903   0.601   1.731
 2207TIP3    H2 6563   5.890   0.669   1.865
 2208TIP3   OH2 6564   5.855   0.685   2.045
 2208TIP3    H1 6565   5.926   0.664   2.107
 2208TIP3    H2 6566   5.856   0.784   2.046
 2209TIP3   OH2 6567   5.591   0.386   2.246
 2209TIP3    H1 6568   5.523   0.428   2.303
 2209TIP3    H2 6569   5.601   0.455   2.178
 2210TIP3   OH2 6570   6.118   0.886   1.993
 2210TIP3    H1 6571   6.031   0.913   2.028
 2210TIP3    H2 6572   6.133   0.955   1.927
 2211TIP3   OH2 6573   6.321  -0.045   2.413
 2211TIP3    H1 6574   6.373   0.032   2.382
 2211TIP3    H2 6575   6.343  -0.048   2.507
 2212TIP3   OH2 6576   6.593   0.264   3.223
 2212TIP3    H1 6577   6.585   0.343   3.280
 2212TIP3    H2 6578   6.616   0.198   3.290
 2213TIP3   OH2 6579   5.860   0.958   2.058
 2213TIP3    H1 6580   5.829   1.027   1.995
 2213TIP3    H2 6581   5.844   1.002   2.144
 2214TIP3   OH2 6582   6.867   0.366   2.586
 2214TIP3    H1 6583   6.793   0.305   2.604
 2214TIP3    H2 6584   6.941   0.323   2.635
 2215TIP3   OH2 6585   5.576   0.594   2.056
 2215TIP3    H1 6586   5.638   0.668   2.061
 2215TIP3    H2 6587   5.622   0.541   1.987
 2216TIP3   OH2 6588   5.545  -0.131   2.184
 2216TIP3    H1 6589   5.527  -0.035   2.182
 2216TIP3    H2 6590   5.463  -0.166   2.148
 2217TIP3   OH2 6591   6.835   1.315   2.531
 2217TIP3    H1 6592   6.792   1.363   2.456
 2217TIP3    H2 6593   6.929   1.336   2.511
 2218TIP3   OH2 6594   5.451   0.803   2.442
 2218TIP3    H1 6595   5.374   0.837   2.490
 2218TIP3    H2 6596   5.434   0.841   2.353
 2219TIP3   OH2 6597   5.605   1.343   3.512
 2219TIP3    H1 6598   5.692   1.344   3.558
 2219TIP3    H2 6599   5.587   1.248   3.510
 2220TIP3   OH2 6600   6.089   1.312   3.556
 2220TIP3    H1 6601   6.184   1.293   3.563
 2220TIP3    H2 6602   6.064   1.254   3.481
 2221TIP3   OH2 6603   6.077   0.888   1.689
 2221TIP3    H1 6604   6.019   0.816   1.723
 2221TIP3    H2 6605   6.146   0.837   1.643
 2222TIP3   OH2 6606   6.728   1.216   3.288
 2222TIP3    H1 6607   6.718   1.147   3.358
 2222TIP3    H2 6608   6.805   1.267   3.319
 2223TIP3   OH2 6609   6.513   0.919   1.593
 2223TIP3    H1 6610   6.568   0.859   1.645
 2223TIP3    H2 6611   6.578   0.960   1.534
 2224TIP3   OH2 6612   5.736   0.750   3.711
 2224TIP3    H1 6613   5.754   0.655   3.717
 2224TIP3    H2 6614   5.649   0.752   3.666
 2225TIP3   OH2 6615   5.710   0.411   1.904
 2225TIP3    H1 6616   5.769   0.380   1.974
 2225TIP3    H2 6617   5.769   0.401   1.825
 2226TIP3   OH2 6618   6.345   0.836   3.485
 2226TIP3    H1 6619   6.304   0.851   3.397
 2226TIP3    H2 6620   6.375   0.743   3.479
 2227TIP3   OH2 6621   6.231   0.598   1.712
 2227TIP3    H1 6622   6.230   0.621   1.807
 2227TIP3    H2 6623   6.218   0.502   1.716
 2228TIP3   OH2 6624   6.837   0.842   3.090
 2228TIP3    H1 6625   6.912   0.887   3.047
 2228TIP3    H2 6626   6.767   0.909   3.077
 2229TIP3   OH2 6627   5.857   0.480   3.692
 2229TIP3    H1 6628   5.937   0.431   3.672
 2229TIP3    H2 6629   5.880   0.515   3.781
 2230TIP3   OH2 6630   5.930   0.305   2.137
 2230TIP3    H1 6631   5.894   0.281   2.224
 2230TIP3    H2 6632   5.932   0.220   2.091
 2231TIP3   OH2 6633   6.192   0.383   3.355
 2231TIP3    H1 6634   6.110   0.438   3.354
 2231TIP3    H2 6635   6.236   0.410   3.272
 2232TIP3   OH2 6636   6.711   0.775   3.491
 2232TIP3    H1 6637   6.788   0.748   3.440
 2232TIP3    H2 6638   6.704   0.704   3.557
 2233TIP3   OH2 6639   6.301   0.171   3.479
 2233TIP3    H1 6640   6.305   0.108   3.406
 2233TIP3    H2 6641   6.256   0.247   3.435
 2234TIP3   OH2 6642   6.354   0.481   3.157
 2234TIP3    H1 6643   6.433   0.492   3.103
 2234TIP3    H2 6644   6.294   0.548   3.118
 2235TIP3   OH2 6645   6.913   0.473   3.527
 2235TIP3    H1 6646   6.944   0.392   3.573
 2235TIP3    H2 6647   6.996   0.520   3.513
 2236TIP3   OH2 6648   6.969   0.702   3.278
 2236TIP3    H1 6649   6.907   0.753   3.222
 2236TIP3    H2 6650   7.054   0.728   3.237
 2237TIP3   OH2 6651   6.158   0.284   3.704
 2237TIP3    H1 6652   6.116   0.199   3.725
 2237TIP3    H2 6653   6.220   0.257   3.635
 2238TIP3   OH2 6654   6.558   0.243   3.548
 2238TIP3    H1 6655   6.576   0.189   3.628
 2238TIP3    H2 6656   6.466   0.218   3.531
 2239TIP3   OH2 6657   5.829   1.161   1.871
 2239TIP3    H1 6658   5.925   1.160   1.852
 2239TIP3    H2 6659   5.798   1.209   1.792
 2240TIP3   OH2 6660   5.309   0.542   2.092
 2240TIP3    H1 6661   5.403   0.565   2.074
 2240TIP3    H2 6662   5.303   0.453   2.049
 2241TIP3   OH2 6663   5.223   1.157   2.500
 2241TIP3    H1 6664   5.156   1.094   2.464
 2241TIP3    H2 6665   5.267   1.100   2.567
 2242TIP3   OH2 6666   5.359   1.011   2.688
 2242TIP3    H1 6667   5.352   0.935   2.747
 2242TIP3    H2 6668   5.413   1.071   2.743
 2243TIP3   OH2 6669   7.085   1.412   2.486
 2243TIP3    H1 6670   7.115   1.444   2.573
 2243TIP3    H2 6671   7.151   1.451   2.427
 2244TIP3   OH2 6672   7.115   1.430   2.769
 2244TIP3    H1 6673   7.075   1.340   2.765
 2244TIP3    H2 6674   7.195   1.410   2.820
 2245TIP3   OH2 6675   7.163   1.105   3.343
 2245TIP3    H1 6676   7.089   1.115   3.406
 2245TIP3    H2 6677   7.204   1.194   3.346
 2246TIP3   OH2 6678   6.954   0.624   1.964
 2246TIP3    H1 6679   7.021   0.694   1.948
 2246TIP3    H2 6680   6.998   0.575   2.038
 2247TIP3   OH2 6681   7.085   0.499   2.169
 2247TIP3    H1 6682   7.026   0.445   2.225
 2247TIP3    H2 6683   7.159   0.517   2.230
 2248TIP3   OH2 6684   7.159   0.876   2.598
 2248TIP3    H1 6685   7.212   0.814   2.544
 2248TIP3    H2 6686   7.152   0.953   2.538
 2249TIP3   OH2 6687   6.993   1.177   2.795
 2249TIP3    H1 6688   6.922   1.221   2.845
 2249TIP3    H2 6689   6.943   1.130   2.724
 2250TIP3   OH2 6690   6.919   0.342   2.322
 2250TIP3    H1 6691   6.920   0.246   2.325
 2250TIP3    H2 6692   6.908   0.365   2.417
 2251TIP3   OH2 6693   5.546   0.423   3.059
 2251TIP3    H1 6694   5.546   0.390   2.967
 2251TIP3    H2 6695   5.643   0.421   3.078
 2252TIP3   OH2 6696   7.203   0.774   3.166
 2252TIP3    H1 6697   7.276   0.708   3.156
 2252TIP3    H2 6698   7.231   0.844   3.106
 2253TIP3   OH2 6699   7.386   0.583   3.183
 2253TIP3    H1 6700   7.326   0.513   3.217
 2253TIP3    H2 6701   7.471   0.552   3.220
 2254TIP3   OH2 6702   7.081   0.249   2.712
 2254TIP3    H1 6703   7.163   0.274   2.664
 2254TIP3    H2 6704   7.099   0.291   2.799
 2255TIP3   OH2 6705   7.138   0.388   2.939
 2255TIP3    H1 6706   7.059   0.424   2.983
 2255TIP3    H2 6707   7.177   0.467   2.897
 2256TIP3   OH2 6708   5.789   0.185   3.797
 2256TIP3    H1 6709   5.881   0.169   3.766
 2256TIP3    H2 6710   5.749   0.099   3.775
 2257TIP3   OH2 6711   5.522   0.082   3.128
 2257TIP3    H1 6712   5.572   0.077   3.044
 2257TIP3    H2 6713   5.569   0.152   3.175
 2258TIP3   OH2 6714   6.671   1.274   2.144
 2258TIP3    H1 6715   6.723   1.262   2.062
 2258TIP3    H2 6716   6.723   1.341   2.191
 2259TIP3   OH2 6717   5.773   1.079   3.531
 2259TIP3    H1 6718   5.682   1.049   3.514
 2259TIP3    H2 6719   5.783   1.061   3.625
 2260TIP3   OH2 6720   5.948   1.109   3.077
 2260TIP3    H1 6721   5.903   1.187   3.037
 2260TIP3    H2 6722   6.036   1.122   3.035
 2261TIP3   OH2 6723   6.397   1.356   3.217
 2261TIP3    H1 6724   6.439   1.358   3.305
 2261TIP3    H2 6725   6.463   1.407   3.164
 2262TIP3   OH2 6726   6.576   1.506   3.074
 2262TIP3    H1 6727   6.648   1.457   3.033
 2262TIP3    H2 6728   6.627   1.564   3.135
 2263TIP3   OH2 6729   5.626   1.366   3.102
 2263TIP3    H1 6730   5.538   1.401   3.078
 2263TIP3    H2 6731   5.638   1.406   3.189
 2264TIP3   OH2 6732   5.863   1.345   2.959
 2264TIP3    H1 6733   5.777   1.359   3.003
 2264TIP3    H2 6734   5.845   1.380   2.869
 2265TIP3   OH2 6735   6.290   1.377   2.757
 2265TIP3    H1 6736   6.221   1.398   2.691
 2265TIP3    H2 6737   6.302   1.464   2.800
 2266TIP3   OH2 6738   6.558   1.314   2.807
 2266TIP3    H1 6739   6.464   1.333   2.788
 2266TIP3    H2 6740   6.602   1.391   2.768
 2267TIP3   OH2 6741   6.765   1.507   2.725
 2267TIP3    H1 6742   6.752   1.592   2.677
 2267TIP3    H2 6743   6.792   1.447   2.652
 2268TIP3   OH2 6744   5.537   1.160   2.847
 2268TIP3    H1 6745   5.565   1.139   2.938
 2268TIP3    H2 6746   5.610   1.117   2.797
 2269TIP3   OH2 6747   5.731   1.033   2.703
 2269TIP3    H1 6748   5.749   0.949   2.752
 2269TIP3    H2 6749   5.821   1.071   2.697
 2270TIP3   OH2 6750   5.996   1.128   2.706
 2270TIP3    H1 6751   6.030   1.038   2.693
 2270TIP3    H2 6752   6.040   1.151   2.790
 2271TIP3   OH2 6753   5.325   0.933   2.241
 2271TIP3    H1 6754   5.241   0.900   2.204
 2271TIP3    H2 6755   5.315   1.028   2.220
 2272TIP3   OH2 6756   6.099   1.127   1.819
 2272TIP3    H1 6757   6.188   1.149   1.783
 2272TIP3    H2 6758   6.078   1.050   1.762
 2273TIP3   OH2 6759   6.816   1.242   1.913
 2273TIP3    H1 6760   6.805   1.145   1.905
 2273TIP3    H2 6761   6.770   1.273   1.833
 2274TIP3   OH2 6762   5.405   0.962   1.877
 2274TIP3    H1 6763   5.404   0.989   1.970
 2274TIP3    H2 6764   5.493   0.920   1.867
 2275TIP3   OH2 6765   7.045   1.386   3.101
 2275TIP3    H1 6766   6.966   1.354   3.052
 2275TIP3    H2 6767   7.026   1.482   3.103
 2276TIP3   OH2 6768   7.628   0.653   2.595
 2276TIP3    H1 6769   7.648   0.611   2.680
 2276TIP3    H2 6770   7.695   0.724   2.596
 2277TIP3   OH2 6771   7.577   1.059   2.341
 2277TIP3    H1 6772   7.562   0.962   2.340
 2277TIP3    H2 6773   7.674   1.060   2.346
 2278TIP3   OH2 6774   7.347   0.546   2.291
 2278TIP3    H1 6775   7.418   0.484   2.306
 2278TIP3    H2 6776   7.358   0.566   2.196
 2279TIP3   OH2 6777   7.784   1.093   2.614
 2279TIP3    H1 6778   7.769   1.184   2.581
 2279TIP3    H2 6779   7.709   1.087   2.676
 2280TIP3   OH2 6780   7.167   0.788   1.920
 2280TIP3    H1 6781   7.205   0.763   1.835
 2280TIP3    H2 6782   7.206   0.877   1.936
 2281TIP3   OH2 6783   7.725   0.797   2.839
 2281TIP3    H1 6784   7.738   0.871   2.902
 2281TIP3    H2 6785   7.641   0.760   2.873
 2282TIP3   OH2 6786   7.711   1.463   2.847
 2282TIP3    H1 6787   7.759   1.410   2.781
 2282TIP3    H2 6788   7.667   1.394   2.900
 2283TIP3   OH2 6789   7.367   0.915   2.799
 2283TIP3    H1 6790   7.302   0.893   2.729
 2283TIP3    H2 6791   7.404   0.827   2.822
 2284TIP3   OH2 6792   7.222   1.109   2.433
 2284TIP3    H1 6793   7.318   1.102   2.420
 2284TIP3    H2 6794   7.216   1.189   2.488
 2285TIP3   OH2 6795   7.383   1.321   1.960
 2285TIP3    H1 6796   7.449   1.319   2.034
 2285TIP3    H2 6797   7.322   1.253   1.992
 2286TIP3   OH2 6798   7.571   1.100   2.787
 2286TIP3    H1 6799   7.622   1.082   2.868
 2286TIP3    H2 6800   7.499   1.034   2.792
 2287TIP3   OH2 6801   7.732   1.019   3.009
 2287TIP3    H1 6802   7.812   1.022   3.062
 2287TIP3    H2 6803   7.663   1.022   3.078
 2288TIP3   OH2 6804   7.593   0.781   2.335
 2288TIP3    H1 6805   7.644   0.775   2.253
 2288TIP3    H2 6806   7.634   0.715   2.393
 2289TIP3   OH2 6807   7.484   0.701   2.932
 2289TIP3    H1 6808   7.501   0.690   3.028
 2289TIP3    H2 6809   7.413   0.636   2.918
 2290TIP3   OH2 6810   7.616   1.307   1.791
 2290TIP3    H1 6811   7.528   1.298   1.831
 2290TIP3    H2 6812   7.653   1.381   1.841
 2291TIP3   OH2 6813   7.410   1.296   2.581
 2291TIP3    H1 6814   7.467   1.221   2.605
 2291TIP3    H2 6815   7.449   1.366   2.634
 2292TIP3   OH2 6816   7.246   1.053   1.925
 2292TIP3    H1 6817   7.173   1.091   1.976
 2292TIP3    H2 6818   7.247   1.112   1.848
 2293TIP3   OH2 6819   7.398   1.599   2.998
 2293TIP3    H1 6820   7.487   1.597   3.039
 2293TIP3    H2 6821   7.377   1.504   2.994
 2294TIP3   OH2 6822   7.876   1.537   3.058
 2294TIP3    H1 6823   7.926   1.602   3.005
 2294TIP3    H2 6824   7.822   1.499   2.986
 2295TIP3   OH2 6825   7.533   1.008   3.198
 2295TIP3    H1 6826   7.548   0.912   3.206
 2295TIP3    H2 6827   7.445   1.010   3.154
 2296TIP3   OH2 6828   7.648   0.747   3.177
 2296TIP3    H1 6829   7.710   0.675   3.162
 2296TIP3    H2 6830   7.675   0.776   3.267
 2297TIP3   OH2 6831   7.022   1.413   1.986
 2297TIP3    H1 6832   6.953   1.352   1.952
 2297TIP3    H2 6833   7.065   1.357   2.054
 2298TIP3   OH2 6834   7.160   1.263   2.171
 2298TIP3    H1 6835   7.147   1.192   2.235
 2298TIP3    H2 6836   7.211   1.325   2.226
 2299TIP3   OH2 6837   7.351   0.671   2.548
 2299TIP3    H1 6838   7.344   0.643   2.454
 2299TIP3    H2 6839   7.449   0.678   2.557
 2300TIP3   OH2 6840   7.597   0.448   3.270
 2300TIP3    H1 6841   7.686   0.415   3.243
 2300TIP3    H2 6842   7.544   0.368   3.249
 2301TIP3   OH2 6843   7.313   0.349   2.602
 2301TIP3    H1 6844   7.380   0.304   2.549
 2301TIP3    H2 6845   7.362   0.422   2.643
 2302TIP3   OH2 6846   7.572   1.318   3.039
 2302TIP3    H1 6847   7.484   1.296   3.004
 2302TIP3    H2 6848   7.557   1.310   3.134
 2303TIP3   OH2 6849   7.753   1.359   2.547
 2303TIP3    H1 6850   7.700   1.438   2.525
 2303TIP3    H2 6851   7.835   1.382   2.504
 2304TIP3   OH2 6852   7.418   1.624   2.584
 2304TIP3    H1 6853   7.330   1.664   2.568
 2304TIP3    H2 6854   7.435   1.652   2.674
 2305TIP3   OH2 6855   7.658   1.596   2.446
 2305TIP3    H1 6856   7.570   1.614   2.485
 2305TIP3    H2 6857   7.647   1.631   2.355
 2306TIP3   OH2 6858   7.334   1.416   2.332
 2306TIP3    H1 6859   7.362   1.396   2.424
 2306TIP3    H2 6860   7.409   1.374   2.284
 2307TIP3   OH2 6861   7.532   1.289   2.189
 2307TIP3    H1 6862   7.544   1.201   2.232
 2307TIP3    H2 6863   7.624   1.313   2.172
 2308TIP3   OH2 6864   7.113   1.180   1.722
 2308TIP3    H1 6865   7.022   1.169   1.688
 2308TIP3    H2 6866   7.120   1.276   1.717
 2309TIP3   OH2 6867   7.233   1.284   1.420
 2309TIP3    H1 6868   7.165   1.305   1.487
 2309TIP3    H2 6869   7.216   1.189   1.409
 2310TIP3   OH2 6870   0.759   1.546   3.558
 2310TIP3    H1 6871   0.753   1.642   3.545
 2310TIP3    H2 6872   0.667   1.521   3.541
 2311TIP3   OH2 6873   0.765   1.542   3.934
 2311TIP3    H1 6874   0.793   1.517   4.024
 2311TIP3    H2 6875   0.717   1.462   3.905
 2312TIP3   OH2 6876   0.064   1.448   4.308
 2312TIP3    H1 6877   0.097   1.378   4.367
 2312TIP3    H2 6878   0.146   1.495   4.287
 2313TIP3   OH2 6879   1.002   1.846   3.620
 2313TIP3    H1 6880   0.993   1.777   3.686
 2313TIP3    H2 6881   1.031   1.922   3.673
 2314TIP3   OH2 6882   0.032   1.848   4.028
 2314TIP3    H1 6883   0.024   1.750   4.035
 2314TIP3    H2 6884   0.129   1.857   4.021
 2315TIP3   OH2 6885   0.651   2.310   3.633
 2315TIP3    H1 6886   0.699   2.239   3.587
 2315TIP3    H2 6887   0.645   2.276   3.723
 2316TIP3   OH2 6888   0.560   1.773   3.988
 2316TIP3    H1 6889   0.591   1.697   3.937
 2316TIP3    H2 6890   0.646   1.814   4.010
 2317TIP3   OH2 6891   1.573   1.091   3.984
 2317TIP3    H1 6892   1.602   1.175   4.025
 2317TIP3    H2 6893   1.589   1.109   3.890
 2318TIP3   OH2 6894   0.980   1.275   4.026
 2318TIP3    H1 6895   1.018   1.186   4.041
 2318TIP3    H2 6896   0.940   1.262   3.938
 2319TIP3   OH2 6897   1.005   1.057   3.622
 2319TIP3    H1 6898   1.079   1.027   3.680
 2319TIP3    H2 6899   1.056   1.093   3.547
 2320TIP3   OH2 6900   0.391   1.333   3.899
 2320TIP3    H1 6901   0.485   1.306   3.906
 2320TIP3    H2 6902   0.360   1.278   3.826
 2321TIP3   OH2 6903   1.648   1.301   4.153
 2321TIP3    H1 6904   1.564   1.346   4.133
 2321TIP3    H2 6905   1.658   1.323   4.247
 2322TIP3   OH2 6906   0.659   1.772   3.421
 2322TIP3    H1 6907   0.582   1.724   3.389
 2322TIP3    H2 6908   0.619   1.858   3.443
 2323TIP3   OH2 6909   0.415   1.691   4.216
 2323TIP3    H1 6910   0.351   1.755   4.253
 2323TIP3    H2 6911   0.455   1.742   4.143
 2324TIP3   OH2 6912   1.222   1.023   3.781
 2324TIP3    H1 6913   1.212   0.973   3.863
 2324TIP3    H2 6914   1.276   1.099   3.808
 2325TIP3   OH2 6915   0.238   1.883   4.310
 2325TIP3    H1 6916   0.215   1.969   4.272
 2325TIP3    H2 6917   0.160   1.871   4.368
 2326TIP3   OH2 6918   1.076   2.089   3.786
 2326TIP3    H1 6919   0.987   2.080   3.827
 2326TIP3    H2 6920   1.067   2.176   3.742
 2327TIP3   OH2 6921   1.364   0.994   4.152
 2327TIP3    H1 6922   1.276   1.018   4.119
 2327TIP3    H2 6923   1.423   1.023   4.079
 2328TIP3   OH2 6924   0.779   2.136   3.462
 2328TIP3    H1 6925   0.828   2.053   3.441
 2328TIP3    H2 6926   0.842   2.201   3.423
 2329TIP3   OH2 6927   0.924   1.925   3.368
 2329TIP3    H1 6928   0.902   1.844   3.319
 2329TIP3    H2 6929   0.956   1.888   3.453
 2330TIP3   OH2 6930   1.302   2.004   4.130
 2330TIP3    H1 6931   1.290   1.926   4.072
 2330TIP3    H2 6932   1.284   2.078   4.069
 2331TIP3   OH2 6933   1.498   1.641   3.975
 2331TIP3    H1 6934   1.413   1.692   3.981
 2331TIP3    H2 6935   1.525   1.665   3.884
 2332TIP3   OH2 6936   0.937   1.471   3.359
 2332TIP3    H1 6937   0.883   1.501   3.435
 2332TIP3    H2 6938   1.021   1.449   3.403
 2333TIP3   OH2 6939   1.176   1.520   4.268
 2333TIP3    H1 6940   1.171   1.604   4.318
 2333TIP3    H2 6941   1.088   1.522   4.224
 2334TIP3   OH2 6942   0.304   1.884   3.919
 2334TIP3    H1 6943   0.292   1.832   3.837
 2334TIP3    H2 6944   0.394   1.856   3.945
 2335TIP3   OH2 6945   0.301   1.449   4.133
 2335TIP3    H1 6946   0.336   1.418   4.046
 2335TIP3    H2 6947   0.353   1.531   4.148
 2336TIP3   OH2 6948   0.835   2.085   3.906
 2336TIP3    H1 6949   0.821   2.166   3.959
 2336TIP3    H2 6950   0.820   2.013   3.971
 2337TIP3   OH2 6951   0.446   2.006   4.453
 2337TIP3    H1 6952   0.387   2.068   4.500
 2337TIP3    H2 6953   0.381   1.952   4.404
 2338TIP3   OH2 6954   0.203   1.562   4.557
 2338TIP3    H1 6955   0.208   1.649   4.601
 2338TIP3    H2 6956   0.107   1.551   4.548
 2339TIP3   OH2 6957   0.520   2.021   3.450
 2339TIP3    H1 6958   0.599   2.070   3.478
 2339TIP3    H2 6959   0.459   2.093   3.427
 2340TIP3   OH2 6960   0.241   2.174   4.541
 2340TIP3    H1 6961   0.205   2.176   4.451
 2340TIP3    H2 6962   0.161   2.156   4.596
 2341TIP3   OH2 6963   1.104   1.957   2.775
 2341TIP3    H1 6964   1.106   2.055   2.771
 2341TIP3    H2 6965   1.199   1.936   2.775
 2342TIP3   OH2 6966  -0.167   1.710   4.469
 2342TIP3    H1 6967  -0.234   1.675   4.409
 2342TIP3    H2 6968  -0.134   1.629   4.513
 2343TIP3   OH2 6969  -0.322   1.918   4.102
 2343TIP3    H1 6970  -0.235   1.877   4.102
 2343TIP3    H2 6971  -0.315   1.976   4.179
 2344TIP3   OH2 6972   1.540   2.346   4.176
 2344TIP3    H1 6973   1.537   2.250   4.191
 2344TIP3    H2 6974   1.457   2.374   4.221
 2345TIP3   OH2 6975   0.645   2.134   4.311
 2345TIP3    H1 6976   0.645   2.226   4.343
 2345TIP3    H2 6977   0.573   2.095   4.365
 2346TIP3   OH2 6978   0.404   2.263   3.282
 2346TIP3    H1 6979   0.358   2.256   3.195
 2346TIP3    H2 6980   0.378   2.353   3.309
 2347TIP3   OH2 6981  -0.164   2.111   3.640
 2347TIP3    H1 6982  -0.122   2.095   3.727
 2347TIP3    H2 6983  -0.231   2.042   3.636
 2348TIP3   OH2 6984   0.613   2.153   2.937
 2348TIP3    H1 6985   0.694   2.104   2.909
 2348TIP3    H2 6986   0.636   2.173   3.030
 2349TIP3   OH2 6987   0.656   2.219   3.194
 2349TIP3    H1 6988   0.567   2.227   3.234
 2349TIP3    H2 6989   0.705   2.175   3.266
 2350TIP3   OH2 6990   1.429   1.479   4.450
 2350TIP3    H1 6991   1.347   1.494   4.400
 2350TIP3    H2 6992   1.444   1.384   4.437
 2351TIP3   OH2 6993   0.027   1.896   4.484
 2351TIP3    H1 6994   0.077   1.867   4.563
 2351TIP3    H2 6995  -0.047   1.832   4.481
 2352TIP3   OH2 6996   0.959   0.832   4.457
 2352TIP3    H1 6997   1.029   0.800   4.517
 2352TIP3    H2 6998   0.876   0.805   4.502
 2353TIP3   OH2 6999   1.202   1.257   4.377
 2353TIP3    H1 7000   1.148   1.252   4.459
 2353TIP3    H2 7001   1.173   1.341   4.338
 2354TIP3   OH2 7002   0.366   1.228   4.285
 2354TIP3    H1 7003   0.303   1.245   4.356
 2354TIP3    H2 7004   0.342   1.297   4.220
 2355TIP3   OH2 7005   0.904   1.478   4.608
 2355TIP3    H1 7006   0.882   1.405   4.671
 2355TIP3    H2 7007   0.998   1.492   4.630
 2356TIP3   OH2 7008   0.882   1.242   3.774
 2356TIP3    H1 7009   0.839   1.288   3.701
 2356TIP3    H2 7010   0.917   1.162   3.727
 2357TIP3   OH2 7011   0.169   1.261   4.502
 2357TIP3    H1 7012   0.224   1.331   4.541
 2357TIP3    H2 7013   0.151   1.204   4.579
 2358TIP3   OH2 7014   0.900   1.475   4.184
 2358TIP3    H1 7015   0.934   1.402   4.127
 2358TIP3    H2 7016   0.870   1.423   4.261
 2359TIP3   OH2 7017   1.061   1.010   4.057
 2359TIP3    H1 7018   1.025   1.023   4.148
 2359TIP3    H2 7019   0.995   0.946   4.023
 2360TIP3   OH2 7020   1.228   2.698   4.274
 2360TIP3    H1 7021   1.226   2.724   4.180
 2360TIP3    H2 7022   1.305   2.748   4.307
 2361TIP3   OH2 7023   0.187   1.807   4.699
 2361TIP3    H1 7024   0.269   1.839   4.743
 2361TIP3    H2 7025   0.125   1.811   4.775
 2362TIP3   OH2 7026   0.654   1.263   3.956
 2362TIP3    H1 7027   0.723   1.220   3.904
 2362TIP3    H2 7028   0.658   1.215   4.041
 2363TIP3   OH2 7029   0.631   1.156   4.247
 2363TIP3    H1 7030   0.540   1.192   4.256
 2363TIP3    H2 7031   0.686   1.222   4.294
 2364TIP3   OH2 7032   1.265   1.785   3.967
 2364TIP3    H1 7033   1.287   1.836   3.886
 2364TIP3    H2 7034   1.180   1.743   3.943
 2365TIP3   OH2 7035   0.767   1.870   4.332
 2365TIP3    H1 7036   0.783   1.843   4.424
 2365TIP3    H2 7037   0.725   1.957   4.342
 2366TIP3   OH2 7038   0.052   1.567   4.020
 2366TIP3    H1 7039   0.094   1.538   3.938
 2366TIP3    H2 7040   0.093   1.507   4.085
 2367TIP3   OH2 7041  -0.073   1.507   4.628
 2367TIP3    H1 7042  -0.024   1.506   4.713
 2367TIP3    H2 7043  -0.164   1.486   4.657
 2368TIP3   OH2 7044   0.661   1.606   4.642
 2368TIP3    H1 7045   0.603   1.546   4.593
 2368TIP3    H2 7046   0.750   1.572   4.616
 2369TIP3   OH2 7047   0.925   2.128   4.227
 2369TIP3    H1 7048   0.829   2.125   4.241
 2369TIP3    H2 7049   0.952   2.179   4.307
 2370TIP3   OH2 7050   1.351   1.194   3.118
 2370TIP3    H1 7051   1.270   1.138   3.123
 2370TIP3    H2 7052   1.315   1.277   3.081
 2371TIP3   OH2 7053   1.553   2.055   4.219
 2371TIP3    H1 7054   1.455   2.051   4.211
 2371TIP3    H2 7055   1.577   2.025   4.129
 2372TIP3   OH2 7056   1.048   2.015   3.049
 2372TIP3    H1 7057   1.007   1.950   3.109
 2372TIP3    H2 7058   1.032   1.976   2.961
 2373TIP3   OH2 7059   1.030   1.648   3.886
 2373TIP3    H1 7060   0.937   1.622   3.900
 2373TIP3    H2 7061   1.065   1.568   3.841
 2374TIP3   OH2 7062   0.129   1.862   3.615
 2374TIP3    H1 7063   0.146   1.952   3.578
 2374TIP3    H2 7064   0.054   1.881   3.671
 2375TIP3   OH2 7065   0.321   1.659   3.631
 2375TIP3    H1 7066   0.261   1.735   3.618
 2375TIP3    H2 7067   0.262   1.585   3.612
 2376TIP3   OH2 7068   0.425   2.219   4.107
 2376TIP3    H1 7069   0.466   2.292   4.057
 2376TIP3    H2 7070   0.502   2.185   4.156
 2377TIP3   OH2 7071   0.093   2.113   3.513
 2377TIP3    H1 7072  -0.003   2.122   3.530
 2377TIP3    H2 7073   0.117   2.207   3.497
 2378TIP3   OH2 7074   0.816   1.851   4.064
 2378TIP3    H1 7075   0.806   1.851   4.162
 2378TIP3    H2 7076   0.896   1.798   4.053
 2379TIP3   OH2 7077   0.700   1.655   3.103
 2379TIP3    H1 7078   0.794   1.669   3.127
 2379TIP3    H2 7079   0.656   1.723   3.154
 2380TIP3   OH2 7080   1.064   2.386   4.114
 2380TIP3    H1 7081   0.984   2.331   4.108
 2380TIP3    H2 7082   1.048   2.452   4.043
 2381TIP3   OH2 7083   1.131   2.228   2.768
 2381TIP3    H1 7084   1.169   2.306   2.724
 2381TIP3    H2 7085   1.047   2.267   2.800
 2382TIP3   OH2 7086   0.958   1.693   3.188
 2382TIP3    H1 7087   0.946   1.611   3.241
 2382TIP3    H2 7088   1.052   1.683   3.162
 2383TIP3   OH2 7089  -0.139   2.078   4.270
 2383TIP3    H1 7090  -0.081   2.007   4.301
 2383TIP3    H2 7091  -0.109   2.152   4.325
 2384TIP3   OH2 7092   0.985   1.065   4.316
 2384TIP3    H1 7093   1.066   1.100   4.355
 2384TIP3    H2 7094   0.970   0.984   4.369
 2385TIP3   OH2 7095   0.824   1.315   4.389
 2385TIP3    H1 7096   0.842   1.367   4.470
 2385TIP3    H2 7097   0.877   1.235   4.404
 2386TIP3   OH2 7098   1.469   1.211   4.371
 2386TIP3    H1 7099   1.371   1.211   4.379
 2386TIP3    H2 7100   1.477   1.168   4.284
 2387TIP3   OH2 7101   1.117   1.407   3.760
 2387TIP3    H1 7102   1.041   1.348   3.779
 2387TIP3    H2 7103   1.190   1.359   3.805
 2388TIP3   OH2 7104   1.084   2.360   3.708
 2388TIP3    H1 7105   1.041   2.407   3.633
 2388TIP3    H2 7106   1.178   2.379   3.687
 2389TIP3   OH2 7107  -0.128   2.401   4.667
 2389TIP3    H1 7108  -0.050   2.402   4.726
 2389TIP3    H2 7109  -0.161   2.311   4.683
 2390TIP3   OH2 7110   0.342   2.358   4.731
 2390TIP3    H1 7111   0.435   2.331   4.737
 2390TIP3    H2 7112   0.312   2.300   4.658
 2391TIP3   OH2 7113   0.976   2.261   4.465
 2391TIP3    H1 7114   0.967   2.192   4.535
 2391TIP3    H2 7115   1.053   2.312   4.496
 2392TIP3   OH2 7116   0.802   1.997   2.826
 2392TIP3    H1 7117   0.772   1.904   2.825
 2392TIP3    H2 7118   0.838   2.010   2.737
 2393TIP3   OH2 7119  -0.022   1.788   4.880
 2393TIP3    H1 7120   0.002   1.694   4.889
 2393TIP3    H2 7121  -0.105   1.784   4.830
 2394TIP3   OH2 7122   0.595   1.881   4.661
 2394TIP3    H1 7123   0.552   1.896   4.574
 2394TIP3    H2 7124   0.625   1.788   4.655
 2395TIP3   OH2 7125   1.087   1.886   4.267
 2395TIP3    H1 7126   1.160   1.934   4.224
 2395TIP3    H2 7127   1.014   1.950   4.256
 2396TIP3   OH2 7128   0.085   1.521   4.867
 2396TIP3    H1 7129   0.163   1.469   4.846
 2396TIP3    H2 7130   0.109   1.555   4.956
 2397TIP3   OH2 7131   0.435   1.411   4.529
 2397TIP3    H1 7132   0.365   1.479   4.536
 2397TIP3    H2 7133   0.487   1.443   4.452
 2398TIP3   OH2 7134   0.957   1.818   4.667
 2398TIP3    H1 7135   1.037   1.793   4.618
 2398TIP3    H2 7136   0.953   1.750   4.736
 2399TIP3   OH2 7137   0.570   1.206   4.656
 2399TIP3    H1 7138   0.562   1.122   4.606
 2399TIP3    H2 7139   0.521   1.269   4.599
 2400TIP3   OH2 7140   0.560   0.986   4.459
 2400TIP3    H1 7141   0.593   1.034   4.380
 2400TIP3    H2 7142   0.471   0.963   4.431
 2401TIP3   OH2 7143   0.595   1.526   4.340
 2401TIP3    H1 7144   0.676   1.532   4.288
 2401TIP3    H2 7145   0.538   1.593   4.295
 2402TIP3   OH2 7146   1.176   1.493   4.719
 2402TIP3    H1 7147   1.225   1.410   4.729
 2402TIP3    H2 7148   1.243   1.553   4.685
 2403TIP3   OH2 7149   1.217   1.745   4.457
 2403TIP3    H1 7150   1.158   1.797   4.397
 2403TIP3    H2 7151   1.304   1.766   4.415
 2404TIP3   OH2 7152   0.441   1.342   4.871
 2404TIP3    H1 7153   0.378   1.269   4.890
 2404TIP3    H2 7154   0.486   1.307   4.792
 2405TIP3   OH2 7155   0.690   0.753   4.524
 2405TIP3    H1 7156   0.656   0.841   4.497
 2405TIP3    H2 7157   0.605   0.713   4.551
 2406TIP3   OH2 7158   0.825   1.260   4.751
 2406TIP3    H1 7159   0.812   1.248   4.846
 2406TIP3    H2 7160   0.736   1.236   4.719
 2407TIP3   OH2 7161   1.062   1.207   4.604
 2407TIP3    H1 7162   0.986   1.210   4.665
 2407TIP3    H2 7163   1.133   1.174   4.662
 2408TIP3   OH2 7164   1.304   1.148   4.754
 2408TIP3    H1 7165   1.307   1.052   4.775
 2408TIP3    H2 7166   1.292   1.188   4.843
 2409TIP3   OH2 7167   0.794   0.796   4.771
 2409TIP3    H1 7168   0.879   0.746   4.770
 2409TIP3    H2 7169   0.760   0.780   4.681
 2410TIP3   OH2 7170   0.867   0.995   4.936
 2410TIP3    H1 7171   0.835   0.926   4.874
 2410TIP3    H2 7172   0.787   1.052   4.944
 2411TIP3   OH2 7173  -0.398   2.066   3.867
 2411TIP3    H1 7174  -0.393   1.989   3.926
 2411TIP3    H2 7175  -0.343   2.128   3.918
 2412TIP3   OH2 7176   1.337   2.451   3.663
 2412TIP3    H1 7177   1.360   2.485   3.752
 2412TIP3    H2 7178   1.394   2.505   3.606
 2413TIP3   OH2 7179   1.365   2.473   3.943
 2413TIP3    H1 7180   1.323   2.384   3.942
 2413TIP3    H2 7181   1.439   2.454   4.003
 2414TIP3   OH2 7182   1.413   2.149   4.520
 2414TIP3    H1 7183   1.338   2.158   4.582
 2414TIP3    H2 7184   1.453   2.238   4.523
 2415TIP3   OH2 7185   1.235   1.661   3.138
 2415TIP3    H1 7186   1.300   1.730   3.116
 2415TIP3    H2 7187   1.272   1.625   3.222
 2416TIP3   OH2 7188   1.356   1.531   3.344
 2416TIP3    H1 7189   1.288   1.489   3.401
 2416TIP3    H2 7190   1.417   1.570   3.410
 2417TIP3   OH2 7191   1.410   1.922   3.777
 2417TIP3    H1 7192   1.461   1.858   3.725
 2417TIP3    H2 7193   1.398   1.996   3.714
 2418TIP3   OH2 7194   1.242   2.223   3.971
 2418TIP3    H1 7195   1.171   2.266   4.022
 2418TIP3    H2 7196   1.191   2.176   3.901
 2419TIP3   OH2 7197   1.266   1.439   2.982
 2419TIP3    H1 7198   1.172   1.452   2.962
 2419TIP3    H2 7199   1.276   1.510   3.049
 2420TIP3   OH2 7200   1.171   1.399   3.491
 2420TIP3    H1 7201   1.176   1.303   3.473
 2420TIP3    H2 7202   1.160   1.401   3.588
 2421TIP3   OH2 7203  -0.200   1.449   4.239
 2421TIP3    H1 7204  -0.193   1.458   4.143
 2421TIP3    H2 7205  -0.105   1.455   4.265
 2422TIP3   OH2 7206   1.460   1.811   4.346
 2422TIP3    H1 7207   1.533   1.746   4.337
 2422TIP3    H2 7208   1.486   1.881   4.284
 2423TIP3   OH2 7209   1.646   1.617   4.365
 2423TIP3    H1 7210   1.571   1.568   4.404
 2423TIP3    H2 7211   1.718   1.551   4.379
 2424TIP3   OH2 7212   1.176   1.140   3.420
 2424TIP3    H1 7213   1.216   1.054   3.447
 2424TIP3    H2 7214   1.183   1.132   3.324
 2425TIP3   OH2 7215   1.329   1.279   3.881
 2425TIP3    H1 7216   1.416   1.304   3.841
 2425TIP3    H2 7217   1.343   1.315   3.971
 2426TIP3   OH2 7218   1.397   1.421   4.114
 2426TIP3    H1 7219   1.318   1.454   4.160
 2426TIP3    H2 7220   1.429   1.502   4.068
 2427TIP3   OH2 7221   1.248   0.889   3.469
 2427TIP3    H1 7222   1.314   0.862   3.536
 2427TIP3    H2 7223   1.226   0.803   3.430
 2428TIP3   OH2 7224   1.716   1.152   4.492
 2428TIP3    H1 7225   1.625   1.187   4.490
 2428TIP3    H2 7226   1.707   1.075   4.434
 2429TIP3   OH2 7227   0.923   2.317   3.323
 2429TIP3    H1 7228   0.973   2.305   3.239
 2429TIP3    H2 7229   0.973   2.387   3.367
 2430TIP3   OH2 7230   0.017   2.125   4.716
 2430TIP3    H1 7231  -0.048   2.058   4.694
 2430TIP3    H2 7232   0.032   2.109   4.811
 2431TIP3   OH2 7233   0.198   2.153   4.254
 2431TIP3    H1 7234   0.150   2.230   4.215
 2431TIP3    H2 7235   0.284   2.169   4.211
 2432TIP3   OH2 7236   0.646   2.400   4.394
 2432TIP3    H1 7237   0.688   2.403   4.482
 2432TIP3    H2 7238   0.711   2.451   4.341
 2433TIP3   OH2 7239   0.824   2.551   4.251
 2433TIP3    H1 7240   0.896   2.501   4.210
 2433TIP3    H2 7241   0.875   2.609   4.312
 2434TIP3   OH2 7242   1.615   0.913   4.351
 2434TIP3    H1 7243   1.526   0.910   4.312
 2434TIP3    H2 7244   1.645   0.820   4.337
 2435TIP3   OH2 7245  -0.124   2.411   4.278
 2435TIP3    H1 7246  -0.215   2.433   4.250
 2435TIP3    H2 7247  -0.124   2.444   4.368
 2436TIP3   OH2 7248   0.113   2.391   4.136
 2436TIP3    H1 7249   0.027   2.405   4.181
 2436TIP3    H2 7250   0.094   2.424   4.046
 2437TIP3   OH2 7251   0.539   2.421   3.933
 2437TIP3    H1 7252   0.468   2.441   3.868
 2437TIP3    H2 7253   0.551   2.509   3.975
 2438TIP3   OH2 7254   0.807   2.359   3.983
 2438TIP3    H1 7255   0.712   2.377   3.965
 2438TIP3    H2 7256   0.849   2.438   3.945
 2439TIP3   OH2 7257   1.016   2.553   3.902
 2439TIP3    H1 7258   1.002   2.637   3.854
 2439TIP3    H2 7259   1.040   2.492   3.829
 2440TIP3   OH2 7260  -0.210   2.208   4.019
 2440TIP3    H1 7261  -0.194   2.183   4.112
 2440TIP3    H2 7262  -0.140   2.156   3.974
 2441TIP3   OH2 7263  -0.021   2.070   3.874
 2441TIP3    H1 7264  -0.002   1.993   3.932
 2441TIP3    H2 7265   0.066   2.114   3.869
 2442TIP3   OH2 7266   0.245   2.173   3.883
 2442TIP3    H1 7267   0.279   2.083   3.869
 2442TIP3    H2 7268   0.288   2.195   3.967
 2443TIP3   OH2 7269   0.858   0.828   3.991
 2443TIP3    H1 7270   0.774   0.782   3.982
 2443TIP3    H2 7271   0.911   0.790   3.918
 2444TIP3   OH2 7272   1.345   0.716   3.881
 2444TIP3    H1 7273   1.384   0.761   3.803
 2444TIP3    H2 7274   1.250   0.734   3.869
 2445TIP3   OH2 7275   1.449   0.818   3.647
 2445TIP3    H1 7276   1.526   0.774   3.605
 2445TIP3    H2 7277   1.474   0.912   3.634
 2446TIP3   OH2 7278   1.070   0.711   3.838
 2446TIP3    H1 7279   1.073   0.673   3.749
 2446TIP3    H2 7280   1.055   0.632   3.895
 2447TIP3   OH2 7281   0.328   2.232   3.022
 2447TIP3    H1 7282   0.417   2.235   2.985
 2447TIP3    H2 7283   0.299   2.144   2.993
 2448TIP3   OH2 7284   1.067   2.285   3.088
 2448TIP3    H1 7285   1.063   2.187   3.078
 2448TIP3    H2 7286   1.018   2.314   3.008
 2449TIP3   OH2 7287   1.354   0.874   4.786
 2449TIP3    H1 7288   1.371   0.840   4.876
 2449TIP3    H2 7289   1.443   0.869   4.745
 2450TIP3   OH2 7290   1.294   2.430   4.276
 2450TIP3    H1 7291   1.215   2.399   4.228
 2450TIP3    H2 7292   1.275   2.526   4.280
 2451TIP3   OH2 7293   2.558   1.803   3.039
 2451TIP3    H1 7294   2.523   1.893   3.022
 2451TIP3    H2 7295   2.478   1.751   3.023
 2452TIP3   OH2 7296   2.555   1.799   3.421
 2452TIP3    H1 7297   2.589   1.778   3.510
 2452TIP3    H2 7298   2.512   1.715   3.396
 2453TIP3   OH2 7299   1.860   1.698   3.785
 2453TIP3    H1 7300   1.888   1.629   3.848
 2453TIP3    H2 7301   1.933   1.761   3.792
 2454TIP3   OH2 7302   1.826   2.107   3.511
 2454TIP3    H1 7303   1.818   2.010   3.516
 2454TIP3    H2 7304   1.922   2.117   3.519
 2455TIP3   OH2 7305   1.541   1.319   3.301
 2455TIP3    H1 7306   1.481   1.394   3.316
 2455TIP3    H2 7307   1.477   1.250   3.275
 2456TIP3   OH2 7308   1.597   1.600   3.471
 2456TIP3    H1 7309   1.641   1.521   3.509
 2456TIP3    H2 7310   1.650   1.617   3.393
 2457TIP3   OH2 7311   2.466   2.502   3.116
 2457TIP3    H1 7312   2.537   2.554   3.077
 2457TIP3    H2 7313   2.431   2.560   3.186
 2458TIP3   OH2 7314   2.360   2.028   3.466
 2458TIP3    H1 7315   2.398   1.947   3.428
 2458TIP3    H2 7316   2.444   2.071   3.493
 2459TIP3   OH2 7317   3.368   1.347   3.470
 2459TIP3    H1 7318   3.396   1.429   3.515
 2459TIP3    H2 7319   3.391   1.366   3.378
 2460TIP3   OH2 7320   2.771   1.530   3.506
 2460TIP3    H1 7321   2.813   1.444   3.526
 2460TIP3    H2 7322   2.739   1.514   3.415
 2461TIP3   OH2 7323   2.109   1.189   3.469
 2461TIP3    H1 7324   2.082   1.261   3.408
 2461TIP3    H2 7325   2.062   1.114   3.428
 2462TIP3   OH2 7326   2.799   1.274   3.095
 2462TIP3    H1 7327   2.870   1.259   3.162
 2462TIP3    H2 7328   2.853   1.311   3.023
 2463TIP3   OH2 7329   1.740   1.392   3.575
 2463TIP3    H1 7330   1.821   1.369   3.624
 2463TIP3    H2 7331   1.748   1.331   3.499
 2464TIP3   OH2 7332   2.182   1.589   3.362
 2464TIP3    H1 7333   2.274   1.561   3.382
 2464TIP3    H2 7334   2.140   1.504   3.336
 2465TIP3   OH2 7335   3.439   1.551   3.645
 2465TIP3    H1 7336   3.358   1.603   3.624
 2465TIP3    H2 7337   3.465   1.591   3.730
 2466TIP3   OH2 7338   2.104   1.173   3.905
 2466TIP3    H1 7339   2.042   1.209   3.839
 2466TIP3    H2 7340   2.053   1.187   3.987
 2467TIP3   OH2 7341   2.444   2.026   2.923
 2467TIP3    H1 7342   2.408   2.005   2.836
 2467TIP3    H2 7343   2.413   2.118   2.935
 2468TIP3   OH2 7344   2.210   1.948   3.702
 2468TIP3    H1 7345   2.144   2.008   3.743
 2468TIP3    H2 7346   2.250   2.006   3.635
 2469TIP3   OH2 7347   3.010   1.281   3.262
 2469TIP3    H1 7348   3.002   1.231   3.344
 2469TIP3    H2 7349   3.064   1.357   3.289
 2470TIP3   OH2 7350   1.974   1.288   3.689
 2470TIP3    H1 7351   2.037   1.359   3.713
 2470TIP3    H2 7352   2.023   1.246   3.614
 2471TIP3   OH2 7353   2.035   2.138   3.795
 2471TIP3    H1 7354   2.011   2.227   3.760
 2471TIP3    H2 7355   1.957   2.123   3.853
 2472TIP3   OH2 7356   1.436   1.834   3.035
 2472TIP3    H1 7357   1.387   1.865   2.956
 2472TIP3    H2 7358   1.464   1.918   3.075
 2473TIP3   OH2 7359   3.161   1.244   3.636
 2473TIP3    H1 7360   3.075   1.277   3.606
 2473TIP3    H2 7361   3.222   1.279   3.567
 2474TIP3   OH2 7362   2.464   0.892   3.622
 2474TIP3    H1 7363   2.445   0.797   3.635
 2474TIP3    H2 7364   2.384   0.931   3.665
 2475TIP3   OH2 7365   2.713   2.172   2.874
 2475TIP3    H1 7366   2.671   2.126   2.800
 2475TIP3    H2 7367   2.779   2.109   2.901
 2476TIP3   OH2 7368   3.097   2.260   3.621
 2476TIP3    H1 7369   3.089   2.183   3.560
 2476TIP3    H2 7370   3.082   2.336   3.560
 2477TIP3   OH2 7371   2.385   1.647   2.870
 2477TIP3    H1 7372   2.307   1.705   2.857
 2477TIP3    H2 7373   2.435   1.662   2.788
 2478TIP3   OH2 7374   2.405   1.360   2.607
 2478TIP3    H1 7375   2.439   1.441   2.652
 2478TIP3    H2 7376   2.382   1.397   2.520
 2479TIP3   OH2 7377   3.291   1.891   3.460
 2479TIP3    H1 7378   3.211   1.947   3.468
 2479TIP3    H2 7379   3.323   1.919   3.371
 2480TIP3   OH2 7380   2.735   1.730   2.844
 2480TIP3    H1 7381   2.681   1.755   2.923
 2480TIP3    H2 7382   2.819   1.705   2.887
 2481TIP3   OH2 7383   2.971   1.776   3.757
 2481TIP3    H1 7384   2.970   1.858   3.809
 2481TIP3    H2 7385   2.884   1.782   3.712
 2482TIP3   OH2 7386   1.971   1.734   3.258
 2482TIP3    H1 7387   1.929   1.675   3.193
 2482TIP3    H2 7388   2.047   1.680   3.289
 2483TIP3   OH2 7389   2.105   2.151   3.407
 2483TIP3    H1 7390   2.076   2.097   3.332
 2483TIP3    H2 7391   2.192   2.113   3.427
 2484TIP3   OH2 7392   2.115   1.702   3.617
 2484TIP3    H1 7393   2.141   1.688   3.524
 2484TIP3    H2 7394   2.150   1.791   3.637
 2485TIP3   OH2 7395   2.243   2.260   3.940
 2485TIP3    H1 7396   2.184   2.323   3.988
 2485TIP3    H2 7397   2.176   2.208   3.892
 2486TIP3   OH2 7398   2.579   1.584   2.669
 2486TIP3    H1 7399   2.637   1.641   2.725
 2486TIP3    H2 7400   2.608   1.612   2.579
 2487TIP3   OH2 7401   1.996   1.820   4.038
 2487TIP3    H1 7402   2.001   1.906   4.084
 2487TIP3    H2 7403   1.901   1.799   4.052
 2488TIP3   OH2 7404   2.340   2.296   2.949
 2488TIP3    H1 7405   2.349   2.375   3.006
 2488TIP3    H2 7406   2.263   2.318   2.895
 2489TIP3   OH2 7407   2.038   2.428   4.027
 2489TIP3    H1 7408   2.000   2.429   3.937
 2489TIP3    H2 7409   1.960   2.408   4.083
 2490TIP3   OH2 7410   3.094   0.836   2.719
 2490TIP3    H1 7411   3.012   0.855   2.769
 2490TIP3    H2 7412   3.107   0.920   2.671
 2491TIP3   OH2 7413   1.841   1.572   3.057
 2491TIP3    H1 7414   1.770   1.622   3.010
 2491TIP3    H2 7415   1.793   1.494   3.087
 2492TIP3   OH2 7416   2.891   2.203   2.269
 2492TIP3    H1 7417   2.900   2.300   2.252
 2492TIP3    H2 7418   2.984   2.174   2.257
 2493TIP3   OH2 7419   1.617   1.960   3.975
 2493TIP3    H1 7420   1.549   1.938   3.907
 2493TIP3    H2 7421   1.652   1.872   3.998
 2494TIP3   OH2 7422   1.470   2.155   3.606
 2494TIP3    H1 7423   1.566   2.152   3.602
 2494TIP3    H2 7424   1.455   2.233   3.660
 2495TIP3   OH2 7425   3.337   2.602   3.663
 2495TIP3    H1 7426   3.334   2.506   3.683
 2495TIP3    H2 7427   3.254   2.631   3.708
 2496TIP3   OH2 7428   2.440   2.391   3.796
 2496TIP3    H1 7429   2.442   2.483   3.830
 2496TIP3    H2 7430   2.369   2.352   3.853
 2497TIP3   OH2 7431   2.203   2.520   2.751
 2497TIP3    H1 7432   2.158   2.503   2.666
 2497TIP3    H2 7433   2.170   2.608   2.775
 2498TIP3   OH2 7434   1.640   2.369   3.132
 2498TIP3    H1 7435   1.688   2.361   3.218
 2498TIP3    H2 7436   1.576   2.297   3.141
 2499TIP3   OH2 7437   2.402   2.419   2.389
 2499TIP3    H1 7438   2.462   2.351   2.352
 2499TIP3    H2 7439   2.437   2.432   2.479
 2500TIP3   OH2 7440   2.454   2.469   2.658
 2500TIP3    H1 7441   2.368   2.476   2.703
 2500TIP3    H2 7442   2.512   2.438   2.729
 2501TIP3   OH2 7443   3.226   1.732   3.940
 2501TIP3    H1 7444   3.146   1.750   3.888
 2501TIP3    H2 7445   3.238   1.636   3.926
 2502TIP3   OH2 7446   1.822   2.141   3.963
 2502TIP3    H1 7447   1.870   2.128   4.047
 2502TIP3    H2 7448   1.747   2.078   3.972
 2503TIP3   OH2 7449   2.223   0.969   3.744
 2503TIP3    H1 7450   2.134   0.935   3.718
 2503TIP3    H2 7451   2.195   1.049   3.792
 2504TIP3   OH2 7452   2.747   1.083   3.947
 2504TIP3    H1 7453   2.787   1.057   4.030
 2504TIP3    H2 7454   2.652   1.068   3.969
 2505TIP3   OH2 7455   2.992   1.511   3.859
 2505TIP3    H1 7456   2.942   1.509   3.944
 2505TIP3    H2 7457   2.971   1.600   3.824
 2506TIP3   OH2 7458   2.645   1.646   2.414
 2506TIP3    H1 7459   2.622   1.610   2.326
 2506TIP3    H2 7460   2.727   1.693   2.393
 2507TIP3   OH2 7461   2.155   1.482   3.768
 2507TIP3    H1 7462   2.101   1.503   3.847
 2507TIP3    H2 7463   2.139   1.562   3.713
 2508TIP3   OH2 7464   2.033   1.370   3.281
 2508TIP3    H1 7465   1.941   1.341   3.300
 2508TIP3    H2 7466   2.047   1.327   3.194
 2509TIP3   OH2 7467   2.529   1.458   3.006
 2509TIP3    H1 7468   2.471   1.527   2.967
 2509TIP3    H2 7469   2.583   1.434   2.929
 2510TIP3   OH2 7470   2.700   1.730   4.091
 2510TIP3    H1 7471   2.680   1.661   4.158
 2510TIP3    H2 7472   2.791   1.753   4.115
 2511TIP3   OH2 7473   2.687   1.482   3.247
 2511TIP3    H1 7474   2.626   1.513   3.177
 2511TIP3    H2 7475   2.718   1.400   3.205
 2512TIP3   OH2 7476   1.973   1.511   3.974
 2512TIP3    H1 7477   1.991   1.575   4.044
 2512TIP3    H2 7478   1.959   1.429   4.025
 2513TIP3   OH2 7479   2.016   0.985   2.679
 2513TIP3    H1 7480   2.027   0.987   2.777
 2513TIP3    H2 7481   1.921   1.002   2.674
 2514TIP3   OH2 7482   1.555   1.056   3.574
 2514TIP3    H1 7483   1.642   1.067   3.615
 2514TIP3    H2 7484   1.575   1.017   3.486
 2515TIP3   OH2 7485   1.572   1.034   3.095
 2515TIP3    H1 7486   1.616   1.071   3.017
 2515TIP3    H2 7487   1.495   1.093   3.105
 2516TIP3   OH2 7488   2.693   1.731   3.667
 2516TIP3    H1 7489   2.727   1.658   3.611
 2516TIP3    H2 7490   2.664   1.680   3.746
 2517TIP3   OH2 7491   2.362   1.191   3.339
 2517TIP3    H1 7492   2.276   1.189   3.386
 2517TIP3    H2 7493   2.425   1.193   3.413
 2518TIP3   OH2 7494   1.799   1.244   3.347
 2518TIP3    H1 7495   1.704   1.256   3.322
 2518TIP3    H2 7496   1.812   1.149   3.329
 2519TIP3   OH2 7497   2.073   1.248   3.042
 2519TIP3    H1 7498   2.166   1.260   3.016
 2519TIP3    H2 7499   2.023   1.261   2.958
 2520TIP3   OH2 7500   2.855   1.265   3.539
 2520TIP3    H1 7501   2.822   1.278   3.631
 2520TIP3    H2 7502   2.787   1.203   3.505
 2521TIP3   OH2 7503   1.915   1.266   2.823
 2521TIP3    H1 7504   1.819   1.267   2.814
 2521TIP3    H2 7505   1.947   1.305   2.740
 2522TIP3   OH2 7506   3.025   2.953   3.761
 2522TIP3    H1 7507   3.024   2.983   3.668
 2522TIP3    H2 7508   3.101   3.003   3.796
 2523TIP3   OH2 7509   1.984   2.064   4.184
 2523TIP3    H1 7510   2.063   2.096   4.233
 2523TIP3    H2 7511   1.918   2.064   4.256
 2524TIP3   OH2 7512   2.447   1.519   3.439
 2524TIP3    H1 7513   2.520   1.475   3.393
 2524TIP3    H2 7514   2.453   1.480   3.529
 2525TIP3   OH2 7515   1.980   1.004   3.317
 2525TIP3    H1 7516   1.933   0.933   3.366
 2525TIP3    H2 7517   2.019   0.955   3.244
 2526TIP3   OH2 7518   2.424   1.416   3.727
 2526TIP3    H1 7519   2.333   1.450   3.741
 2526TIP3    H2 7520   2.479   1.478   3.779
 2527TIP3   OH2 7521   2.163   1.804   2.826
 2527TIP3    H1 7522   2.089   1.741   2.815
 2527TIP3    H2 7523   2.143   1.841   2.916
 2528TIP3   OH2 7524   3.065   2.045   3.452
 2528TIP3    H1 7525   3.086   2.089   3.366
 2528TIP3    H2 7526   2.981   1.997   3.431
 2529TIP3   OH2 7527   2.560   2.129   3.811
 2529TIP3    H1 7528   2.581   2.101   3.901
 2529TIP3    H2 7529   2.520   2.216   3.824
 2530TIP3   OH2 7530   2.680   1.330   2.772
 2530TIP3    H1 7531   2.776   1.338   2.790
 2530TIP3    H2 7532   2.665   1.412   2.720
 2531TIP3   OH2 7533   1.858   1.832   3.501
 2531TIP3    H1 7534   1.891   1.796   3.417
 2531TIP3    H2 7535   1.883   1.763   3.565
 2532TIP3   OH2 7536   2.303   1.955   2.644
 2532TIP3    H1 7537   2.258   2.043   2.648
 2532TIP3    H2 7538   2.248   1.904   2.707
 2533TIP3   OH2 7539   1.734   1.747   4.111
 2533TIP3    H1 7540   1.752   1.734   4.207
 2533TIP3    H2 7541   1.662   1.683   4.096
 2534TIP3   OH2 7542   2.458   1.862   4.131
 2534TIP3    H1 7543   2.396   1.802   4.085
 2534TIP3    H2 7544   2.544   1.828   4.099
 2535TIP3   OH2 7545   2.723   2.382   3.712
 2535TIP3    H1 7546   2.627   2.382   3.724
 2535TIP3    H2 7547   2.751   2.431   3.792
 2536TIP3   OH2 7548   3.129   1.457   2.627
 2536TIP3    H1 7549   3.067   1.412   2.564
 2536TIP3    H2 7550   3.128   1.545   2.584
 2537TIP3   OH2 7551   3.348   2.309   3.710
 2537TIP3    H1 7552   3.250   2.308   3.702
 2537TIP3    H2 7553   3.372   2.282   3.619
 2538TIP3   OH2 7554   2.824   2.273   2.530
 2538TIP3    H1 7555   2.812   2.194   2.584
 2538TIP3    H2 7556   2.845   2.235   2.442
 2539TIP3   OH2 7557   2.830   1.904   3.380
 2539TIP3    H1 7558   2.736   1.881   3.390
 2539TIP3    H2 7559   2.862   1.827   3.329
 2540TIP3   OH2 7560   1.951   2.129   3.114
 2540TIP3    H1 7561   1.945   2.215   3.068
 2540TIP3    H2 7562   1.859   2.116   3.140
 2541TIP3   OH2 7563   1.526   1.460   2.855
 2541TIP3    H1 7564   1.570   1.547   2.868
 2541TIP3    H2 7565   1.440   1.473   2.897
 2542TIP3   OH2 7566   2.096   1.899   3.067
 2542TIP3    H1 7567   2.056   1.987   3.085
 2542TIP3    H2 7568   2.060   1.847   3.141
 2543TIP3   OH2 7569   2.221   2.475   3.594
 2543TIP3    H1 7570   2.262   2.551   3.548
 2543TIP3    H2 7571   2.297   2.442   3.646
 2544TIP3   OH2 7572   1.875   2.370   2.977
 2544TIP3    H1 7573   1.789   2.379   3.022
 2544TIP3    H2 7574   1.906   2.463   2.979
 2545TIP3   OH2 7575   2.616   2.105   3.539
 2545TIP3    H1 7576   2.600   2.120   3.635
 2545TIP3    H2 7577   2.699   2.056   3.543
 2546TIP3   OH2 7578   2.585   1.995   2.437
 2546TIP3    H1 7579   2.636   1.974   2.518
 2546TIP3    H2 7580   2.494   1.979   2.466
 2547TIP3   OH2 7581   2.861   2.641   3.598
 2547TIP3    H1 7582   2.781   2.585   3.594
 2547TIP3    H2 7583   2.843   2.709   3.529
 2548TIP3   OH2 7584   2.924   2.477   2.255
 2548TIP3    H1 7585   2.963   2.547   2.201
 2548TIP3    H2 7586   2.844   2.525   2.287
 2549TIP3   OH2 7587   1.945   1.253   4.121
 2549TIP3    H1 7588   1.848   1.258   4.135
 2549TIP3    H2 7589   1.972   1.193   4.193
 2550TIP3   OH2 7590   2.746   1.944   2.661
 2550TIP3    H1 7591   2.736   1.870   2.724
 2550TIP3    H2 7592   2.842   1.936   2.640
 2551TIP3   OH2 7593   1.663   2.337   3.751
 2551TIP3    H1 7594   1.714   2.264   3.789
 2551TIP3    H2 7595   1.684   2.409   3.813
 2552TIP3   OH2 7596   1.953   1.981   2.431
 2552TIP3    H1 7597   1.970   1.888   2.407
 2552TIP3    H2 7598   1.935   1.974   2.527
 2553TIP3   OH2 7599   1.903   1.988   2.702
 2553TIP3    H1 7600   1.961   1.964   2.775
 2553TIP3    H2 7601   1.902   2.086   2.709
 2554TIP3   OH2 7602   1.643   1.702   2.916
 2554TIP3    H1 7603   1.575   1.744   2.972
 2554TIP3    H2 7604   1.652   1.769   2.846
 2555TIP3   OH2 7605   2.783   1.314   3.797
 2555TIP3    H1 7606   2.856   1.360   3.841
 2555TIP3    H2 7607   2.765   1.239   3.856
 2556TIP3   OH2 7608   2.665   1.100   2.937
 2556TIP3    H1 7609   2.670   1.173   2.872
 2556TIP3    H2 7610   2.707   1.146   3.012
 2557TIP3   OH2 7611   2.166   2.189   2.660
 2557TIP3    H1 7612   2.076   2.212   2.690
 2557TIP3    H2 7613   2.181   2.261   2.596
 2558TIP3   OH2 7614   2.358   1.249   3.066
 2558TIP3    H1 7615   2.420   1.324   3.057
 2558TIP3    H2 7616   2.354   1.240   3.164
 2559TIP3   OH2 7617   2.621   1.571   3.875
 2559TIP3    H1 7618   2.636   1.628   3.953
 2559TIP3    H2 7619   2.675   1.493   3.896
 2560TIP3   OH2 7620   2.498   0.983   3.175
 2560TIP3    H1 7621   2.487   1.058   3.237
 2560TIP3    H2 7622   2.550   1.025   3.104
 2561TIP3   OH2 7623   1.906   2.259   2.722
 2561TIP3    H1 7624   1.876   2.328   2.658
 2561TIP3    H2 7625   1.889   2.303   2.808
 2562TIP3   OH2 7626   2.024   0.980   2.952
 2562TIP3    H1 7627   2.012   1.065   2.999
 2562TIP3    H2 7628   2.120   0.966   2.966
 2563TIP3   OH2 7629   3.259   1.465   3.861
 2563TIP3    H1 7630   3.161   1.463   3.861
 2563TIP3    H2 7631   3.278   1.440   3.769
 2564TIP3   OH2 7632   2.912   1.664   3.245
 2564TIP3    H1 7633   2.837   1.604   3.261
 2564TIP3    H2 7634   2.985   1.619   3.293
 2565TIP3   OH2 7635   1.626   1.893   2.710
 2565TIP3    H1 7636   1.679   1.973   2.724
 2565TIP3    H2 7637   1.687   1.844   2.650
 2566TIP3   OH2 7638   1.595   1.198   2.858
 2566TIP3    H1 7639   1.576   1.294   2.855
 2566TIP3    H2 7640   1.505   1.163   2.857
 2567TIP3   OH2 7641   2.872   2.596   3.184
 2567TIP3    H1 7642   2.836   2.657   3.115
 2567TIP3    H2 7643   2.967   2.620   3.174
 2568TIP3   OH2 7644   1.960   0.887   3.722
 2568TIP3    H1 7645   1.926   0.855   3.636
 2568TIP3    H2 7646   1.946   0.809   3.780
 2569TIP3   OH2 7647   1.495   2.102   3.103
 2569TIP3    H1 7648   1.425   2.134   3.161
 2569TIP3    H2 7649   1.469   2.143   3.018
 2570TIP3   OH2 7650   1.650   2.645   4.174
 2570TIP3    H1 7651   1.736   2.646   4.222
 2570TIP3    H2 7652   1.630   2.550   4.174
 2571TIP3   OH2 7653   2.133   2.612   4.220
 2571TIP3    H1 7654   2.228   2.599   4.227
 2571TIP3    H2 7655   2.110   2.554   4.145
 2572TIP3   OH2 7656   2.115   2.188   2.349
 2572TIP3    H1 7657   2.057   2.116   2.383
 2572TIP3    H2 7658   2.190   2.135   2.316
 2573TIP3   OH2 7659   2.778   2.512   3.947
 2573TIP3    H1 7660   2.766   2.448   4.020
 2573TIP3    H2 7661   2.851   2.568   3.980
 2574TIP3   OH2 7662   2.550   2.228   2.256
 2574TIP3    H1 7663   2.606   2.173   2.313
 2574TIP3    H2 7664   2.602   2.233   2.174
 2575TIP3   OH2 7665   1.783   2.052   4.374
 2575TIP3    H1 7666   1.797   1.956   4.380
 2575TIP3    H2 7667   1.695   2.056   4.331
 2576TIP3   OH2 7668   1.773   1.708   2.575
 2576TIP3    H1 7669   1.824   1.673   2.650
 2576TIP3    H2 7670   1.842   1.711   2.506
 2577TIP3   OH2 7671   2.391   2.138   4.147
 2577TIP3    H1 7672   2.347   2.154   4.062
 2577TIP3    H2 7673   2.420   2.044   4.140
 2578TIP3   OH2 7674   2.266   1.908   2.373
 2578TIP3    H1 7675   2.270   1.916   2.471
 2578TIP3    H2 7676   2.261   1.811   2.362
 2579TIP3   OH2 7677   2.881   2.141   3.751
 2579TIP3    H1 7678   2.957   2.190   3.712
 2579TIP3    H2 7679   2.811   2.208   3.744
 2580TIP3   OH2 7680   1.902   1.786   4.355
 2580TIP3    H1 7681   1.975   1.725   4.341
 2580TIP3    H2 7682   1.925   1.821   4.444
 2581TIP3   OH2 7683   1.969   1.607   2.793
 2581TIP3    H1 7684   1.936   1.575   2.879
 2581TIP3    H2 7685   1.999   1.524   2.750
 2582TIP3   OH2 7686   2.239   1.673   4.021
 2582TIP3    H1 7687   2.158   1.729   4.023
 2582TIP3    H2 7688   2.284   1.705   3.940
 2583TIP3   OH2 7689   2.060   1.398   2.630
 2583TIP3    H1 7690   2.036   1.407   2.536
 2583TIP3    H2 7691   2.156   1.394   2.627
 2584TIP3   OH2 7692   2.750   2.071   4.152
 2584TIP3    H1 7693   2.836   2.058   4.110
 2584TIP3    H2 7694   2.751   2.007   4.225
 2585TIP3   OH2 7695   2.886   1.730   2.295
 2585TIP3    H1 7696   2.871   1.686   2.210
 2585TIP3    H2 7697   2.856   1.821   2.271
 2586TIP3   OH2 7698   2.366   1.461   4.142
 2586TIP3    H1 7699   2.357   1.380   4.088
 2586TIP3    H2 7700   2.318   1.527   4.088
 2587TIP3   OH2 7701   2.363   1.245   3.949
 2587TIP3    H1 7702   2.386   1.288   3.865
 2587TIP3    H2 7703   2.268   1.222   3.934
 2588TIP3   OH2 7704   2.392   1.782   3.822
 2588TIP3    H1 7705   2.473   1.794   3.772
 2588TIP3    H2 7706   2.333   1.848   3.781
 2589TIP3   OH2 7707   2.971   1.750   4.203
 2589TIP3    H1 7708   3.031   1.675   4.218
 2589TIP3    H2 7709   3.033   1.819   4.174
 2590TIP3   OH2 7710   3.014   1.999   3.938
 2590TIP3    H1 7711   2.954   2.052   3.880
 2590TIP3    H2 7712   3.100   2.023   3.898
 2591TIP3   OH2 7713   2.243   1.572   4.373
 2591TIP3    H1 7714   2.169   1.509   4.386
 2591TIP3    H2 7715   2.272   1.548   4.284
 2592TIP3   OH2 7716   2.493   1.011   4.016
 2592TIP3    H1 7717   2.440   1.091   3.995
 2592TIP3    H2 7718   2.424   0.941   4.006
 2593TIP3   OH2 7719   2.622   1.511   4.238
 2593TIP3    H1 7720   2.601   1.512   4.333
 2593TIP3    H2 7721   2.533   1.490   4.201
 2594TIP3   OH2 7722   2.855   1.453   4.088
 2594TIP3    H1 7723   2.780   1.468   4.149
 2594TIP3    H2 7724   2.928   1.430   4.149
 2595TIP3   OH2 7725   3.078   1.386   4.250
 2595TIP3    H1 7726   3.112   1.312   4.301
 2595TIP3    H2 7727   3.076   1.457   4.318
 2596TIP3   OH2 7728   2.078   1.355   4.417
 2596TIP3    H1 7729   2.081   1.261   4.389
 2596TIP3    H2 7730   2.110   1.350   4.508
 2597TIP3   OH2 7731   2.603   1.029   4.271
 2597TIP3    H1 7732   2.654   0.947   4.266
 2597TIP3    H2 7733   2.549   1.023   4.190
 2598TIP3   OH2 7734   2.638   1.225   4.472
 2598TIP3    H1 7735   2.631   1.155   4.402
 2598TIP3    H2 7736   2.570   1.287   4.438
 2599TIP3   OH2 7737   1.873   2.459   2.533
 2599TIP3    H1 7738   1.969   2.461   2.515
 2599TIP3    H2 7739   1.842   2.510   2.456
 2600TIP3   OH2 7740   1.361   1.861   2.761
 2600TIP3    H1 7741   1.457   1.862   2.739
 2600TIP3    H2 7742   1.328   1.776   2.727
 2601TIP3   OH2 7743   1.271   2.457   3.161
 2601TIP3    H1 7744   1.202   2.397   3.128
 2601TIP3    H2 7745   1.313   2.400   3.230
 2602TIP3   OH2 7746   1.407   2.310   3.350
 2602TIP3    H1 7747   1.392   2.237   3.412
 2602TIP3    H2 7748   1.456   2.372   3.407
 2603TIP3   OH2 7749   3.123   2.705   3.155
 2603TIP3    H1 7750   3.153   2.745   3.239
 2603TIP3    H2 7751   3.179   2.752   3.091
 2604TIP3   OH2 7752   3.159   2.730   3.433
 2604TIP3    H1 7753   3.129   2.638   3.432
 2604TIP3    H2 7754   3.239   2.721   3.487
 2605TIP3   OH2 7755   3.208   2.405   4.005
 2605TIP3    H1 7756   3.134   2.416   4.069
 2605TIP3    H2 7757   3.250   2.493   4.008
 2606TIP3   OH2 7758   3.021   1.922   2.628
 2606TIP3    H1 7759   3.089   1.985   2.595
 2606TIP3    H2 7760   3.068   1.883   2.705
 2607TIP3   OH2 7761   3.150   1.790   2.830
 2607TIP3    H1 7762   3.088   1.746   2.892
 2607TIP3    H2 7763   3.220   1.824   2.889
 2608TIP3   OH2 7764   3.187   2.174   3.244
 2608TIP3    H1 7765   3.253   2.111   3.208
 2608TIP3    H2 7766   3.209   2.256   3.194
 2609TIP3   OH2 7767   3.034   2.478   3.462
 2609TIP3    H1 7768   2.978   2.532   3.522
 2609TIP3    H2 7769   2.977   2.467   3.386
 2610TIP3   OH2 7770   3.089   1.695   2.478
 2610TIP3    H1 7771   3.018   1.697   2.410
 2610TIP3    H2 7772   3.062   1.772   2.532
 2611TIP3   OH2 7773   2.959   1.370   2.434
 2611TIP3    H1 7774   2.921   1.409   2.355
 2611TIP3    H2 7775   2.930   1.276   2.426
 2612TIP3   OH2 7776   2.964   1.643   2.978
 2612TIP3    H1 7777   2.977   1.547   2.973
 2612TIP3    H2 7778   2.951   1.657   3.075
 2613TIP3   OH2 7779   1.593   1.716   3.723
 2613TIP3    H1 7780   1.591   1.687   3.630
 2613TIP3    H2 7781   1.691   1.717   3.739
 2614TIP3   OH2 7782   3.255   2.068   3.831
 2614TIP3    H1 7783   3.329   2.003   3.823
 2614TIP3    H2 7784   3.285   2.141   3.774
 2615TIP3   OH2 7785   3.438   1.873   3.851
 2615TIP3    H1 7786   3.367   1.822   3.894
 2615TIP3    H2 7787   3.514   1.812   3.864
 2616TIP3   OH2 7788   2.903   1.103   2.426
 2616TIP3    H1 7789   2.989   1.077   2.468
 2616TIP3    H2 7790   2.846   1.029   2.447
 2617TIP3   OH2 7791   2.951   1.353   2.868
 2617TIP3    H1 7792   2.997   1.267   2.885
 2617TIP3    H2 7793   3.012   1.391   2.802
 2618TIP3   OH2 7794   3.124   1.536   3.366
 2618TIP3    H1 7795   3.211   1.561   3.327
 2618TIP3    H2 7796   3.138   1.572   3.456
 2619TIP3   OH2 7797   3.191   1.676   3.601
 2619TIP3    H1 7798   3.113   1.712   3.647
 2619TIP3    H2 7799   3.225   1.755   3.554
 2620TIP3   OH2 7800   1.808   1.400   4.400
 2620TIP3    H1 7801   1.905   1.392   4.397
 2620TIP3    H2 7802   1.784   1.317   4.446
 2621TIP3   OH2 7803   3.632   1.256   4.154
 2621TIP3    H1 7804   3.699   1.198   4.113
 2621TIP3    H2 7805   3.610   1.317   4.081
 2622TIP3   OH2 7806   3.068   1.109   2.911
 2622TIP3    H1 7807   3.120   1.095   2.993
 2622TIP3    H2 7808   3.011   1.030   2.911
 2623TIP3   OH2 7809   1.778   1.095   3.733
 2623TIP3    H1 7810   1.838   1.019   3.740
 2623TIP3    H2 7811   1.840   1.169   3.725
 2624TIP3   OH2 7812   1.576   1.370   3.804
 2624TIP3    H1 7813   1.622   1.360   3.718
 2624TIP3    H2 7814   1.605   1.457   3.832
 2625TIP3   OH2 7815   3.517   1.410   3.962
 2625TIP3    H1 7816   3.431   1.451   3.985
 2625TIP3    H2 7817   3.486   1.339   3.904
 2626TIP3   OH2 7818   3.152   1.046   2.538
 2626TIP3    H1 7819   3.195   0.972   2.490
 2626TIP3    H2 7820   3.222   1.115   2.535
 2627TIP3   OH2 7821   1.585   0.918   3.341
 2627TIP3    H1 7822   1.526   0.840   3.328
 2627TIP3    H2 7823   1.590   0.952   3.249
 2628TIP3   OH2 7824   2.707   2.561   2.822
 2628TIP3    H1 7825   2.756   2.545   2.739
 2628TIP3    H2 7826   2.758   2.633   2.861
 2629TIP3   OH2 7827   1.778   0.951   4.117
 2629TIP3    H1 7828   1.728   0.948   4.200
 2629TIP3    H2 7829   1.711   0.991   4.057
 2630TIP3   OH2 7830   1.819   2.376   4.194
 2630TIP3    H1 7831   1.726   2.350   4.178
 2630TIP3    H2 7832   1.826   2.364   4.289
 2631TIP3   OH2 7833   1.994   2.408   3.739
 2631TIP3    H1 7834   1.945   2.484   3.703
 2631TIP3    H2 7835   2.081   2.425   3.696
 2632TIP3   OH2 7836   2.443   2.657   3.877
 2632TIP3    H1 7837   2.481   2.659   3.967
 2632TIP3    H2 7838   2.510   2.709   3.827
 2633TIP3   OH2 7839   2.627   2.803   3.734
 2633TIP3    H1 7840   2.707   2.757   3.706
 2633TIP3    H2 7841   2.667   2.867   3.798
 2634TIP3   OH2 7842   3.412   1.171   3.843
 2634TIP3    H1 7843   3.325   1.171   3.800
 2634TIP3    H2 7844   3.442   1.078   3.829
 2635TIP3   OH2 7845   1.672   2.668   3.766
 2635TIP3    H1 7846   1.584   2.703   3.742
 2635TIP3    H2 7847   1.683   2.708   3.853
 2636TIP3   OH2 7848   1.908   2.645   3.621
 2636TIP3    H1 7849   1.822   2.659   3.668
 2636TIP3    H2 7850   1.888   2.682   3.533
 2637TIP3   OH2 7851   2.338   2.681   3.409
 2637TIP3    H1 7852   2.257   2.703   3.359
 2637TIP3    H2 7853   2.350   2.764   3.460
 2638TIP3   OH2 7854   2.607   2.607   3.422
 2638TIP3    H1 7855   2.513   2.630   3.435
 2638TIP3    H2 7856   2.650   2.695   3.425
 2639TIP3   OH2 7857   2.808   2.809   3.388
 2639TIP3    H1 7858   2.795   2.897   3.347
 2639TIP3    H2 7859   2.836   2.756   3.311
 2640TIP3   OH2 7860   1.585   2.464   3.509
 2640TIP3    H1 7861   1.609   2.440   3.601
 2640TIP3    H2 7862   1.656   2.418   3.460
 2641TIP3   OH2 7863   1.777   2.333   3.364
 2641TIP3    H1 7864   1.792   2.251   3.416
 2641TIP3    H2 7865   1.867   2.371   3.361
 2642TIP3   OH2 7866   2.044   2.428   3.367
 2642TIP3    H1 7867   2.074   2.335   3.362
 2642TIP3    H2 7868   2.083   2.453   3.453
 2643TIP3   OH2 7869   2.620   1.086   3.457
 2643TIP3    H1 7870   2.574   1.019   3.511
 2643TIP3    H2 7871   2.690   1.033   3.414
 2644TIP3   OH2 7872   3.144   0.966   3.364
 2644TIP3    H1 7873   3.180   1.018   3.289
 2644TIP3    H2 7874   3.048   0.983   3.356
 2645TIP3   OH2 7875   3.236   1.067   3.126
 2645TIP3    H1 7876   3.309   1.015   3.086
 2645TIP3    H2 7877   3.271   1.158   3.112
 2646TIP3   OH2 7878   1.872   0.802   3.473
 2646TIP3    H1 7879   1.778   0.773   3.474
 2646TIP3    H2 7880   1.917   0.715   3.468
 2647TIP3   OH2 7881   2.315   0.824   3.350
 2647TIP3    H1 7882   2.374   0.880   3.299
 2647TIP3    H2 7883   2.317   0.865   3.437
 2648TIP3   OH2 7884   2.861   0.972   3.335
 2648TIP3    H1 7885   2.859   0.930   3.248
 2648TIP3    H2 7886   2.847   0.895   3.394
 2649TIP3   OH2 7887   2.886   0.895   2.899
 2649TIP3    H1 7888   2.798   0.934   2.913
 2649TIP3    H2 7889   2.875   0.809   2.946
 2650TIP3   OH2 7890   1.375   2.232   2.900
 2650TIP3    H1 7891   1.289   2.199   2.868
 2650TIP3    H2 7892   1.360   2.328   2.891
 2651TIP3   OH2 7893   1.792   0.826   2.944
 2651TIP3    H1 7894   1.814   0.760   2.877
 2651TIP3    H2 7895   1.876   0.874   2.956
 2652TIP3   OH2 7896   2.290   0.999   2.983
 2652TIP3    H1 7897   2.343   0.945   3.044
 2652TIP3    H2 7898   2.317   1.088   3.011
 2653TIP3   OH2 7899   2.144   2.426   2.485
 2653TIP3    H1 7900   2.232   2.448   2.449
 2653TIP3    H2 7901   2.121   2.352   2.424
 2654TIP3   OH2 7902   2.853   2.540   2.581
 2654TIP3    H1 7903   2.847   2.444   2.564
 2654TIP3    H2 7904   2.815   2.576   2.499
 2655TIP3   OH2 7905   2.071   1.081   4.364
 2655TIP3    H1 7906   2.032   1.009   4.417
 2655TIP3    H2 7907   2.165   1.073   4.390
 2656TIP3   OH2 7908   2.324   1.058   4.462
 2656TIP3    H1 7909   2.411   1.022   4.439
 2656TIP3    H2 7910   2.306   1.013   4.547
 2657TIP3   OH2 7911   1.444   2.264   2.539
 2657TIP3    H1 7912   1.439   2.291   2.632
 2657TIP3    H2 7913   1.534   2.225   2.533
 2658TIP3   OH2 7914   3.092   2.687   3.761
 2658TIP3    H1 7915   3.009   2.658   3.718
 2658TIP3    H2 7916   3.075   2.784   3.766
 2659TIP3   OH2 7917   4.354   2.056   2.532
 2659TIP3    H1 7918   4.328   2.149   2.514
 2659TIP3    H2 7919   4.276   2.010   2.497
 2660TIP3   OH2 7920   4.353   2.058   2.908
 2660TIP3    H1 7921   4.383   2.031   2.996
 2660TIP3    H2 7922   4.312   1.977   2.874
 2661TIP3   OH2 7923   3.650   1.956   3.279
 2661TIP3    H1 7924   3.684   1.888   3.340
 2661TIP3    H2 7925   3.729   2.012   3.269
 2662TIP3   OH2 7926   4.595   2.360   2.592
 2662TIP3    H1 7927   4.584   2.292   2.660
 2662TIP3    H2 7928   4.625   2.436   2.644
 2663TIP3   OH2 7929   3.621   2.360   3.001
 2663TIP3    H1 7930   3.617   2.262   3.005
 2663TIP3    H2 7931   3.717   2.373   2.996
 2664TIP3   OH2 7932   3.330   1.564   2.788
 2664TIP3    H1 7933   3.286   1.650   2.801
 2664TIP3    H2 7934   3.258   1.513   2.747
 2665TIP3   OH2 7935   3.388   1.852   2.955
 2665TIP3    H1 7936   3.438   1.776   2.992
 2665TIP3    H2 7937   3.452   1.889   2.893
 2666TIP3   OH2 7938   4.242   2.821   2.607
 2666TIP3    H1 7939   4.290   2.750   2.560
 2666TIP3    H2 7940   4.241   2.789   2.698
 2667TIP3   OH2 7941   4.153   2.283   2.959
 2667TIP3    H1 7942   4.193   2.208   2.912
 2667TIP3    H2 7943   4.236   2.329   2.984
 2668TIP3   OH2 7944   5.163   1.603   2.957
 2668TIP3    H1 7945   5.192   1.686   3.001
 2668TIP3    H2 7946   5.185   1.623   2.865
 2669TIP3   OH2 7947   4.561   1.784   2.994
 2669TIP3    H1 7948   4.608   1.701   3.013
 2669TIP3    H2 7949   4.535   1.770   2.901
 2670TIP3   OH2 7950   3.901   1.444   2.959
 2670TIP3    H1 7951   3.882   1.518   2.897
 2670TIP3    H2 7952   3.853   1.372   2.912
 2671TIP3   OH2 7953   4.596   1.537   2.581
 2671TIP3    H1 7954   4.669   1.520   2.645
 2671TIP3    H2 7955   4.647   1.571   2.506
 2672TIP3   OH2 7956   3.535   1.647   3.063
 2672TIP3    H1 7957   3.618   1.630   3.111
 2672TIP3    H2 7958   3.550   1.592   2.984
 2673TIP3   OH2 7959   3.978   1.844   2.856
 2673TIP3    H1 7960   4.072   1.820   2.868
 2673TIP3    H2 7961   3.939   1.760   2.823
 2674TIP3   OH2 7962   5.236   1.809   3.130
 2674TIP3    H1 7963   5.155   1.860   3.109
 2674TIP3    H2 7964   5.257   1.845   3.218
 2675TIP3   OH2 7965   3.899   1.428   3.391
 2675TIP3    H1 7966   3.839   1.467   3.324
 2675TIP3    H2 7967   3.848   1.447   3.472
 2676TIP3   OH2 7968   4.247   2.278   2.401
 2676TIP3    H1 7969   4.205   2.261   2.316
 2676TIP3    H2 7970   4.206   2.363   2.425
 2677TIP3   OH2 7971   4.005   2.203   3.188
 2677TIP3    H1 7972   3.943   2.269   3.227
 2677TIP3    H2 7973   4.048   2.254   3.117
 2678TIP3   OH2 7974   4.809   1.536   2.751
 2678TIP3    H1 7975   4.800   1.491   2.836
 2678TIP3    H2 7976   4.862   1.614   2.775
 2679TIP3   OH2 7977   3.768   1.543   3.177
 2679TIP3    H1 7978   3.830   1.616   3.201
 2679TIP3    H2 7979   3.817   1.504   3.101
 2680TIP3   OH2 7980   3.831   2.396   3.282
 2680TIP3    H1 7981   3.808   2.483   3.245
 2680TIP3    H2 7982   3.752   2.382   3.340
 2681TIP3   OH2 7983   3.225   2.087   2.521
 2681TIP3    H1 7984   3.190   2.115   2.435
 2681TIP3    H2 7985   3.258   2.171   2.559
 2682TIP3   OH2 7986   4.667   2.601   2.759
 2682TIP3    H1 7987   4.578   2.594   2.799
 2682TIP3    H2 7988   4.660   2.688   2.715
 2683TIP3   OH2 7989   4.958   1.499   3.123
 2683TIP3    H1 7990   4.872   1.534   3.094
 2683TIP3    H2 7991   5.019   1.534   3.054
 2684TIP3   OH2 7992   4.259   1.148   3.107
 2684TIP3    H1 7993   4.239   1.053   3.117
 2684TIP3    H2 7994   4.181   1.188   3.151
 2685TIP3   OH2 7995   4.371   2.649   2.435
 2685TIP3    H1 7996   4.421   2.566   2.413
 2685TIP3    H2 7997   4.433   2.714   2.395
 2686TIP3   OH2 7998   4.513   2.434   2.340
 2686TIP3    H1 7999   4.476   2.355   2.299
 2686TIP3    H2 8000   4.548   2.398   2.425
 2687TIP3   OH2 8001   4.894   2.516   3.105
 2687TIP3    H1 8002   4.883   2.439   3.044
 2687TIP3    H2 8003   4.876   2.592   3.045
 2688TIP3   OH2 8004   4.185   1.909   2.360
 2688TIP3    H1 8005   4.106   1.963   2.337
 2688TIP3    H2 8006   4.233   1.907   2.275
 2689TIP3   OH2 8007   4.144   1.692   2.080
 2689TIP3    H1 8008   4.211   1.745   2.126
 2689TIP3    H2 8009   4.203   1.630   2.032
 2690TIP3   OH2 8010   5.088   2.150   2.947
 2690TIP3    H1 8011   5.006   2.204   2.953
 2690TIP3    H2 8012   5.119   2.177   2.858
 2691TIP3   OH2 8013   4.532   1.991   2.333
 2691TIP3    H1 8014   4.478   2.016   2.412
 2691TIP3    H2 8015   4.617   1.967   2.376
 2692TIP3   OH2 8016   4.768   2.032   3.244
 2692TIP3    H1 8017   4.767   2.115   3.296
 2692TIP3    H2 8018   4.682   2.040   3.197
 2693TIP3   OH2 8019   3.764   1.991   2.752
 2693TIP3    H1 8020   3.724   1.934   2.683
 2693TIP3    H2 8021   3.842   1.939   2.779
 2694TIP3   OH2 8022   3.892   2.397   2.901
 2694TIP3    H1 8023   3.876   2.358   2.814
 2694TIP3    H2 8024   3.984   2.367   2.919
 2695TIP3   OH2 8025   3.899   1.963   3.103
 2695TIP3    H1 8026   3.935   1.941   3.014
 2695TIP3    H2 8027   3.944   2.047   3.125
 2696TIP3   OH2 8028   4.426   2.598   2.880
 2696TIP3    H1 8029   4.413   2.680   2.931
 2696TIP3    H2 8030   4.411   2.528   2.946
 2697TIP3   OH2 8031   4.040   2.517   3.428
 2697TIP3    H1 8032   3.981   2.580   3.475
 2697TIP3    H2 8033   3.973   2.465   3.379
 2698TIP3   OH2 8034   4.372   1.851   2.158
 2698TIP3    H1 8035   4.431   1.911   2.210
 2698TIP3    H2 8036   4.400   1.874   2.066
 2699TIP3   OH2 8037   3.794   2.075   3.529
 2699TIP3    H1 8038   3.799   2.162   3.573
 2699TIP3    H2 8039   3.698   2.058   3.537
 2700TIP3   OH2 8040   4.114   2.532   2.435
 2700TIP3    H1 8041   4.193   2.585   2.454
 2700TIP3    H2 8042   4.055   2.597   2.395
 2701TIP3   OH2 8043   3.834   2.684   3.512
 2701TIP3    H1 8044   3.797   2.687   3.423
 2701TIP3    H2 8045   3.756   2.664   3.568
 2702TIP3   OH2 8046   4.890   1.093   2.207
 2702TIP3    H1 8047   4.808   1.114   2.256
 2702TIP3    H2 8048   4.904   1.175   2.155
 2703TIP3   OH2 8049   3.630   1.833   2.556
 2703TIP3    H1 8050   3.567   1.879   2.497
 2703TIP3    H2 8051   3.589   1.746   2.564
 2704TIP3   OH2 8052   4.687   2.459   1.753
 2704TIP3    H1 8053   4.695   2.557   1.741
 2704TIP3    H2 8054   4.780   2.431   1.743
 2705TIP3   OH2 8055   3.410   2.215   3.465
 2705TIP3    H1 8056   3.358   2.187   3.388
 2705TIP3    H2 8057   3.453   2.131   3.494
 2706TIP3   OH2 8058   3.267   2.406   3.106
 2706TIP3    H1 8059   3.361   2.402   3.086
 2706TIP3    H2 8060   3.262   2.492   3.152
 2707TIP3   OH2 8061   5.133   2.860   3.150
 2707TIP3    H1 8062   5.129   2.764   3.164
 2707TIP3    H2 8063   5.049   2.887   3.195
 2708TIP3   OH2 8064   4.237   2.647   3.283
 2708TIP3    H1 8065   4.238   2.740   3.316
 2708TIP3    H2 8066   4.167   2.608   3.340
 2709TIP3   OH2 8067   3.996   2.775   2.237
 2709TIP3    H1 8068   3.952   2.761   2.150
 2709TIP3    H2 8069   3.966   2.865   2.260
 2710TIP3   OH2 8070   3.434   2.625   2.620
 2710TIP3    H1 8071   3.486   2.617   2.703
 2710TIP3    H2 8072   3.370   2.554   2.632
 2711TIP3   OH2 8073   4.198   2.676   1.876
 2711TIP3    H1 8074   4.259   2.608   1.840
 2711TIP3    H2 8075   4.233   2.687   1.968
 2712TIP3   OH2 8076   4.248   2.724   2.147
 2712TIP3    H1 8077   4.160   2.734   2.190
 2712TIP3    H2 8078   4.300   2.687   2.220
 2713TIP3   OH2 8079   5.022   1.991   3.425
 2713TIP3    H1 8080   4.942   2.007   3.374
 2713TIP3    H2 8081   5.035   1.894   3.414
 2714TIP3   OH2 8082   3.617   2.397   3.450
 2714TIP3    H1 8083   3.667   2.387   3.533
 2714TIP3    H2 8084   3.542   2.336   3.463
 2715TIP3   OH2 8085   4.018   1.221   3.234
 2715TIP3    H1 8086   3.928   1.193   3.208
 2715TIP3    H2 8087   3.996   1.306   3.276
 2716TIP3   OH2 8088   4.551   1.335   3.427
 2716TIP3    H1 8089   4.619   1.316   3.494
 2716TIP3    H2 8090   4.467   1.322   3.475
 2717TIP3   OH2 8091   4.788   1.767   3.344
 2717TIP3    H1 8092   4.740   1.764   3.430
 2717TIP3    H2 8093   4.768   1.856   3.311
 2718TIP3   OH2 8094   4.449   1.899   1.904
 2718TIP3    H1 8095   4.416   1.873   1.816
 2718TIP3    H2 8096   4.529   1.950   1.879
 2719TIP3   OH2 8097   4.158   1.276   2.204
 2719TIP3    H1 8098   4.127   1.270   2.296
 2719TIP3    H2 8099   4.124   1.190   2.170
 2720TIP3   OH2 8100   3.946   1.739   3.251
 2720TIP3    H1 8101   3.899   1.765   3.334
 2720TIP3    H2 8102   3.932   1.820   3.197
 2721TIP3   OH2 8103   3.834   1.623   2.767
 2721TIP3    H1 8104   3.740   1.600   2.783
 2721TIP3    H2 8105   3.847   1.584   2.678
 2722TIP3   OH2 8106   4.322   1.709   2.492
 2722TIP3    H1 8107   4.270   1.782   2.451
 2722TIP3    H2 8108   4.378   1.680   2.417
 2723TIP3   OH2 8109   4.497   1.989   3.577
 2723TIP3    H1 8110   4.478   1.917   3.642
 2723TIP3    H2 8111   4.589   2.009   3.601
 2724TIP3   OH2 8112   4.479   1.740   2.735
 2724TIP3    H1 8113   4.422   1.773   2.662
 2724TIP3    H2 8114   4.512   1.659   2.691
 2725TIP3   OH2 8115   3.764   1.769   3.462
 2725TIP3    H1 8116   3.798   1.834   3.525
 2725TIP3    H2 8117   3.759   1.688   3.516
 2726TIP3   OH2 8118   3.814   1.243   2.171
 2726TIP3    H1 8119   3.810   1.243   2.268
 2726TIP3    H2 8120   3.737   1.299   2.148
 2727TIP3   OH2 8121   3.361   1.290   3.042
 2727TIP3    H1 8122   3.436   1.323   3.095
 2727TIP3    H2 8123   3.402   1.260   2.960
 2728TIP3   OH2 8124   3.335   1.271   2.563
 2728TIP3    H1 8125   3.381   1.307   2.484
 2728TIP3    H2 8126   3.275   1.346   2.582
 2729TIP3   OH2 8127   4.487   1.986   3.157
 2729TIP3    H1 8128   4.521   1.913   3.099
 2729TIP3    H2 8129   4.460   1.934   3.236
 2730TIP3   OH2 8130   4.158   1.444   2.829
 2730TIP3    H1 8131   4.076   1.446   2.881
 2730TIP3    H2 8132   4.226   1.453   2.897
 2731TIP3   OH2 8133   3.593   1.502   2.838
 2731TIP3    H1 8134   3.499   1.509   2.810
 2731TIP3    H2 8135   3.618   1.411   2.813
 2732TIP3   OH2 8136   3.864   1.500   2.523
 2732TIP3    H1 8137   3.959   1.514   2.504
 2732TIP3    H2 8138   3.820   1.523   2.439
 2733TIP3   OH2 8139   4.652   1.522   3.028
 2733TIP3    H1 8140   4.618   1.536   3.119
 2733TIP3    H2 8141   4.584   1.462   2.992
 2734TIP3   OH2 8142   3.703   1.531   2.302
 2734TIP3    H1 8143   3.632   1.489   2.251
 2734TIP3    H2 8144   3.756   1.570   2.229
 2735TIP3   OH2 8145   4.821   3.211   3.248
 2735TIP3    H1 8146   4.819   3.236   3.154
 2735TIP3    H2 8147   4.897   3.261   3.280
 2736TIP3   OH2 8148   3.780   2.320   3.671
 2736TIP3    H1 8149   3.860   2.351   3.717
 2736TIP3    H2 8150   3.716   2.325   3.745
 2737TIP3   OH2 8151   4.242   1.770   2.922
 2737TIP3    H1 8152   4.319   1.740   2.871
 2737TIP3    H2 8153   4.259   1.734   3.010
 2738TIP3   OH2 8154   3.767   1.266   2.800
 2738TIP3    H1 8155   3.736   1.184   2.845
 2738TIP3    H2 8156   3.819   1.230   2.727
 2739TIP3   OH2 8157   4.219   1.667   3.224
 2739TIP3    H1 8158   4.132   1.710   3.229
 2739TIP3    H2 8159   4.279   1.731   3.268
 2740TIP3   OH2 8160   3.956   2.063   2.310
 2740TIP3    H1 8161   3.883   1.999   2.299
 2740TIP3    H2 8162   3.938   2.097   2.401
 2741TIP3   OH2 8163   4.858   2.299   2.940
 2741TIP3    H1 8164   4.882   2.349   2.859
 2741TIP3    H2 8165   4.773   2.258   2.915
 2742TIP3   OH2 8166   4.415   1.372   2.179
 2742TIP3    H1 8167   4.318   1.360   2.177
 2742TIP3    H2 8168   4.426   1.468   2.194
 2743TIP3   OH2 8169   4.351   2.378   3.309
 2743TIP3    H1 8170   4.382   2.363   3.399
 2743TIP3    H2 8171   4.318   2.470   3.313
 2744TIP3   OH2 8172   4.485   1.624   2.276
 2744TIP3    H1 8173   4.581   1.629   2.290
 2744TIP3    H2 8174   4.467   1.703   2.221
 2745TIP3   OH2 8175   3.643   2.077   2.987
 2745TIP3    H1 8176   3.683   2.055   2.901
 2745TIP3    H2 8177   3.694   2.021   3.047
 2746TIP3   OH2 8178   4.101   2.212   2.129
 2746TIP3    H1 8179   4.054   2.299   2.134
 2746TIP3    H2 8180   4.047   2.158   2.191
 2747TIP3   OH2 8181   3.528   2.008   3.601
 2747TIP3    H1 8182   3.555   1.997   3.694
 2747TIP3    H2 8183   3.462   1.937   3.591
 2748TIP3   OH2 8184   4.255   2.117   3.619
 2748TIP3    H1 8185   4.199   2.060   3.564
 2748TIP3    H2 8186   4.344   2.087   3.592
 2749TIP3   OH2 8187   4.515   2.634   3.204
 2749TIP3    H1 8188   4.419   2.640   3.216
 2749TIP3    H2 8189   4.546   2.688   3.280
 2750TIP3   OH2 8190   4.927   1.712   2.113
 2750TIP3    H1 8191   4.865   1.668   2.050
 2750TIP3    H2 8192   4.925   1.801   2.072
 2751TIP3   OH2 8193   5.144   2.567   3.194
 2751TIP3    H1 8194   5.046   2.565   3.185
 2751TIP3    H2 8195   5.170   2.538   3.103
 2752TIP3   OH2 8196   4.624   2.531   2.018
 2752TIP3    H1 8197   4.602   2.462   2.081
 2752TIP3    H2 8198   4.638   2.483   1.934
 2753TIP3   OH2 8199   4.623   2.161   2.861
 2753TIP3    H1 8200   4.528   2.137   2.872
 2753TIP3    H2 8201   4.656   2.082   2.814
 2754TIP3   OH2 8202   3.749   2.387   2.609
 2754TIP3    H1 8203   3.754   2.469   2.557
 2754TIP3    H2 8204   3.654   2.376   2.619
 2755TIP3   OH2 8205   3.312   1.693   2.311
 2755TIP3    H1 8206   3.359   1.776   2.331
 2755TIP3    H2 8207   3.237   1.699   2.373
 2756TIP3   OH2 8208   3.888   2.153   2.555
 2756TIP3    H1 8209   3.855   2.243   2.572
 2756TIP3    H2 8210   3.853   2.105   2.631
 2757TIP3   OH2 8211   4.017   2.732   3.080
 2757TIP3    H1 8212   4.058   2.806   3.031
 2757TIP3    H2 8213   4.094   2.699   3.130
 2758TIP3   OH2 8214   3.670   2.627   2.463
 2758TIP3    H1 8215   3.585   2.638   2.508
 2758TIP3    H2 8216   3.704   2.720   2.465
 2759TIP3   OH2 8217   4.406   2.364   3.039
 2759TIP3    H1 8218   4.398   2.363   3.137
 2759TIP3    H2 8219   4.490   2.317   3.027
 2760TIP3   OH2 8220   4.381   2.255   1.921
 2760TIP3    H1 8221   4.433   2.232   2.000
 2760TIP3    H2 8222   4.292   2.233   1.952
 2761TIP3   OH2 8223   4.656   2.899   3.087
 2761TIP3    H1 8224   4.574   2.846   3.078
 2761TIP3    H2 8225   4.642   2.967   3.016
 2762TIP3   OH2 8226   4.721   2.734   1.742
 2762TIP3    H1 8227   4.759   2.807   1.689
 2762TIP3    H2 8228   4.641   2.780   1.774
 2763TIP3   OH2 8229   3.743   1.509   3.609
 2763TIP3    H1 8230   3.647   1.516   3.626
 2763TIP3    H2 8231   3.772   1.452   3.682
 2764TIP3   OH2 8232   4.541   2.193   2.139
 2764TIP3    H1 8233   4.531   2.127   2.210
 2764TIP3    H2 8234   4.638   2.190   2.126
 2765TIP3   OH2 8235   3.454   2.593   3.242
 2765TIP3    H1 8236   3.515   2.524   3.275
 2765TIP3    H2 8237   3.482   2.669   3.295
 2766TIP3   OH2 8238   3.747   2.240   1.921
 2766TIP3    H1 8239   3.764   2.149   1.892
 2766TIP3    H2 8240   3.729   2.227   2.016
 2767TIP3   OH2 8241   3.693   2.244   2.195
 2767TIP3    H1 8242   3.768   2.220   2.252
 2767TIP3    H2 8243   3.696   2.342   2.199
 2768TIP3   OH2 8244   3.428   1.938   2.396
 2768TIP3    H1 8245   3.364   1.985   2.453
 2768TIP3    H2 8246   3.445   2.007   2.329
 2769TIP3   OH2 8247   4.577   1.573   3.286
 2769TIP3    H1 8248   4.654   1.617   3.326
 2769TIP3    H2 8249   4.565   1.495   3.343
 2770TIP3   OH2 8250   4.454   1.328   2.455
 2770TIP3    H1 8251   4.441   1.347   2.360
 2770TIP3    H2 8252   4.493   1.411   2.488
 2771TIP3   OH2 8253   3.957   2.441   2.141
 2771TIP3    H1 8254   3.872   2.470   2.178
 2771TIP3    H2 8255   3.977   2.514   2.081
 2772TIP3   OH2 8256   4.147   1.505   2.555
 2772TIP3    H1 8257   4.211   1.576   2.535
 2772TIP3    H2 8258   4.153   1.499   2.652
 2773TIP3   OH2 8259   4.416   1.825   3.365
 2773TIP3    H1 8260   4.434   1.882   3.442
 2773TIP3    H2 8261   4.473   1.748   3.381
 2774TIP3   OH2 8262   4.292   1.235   2.659
 2774TIP3    H1 8263   4.283   1.313   2.717
 2774TIP3    H2 8264   4.352   1.271   2.589
 2775TIP3   OH2 8265   3.699   2.516   2.208
 2775TIP3    H1 8266   3.671   2.586   2.145
 2775TIP3    H2 8267   3.685   2.562   2.294
 2776TIP3   OH2 8268   3.802   1.232   2.448
 2776TIP3    H1 8269   3.802   1.323   2.483
 2776TIP3    H2 8270   3.897   1.211   2.456
 2777TIP3   OH2 8271   5.056   1.723   3.346
 2777TIP3    H1 8272   4.958   1.720   3.350
 2777TIP3    H2 8273   5.072   1.696   3.255
 2778TIP3   OH2 8274   4.708   1.919   2.732
 2778TIP3    H1 8275   4.633   1.859   2.744
 2778TIP3    H2 8276   4.781   1.873   2.779
 2779TIP3   OH2 8277   3.418   2.150   2.202
 2779TIP3    H1 8278   3.481   2.223   2.212
 2779TIP3    H2 8279   3.466   2.098   2.135
 2780TIP3   OH2 8280   3.362   1.424   2.339
 2780TIP3    H1 8281   3.366   1.521   2.332
 2780TIP3    H2 8282   3.285   1.402   2.287
 2781TIP3   OH2 8283   4.676   2.872   2.681
 2781TIP3    H1 8284   4.633   2.919   2.606
 2781TIP3    H2 8285   4.770   2.892   2.661
 2782TIP3   OH2 8286   3.752   1.144   3.210
 2782TIP3    H1 8287   3.721   1.112   3.123
 2782TIP3    H2 8288   3.740   1.066   3.267
 2783TIP3   OH2 8289   3.289   2.354   2.594
 2783TIP3    H1 8290   3.213   2.396   2.637
 2783TIP3    H2 8291   3.282   2.395   2.505
 2784TIP3   OH2 8292   3.447   2.902   3.661
 2784TIP3    H1 8293   3.533   2.905   3.709
 2784TIP3    H2 8294   3.430   2.806   3.662
 2785TIP3   OH2 8295   3.927   2.870   3.706
 2785TIP3    H1 8296   4.023   2.857   3.717
 2785TIP3    H2 8297   3.909   2.811   3.631
 2786TIP3   OH2 8298   3.911   2.445   1.834
 2786TIP3    H1 8299   3.855   2.373   1.871
 2786TIP3    H2 8300   3.986   2.392   1.801
 2787TIP3   OH2 8301   4.572   2.771   3.436
 2787TIP3    H1 8302   4.561   2.704   3.508
 2787TIP3    H2 8303   4.646   2.825   3.469
 2788TIP3   OH2 8304   4.347   2.485   1.744
 2788TIP3    H1 8305   4.395   2.425   1.803
 2788TIP3    H2 8306   4.404   2.487   1.664
 2789TIP3   OH2 8307   3.579   2.308   3.862
 2789TIP3    H1 8308   3.594   2.212   3.867
 2789TIP3    H2 8309   3.491   2.312   3.819
 2790TIP3   OH2 8310   3.554   1.961   2.054
 2790TIP3    H1 8311   3.611   1.930   2.126
 2790TIP3    H2 8312   3.620   1.967   1.982
 2791TIP3   OH2 8313   4.186   2.394   3.635
 2791TIP3    H1 8314   4.147   2.412   3.548
 2791TIP3    H2 8315   4.217   2.301   3.627
 2792TIP3   OH2 8316   4.061   2.159   1.861
 2792TIP3    H1 8317   4.066   2.172   1.957
 2792TIP3    H2 8318   4.062   2.061   1.855
 2793TIP3   OH2 8319   4.677   2.401   3.239
 2793TIP3    H1 8320   4.753   2.445   3.197
 2793TIP3    H2 8321   4.609   2.469   3.228
 2794TIP3   OH2 8322   3.696   2.036   3.843
 2794TIP3    H1 8323   3.778   1.989   3.822
 2794TIP3    H2 8324   3.720   2.076   3.930
 2795TIP3   OH2 8325   3.762   1.864   2.277
 2795TIP3    H1 8326   3.740   1.820   2.360
 2795TIP3    H2 8327   3.800   1.790   2.224
 2796TIP3   OH2 8328   4.029   1.923   3.500
 2796TIP3    H1 8329   3.956   1.988   3.506
 2796TIP3    H2 8330   4.082   1.960   3.426
 2797TIP3   OH2 8331   3.863   1.656   2.119
 2797TIP3    H1 8332   3.838   1.660   2.024
 2797TIP3    H2 8333   3.960   1.660   2.113
 2798TIP3   OH2 8334   4.546   2.328   3.638
 2798TIP3    H1 8335   4.630   2.313   3.595
 2798TIP3    H2 8336   4.549   2.263   3.712
 2799TIP3   OH2 8337   4.688   1.990   1.778
 2799TIP3    H1 8338   4.664   1.943   1.696
 2799TIP3    H2 8339   4.654   2.079   1.756
 2800TIP3   OH2 8340   4.154   1.716   3.632
 2800TIP3    H1 8341   4.156   1.636   3.574
 2800TIP3    H2 8342   4.112   1.782   3.573
 2801TIP3   OH2 8343   4.159   1.497   3.438
 2801TIP3    H1 8344   4.187   1.545   3.357
 2801TIP3    H2 8345   4.064   1.479   3.419
 2802TIP3   OH2 8346   4.186   2.036   3.310
 2802TIP3    H1 8347   4.270   2.049   3.265
 2802TIP3    H2 8348   4.130   2.105   3.268
 2803TIP3   OH2 8349   4.767   2.005   3.692
 2803TIP3    H1 8350   4.821   1.926   3.706
 2803TIP3    H2 8351   4.832   2.070   3.662
 2804TIP3   OH2 8352   4.809   2.256   3.425
 2804TIP3    H1 8353   4.750   2.310   3.368
 2804TIP3    H2 8354   4.897   2.279   3.386
 2805TIP3   OH2 8355   4.029   1.831   3.859
 2805TIP3    H1 8356   3.962   1.762   3.874
 2805TIP3    H2 8357   4.067   1.804   3.773
 2806TIP3   OH2 8358   4.289   1.262   3.503
 2806TIP3    H1 8359   4.246   1.348   3.482
 2806TIP3    H2 8360   4.214   1.201   3.492
 2807TIP3   OH2 8361   4.418   1.771   3.721
 2807TIP3    H1 8362   4.411   1.762   3.818
 2807TIP3    H2 8363   4.326   1.747   3.695
 2808TIP3   OH2 8364   4.653   1.714   3.574
 2808TIP3    H1 8365   4.580   1.723   3.638
 2808TIP3    H2 8366   4.729   1.689   3.631
 2809TIP3   OH2 8367   4.880   1.658   3.726
 2809TIP3    H1 8368   4.895   1.564   3.748
 2809TIP3    H2 8369   4.879   1.701   3.814
 2810TIP3   OH2 8370   3.870   1.611   3.913
 2810TIP3    H1 8371   3.883   1.521   3.878
 2810TIP3    H2 8372   3.906   1.602   4.003
 2811TIP3   OH2 8373   4.383   1.276   3.761
 2811TIP3    H1 8374   4.453   1.208   3.756
 2811TIP3    H2 8375   4.345   1.270   3.671
 2812TIP3   OH2 8376   4.449   1.491   3.923
 2812TIP3    H1 8377   4.427   1.421   3.858
 2812TIP3    H2 8378   4.372   1.551   3.916
 2813TIP3   OH2 8379   3.669   2.717   2.020
 2813TIP3    H1 8380   3.765   2.716   2.003
 2813TIP3    H2 8381   3.640   2.768   1.942
 2814TIP3   OH2 8382   3.151   2.100   2.242
 2814TIP3    H1 8383   3.245   2.125   2.225
 2814TIP3    H2 8384   3.147   2.012   2.199
 2815TIP3   OH2 8385   3.064   2.712   2.649
 2815TIP3    H1 8386   2.996   2.651   2.615
 2815TIP3    H2 8387   3.108   2.657   2.717
 2816TIP3   OH2 8388   3.201   2.568   2.837
 2816TIP3    H1 8389   3.196   2.493   2.898
 2816TIP3    H2 8390   3.254   2.631   2.890
 2817TIP3   OH2 8391   4.928   2.965   2.637
 2817TIP3    H1 8392   4.954   3.000   2.725
 2817TIP3    H2 8393   4.986   3.014   2.578
 2818TIP3   OH2 8394   4.956   2.987   2.919
 2818TIP3    H1 8395   4.916   2.897   2.915
 2818TIP3    H2 8396   5.033   2.968   2.975
 2819TIP3   OH2 8397   5.004   2.661   3.493
 2819TIP3    H1 8398   4.930   2.672   3.556
 2819TIP3    H2 8399   5.045   2.750   3.496
 2820TIP3   OH2 8400   4.819   2.177   2.114
 2820TIP3    H1 8401   4.888   2.241   2.085
 2820TIP3    H2 8402   4.863   2.138   2.192
 2821TIP3   OH2 8403   4.948   2.044   2.316
 2821TIP3    H1 8404   4.882   2.002   2.376
 2821TIP3    H2 8405   5.012   2.082   2.378
 2822TIP3   OH2 8406   5.000   2.434   2.749
 2822TIP3    H1 8407   5.053   2.371   2.696
 2822TIP3    H2 8408   4.993   2.511   2.688
 2823TIP3   OH2 8409   4.834   2.735   2.945
 2823TIP3    H1 8410   4.764   2.780   2.996
 2823TIP3    H2 8411   4.783   2.689   2.875
 2824TIP3   OH2 8412   4.888   1.952   1.964
 2824TIP3    H1 8413   4.816   1.953   1.896
 2824TIP3    H2 8414   4.859   2.027   2.019
 2825TIP3   OH2 8415   4.759   1.632   1.917
 2825TIP3    H1 8416   4.715   1.661   1.836
 2825TIP3    H2 8417   4.732   1.538   1.921
 2826TIP3   OH2 8418   4.762   1.900   2.464
 2826TIP3    H1 8419   4.771   1.804   2.457
 2826TIP3    H2 8420   4.749   1.913   2.561
 2827TIP3   OH2 8421   3.387   1.980   3.210
 2827TIP3    H1 8422   3.387   1.950   3.117
 2827TIP3    H2 8423   3.484   1.980   3.229
 2828TIP3   OH2 8424   5.051   2.324   3.319
 2828TIP3    H1 8425   5.125   2.260   3.310
 2828TIP3    H2 8426   5.079   2.396   3.259
 2829TIP3   OH2 8427   5.237   2.130   3.338
 2829TIP3    H1 8428   5.163   2.080   3.380
 2829TIP3    H2 8429   5.310   2.067   3.352
 2830TIP3   OH2 8430   4.690   1.372   1.936
 2830TIP3    H1 8431   4.774   1.329   1.961
 2830TIP3    H2 8432   4.633   1.297   1.913
 2831TIP3   OH2 8433   4.759   1.616   2.360
 2831TIP3    H1 8434   4.798   1.526   2.375
 2831TIP3    H2 8435   4.817   1.648   2.289
 2832TIP3   OH2 8436   4.921   1.791   2.854
 2832TIP3    H1 8437   5.007   1.817   2.813
 2832TIP3    H2 8438   4.934   1.829   2.943
 2833TIP3   OH2 8439   4.988   1.933   3.086
 2833TIP3    H1 8440   4.910   1.969   3.133
 2833TIP3    H2 8441   5.021   2.013   3.040
 2834TIP3   OH2 8442   3.603   1.658   3.876
 2834TIP3    H1 8443   3.701   1.656   3.883
 2834TIP3    H2 8444   3.581   1.575   3.924
 2835TIP3   OH2 8445   5.439   1.521   3.642
 2835TIP3    H1 8446   5.500   1.458   3.599
 2835TIP3    H2 8447   5.411   1.578   3.567
 2836TIP3   OH2 8448   4.868   1.366   2.397
 2836TIP3    H1 8449   4.917   1.350   2.480
 2836TIP3    H2 8450   4.808   1.289   2.395
 2837TIP3   OH2 8451   3.566   1.352   3.218
 2837TIP3    H1 8452   3.629   1.278   3.226
 2837TIP3    H2 8453   3.628   1.427   3.210
 2838TIP3   OH2 8454   3.371   1.626   3.288
 2838TIP3    H1 8455   3.421   1.621   3.204
 2838TIP3    H2 8456   3.401   1.710   3.323
 2839TIP3   OH2 8457   5.313   1.666   3.450
 2839TIP3    H1 8458   5.227   1.707   3.474
 2839TIP3    H2 8459   5.282   1.596   3.389
 2840TIP3   OH2 8460   4.954   1.298   2.029
 2840TIP3    H1 8461   4.987   1.230   1.967
 2840TIP3    H2 8462   5.019   1.369   2.019
 2841TIP3   OH2 8463   3.353   1.130   2.790
 2841TIP3    H1 8464   3.260   1.129   2.815
 2841TIP3    H2 8465   3.353   1.189   2.711
 2842TIP3   OH2 8466   4.512   2.831   2.295
 2842TIP3    H1 8467   4.564   2.819   2.212
 2842TIP3    H2 8468   4.564   2.900   2.340
 2843TIP3   OH2 8469   3.572   1.204   3.604
 2843TIP3    H1 8470   3.524   1.209   3.689
 2843TIP3    H2 8471   3.508   1.246   3.544
 2844TIP3   OH2 8472   3.614   2.630   3.679
 2844TIP3    H1 8473   3.521   2.606   3.667
 2844TIP3    H2 8474   3.625   2.624   3.775
 2845TIP3   OH2 8475   3.789   2.666   3.225
 2845TIP3    H1 8476   3.744   2.744   3.187
 2845TIP3    H2 8477   3.877   2.680   3.184
 2846TIP3   OH2 8478   4.238   2.913   3.365
 2846TIP3    H1 8479   4.278   2.915   3.454
 2846TIP3    H2 8480   4.304   2.965   3.314
 2847TIP3   OH2 8481   4.417   3.064   3.224
 2847TIP3    H1 8482   4.491   3.015   3.184
 2847TIP3    H2 8483   4.466   3.122   3.286
 2848TIP3   OH2 8484   5.210   1.430   3.326
 2848TIP3    H1 8485   5.121   1.430   3.287
 2848TIP3    H2 8486   5.239   1.337   3.313
 2849TIP3   OH2 8487   3.466   2.920   3.255
 2849TIP3    H1 8488   3.378   2.957   3.230
 2849TIP3    H2 8489   3.482   2.967   3.338
 2850TIP3   OH2 8490   3.703   2.901   3.109
 2850TIP3    H1 8491   3.617   2.916   3.153
 2850TIP3    H2 8492   3.686   2.938   3.020
 2851TIP3   OH2 8493   4.130   2.934   2.907
 2851TIP3    H1 8494   4.062   2.956   2.841
 2851TIP3    H2 8495   4.144   3.021   2.951
 2852TIP3   OH2 8496   4.399   2.871   2.956
 2852TIP3    H1 8497   4.305   2.891   2.938
 2852TIP3    H2 8498   4.443   2.949   2.919
 2853TIP3   OH2 8499   4.606   3.065   2.875
 2853TIP3    H1 8500   4.593   3.150   2.828
 2853TIP3    H2 8501   4.633   3.006   2.802
 2854TIP3   OH2 8502   3.376   2.716   2.996
 2854TIP3    H1 8503   3.405   2.698   3.088
 2854TIP3    H2 8504   3.451   2.675   2.947
 2855TIP3   OH2 8505   3.572   2.590   2.852
 2855TIP3    H1 8506   3.591   2.507   2.901
 2855TIP3    H2 8507   3.661   2.630   2.846
 2856TIP3   OH2 8508   3.836   2.686   2.857
 2856TIP3    H1 8509   3.872   2.596   2.844
 2856TIP3    H2 8510   3.880   2.710   2.940
 2857TIP3   OH2 8511   4.417   1.345   2.945
 2857TIP3    H1 8512   4.372   1.274   2.995
 2857TIP3    H2 8513   4.487   1.296   2.898
 2858TIP3   OH2 8514   4.940   1.221   2.853
 2858TIP3    H1 8515   4.979   1.273   2.779
 2858TIP3    H2 8516   4.845   1.242   2.844
 2859TIP3   OH2 8517   5.034   1.322   2.616
 2859TIP3    H1 8518   5.107   1.272   2.573
 2859TIP3    H2 8519   5.065   1.414   2.600
 2860TIP3   OH2 8520   3.664   1.052   2.962
 2860TIP3    H1 8521   3.571   1.020   2.963
 2860TIP3    H2 8522   3.712   0.966   2.957
 2861TIP3   OH2 8523   3.447   0.920   2.607
 2861TIP3    H1 8524   3.481   0.977   2.535
 2861TIP3    H2 8525   3.423   0.987   2.674
 2862TIP3   OH2 8526   4.107   1.082   2.842
 2862TIP3    H1 8527   4.162   1.132   2.779
 2862TIP3    H2 8528   4.126   1.128   2.925
 2863TIP3   OH2 8529   4.656   1.231   2.824
 2863TIP3    H1 8530   4.652   1.200   2.733
 2863TIP3    H2 8531   4.638   1.148   2.874
 2864TIP3   OH2 8532   4.685   1.152   2.388
 2864TIP3    H1 8533   4.597   1.194   2.392
 2864TIP3    H2 8534   4.668   1.067   2.434
 2865TIP3   OH2 8535   3.165   2.492   2.394
 2865TIP3    H1 8536   3.081   2.461   2.355
 2865TIP3    H2 8537   3.158   2.586   2.374
 2866TIP3   OH2 8538   3.567   1.079   2.374
 2866TIP3    H1 8539   3.615   1.017   2.315
 2866TIP3    H2 8540   3.640   1.134   2.408
 2867TIP3   OH2 8541   4.079   1.254   2.472
 2867TIP3    H1 8542   4.142   1.208   2.530
 2867TIP3    H2 8543   4.102   1.347   2.496
 2868TIP3   OH2 8544   3.939   2.682   1.971
 2868TIP3    H1 8545   4.028   2.704   1.935
 2868TIP3    H2 8546   3.917   2.608   1.911
 2869TIP3   OH2 8547   4.657   2.798   2.062
 2869TIP3    H1 8548   4.648   2.701   2.050
 2869TIP3    H2 8549   4.612   2.831   1.982
 2870TIP3   OH2 8550   3.872   1.328   3.847
 2870TIP3    H1 8551   3.837   1.261   3.909
 2870TIP3    H2 8552   3.966   1.331   3.876
 2871TIP3   OH2 8553   4.119   1.328   3.969
 2871TIP3    H1 8554   4.207   1.307   3.933
 2871TIP3    H2 8555   4.110   1.258   4.037
 2872TIP3   OH2 8556   3.241   2.512   2.028
 2872TIP3    H1 8557   3.245   2.551   2.117
 2872TIP3    H2 8558   3.332   2.475   2.016
 2873TIP3   OH2 8559   4.945   1.388   3.759
 2873TIP3    H1 8560   4.964   1.357   3.850
 2873TIP3    H2 8561   5.034   1.386   3.718
 2874TIP3   OH2 8562   4.887   2.944   3.249
 2874TIP3    H1 8563   4.807   2.912   3.202
 2874TIP3    H2 8564   4.867   3.040   3.253
 2875TIP3   OH2 8565   6.151   2.313   2.018
 2875TIP3    H1 8566   6.124   2.406   2.000
 2875TIP3    H2 8567   6.072   2.267   1.986
 2876TIP3   OH2 8568   6.150   2.314   2.395
 2876TIP3    H1 8569   6.180   2.286   2.483
 2876TIP3    H2 8570   6.107   2.233   2.362
 2877TIP3   OH2 8571   5.450   2.212   2.762
 2877TIP3    H1 8572   5.482   2.144   2.825
 2877TIP3    H2 8573   5.527   2.270   2.757
 2878TIP3   OH2 8574   6.392   2.616   2.078
 2878TIP3    H1 8575   6.379   2.548   2.146
 2878TIP3    H2 8576   6.421   2.692   2.132
 2879TIP3   OH2 8577   5.419   2.619   2.488
 2879TIP3    H1 8578   5.412   2.521   2.492
 2879TIP3    H2 8579   5.515   2.629   2.484
 2880TIP3   OH2 8580   5.128   1.822   2.274
 2880TIP3    H1 8581   5.081   1.906   2.289
 2880TIP3    H2 8582   5.056   1.769   2.236
 2881TIP3   OH2 8583   5.186   2.110   2.443
 2881TIP3    H1 8584   5.235   2.033   2.480
 2881TIP3    H2 8585   5.247   2.141   2.374
 2882TIP3   OH2 8586   6.039   3.079   2.094
 2882TIP3    H1 8587   6.087   3.008   2.047
 2882TIP3    H2 8588   6.035   3.045   2.184
 2883TIP3   OH2 8589   5.949   2.540   2.446
 2883TIP3    H1 8590   5.988   2.464   2.399
 2883TIP3    H2 8591   6.033   2.586   2.470
 2884TIP3   OH2 8592   6.959   1.862   2.443
 2884TIP3    H1 8593   6.989   1.944   2.487
 2884TIP3    H2 8594   6.983   1.880   2.351
 2885TIP3   OH2 8595   6.360   2.043   2.480
 2885TIP3    H1 8596   6.403   1.958   2.500
 2885TIP3    H2 8597   6.331   2.027   2.388
 2886TIP3   OH2 8598   5.697   1.701   2.445
 2886TIP3    H1 8599   5.678   1.774   2.383
 2886TIP3    H2 8600   5.649   1.628   2.399
 2887TIP3   OH2 8601   6.392   1.793   2.067
 2887TIP3    H1 8602   6.464   1.776   2.132
 2887TIP3    H2 8603   6.445   1.828   1.993
 2888TIP3   OH2 8604   5.332   1.904   2.550
 2888TIP3    H1 8605   5.414   1.885   2.598
 2888TIP3    H2 8606   5.346   1.848   2.471
 2889TIP3   OH2 8607   5.774   2.101   2.342
 2889TIP3    H1 8608   5.868   2.076   2.355
 2889TIP3    H2 8609   5.735   2.017   2.310
 2890TIP3   OH2 8610   7.034   2.068   2.614
 2890TIP3    H1 8611   6.951   2.116   2.594
 2890TIP3    H2 8612   7.048   2.094   2.706
 2891TIP3   OH2 8613   5.695   1.685   2.878
 2891TIP3    H1 8614   5.635   1.723   2.811
 2891TIP3    H2 8615   5.644   1.703   2.959
 2892TIP3   OH2 8616   6.044   2.536   1.887
 2892TIP3    H1 8617   5.999   2.517   1.803
 2892TIP3    H2 8618   6.002   2.621   1.912
 2893TIP3   OH2 8619   5.802   2.460   2.675
 2893TIP3    H1 8620   5.739   2.525   2.714
 2893TIP3    H2 8621   5.843   2.512   2.604
 2894TIP3   OH2 8622   6.605   1.793   2.236
 2894TIP3    H1 8623   6.595   1.746   2.320
 2894TIP3    H2 8624   6.658   1.870   2.263
 2895TIP3   OH2 8625   5.565   1.800   2.663
 2895TIP3    H1 8626   5.627   1.872   2.687
 2895TIP3    H2 8627   5.614   1.760   2.588
 2896TIP3   OH2 8628   5.628   2.652   2.770
 2896TIP3    H1 8629   5.604   2.739   2.732
 2896TIP3    H2 8630   5.549   2.638   2.827
 2897TIP3   OH2 8631   5.026   2.343   2.007
 2897TIP3    H1 8632   4.984   2.373   1.924
 2897TIP3    H2 8633   5.056   2.428   2.046
 2898TIP3   OH2 8634   6.464   2.859   2.247
 2898TIP3    H1 8635   6.375   2.851   2.287
 2898TIP3    H2 8636   6.456   2.945   2.202
 2899TIP3   OH2 8637   6.754   1.761   2.610
 2899TIP3    H1 8638   6.667   1.792   2.579
 2899TIP3    H2 8639   6.813   1.794   2.539
 2900TIP3   OH2 8640   6.053   1.406   2.591
 2900TIP3    H1 8641   6.040   1.311   2.608
 2900TIP3    H2 8642   5.975   1.443   2.638
 2901TIP3   OH2 8643   6.169   2.906   1.923
 2901TIP3    H1 8644   6.218   2.823   1.901
 2901TIP3    H2 8645   6.230   2.971   1.882
 2902TIP3   OH2 8646   6.310   2.691   1.826
 2902TIP3    H1 8647   6.269   2.613   1.787
 2902TIP3    H2 8648   6.345   2.655   1.911
 2903TIP3   OH2 8649   6.690   2.773   2.591
 2903TIP3    H1 8650   6.679   2.696   2.532
 2903TIP3    H2 8651   6.672   2.848   2.530
 2904TIP3   OH2 8652   5.980   2.165   1.846
 2904TIP3    H1 8653   5.901   2.219   1.826
 2904TIP3    H2 8654   6.028   2.165   1.761
 2905TIP3   OH2 8655   5.941   1.950   1.563
 2905TIP3    H1 8656   6.005   2.001   1.614
 2905TIP3    H2 8657   6.000   1.887   1.518
 2906TIP3   OH2 8658   6.886   2.409   2.435
 2906TIP3    H1 8659   6.802   2.461   2.441
 2906TIP3    H2 8660   6.915   2.434   2.345
 2907TIP3   OH2 8661   6.329   2.247   1.820
 2907TIP3    H1 8662   6.274   2.273   1.898
 2907TIP3    H2 8663   6.413   2.224   1.864
 2908TIP3   OH2 8664   6.564   2.290   2.730
 2908TIP3    H1 8665   6.562   2.373   2.781
 2908TIP3    H2 8666   6.477   2.294   2.685
 2909TIP3   OH2 8667   5.561   2.247   2.237
 2909TIP3    H1 8668   5.520   2.190   2.169
 2909TIP3    H2 8669   5.638   2.194   2.265
 2910TIP3   OH2 8670   5.690   2.657   2.386
 2910TIP3    H1 8671   5.670   2.615   2.302
 2910TIP3    H2 8672   5.781   2.624   2.404
 2911TIP3   OH2 8673   5.700   2.218   2.590
 2911TIP3    H1 8674   5.732   2.198   2.500
 2911TIP3    H2 8675   5.742   2.304   2.611
 2912TIP3   OH2 8676   6.223   2.855   2.367
 2912TIP3    H1 8677   6.209   2.936   2.419
 2912TIP3    H2 8678   6.207   2.784   2.432
 2913TIP3   OH2 8679   5.835   2.774   2.915
 2913TIP3    H1 8680   5.775   2.837   2.961
 2913TIP3    H2 8681   5.770   2.721   2.865
 2914TIP3   OH2 8682   6.170   2.107   1.645
 2914TIP3    H1 8683   6.228   2.167   1.697
 2914TIP3    H2 8684   6.198   2.130   1.553
 2915TIP3   OH2 8685   5.589   2.332   3.015
 2915TIP3    H1 8686   5.594   2.419   3.059
 2915TIP3    H2 8687   5.494   2.313   3.024
 2916TIP3   OH2 8688   5.911   2.788   1.922
 2916TIP3    H1 8689   5.989   2.842   1.941
 2916TIP3    H2 8690   5.850   2.852   1.882
 2917TIP3   OH2 8691   5.630   2.943   3.001
 2917TIP3    H1 8692   5.594   2.944   2.910
 2917TIP3    H2 8693   5.551   2.921   3.055
 2918TIP3   OH2 8694   6.681   1.354   1.695
 2918TIP3    H1 8695   6.600   1.374   1.746
 2918TIP3    H2 8696   6.694   1.439   1.646
 2919TIP3   OH2 8697   5.428   2.089   2.039
 2919TIP3    H1 8698   5.363   2.135   1.983
 2919TIP3    H2 8699   5.384   2.005   2.055
 2920TIP3   OH2 8700   6.483   2.716   1.240
 2920TIP3    H1 8701   6.491   2.813   1.227
 2920TIP3    H2 8702   6.576   2.687   1.230
 2921TIP3   OH2 8703   5.208   2.473   2.949
 2921TIP3    H1 8704   5.144   2.451   2.879
 2921TIP3    H2 8705   5.246   2.386   2.973
 2922TIP3   OH2 8706   5.063   2.665   2.584
 2922TIP3    H1 8707   5.159   2.662   2.573
 2922TIP3    H2 8708   5.052   2.747   2.635
 2923TIP3   OH2 8709   6.929   3.116   2.637
 2923TIP3    H1 8710   6.925   3.020   2.651
 2923TIP3    H2 8711   6.845   3.144   2.682
 2924TIP3   OH2 8712   6.034   2.903   2.771
 2924TIP3    H1 8713   6.034   2.996   2.803
 2924TIP3    H2 8714   5.962   2.865   2.826
 2925TIP3   OH2 8715   5.793   3.033   1.723
 2925TIP3    H1 8716   5.748   3.016   1.638
 2925TIP3    H2 8717   5.762   3.122   1.747
 2926TIP3   OH2 8718   5.231   2.883   2.106
 2926TIP3    H1 8719   5.281   2.874   2.191
 2926TIP3    H2 8720   5.169   2.809   2.116
 2927TIP3   OH2 8721   5.995   2.934   1.363
 2927TIP3    H1 8722   6.055   2.865   1.327
 2927TIP3    H2 8723   6.029   2.944   1.454
 2928TIP3   OH2 8724   6.044   2.981   1.634
 2928TIP3    H1 8725   5.956   2.992   1.676
 2928TIP3    H2 8726   6.095   2.942   1.707
 2929TIP3   OH2 8727   6.818   2.249   2.911
 2929TIP3    H1 8728   6.737   2.263   2.860
 2929TIP3    H2 8729   6.833   2.153   2.900
 2930TIP3   OH2 8730   5.413   2.656   2.938
 2930TIP3    H1 8731   5.463   2.641   3.021
 2930TIP3    H2 8732   5.339   2.593   2.946
 2931TIP3   OH2 8733   5.814   1.479   2.720
 2931TIP3    H1 8734   5.724   1.450   2.694
 2931TIP3    H2 8735   5.790   1.563   2.764
 2932TIP3   OH2 8736   6.347   1.595   2.914
 2932TIP3    H1 8737   6.415   1.568   2.979
 2932TIP3    H2 8738   6.263   1.576   2.961
 2933TIP3   OH2 8739   6.586   2.024   2.833
 2933TIP3    H1 8740   6.536   2.020   2.917
 2933TIP3    H2 8741   6.563   2.113   2.798
 2934TIP3   OH2 8742   6.245   2.154   1.389
 2934TIP3    H1 8743   6.212   2.129   1.301
 2934TIP3    H2 8744   6.324   2.206   1.366
 2935TIP3   OH2 8745   5.957   1.531   1.691
 2935TIP3    H1 8746   5.926   1.527   1.783
 2935TIP3    H2 8747   5.920   1.447   1.658
 2936TIP3   OH2 8748   5.743   1.995   2.739
 2936TIP3    H1 8749   5.694   2.019   2.820
 2936TIP3    H2 8750   5.729   2.076   2.685
 2937TIP3   OH2 8751   5.629   1.881   2.254
 2937TIP3    H1 8752   5.536   1.856   2.271
 2937TIP3    H2 8753   5.642   1.841   2.165
 2938TIP3   OH2 8754   6.119   1.967   1.979
 2938TIP3    H1 8755   6.066   2.039   1.939
 2938TIP3    H2 8756   6.174   1.938   1.904
 2939TIP3   OH2 8757   6.293   2.247   3.067
 2939TIP3    H1 8758   6.273   2.174   3.129
 2939TIP3    H2 8759   6.387   2.263   3.088
 2940TIP3   OH2 8760   6.276   1.997   2.221
 2940TIP3    H1 8761   6.218   2.028   2.150
 2940TIP3    H2 8762   6.309   1.915   2.178
 2941TIP3   OH2 8763   5.563   2.025   2.948
 2941TIP3    H1 8764   5.591   2.090   3.014
 2941TIP3    H2 8765   5.554   1.944   3.001
 2942TIP3   OH2 8766   5.611   1.501   1.657
 2942TIP3    H1 8767   5.609   1.497   1.754
 2942TIP3    H2 8768   5.531   1.554   1.640
 2943TIP3   OH2 8769   5.156   1.545   2.531
 2943TIP3    H1 8770   5.232   1.578   2.582
 2943TIP3    H2 8771   5.195   1.516   2.447
 2944TIP3   OH2 8772   5.134   1.530   2.048
 2944TIP3    H1 8773   5.179   1.567   1.970
 2944TIP3    H2 8774   5.071   1.602   2.068
 2945TIP3   OH2 8775   6.286   2.243   2.644
 2945TIP3    H1 8776   6.319   2.170   2.586
 2945TIP3    H2 8777   6.257   2.191   2.722
 2946TIP3   OH2 8778   5.954   1.704   2.315
 2946TIP3    H1 8779   5.871   1.703   2.367
 2946TIP3    H2 8780   6.022   1.705   2.384
 2947TIP3   OH2 8781   5.390   1.759   2.324
 2947TIP3    H1 8782   5.295   1.767   2.296
 2947TIP3    H2 8783   5.412   1.667   2.300
 2948TIP3   OH2 8784   5.661   1.756   2.011
 2948TIP3    H1 8785   5.755   1.771   1.990
 2948TIP3    H2 8786   5.615   1.778   1.927
 2949TIP3   OH2 8787   6.447   1.780   2.515
 2949TIP3    H1 8788   6.414   1.792   2.606
 2949TIP3    H2 8789   6.381   1.718   2.479
 2950TIP3   OH2 8790   5.500   1.785   1.790
 2950TIP3    H1 8791   5.423   1.749   1.744
 2950TIP3    H2 8792   5.550   1.824   1.715
 2951TIP3   OH2 8793   6.617   3.468   2.734
 2951TIP3    H1 8794   6.615   3.493   2.640
 2951TIP3    H2 8795   6.694   3.518   2.767
 2952TIP3   OH2 8796   5.576   2.577   3.158
 2952TIP3    H1 8797   5.656   2.609   3.205
 2952TIP3    H2 8798   5.511   2.579   3.230
 2953TIP3   OH2 8799   6.038   2.030   2.411
 2953TIP3    H1 8800   6.113   1.994   2.361
 2953TIP3    H2 8801   6.051   1.990   2.499
 2954TIP3   OH2 8802   5.564   1.521   2.288
 2954TIP3    H1 8803   5.530   1.442   2.334
 2954TIP3    H2 8804   5.616   1.484   2.216
 2955TIP3   OH2 8805   6.016   1.926   2.705
 2955TIP3    H1 8806   5.927   1.965   2.716
 2955TIP3    H2 8807   6.074   1.988   2.753
 2956TIP3   OH2 8808   5.753   2.319   1.797
 2956TIP3    H1 8809   5.680   2.255   1.787
 2956TIP3    H2 8810   5.734   2.354   1.888
 2957TIP3   OH2 8811   6.654   2.555   2.427
 2957TIP3    H1 8812   6.677   2.606   2.346
 2957TIP3    H2 8813   6.569   2.514   2.403
 2958TIP3   OH2 8814   6.211   1.632   1.656
 2958TIP3    H1 8815   6.114   1.617   1.664
 2958TIP3    H2 8816   6.221   1.726   1.682
 2959TIP3   OH2 8817   6.151   2.637   2.794
 2959TIP3    H1 8818   6.174   2.617   2.885
 2959TIP3    H2 8819   6.114   2.727   2.800
 2960TIP3   OH2 8820   6.281   1.879   1.760
 2960TIP3    H1 8821   6.377   1.885   1.778
 2960TIP3    H2 8822   6.263   1.960   1.709
 2961TIP3   OH2 8823   5.443   2.339   2.474
 2961TIP3    H1 8824   5.481   2.312   2.388
 2961TIP3    H2 8825   5.486   2.277   2.535
 2962TIP3   OH2 8826   5.897   2.468   1.617
 2962TIP3    H1 8827   5.850   2.555   1.621
 2962TIP3    H2 8828   5.843   2.415   1.679
 2963TIP3   OH2 8829   5.325   2.262   3.086
 2963TIP3    H1 8830   5.347   2.250   3.180
 2963TIP3    H2 8831   5.255   2.195   3.073
 2964TIP3   OH2 8832   6.050   2.374   3.106
 2964TIP3    H1 8833   5.992   2.316   3.054
 2964TIP3    H2 8834   6.139   2.342   3.078
 2965TIP3   OH2 8835   6.313   2.894   2.690
 2965TIP3    H1 8836   6.216   2.896   2.702
 2965TIP3    H2 8837   6.342   2.947   2.767
 2966TIP3   OH2 8838   6.724   1.968   1.598
 2966TIP3    H1 8839   6.660   1.924   1.536
 2966TIP3    H2 8840   6.720   2.058   1.559
 2967TIP3   OH2 8841   6.941   2.824   2.680
 2967TIP3    H1 8842   6.843   2.821   2.672
 2967TIP3    H2 8843   6.966   2.795   2.589
 2968TIP3   OH2 8844   6.423   2.788   1.506
 2968TIP3    H1 8845   6.397   2.718   1.567
 2968TIP3    H2 8846   6.435   2.740   1.421
 2969TIP3   OH2 8847   6.419   2.417   2.348
 2969TIP3    H1 8848   6.325   2.393   2.360
 2969TIP3    H2 8849   6.452   2.338   2.301
 2970TIP3   OH2 8850   5.545   2.644   2.095
 2970TIP3    H1 8851   5.547   2.726   2.043
 2970TIP3    H2 8852   5.450   2.631   2.107
 2971TIP3   OH2 8853   5.106   1.950   1.796
 2971TIP3    H1 8854   5.153   2.033   1.818
 2971TIP3    H2 8855   5.031   1.954   1.859
 2972TIP3   OH2 8856   5.686   2.411   2.042
 2972TIP3    H1 8857   5.650   2.500   2.059
 2972TIP3    H2 8858   5.649   2.361   2.117
 2973TIP3   OH2 8859   5.813   2.989   2.567
 2973TIP3    H1 8860   5.854   3.062   2.517
 2973TIP3    H2 8861   5.890   2.955   2.616
 2974TIP3   OH2 8862   5.466   2.884   1.950
 2974TIP3    H1 8863   5.380   2.893   1.996
 2974TIP3    H2 8864   5.499   2.976   1.952
 2975TIP3   OH2 8865   6.203   2.621   2.525
 2975TIP3    H1 8866   6.194   2.620   2.623
 2975TIP3    H2 8867   6.285   2.571   2.513
 2976TIP3   OH2 8868   6.177   2.512   1.407
 2976TIP3    H1 8869   6.229   2.488   1.487
 2976TIP3    H2 8870   6.087   2.492   1.438
 2977TIP3   OH2 8871   6.452   3.156   2.574
 2977TIP3    H1 8872   6.372   3.102   2.566
 2977TIP3    H2 8873   6.437   3.223   2.503
 2978TIP3   OH2 8874   6.517   2.991   1.228
 2978TIP3    H1 8875   6.554   3.063   1.175
 2978TIP3    H2 8876   6.437   3.036   1.261
 2979TIP3   OH2 8877   5.538   1.766   3.096
 2979TIP3    H1 8878   5.442   1.772   3.112
 2979TIP3    H2 8879   5.567   1.708   3.168
 2980TIP3   OH2 8880   6.337   2.449   1.625
 2980TIP3    H1 8881   6.327   2.383   1.697
 2980TIP3    H2 8882   6.434   2.447   1.613
 2981TIP3   OH2 8883   5.253   2.851   2.726
 2981TIP3    H1 8884   5.307   2.777   2.759
 2981TIP3    H2 8885   5.280   2.922   2.786
 2982TIP3   OH2 8886   5.544   2.497   1.407
 2982TIP3    H1 8887   5.560   2.405   1.379
 2982TIP3    H2 8888   5.525   2.485   1.502
 2983TIP3   OH2 8889   5.491   2.500   1.680
 2983TIP3    H1 8890   5.562   2.476   1.741
 2983TIP3    H2 8891   5.493   2.599   1.685
 2984TIP3   OH2 8892   5.225   2.195   1.883
 2984TIP3    H1 8893   5.160   2.240   1.940
 2984TIP3    H2 8894   5.239   2.265   1.816
 2985TIP3   OH2 8895   6.373   1.831   2.774
 2985TIP3    H1 8896   6.452   1.871   2.814
 2985TIP3    H2 8897   6.359   1.751   2.829
 2986TIP3   OH2 8898   6.254   1.584   1.939
 2986TIP3    H1 8899   6.240   1.608   1.845
 2986TIP3    H2 8900   6.291   1.667   1.976
 2987TIP3   OH2 8901   5.754   2.698   1.628
 2987TIP3    H1 8902   5.668   2.726   1.665
 2987TIP3    H2 8903   5.772   2.770   1.566
 2988TIP3   OH2 8904   5.944   1.762   2.042
 2988TIP3    H1 8905   6.008   1.834   2.024
 2988TIP3    H2 8906   5.948   1.755   2.139
 2989TIP3   OH2 8907   6.212   2.082   2.851
 2989TIP3    H1 8908   6.231   2.137   2.930
 2989TIP3    H2 8909   6.268   2.004   2.866
 2990TIP3   OH2 8910   6.088   1.492   2.145
 2990TIP3    H1 8911   6.083   1.568   2.206
 2990TIP3    H2 8912   6.148   1.528   2.076
 2991TIP3   OH2 8913   5.496   2.773   1.695
 2991TIP3    H1 8914   5.467   2.843   1.632
 2991TIP3    H2 8915   5.481   2.817   1.781
 2992TIP3   OH2 8916   5.600   1.488   1.933
 2992TIP3    H1 8917   5.597   1.578   1.970
 2992TIP3    H2 8918   5.695   1.468   1.943
 2993TIP3   OH2 8919   6.854   1.982   2.831
 2993TIP3    H1 8920   6.756   1.980   2.838
 2993TIP3    H2 8921   6.866   1.943   2.743
 2994TIP3   OH2 8922   6.504   2.176   2.218
 2994TIP3    H1 8923   6.428   2.116   2.232
 2994TIP3    H2 8924   6.576   2.130   2.266
 2995TIP3   OH2 8925   5.214   2.406   1.689
 2995TIP3    H1 8926   5.276   2.481   1.700
 2995TIP3    H2 8927   5.263   2.355   1.621
 2996TIP3   OH2 8928   5.161   1.681   1.820
 2996TIP3    H1 8929   5.156   1.779   1.816
 2996TIP3    H2 8930   5.077   1.655   1.782
 2997TIP3   OH2 8931   6.472   3.129   2.168
 2997TIP3    H1 8932   6.429   3.177   2.094
 2997TIP3    H2 8933   6.566   3.149   2.147
 2998TIP3   OH2 8934   5.548   1.401   2.697
 2998TIP3    H1 8935   5.517   1.368   2.610
 2998TIP3    H2 8936   5.537   1.322   2.754
 2999TIP3   OH2 8937   5.087   2.614   2.078
 2999TIP3    H1 8938   5.014   2.650   2.130
 2999TIP3    H2 8939   5.069   2.655   1.991
 3000TIP3   OH2 8940   5.242   3.158   3.148
 3000TIP3    H1 8941   5.329   3.159   3.195
 3000TIP3    H2 8942   5.222   3.063   3.147
 3001TIP3   OH2 8943   5.726   3.126   3.193
 3001TIP3    H1 8944   5.821   3.108   3.199
 3001TIP3    H2 8945   5.702   3.068   3.118
 3002TIP3   OH2 8946   5.708   2.702   1.322
 3002TIP3    H1 8947   5.653   2.628   1.357
 3002TIP3    H2 8948   5.782   2.653   1.283
 3003TIP3   OH2 8949   6.366   3.029   2.924
 3003TIP3    H1 8950   6.356   2.961   2.995
 3003TIP3    H2 8951   6.442   3.082   2.956
 3004TIP3   OH2 8952   6.144   2.742   1.231
 3004TIP3    H1 8953   6.193   2.681   1.288
 3004TIP3    H2 8954   6.199   2.744   1.150
 3005TIP3   OH2 8955   5.375   2.565   3.348
 3005TIP3    H1 8956   5.390   2.469   3.353
 3005TIP3    H2 8957   5.286   2.569   3.305
 3006TIP3   OH2 8958   5.349   2.217   1.540
 3006TIP3    H1 8959   5.404   2.187   1.614
 3006TIP3    H2 8960   5.417   2.224   1.469
 3007TIP3   OH2 8961   5.983   2.651   3.121
 3007TIP3    H1 8962   5.941   2.667   3.035
 3007TIP3    H2 8963   6.013   2.557   3.114
 3008TIP3   OH2 8964   5.859   2.413   1.348
 3008TIP3    H1 8965   5.862   2.428   1.444
 3008TIP3    H2 8966   5.856   2.315   1.344
 3009TIP3   OH2 8967   6.474   2.657   2.727
 3009TIP3    H1 8968   6.549   2.703   2.684
 3009TIP3    H2 8969   6.404   2.723   2.715
 3010TIP3   OH2 8970   5.493   2.296   3.330
 3010TIP3    H1 8971   5.571   2.243   3.310
 3010TIP3    H2 8972   5.517   2.333   3.418
 3011TIP3   OH2 8973   5.559   2.120   1.764
 3011TIP3    H1 8974   5.533   2.080   1.848
 3011TIP3    H2 8975   5.596   2.044   1.715
 3012TIP3   OH2 8976   5.827   2.183   2.991
 3012TIP3    H1 8977   5.751   2.244   2.993
 3012TIP3    H2 8978   5.878   2.218   2.914
 3013TIP3   OH2 8979   5.659   1.911   1.605
 3013TIP3    H1 8980   5.634   1.917   1.511
 3013TIP3    H2 8981   5.756   1.918   1.600
 3014TIP3   OH2 8982   6.344   2.587   3.127
 3014TIP3    H1 8983   6.426   2.567   3.079
 3014TIP3    H2 8984   6.344   2.519   3.197
 3015TIP3   OH2 8985   6.484   2.245   1.265
 3015TIP3    H1 8986   6.462   2.200   1.182
 3015TIP3    H2 8987   6.451   2.335   1.243
 3016TIP3   OH2 8988   5.951   1.972   3.118
 3016TIP3    H1 8989   5.951   1.893   3.062
 3016TIP3    H2 8990   5.908   2.039   3.060
 3017TIP3   OH2 8991   5.953   1.758   2.925
 3017TIP3    H1 8992   5.981   1.801   2.842
 3017TIP3    H2 8993   5.860   1.737   2.906
 3018TIP3   OH2 8994   5.983   2.294   2.797
 3018TIP3    H1 8995   6.066   2.305   2.749
 3018TIP3    H2 8996   5.926   2.362   2.755
 3019TIP3   OH2 8997   6.564   2.262   3.180
 3019TIP3    H1 8998   6.615   2.180   3.190
 3019TIP3    H2 8999   6.631   2.323   3.147
 3020TIP3   OH2 9000   6.605   2.514   2.915
 3020TIP3    H1 9001   6.547   2.567   2.856
 3020TIP3    H2 9002   6.693   2.536   2.875
 3021TIP3   OH2 9003   5.828   2.087   3.348
 3021TIP3    H1 9004   5.759   2.019   3.362
 3021TIP3    H2 9005   5.863   2.061   3.260
 3022TIP3   OH2 9006   6.086   1.523   2.990
 3022TIP3    H1 9007   6.037   1.605   2.969
 3022TIP3    H2 9008   6.017   1.455   2.979
 3023TIP3   OH2 9009   6.213   2.028   3.208
 3023TIP3    H1 9010   6.203   2.017   3.304
 3023TIP3    H2 9011   6.122   2.004   3.180
 3024TIP3   OH2 9012   6.451   1.975   3.062
 3024TIP3    H1 9013   6.377   1.979   3.125
 3024TIP3    H2 9014   6.525   1.946   3.119
 3025TIP3   OH2 9015   6.679   1.916   3.213
 3025TIP3    H1 9016   6.692   1.821   3.233
 3025TIP3    H2 9017   6.677   1.957   3.303
 3026TIP3   OH2 9018   5.667   1.867   3.399
 3026TIP3    H1 9019   5.677   1.777   3.365
 3026TIP3    H2 9020   5.703   1.856   3.490
 3027TIP3   OH2 9021   6.181   1.532   3.248
 3027TIP3    H1 9022   6.249   1.462   3.243
 3027TIP3    H2 9023   6.141   1.526   3.159
 3028TIP3   OH2 9024   6.246   1.747   3.409
 3028TIP3    H1 9025   6.224   1.677   3.344
 3028TIP3    H2 9026   6.169   1.807   3.402
 3029TIP3   OH2 9027   5.466   2.974   1.507
 3029TIP3    H1 9028   5.561   2.972   1.489
 3029TIP3    H2 9029   5.436   3.025   1.429
 3030TIP3   OH2 9030   4.947   2.359   1.726
 3030TIP3    H1 9031   5.041   2.382   1.712
 3030TIP3    H2 9032   4.943   2.270   1.684
 3031TIP3   OH2 9033   4.862   2.970   2.136
 3031TIP3    H1 9034   4.794   2.909   2.101
 3031TIP3    H2 9035   4.905   2.914   2.204
 3032TIP3   OH2 9036   4.998   2.824   2.323
 3032TIP3    H1 9037   4.986   2.750   2.385
 3032TIP3    H2 9038   5.049   2.885   2.380
 3033TIP3   OH2 9039   6.724   3.221   2.124
 3033TIP3    H1 9040   6.750   3.257   2.212
 3033TIP3    H2 9041   6.782   3.271   2.065
 3034TIP3   OH2 9042   6.753   3.243   2.405
 3034TIP3    H1 9043   6.712   3.154   2.401
 3034TIP3    H2 9044   6.829   3.224   2.462
 3035TIP3   OH2 9045   6.801   2.919   2.980
 3035TIP3    H1 9046   6.726   2.928   3.043
 3035TIP3    H2 9047   6.841   3.008   2.983
 3036TIP3   OH2 9048   6.616   2.432   1.600
 3036TIP3    H1 9049   6.684   2.497   1.571
 3036TIP3    H2 9050   6.660   2.394   1.680
 3037TIP3   OH2 9051   6.744   2.300   1.803
 3037TIP3    H1 9052   6.678   2.259   1.863
 3037TIP3    H2 9053   6.808   2.340   1.867
 3038TIP3   OH2 9054   6.797   2.691   2.236
 3038TIP3    H1 9055   6.850   2.628   2.184
 3038TIP3    H2 9056   6.789   2.767   2.175
 3039TIP3   OH2 9057   6.630   2.992   2.432
 3039TIP3    H1 9058   6.559   3.036   2.482
 3039TIP3    H2 9059   6.580   2.946   2.362
 3040TIP3   OH2 9060   6.683   2.207   1.450
 3040TIP3    H1 9061   6.612   2.210   1.382
 3040TIP3    H2 9062   6.655   2.283   1.506
 3041TIP3   OH2 9063   6.555   1.882   1.404
 3041TIP3    H1 9064   6.512   1.921   1.328
 3041TIP3    H2 9065   6.527   1.788   1.396
 3042TIP3   OH2 9066   6.559   2.157   1.951
 3042TIP3    H1 9067   6.567   2.060   1.946
 3042TIP3    H2 9068   6.545   2.171   2.048
 3043TIP3   OH2 9069   5.185   2.228   2.697
 3043TIP3    H1 9070   5.184   2.201   2.603
 3043TIP3    H2 9071   5.283   2.231   2.714
 3044TIP3   OH2 9072   6.848   2.581   2.806
 3044TIP3    H1 9073   6.921   2.516   2.798
 3044TIP3    H2 9074   6.874   2.652   2.745
 3045TIP3   OH2 9075   7.034   2.388   2.825
 3045TIP3    H1 9076   6.959   2.338   2.865
 3045TIP3    H2 9077   7.107   2.323   2.839
 3046TIP3   OH2 9078   6.496   1.617   1.395
 3046TIP3    H1 9079   6.572   1.585   1.446
 3046TIP3    H2 9080   6.425   1.554   1.415
 3047TIP3   OH2 9081   6.554   1.872   1.847
 3047TIP3    H1 9082   6.594   1.783   1.862
 3047TIP3    H2 9083   6.613   1.905   1.777
 3048TIP3   OH2 9084   6.716   2.048   2.340
 3048TIP3    H1 9085   6.803   2.074   2.300
 3048TIP3    H2 9086   6.730   2.084   2.430
 3049TIP3   OH2 9087   6.784   2.190   2.573
 3049TIP3    H1 9088   6.706   2.225   2.620
 3049TIP3    H2 9089   6.817   2.271   2.528
 3050TIP3   OH2 9090   5.401   1.915   3.366
 3050TIP3    H1 9091   5.498   1.911   3.371
 3050TIP3    H2 9092   5.377   1.832   3.412
 3051TIP3   OH2 9093   7.235   1.779   3.129
 3051TIP3    H1 9094   7.296   1.715   3.087
 3051TIP3    H2 9095   7.209   1.835   3.053
 3052TIP3   OH2 9096   6.664   1.622   1.882
 3052TIP3    H1 9097   6.713   1.608   1.966
 3052TIP3    H2 9098   6.603   1.546   1.884
 3053TIP3   OH2 9099   5.363   1.609   2.704
 3053TIP3    H1 9100   5.426   1.534   2.713
 3053TIP3    H2 9101   5.425   1.684   2.697
 3054TIP3   OH2 9102   5.167   1.882   2.776
 3054TIP3    H1 9103   5.216   1.877   2.692
 3054TIP3    H2 9104   5.193   1.969   2.808
 3055TIP3   OH2 9105   7.109   1.923   2.935
 3055TIP3    H1 9106   7.023   1.962   2.957
 3055TIP3    H2 9107   7.080   1.851   2.876
 3056TIP3   OH2 9108   6.746   1.559   1.514
 3056TIP3    H1 9109   6.788   1.487   1.465
 3056TIP3    H2 9110   6.813   1.630   1.509
 3057TIP3   OH2 9111   5.149   1.389   2.278
 3057TIP3    H1 9112   5.055   1.384   2.300
 3057TIP3    H2 9113   5.148   1.446   2.198
 3058TIP3   OH2 9114   6.310   3.087   1.782
 3058TIP3    H1 9115   6.360   3.075   1.699
 3058TIP3    H2 9116   6.361   3.157   1.826
 3059TIP3   OH2 9117   5.369   1.463   3.090
 3059TIP3    H1 9118   5.320   1.464   3.174
 3059TIP3    H2 9119   5.304   1.504   3.029
 3060TIP3   OH2 9120   5.410   2.890   3.168
 3060TIP3    H1 9121   5.318   2.864   3.151
 3060TIP3    H2 9122   5.418   2.876   3.263
 3061TIP3   OH2 9123   5.587   2.923   2.714
 3061TIP3    H1 9124   5.539   2.999   2.675
 3061TIP3    H2 9125   5.673   2.938   2.671
 3062TIP3   OH2 9126   6.034   3.170   2.853
 3062TIP3    H1 9127   6.076   3.173   2.942
 3062TIP3    H2 9128   6.100   3.221   2.801
 3063TIP3   OH2 9129   6.213   3.321   2.711
 3063TIP3    H1 9130   6.285   3.271   2.670
 3063TIP3    H2 9131   6.263   3.379   2.773
 3064TIP3   OH2 9132   7.006   1.685   2.813
 3064TIP3    H1 9133   6.915   1.679   2.778
 3064TIP3    H2 9134   7.036   1.591   2.801
 3065TIP3   OH2 9135   5.264   3.181   2.739
 3065TIP3    H1 9136   5.175   3.216   2.715
 3065TIP3    H2 9137   5.273   3.219   2.827
 3066TIP3   OH2 9138   5.501   3.160   2.596
 3066TIP3    H1 9139   5.414   3.173   2.641
 3066TIP3    H2 9140   5.482   3.194   2.506
 3067TIP3   OH2 9141   5.927   3.191   2.393
 3067TIP3    H1 9142   5.858   3.212   2.328
 3067TIP3    H2 9143   5.939   3.278   2.436
 3068TIP3   OH2 9144   6.195   3.129   2.444
 3068TIP3    H1 9145   6.101   3.147   2.425
 3068TIP3    H2 9146   6.238   3.206   2.405
 3069TIP3   OH2 9147   6.404   3.322   2.362
 3069TIP3    H1 9148   6.390   3.407   2.314
 3069TIP3    H2 9149   6.429   3.262   2.289
 3070TIP3   OH2 9150   5.176   2.976   2.483
 3070TIP3    H1 9151   5.202   2.952   2.575
 3070TIP3    H2 9152   5.248   2.931   2.434
 3071TIP3   OH2 9153   5.368   2.847   2.339
 3071TIP3    H1 9154   5.386   2.764   2.389
 3071TIP3    H2 9155   5.458   2.885   2.334
 3072TIP3   OH2 9156   5.634   2.943   2.342
 3072TIP3    H1 9157   5.667   2.852   2.330
 3072TIP3    H2 9158   5.676   2.966   2.427
 3073TIP3   OH2 9159   6.211   1.599   2.428
 3073TIP3    H1 9160   6.167   1.531   2.482
 3073TIP3    H2 9161   6.284   1.550   2.387
 3074TIP3   OH2 9162   6.736   1.476   2.335
 3074TIP3    H1 9163   6.773   1.530   2.262
 3074TIP3    H2 9164   6.641   1.497   2.330
 3075TIP3   OH2 9165   6.830   1.580   2.099
 3075TIP3    H1 9166   6.904   1.530   2.059
 3075TIP3    H2 9167   6.863   1.672   2.085
 3076TIP3   OH2 9168   5.461   1.309   2.448
 3076TIP3    H1 9169   5.368   1.277   2.448
 3076TIP3    H2 9170   5.508   1.223   2.443
 3077TIP3   OH2 9171   5.249   1.176   2.097
 3077TIP3    H1 9172   5.276   1.233   2.022
 3077TIP3    H2 9173   5.217   1.241   2.161
 3078TIP3   OH2 9174   5.903   1.340   2.328
 3078TIP3    H1 9175   5.960   1.390   2.269
 3078TIP3    H2 9176   5.924   1.380   2.414
 3079TIP3   OH2 9177   6.452   1.487   2.312
 3079TIP3    H1 9178   6.449   1.450   2.223
 3079TIP3    H2 9179   6.437   1.406   2.367
 3080TIP3   OH2 9180   6.478   1.409   1.875
 3080TIP3    H1 9181   6.391   1.451   1.886
 3080TIP3    H2 9182   6.464   1.324   1.922
 3081TIP3   OH2 9183   4.964   2.747   1.877
 3081TIP3    H1 9184   4.879   2.715   1.842
 3081TIP3    H2 9185   4.953   2.842   1.861
 3082TIP3   OH2 9186   5.363   1.337   1.859
 3082TIP3    H1 9187   5.411   1.274   1.802
 3082TIP3    H2 9188   5.436   1.391   1.895
 3083TIP3   OH2 9189   5.877   1.512   1.957
 3083TIP3    H1 9190   5.937   1.465   2.017
 3083TIP3    H2 9191   5.899   1.604   1.983
 3084TIP3   OH2 9192   5.735   2.939   1.457
 3084TIP3    H1 9193   5.824   2.961   1.422
 3084TIP3    H2 9194   5.713   2.864   1.398
 3085TIP3   OH2 9195   6.454   3.055   1.549
 3085TIP3    H1 9196   6.446   2.957   1.537
 3085TIP3    H2 9197   6.409   3.087   1.469
 3086TIP3   OH2 9198   5.668   1.587   3.336
 3086TIP3    H1 9199   5.633   1.519   3.395
 3086TIP3    H2 9200   5.762   1.588   3.364
 3087TIP3   OH2 9201   5.916   1.585   3.457
 3087TIP3    H1 9202   6.002   1.562   3.418
 3087TIP3    H2 9203   5.906   1.515   3.524
 3088TIP3   OH2 9204   5.038   2.771   1.514
 3088TIP3    H1 9205   5.038   2.804   1.605
 3088TIP3    H2 9206   5.129   2.734   1.505
 3089TIP3   OH2 9207   6.742   1.645   3.245
 3089TIP3    H1 9208   6.761   1.614   3.336
 3089TIP3    H2 9209   6.830   1.642   3.204
 3090TIP3   OH2 9210   6.683   3.200   2.737
 3090TIP3    H1 9211   6.603   3.168   2.689
 3090TIP3    H2 9212   6.663   3.296   2.740
 3091TIP3   OH2 9213   7.948   2.582   1.853
 3091TIP3    H1 9214   7.971   2.505   1.908
 3091TIP3    H2 9215   7.888   2.540   1.790
 3092TIP3   OH2 9216   7.247   2.467   2.247
 3092TIP3    H1 9217   7.277   2.400   2.312
 3092TIP3    H2 9218   7.321   2.529   2.248
 3093TIP3   OH2 9219   7.215   2.876   1.975
 3093TIP3    H1 9220   7.208   2.779   1.979
 3093TIP3    H2 9221   7.311   2.887   1.970
 3094TIP3   OH2 9222   6.924   2.080   1.760
 3094TIP3    H1 9223   6.876   2.164   1.776
 3094TIP3    H2 9224   6.852   2.025   1.725
 3095TIP3   OH2 9225   6.984   2.368   1.930
 3095TIP3    H1 9226   7.032   2.290   1.967
 3095TIP3    H2 9227   7.042   2.394   1.858
 3096TIP3   OH2 9228   7.847   3.292   1.562
 3096TIP3    H1 9229   7.934   3.251   1.566
 3096TIP3    H2 9230   7.826   3.306   1.655
 3097TIP3   OH2 9231   7.737   2.793   1.935
 3097TIP3    H1 9232   7.779   2.722   1.883
 3097TIP3    H2 9233   7.809   2.859   1.937
 3098TIP3   OH2 9234   7.484   1.958   1.934
 3098TIP3    H1 9235   7.474   2.028   1.867
 3098TIP3    H2 9236   7.442   1.883   1.887
 3099TIP3   OH2 9237   7.129   2.161   2.036
 3099TIP3    H1 9238   7.210   2.141   2.085
 3099TIP3    H2 9239   7.142   2.104   1.957
 3100TIP3   OH2 9240   7.553   2.366   1.819
 3100TIP3    H1 9241   7.645   2.351   1.851
 3100TIP3    H2 9242   7.525   2.276   1.791
 3101TIP3   OH2 9243   7.491   1.951   2.369
 3101TIP3    H1 9244   7.428   1.981   2.301
 3101TIP3    H2 9245   7.438   1.964   2.450
 3102TIP3   OH2 9246   7.857   2.819   1.393
 3102TIP3    H1 9247   7.823   2.764   1.322
 3102TIP3    H2 9248   7.798   2.897   1.389
 3103TIP3   OH2 9249   7.599   2.715   2.169
 3103TIP3    H1 9250   7.534   2.781   2.205
 3103TIP3    H2 9251   7.638   2.765   2.094
 3104TIP3   OH2 9252   7.360   2.058   2.152
 3104TIP3    H1 9253   7.425   2.127   2.175
 3104TIP3    H2 9254   7.406   2.016   2.076
 3105TIP3   OH2 9255   7.425   2.908   2.257
 3105TIP3    H1 9256   7.400   2.995   2.218
 3105TIP3    H2 9257   7.346   2.894   2.314
 3106TIP3   OH2 9258   6.822   2.600   1.494
 3106TIP3    H1 9259   6.779   2.628   1.411
 3106TIP3    H2 9260   6.852   2.685   1.532
 3107TIP3   OH2 9261   7.773   2.396   1.316
 3107TIP3    H1 9262   7.701   2.461   1.311
 3107TIP3    H2 9263   7.831   2.426   1.244
 3108TIP3   OH2 9264   7.348   2.509   1.719
 3108TIP3    H1 9265   7.309   2.450   1.651
 3108TIP3    H2 9266   7.424   2.456   1.750
 3109TIP3   OH2 9267   7.484   2.916   1.872
 3109TIP3    H1 9268   7.463   2.872   1.788
 3109TIP3    H2 9269   7.573   2.881   1.891
 3110TIP3   OH2 9270   7.501   2.473   2.079
 3110TIP3    H1 9271   7.525   2.456   1.986
 3110TIP3    H2 9272   7.536   2.563   2.095
 3111TIP3   OH2 9273   7.907   3.078   1.889
 3111TIP3    H1 9274   7.923   3.174   1.895
 3111TIP3    H2 9275   7.998   3.045   1.886
 3112TIP3   OH2 9276   7.631   3.028   2.404
 3112TIP3    H1 9277   7.572   3.093   2.448
 3112TIP3    H2 9278   7.565   2.978   2.352
 3113TIP3   OH2 9279   7.386   2.589   2.500
 3113TIP3    H1 9280   7.390   2.675   2.546
 3113TIP3    H2 9281   7.291   2.568   2.512
 3114TIP3   OH2 9282   7.726   3.071   1.399
 3114TIP3    H1 9283   7.743   3.140   1.465
 3114TIP3    H2 9284   7.647   3.104   1.354
 3115TIP3   OH2 9285   7.427   3.198   2.487
 3115TIP3    H1 9286   7.390   3.200   2.397
 3115TIP3    H2 9287   7.348   3.178   2.542
 3116TIP3   OH2 9288   7.224   2.346   1.524
 3116TIP3    H1 9289   7.157   2.391   1.468
 3116TIP3    H2 9290   7.180   2.262   1.543
 3117TIP3   OH2 9291   7.005   2.730   2.435
 3117TIP3    H1 9292   6.939   2.708   2.366
 3117TIP3    H2 9293   7.041   2.642   2.459
 3118TIP3   OH2 9294   6.859   2.922   2.070
 3118TIP3    H1 9295   6.955   2.920   2.060
 3118TIP3    H2 9296   6.846   3.003   2.122
 3119TIP3   OH2 9297   7.827   3.157   2.262
 3119TIP3    H1 9298   7.823   3.249   2.295
 3119TIP3    H2 9299   7.755   3.116   2.314
 3120TIP3   OH2 9300   7.589   3.289   1.210
 3120TIP3    H1 9301   7.543   3.271   1.126
 3120TIP3    H2 9302   7.558   3.378   1.233
 3121TIP3   OH2 9303   7.028   3.139   1.593
 3121TIP3    H1 9304   7.076   3.130   1.678
 3121TIP3    H2 9305   6.966   3.065   1.600
 3122TIP3   OH2 9306   7.779   3.227   0.902
 3122TIP3    H1 9307   7.816   3.146   0.861
 3122TIP3    H2 9308   7.823   3.228   0.989
 3123TIP3   OH2 9309   7.855   3.251   1.168
 3123TIP3    H1 9310   7.763   3.264   1.200
 3123TIP3    H2 9311   7.881   3.175   1.223
 3124TIP3   OH2 9312   7.210   2.911   2.424
 3124TIP3    H1 9313   7.259   2.897   2.508
 3124TIP3    H2 9314   7.135   2.849   2.433
 3125TIP3   OH2 9315   7.596   1.736   2.222
 3125TIP3    H1 9316   7.510   1.707   2.187
 3125TIP3    H2 9317   7.573   1.823   2.259
 3126TIP3   OH2 9318   7.536   2.255   2.233
 3126TIP3    H1 9319   7.479   2.275   2.310
 3126TIP3    H2 9320   7.519   2.333   2.175
 3127TIP3   OH2 9321   7.424   2.135   1.737
 3127TIP3    H1 9322   7.332   2.108   1.755
 3127TIP3    H2 9323   7.440   2.092   1.651
 3128TIP3   OH2 9324   7.360   2.282   2.437
 3128TIP3    H1 9325   7.378   2.345   2.509
 3128TIP3    H2 9326   7.349   2.198   2.486
 3129TIP3   OH2 9327   7.393   1.767   1.150
 3129TIP3    H1 9328   7.401   1.771   1.248
 3129TIP3    H2 9329   7.323   1.833   1.134
 3130TIP3   OH2 9330   6.953   1.803   2.014
 3130TIP3    H1 9331   7.027   1.836   2.069
 3130TIP3    H2 9332   6.998   1.771   1.934
 3131TIP3   OH2 9333   6.929   1.786   1.533
 3131TIP3    H1 9334   6.975   1.824   1.455
 3131TIP3    H2 9335   6.868   1.858   1.554
 3132TIP3   OH2 9336   7.749   1.975   1.820
 3132TIP3    H1 9337   7.664   1.955   1.863
 3132TIP3    H2 9338   7.810   1.974   1.896
 3133TIP3   OH2 9339   7.186   2.015   1.809
 3133TIP3    H1 9340   7.091   2.021   1.782
 3133TIP3    H2 9341   7.209   1.923   1.787
 3134TIP3   OH2 9342   7.465   2.013   1.492
 3134TIP3    H1 9343   7.553   2.032   1.457
 3134TIP3    H2 9344   7.407   2.032   1.416
 3135TIP3   OH2 9345   7.298   2.042   1.281
 3135TIP3    H1 9346   7.219   2.007   1.236
 3135TIP3    H2 9347   7.346   2.080   1.205
 3136TIP3   OH2 9348   7.373   2.834   2.644
 3136TIP3    H1 9349   7.452   2.865   2.693
 3136TIP3    H2 9350   7.307   2.834   2.716
 3137TIP3   OH2 9351  -0.300   3.842   3.493
 3137TIP3    H1 9352  -0.287   3.780   3.419
 3137TIP3    H2 9353  -0.309   3.777   3.567
 3138TIP3   OH2 9354   7.359   1.776   1.770
 3138TIP3    H1 9355   7.325   1.699   1.821
 3138TIP3    H2 9356   7.439   1.739   1.729
 3139TIP3   OH2 9357   7.799   2.209   2.182
 3139TIP3    H1 9358   7.707   2.222   2.214
 3139TIP3    H2 9359   7.855   2.240   2.253
 3140TIP3   OH2 9360   7.552   2.575   1.290
 3140TIP3    H1 9361   7.479   2.511   1.278
 3140TIP3    H2 9362   7.533   2.609   1.381
 3141TIP3   OH2 9363   7.941   2.893   2.277
 3141TIP3    H1 9364   7.950   2.870   2.369
 3141TIP3    H2 9365   7.902   2.982   2.280
 3142TIP3   OH2 9366   7.243   2.599   1.962
 3142TIP3    H1 9367   7.276   2.569   1.875
 3142TIP3    H2 9368   7.276   2.531   2.022
 3143TIP3   OH2 9369   7.672   2.721   1.091
 3143TIP3    H1 9370   7.638   2.812   1.108
 3143TIP3    H2 9371   7.632   2.671   1.165
 3144TIP3   OH2 9372   7.123   2.517   2.572
 3144TIP3    H1 9373   7.142   2.505   2.667
 3144TIP3    H2 9374   7.052   2.452   2.558
 3145TIP3   OH2 9375   7.846   2.626   2.591
 3145TIP3    H1 9376   7.780   2.566   2.550
 3145TIP3    H2 9377   7.929   2.586   2.561
 3146TIP3   OH2 9378   8.094   3.164   2.185
 3146TIP3    H1 9379   7.997   3.161   2.187
 3146TIP3    H2 9380   8.113   3.224   2.257
 3147TIP3   OH2 9381   7.341   2.902   1.582
 3147TIP3    H1 9382   7.338   2.985   1.530
 3147TIP3    H2 9383   7.247   2.885   1.596
 3148TIP3   OH2 9384   6.905   2.205   1.287
 3148TIP3    H1 9385   6.950   2.290   1.307
 3148TIP3    H2 9386   6.828   2.210   1.347
 3149TIP3   OH2 9387   7.483   2.670   1.533
 3149TIP3    H1 9388   7.444   2.758   1.549
 3149TIP3    H2 9389   7.443   2.617   1.604
 3150TIP3   OH2 9390   7.607   3.247   2.055
 3150TIP3    H1 9391   7.647   3.320   2.003
 3150TIP3    H2 9392   7.686   3.209   2.097
 3151TIP3   OH2 9393   7.263   3.140   1.438
 3151TIP3    H1 9394   7.177   3.149   1.483
 3151TIP3    H2 9395   7.295   3.233   1.439
 3152TIP3   OH2 9396   7.331   2.026   2.584
 3152TIP3    H1 9397   7.235   2.028   2.598
 3152TIP3    H2 9398   7.361   1.964   2.653
 3153TIP3   OH2 9399   7.050   3.108   2.213
 3153TIP3    H1 9400   7.102   3.034   2.246
 3153TIP3    H2 9401   7.076   3.178   2.274
 3154TIP3   OH2 9402   7.342   2.754   0.893
 3154TIP3    H1 9403   7.352   2.661   0.866
 3154TIP3    H2 9404   7.323   2.744   0.989
 3155TIP3   OH2 9405   7.288   2.757   1.165
 3155TIP3    H1 9406   7.358   2.732   1.226
 3155TIP3    H2 9407   7.290   2.855   1.173
 3156TIP3   OH2 9408   7.021   2.453   1.369
 3156TIP3    H1 9409   6.955   2.497   1.427
 3156TIP3    H2 9410   7.035   2.523   1.302
 3157TIP3   OH2 9411   7.551   2.962   1.121
 3157TIP3    H1 9412   7.461   2.987   1.153
 3157TIP3    H2 9413   7.565   3.032   1.056
 3158TIP3   OH2 9414   7.292   3.030   1.182
 3158TIP3    H1 9415   7.261   3.099   1.119
 3158TIP3    H2 9416   7.276   3.075   1.268
 3159TIP3   OH2 9417   7.392   1.750   1.424
 3159TIP3    H1 9418   7.393   1.837   1.468
 3159TIP3    H2 9419   7.481   1.719   1.444
 3160TIP3   OH2 9420   7.011   2.661   1.176
 3160TIP3    H1 9421   7.071   2.737   1.186
 3160TIP3    H2 9422   7.060   2.611   1.107
 3161TIP3   OH2 9423   6.960   1.938   1.305
 3161TIP3    H1 9424   6.955   2.035   1.303
 3161TIP3    H2 9425   6.873   1.913   1.270
 3162TIP3   OH2 9426   7.332   1.659   2.185
 3162TIP3    H1 9427   7.312   1.622   2.097
 3162TIP3    H2 9428   7.332   1.579   2.242
 3163TIP3   OH2 9429   6.884   2.872   1.565
 3163TIP3    H1 9430   6.811   2.906   1.618
 3163TIP3    H2 9431   6.863   2.913   1.477
 3164TIP3   OH2 9432   7.038   3.415   2.635
 3164TIP3    H1 9433   7.125   3.415   2.682
 3164TIP3    H2 9434   7.018   3.319   2.634
 3165TIP3   OH2 9435   7.521   3.382   2.680
 3165TIP3    H1 9436   7.616   3.366   2.688
 3165TIP3    H2 9437   7.498   3.324   2.605
 3166TIP3   OH2 9438   7.512   2.952   0.810
 3166TIP3    H1 9439   7.446   2.888   0.845
 3166TIP3    H2 9440   7.592   2.897   0.810
 3167TIP3   OH2 9441   7.171   2.822   2.834
 3167TIP3    H1 9442   7.186   2.726   2.841
 3167TIP3    H2 9443   7.083   2.825   2.791
 3168TIP3   OH2 9444   7.150   2.475   1.024
 3168TIP3    H1 9445   7.202   2.444   1.100
 3168TIP3    H2 9446   7.220   2.481   0.956
 3169TIP3   OH2 9447   7.788   2.907   2.604
 3169TIP3    H1 9448   7.736   2.925   2.523
 3169TIP3    H2 9449   7.804   2.810   2.598
 3170TIP3   OH2 9450   7.670   2.656   0.826
 3170TIP3    H1 9451   7.683   2.691   0.917
 3170TIP3    H2 9452   7.617   2.578   0.847
 3171TIP3   OH2 9453   7.290   2.555   2.816
 3171TIP3    H1 9454   7.364   2.495   2.800
 3171TIP3    H2 9455   7.314   2.590   2.904
 3172TIP3   OH2 9456   7.355   2.378   1.250
 3172TIP3    H1 9457   7.329   2.339   1.336
 3172TIP3    H2 9458   7.392   2.300   1.203
 3173TIP3   OH2 9459   7.627   2.449   2.483
 3173TIP3    H1 9460   7.544   2.501   2.490
 3173TIP3    H2 9461   7.662   2.477   2.397
 3174TIP3   OH2 9462   7.452   2.165   1.091
 3174TIP3    H1 9463   7.427   2.170   0.997
 3174TIP3    H2 9464   7.548   2.167   1.085
 3175TIP3   OH2 9465   7.734   2.224   2.605
 3175TIP3    H1 9466   7.738   2.147   2.546
 3175TIP3    H2 9467   7.694   2.292   2.548
 3176TIP3   OH2 9468   7.749   2.028   2.404
 3176TIP3    H1 9469   7.770   2.043   2.311
 3176TIP3    H2 9470   7.655   1.997   2.396
 3177TIP3   OH2 9471   7.787   2.551   2.274
 3177TIP3    H1 9472   7.789   2.503   2.190
 3177TIP3    H2 9473   7.729   2.627   2.250
 3178TIP3   OH2 9474   7.621   2.346   2.832
 3178TIP3    H1 9475   7.554   2.277   2.851
 3178TIP3    H2 9476   7.656   2.315   2.746
 3179TIP3   OH2 9477   7.871   1.782   2.475
 3179TIP3    H1 9478   7.821   1.864   2.457
 3179TIP3    H2 9479   7.803   1.713   2.462
 3180TIP3   OH2 9480   7.986   2.297   2.692
 3180TIP3    H1 9481   7.988   2.291   2.789
 3180TIP3    H2 9482   7.894   2.268   2.675
 3181TIP3   OH2 9483   7.465   2.125   2.886
 3181TIP3    H1 9484   7.469   2.033   2.852
 3181TIP3    H2 9485   7.500   2.112   2.977
 3182TIP3   OH2 9486   7.999   1.969   2.937
 3182TIP3    H1 9487   7.997   1.922   2.853
 3182TIP3    H2 9488   7.949   2.051   2.918
 3183TIP3   OH2 9489   7.254   3.231   0.995
 3183TIP3    H1 9490   7.350   3.227   0.979
 3183TIP3    H2 9491   7.228   3.284   0.918
 3184TIP3   OH2 9492   6.743   2.615   1.213
 3184TIP3    H1 9493   6.838   2.637   1.199
 3184TIP3    H2 9494   6.738   2.526   1.171
 3185TIP3   OH2 9495   6.658   3.228   1.623
 3185TIP3    H1 9496   6.590   3.166   1.588
 3185TIP3    H2 9497   6.701   3.171   1.691
 3186TIP3   OH2 9498   6.795   3.081   1.810
 3186TIP3    H1 9499   6.781   3.007   1.872
 3186TIP3    H2 9500   6.845   3.142   1.867
 3187TIP3   OH2 9501   6.981   2.485   2.184
 3187TIP3    H1 9502   6.979   2.457   2.090
 3187TIP3    H2 9503   7.079   2.487   2.200
 3188TIP3   OH2 9504   7.198   2.174   2.858
 3188TIP3    H1 9505   7.296   2.167   2.859
 3188TIP3    H2 9506   7.174   2.089   2.899
 3189TIP3   OH2 9507   7.156   1.869   2.190
 3189TIP3    H1 9508   7.215   1.791   2.199
 3189TIP3    H2 9509   7.221   1.940   2.184
 3190TIP3   OH2 9510   6.963   2.140   2.262
 3190TIP3    H1 9511   7.013   2.133   2.178
 3190TIP3    H2 9512   6.991   2.226   2.294
 3191TIP3   OH2 9513   6.944   1.641   1.760
 3191TIP3    H1 9514   6.852   1.641   1.789
 3191TIP3    H2 9515   6.943   1.702   1.684
 3192TIP3   OH2 9516   7.165   1.726   2.580
 3192TIP3    H1 9517   7.113   1.719   2.662
 3192TIP3    H2 9518   7.098   1.761   2.518
 3193TIP3   OH2 9519   7.207   3.147   2.655
 3193TIP3    H1 9520   7.114   3.121   2.638
 3193TIP3    H2 9521   7.215   3.133   2.750
 3194TIP3   OH2 9522   7.383   3.179   2.201
 3194TIP3    H1 9523   7.333   3.254   2.163
 3194TIP3    H2 9524   7.469   3.196   2.158
 3195TIP3   OH2 9525   7.824   3.418   2.346
 3195TIP3    H1 9526   7.871   3.423   2.433
 3195TIP3    H2 9527   7.873   3.485   2.294
 3196TIP3   OH2 9528   7.965   3.589   2.189
 3196TIP3    H1 9529   8.023   3.543   2.127
 3196TIP3    H2 9530   8.030   3.636   2.245
 3197TIP3   OH2 9531   7.060   3.438   2.226
 3197TIP3    H1 9532   6.972   3.473   2.201
 3197TIP3    H2 9533   7.070   3.476   2.314
 3198TIP3   OH2 9534   7.296   3.416   2.082
 3198TIP3    H1 9535   7.210   3.430   2.127
 3198TIP3    H2 9536   7.277   3.451   1.993
 3199TIP3   OH2 9537   7.715   3.451   1.877
 3199TIP3    H1 9538   7.641   3.470   1.817
 3199TIP3    H2 9539   7.726   3.538   1.921
 3200TIP3   OH2 9540   7.970   3.345   1.889
 3200TIP3    H1 9541   7.881   3.386   1.887
 3200TIP3    H2 9542   8.027   3.420   1.911
 3201TIP3   OH2 9543   6.972   3.233   1.970
 3201TIP3    H1 9544   6.998   3.209   2.062
 3201TIP3    H2 9545   7.044   3.188   1.920
 3202TIP3   OH2 9546   7.165   3.104   1.826
 3202TIP3    H1 9547   7.181   3.021   1.876
 3202TIP3    H2 9548   7.255   3.142   1.820
 3203TIP3   OH2 9549   7.431   3.200   1.828
 3203TIP3    H1 9550   7.463   3.108   1.818
 3203TIP3    H2 9551   7.472   3.222   1.914
 3204TIP3   OH2 9552   7.259   1.565   1.932
 3204TIP3    H1 9553   7.167   1.531   1.936
 3204TIP3    H2 9554   7.309   1.480   1.929
 3205TIP3   OH2 9555   7.040   1.433   1.582
 3205TIP3    H1 9556   7.068   1.496   1.514
 3205TIP3    H2 9557   7.011   1.494   1.654
 3206TIP3   OH2 9558   7.665   1.678   1.760
 3206TIP3    H1 9559   7.754   1.717   1.761
 3206TIP3    H2 9560   7.665   1.629   1.844
 3207TIP3   OH2 9561   6.761   3.003   1.363
 3207TIP3    H1 9562   6.675   2.971   1.329
 3207TIP3    H2 9563   6.749   3.098   1.347
 3208TIP3   OH2 9564   7.159   1.597   1.337
 3208TIP3    H1 9565   7.213   1.517   1.334
 3208TIP3    H2 9566   7.221   1.660   1.377
 3209TIP3   OH2 9567   7.519   3.195   0.949
 3209TIP3    H1 9568   7.609   3.228   0.927
 3209TIP3    H2 9569   7.510   3.125   0.880
 3210TIP3   OH2 9570   7.462   1.849   2.824
 3210TIP3    H1 9571   7.428   1.776   2.878
 3210TIP3    H2 9572   7.556   1.847   2.850
 3211TIP3   OH2 9573   7.708   1.842   2.946
 3211TIP3    H1 9574   7.789   1.809   2.905
 3211TIP3    H2 9575   7.689   1.773   3.013
 3212TIP3   OH2 9576   6.835   3.030   1.001
 3212TIP3    H1 9577   6.834   3.060   1.093
 3212TIP3    H2 9578   6.925   2.991   0.992
 3213TIP3   OH2 9579   0.400   3.362   3.193
 3213TIP3    H1 9580   0.369   3.452   3.172
 3213TIP3    H2 9581   0.323   3.310   3.164
 3214TIP3   OH2 9582   0.402   3.359   3.571
 3214TIP3    H1 9583   0.429   3.329   3.660
 3214TIP3    H2 9584   0.356   3.280   3.538
 3215TIP3   OH2 9585  -0.286   3.239   3.917
 3215TIP3    H1 9586  -0.269   3.181   3.993
 3215TIP3    H2 9587  -0.236   3.318   3.940
 3216TIP3   OH2 9588   0.641   3.656   3.256
 3216TIP3    H1 9589   0.630   3.578   3.312
 3216TIP3    H2 9590   0.613   3.727   3.315
 3217TIP3   OH2 9591  -0.318   3.637   3.670
 3217TIP3    H1 9592  -0.327   3.539   3.675
 3217TIP3    H2 9593  -0.221   3.645   3.662
 3218TIP3   OH2 9594  -0.544   3.148   3.615
 3218TIP3    H1 9595  -0.521   3.093   3.692
 3218TIP3    H2 9596  -0.455   3.165   3.582
 3219TIP3   OH2 9597   0.290   4.125   3.271
 3219TIP3    H1 9598   0.340   4.054   3.226
 3219TIP3    H2 9599   0.273   4.086   3.358
 3220TIP3   OH2 9600   0.204   3.585   3.622
 3220TIP3    H1 9601   0.239   3.507   3.576
 3220TIP3    H2 9602   0.289   3.628   3.646
 3221TIP3   OH2 9603   1.209   2.906   3.620
 3221TIP3    H1 9604   1.238   2.988   3.666
 3221TIP3    H2 9605   1.229   2.928   3.528
 3222TIP3   OH2 9606   0.611   3.089   3.656
 3222TIP3    H1 9607   0.651   3.003   3.677
 3222TIP3    H2 9608   0.579   3.073   3.565
 3223TIP3   OH2 9609  -0.047   2.748   3.623
 3223TIP3    H1 9610  -0.072   2.822   3.563
 3223TIP3    H2 9611  -0.095   2.674   3.578
 3224TIP3   OH2 9612   0.641   2.837   3.244
 3224TIP3    H1 9613   0.713   2.820   3.309
 3224TIP3    H2 9614   0.693   2.874   3.171
 3225TIP3   OH2 9615  -0.430   2.937   3.744
 3225TIP3    H1 9616  -0.347   2.923   3.793
 3225TIP3    H2 9617  -0.411   2.885   3.663
 3226TIP3   OH2 9618   0.025   3.149   3.512
 3226TIP3    H1 9619   0.116   3.120   3.531
 3226TIP3    H2 9620  -0.019   3.064   3.488
 3227TIP3   OH2 9621   1.282   3.112   3.791
 3227TIP3    H1 9622   1.199   3.160   3.773
 3227TIP3    H2 9623   1.301   3.141   3.882
 3228TIP3   OH2 9624  -0.055   2.729   4.055
 3228TIP3    H1 9625  -0.115   2.766   3.988
 3228TIP3    H2 9626  -0.107   2.746   4.137
 3229TIP3   OH2 9627   0.296   3.585   3.062
 3229TIP3    H1 9628   0.246   3.557   2.984
 3229TIP3    H2 9629   0.250   3.668   3.085
 3230TIP3   OH2 9630   0.051   3.508   3.854
 3230TIP3    H1 9631  -0.013   3.570   3.894
 3230TIP3    H2 9632   0.088   3.560   3.780
 3231TIP3   OH2 9633   0.855   2.837   3.413
 3231TIP3    H1 9634   0.840   2.790   3.496
 3231TIP3    H2 9635   0.906   2.915   3.442
 3232TIP3   OH2 9636  -0.186   2.841   3.842
 3232TIP3    H1 9637  -0.126   2.916   3.865
 3232TIP3    H2 9638  -0.136   2.803   3.766
 3233TIP3   OH2 9639  -0.129   3.693   3.963
 3233TIP3    H1 9640  -0.166   3.771   3.917
 3233TIP3    H2 9641  -0.206   3.659   4.011
 3234TIP3   OH2 9642   1.002   2.805   3.786
 3234TIP3    H1 9643   0.914   2.836   3.757
 3234TIP3    H2 9644   1.061   2.838   3.715
 3235TIP3   OH2 9645   0.303   2.451   3.770
 3235TIP3    H1 9646   0.287   2.356   3.783
 3235TIP3    H2 9647   0.225   2.489   3.815
 3236TIP3   OH2 9648   0.423   3.950   3.106
 3236TIP3    H1 9649   0.468   3.867   3.078
 3236TIP3    H2 9650   0.482   4.016   3.061
 3237TIP3   OH2 9651   0.561   3.735   3.003
 3237TIP3    H1 9652   0.514   3.660   2.963
 3237TIP3    H2 9653   0.598   3.695   3.084
 3238TIP3   OH2 9654   0.935   3.819   3.767
 3238TIP3    H1 9655   0.929   3.733   3.718
 3238TIP3    H2 9656   0.902   3.881   3.702
 3239TIP3   OH2 9657   0.231   3.212   3.024
 3239TIP3    H1 9658   0.149   3.261   3.006
 3239TIP3    H2 9659   0.273   3.208   2.937
 3240TIP3   OH2 9660   0.191   2.995   2.747
 3240TIP3    H1 9661   0.261   3.045   2.792
 3240TIP3    H2 9662   0.243   2.928   2.698
 3241TIP3   OH2 9663   1.131   3.451   3.610
 3241TIP3    H1 9664   1.050   3.506   3.619
 3241TIP3    H2 9665   1.161   3.477   3.521
 3242TIP3   OH2 9666   0.578   3.293   2.996
 3242TIP3    H1 9667   0.522   3.318   3.074
 3242TIP3    H2 9668   0.661   3.268   3.041
 3243TIP3   OH2 9669   0.813   3.334   3.906
 3243TIP3    H1 9670   0.810   3.416   3.959
 3243TIP3    H2 9671   0.725   3.338   3.863
 3244TIP3   OH2 9672  -0.190   3.290   3.410
 3244TIP3    H1 9673  -0.232   3.231   3.343
 3244TIP3    H2 9674  -0.112   3.236   3.437
 3245TIP3   OH2 9675  -0.058   3.670   3.578
 3245TIP3    H1 9676  -0.069   3.645   3.486
 3245TIP3    H2 9677   0.038   3.657   3.590
 3246TIP3   OH2 9678  -0.031   3.258   3.766
 3246TIP3    H1 9679  -0.012   3.246   3.671
 3246TIP3    H2 9680  -0.004   3.350   3.783
 3247TIP3   OH2 9681   0.498   3.900   3.538
 3247TIP3    H1 9682   0.473   3.977   3.590
 3247TIP3    H2 9683   0.476   3.826   3.598
 3248TIP3   OH2 9684   0.090   3.815   4.087
 3248TIP3    H1 9685   0.036   3.885   4.130
 3248TIP3    H2 9686   0.020   3.761   4.045
 3249TIP3   OH2 9687   0.420   3.151   2.822
 3249TIP3    H1 9688   0.475   3.213   2.875
 3249TIP3    H2 9689   0.447   3.176   2.731
 3250TIP3   OH2 9690  -0.151   3.367   4.197
 3250TIP3    H1 9691  -0.136   3.453   4.240
 3250TIP3    H2 9692  -0.245   3.381   4.172
 3251TIP3   OH2 9693   0.161   3.831   3.096
 3251TIP3    H1 9694   0.233   3.891   3.123
 3251TIP3    H2 9695   0.097   3.892   3.057
 3252TIP3   OH2 9696  -0.099   4.002   4.159
 3252TIP3    H1 9697  -0.148   3.996   4.075
 3252TIP3    H2 9698  -0.169   3.984   4.226
 3253TIP3   OH2 9699   0.932   2.393   2.868
 3253TIP3    H1 9700   0.851   2.411   2.921
 3253TIP3    H2 9701   0.944   2.479   2.822
 3254TIP3   OH2 9702  -0.324   3.131   3.222
 3254TIP3    H1 9703  -0.385   3.177   3.159
 3254TIP3    H2 9704  -0.369   3.046   3.232
 3255TIP3   OH2 9705   0.732   3.760   2.416
 3255TIP3    H1 9706   0.740   3.857   2.404
 3255TIP3    H2 9707   0.825   3.732   2.407
 3256TIP3   OH2 9708   1.179   4.147   3.815
 3256TIP3    H1 9709   1.178   4.055   3.846
 3256TIP3    H2 9710   1.097   4.182   3.855
 3257TIP3   OH2 9711   0.282   3.949   3.945
 3257TIP3    H1 9712   0.283   4.041   3.980
 3257TIP3    H2 9713   0.213   3.908   4.001
 3258TIP3   OH2 9714   0.044   4.080   2.897
 3258TIP3    H1 9715  -0.006   4.062   2.816
 3258TIP3    H2 9716   0.010   4.167   2.925
 3259TIP3   OH2 9717   0.242   3.979   2.539
 3259TIP3    H1 9718   0.303   3.910   2.504
 3259TIP3    H2 9719   0.276   3.989   2.631
 3260TIP3   OH2 9720   0.294   4.025   2.810
 3260TIP3    H1 9721   0.204   4.038   2.849
 3260TIP3    H2 9722   0.340   3.981   2.883
 3261TIP3   OH2 9723   1.066   3.292   4.088
 3261TIP3    H1 9724   0.984   3.305   4.038
 3261TIP3    H2 9725   1.080   3.196   4.078
 3262TIP3   OH2 9726   0.063   2.525   3.896
 3262TIP3    H1 9727  -0.027   2.493   3.871
 3262TIP3    H2 9728   0.038   2.607   3.941
 3263TIP3   OH2 9729   0.595   2.640   4.091
 3263TIP3    H1 9730   0.662   2.613   4.156
 3263TIP3    H2 9731   0.510   2.621   4.137
 3264TIP3   OH2 9732   0.836   3.070   4.010
 3264TIP3    H1 9733   0.785   3.065   4.094
 3264TIP3    H2 9734   0.810   3.157   3.975
 3265TIP3   OH2 9735   0.499   3.202   2.573
 3265TIP3    H1 9736   0.463   3.175   2.485
 3265TIP3    H2 9737   0.576   3.255   2.545
 3266TIP3   OH2 9738   0.204   2.586   2.875
 3266TIP3    H1 9739   0.177   2.578   2.969
 3266TIP3    H2 9740   0.173   2.501   2.841
 3267TIP3   OH2 9741  -0.010   3.039   3.920
 3267TIP3    H1 9742  -0.063   3.064   3.998
 3267TIP3    H2 9743  -0.021   3.119   3.863
 3268TIP3   OH2 9744  -0.127   2.931   3.441
 3268TIP3    H1 9745  -0.221   2.906   3.451
 3268TIP3    H2 9746  -0.110   2.899   3.349
 3269TIP3   OH2 9747   0.370   3.015   3.158
 3269TIP3    H1 9748   0.315   3.085   3.117
 3269TIP3    H2 9749   0.423   2.984   3.082
 3270TIP3   OH2 9750   0.542   3.291   4.243
 3270TIP3    H1 9751   0.521   3.219   4.306
 3270TIP3    H2 9752   0.635   3.308   4.266
 3271TIP3   OH2 9753   0.527   3.043   3.396
 3271TIP3    H1 9754   0.465   3.071   3.326
 3271TIP3    H2 9755   0.559   2.960   3.355
 3272TIP3   OH2 9756  -0.196   3.066   4.134
 3272TIP3    H1 9757  -0.166   3.135   4.195
 3272TIP3    H2 9758  -0.190   2.985   4.189
 3273TIP3   OH2 9759  -0.593   2.602   3.697
 3273TIP3    H1 9760  -0.528   2.633   3.764
 3273TIP3    H2 9761  -0.538   2.551   3.638
 3274TIP3   OH2 9762   0.537   3.289   3.820
 3274TIP3    H1 9763   0.570   3.216   3.763
 3274TIP3    H2 9764   0.507   3.237   3.898
 3275TIP3   OH2 9765   0.205   2.750   3.492
 3275TIP3    H1 9766   0.120   2.747   3.540
 3275TIP3    H2 9767   0.268   2.750   3.566
 3276TIP3   OH2 9768  -0.369   2.803   3.504
 3276TIP3    H1 9769  -0.454   2.801   3.457
 3276TIP3    H2 9770  -0.329   2.717   3.479
 3277TIP3   OH2 9771  -0.083   2.830   3.196
 3277TIP3    H1 9772   0.009   2.822   3.166
 3277TIP3    H2 9773  -0.134   2.827   3.112
 3278TIP3   OH2 9774   0.694   2.824   3.690
 3278TIP3    H1 9775   0.663   2.837   3.782
 3278TIP3    H2 9776   0.628   2.761   3.657
 3279TIP3   OH2 9777  -0.243   2.840   2.978
 3279TIP3    H1 9778  -0.334   2.829   2.948
 3279TIP3    H2 9779  -0.198   2.881   2.902
 3280TIP3   OH2 9780   0.865   4.513   3.914
 3280TIP3    H1 9781   0.867   4.544   3.822
 3280TIP3    H2 9782   0.944   4.557   3.950
 3281TIP3   OH2 9783  -0.155   3.615   4.318
 3281TIP3    H1 9784  -0.084   3.651   4.377
 3281TIP3    H2 9785  -0.223   3.683   4.327
 3282TIP3   OH2 9786   0.288   3.077   3.590
 3282TIP3    H1 9787   0.359   3.035   3.540
 3282TIP3    H2 9788   0.295   3.035   3.678
 3283TIP3   OH2 9789  -0.190   2.571   3.472
 3283TIP3    H1 9790  -0.221   2.493   3.523
 3283TIP3    H2 9791  -0.158   2.523   3.392
 3284TIP3   OH2 9792   0.264   2.973   3.878
 3284TIP3    H1 9793   0.174   3.009   3.892
 3284TIP3    H2 9794   0.320   3.034   3.929
 3285TIP3   OH2 9795   0.005   3.367   2.975
 3285TIP3    H1 9796  -0.064   3.298   2.964
 3285TIP3    H2 9797  -0.014   3.398   3.067
 3286TIP3   OH2 9798   0.902   3.603   3.602
 3286TIP3    H1 9799   0.922   3.646   3.516
 3286TIP3    H2 9800   0.818   3.555   3.582
 3287TIP3   OH2 9801   0.446   2.695   2.827
 3287TIP3    H1 9802   0.352   2.673   2.846
 3287TIP3    H2 9803   0.458   2.783   2.869
 3288TIP3   OH2 9804   0.409   3.688   3.968
 3288TIP3    H1 9805   0.422   3.656   4.058
 3288TIP3    H2 9806   0.359   3.771   3.981
 3289TIP3   OH2 9807   0.531   2.928   2.942
 3289TIP3    H1 9808   0.627   2.933   2.958
 3289TIP3    H2 9809   0.513   3.010   2.890
 3290TIP3   OH2 9810  -0.311   3.370   3.649
 3290TIP3    H1 9811  -0.259   3.335   3.574
 3290TIP3    H2 9812  -0.293   3.307   3.722
 3291TIP3   OH2 9813   0.146   3.515   2.793
 3291TIP3    H1 9814   0.099   3.601   2.800
 3291TIP3    H2 9815   0.092   3.460   2.855
 3292TIP3   OH2 9816   0.298   3.419   4.282
 3292TIP3    H1 9817   0.239   3.359   4.234
 3292TIP3    H2 9818   0.386   3.385   4.254
 3293TIP3   OH2 9819   0.563   3.954   3.859
 3293TIP3    H1 9820   0.468   3.940   3.876
 3293TIP3    H2 9821   0.590   3.995   3.944
 3294TIP3   OH2 9822   0.973   3.013   2.776
 3294TIP3    H1 9823   0.909   2.969   2.714
 3294TIP3    H2 9824   0.970   3.102   2.736
 3295TIP3   OH2 9825   1.187   3.863   3.861
 3295TIP3    H1 9826   1.089   3.863   3.852
 3295TIP3    H2 9827   1.213   3.839   3.769
 3296TIP3   OH2 9828   0.673   3.832   2.683
 3296TIP3    H1 9829   0.645   3.762   2.743
 3296TIP3    H2 9830   0.683   3.785   2.598
 3297TIP3   OH2 9831   0.669   3.462   3.522
 3297TIP3    H1 9832   0.576   3.437   3.538
 3297TIP3    H2 9833   0.702   3.382   3.477
 3298TIP3   OH2 9834  -0.221   3.686   3.266
 3298TIP3    H1 9835  -0.215   3.768   3.213
 3298TIP3    H2 9836  -0.310   3.656   3.245
 3299TIP3   OH2 9837  -0.059   3.456   3.222
 3299TIP3    H1 9838  -0.102   3.542   3.238
 3299TIP3    H2 9839  -0.097   3.402   3.294
 3300TIP3   OH2 9840   0.063   4.033   3.755
 3300TIP3    H1 9841   0.103   4.101   3.698
 3300TIP3    H2 9842   0.140   4.001   3.804
 3301TIP3   OH2 9843  -0.288   3.928   3.135
 3301TIP3    H1 9844  -0.380   3.957   3.127
 3301TIP3    H2 9845  -0.243   4.015   3.137
 3302TIP3   OH2 9846   0.456   3.667   3.700
 3302TIP3    H1 9847   0.443   3.669   3.798
 3302TIP3    H2 9848   0.533   3.610   3.693
 3303TIP3   OH2 9849   0.426   3.558   2.583
 3303TIP3    H1 9850   0.477   3.534   2.664
 3303TIP3    H2 9851   0.336   3.535   2.612
 3304TIP3   OH2 9852   0.711   4.200   3.736
 3304TIP3    H1 9853   0.642   4.132   3.749
 3304TIP3    H2 9854   0.669   4.258   3.671
 3305TIP3   OH2 9855   0.766   4.035   2.405
 3305TIP3    H1 9856   0.804   4.107   2.351
 3305TIP3    H2 9857   0.686   4.082   2.438
 3306TIP3   OH2 9858  -0.207   2.806   4.275
 3306TIP3    H1 9859  -0.303   2.805   4.294
 3306TIP3    H2 9860  -0.174   2.752   4.348
 3307TIP3   OH2 9861   0.586   3.495   2.801
 3307TIP3    H1 9862   0.574   3.429   2.873
 3307TIP3    H2 9863   0.683   3.491   2.790
 3308TIP3   OH2 9864  -0.213   3.549   2.585
 3308TIP3    H1 9865  -0.187   3.460   2.557
 3308TIP3    H2 9866  -0.240   3.528   2.677
 3309TIP3   OH2 9867  -0.265   3.566   2.868
 3309TIP3    H1 9868  -0.192   3.527   2.917
 3309TIP3    H2 9869  -0.246   3.662   2.873
 3310TIP3   OH2 9870  -0.506   3.256   3.062
 3310TIP3    H1 9871  -0.569   3.286   3.128
 3310TIP3    H2 9872  -0.505   3.329   2.998
 3311TIP3   OH2 9873   0.623   2.875   3.949
 3311TIP3    H1 9874   0.700   2.915   3.993
 3311TIP3    H2 9875   0.606   2.795   4.005
 3312TIP3   OH2 9876   0.507   2.626   3.115
 3312TIP3    H1 9877   0.485   2.652   3.024
 3312TIP3    H2 9878   0.540   2.710   3.153
 3313TIP3   OH2 9879   0.006   3.746   2.804
 3313TIP3    H1 9880  -0.079   3.773   2.843
 3313TIP3    H2 9881   0.020   3.819   2.742
 3314TIP3   OH2 9882   0.202   2.805   3.220
 3314TIP3    H1 9883   0.260   2.883   3.205
 3314TIP3    H2 9884   0.196   2.803   3.317
 3315TIP3   OH2 9885   0.462   3.128   4.026
 3315TIP3    H1 9886   0.479   3.183   4.106
 3315TIP3    H2 9887   0.516   3.049   4.044
 3316TIP3   OH2 9888   0.350   2.538   3.334
 3316TIP3    H1 9889   0.333   2.619   3.386
 3316TIP3    H2 9890   0.404   2.574   3.260
 3317TIP3   OH2 9891  -0.243   3.833   2.876
 3317TIP3    H1 9892  -0.284   3.893   2.810
 3317TIP3    H2 9893  -0.273   3.873   2.960
 3318TIP3   OH2 9894  -0.100   2.573   3.049
 3318TIP3    H1 9895  -0.164   2.615   3.108
 3318TIP3    H2 9896  -0.022   2.562   3.108
 3319TIP3   OH2 9897   1.102   3.025   4.008
 3319TIP3    H1 9898   1.004   3.023   4.015
 3319TIP3    H2 9899   1.113   2.987   3.919
 3320TIP3   OH2 9900   0.753   3.222   3.395
 3320TIP3    H1 9901   0.676   3.163   3.408
 3320TIP3    H2 9902   0.824   3.174   3.443
 3321TIP3   OH2 9903  -0.528   3.478   2.894
 3321TIP3    H1 9904  -0.444   3.527   2.883
 3321TIP3    H2 9905  -0.518   3.411   2.824
 3322TIP3   OH2 9906  -0.203   2.446   3.876
 3322TIP3    H1 9907  -0.234   2.410   3.790
 3322TIP3    H2 9908  -0.214   2.368   3.935
 3323TIP3   OH2 9909  -0.017   4.175   4.361
 3323TIP3    H1 9910   0.074   4.150   4.378
 3323TIP3    H2 9911  -0.036   4.121   4.282
 3324TIP3   OH2 9912  -0.043   3.744   2.496
 3324TIP3    H1 9913  -0.104   3.678   2.537
 3324TIP3    H2 9914   0.030   3.685   2.471
 3325TIP3   OH2 9915   0.619   4.072   4.099
 3325TIP3    H1 9916   0.606   4.006   4.171
 3325TIP3    H2 9917   0.694   4.124   4.133
 3326TIP3   OH2 9918   0.393   3.787   2.410
 3326TIP3    H1 9919   0.438   3.724   2.468
 3326TIP3    H2 9920   0.450   3.788   2.330
 3327TIP3   OH2 9921  -0.302   3.315   2.723
 3327TIP3    H1 9922  -0.297   3.245   2.791
 3327TIP3    H2 9923  -0.275   3.267   2.643
 3328TIP3   OH2 9924   0.234   3.695   4.297
 3328TIP3    H1 9925   0.191   3.710   4.211
 3328TIP3    H2 9926   0.263   3.601   4.291
 3329TIP3   OH2 9927   0.108   3.467   2.525
 3329TIP3    H1 9928   0.112   3.478   2.622
 3329TIP3    H2 9929   0.111   3.369   2.518
 3330TIP3   OH2 9930   0.722   3.697   3.903
 3330TIP3    H1 9931   0.794   3.751   3.866
 3330TIP3    H2 9932   0.647   3.758   3.895
 3331TIP3   OH2 9933  -0.260   3.341   4.526
 3331TIP3    H1 9934  -0.193   3.305   4.468
 3331TIP3    H2 9935  -0.208   3.395   4.588
 3332TIP3   OH2 9936  -0.171   3.161   2.954
 3332TIP3    H1 9937  -0.218   3.122   3.029
 3332TIP3    H2 9938  -0.152   3.083   2.898
 3333TIP3   OH2 9939   0.083   3.224   4.169
 3333TIP3    H1 9940   0.002   3.280   4.174
 3333TIP3    H2 9941   0.129   3.261   4.090
 3334TIP3   OH2 9942  -0.083   2.948   2.784
 3334TIP3    H1 9943  -0.103   2.933   2.689
 3334TIP3    H2 9944   0.014   2.962   2.782
 3335TIP3   OH2 9945   0.593   3.632   4.302
 3335TIP3    H1 9946   0.678   3.613   4.260
 3335TIP3    H2 9947   0.590   3.565   4.373
 3336TIP3   OH2 9948   0.733   3.290   2.438
 3336TIP3    H1 9949   0.707   3.243   2.356
 3336TIP3    H2 9950   0.700   3.380   2.416
 3337TIP3   OH2 9951   0.203   3.016   4.296
 3337TIP3    H1 9952   0.200   2.936   4.239
 3337TIP3    H2 9953   0.159   3.083   4.239
 3338TIP3   OH2 9954   0.203   2.803   4.101
 3338TIP3    H1 9955   0.229   2.845   4.017
 3338TIP3    H2 9956   0.109   2.781   4.084
 3339TIP3   OH2 9957   0.233   3.343   3.975
 3339TIP3    H1 9958   0.313   3.348   3.921
 3339TIP3    H2 9959   0.174   3.407   3.931
 3340TIP3   OH2 9960   0.812   3.306   4.356
 3340TIP3    H1 9961   0.864   3.225   4.367
 3340TIP3    H2 9962   0.880   3.369   4.326
 3341TIP3   OH2 9963   0.855   3.557   4.090
 3341TIP3    H1 9964   0.796   3.609   4.032
 3341TIP3    H2 9965   0.942   3.579   4.050
 3342TIP3   OH2 9966   0.080   3.136   4.523
 3342TIP3    H1 9967   0.013   3.067   4.540
 3342TIP3    H2 9968   0.112   3.109   4.435
 3343TIP3   OH2 9969   0.335   2.567   4.167
 3343TIP3    H1 9970   0.285   2.650   4.145
 3343TIP3    H2 9971   0.265   2.500   4.156
 3344TIP3   OH2 9972   0.462   3.073   4.385
 3344TIP3    H1 9973   0.450   3.062   4.481
 3344TIP3    H2 9974   0.371   3.048   4.355
 3345TIP3   OH2 9975   0.699   3.019   4.238
 3345TIP3    H1 9976   0.625   3.024   4.301
 3345TIP3    H2 9977   0.774   2.991   4.295
 3346TIP3   OH2 9978   0.927   2.961   4.390
 3346TIP3    H1 9979   0.940   2.866   4.410
 3346TIP3    H2 9980   0.924   3.002   4.479
 3347TIP3   OH2 9981  -0.070   2.910   4.580
 3347TIP3    H1 9982  -0.065   2.819   4.544
 3347TIP3    H2 9983  -0.032   2.896   4.669
 3348TIP3   OH2 9984   0.431   2.577   4.424
 3348TIP3    H1 9985   0.497   2.506   4.418
 3348TIP3    H2 9986   0.390   2.571   4.335
 3349TIP3   OH2 9987   0.495   2.791   4.587
 3349TIP3    H1 9988   0.473   2.721   4.522
 3349TIP3    H2 9989   0.418   2.851   4.580
 3350TIP3   OH2 9990  -0.289   4.027   2.687
 3350TIP3    H1 9991  -0.194   4.023   2.668
 3350TIP3    H2 9992  -0.321   4.075   2.608
 3351TIP3   OH2 9993   0.968   4.270   3.350
 3351TIP3    H1 9994   1.011   4.357   3.365
 3351TIP3    H2 9995   0.987   4.260   3.255
 3352TIP3   OH2 9996   1.046   3.965   4.152
 3352TIP3    H1 9997   0.975   3.974   4.219
 3352TIP3    H2 9998   1.091   4.051   4.159
 3353TIP3   OH2 9999   0.865   3.477   2.777
 3353TIP3    H110000   0.933   3.541   2.748
 3353TIP3    H210001   0.908   3.438   2.856
 3354TIP3   OH210002   0.992   3.345   2.980
 3354TIP3    H110003   0.927   3.302   3.039
 3354TIP3    H210004   1.057   3.382   3.044
 3355TIP3   OH210005   1.037   3.736   3.400
 3355TIP3    H110006   1.095   3.666   3.365
 3355TIP3    H210007   1.052   3.809   3.338
 3356TIP3   OH210008   0.931   3.252   2.627
 3356TIP3    H110009   0.860   3.256   2.558
 3356TIP3    H210010   0.903   3.327   2.683
 3357TIP3   OH210011   0.803   2.927   2.584
 3357TIP3    H110012   0.762   2.969   2.507
 3357TIP3    H210013   0.780   2.833   2.569
 3358TIP3   OH210014   0.808   3.201   3.128
 3358TIP3    H110015   0.815   3.104   3.122
 3358TIP3    H210016   0.794   3.214   3.224
 3359TIP3   OH210017   1.096   3.626   3.979
 3359TIP3    H110018   1.168   3.559   3.975
 3359TIP3    H210019   1.132   3.699   3.927
 3360TIP3   OH210020   1.280   3.431   4.000
 3360TIP3    H110021   1.208   3.379   4.042
 3360TIP3    H210022   1.355   3.371   4.014
 3361TIP3   OH210023   0.754   2.660   2.556
 3361TIP3    H110024   0.828   2.639   2.616
 3361TIP3    H210025   0.685   2.597   2.587
 3362TIP3   OH210026   0.804   2.917   3.023
 3362TIP3    H110027   0.843   2.827   3.039
 3362TIP3    H210028   0.864   2.949   2.953
 3363TIP3   OH210029   0.965   3.092   3.517
 3363TIP3    H110030   1.051   3.119   3.477
 3363TIP3    H210031   0.978   3.128   3.607
 3364TIP3   OH210032   1.032   3.233   3.749
 3364TIP3    H110033   0.955   3.267   3.798
 3364TIP3    H210034   1.066   3.314   3.705
 3365TIP3   OH210035  -0.338   2.928   4.524
 3365TIP3    H110036  -0.241   2.935   4.535
 3365TIP3    H210037  -0.364   2.876   4.600
 3366TIP3   OH210038   1.484   2.822   4.305
 3366TIP3    H110039   1.545   2.759   4.261
 3366TIP3    H210040   1.456   2.880   4.231
 3367TIP3   OH210041   0.913   2.666   3.058
 3367TIP3    H110042   0.960   2.652   3.143
 3367TIP3    H210043   0.851   2.590   3.058
 3368TIP3   OH210044  -0.393   2.649   3.882
 3368TIP3    H110045  -0.327   2.578   3.894
 3368TIP3    H210046  -0.333   2.726   3.874
 3369TIP3   OH210047   1.358   2.966   4.113
 3369TIP3    H110048   1.273   3.008   4.138
 3369TIP3    H210049   1.325   2.896   4.053
 3370TIP3   OH210050   0.995   2.607   2.691
 3370TIP3    H110051   1.037   2.532   2.644
 3370TIP3    H210052   1.065   2.675   2.687
 3371TIP3   OH210053   0.563   4.132   2.962
 3371TIP3    H110054   0.606   4.118   2.875
 3371TIP3    H210055   0.613   4.207   2.996
 3372TIP3   OH210056  -0.398   2.485   4.267
 3372TIP3    H110057  -0.439   2.472   4.355
 3372TIP3    H210058  -0.420   2.579   4.250
 3373TIP3   OH210059  -0.176   3.967   3.887
 3373TIP3    H110060  -0.212   4.047   3.844
 3373TIP3    H210061  -0.086   3.970   3.850
 3374TIP3   OH210062   0.286   4.213   4.028
 3374TIP3    H110063   0.325   4.214   4.119
 3374TIP3    H210064   0.350   4.268   3.979
 3375TIP3   OH210065   0.464   4.368   3.885
 3375TIP3    H110066   0.535   4.307   3.862
 3375TIP3    H210067   0.511   4.426   3.949
 3376TIP3   OH210068   1.256   2.730   3.988
 3376TIP3    H110069   1.164   2.726   3.955
 3376TIP3    H210070   1.283   2.636   3.977
 3377TIP3   OH210071  -0.244   4.222   3.786
 3377TIP3    H110072  -0.299   4.256   3.858
 3377TIP3    H210073  -0.272   4.279   3.712
 3378TIP3   OH210074   0.178   4.235   3.571
 3378TIP3    H110075   0.109   4.253   3.505
 3378TIP3    H210076   0.188   4.322   3.613
 3379TIP3   OH210077   0.447   4.183   3.610
 3379TIP3    H110078   0.349   4.185   3.601
 3379TIP3    H210079   0.468   4.272   3.580
 3380TIP3   OH210080   0.679   4.356   3.492
 3380TIP3    H110081   0.660   4.453   3.498
 3380TIP3    H210082   0.643   4.342   3.403
 3381TIP3   OH210083   7.793   2.350   1.952
 3381TIP3    H110084   7.790   2.296   2.033
 3381TIP3    H210085   7.855   2.296   1.899
 3382TIP3   OH210086  -0.083   4.027   3.510
 3382TIP3    H110087  -0.135   3.947   3.489
 3382TIP3    H210088  -0.046   4.003   3.597
 3383TIP3   OH210089   0.462   2.646   3.611
 3383TIP3    H110090   0.415   2.578   3.663
 3383TIP3    H210091   0.528   2.593   3.563
 3384TIP3   OH210092   0.986   2.521   3.512
 3384TIP3    H110093   1.021   2.576   3.438
 3384TIP3    H210094   0.890   2.539   3.508
 3385TIP3   OH210095   1.079   2.624   3.275
 3385TIP3    H110096   1.154   2.575   3.235
 3385TIP3    H210097   1.111   2.717   3.262
 3386TIP3   OH210098  -0.290   2.352   3.628
 3386TIP3    H110099  -0.374   2.306   3.619
 3386TIP3    H210100  -0.229   2.275   3.620
 3387TIP3   OH210101   0.160   2.382   3.504
 3387TIP3    H110102   0.214   2.440   3.449
 3387TIP3    H210103   0.167   2.424   3.590
 3388TIP3   OH210104   0.706   2.531   3.487
 3388TIP3    H110105   0.692   2.495   3.399
 3388TIP3    H210106   0.688   2.451   3.543
 3389TIP3   OH210107   0.728   2.451   3.050
 3389TIP3    H110108   0.643   2.497   3.063
 3389TIP3    H210109   0.715   2.371   3.105
 3390TIP3   OH210110   0.155   2.553   3.143
 3390TIP3    H110111   0.209   2.510   3.211
 3390TIP3    H210112   0.172   2.647   3.165
 3391TIP3   OH210113  -0.018   3.983   2.631
 3391TIP3    H110114   0.071   4.006   2.597
 3391TIP3    H210115  -0.039   3.908   2.572
 3392TIP3   OH210116   0.701   4.099   2.726
 3392TIP3    H110117   0.694   4.001   2.714
 3392TIP3    H210118   0.657   4.131   2.645
 3393TIP3   OH210119  -0.085   2.636   4.517
 3393TIP3    H110120  -0.120   2.561   4.569
 3393TIP3    H210121   0.009   2.633   4.546
 3394TIP3   OH210122   0.166   2.633   4.636
 3394TIP3    H110123   0.250   2.605   4.595
 3394TIP3    H210124   0.152   2.560   4.701
 3395TIP3   OH210125   0.990   2.690   4.422
 3395TIP3    H110126   1.010   2.659   4.513
 3395TIP3    H210127   1.079   2.686   4.381
 3396TIP3   OH210128   0.934   4.246   3.907
 3396TIP3    H110129   0.853   4.214   3.865
 3396TIP3    H210130   0.914   4.340   3.918
 3397TIP3   OH210131   2.195   3.613   2.682
 3397TIP3    H110132   2.171   3.706   2.666
 3397TIP3    H210133   2.115   3.569   2.649
 3398TIP3   OH210134   2.194   3.614   3.058
 3398TIP3    H110135   2.225   3.590   3.147
 3398TIP3    H210136   2.151   3.533   3.028
 3399TIP3   OH210137   1.491   3.513   3.426
 3399TIP3    H110138   1.522   3.445   3.490
 3399TIP3    H210139   1.568   3.571   3.424
 3400TIP3   OH210140   2.434   3.917   2.743
 3400TIP3    H110141   2.426   3.850   2.812
 3400TIP3    H210142   2.467   3.994   2.793
 3401TIP3   OH210143   1.460   3.918   3.151
 3401TIP3    H110144   1.458   3.820   3.155
 3401TIP3    H210145   1.557   3.933   3.150
 3402TIP3   OH210146   1.173   3.125   2.937
 3402TIP3    H110147   1.126   3.208   2.952
 3402TIP3    H210148   1.101   3.070   2.902
 3403TIP3   OH210149   1.231   3.412   3.109
 3403TIP3    H110150   1.279   3.335   3.145
 3403TIP3    H210151   1.292   3.443   3.040
 3404TIP3   OH210152   2.083   4.379   2.758
 3404TIP3    H110153   2.131   4.309   2.710
 3404TIP3    H210154   2.084   4.346   2.848
 3405TIP3   OH210155   1.994   3.842   3.109
 3405TIP3    H110156   2.034   3.767   3.062
 3405TIP3    H210157   2.077   3.888   3.134
 3406TIP3   OH210158   3.004   3.162   3.107
 3406TIP3    H110159   3.032   3.244   3.153
 3406TIP3    H210160   3.027   3.184   3.015
 3407TIP3   OH210161   2.403   3.342   3.144
 3407TIP3    H110162   2.448   3.259   3.164
 3407TIP3    H210163   2.376   3.328   3.052
 3408TIP3   OH210164   1.744   3.002   3.107
 3408TIP3    H110165   1.722   3.076   3.047
 3408TIP3    H210166   1.694   2.930   3.063
 3409TIP3   OH210167   2.438   3.092   2.732
 3409TIP3    H110168   2.512   3.079   2.796
 3409TIP3    H210169   2.488   3.129   2.657
 3410TIP3   OH210170   1.377   3.206   3.213
 3410TIP3    H110171   1.459   3.187   3.262
 3410TIP3    H210172   1.391   3.149   3.134
 3411TIP3   OH210173   1.819   3.403   3.004
 3411TIP3    H110174   1.912   3.377   3.018
 3411TIP3    H210175   1.780   3.318   2.973
 3412TIP3   OH210176   3.075   3.365   3.283
 3412TIP3    H110177   2.996   3.419   3.260
 3412TIP3    H210178   3.101   3.404   3.368
 3413TIP3   OH210179   1.740   2.985   3.540
 3413TIP3    H110180   1.679   3.025   3.475
 3413TIP3    H210181   1.690   3.002   3.623
 3414TIP3   OH210182   2.086   3.835   2.551
 3414TIP3    H110183   2.045   3.820   2.465
 3414TIP3    H210184   2.047   3.920   2.576
 3415TIP3   OH210185   1.846   3.761   3.339
 3415TIP3    H110186   1.784   3.826   3.378
 3415TIP3    H210187   1.889   3.814   3.269
 3416TIP3   OH210188   2.650   3.091   2.905
 3416TIP3    H110189   2.636   3.059   2.994
 3416TIP3    H210190   2.703   3.171   2.921
 3417TIP3   OH210191   1.609   3.102   3.326
 3417TIP3    H110192   1.671   3.174   3.351
 3417TIP3    H210193   1.660   3.062   3.252
 3418TIP3   OH210194   1.671   3.953   3.432
 3418TIP3    H110195   1.647   4.041   3.397
 3418TIP3    H210196   1.594   3.939   3.491
 3419TIP3   OH210197   1.070   3.644   2.671
 3419TIP3    H110198   1.029   3.672   2.587
 3419TIP3    H210199   1.100   3.729   2.708
 3420TIP3   OH210200   2.506   4.159   2.909
 3420TIP3    H110201   2.417   4.152   2.949
 3420TIP3    H210202   2.501   4.246   2.865
 3421TIP3   OH210203   2.798   3.055   3.269
 3421TIP3    H110204   2.714   3.097   3.245
 3421TIP3    H210205   2.860   3.094   3.203
 3422TIP3   OH210206   2.099   2.704   3.257
 3422TIP3    H110207   2.079   2.610   3.274
 3422TIP3    H210208   2.022   2.747   3.301
 3423TIP3   OH210209   2.211   4.207   2.584
 3423TIP3    H110210   2.261   4.125   2.564
 3423TIP3    H210211   2.273   4.273   2.545
 3424TIP3   OH210212   2.352   3.992   2.491
 3424TIP3    H110213   2.319   3.912   2.449
 3424TIP3    H210214   2.388   3.956   2.576
 3425TIP3   OH210215   2.734   4.074   3.256
 3425TIP3    H110216   2.726   3.998   3.195
 3425TIP3    H210217   2.719   4.150   3.195
 3426TIP3   OH210218   2.024   3.465   2.510
 3426TIP3    H110219   1.946   3.520   2.489
 3426TIP3    H210220   2.073   3.467   2.426
 3427TIP3   OH210221   1.986   3.250   2.229
 3427TIP3    H110222   2.051   3.303   2.278
 3427TIP3    H210223   2.046   3.189   2.181
 3428TIP3   OH210224   2.929   3.705   3.096
 3428TIP3    H110225   2.848   3.761   3.102
 3428TIP3    H210226   2.962   3.734   3.008
 3429TIP3   OH210227   2.373   3.548   2.484
 3429TIP3    H110228   2.319   3.574   2.563
 3429TIP3    H210229   2.458   3.525   2.526
 3430TIP3   OH210230   2.608   3.590   3.394
 3430TIP3    H110231   2.609   3.673   3.447
 3430TIP3    H210232   2.523   3.599   3.348
 3431TIP3   OH210233   1.605   3.549   2.901
 3431TIP3    H110234   1.565   3.491   2.832
 3431TIP3    H210235   1.683   3.496   2.929
 3432TIP3   OH210236   1.734   3.958   3.050
 3432TIP3    H110237   1.716   3.915   2.965
 3432TIP3    H210238   1.825   3.927   3.070
 3433TIP3   OH210239   1.742   3.520   3.253
 3433TIP3    H110240   1.777   3.501   3.164
 3433TIP3    H210241   1.785   3.605   3.276
 3434TIP3   OH210242   2.265   4.157   3.030
 3434TIP3    H110243   2.255   4.238   3.083
 3434TIP3    H210244   2.251   4.085   3.096
 3435TIP3   OH210245   1.880   4.077   3.576
 3435TIP3    H110246   1.823   4.138   3.626
 3435TIP3    H210247   1.813   4.023   3.530
 3436TIP3   OH210248   2.215   3.407   2.308
 3436TIP3    H110249   2.273   3.468   2.360
 3436TIP3    H210250   2.242   3.431   2.216
 3437TIP3   OH210251   1.633   3.635   3.676
 3437TIP3    H110252   1.640   3.721   3.723
 3437TIP3    H210253   1.539   3.616   3.691
 3438TIP3   OH210254   1.954   4.090   2.586
 3438TIP3    H110255   2.035   4.142   2.603
 3438TIP3    H210256   1.896   4.156   2.546
 3439TIP3   OH210257   1.674   4.243   3.664
 3439TIP3    H110258   1.635   4.243   3.575
 3439TIP3    H210259   1.597   4.225   3.721
 3440TIP3   OH210260   2.730   2.650   2.357
 3440TIP3    H110261   2.650   2.673   2.407
 3440TIP3    H210262   2.746   2.733   2.307
 3441TIP3   OH210263   1.473   3.389   2.703
 3441TIP3    H110264   1.408   3.436   2.646
 3441TIP3    H210265   1.428   3.306   2.719
 3442TIP3   OH210266   2.528   4.017   1.905
 3442TIP3    H110267   2.537   4.114   1.890
 3442TIP3    H210268   2.621   3.988   1.893
 3443TIP3   OH210269   1.251   3.773   3.614
 3443TIP3    H110270   1.197   3.741   3.539
 3443TIP3    H210271   1.293   3.690   3.646
 3444TIP3   OH210272   1.106   3.985   3.261
 3444TIP3    H110273   1.187   3.940   3.233
 3444TIP3    H210274   1.145   4.063   3.304
 3445TIP3   OH210275   2.975   4.420   3.304
 3445TIP3    H110276   2.971   4.323   3.312
 3445TIP3    H210277   2.890   4.445   3.347
 3446TIP3   OH210278   2.077   4.206   3.432
 3446TIP3    H110279   2.078   4.298   3.467
 3446TIP3    H210280   2.008   4.166   3.489
 3447TIP3   OH210281   1.835   4.333   2.387
 3447TIP3    H110282   1.794   4.317   2.300
 3447TIP3    H210283   1.807   4.423   2.409
 3448TIP3   OH210284   1.274   4.184   2.771
 3448TIP3    H110285   1.326   4.174   2.854
 3448TIP3    H210286   1.219   4.105   2.774
 3449TIP3   OH210287   2.039   4.234   2.027
 3449TIP3    H110288   2.099   4.166   1.990
 3449TIP3    H210289   2.074   4.244   2.118
 3450TIP3   OH210290   2.088   4.283   2.298
 3450TIP3    H110291   2.001   4.292   2.342
 3450TIP3    H210292   2.142   4.245   2.370
 3451TIP3   OH210293   2.864   3.548   3.575
 3451TIP3    H110294   2.782   3.564   3.526
 3451TIP3    H210295   2.875   3.451   3.566
 3452TIP3   OH210296   1.458   3.956   3.601
 3452TIP3    H110297   1.509   3.945   3.684
 3452TIP3    H210298   1.384   3.893   3.615
 3453TIP3   OH210299   1.859   2.782   3.381
 3453TIP3    H110300   1.769   2.752   3.357
 3453TIP3    H210301   1.836   2.864   3.428
 3454TIP3   OH210302   2.391   2.891   3.576
 3454TIP3    H110303   2.458   2.874   3.645
 3454TIP3    H210304   2.306   2.878   3.623
 3455TIP3   OH210305   2.629   3.325   3.494
 3455TIP3    H110306   2.582   3.322   3.580
 3455TIP3    H210307   2.608   3.415   3.462
 3456TIP3   OH210308   2.289   3.454   2.052
 3456TIP3    H110309   2.258   3.430   1.963
 3456TIP3    H210310   2.368   3.507   2.030
 3457TIP3   OH210311   2.002   2.831   2.355
 3457TIP3    H110312   1.970   2.829   2.447
 3457TIP3    H210313   1.963   2.748   2.321
 3458TIP3   OH210314   1.787   3.297   3.402
 3458TIP3    H110315   1.741   3.322   3.485
 3458TIP3    H210316   1.774   3.378   3.348
 3459TIP3   OH210317   1.674   3.181   2.916
 3459TIP3    H110318   1.581   3.158   2.934
 3459TIP3    H210319   1.686   3.141   2.827
 3460TIP3   OH210320   2.163   3.266   2.641
 3460TIP3    H110321   2.110   3.339   2.603
 3460TIP3    H210322   2.219   3.241   2.566
 3461TIP3   OH210323   2.337   3.546   3.727
 3461TIP3    H110324   2.317   3.476   3.792
 3461TIP3    H210325   2.429   3.568   3.752
 3462TIP3   OH210326   2.320   3.297   2.886
 3462TIP3    H110327   2.264   3.333   2.815
 3462TIP3    H210328   2.351   3.216   2.840
 3463TIP3   OH210329   1.606   3.326   3.612
 3463TIP3    H110330   1.638   3.390   3.677
 3463TIP3    H210331   1.598   3.245   3.665
 3464TIP3   OH210332   1.656   2.801   2.321
 3464TIP3    H110333   1.650   2.801   2.419
 3464TIP3    H210334   1.580   2.857   2.298
 3465TIP3   OH210335   1.202   2.849   3.190
 3465TIP3    H110336   1.276   2.880   3.245
 3465TIP3    H210337   1.245   2.816   3.110
 3466TIP3   OH210338   1.178   2.830   2.711
 3466TIP3    H110339   1.224   2.868   2.633
 3466TIP3    H210340   1.117   2.903   2.732
 3467TIP3   OH210341   2.326   3.544   3.306
 3467TIP3    H110342   2.362   3.471   3.250
 3467TIP3    H210343   2.301   3.493   3.386
 3468TIP3   OH210344   1.999   2.997   2.979
 3468TIP3    H110345   1.915   3.001   3.028
 3468TIP3    H210346   2.063   3.015   3.049
 3469TIP3   OH210347   1.435   3.061   2.987
 3469TIP3    H110348   1.340   3.069   2.960
 3469TIP3    H210349   1.456   2.968   2.964
 3470TIP3   OH210350   1.707   3.056   2.673
 3470TIP3    H110351   1.800   3.074   2.652
 3470TIP3    H210352   1.659   3.080   2.590
 3471TIP3   OH210353   2.491   3.077   3.174
 3471TIP3    H110354   2.464   3.093   3.268
 3471TIP3    H210355   2.417   3.021   3.145
 3472TIP3   OH210356   1.546   3.087   2.454
 3472TIP3    H110357   1.471   3.047   2.405
 3472TIP3    H210358   1.597   3.126   2.380
 3473TIP3   OH210359   2.661   4.770   3.398
 3473TIP3    H110360   2.661   4.792   3.303
 3473TIP3    H210361   2.740   4.818   3.429
 3474TIP3   OH210362   1.622   3.880   3.821
 3474TIP3    H110363   1.702   3.910   3.869
 3474TIP3    H210364   1.558   3.881   3.895
 3475TIP3   OH210365   2.082   3.326   3.072
 3475TIP3    H110366   2.162   3.298   3.026
 3475TIP3    H210367   2.097   3.293   3.163
 3476TIP3   OH210368   1.608   2.822   2.952
 3476TIP3    H110369   1.574   2.743   2.998
 3476TIP3    H210370   1.658   2.784   2.879
 3477TIP3   OH210371   2.061   3.227   3.370
 3477TIP3    H110372   1.972   3.268   3.380
 3477TIP3    H210373   2.119   3.290   3.418
 3478TIP3   OH210374   1.797   3.621   2.460
 3478TIP3    H110375   1.724   3.556   2.450
 3478TIP3    H210376   1.779   3.655   2.551
 3479TIP3   OH210377   2.701   3.857   3.090
 3479TIP3    H110378   2.725   3.908   3.009
 3479TIP3    H210379   2.615   3.818   3.065
 3480TIP3   OH210380   2.257   2.932   2.321
 3480TIP3    H110381   2.160   2.920   2.326
 3480TIP3    H210382   2.269   3.027   2.343
 3481TIP3   OH210383   2.193   3.936   3.459
 3481TIP3    H110384   2.221   3.918   3.550
 3481TIP3    H210385   2.158   4.027   3.466
 3482TIP3   OH210386   2.327   3.180   2.423
 3482TIP3    H110387   2.423   3.187   2.440
 3482TIP3    H210388   2.308   3.261   2.372
 3483TIP3   OH210389   1.486   3.640   3.137
 3483TIP3    H110390   1.526   3.613   3.052
 3483TIP3    H210391   1.531   3.581   3.200
 3484TIP3   OH210392   1.942   3.770   2.279
 3484TIP3    H110393   1.895   3.856   2.284
 3484TIP3    H210394   1.888   3.716   2.342
 3485TIP3   OH210395   1.369   3.567   3.751
 3485TIP3    H110396   1.397   3.557   3.844
 3485TIP3    H210397   1.304   3.496   3.743
 3486TIP3   OH210398   2.096   3.677   3.767
 3486TIP3    H110399   2.039   3.616   3.718
 3486TIP3    H210400   2.185   3.645   3.741
 3487TIP3   OH210401   2.356   4.194   3.353
 3487TIP3    H110402   2.259   4.198   3.367
 3487TIP3    H210403   2.387   4.247   3.430
 3488TIP3   OH210404   2.766   3.270   2.263
 3488TIP3    H110405   2.704   3.226   2.200
 3488TIP3    H210406   2.765   3.359   2.222
 3489TIP3   OH210407   2.985   4.124   3.346
 3489TIP3    H110408   2.887   4.122   3.336
 3489TIP3    H210409   3.011   4.096   3.255
 3490TIP3   OH210410   2.462   4.090   2.168
 3490TIP3    H110411   2.445   4.018   2.230
 3490TIP3    H210412   2.480   4.043   2.084
 3491TIP3   OH210413   2.463   3.719   3.011
 3491TIP3    H110414   2.369   3.695   3.023
 3491TIP3    H210415   2.497   3.641   2.964
 3492TIP3   OH210416   1.590   3.945   2.760
 3492TIP3    H110417   1.594   4.027   2.707
 3492TIP3    H210418   1.495   3.932   2.767
 3493TIP3   OH210419   1.154   3.250   2.464
 3493TIP3    H110420   1.199   3.335   2.484
 3493TIP3    H210421   1.077   3.256   2.525
 3494TIP3   OH210422   1.729   3.711   2.705
 3494TIP3    H110423   1.696   3.801   2.722
 3494TIP3    H210424   1.694   3.662   2.781
 3495TIP3   OH210425   1.858   4.290   3.230
 3495TIP3    H110426   1.901   4.363   3.181
 3495TIP3    H210427   1.933   4.256   3.282
 3496TIP3   OH210428   1.510   4.186   2.613
 3496TIP3    H110429   1.425   4.197   2.659
 3496TIP3    H210430   1.544   4.278   2.615
 3497TIP3   OH210431   2.247   3.921   3.189
 3497TIP3    H110432   2.239   3.921   3.287
 3497TIP3    H210433   2.332   3.876   3.178
 3498TIP3   OH210434   2.220   3.811   2.072
 3498TIP3    H110435   2.274   3.789   2.151
 3498TIP3    H210436   2.131   3.792   2.105
 3499TIP3   OH210437   2.495   4.459   3.239
 3499TIP3    H110438   2.416   4.404   3.230
 3499TIP3    H210439   2.482   4.525   3.167
 3500TIP3   OH210440   2.562   4.292   1.892
 3500TIP3    H110441   2.600   4.364   1.839
 3500TIP3    H210442   2.482   4.338   1.924
 3501TIP3   OH210443   1.583   3.066   3.758
 3501TIP3    H110444   1.488   3.075   3.776
 3501TIP3    H210445   1.613   3.011   3.832
 3502TIP3   OH210446   2.381   3.750   2.290
 3502TIP3    H110447   2.373   3.684   2.361
 3502TIP3    H210448   2.478   3.748   2.276
 3503TIP3   OH210449   1.290   4.150   3.396
 3503TIP3    H110450   1.351   4.080   3.423
 3503TIP3    H210451   1.321   4.222   3.454
 3504TIP3   OH210452   1.588   3.798   2.071
 3504TIP3    H110453   1.605   3.707   2.042
 3504TIP3    H210454   1.570   3.786   2.166
 3505TIP3   OH210455   1.534   3.802   2.345
 3505TIP3    H110456   1.608   3.778   2.403
 3505TIP3    H210457   1.538   3.900   2.349
 3506TIP3   OH210458   1.270   3.497   2.546
 3506TIP3    H110459   1.205   3.542   2.603
 3506TIP3    H210460   1.286   3.566   2.479
 3507TIP3   OH210461   2.423   3.126   3.432
 3507TIP3    H110462   2.493   3.175   3.479
 3507TIP3    H210463   2.406   3.051   3.492
 3508TIP3   OH210464   2.300   2.884   2.602
 3508TIP3    H110465   2.284   2.908   2.509
 3508TIP3    H210466   2.337   2.968   2.638
 3509TIP3   OH210467   1.798   3.998   2.291
 3509TIP3    H110468   1.713   4.028   2.328
 3509TIP3    H210469   1.818   4.071   2.231
 3510TIP3   OH210470   1.991   3.060   2.705
 3510TIP3    H110471   2.053   3.134   2.686
 3510TIP3    H210472   1.994   3.058   2.803
 3511TIP3   OH210473   2.258   3.383   3.515
 3511TIP3    H110474   2.273   3.442   3.592
 3511TIP3    H210475   2.314   3.307   3.537
 3512TIP3   OH210476   2.137   2.793   2.812
 3512TIP3    H110477   2.120   2.873   2.866
 3512TIP3    H210478   2.193   2.831   2.740
 3513TIP3   OH210479   1.540   4.074   2.358
 3513TIP3    H110480   1.512   4.144   2.295
 3513TIP3    H210481   1.526   4.119   2.445
 3514TIP3   OH210482   1.644   2.789   2.598
 3514TIP3    H110483   1.641   2.880   2.633
 3514TIP3    H210484   1.740   2.771   2.607
 3515TIP3   OH210485   2.896   3.278   3.498
 3515TIP3    H110486   2.798   3.276   3.500
 3515TIP3    H210487   2.914   3.260   3.405
 3516TIP3   OH210488   2.549   3.477   2.882
 3516TIP3    H110489   2.474   3.417   2.897
 3516TIP3    H210490   2.622   3.432   2.930
 3517TIP3   OH210491   1.259   3.708   2.353
 3517TIP3    H110492   1.323   3.781   2.362
 3517TIP3    H210493   1.307   3.655   2.285
 3518TIP3   OH210494   1.205   2.981   2.485
 3518TIP3    H110495   1.206   3.079   2.481
 3518TIP3    H210496   1.119   2.961   2.448
 3519TIP3   OH210497   2.517   4.430   2.832
 3519TIP3    H110498   2.474   4.478   2.757
 3519TIP3    H210499   2.611   4.453   2.813
 3520TIP3   OH210500   1.595   2.702   3.359
 3520TIP3    H110501   1.561   2.668   3.273
 3520TIP3    H210502   1.583   2.624   3.418
 3521TIP3   OH210503   1.133   3.924   2.747
 3521TIP3    H110504   1.049   3.953   2.784
 3521TIP3    H210505   1.122   3.956   2.655
 3522TIP3   OH210506   1.288   4.462   3.810
 3522TIP3    H110507   1.374   4.461   3.859
 3522TIP3    H210508   1.270   4.366   3.806
 3523TIP3   OH210509   1.771   4.436   3.846
 3523TIP3    H110510   1.861   4.409   3.870
 3523TIP3    H210511   1.749   4.370   3.778
 3524TIP3   OH210512   1.752   4.003   1.985
 3524TIP3    H110513   1.697   3.930   2.021
 3524TIP3    H210514   1.828   3.952   1.949
 3525TIP3   OH210515   2.412   4.330   3.586
 3525TIP3    H110516   2.401   4.262   3.657
 3525TIP3    H210517   2.487   4.382   3.619
 3526TIP3   OH210518   2.187   4.043   1.894
 3526TIP3    H110519   2.240   3.985   1.951
 3526TIP3    H210520   2.240   4.045   1.812
 3527TIP3   OH210521   1.421   3.865   4.009
 3527TIP3    H110522   1.436   3.770   4.022
 3527TIP3    H210523   1.331   3.866   3.969
 3528TIP3   OH210524   1.395   3.519   2.204
 3528TIP3    H110525   1.451   3.488   2.277
 3528TIP3    H210526   1.461   3.525   2.132
 3529TIP3   OH210527   2.031   3.953   3.783
 3529TIP3    H110528   1.987   3.967   3.698
 3529TIP3    H210529   2.060   3.860   3.778
 3530TIP3   OH210530   1.901   3.715   2.011
 3530TIP3    H110531   1.907   3.729   2.107
 3530TIP3    H210532   1.900   3.617   2.006
 3531TIP3   OH210533   2.518   3.958   3.389
 3531TIP3    H110534   2.594   4.002   3.347
 3531TIP3    H210535   2.450   4.027   3.378
 3532TIP3   OH210536   1.539   3.594   3.991
 3532TIP3    H110537   1.618   3.541   3.977
 3532TIP3    H210538   1.559   3.633   4.079
 3533TIP3   OH210539   1.604   3.421   2.427
 3533TIP3    H110540   1.578   3.380   2.511
 3533TIP3    H210541   1.640   3.346   2.377
 3534TIP3   OH210542   1.871   3.481   3.650
 3534TIP3    H110543   1.797   3.546   3.657
 3534TIP3    H210544   1.923   3.518   3.575
 3535TIP3   OH210545   1.704   3.212   2.269
 3535TIP3    H110546   1.678   3.219   2.174
 3535TIP3    H210547   1.801   3.219   2.262
 3536TIP3   OH210548   2.387   3.885   3.788
 3536TIP3    H110549   2.472   3.869   3.746
 3536TIP3    H210550   2.387   3.822   3.862
 3537TIP3   OH210551   2.527   3.546   1.930
 3537TIP3    H110552   2.507   3.502   1.845
 3537TIP3    H210553   2.496   3.636   1.908
 3538TIP3   OH210554   1.996   3.274   3.781
 3538TIP3    H110555   1.996   3.194   3.725
 3538TIP3    H210556   1.952   3.340   3.723
 3539TIP3   OH210557   1.999   3.056   3.587
 3539TIP3    H110558   2.026   3.103   3.505
 3539TIP3    H210559   1.905   3.037   3.569
 3540TIP3   OH210560   2.027   3.592   3.457
 3540TIP3    H110561   2.112   3.608   3.414
 3540TIP3    H210562   1.971   3.663   3.417
 3541TIP3   OH210563   2.608   3.562   3.840
 3541TIP3    H110564   2.662   3.484   3.862
 3541TIP3    H210565   2.675   3.625   3.811
 3542TIP3   OH210566   2.651   3.813   3.575
 3542TIP3    H110567   2.591   3.867   3.518
 3542TIP3    H210568   2.738   3.838   3.536
 3543TIP3   OH210569   1.869   3.390   4.005
 3543TIP3    H110570   1.802   3.321   4.024
 3543TIP3    H210571   1.907   3.358   3.921
 3544TIP3   OH210572   2.131   2.821   3.651
 3544TIP3    H110573   2.083   2.905   3.632
 3544TIP3    H210574   2.058   2.756   3.644
 3545TIP3   OH210575   2.259   3.329   3.871
 3545TIP3    H110576   2.252   3.321   3.968
 3545TIP3    H210577   2.168   3.305   3.846
 3546TIP3   OH210578   2.493   3.269   3.723
 3546TIP3    H110579   2.421   3.281   3.787
 3546TIP3    H210580   2.569   3.246   3.781
 3547TIP3   OH210581   2.722   3.214   3.874
 3547TIP3    H110582   2.735   3.121   3.899
 3547TIP3    H210583   2.719   3.260   3.961
 3548TIP3   OH210584   1.712   3.168   4.062
 3548TIP3    H110585   1.722   3.076   4.031
 3548TIP3    H210586   1.747   3.161   4.153
 3549TIP3   OH210587   2.226   2.833   3.909
 3549TIP3    H110588   2.293   2.762   3.905
 3549TIP3    H210589   2.185   2.826   3.821
 3550TIP3   OH210590   2.290   3.049   4.073
 3550TIP3    H110591   2.267   2.980   4.007
 3550TIP3    H210592   2.213   3.109   4.067
 3551TIP3   OH210593   1.510   4.276   2.171
 3551TIP3    H110594   1.606   4.273   2.154
 3551TIP3    H210595   1.482   4.326   2.092
 3552TIP3   OH210596   0.992   3.659   2.390
 3552TIP3    H110597   1.086   3.683   2.375
 3552TIP3    H210598   0.988   3.571   2.348
 3553TIP3   OH210599   0.905   4.273   2.798
 3553TIP3    H110600   0.838   4.210   2.762
 3553TIP3    H210601   0.947   4.217   2.867
 3554TIP3   OH210602   1.033   4.132   2.994
 3554TIP3    H110603   1.040   4.048   3.040
 3554TIP3    H210604   1.101   4.185   3.040
 3555TIP3   OH210605   2.763   4.534   2.787
 3555TIP3    H110606   2.802   4.561   2.872
 3555TIP3    H210607   2.831   4.560   2.724
 3556TIP3   OH210608   2.795   4.546   3.072
 3556TIP3    H110609   2.758   4.456   3.066
 3556TIP3    H210610   2.882   4.526   3.110
 3557TIP3   OH210611   2.845   4.219   3.645
 3557TIP3    H110612   2.770   4.230   3.707
 3557TIP3    H210613   2.886   4.308   3.646
 3558TIP3   OH210614   2.660   3.734   2.263
 3558TIP3    H110615   2.728   3.799   2.234
 3558TIP3    H210616   2.704   3.696   2.342
 3559TIP3   OH210617   2.787   3.600   2.464
 3559TIP3    H110618   2.723   3.561   2.528
 3559TIP3    H210619   2.856   3.638   2.523
 3560TIP3   OH210620   2.840   3.991   2.896
 3560TIP3    H110621   2.896   3.931   2.844
 3560TIP3    H210622   2.837   4.071   2.839
 3561TIP3   OH210623   2.674   4.292   3.096
 3561TIP3    H110624   2.604   4.337   3.145
 3561TIP3    H210625   2.625   4.246   3.025
 3562TIP3   OH210626   2.727   3.507   2.115
 3562TIP3    H110627   2.656   3.512   2.046
 3562TIP3    H210628   2.700   3.584   2.170
 3563TIP3   OH210629   2.598   3.181   2.070
 3563TIP3    H110630   2.559   3.226   1.994
 3563TIP3    H210631   2.570   3.088   2.055
 3564TIP3   OH210632   2.602   3.458   2.615
 3564TIP3    H110633   2.614   3.362   2.611
 3564TIP3    H210634   2.589   3.474   2.711
 3565TIP3   OH210635   1.227   3.542   3.359
 3565TIP3    H110636   1.227   3.507   3.268
 3565TIP3    H210637   1.324   3.539   3.378
 3566TIP3   OH210638   2.893   3.882   3.469
 3566TIP3    H110639   2.967   3.818   3.461
 3566TIP3    H210640   2.920   3.954   3.409
 3567TIP3   OH210641   3.077   3.688   3.488
 3567TIP3    H110642   3.004   3.637   3.530
 3567TIP3    H210643   3.152   3.626   3.502
 3568TIP3   OH210644   2.543   2.915   2.054
 3568TIP3    H110645   2.619   2.887   2.108
 3568TIP3    H210646   2.471   2.856   2.083
 3569TIP3   OH210647   2.598   3.173   2.510
 3569TIP3    H110648   2.640   3.084   2.523
 3569TIP3    H210649   2.656   3.209   2.441
 3570TIP3   OH210650   2.761   3.348   3.004
 3570TIP3    H110651   2.847   3.374   2.963
 3570TIP3    H210652   2.774   3.387   3.092
 3571TIP3   OH210653   2.827   3.490   3.236
 3571TIP3    H110654   2.750   3.527   3.284
 3571TIP3    H210655   2.861   3.570   3.190
 3572TIP3   OH210656   1.445   3.216   4.028
 3572TIP3    H110657   1.543   3.214   4.035
 3572TIP3    H210658   1.423   3.134   4.075
 3573TIP3   OH210659   3.278   3.077   3.792
 3573TIP3    H110660   3.341   3.016   3.748
 3573TIP3    H210661   3.252   3.136   3.719
 3574TIP3   OH210662   2.709   2.924   2.547
 3574TIP3    H110663   2.760   2.909   2.629
 3574TIP3    H210664   2.649   2.846   2.547
 3575TIP3   OH210665   1.408   2.909   3.363
 3575TIP3    H110666   1.471   2.835   3.376
 3575TIP3    H210667   1.470   2.985   3.359
 3576TIP3   OH210668   1.211   3.184   3.438
 3576TIP3    H110669   1.261   3.180   3.354
 3576TIP3    H210670   1.245   3.266   3.476
 3577TIP3   OH210671   3.154   3.224   3.601
 3577TIP3    H110672   3.070   3.265   3.627
 3577TIP3    H210673   3.121   3.155   3.540
 3578TIP3   OH210674   2.790   2.859   2.179
 3578TIP3    H110675   2.833   2.789   2.126
 3578TIP3    H210676   2.856   2.931   2.175
 3579TIP3   OH210677   1.194   2.685   2.938
 3579TIP3    H110678   1.102   2.684   2.967
 3579TIP3    H210679   1.191   2.746   2.861
 3580TIP3   OH210680   2.352   4.391   2.445
 3580TIP3    H110681   2.403   4.377   2.363
 3580TIP3    H210682   2.407   4.455   2.492
 3581TIP3   OH210683   1.414   2.763   3.752
 3581TIP3    H110684   1.366   2.762   3.836
 3581TIP3    H210685   1.347   2.805   3.694
 3582TIP3   OH210686   1.453   4.197   3.829
 3582TIP3    H110687   1.362   4.163   3.822
 3582TIP3    H210688   1.475   4.177   3.922
 3583TIP3   OH210689   1.628   4.223   3.374
 3583TIP3    H110690   1.587   4.304   3.337
 3583TIP3    H210691   1.717   4.235   3.335
 3584TIP3   OH210692   2.079   4.472   3.516
 3584TIP3    H110693   2.119   4.472   3.606
 3584TIP3    H210694   2.146   4.523   3.466
 3585TIP3   OH210695   2.258   4.623   3.374
 3585TIP3    H110696   2.331   4.572   3.334
 3585TIP3    H210697   2.308   4.680   3.436
 3586TIP3   OH210698   3.053   2.989   3.476
 3586TIP3    H110699   2.962   2.989   3.442
 3586TIP3    H210700   3.079   2.895   3.463
 3587TIP3   OH210701   1.307   4.479   3.403
 3587TIP3    H110702   1.219   4.515   3.382
 3587TIP3    H210703   1.326   4.521   3.488
 3588TIP3   OH210704   1.545   4.460   3.259
 3588TIP3    H110705   1.458   4.474   3.303
 3588TIP3    H210706   1.527   4.496   3.170
 3589TIP3   OH210707   1.971   4.493   3.057
 3589TIP3    H110708   1.904   4.515   2.991
 3589TIP3    H210709   1.985   4.579   3.102
 3590TIP3   OH210710   2.240   4.429   3.107
 3590TIP3    H110711   2.146   4.449   3.088
 3590TIP3    H210712   2.285   4.506   3.069
 3591TIP3   OH210713   2.445   4.623   3.025
 3591TIP3    H110714   2.433   4.708   2.977
 3591TIP3    H210715   2.475   4.563   2.953
 3592TIP3   OH210716   1.216   4.269   3.149
 3592TIP3    H110717   1.250   4.259   3.240
 3592TIP3    H210718   1.292   4.230   3.099
 3593TIP3   OH210719   1.412   4.148   3.003
 3593TIP3    H110720   1.432   4.065   3.051
 3593TIP3    H210721   1.502   4.188   2.997
 3594TIP3   OH210722   1.677   4.244   3.008
 3594TIP3    H110723   1.712   4.154   2.994
 3594TIP3    H210724   1.722   4.267   3.091
 3595TIP3   OH210725   2.258   2.906   3.099
 3595TIP3    H110726   2.209   2.838   3.148
 3595TIP3    H210727   2.324   2.855   3.048
 3596TIP3   OH210728   2.779   2.774   3.000
 3596TIP3    H110729   2.822   2.828   2.929
 3596TIP3    H210730   2.688   2.807   2.996
 3597TIP3   OH210731   2.874   2.878   2.765
 3597TIP3    H110732   2.948   2.829   2.722
 3597TIP3    H210733   2.906   2.970   2.751
 3598TIP3   OH210734   1.506   2.609   3.109
 3598TIP3    H110735   1.413   2.577   3.113
 3598TIP3    H210736   1.554   2.523   3.106
 3599TIP3   OH210737   1.287   2.479   2.754
 3599TIP3    H110738   1.319   2.539   2.685
 3599TIP3    H210739   1.260   2.542   2.824
 3600TIP3   OH210740   1.952   2.637   2.991
 3600TIP3    H110741   2.005   2.695   2.934
 3600TIP3    H210742   1.958   2.682   3.077
 3601TIP3   OH210743   2.490   2.775   2.977
 3601TIP3    H110744   2.494   2.776   2.881
 3601TIP3    H210745   2.455   2.687   2.995
 3602TIP3   OH210746   2.524   2.711   2.537
 3602TIP3    H110747   2.438   2.756   2.547
 3602TIP3    H210748   2.506   2.625   2.581
 3603TIP3   OH210749   1.007   4.048   2.543
 3603TIP3    H110750   0.922   4.016   2.506
 3603TIP3    H210751   0.998   4.143   2.523
 3604TIP3   OH210752   1.407   2.638   2.523
 3604TIP3    H110753   1.457   2.578   2.464
 3604TIP3    H210754   1.479   2.694   2.559
 3605TIP3   OH210755   1.922   2.811   2.622
 3605TIP3    H110756   1.983   2.766   2.683
 3605TIP3    H210757   1.942   2.905   2.645
 3606TIP3   OH210758   1.780   4.241   2.121
 3606TIP3    H110759   1.869   4.262   2.086
 3606TIP3    H210760   1.758   4.166   2.061
 3607TIP3   OH210761   2.497   4.356   2.213
 3607TIP3    H110762   2.488   4.258   2.201
 3607TIP3    H210763   2.454   4.388   2.132
 3608TIP3   OH210764   1.714   2.887   3.997
 3608TIP3    H110765   1.677   2.821   4.057
 3608TIP3    H210766   1.807   2.889   4.028
 3609TIP3   OH210767   1.960   2.885   4.119
 3609TIP3    H110768   2.048   2.863   4.084
 3609TIP3    H210769   1.949   2.815   4.188
 3610TIP3   OH210770   1.083   4.072   2.178
 3610TIP3    H110771   1.085   4.106   2.268
 3610TIP3    H210772   1.173   4.034   2.166
 3611TIP3   OH210773   2.785   2.943   3.908
 3611TIP3    H110774   2.804   2.915   4.000
 3611TIP3    H210775   2.875   2.944   3.869
 3612TIP3   OH210776   2.725   4.501   3.403
 3612TIP3    H110777   2.648   4.470   3.353
 3612TIP3    H210778   2.708   4.597   3.404
 3613TIP3   OH210779   3.992   3.871   2.168
 3613TIP3    H110780   3.966   3.964   2.150
 3613TIP3    H210781   3.912   3.825   2.137
 3614TIP3   OH210782   4.000   3.868   2.541
 3614TIP3    H110783   4.021   3.844   2.632
 3614TIP3    H210784   3.947   3.792   2.511
 3615TIP3   OH210785   3.291   3.770   2.915
 3615TIP3    H110786   3.327   3.704   2.977
 3615TIP3    H210787   3.365   3.832   2.908
 3616TIP3   OH210788   4.233   4.174   2.229
 3616TIP3    H110789   4.219   4.106   2.295
 3616TIP3    H210790   4.261   4.250   2.282
 3617TIP3   OH210791   3.246   4.150   2.693
 3617TIP3    H110792   3.264   4.059   2.661
 3617TIP3    H210793   3.313   4.201   2.643
 3618TIP3   OH210794   2.968   3.375   2.425
 3618TIP3    H110795   2.928   3.463   2.442
 3618TIP3    H210796   2.893   3.330   2.383
 3619TIP3   OH210797   3.025   3.664   2.587
 3619TIP3    H110798   3.077   3.592   2.629
 3619TIP3    H210799   3.093   3.713   2.539
 3620TIP3   OH210800   3.881   4.639   2.243
 3620TIP3    H110801   3.930   4.566   2.200
 3620TIP3    H210802   3.869   4.606   2.333
 3621TIP3   OH210803   3.800   4.092   2.602
 3621TIP3    H110804   3.836   4.022   2.546
 3621TIP3    H210805   3.883   4.140   2.624
 3622TIP3   OH210806   4.802   3.419   2.594
 3622TIP3    H110807   4.830   3.501   2.638
 3622TIP3    H210808   4.822   3.439   2.501
 3623TIP3   OH210809   4.200   3.600   2.631
 3623TIP3    H110810   4.244   3.515   2.650
 3623TIP3    H210811   4.172   3.586   2.539
 3624TIP3   OH210812   3.538   3.258   2.595
 3624TIP3    H110813   3.519   3.332   2.534
 3624TIP3    H210814   3.489   3.187   2.549
 3625TIP3   OH210815   4.233   3.350   2.218
 3625TIP3    H110816   4.305   3.333   2.283
 3625TIP3    H210817   4.285   3.386   2.144
 3626TIP3   OH210818   3.172   3.461   2.701
 3626TIP3    H110819   3.255   3.445   2.749
 3626TIP3    H210820   3.188   3.407   2.621
 3627TIP3   OH210821   3.615   3.658   2.491
 3627TIP3    H110822   3.709   3.633   2.506
 3627TIP3    H210823   3.576   3.574   2.460
 3628TIP3   OH210824   4.875   3.625   2.765
 3628TIP3    H110825   4.792   3.674   2.744
 3628TIP3    H210826   4.890   3.654   2.856
 3629TIP3   OH210827   3.535   3.242   3.028
 3629TIP3    H110828   3.476   3.282   2.961
 3629TIP3    H210829   3.484   3.261   3.110
 3630TIP3   OH210830   3.887   4.095   2.035
 3630TIP3    H110831   3.839   4.073   1.955
 3630TIP3    H210832   3.844   4.179   2.060
 3631TIP3   OH210833   3.641   4.020   2.828
 3631TIP3    H110834   3.580   4.088   2.865
 3631TIP3    H210835   3.676   4.066   2.749
 3632TIP3   OH210836   4.446   3.350   2.387
 3632TIP3    H110837   4.433   3.306   2.472
 3632TIP3    H210838   4.498   3.428   2.413
 3633TIP3   OH210839   3.406   3.358   2.814
 3633TIP3    H110840   3.467   3.431   2.838
 3633TIP3    H210841   3.456   3.318   2.738
 3634TIP3   OH210842   3.472   4.222   2.917
 3634TIP3    H110843   3.436   4.261   2.835
 3634TIP3    H210844   3.390   4.215   2.971
 3635TIP3   OH210845   2.865   3.901   2.158
 3635TIP3    H110846   2.826   3.931   2.074
 3635TIP3    H210847   2.898   3.985   2.196
 3636TIP3   OH210848   4.307   4.417   2.397
 3636TIP3    H110849   4.218   4.408   2.439
 3636TIP3    H210850   4.297   4.503   2.352
 3637TIP3   OH210851   4.595   3.317   2.759
 3637TIP3    H110852   4.508   3.349   2.730
 3637TIP3    H210853   4.654   3.351   2.689
 3638TIP3   OH210854   3.894   2.964   2.741
 3638TIP3    H110855   3.880   2.869   2.758
 3638TIP3    H210856   3.817   3.002   2.788
 3639TIP3   OH210857   4.013   4.464   2.075
 3639TIP3    H110858   4.060   4.382   2.052
 3639TIP3    H210859   4.072   4.529   2.033
 3640TIP3   OH210860   4.152   4.249   1.976
 3640TIP3    H110861   4.107   4.172   1.939
 3640TIP3    H210862   4.186   4.213   2.061
 3641TIP3   OH210863   4.532   4.331   2.741
 3641TIP3    H110864   4.520   4.254   2.682
 3641TIP3    H210865   4.513   4.406   2.680
 3642TIP3   OH210866   3.821   3.722   1.997
 3642TIP3    H110867   3.742   3.776   1.977
 3642TIP3    H210868   3.868   3.723   1.911
 3643TIP3   OH210869   3.782   3.507   1.716
 3643TIP3    H110870   3.847   3.560   1.765
 3643TIP3    H210871   3.841   3.445   1.668
 3644TIP3   OH210872   4.726   3.966   2.585
 3644TIP3    H110873   4.643   4.018   2.590
 3644TIP3    H210874   4.756   3.992   2.495
 3645TIP3   OH210875   4.170   3.805   1.970
 3645TIP3    H110876   4.115   3.831   2.048
 3645TIP3    H210877   4.254   3.782   2.014
 3646TIP3   OH210878   4.405   3.848   2.880
 3646TIP3    H110879   4.402   3.931   2.930
 3646TIP3    H210880   4.318   3.851   2.835
 3647TIP3   OH210881   3.404   3.804   2.383
 3647TIP3    H110882   3.364   3.746   2.316
 3647TIP3    H210883   3.482   3.752   2.413
 3648TIP3   OH210884   3.515   4.149   2.547
 3648TIP3    H110885   3.506   4.170   2.454
 3648TIP3    H210886   3.604   4.180   2.566
 3649TIP3   OH210887   3.541   3.778   2.740
 3649TIP3    H110888   3.572   3.762   2.649
 3649TIP3    H210889   3.580   3.866   2.761
 3650TIP3   OH210890   4.067   4.413   2.518
 3650TIP3    H110891   4.049   4.493   2.570
 3650TIP3    H210892   4.049   4.340   2.581
 3651TIP3   OH210893   3.678   4.330   3.069
 3651TIP3    H110894   3.617   4.394   3.112
 3651TIP3    H210895   3.614   4.285   3.009
 3652TIP3   OH210896   4.012   3.663   1.795
 3652TIP3    H110897   4.069   3.724   1.847
 3652TIP3    H210898   4.039   3.688   1.703
 3653TIP3   OH210899   3.431   3.887   3.166
 3653TIP3    H110900   3.437   3.975   3.209
 3653TIP3    H210901   3.335   3.871   3.174
 3654TIP3   OH210902   3.754   4.343   2.067
 3654TIP3    H110903   3.829   4.400   2.094
 3654TIP3    H210904   3.690   4.407   2.034
 3655TIP3   OH210905   3.470   4.502   3.152
 3655TIP3    H110906   3.428   4.506   3.065
 3655TIP3    H210907   3.393   4.479   3.210
 3656TIP3   OH210908   4.526   2.906   1.843
 3656TIP3    H110909   4.445   2.927   1.894
 3656TIP3    H210910   4.540   2.990   1.795
 3657TIP3   OH210911   3.271   3.644   2.186
 3657TIP3    H110912   3.206   3.693   2.132
 3657TIP3    H210913   3.222   3.563   2.205
 3658TIP3   OH210914   4.324   4.273   1.390
 3658TIP3    H110915   4.334   4.370   1.377
 3658TIP3    H210916   4.418   4.244   1.381
 3659TIP3   OH210917   3.049   4.032   3.102
 3659TIP3    H110918   2.990   4.012   3.026
 3659TIP3    H210919   3.088   3.945   3.123
 3660TIP3   OH210920   2.909   4.222   2.736
 3660TIP3    H110921   3.003   4.209   2.717
 3660TIP3    H210922   2.912   4.300   2.793
 3661TIP3   OH210923   4.769   4.675   2.786
 3661TIP3    H110924   4.766   4.578   2.799
 3661TIP3    H210925   4.686   4.701   2.832
 3662TIP3   OH210926   3.887   4.458   2.932
 3662TIP3    H110927   3.879   4.552   2.961
 3662TIP3    H210928   3.804   4.422   2.969
 3663TIP3   OH210929   3.634   4.593   1.871
 3663TIP3    H110930   3.587   4.574   1.788
 3663TIP3    H210931   3.601   4.680   1.897
 3664TIP3   OH210932   3.076   4.440   2.264
 3664TIP3    H110933   3.124   4.435   2.349
 3664TIP3    H210934   3.015   4.365   2.272
 3665TIP3   OH210935   3.836   4.492   1.513
 3665TIP3    H110936   3.896   4.423   1.478
 3665TIP3    H210937   3.869   4.501   1.605
 3666TIP3   OH210938   3.885   4.539   1.784
 3666TIP3    H110939   3.797   4.550   1.826
 3666TIP3    H210940   3.935   4.497   1.857
 3667TIP3   OH210941   4.659   3.807   3.061
 3667TIP3    H110942   4.577   3.821   3.011
 3667TIP3    H210943   4.672   3.710   3.050
 3668TIP3   OH210944   3.260   4.213   3.090
 3668TIP3    H110945   3.308   4.191   3.172
 3668TIP3    H210946   3.182   4.155   3.095
 3669TIP3   OH210947   3.655   3.037   2.871
 3669TIP3    H110948   3.565   3.008   2.845
 3669TIP3    H210949   3.633   3.121   2.914
 3670TIP3   OH210950   4.188   3.152   3.064
 3670TIP3    H110951   4.256   3.127   3.130
 3670TIP3    H210952   4.104   3.134   3.111
 3671TIP3   OH210953   4.428   3.583   2.983
 3671TIP3    H110954   4.377   3.578   3.068
 3671TIP3    H210955   4.403   3.671   2.949
 3672TIP3   OH210956   4.086   3.711   1.540
 3672TIP3    H110957   4.053   3.686   1.451
 3672TIP3    H210958   4.165   3.764   1.516
 3673TIP3   OH210959   3.799   3.088   1.842
 3673TIP3    H110960   3.767   3.085   1.934
 3673TIP3    H210961   3.760   3.005   1.808
 3674TIP3   OH210962   3.584   3.554   2.888
 3674TIP3    H110963   3.536   3.578   2.970
 3674TIP3    H210964   3.571   3.635   2.834
 3675TIP3   OH210965   3.471   3.437   2.404
 3675TIP3    H110966   3.377   3.416   2.420
 3675TIP3    H210967   3.483   3.398   2.314
 3676TIP3   OH210968   3.960   3.524   2.129
 3676TIP3    H110969   3.906   3.596   2.090
 3676TIP3    H210970   4.014   3.496   2.053
 3677TIP3   OH210971   4.135   3.804   3.216
 3677TIP3    H110972   4.113   3.732   3.280
 3677TIP3    H210973   4.228   3.820   3.239
 3678TIP3   OH210974   4.117   3.554   2.372
 3678TIP3    H110975   4.059   3.588   2.301
 3678TIP3    H210976   4.148   3.473   2.327
 3679TIP3   OH210977   3.405   3.583   3.099
 3679TIP3    H110978   3.431   3.650   3.163
 3679TIP3    H210979   3.397   3.503   3.154
 3680TIP3   OH210980   3.452   3.057   1.808
 3680TIP3    H110981   3.446   3.059   1.905
 3680TIP3    H210982   3.377   3.115   1.784
 3681TIP3   OH210983   2.998   3.100   2.681
 3681TIP3    H110984   3.071   3.138   2.735
 3681TIP3    H210985   3.041   3.079   2.597
 3682TIP3   OH210986   2.972   3.086   2.199
 3682TIP3    H110987   3.018   3.124   2.121
 3682TIP3    H210988   2.912   3.160   2.220
 3683TIP3   OH210989   4.129   3.801   2.795
 3683TIP3    H110990   4.161   3.728   2.737
 3683TIP3    H210991   4.098   3.749   2.872
 3684TIP3   OH210992   3.794   3.258   2.465
 3684TIP3    H110993   3.712   3.260   2.517
 3684TIP3    H210994   3.862   3.266   2.534
 3685TIP3   OH210995   3.230   3.317   2.475
 3685TIP3    H110996   3.136   3.326   2.447
 3685TIP3    H210997   3.253   3.226   2.448
 3686TIP3   OH210998   3.502   3.312   2.160
 3686TIP3    H110999   3.596   3.330   2.140
 3686TIP3    H211000   3.455   3.337   2.078
 3687TIP3   OH211001   4.289   3.337   2.664
 3687TIP3    H111002   4.257   3.350   2.756
 3687TIP3    H211003   4.221   3.276   2.630
 3688TIP3   OH211004   3.342   3.343   1.940
 3688TIP3    H111005   3.269   3.303   1.890
 3688TIP3    H211006   3.393   3.383   1.867
 3689TIP3   OH211007   4.458   5.026   2.885
 3689TIP3    H111008   4.455   5.049   2.790
 3689TIP3    H211009   4.535   5.076   2.916
 3690TIP3   OH211010   3.417   4.132   3.310
 3690TIP3    H111011   3.497   4.166   3.356
 3690TIP3    H211012   3.352   4.136   3.383
 3691TIP3   OH211013   3.879   3.585   2.561
 3691TIP3    H111014   3.956   3.553   2.512
 3691TIP3    H211015   3.893   3.548   2.649
 3692TIP3   OH211016   3.404   3.080   2.437
 3692TIP3    H111017   3.373   2.999   2.483
 3692TIP3    H211018   3.457   3.045   2.365
 3693TIP3   OH211019   3.856   3.483   2.858
 3693TIP3    H111020   3.768   3.524   2.866
 3693TIP3    H211021   3.915   3.546   2.904
 3694TIP3   OH211022   3.595   3.877   1.947
 3694TIP3    H111023   3.521   3.813   1.936
 3694TIP3    H211024   3.577   3.911   2.038
 3695TIP3   OH211025   4.495   4.113   2.578
 3695TIP3    H111026   4.518   4.164   2.497
 3695TIP3    H211027   4.410   4.072   2.553
 3696TIP3   OH211028   4.052   3.190   1.806
 3696TIP3    H111029   3.955   3.175   1.814
 3696TIP3    H211030   4.063   3.284   1.831
 3697TIP3   OH211031   3.999   4.198   2.943
 3697TIP3    H111032   4.010   4.175   3.036
 3697TIP3    H211033   3.955   4.285   2.949
 3698TIP3   OH211034   4.123   3.436   1.910
 3698TIP3    H111035   4.218   3.444   1.928
 3698TIP3    H211036   4.103   3.518   1.860
 3699TIP3   OH211037   3.272   3.869   2.618
 3699TIP3    H111038   3.322   3.862   2.534
 3699TIP3    H211039   3.333   3.829   2.682
 3700TIP3   OH211040   3.737   4.026   1.766
 3700TIP3    H111041   3.691   4.113   1.772
 3700TIP3    H211042   3.684   3.972   1.828
 3701TIP3   OH211043   3.166   3.819   3.236
 3701TIP3    H111044   3.189   3.808   3.331
 3701TIP3    H211045   3.096   3.752   3.225
 3702TIP3   OH211046   3.891   3.933   3.254
 3702TIP3    H111047   3.832   3.875   3.204
 3702TIP3    H211048   3.979   3.899   3.227
 3703TIP3   OH211049   4.156   4.456   2.839
 3703TIP3    H111050   4.060   4.450   2.854
 3703TIP3    H211051   4.183   4.507   2.918
 3704TIP3   OH211052   4.564   3.526   1.749
 3704TIP3    H111053   4.501   3.482   1.687
 3704TIP3    H211054   4.561   3.616   1.709
 3705TIP3   OH211055   4.782   4.383   2.830
 3705TIP3    H111056   4.684   4.379   2.822
 3705TIP3    H211057   4.808   4.353   2.740
 3706TIP3   OH211058   4.262   4.346   1.655
 3706TIP3    H111059   4.239   4.277   1.718
 3706TIP3    H211060   4.276   4.298   1.572
 3707TIP3   OH211061   4.261   3.975   2.498
 3707TIP3    H111062   4.167   3.950   2.510
 3707TIP3    H211063   4.294   3.896   2.451
 3708TIP3   OH211064   3.386   4.195   2.233
 3708TIP3    H111065   3.387   4.283   2.192
 3708TIP3    H211066   3.297   4.190   2.268
 3709TIP3   OH211067   2.950   3.507   1.950
 3709TIP3    H111068   2.996   3.591   1.969
 3709TIP3    H211069   2.874   3.513   2.011
 3710TIP3   OH211070   3.530   3.965   2.191
 3710TIP3    H111071   3.491   4.054   2.205
 3710TIP3    H211072   3.495   3.919   2.269
 3711TIP3   OH211073   3.681   4.545   2.747
 3711TIP3    H111074   3.690   4.601   2.668
 3711TIP3    H211075   3.772   4.526   2.772
 3712TIP3   OH211076   3.304   4.445   2.096
 3712TIP3    H111077   3.221   4.451   2.147
 3712TIP3    H211078   3.336   4.537   2.102
 3713TIP3   OH211079   4.049   4.180   2.676
 3713TIP3    H111080   4.037   4.180   2.773
 3713TIP3    H211081   4.129   4.127   2.666
 3714TIP3   OH211082   4.017   4.071   1.558
 3714TIP3    H111083   4.070   4.047   1.637
 3714TIP3    H211084   3.928   4.048   1.588
 3715TIP3   OH211085   4.293   4.715   2.726
 3715TIP3    H111086   4.214   4.658   2.719
 3715TIP3    H211087   4.277   4.780   2.654
 3716TIP3   OH211088   4.358   4.548   1.378
 3716TIP3    H111089   4.398   4.621   1.327
 3716TIP3    H211090   4.278   4.594   1.411
 3717TIP3   OH211091   3.379   3.322   3.246
 3717TIP3    H111092   3.284   3.331   3.265
 3717TIP3    H211093   3.410   3.267   3.321
 3718TIP3   OH211094   4.178   4.006   1.774
 3718TIP3    H111095   4.167   3.941   1.847
 3718TIP3    H211096   4.275   4.004   1.763
 3719TIP3   OH211097   3.072   4.414   2.892
 3719TIP3    H111098   3.139   4.346   2.879
 3719TIP3    H211099   3.126   4.491   2.913
 3720TIP3   OH211100   3.385   4.055   1.557
 3720TIP3    H111101   3.399   3.963   1.529
 3720TIP3    H211102   3.368   4.043   1.653
 3721TIP3   OH211103   3.331   4.059   1.830
 3721TIP3    H111104   3.399   4.034   1.895
 3721TIP3    H211105   3.334   4.157   1.836
 3722TIP3   OH211106   3.066   3.753   2.033
 3722TIP3    H111107   3.001   3.799   2.091
 3722TIP3    H211108   3.081   3.823   1.967
 3723TIP3   OH211109   4.216   3.387   2.923
 3723TIP3    H111110   4.292   3.429   2.966
 3723TIP3    H211111   4.200   3.308   2.979
 3724TIP3   OH211112   4.096   3.141   2.089
 3724TIP3    H111113   4.081   3.165   1.995
 3724TIP3    H211114   4.132   3.224   2.126
 3725TIP3   OH211115   3.595   4.256   1.777
 3725TIP3    H111116   3.510   4.282   1.815
 3725TIP3    H211117   3.612   4.330   1.717
 3726TIP3   OH211118   3.785   3.319   2.192
 3726TIP3    H111119   3.849   3.391   2.174
 3726TIP3    H211120   3.790   3.313   2.289
 3727TIP3   OH211121   4.053   3.640   3.001
 3727TIP3    H111122   4.070   3.696   3.079
 3727TIP3    H211123   4.109   3.563   3.019
 3728TIP3   OH211124   3.929   3.049   2.295
 3728TIP3    H111125   3.921   3.125   2.355
 3728TIP3    H211126   3.989   3.086   2.226
 3729TIP3   OH211127   3.338   4.331   1.845
 3729TIP3    H111128   3.307   4.402   1.783
 3729TIP3    H211129   3.322   4.374   1.932
 3730TIP3   OH211130   3.439   3.046   2.085
 3730TIP3    H111131   3.438   3.137   2.119
 3730TIP3    H211132   3.535   3.027   2.093
 3731TIP3   OH211133   4.695   3.539   2.982
 3731TIP3    H111134   4.597   3.536   2.989
 3731TIP3    H211135   4.706   3.504   2.893
 3732TIP3   OH211136   4.345   3.734   2.368
 3732TIP3    H111137   4.269   3.675   2.383
 3732TIP3    H211138   4.417   3.687   2.416
 3733TIP3   OH211139   3.055   3.964   1.840
 3733TIP3    H111140   3.118   4.038   1.851
 3733TIP3    H211141   3.104   3.912   1.772
 3734TIP3   OH211142   3.000   3.238   1.974
 3734TIP3    H111143   3.004   3.335   1.969
 3734TIP3    H211144   2.917   3.220   1.928
 3735TIP3   OH211145   4.313   4.689   2.319
 3735TIP3    H111146   4.270   4.736   2.245
 3735TIP3    H211147   4.407   4.708   2.298
 3736TIP3   OH211148   3.389   2.958   2.848
 3736TIP3    H111149   3.358   2.926   2.760
 3736TIP3    H211150   3.377   2.879   2.904
 3737TIP3   OH211151   2.928   4.172   2.228
 3737TIP3    H111152   2.855   4.208   2.280
 3737TIP3    H211153   2.909   4.213   2.141
 3738TIP3   OH211154   3.082   4.716   3.301
 3738TIP3    H111155   3.169   4.713   3.345
 3738TIP3    H211156   3.061   4.621   3.295
 3739TIP3   OH211157   3.568   4.684   3.342
 3739TIP3    H111158   3.662   4.664   3.349
 3739TIP3    H211159   3.542   4.627   3.268
 3740TIP3   OH211160   3.549   4.259   1.471
 3740TIP3    H111161   3.491   4.188   1.509
 3740TIP3    H211162   3.623   4.206   1.439
 3741TIP3   OH211163   4.207   4.589   3.076
 3741TIP3    H111164   4.196   4.520   3.144
 3741TIP3    H211165   4.283   4.640   3.109
 3742TIP3   OH211166   3.985   4.300   1.381
 3742TIP3    H111167   4.031   4.238   1.440
 3742TIP3    H211168   4.041   4.300   1.302
 3743TIP3   OH211169   3.214   4.124   3.500
 3743TIP3    H111170   3.231   4.028   3.504
 3743TIP3    H211171   3.127   4.127   3.454
 3744TIP3   OH211172   3.192   3.776   1.691
 3744TIP3    H111173   3.248   3.745   1.764
 3744TIP3    H211174   3.259   3.781   1.619
 3745TIP3   OH211175   3.824   4.209   3.273
 3745TIP3    H111176   3.780   4.229   3.188
 3745TIP3    H211177   3.852   4.115   3.263
 3746TIP3   OH211178   3.700   3.974   1.497
 3746TIP3    H111179   3.703   3.986   1.594
 3746TIP3    H211180   3.698   3.876   1.492
 3747TIP3   OH211181   4.317   4.214   2.878
 3747TIP3    H111182   4.389   4.262   2.834
 3747TIP3    H211183   4.243   4.276   2.867
 3748TIP3   OH211184   3.333   3.853   3.480
 3748TIP3    H111185   3.413   3.802   3.460
 3748TIP3    H211186   3.357   3.890   3.568
 3749TIP3   OH211187   3.400   3.678   1.914
 3749TIP3    H111188   3.374   3.639   1.998
 3749TIP3    H211189   3.436   3.602   1.865
 3750TIP3   OH211190   3.669   3.741   3.140
 3750TIP3    H111191   3.592   3.801   3.144
 3750TIP3    H211192   3.719   3.777   3.063
 3751TIP3   OH211193   3.499   3.469   1.756
 3751TIP3    H111194   3.474   3.475   1.661
 3751TIP3    H211195   3.597   3.476   1.749
 3752TIP3   OH211196   4.186   4.145   3.279
 3752TIP3    H111197   4.264   4.122   3.228
 3752TIP3    H211198   4.184   4.076   3.348
 3753TIP3   OH211199   4.324   3.803   1.416
 3753TIP3    H111200   4.302   3.758   1.332
 3753TIP3    H211201   4.292   3.894   1.394
 3754TIP3   OH211202   3.792   3.530   3.268
 3754TIP3    H111203   3.792   3.451   3.211
 3754TIP3    H211204   3.749   3.597   3.210
 3755TIP3   OH211205   3.794   3.314   3.075
 3755TIP3    H111206   3.822   3.360   2.993
 3755TIP3    H211207   3.700   3.295   3.056
 3756TIP3   OH211208   3.823   3.854   2.946
 3756TIP3    H111209   3.905   3.867   2.897
 3756TIP3    H211210   3.764   3.922   2.906
 3757TIP3   OH211211   4.405   3.820   3.329
 3757TIP3    H111212   4.456   3.738   3.344
 3757TIP3    H211213   4.472   3.880   3.295
 3758TIP3   OH211214   4.447   4.072   3.067
 3758TIP3    H111215   4.388   4.125   3.008
 3758TIP3    H211216   4.534   4.094   3.026
 3759TIP3   OH211217   3.668   3.645   3.496
 3759TIP3    H111218   3.599   3.577   3.512
 3759TIP3    H211219   3.704   3.617   3.410
 3760TIP3   OH211220   3.927   3.080   3.140
 3760TIP3    H111221   3.879   3.163   3.119
 3760TIP3    H211222   3.857   3.013   3.130
 3761TIP3   OH211223   4.054   3.586   3.358
 3761TIP3    H111224   4.045   3.576   3.455
 3761TIP3    H211225   3.963   3.562   3.331
 3762TIP3   OH211226   4.291   3.531   3.212
 3762TIP3    H111227   4.217   3.537   3.275
 3762TIP3    H211228   4.366   3.503   3.270
 3763TIP3   OH211229   4.522   3.474   3.363
 3763TIP3    H111230   4.533   3.379   3.384
 3763TIP3    H211231   4.517   3.516   3.451
 3764TIP3   OH211232   3.507   3.425   3.549
 3764TIP3    H111233   3.521   3.334   3.516
 3764TIP3    H211234   3.543   3.417   3.640
 3765TIP3   OH211235   4.021   3.089   3.398
 3765TIP3    H111236   4.089   3.020   3.393
 3765TIP3    H211237   3.982   3.083   3.309
 3766TIP3   OH211238   4.088   3.306   3.558
 3766TIP3    H111239   4.064   3.236   3.494
 3766TIP3    H211240   4.010   3.366   3.553
 3767TIP3   OH211241   3.307   4.535   1.658
 3767TIP3    H111242   3.402   4.531   1.639
 3767TIP3    H211243   3.277   4.583   1.578
 3768TIP3   OH211244   2.788   3.916   1.876
 3768TIP3    H111245   2.882   3.939   1.862
 3768TIP3    H211246   2.783   3.827   1.835
 3769TIP3   OH211247   2.702   4.529   2.289
 3769TIP3    H111248   2.636   4.466   2.253
 3769TIP3    H211249   2.746   4.473   2.356
 3770TIP3   OH211250   2.842   4.381   2.473
 3770TIP3    H111251   2.832   4.309   2.537
 3770TIP3    H211252   2.900   4.441   2.525
 3771TIP3   OH211253   4.564   4.782   2.274
 3771TIP3    H111254   4.592   4.814   2.362
 3771TIP3    H211255   4.627   4.826   2.215
 3772TIP3   OH211256   4.595   4.801   2.556
 3772TIP3    H111257   4.551   4.714   2.551
 3772TIP3    H211258   4.670   4.778   2.613
 3773TIP3   OH211259   4.642   4.476   3.131
 3773TIP3    H111260   4.567   4.486   3.193
 3773TIP3    H211261   4.682   4.566   3.134
 3774TIP3   OH211262   4.457   3.991   1.750
 3774TIP3    H111263   4.524   4.055   1.720
 3774TIP3    H211264   4.501   3.952   1.829
 3775TIP3   OH211265   4.585   3.857   1.953
 3775TIP3    H111266   4.519   3.817   2.013
 3775TIP3    H211267   4.649   3.897   2.016
 3776TIP3   OH211268   4.639   4.249   2.387
 3776TIP3    H111269   4.691   4.185   2.334
 3776TIP3    H211270   4.629   4.324   2.325
 3777TIP3   OH211271   4.471   4.551   2.582
 3777TIP3    H111272   4.399   4.593   2.633
 3777TIP3    H211273   4.422   4.503   2.512
 3778TIP3   OH211274   4.523   3.765   1.601
 3778TIP3    H111275   4.452   3.768   1.533
 3778TIP3    H211276   4.496   3.841   1.656
 3779TIP3   OH211277   4.396   3.437   1.555
 3779TIP3    H111278   4.352   3.481   1.481
 3779TIP3    H211279   4.368   3.344   1.543
 3780TIP3   OH211280   4.400   3.715   2.101
 3780TIP3    H111281   4.408   3.618   2.096
 3780TIP3    H211282   4.386   3.729   2.198
 3781TIP3   OH211283   3.027   3.783   2.848
 3781TIP3    H111284   3.026   3.762   2.753
 3781TIP3    H211285   3.124   3.788   2.864
 3782TIP3   OH211286   4.689   4.139   2.957
 3782TIP3    H111287   4.762   4.074   2.948
 3782TIP3    H211288   4.714   4.209   2.894
 3783TIP3   OH211289   4.875   3.945   2.976
 3783TIP3    H111290   4.800   3.895   3.016
 3783TIP3    H211291   4.948   3.881   2.990
 3784TIP3   OH211292   4.339   3.171   1.539
 3784TIP3    H111293   4.414   3.143   1.596
 3784TIP3    H211294   4.266   3.114   1.568
 3785TIP3   OH211295   4.395   3.430   1.997
 3785TIP3    H111296   4.436   3.341   2.011
 3785TIP3    H211297   4.454   3.463   1.927
 3786TIP3   OH211298   4.558   3.605   2.491
 3786TIP3    H111299   4.644   3.631   2.451
 3786TIP3    H211300   4.571   3.642   2.580
 3787TIP3   OH211301   4.625   3.748   2.723
 3787TIP3    H111302   4.547   3.783   2.770
 3787TIP3    H211303   4.658   3.828   2.678
 3788TIP3   OH211304   3.241   3.471   3.512
 3788TIP3    H111305   3.338   3.470   3.520
 3788TIP3    H211306   3.218   3.390   3.561
 3789TIP3   OH211307   5.077   3.337   3.279
 3789TIP3    H111308   5.137   3.273   3.236
 3789TIP3    H211309   5.049   3.393   3.204
 3790TIP3   OH211310   4.505   3.180   2.032
 3790TIP3    H111311   4.554   3.165   2.116
 3790TIP3    H211312   4.444   3.103   2.033
 3791TIP3   OH211313   3.203   3.166   2.854
 3791TIP3    H111314   3.268   3.093   2.863
 3791TIP3    H211315   3.264   3.243   2.846
 3792TIP3   OH211316   3.008   3.439   2.926
 3792TIP3    H111317   3.058   3.438   2.842
 3792TIP3    H211318   3.030   3.527   2.959
 3793TIP3   OH211319   4.950   3.480   3.086
 3793TIP3    H111320   4.864   3.521   3.108
 3793TIP3    H211321   4.919   3.409   3.026
 3794TIP3   OH211322   4.587   3.116   1.665
 3794TIP3    H111323   4.628   3.044   1.614
 3794TIP3    H211324   4.654   3.187   1.660
 3795TIP3   OH211325   2.990   2.939   2.423
 3795TIP3    H111326   2.897   2.943   2.451
 3795TIP3    H211327   2.990   3.001   2.347
 3796TIP3   OH211328   4.150   4.647   1.931
 3796TIP3    H111329   4.200   4.633   1.849
 3796TIP3    H211330   4.205   4.713   1.977
 3797TIP3   OH211331   3.208   3.016   3.238
 3797TIP3    H111332   3.162   3.022   3.323
 3797TIP3    H211333   3.144   3.062   3.179
 3798TIP3   OH211334   3.253   4.453   3.322
 3798TIP3    H111335   3.163   4.423   3.297
 3798TIP3    H211336   3.256   4.432   3.416
 3799TIP3   OH211337   3.876   4.729   3.005
 3799TIP3    H111338   3.918   4.731   3.093
 3799TIP3    H211339   3.941   4.780   2.952
 3800TIP3   OH211340   4.053   4.880   2.861
 3800TIP3    H111341   4.124   4.828   2.820
 3800TIP3    H211342   4.105   4.936   2.922
 3801TIP3   OH211343   4.848   3.243   2.962
 3801TIP3    H111344   4.757   3.240   2.928
 3801TIP3    H211345   4.876   3.150   2.951
 3802TIP3   OH211346   3.092   4.729   2.898
 3802TIP3    H111347   3.015   4.781   2.867
 3802TIP3    H211348   3.108   4.769   2.984
 3803TIP3   OH211349   3.777   4.758   2.532
 3803TIP3    H111350   3.697   4.774   2.477
 3803TIP3    H211351   3.783   4.841   2.582
 3804TIP3   OH211352   4.036   4.688   2.596
 3804TIP3    H111353   3.942   4.704   2.574
 3804TIP3    H211354   4.078   4.765   2.555
 3805TIP3   OH211355   4.248   4.882   2.512
 3805TIP3    H111356   4.232   4.965   2.463
 3805TIP3    H211357   4.271   4.820   2.440
 3806TIP3   OH211358   3.009   4.532   2.637
 3806TIP3    H111359   3.024   4.519   2.733
 3806TIP3    H211360   3.104   4.520   2.611
 3807TIP3   OH211361   4.053   3.158   2.580
 3807TIP3    H111362   4.008   3.090   2.632
 3807TIP3    H211363   4.126   3.108   2.537
 3808TIP3   OH211364   4.577   3.033   2.486
 3808TIP3    H111365   4.614   3.088   2.413
 3808TIP3    H211366   4.482   3.055   2.482
 3809TIP3   OH211367   4.671   3.137   2.250
 3809TIP3    H111368   4.745   3.087   2.209
 3809TIP3    H211369   4.703   3.229   2.236
 3810TIP3   OH211370   3.302   2.866   2.599
 3810TIP3    H111371   3.209   2.835   2.598
 3810TIP3    H211372   3.350   2.780   2.593
 3811TIP3   OH211373   3.087   2.734   2.244
 3811TIP3    H111374   3.118   2.792   2.172
 3811TIP3    H211375   3.058   2.799   2.311
 3812TIP3   OH211376   3.745   2.896   2.480
 3812TIP3    H111377   3.800   2.948   2.419
 3812TIP3    H211378   3.764   2.939   2.564
 3813TIP3   OH211379   4.293   3.044   2.463
 3813TIP3    H111380   4.289   3.010   2.373
 3813TIP3    H211381   4.277   2.962   2.516
 3814TIP3   OH211382   4.321   2.966   2.023
 3814TIP3    H111383   4.234   3.010   2.034
 3814TIP3    H211384   4.305   2.882   2.071
 3815TIP3   OH211385   2.805   4.305   2.027
 3815TIP3    H111386   2.720   4.273   1.991
 3815TIP3    H211387   2.794   4.400   2.011
 3816TIP3   OH211388   3.204   2.891   2.012
 3816TIP3    H111389   3.254   2.833   1.952
 3816TIP3    H211390   3.274   2.949   2.047
 3817TIP3   OH211391   3.717   3.068   2.109
 3817TIP3    H111392   3.780   3.024   2.169
 3817TIP3    H211393   3.738   3.162   2.132
 3818TIP3   OH211394   3.576   4.497   1.606
 3818TIP3    H111395   3.665   4.518   1.572
 3818TIP3    H211396   3.554   4.422   1.547
 3819TIP3   OH211397   4.294   4.613   1.700
 3819TIP3    H111398   4.287   4.515   1.688
 3819TIP3    H211399   4.250   4.644   1.618
 3820TIP3   OH211400   3.510   3.141   3.482
 3820TIP3    H111401   3.474   3.076   3.545
 3820TIP3    H211402   3.603   3.144   3.513
 3821TIP3   OH211403   3.756   3.141   3.606
 3821TIP3    H111404   3.844   3.121   3.569
 3821TIP3    H211405   3.747   3.071   3.674
 3822TIP3   OH211406   2.881   4.332   1.665
 3822TIP3    H111407   2.881   4.360   1.757
 3822TIP3    H211408   2.970   4.292   1.654
 3823TIP3   OH211409   4.582   3.202   3.396
 3823TIP3    H111410   4.601   3.172   3.487
 3823TIP3    H211411   4.671   3.199   3.355
 3824TIP3   OH211412   4.523   4.758   2.888
 3824TIP3    H111413   4.444   4.725   2.839
 3824TIP3    H211414   4.502   4.853   2.891
 3825TIP3   OH211415   5.786   4.129   1.654
 3825TIP3    H111416   5.759   4.221   1.633
 3825TIP3    H211417   5.709   4.081   1.620
 3826TIP3   OH211418   5.790   4.129   2.031
 3826TIP3    H111419   5.816   4.098   2.120
 3826TIP3    H211420   5.744   4.051   1.995
 3827TIP3   OH211421   5.087   4.026   2.400
 3827TIP3    H111422   5.119   3.959   2.462
 3827TIP3    H211423   5.165   4.083   2.393
 3828TIP3   OH211424   6.031   4.429   1.715
 3828TIP3    H111425   6.014   4.361   1.781
 3828TIP3    H211426   6.057   4.505   1.770
 3829TIP3   OH211427   5.057   4.434   2.128
 3829TIP3    H111428   5.049   4.336   2.130
 3829TIP3    H211429   5.153   4.444   2.118
 3830TIP3   OH211430   4.765   3.636   1.912
 3830TIP3    H111431   4.719   3.721   1.927
 3830TIP3    H211432   4.692   3.584   1.873
 3831TIP3   OH211433   4.824   3.925   2.080
 3831TIP3    H111434   4.873   3.848   2.117
 3831TIP3    H211435   4.884   3.955   2.009
 3832TIP3   OH211436   5.680   4.896   1.734
 3832TIP3    H111437   5.726   4.825   1.683
 3832TIP3    H211438   5.671   4.855   1.820
 3833TIP3   OH211439   5.586   4.355   2.085
 3833TIP3    H111440   5.621   4.281   2.034
 3833TIP3    H211441   5.670   4.399   2.108
 3834TIP3   OH211442   6.598   3.675   2.081
 3834TIP3    H111443   6.627   3.758   2.125
 3834TIP3    H211444   6.618   3.696   1.988
 3835TIP3   OH211445   5.997   3.857   2.117
 3835TIP3    H111446   6.040   3.772   2.137
 3835TIP3    H211447   5.968   3.843   2.026
 3836TIP3   OH211448   5.335   3.515   2.082
 3836TIP3    H111449   5.315   3.589   2.020
 3836TIP3    H211450   5.286   3.443   2.037
 3837TIP3   OH211451   6.029   3.607   1.705
 3837TIP3    H111452   6.102   3.590   1.769
 3837TIP3    H211453   6.081   3.643   1.630
 3838TIP3   OH211454   4.969   3.718   2.187
 3838TIP3    H111455   5.052   3.700   2.235
 3838TIP3    H211456   4.983   3.662   2.108
 3839TIP3   OH211457   5.411   3.916   1.980
 3839TIP3    H111458   5.504   3.890   1.993
 3839TIP3    H211459   5.372   3.832   1.947
 3840TIP3   OH211460   6.671   3.882   2.252
 3840TIP3    H111461   6.589   3.931   2.231
 3840TIP3    H211462   6.686   3.911   2.343
 3841TIP3   OH211463   5.332   3.499   2.515
 3841TIP3    H111464   5.272   3.537   2.448
 3841TIP3    H211465   5.281   3.517   2.597
 3842TIP3   OH211466   5.683   4.351   1.520
 3842TIP3    H111467   5.640   4.332   1.435
 3842TIP3    H211468   5.635   4.432   1.547
 3843TIP3   OH211469   5.440   4.274   2.313
 3843TIP3    H111470   5.377   4.339   2.351
 3843TIP3    H211471   5.479   4.326   2.239
 3844TIP3   OH211472   6.243   3.607   1.874
 3844TIP3    H111473   6.230   3.561   1.958
 3844TIP3    H211474   6.294   3.685   1.901
 3845TIP3   OH211475   5.202   3.614   2.300
 3845TIP3    H111476   5.265   3.687   2.324
 3845TIP3    H211477   5.251   3.574   2.225
 3846TIP3   OH211478   5.266   4.467   2.410
 3846TIP3    H111479   5.240   4.552   2.368
 3846TIP3    H211480   5.186   4.452   2.465
 3847TIP3   OH211481   4.661   4.157   1.644
 3847TIP3    H111482   4.623   4.185   1.559
 3847TIP3    H211483   4.693   4.242   1.681
 3848TIP3   OH211484   6.102   4.674   1.885
 3848TIP3    H111485   6.013   4.665   1.925
 3848TIP3    H211486   6.093   4.759   1.839
 3849TIP3   OH211487   6.391   3.575   2.247
 3849TIP3    H111488   6.303   3.605   2.217
 3849TIP3    H211489   6.450   3.608   2.176
 3850TIP3   OH211490   5.691   3.220   2.229
 3850TIP3    H111491   5.676   3.125   2.245
 3850TIP3    H211492   5.613   3.258   2.275
 3851TIP3   OH211493   5.806   4.722   1.562
 3851TIP3    H111494   5.854   4.639   1.540
 3851TIP3    H211495   5.868   4.786   1.518
 3852TIP3   OH211496   5.946   4.507   1.464
 3852TIP3    H111497   5.900   4.431   1.425
 3852TIP3    H211498   5.981   4.468   1.548
 3853TIP3   OH211499   6.327   4.588   2.228
 3853TIP3    H111500   6.316   4.510   2.169
 3853TIP3    H211501   6.310   4.662   2.166
 3854TIP3   OH211502   5.618   3.980   1.485
 3854TIP3    H111503   5.538   4.034   1.468
 3854TIP3    H211504   5.662   3.983   1.398
 3855TIP3   OH211505   5.579   3.762   1.208
 3855TIP3    H111506   5.646   3.815   1.255
 3855TIP3    H211507   5.637   3.704   1.155
 3856TIP3   OH211508   6.522   4.223   2.071
 3856TIP3    H111509   6.439   4.275   2.077
 3856TIP3    H211510   6.552   4.249   1.981
 3857TIP3   OH211511   5.966   4.063   1.457
 3857TIP3    H111512   5.910   4.088   1.535
 3857TIP3    H211513   6.049   4.040   1.502
 3858TIP3   OH211514   6.201   4.104   2.367
 3858TIP3    H111515   6.198   4.188   2.417
 3858TIP3    H211516   6.114   4.108   2.322
 3859TIP3   OH211517   5.196   4.062   1.876
 3859TIP3    H111518   5.155   4.005   1.806
 3859TIP3    H211519   5.275   4.009   1.901
 3860TIP3   OH211520   5.326   4.470   2.025
 3860TIP3    H111521   5.304   4.435   1.937
 3860TIP3    H211522   5.416   4.436   2.039
 3861TIP3   OH211523   5.337   4.032   2.229
 3861TIP3    H111524   5.367   4.012   2.138
 3861TIP3    H211525   5.379   4.119   2.247
 3862TIP3   OH211526   5.861   4.670   2.005
 3862TIP3    H111527   5.847   4.750   2.058
 3862TIP3    H211528   5.845   4.597   2.068
 3863TIP3   OH211529   5.472   4.590   2.552
 3863TIP3    H111530   5.412   4.652   2.598
 3863TIP3    H211531   5.408   4.536   2.502
 3864TIP3   OH211532   5.811   3.919   1.281
 3864TIP3    H111533   5.865   3.981   1.334
 3864TIP3    H211534   5.837   3.943   1.189
 3865TIP3   OH211535   5.227   4.146   2.652
 3865TIP3    H111536   5.230   4.233   2.697
 3865TIP3    H211537   5.131   4.127   2.661
 3866TIP3   OH211538   5.548   4.603   1.569
 3866TIP3    H111539   5.625   4.662   1.579
 3866TIP3    H211540   5.489   4.653   1.512
 3867TIP3   OH211541   5.267   4.759   2.638
 3867TIP3    H111542   5.232   4.758   2.547
 3867TIP3    H211543   5.188   4.736   2.692
 3868TIP3   OH211544   6.323   3.163   1.330
 3868TIP3    H111545   6.241   3.183   1.381
 3868TIP3    H211546   6.336   3.247   1.282
 3869TIP3   OH211547   5.063   3.903   1.681
 3869TIP3    H111548   5.003   3.951   1.621
 3869TIP3    H211549   5.017   3.819   1.690
 3870TIP3   OH211550   6.119   4.529   0.879
 3870TIP3    H111551   6.127   4.625   0.863
 3870TIP3    H211552   6.211   4.500   0.870
 3871TIP3   OH211553   4.846   4.288   2.585
 3871TIP3    H111554   4.780   4.267   2.516
 3871TIP3    H211555   4.882   4.200   2.609
 3872TIP3   OH211556   4.700   4.480   2.219
 3872TIP3    H111557   4.796   4.475   2.209
 3872TIP3    H211558   4.690   4.561   2.272
 3873TIP3   OH211559   6.565   4.931   2.272
 3873TIP3    H111560   6.563   4.834   2.287
 3873TIP3    H211561   6.482   4.957   2.318
 3874TIP3   OH211562   5.671   4.718   2.409
 3874TIP3    H111563   5.670   4.811   2.441
 3874TIP3    H211564   5.599   4.679   2.463
 3875TIP3   OH211565   5.433   4.849   1.358
 3875TIP3    H111566   5.382   4.821   1.280
 3875TIP3    H211567   5.396   4.937   1.378
 3876TIP3   OH211568   4.867   4.699   1.745
 3876TIP3    H111569   4.917   4.688   1.829
 3876TIP3    H211570   4.811   4.619   1.748
 3877TIP3   OH211571   5.629   4.748   1.002
 3877TIP3    H111572   5.691   4.680   0.965
 3877TIP3    H211573   5.662   4.757   1.093
 3878TIP3   OH211574   5.683   4.797   1.271
 3878TIP3    H111575   5.593   4.807   1.310
 3878TIP3    H211576   5.729   4.749   1.342
 3879TIP3   OH211577   6.455   4.063   2.548
 3879TIP3    H111578   6.374   4.077   2.497
 3879TIP3    H211579   6.469   3.967   2.537
 3880TIP3   OH211580   5.050   4.471   2.576
 3880TIP3    H111581   5.100   4.454   2.658
 3880TIP3    H211582   4.976   4.407   2.583
 3881TIP3   OH211583   5.451   3.294   2.357
 3881TIP3    H111584   5.361   3.264   2.331
 3881TIP3    H211585   5.427   3.378   2.401
 3882TIP3   OH211586   5.984   3.410   2.551
 3882TIP3    H111587   6.051   3.383   2.617
 3882TIP3    H211588   5.899   3.391   2.597
 3883TIP3   OH211589   6.224   3.839   2.470
 3883TIP3    H111590   6.174   3.835   2.555
 3883TIP3    H211591   6.200   3.927   2.435
 3884TIP3   OH211592   5.880   3.966   1.024
 3884TIP3    H111593   5.849   3.939   0.936
 3884TIP3    H211594   5.956   4.024   1.001
 3885TIP3   OH211595   5.596   3.344   1.329
 3885TIP3    H111596   5.563   3.341   1.420
 3885TIP3    H211597   5.557   3.261   1.295
 3886TIP3   OH211598   5.381   3.809   2.377
 3886TIP3    H111599   5.331   3.833   2.458
 3886TIP3    H211600   5.367   3.890   2.322
 3887TIP3   OH211601   5.267   3.695   1.891
 3887TIP3    H111602   5.173   3.672   1.907
 3887TIP3    H211603   5.279   3.655   1.801
 3888TIP3   OH211604   5.756   3.781   1.617
 3888TIP3    H111605   5.702   3.853   1.577
 3888TIP3    H211606   5.810   3.753   1.540
 3889TIP3   OH211607   5.931   4.061   2.705
 3889TIP3    H111608   5.909   3.989   2.767
 3889TIP3    H211609   6.025   4.076   2.726
 3890TIP3   OH211610   5.914   3.812   1.858
 3890TIP3    H111611   5.855   3.844   1.787
 3890TIP3    H211612   5.945   3.730   1.814
 3891TIP3   OH211613   5.201   3.839   2.585
 3891TIP3    H111614   5.227   3.904   2.652
 3891TIP3    H211615   5.191   3.758   2.638
 3892TIP3   OH211616   5.247   3.314   1.295
 3892TIP3    H111617   5.242   3.314   1.392
 3892TIP3    H211618   5.172   3.372   1.273
 3893TIP3   OH211619   4.794   3.360   2.166
 3893TIP3    H111620   4.869   3.394   2.220
 3893TIP3    H211621   4.836   3.332   2.084
 3894TIP3   OH211622   4.769   3.343   1.685
 3894TIP3    H111623   4.815   3.381   1.607
 3894TIP3    H211624   4.708   3.416   1.706
 3895TIP3   OH211625   5.925   4.057   2.282
 3895TIP3    H111626   5.957   3.985   2.223
 3895TIP3    H211627   5.895   4.005   2.359
 3896TIP3   OH211628   5.592   3.516   1.952
 3896TIP3    H111629   5.508   3.517   2.003
 3896TIP3    H211630   5.658   3.521   2.023
 3897TIP3   OH211631   5.027   3.573   1.961
 3897TIP3    H111632   4.933   3.582   1.933
 3897TIP3    H211633   5.049   3.482   1.936
 3898TIP3   OH211634   5.299   3.570   1.647
 3898TIP3    H111635   5.392   3.587   1.625
 3898TIP3    H211636   5.251   3.593   1.564
 3899TIP3   OH211637   6.085   3.594   2.152
 3899TIP3    H111638   6.051   3.607   2.243
 3899TIP3    H211639   6.018   3.532   2.117
 3900TIP3   OH211640   5.138   3.599   1.428
 3900TIP3    H111641   5.064   3.560   1.377
 3900TIP3    H211642   5.190   3.639   1.355
 3901TIP3   OH211643   6.253   5.283   2.372
 3901TIP3    H111644   6.253   5.307   2.278
 3901TIP3    H211645   6.332   5.331   2.404
 3902TIP3   OH211646   5.213   4.393   2.794
 3902TIP3    H111647   5.292   4.423   2.842
 3902TIP3    H211648   5.148   4.392   2.868
 3903TIP3   OH211649   5.675   3.843   2.049
 3903TIP3    H111650   5.750   3.808   1.998
 3903TIP3    H211651   5.688   3.803   2.136
 3904TIP3   OH211652   5.201   3.336   1.925
 3904TIP3    H111653   5.168   3.256   1.971
 3904TIP3    H211654   5.252   3.299   1.852
 3905TIP3   OH211655   5.653   3.740   2.342
 3905TIP3    H111656   5.564   3.779   2.352
 3905TIP3    H211657   5.710   3.803   2.390
 3906TIP3   OH211658   5.391   4.129   1.436
 3906TIP3    H111659   5.314   4.069   1.424
 3906TIP3    H211660   5.370   4.169   1.524
 3907TIP3   OH211661   6.291   4.370   2.065
 3907TIP3    H111662   6.314   4.420   1.983
 3907TIP3    H211663   6.206   4.328   2.040
 3908TIP3   OH211664   5.848   3.447   1.292
 3908TIP3    H111665   5.751   3.431   1.300
 3908TIP3    H211666   5.858   3.541   1.318
 3909TIP3   OH211667   5.791   4.453   2.431
 3909TIP3    H111668   5.810   4.430   2.522
 3909TIP3    H211669   5.750   4.541   2.438
 3910TIP3   OH211670   5.919   3.692   1.398
 3910TIP3    H111671   6.015   3.701   1.415
 3910TIP3    H211672   5.898   3.774   1.348
 3911TIP3   OH211673   5.081   4.155   2.112
 3911TIP3    H111674   5.117   4.127   2.025
 3911TIP3    H211675   5.122   4.091   2.172
 3912TIP3   OH211676   5.560   4.294   1.274
 3912TIP3    H111677   5.504   4.375   1.267
 3912TIP3    H211678   5.493   4.231   1.306
 3913TIP3   OH211679   4.962   4.076   2.723
 3913TIP3    H111680   4.982   4.063   2.818
 3913TIP3    H211681   4.892   4.010   2.708
 3914TIP3   OH211682   5.687   4.190   2.742
 3914TIP3    H111683   5.628   4.131   2.692
 3914TIP3    H211684   5.775   4.156   2.714
 3915TIP3   OH211685   5.950   4.712   2.326
 3915TIP3    H111686   5.854   4.709   2.339
 3915TIP3    H211687   5.978   4.763   2.405
 3916TIP3   OH211688   6.361   3.783   1.235
 3916TIP3    H111689   6.299   3.739   1.173
 3916TIP3    H211690   6.357   3.873   1.196
 3917TIP3   OH211691   6.578   4.639   2.317
 3917TIP3    H111692   6.480   4.636   2.309
 3917TIP3    H211693   6.603   4.609   2.226
 3918TIP3   OH211694   6.064   4.602   1.145
 3918TIP3    H111695   6.032   4.532   1.203
 3918TIP3    H211696   6.072   4.558   1.059
 3919TIP3   OH211697   6.056   4.231   1.986
 3919TIP3    H111698   5.962   4.207   1.997
 3919TIP3    H211699   6.089   4.153   1.938
 3920TIP3   OH211700   5.183   4.461   1.742
 3920TIP3    H111701   5.187   4.537   1.681
 3920TIP3    H211702   5.090   4.436   1.734
 3921TIP3   OH211703   4.746   3.763   1.435
 3921TIP3    H111704   4.792   3.847   1.454
 3921TIP3    H211705   4.670   3.770   1.497
 3922TIP3   OH211706   5.325   4.226   1.684
 3922TIP3    H111707   5.290   4.316   1.697
 3922TIP3    H211708   5.284   4.178   1.757
 3923TIP3   OH211709   5.451   4.804   2.205
 3923TIP3    H111710   5.492   4.876   2.153
 3923TIP3    H211711   5.527   4.768   2.253
 3924TIP3   OH211712   5.103   4.699   1.589
 3924TIP3    H111713   5.017   4.707   1.634
 3924TIP3    H211714   5.133   4.792   1.589
 3925TIP3   OH211715   5.841   4.436   2.162
 3925TIP3    H111716   5.832   4.435   2.260
 3925TIP3    H211717   5.922   4.384   2.149
 3926TIP3   OH211718   5.806   4.324   1.050
 3926TIP3    H111719   5.862   4.301   1.127
 3926TIP3    H211720   5.718   4.312   1.089
 3927TIP3   OH211721   6.089   4.972   2.213
 3927TIP3    H111722   6.009   4.915   2.205
 3927TIP3    H211723   6.073   5.037   2.141
 3928TIP3   OH211724   6.155   4.803   0.870
 3928TIP3    H111725   6.172   4.861   0.794
 3928TIP3    H211726   6.077   4.851   0.906
 3929TIP3   OH211727   5.175   3.581   2.732
 3929TIP3    H111728   5.078   3.587   2.748
 3929TIP3    H211729   5.203   3.522   2.804
 3930TIP3   OH211730   5.975   4.264   1.260
 3930TIP3    H111731   5.963   4.200   1.333
 3930TIP3    H211732   6.072   4.261   1.250
 3931TIP3   OH211733   4.890   4.667   2.364
 3931TIP3    H111734   4.942   4.590   2.391
 3931TIP3    H211735   4.920   4.733   2.427
 3932TIP3   OH211736   5.107   4.318   1.364
 3932TIP3    H111737   5.197   4.284   1.356
 3932TIP3    H211738   5.117   4.408   1.326
 3933TIP3   OH211739   4.863   4.009   1.519
 3933TIP3    H111740   4.798   4.057   1.574
 3933TIP3    H211741   4.884   4.077   1.452
 3934TIP3   OH211742   6.011   3.645   2.411
 3934TIP3    H111743   6.089   3.685   2.452
 3934TIP3    H211744   5.996   3.566   2.466
 3935TIP3   OH211745   5.892   3.398   1.575
 3935TIP3    H111746   5.876   3.422   1.482
 3935TIP3    H211747   5.928   3.481   1.612
 3936TIP3   OH211748   5.400   4.517   1.278
 3936TIP3    H111749   5.308   4.535   1.305
 3936TIP3    H211750   5.396   4.553   1.188
 3937TIP3   OH211751   5.583   3.575   1.678
 3937TIP3    H111752   5.645   3.648   1.661
 3937TIP3    H211753   5.586   3.570   1.776
 3938TIP3   OH211754   5.849   3.897   2.488
 3938TIP3    H111755   5.867   3.951   2.567
 3938TIP3    H211756   5.905   3.819   2.504
 3939TIP3   OH211757   5.726   3.306   1.783
 3939TIP3    H111758   5.716   3.384   1.841
 3939TIP3    H211759   5.785   3.343   1.713
 3940TIP3   OH211760   5.139   4.593   1.327
 3940TIP3    H111761   5.106   4.662   1.266
 3940TIP3    H211762   5.121   4.633   1.415
 3941TIP3   OH211763   5.236   3.302   1.572
 3941TIP3    H111764   5.234   3.394   1.606
 3941TIP3    H211765   5.332   3.284   1.580
 3942TIP3   OH211766   6.491   3.795   2.468
 3942TIP3    H111767   6.393   3.793   2.476
 3942TIP3    H211768   6.503   3.759   2.380
 3943TIP3   OH211769   6.141   3.991   1.856
 3943TIP3    H111770   6.065   3.931   1.868
 3943TIP3    H211771   6.213   3.943   1.903
 3944TIP3   OH211772   4.849   4.225   1.325
 3944TIP3    H111773   4.926   4.282   1.347
 3944TIP3    H211774   4.892   4.170   1.256
 3945TIP3   OH211775   4.797   3.494   1.459
 3945TIP3    H111776   4.800   3.592   1.455
 3945TIP3    H211777   4.711   3.476   1.419
 3946TIP3   OH211778   6.109   4.946   1.806
 3946TIP3    H111779   6.066   4.993   1.732
 3946TIP3    H211780   6.203   4.964   1.784
 3947TIP3   OH211781   5.186   3.215   2.334
 3947TIP3    H111782   5.154   3.182   2.247
 3947TIP3    H211783   5.175   3.137   2.391
 3948TIP3   OH211784   4.728   4.434   1.718
 3948TIP3    H111785   4.649   4.467   1.763
 3948TIP3    H211786   4.711   4.469   1.627
 3949TIP3   OH211787   4.879   4.972   2.785
 3949TIP3    H111788   4.966   4.971   2.831
 3949TIP3    H211789   4.858   4.877   2.783
 3950TIP3   OH211790   5.364   4.941   2.830
 3950TIP3    H111791   5.459   4.921   2.835
 3950TIP3    H211792   5.337   4.883   2.756
 3951TIP3   OH211793   6.002   4.845   2.563
 3951TIP3    H111794   5.993   4.776   2.632
 3951TIP3    H211795   6.079   4.896   2.593
 3952TIP3   OH211796   5.781   4.562   0.872
 3952TIP3    H111797   5.828   4.495   0.925
 3952TIP3    H211798   5.830   4.560   0.787
 3953TIP3   OH211799   5.012   4.380   2.985
 3953TIP3    H111800   5.027   4.284   2.991
 3953TIP3    H211801   4.924   4.383   2.941
 3954TIP3   OH211802   4.980   4.035   1.184
 3954TIP3    H111803   5.042   4.007   1.253
 3954TIP3    H211804   5.042   4.039   1.108
 3955TIP3   OH211805   5.619   4.465   2.759
 3955TIP3    H111806   5.577   4.481   2.672
 3955TIP3    H211807   5.649   4.372   2.752
 3956TIP3   OH211808   6.112   4.471   2.365
 3956TIP3    H111809   6.186   4.517   2.321
 3956TIP3    H211810   6.040   4.536   2.352
 3957TIP3   OH211811   5.131   4.113   2.966
 3957TIP3    H111812   5.206   4.056   2.947
 3957TIP3    H211813   5.155   4.148   3.055
 3958TIP3   OH211814   5.195   3.932   1.403
 3958TIP3    H111815   5.171   3.888   1.486
 3958TIP3    H211816   5.232   3.859   1.349
 3959TIP3   OH211817   5.465   3.999   2.629
 3959TIP3    H111818   5.388   4.059   2.631
 3959TIP3    H211819   5.515   4.033   2.551
 3960TIP3   OH211820   5.295   3.725   1.244
 3960TIP3    H111821   5.269   3.731   1.149
 3960TIP3    H211822   5.392   3.733   1.237
 3961TIP3   OH211823   5.983   4.402   2.765
 3961TIP3    H111824   6.062   4.380   2.715
 3961TIP3    H211825   5.981   4.333   2.833
 3962TIP3   OH211826   6.124   4.059   0.899
 3962TIP3    H111827   6.097   4.015   0.816
 3962TIP3    H211828   6.090   4.149   0.881
 3963TIP3   OH211829   5.589   3.787   2.755
 3963TIP3    H111830   5.588   3.707   2.699
 3963TIP3    H211831   5.545   3.853   2.697
 3964TIP3   OH211832   5.591   3.572   2.562
 3964TIP3    H111833   5.618   3.615   2.479
 3964TIP3    H211834   5.497   3.551   2.544
 3965TIP3   OH211835   5.621   4.110   2.435
 3965TIP3    H111836   5.703   4.119   2.385
 3965TIP3    H211837   5.563   4.177   2.392
 3966TIP3   OH211838   6.201   4.077   2.817
 3966TIP3    H111839   6.252   3.995   2.828
 3966TIP3    H211840   6.269   4.137   2.783
 3967TIP3   OH211841   6.243   4.329   2.553
 3967TIP3    H111842   6.184   4.381   2.494
 3967TIP3    H211843   6.330   4.350   2.513
 3968TIP3   OH211844   5.465   3.902   2.984
 3968TIP3    H111845   5.397   3.833   2.999
 3968TIP3    H211846   5.500   3.875   2.897
 3969TIP3   OH211847   5.723   3.337   2.627
 3969TIP3    H111848   5.674   3.419   2.606
 3969TIP3    H211849   5.654   3.269   2.617
 3970TIP3   OH211850   5.850   3.843   2.845
 3970TIP3    H111851   5.839   3.831   2.941
 3970TIP3    H211852   5.759   3.818   2.816
 3971TIP3   OH211853   6.088   3.790   2.699
 3971TIP3    H111854   6.013   3.794   2.762
 3971TIP3    H211855   6.162   3.761   2.757
 3972TIP3   OH211856   6.318   3.731   2.851
 3972TIP3    H111857   6.329   3.636   2.871
 3972TIP3    H211858   6.314   3.772   2.940
 3973TIP3   OH211859   5.305   3.682   3.036
 3973TIP3    H111860   5.313   3.591   3.002
 3973TIP3    H211861   5.341   3.670   3.127
 3974TIP3   OH211862   5.818   3.347   2.885
 3974TIP3    H111863   5.886   3.276   2.879
 3974TIP3    H211864   5.778   3.341   2.796
 3975TIP3   OH211865   5.884   3.562   3.045
 3975TIP3    H111866   5.861   3.492   2.981
 3975TIP3    H211867   5.807   3.622   3.040
 3976TIP3   OH211868   5.102   4.805   1.149
 3976TIP3    H111869   5.196   4.789   1.130
 3976TIP3    H211870   5.074   4.842   1.064
 3977TIP3   OH211871   4.584   4.173   1.365
 3977TIP3    H111872   4.678   4.198   1.348
 3977TIP3    H211873   4.581   4.084   1.323
 3978TIP3   OH211874   4.497   4.787   1.774
 3978TIP3    H111875   4.431   4.724   1.738
 3978TIP3    H211876   4.542   4.731   1.841
 3979TIP3   OH211877   4.632   4.642   1.963
 3979TIP3    H111878   4.623   4.564   2.020
 3979TIP3    H211879   4.685   4.700   2.020
 3980TIP3   OH211880   6.362   5.037   1.761
 3980TIP3    H111881   6.387   5.069   1.849
 3980TIP3    H211882   6.421   5.086   1.703
 3981TIP3   OH211883   6.392   5.058   2.042
 3981TIP3    H111884   6.348   4.970   2.038
 3981TIP3    H211885   6.465   5.036   2.102
 3982TIP3   OH211886   6.437   4.733   2.616
 3982TIP3    H111887   6.364   4.743   2.680
 3982TIP3    H211888   6.479   4.822   2.620
 3983TIP3   OH211889   6.254   4.246   1.237
 3983TIP3    H111890   6.321   4.311   1.208
 3983TIP3    H211891   6.298   4.208   1.317
 3984TIP3   OH211892   6.382   4.114   1.441
 3984TIP3    H111893   6.315   4.073   1.499
 3984TIP3    H211894   6.444   4.154   1.505
 3985TIP3   OH211895   6.435   4.506   1.874
 3985TIP3    H111896   6.487   4.442   1.822
 3985TIP3    H211897   6.425   4.580   1.811
 3986TIP3   OH211898   6.268   4.808   2.068
 3986TIP3    H111899   6.196   4.849   2.120
 3986TIP3    H211900   6.218   4.760   1.999
 3987TIP3   OH211901   6.319   4.021   1.087
 3987TIP3    H111902   6.249   4.025   1.018
 3987TIP3    H211903   6.291   4.097   1.142
 3988TIP3   OH211904   6.195   3.694   1.040
 3988TIP3    H111905   6.146   3.738   0.971
 3988TIP3    H211906   6.166   3.600   1.029
 3989TIP3   OH211907   6.197   3.971   1.589
 3989TIP3    H111908   6.203   3.875   1.582
 3989TIP3    H211909   6.183   3.985   1.685
 3990TIP3   OH211910   4.822   4.042   2.334
 3990TIP3    H111911   4.821   4.015   2.240
 3990TIP3    H211912   4.919   4.045   2.350
 3991TIP3   OH211913   6.485   4.396   2.443
 3991TIP3    H111914   6.558   4.331   2.435
 3991TIP3    H211915   6.512   4.466   2.382
 3992TIP3   OH211916   6.670   4.202   2.462
 3992TIP3    H111917   6.596   4.151   2.503
 3992TIP3    H211918   6.743   4.138   2.476
 3993TIP3   OH211919   6.135   3.428   1.027
 3993TIP3    H111920   6.209   3.400   1.083
 3993TIP3    H211921   6.061   3.370   1.054
 3994TIP3   OH211922   6.192   3.687   1.485
 3994TIP3    H111923   6.232   3.598   1.499
 3994TIP3    H211924   6.250   3.720   1.414
 3995TIP3   OH211925   6.354   3.861   1.978
 3995TIP3    H111926   6.440   3.888   1.938
 3995TIP3    H211927   6.367   3.899   2.067
 3996TIP3   OH211928   6.421   4.004   2.210
 3996TIP3    H111929   6.343   4.039   2.257
 3996TIP3    H211930   6.454   4.085   2.165
 3997TIP3   OH211931   5.039   3.731   3.006
 3997TIP3    H111932   5.137   3.725   3.009
 3997TIP3    H211933   5.015   3.647   3.050
 3998TIP3   OH211934   6.874   3.594   2.766
 3998TIP3    H111935   6.933   3.530   2.722
 3998TIP3    H211936   6.845   3.650   2.691
 3999TIP3   OH211937   6.302   3.436   1.519
 3999TIP3    H111938   6.349   3.422   1.603
 3999TIP3    H211939   6.240   3.360   1.519
 4000TIP3   OH211940   5.000   3.423   2.340
 4000TIP3    H111941   5.063   3.349   2.349
 4000TIP3    H211942   5.062   3.498   2.333
 4001TIP3   OH211943   4.805   3.697   2.413
 4001TIP3    H111944   4.854   3.692   2.329
 4001TIP3    H211945   4.830   3.784   2.445
 4002TIP3   OH211946   6.746   3.736   2.573
 4002TIP3    H111947   6.660   3.777   2.595
 4002TIP3    H211948   6.716   3.666   2.513
 4003TIP3   OH211949   6.383   3.373   1.152
 4003TIP3    H111950   6.423   3.300   1.100
 4003TIP3    H211951   6.450   3.443   1.146
 4004TIP3   OH211952   4.786   3.199   1.912
 4004TIP3    H111953   4.693   3.199   1.939
 4004TIP3    H211954   4.785   3.259   1.835
 4005TIP3   OH211955   5.948   4.904   1.420
 4005TIP3    H111956   5.994   4.888   1.335
 4005TIP3    H211957   6.004   4.971   1.461
 4006TIP3   OH211958   5.007   3.279   2.727
 4006TIP3    H111959   4.957   3.276   2.810
 4006TIP3    H211960   4.941   3.319   2.667
 4007TIP3   OH211961   5.047   4.709   2.806
 4007TIP3    H111962   4.956   4.678   2.787
 4007TIP3    H211963   5.055   4.688   2.900
 4008TIP3   OH211964   5.224   4.739   2.353
 4008TIP3    H111965   5.176   4.814   2.313
 4008TIP3    H211966   5.310   4.753   2.309
 4009TIP3   OH211967   5.671   4.985   2.491
 4009TIP3    H111968   5.714   4.987   2.580
 4009TIP3    H211969   5.737   5.036   2.438
 4010TIP3   OH211970   5.850   5.136   2.348
 4010TIP3    H111971   5.921   5.085   2.307
 4010TIP3    H211972   5.901   5.193   2.410
 4011TIP3   OH211973   6.644   3.499   2.449
 4011TIP3    H111974   6.553   3.496   2.415
 4011TIP3    H211975   6.672   3.406   2.437
 4012TIP3   OH211976   4.901   4.999   2.374
 4012TIP3    H111977   4.812   5.033   2.351
 4012TIP3    H211978   4.908   5.028   2.466
 4013TIP3   OH211979   5.139   4.976   2.234
 4013TIP3    H111980   5.052   4.989   2.278
 4013TIP3    H211981   5.119   5.007   2.143
 4014TIP3   OH211982   5.564   5.005   2.031
 4014TIP3    H111983   5.495   5.025   1.965
 4014TIP3    H211984   5.576   5.093   2.073
 4015TIP3   OH211985   5.832   4.944   2.083
 4015TIP3    H111986   5.738   4.961   2.062
 4015TIP3    H211987   5.875   5.020   2.041
 4016TIP3   OH211988   6.042   5.138   1.999
 4016TIP3    H111989   6.027   5.221   1.950
 4016TIP3    H211990   6.067   5.076   1.927
 4017TIP3   OH211991   4.813   4.792   2.122
 4017TIP3    H111992   4.840   4.766   2.213
 4017TIP3    H211993   4.884   4.746   2.071
 4018TIP3   OH211994   5.005   4.662   1.978
 4018TIP3    H111995   5.023   4.578   2.024
 4018TIP3    H211996   5.095   4.699   1.969
 4019TIP3   OH211997   5.272   4.760   1.979
 4019TIP3    H111998   5.303   4.669   1.961
 4019TIP3    H211999   5.315   4.777   2.064
 4020TIP3   OH212000   5.850   3.415   2.069
 4020TIP3    H112001   5.804   3.346   2.120
 4020TIP3    H212002   5.920   3.364   2.024
 4021TIP3   OH212003   6.374   3.291   1.974
 4021TIP3    H112004   6.410   3.345   1.900
 4021TIP3    H212005   6.278   3.310   1.968
 4022TIP3   OH212006   6.467   3.394   1.737
 4022TIP3    H112007   6.541   3.344   1.696
 4022TIP3    H212008   6.499   3.486   1.723
 4023TIP3   OH212009   5.098   3.123   2.085
 4023TIP3    H112010   5.005   3.091   2.086
 4023TIP3    H212011   5.146   3.037   2.081
 4024TIP3   OH212012   4.882   2.991   1.730
 4024TIP3    H112013   4.913   3.050   1.659
 4024TIP3    H212014   4.854   3.055   1.798
 4025TIP3   OH212015   5.541   3.153   1.966
 4025TIP3    H112016   5.597   3.205   1.906
 4025TIP3    H212017   5.559   3.195   2.051
 4026TIP3   OH212018   6.091   3.301   1.949
 4026TIP3    H112019   6.084   3.266   1.859
 4026TIP3    H212020   6.075   3.220   2.003
 4027TIP3   OH212021   6.117   3.223   1.510
 4027TIP3    H112022   6.030   3.266   1.521
 4027TIP3    H212023   6.101   3.138   1.558
 4028TIP3   OH212024   4.599   4.561   1.516
 4028TIP3    H112025   4.515   4.527   1.480
 4028TIP3    H212026   4.588   4.656   1.497
 4029TIP3   OH212027   5.000   3.150   1.497
 4029TIP3    H112028   5.050   3.090   1.439
 4029TIP3    H212029   5.071   3.207   1.533
 4030TIP3   OH212030   5.513   3.325   1.595
 4030TIP3    H112031   5.574   3.279   1.655
 4030TIP3    H212032   5.535   3.418   1.619
 4031TIP3   OH212033   5.365   4.749   1.087
 4031TIP3    H112034   5.457   4.762   1.054
 4031TIP3    H212035   5.335   4.678   1.028
 4032TIP3   OH212036   6.092   4.870   1.188
 4032TIP3    H112037   6.085   4.772   1.176
 4032TIP3    H212038   6.046   4.901   1.107
 4033TIP3   OH212039   5.305   3.402   2.973
 4033TIP3    H112040   5.270   3.334   3.032
 4033TIP3    H212041   5.399   3.403   3.002
 4034TIP3   OH212042   5.553   3.399   3.094
 4034TIP3    H112043   5.639   3.376   3.056
 4034TIP3    H212044   5.542   3.329   3.162
 4035TIP3   OH212045   4.681   4.588   1.150
 4035TIP3    H112046   4.683   4.611   1.244
 4035TIP3    H212047   4.769   4.545   1.138
 4036TIP3   OH212048   6.379   3.459   2.882
 4036TIP3    H112049   6.398   3.429   2.974
 4036TIP3    H212050   6.468   3.456   2.841
 4037TIP3   OH212051   6.320   5.015   2.373
 4037TIP3    H112052   6.240   4.983   2.326
 4037TIP3    H212053   6.299   5.111   2.377
 4038TIP3   OH212054   7.585   4.385   1.143
 4038TIP3    H112055   7.557   4.477   1.125
 4038TIP3    H212056   7.507   4.337   1.112
 4039TIP3   OH212057   7.585   4.383   1.518
 4039TIP3    H112058   7.613   4.360   1.609
 4039TIP3    H212059   7.540   4.302   1.490
 4040TIP3   OH212060   6.884   4.283   1.885
 4040TIP3    H112061   6.914   4.215   1.948
 4040TIP3    H212062   6.961   4.341   1.883
 4041TIP3   OH212063   7.829   4.684   1.204
 4041TIP3    H112064   7.811   4.619   1.273
 4041TIP3    H212065   7.853   4.762   1.256
 4042TIP3   OH212066   6.852   4.691   1.611
 4042TIP3    H112067   6.844   4.593   1.615
 4042TIP3    H212068   6.949   4.700   1.611
 4043TIP3   OH212069   6.562   3.894   1.398
 4043TIP3    H112070   6.514   3.978   1.413
 4043TIP3    H212071   6.490   3.840   1.361
 4044TIP3   OH212072   6.621   4.183   1.568
 4044TIP3    H112073   6.669   4.105   1.605
 4044TIP3    H212074   6.678   4.208   1.495
 4045TIP3   OH212075   7.476   5.154   1.222
 4045TIP3    H112076   7.520   5.084   1.170
 4045TIP3    H212077   7.471   5.112   1.309
 4046TIP3   OH212078   7.383   4.612   1.569
 4046TIP3    H112079   7.420   4.535   1.523
 4046TIP3    H212080   7.467   4.656   1.594
 4047TIP3   OH212081   7.807   4.131   1.592
 4047TIP3    H112082   7.829   4.040   1.623
 4047TIP3    H212083   7.761   4.108   1.509
 4048TIP3   OH212084   7.131   3.772   1.569
 4048TIP3    H112085   7.111   3.845   1.506
 4048TIP3    H212086   7.083   3.699   1.523
 4049TIP3   OH212087   7.818   3.863   1.193
 4049TIP3    H112088   7.889   3.847   1.259
 4049TIP3    H212089   7.870   3.901   1.121
 4050TIP3   OH212090   6.765   3.975   1.674
 4050TIP3    H112091   6.848   3.956   1.722
 4050TIP3    H212092   6.779   3.918   1.595
 4051TIP3   OH212093   7.208   4.172   1.465
 4051TIP3    H112094   7.301   4.147   1.479
 4051TIP3    H212095   7.168   4.088   1.434
 4052TIP3   OH212096   7.128   3.756   2.002
 4052TIP3    H112097   7.068   3.794   1.935
 4052TIP3    H212098   7.078   3.774   2.083
 4053TIP3   OH212099   7.475   4.605   1.013
 4053TIP3    H112100   7.431   4.584   0.930
 4053TIP3    H212101   7.434   4.691   1.035
 4054TIP3   OH212102   7.235   4.531   1.799
 4054TIP3    H112103   7.172   4.595   1.838
 4054TIP3    H212104   7.277   4.585   1.729
 4055TIP3   OH212105   8.032   3.868   1.360
 4055TIP3    H112106   8.027   3.806   1.435
 4055TIP3    H212107   8.117   3.908   1.380
 4056TIP3   OH212108   6.998   3.871   1.787
 4056TIP3    H112109   7.060   3.943   1.811
 4056TIP3    H212110   7.047   3.831   1.712
 4057TIP3   OH212111   7.060   4.723   1.894
 4057TIP3    H112112   7.035   4.810   1.858
 4057TIP3    H212113   6.982   4.707   1.952
 4058TIP3   OH212114   6.459   4.412   1.132
 4058TIP3    H112115   6.418   4.434   1.046
 4058TIP3    H212116   6.486   4.499   1.166
 4059TIP3   OH212117   7.894   4.926   1.364
 4059TIP3    H112118   7.806   4.918   1.408
 4059TIP3    H212119   7.887   5.016   1.325
 4060TIP3   OH212120   7.485   3.474   1.716
 4060TIP3    H112121   7.466   3.379   1.733
 4060TIP3    H212122   7.407   3.515   1.761
 4061TIP3   OH212123   7.597   4.981   1.049
 4061TIP3    H112124   7.644   4.896   1.028
 4061TIP3    H212125   7.661   5.043   1.008
 4062TIP3   OH212126   7.736   4.767   0.956
 4062TIP3    H112127   7.712   4.689   0.905
 4062TIP3    H212128   7.775   4.727   1.037
 4063TIP3   OH212129   8.108   4.848   1.711
 4063TIP3    H112130   8.113   4.768   1.654
 4063TIP3    H212131   8.108   4.921   1.646
 4064TIP3   OH212132   7.415   4.238   0.971
 4064TIP3    H112133   7.333   4.288   0.952
 4064TIP3    H212134   7.456   4.232   0.883
 4065TIP3   OH212135   7.374   4.022   0.709
 4065TIP3    H112136   7.450   4.070   0.745
 4065TIP3    H212137   7.420   3.958   0.651
 4066TIP3   OH212138   7.762   4.316   0.948
 4066TIP3    H112139   7.707   4.342   1.026
 4066TIP3    H212140   7.845   4.288   0.991
 4067TIP3   OH212141   7.991   4.357   1.860
 4067TIP3    H112142   7.991   4.437   1.916
 4067TIP3    H212143   7.907   4.369   1.813
 4068TIP3   OH212144   6.995   4.319   1.359
 4068TIP3    H112145   6.953   4.261   1.292
 4068TIP3    H212146   7.072   4.265   1.388
 4069TIP3   OH212147   7.127   4.734   1.507
 4069TIP3    H112148   7.103   4.685   1.427
 4069TIP3    H212149   7.216   4.698   1.527
 4070TIP3   OH212150   7.134   4.288   1.715
 4070TIP3    H112151   7.166   4.269   1.624
 4070TIP3    H212152   7.175   4.375   1.735
 4071TIP3   OH212153   7.656   4.926   1.491
 4071TIP3    H112154   7.646   5.005   1.548
 4071TIP3    H212155   7.642   4.853   1.554
 4072TIP3   OH212156   7.269   4.848   2.036
 4072TIP3    H112157   7.210   4.908   2.086
 4072TIP3    H212158   7.203   4.793   1.989
 4073TIP3   OH212159   7.607   4.185   0.767
 4073TIP3    H112160   7.661   4.236   0.831
 4073TIP3    H212161   7.639   4.220   0.683
 4074TIP3   OH212162   7.022   4.404   2.137
 4074TIP3    H112163   7.027   4.490   2.183
 4074TIP3    H212164   6.927   4.384   2.149
 4075TIP3   OH212165   7.344   4.859   1.043
 4075TIP3    H112166   7.424   4.910   1.062
 4075TIP3    H212167   7.283   4.926   1.011
 4076TIP3   OH212168   7.063   5.014   2.125
 4076TIP3    H112169   7.025   5.012   2.035
 4076TIP3    H212170   6.984   4.993   2.180
 4077TIP3   OH212171   6.861   4.161   1.164
 4077TIP3    H112172   6.795   4.206   1.108
 4077TIP3    H212173   6.818   4.076   1.179
 4078TIP3   OH212174   6.642   4.545   2.072
 4078TIP3    H112175   6.576   4.522   2.003
 4078TIP3    H212176   6.679   4.457   2.097
 4079TIP3   OH212177   6.495   4.738   1.705
 4079TIP3    H112178   6.592   4.733   1.697
 4079TIP3    H212179   6.484   4.817   1.759
 4080TIP3   OH212180   8.313   5.163   1.723
 4080TIP3    H112181   8.401   5.145   1.759
 4080TIP3    H212182   8.260   5.189   1.801
 4081TIP3   OH212183   7.464   4.977   1.892
 4081TIP3    H112184   7.465   5.069   1.928
 4081TIP3    H212185   7.395   4.936   1.949
 4082TIP3   OH212186   7.218   5.104   0.854
 4082TIP3    H112187   7.181   5.086   0.765
 4082TIP3    H212188   7.189   5.195   0.871
 4083TIP3   OH212189   6.666   4.955   1.230
 4083TIP3    H112190   6.711   4.943   1.317
 4083TIP3    H212191   6.607   4.878   1.231
 4084TIP3   OH212192   7.457   5.023   0.749
 4084TIP3    H112193   7.382   5.052   0.804
 4084TIP3    H212194   7.527   5.013   0.815
 4085TIP3   OH212195   8.240   4.338   2.028
 4085TIP3    H112196   8.156   4.340   1.980
 4085TIP3    H212197   8.254   4.245   2.045
 4086TIP3   OH212198   6.846   4.728   2.062
 4086TIP3    H112199   6.896   4.712   2.145
 4086TIP3    H212200   6.773   4.663   2.070
 4087TIP3   OH212201   7.247   3.551   1.843
 4087TIP3    H112202   7.157   3.521   1.818
 4087TIP3    H212203   7.223   3.634   1.888
 4088TIP3   OH212204   7.763   3.674   2.027
 4088TIP3    H112205   7.831   3.651   2.094
 4088TIP3    H212206   7.680   3.654   2.075
 4089TIP3   OH212207   8.050   4.099   1.965
 4089TIP3    H112208   7.992   4.085   2.043
 4089TIP3    H212209   8.011   4.180   1.926
 4090TIP3   OH212210   7.394   3.604   0.817
 4090TIP3    H112211   7.359   3.598   0.908
 4090TIP3    H212212   7.357   3.522   0.780
 4091TIP3   OH212213   7.177   4.066   1.864
 4091TIP3    H112214   7.127   4.090   1.945
 4091TIP3    H212215   7.163   4.147   1.809
 4092TIP3   OH212216   7.062   3.953   1.377
 4092TIP3    H112217   6.969   3.927   1.395
 4092TIP3    H212218   7.075   3.912   1.289
 4093TIP3   OH212219   7.554   4.040   1.105
 4093TIP3    H112220   7.499   4.110   1.064
 4093TIP3    H212221   7.605   4.008   1.028
 4094TIP3   OH212222   7.726   4.318   2.189
 4094TIP3    H112223   7.707   4.246   2.253
 4094TIP3    H212224   7.819   4.337   2.211
 4095TIP3   OH212225   7.706   4.073   1.340
 4095TIP3    H112226   7.645   4.094   1.267
 4095TIP3    H212227   7.739   3.987   1.307
 4096TIP3   OH212228   6.996   4.096   2.072
 4096TIP3    H112229   7.024   4.160   2.139
 4096TIP3    H212230   6.986   4.014   2.125
 4097TIP3   OH212231   7.043   3.571   0.782
 4097TIP3    H112232   7.039   3.571   0.879
 4097TIP3    H212233   6.965   3.626   0.761
 4098TIP3   OH212234   6.590   3.617   1.652
 4098TIP3    H112235   6.666   3.650   1.706
 4098TIP3    H212236   6.631   3.587   1.570
 4099TIP3   OH212237   6.566   3.600   1.172
 4099TIP3    H112238   6.613   3.638   1.094
 4099TIP3    H212239   6.505   3.673   1.192
 4100TIP3   OH212240   7.713   4.316   1.766
 4100TIP3    H112241   7.752   4.247   1.709
 4100TIP3    H212242   7.689   4.262   1.845
 4101TIP3   OH212243   7.386   3.780   1.438
 4101TIP3    H112244   7.305   3.776   1.493
 4101TIP3    H212245   7.456   3.771   1.505
 4102TIP3   OH212246   6.823   3.830   1.447
 4102TIP3    H112247   6.729   3.839   1.420
 4102TIP3    H212248   6.845   3.738   1.424
 4103TIP3   OH212249   7.094   3.828   1.135
 4103TIP3    H112250   7.188   3.842   1.114
 4103TIP3    H212251   7.048   3.849   1.051
 4104TIP3   OH212252   7.841   3.868   1.629
 4104TIP3    H112253   7.827   3.868   1.726
 4104TIP3    H212254   7.804   3.783   1.602
 4105TIP3   OH212255   6.932   3.857   0.916
 4105TIP3    H112256   6.857   3.818   0.868
 4105TIP3    H212257   6.984   3.894   0.842
 4106TIP3   OH212258   8.046   5.544   1.860
 4106TIP3    H112259   8.050   5.562   1.764
 4106TIP3    H212260   8.121   5.596   1.893
 4107TIP3   OH212261   7.009   4.650   2.281
 4107TIP3    H112262   7.089   4.679   2.330
 4107TIP3    H212263   6.945   4.649   2.354
 4108TIP3   OH212264   7.474   4.103   1.537
 4108TIP3    H112265   7.543   4.059   1.486
 4108TIP3    H212266   7.481   4.060   1.625
 4109TIP3   OH212267   6.998   3.592   1.412
 4109TIP3    H112268   6.963   3.512   1.458
 4109TIP3    H212269   7.048   3.554   1.339
 4110TIP3   OH212270   7.449   3.998   1.828
 4110TIP3    H112271   7.360   4.037   1.840
 4110TIP3    H212272   7.507   4.059   1.878
 4111TIP3   OH212273   7.186   4.392   0.920
 4111TIP3    H112274   7.114   4.325   0.911
 4111TIP3    H212275   7.167   4.425   1.011
 4112TIP3   OH212276   8.098   4.618   1.556
 4112TIP3    H112277   8.131   4.660   1.474
 4112TIP3    H212278   8.011   4.582   1.529
 4113TIP3   OH212279   7.649   3.703   0.790
 4113TIP3    H112280   7.553   3.682   0.789
 4113TIP3    H212281   7.648   3.800   0.802
 4114TIP3   OH212282   7.582   4.708   1.917
 4114TIP3    H112283   7.612   4.685   2.006
 4114TIP3    H212284   7.546   4.797   1.929
 4115TIP3   OH212285   7.712   3.957   0.888
 4115TIP3    H112286   7.809   3.963   0.902
 4115TIP3    H212287   7.695   4.031   0.826
 4116TIP3   OH212288   6.879   4.414   1.598
 4116TIP3    H112289   6.915   4.383   1.512
 4116TIP3    H212290   6.916   4.349   1.660
 4117TIP3   OH212291   7.336   4.542   0.744
 4117TIP3    H112292   7.283   4.625   0.747
 4117TIP3    H212293   7.282   4.484   0.801
 4118TIP3   OH212294   6.758   4.333   2.210
 4118TIP3    H112295   6.779   4.321   2.304
 4118TIP3    H212296   6.689   4.267   2.196
 4119TIP3   OH212297   7.484   4.446   2.229
 4119TIP3    H112298   7.426   4.386   2.179
 4119TIP3    H212299   7.573   4.413   2.202
 4120TIP3   OH212300   7.743   4.971   1.810
 4120TIP3    H112301   7.647   4.968   1.828
 4120TIP3    H212302   7.775   5.019   1.889
 4121TIP3   OH212303   8.372   4.857   1.793
 4121TIP3    H112304   8.279   4.884   1.779
 4121TIP3    H212305   8.418   4.912   1.730
 4122TIP3   OH212306   7.849   4.490   1.466
 4122TIP3    H112307   7.755   4.466   1.483
 4122TIP3    H212308   7.883   4.409   1.427
 4123TIP3   OH212309   6.977   4.715   1.218
 4123TIP3    H112310   6.975   4.797   1.166
 4123TIP3    H212311   6.883   4.699   1.232
 4124TIP3   OH212312   6.542   4.019   0.923
 4124TIP3    H112313   6.585   4.105   0.941
 4124TIP3    H212314   6.464   4.025   0.982
 4125TIP3   OH212315   7.119   4.482   1.165
 4125TIP3    H112316   7.083   4.571   1.184
 4125TIP3    H212317   7.084   4.431   1.240
 4126TIP3   OH212318   7.248   5.061   1.693
 4126TIP3    H112319   7.294   5.130   1.643
 4126TIP3    H212320   7.321   5.022   1.744
 4127TIP3   OH212321   6.896   4.955   1.071
 4127TIP3    H112322   6.811   4.961   1.119
 4127TIP3    H212323   6.927   5.048   1.075
 4128TIP3   OH212324   7.637   4.692   1.649
 4128TIP3    H112325   7.627   4.692   1.747
 4128TIP3    H212326   7.721   4.645   1.639
 4129TIP3   OH212327   7.564   4.607   0.590
 4129TIP3    H112328   7.642   4.578   0.643
 4129TIP3    H212329   7.492   4.575   0.648
 4130TIP3   OH212330   7.885   5.230   1.702
 4130TIP3    H112331   7.808   5.170   1.694
 4130TIP3    H212332   7.868   5.293   1.629
 4131TIP3   OH212333   6.971   3.837   2.219
 4131TIP3    H112334   6.875   3.843   2.234
 4131TIP3    H212335   6.999   3.779   2.291
 4132TIP3   OH212336   7.763   4.516   0.758
 4132TIP3    H112337   7.763   4.449   0.828
 4132TIP3    H212338   7.858   4.522   0.736
 4133TIP3   OH212339   6.688   4.923   1.850
 4133TIP3    H112340   6.738   4.846   1.881
 4133TIP3    H212341   6.713   4.989   1.916
 4134TIP3   OH212342   6.968   4.569   0.520
 4134TIP3    H112343   6.993   4.476   0.504
 4134TIP3    H212344   6.964   4.570   0.618
 4135TIP3   OH212345   6.925   4.575   0.796
 4135TIP3    H112346   6.989   4.540   0.860
 4135TIP3    H212347   6.933   4.672   0.811
 4136TIP3   OH212348   6.660   4.268   1.006
 4136TIP3    H112349   6.592   4.309   1.065
 4136TIP3    H212350   6.668   4.339   0.940
 4137TIP3   OH212351   7.808   3.909   1.899
 4137TIP3    H112352   7.886   3.942   1.946
 4137TIP3    H212353   7.785   3.829   1.950
 4138TIP3   OH212354   7.684   3.653   1.064
 4138TIP3    H112355   7.667   3.678   0.971
 4138TIP3    H212356   7.719   3.737   1.102
 4139TIP3   OH212357   7.187   4.768   0.744
 4139TIP3    H112358   7.102   4.792   0.785
 4139TIP3    H212359   7.216   4.855   0.713
 4140TIP3   OH212360   7.377   3.834   1.165
 4140TIP3    H112361   7.442   3.905   1.150
 4140TIP3    H212362   7.381   3.825   1.263
 4141TIP3   OH212363   7.646   4.153   1.974
 4141TIP3    H112364   7.665   4.208   2.053
 4141TIP3    H212365   7.702   4.075   1.991
 4142TIP3   OH212366   7.519   3.561   1.269
 4142TIP3    H112367   7.522   3.634   1.334
 4142TIP3    H212368   7.580   3.595   1.200
 4143TIP3   OH212369   6.933   4.846   0.818
 4143TIP3    H112370   6.898   4.910   0.752
 4143TIP3    H212371   6.913   4.891   0.903
 4144TIP3   OH212372   7.032   3.559   1.058
 4144TIP3    H112373   7.030   3.649   1.094
 4144TIP3    H212374   7.128   3.540   1.067
 4145TIP3   OH212375   7.948   4.227   1.351
 4145TIP3    H112376   7.856   4.194   1.338
 4145TIP3    H212377   7.963   4.192   1.440
 4146TIP3   OH212378   6.650   4.482   0.821
 4146TIP3    H112379   6.720   4.549   0.825
 4146TIP3    H212380   6.686   4.425   0.750
 4147TIP3   OH212381   6.595   3.752   0.945
 4147TIP3    H112382   6.594   3.849   0.941
 4147TIP3    H212383   6.508   3.730   0.909
 4148TIP3   OH212384   7.901   5.198   1.291
 4148TIP3    H112385   7.860   5.249   1.217
 4148TIP3    H212386   7.995   5.226   1.277
 4149TIP3   OH212387   6.982   3.472   1.820
 4149TIP3    H112388   6.950   3.439   1.734
 4149TIP3    H212389   6.971   3.394   1.878
 4150TIP3   OH212390   6.524   4.694   1.201
 4150TIP3    H112391   6.449   4.721   1.256
 4150TIP3    H212392   6.496   4.731   1.114
 4151TIP3   OH212393   6.676   5.230   2.271
 4151TIP3    H112394   6.762   5.230   2.318
 4151TIP3    H212395   6.655   5.135   2.271
 4152TIP3   OH212396   7.161   5.201   2.311
 4152TIP3    H112397   7.254   5.178   2.325
 4152TIP3    H212398   7.136   5.138   2.241
 4153TIP3   OH212399   7.798   5.100   2.048
 4153TIP3    H112400   7.789   5.032   2.118
 4153TIP3    H212401   7.876   5.151   2.079
 4154TIP3   OH212402   6.808   4.636   2.471
 4154TIP3    H112403   6.823   4.540   2.478
 4154TIP3    H212404   6.720   4.639   2.428
 4155TIP3   OH212405   6.778   4.291   0.677
 4155TIP3    H112406   6.825   4.252   0.753
 4155TIP3    H212407   6.853   4.306   0.615
 4156TIP3   OH212408   7.416   4.721   2.245
 4156TIP3    H112409   7.376   4.736   2.157
 4156TIP3    H212410   7.448   4.629   2.239
 4157TIP3   OH212411   7.284   4.486   0.469
 4157TIP3    H112412   7.293   4.509   0.563
 4157TIP3    H212413   7.283   4.388   0.475
 4158TIP3   OH212414   7.902   4.727   1.848
 4158TIP3    H112415   7.981   4.768   1.808
 4158TIP3    H212416   7.837   4.799   1.836
 4159TIP3   OH212417   6.927   4.368   2.453
 4159TIP3    H112418   7.004   4.313   2.435
 4159TIP3    H212419   6.951   4.405   2.541
 4160TIP3   OH212420   6.994   4.193   0.890
 4160TIP3    H112421   6.965   4.152   0.973
 4160TIP3    H212422   7.030   4.116   0.841
 4161TIP3   OH212423   7.261   4.254   2.114
 4161TIP3    H112424   7.184   4.316   2.117
 4161TIP3    H212425   7.312   4.289   2.038
 4162TIP3   OH212426   7.093   3.984   0.737
 4162TIP3    H112427   7.067   3.984   0.643
 4162TIP3    H212428   7.190   3.985   0.730
 4163TIP3   OH212429   7.778   4.657   2.248
 4163TIP3    H112430   7.861   4.638   2.203
 4163TIP3    H212431   7.778   4.592   2.320
 4164TIP3   OH212432   7.384   4.043   2.242
 4164TIP3    H112433   7.385   3.964   2.186
 4164TIP3    H212434   7.341   4.110   2.184
 4165TIP3   OH212435   7.387   3.828   2.048
 4165TIP3    H112436   7.415   3.872   1.965
 4165TIP3    H212437   7.293   3.808   2.030
 4166TIP3   OH212438   7.416   4.364   1.920
 4166TIP3    H112439   7.500   4.375   1.874
 4166TIP3    H212440   7.360   4.432   1.878
 4167TIP3   OH212441   7.997   4.332   2.302
 4167TIP3    H112442   8.049   4.251   2.312
 4167TIP3    H212443   8.063   4.393   2.265
 4168TIP3   OH212444   8.014   4.579   2.045
 4168TIP3    H112445   7.961   4.632   1.981
 4168TIP3    H212446   8.104   4.605   2.016
 4169TIP3   OH212447   7.260   4.159   2.470
 4169TIP3    H112448   7.192   4.090   2.485
 4169TIP3    H212449   7.296   4.132   2.384
 4170TIP3   OH212450   7.515   3.593   2.115
 4170TIP3    H112451   7.466   3.675   2.094
 4170TIP3    H212452   7.445   3.525   2.105
 4171TIP3   OH212453   7.647   4.099   2.331
 4171TIP3    H112454   7.640   4.089   2.428
 4171TIP3    H212455   7.556   4.075   2.305
 4172TIP3   OH212456   7.878   4.042   2.173
 4172TIP3    H112457   7.806   4.050   2.239
 4172TIP3    H212458   7.955   4.024   2.233
 4173TIP3   OH212459   8.096   4.003   2.328
 4173TIP3    H112460   8.115   3.910   2.356
 4173TIP3    H212461   8.109   4.050   2.413
 4174TIP3   OH212462   7.101   3.938   2.523
 4174TIP3    H112463   7.110   3.847   2.489
 4174TIP3    H212464   7.137   3.927   2.614
 4175TIP3   OH212465   7.614   3.603   2.371
 4175TIP3    H112466   7.677   3.528   2.367
 4175TIP3    H212467   7.573   3.597   2.282
 4176TIP3   OH212468   7.679   3.818   2.533
 4176TIP3    H112469   7.657   3.749   2.468
 4176TIP3    H212470   7.602   3.879   2.527
 4177TIP3   OH212471   6.893   5.033   0.611
 4177TIP3    H112472   6.985   5.060   0.595
 4177TIP3    H212473   6.843   5.113   0.591
 4178TIP3   OH212474   6.381   4.426   0.861
 4178TIP3    H112475   6.473   4.453   0.838
 4178TIP3    H212476   6.374   4.344   0.807
 4179TIP3   OH212477   6.294   5.044   1.262
 4179TIP3    H112478   6.228   4.982   1.225
 4179TIP3    H212479   6.338   4.986   1.328
 4180TIP3   OH212480   6.431   4.897   1.449
 4180TIP3    H112481   6.418   4.820   1.507
 4180TIP3    H212482   6.481   4.956   1.508
 4181TIP3   OH212483   8.144   5.312   1.245
 4181TIP3    H112484   8.188   5.320   1.332
 4181TIP3    H212485   8.216   5.309   1.182
 4182TIP3   OH212486   8.193   5.312   1.523
 4182TIP3    H112487   8.149   5.225   1.522
 4182TIP3    H212488   8.263   5.288   1.587
 4183TIP3   OH212489   8.226   5.003   2.099
 4183TIP3    H112490   8.155   5.008   2.166
 4183TIP3    H212491   8.266   5.092   2.106
 4184TIP3   OH212492   8.038   4.529   0.731
 4184TIP3    H112493   8.077   4.614   0.755
 4184TIP3    H212494   8.069   4.471   0.801
 4185TIP3   OH212495   8.220   4.745   1.343
 4185TIP3    H112496   8.267   4.723   1.261
 4185TIP3    H212497   8.177   4.829   1.320
 4186TIP3   OH212498   8.059   5.065   1.544
 4186TIP3    H112499   7.998   5.103   1.610
 4186TIP3    H212500   8.000   5.015   1.485
 4187TIP3   OH212501   7.997   4.220   1.065
 4187TIP3    H112502   7.992   4.124   1.071
 4187TIP3    H212503   7.991   4.246   1.159
 4188TIP3   OH212504   6.619   4.300   1.821
 4188TIP3    H112505   6.617   4.271   1.727
 4188TIP3    H212506   6.716   4.302   1.838
 4189TIP3   OH212507   8.249   4.660   1.942
 4189TIP3    H112508   8.296   4.590   1.893
 4189TIP3    H212509   8.288   4.739   1.900
 4190TIP3   OH212510   7.984   3.936   0.971
 4190TIP3    H112511   8.027   3.851   0.995
 4190TIP3    H212512   8.045   3.969   0.902
 4191TIP3   OH212513   8.221   4.285   1.689
 4191TIP3    H112514   8.135   4.255   1.721
 4191TIP3    H212515   8.226   4.370   1.735
 4192TIP3   OH212516   6.834   3.987   2.493
 4192TIP3    H112517   6.932   3.982   2.496
 4192TIP3    H212518   6.811   3.903   2.536
 4193TIP3   OH212519   6.797   3.679   1.826
 4193TIP3    H112520   6.859   3.605   1.836
 4193TIP3    H212521   6.858   3.754   1.820
 4194TIP3   OH212522   6.601   3.953   1.900
 4194TIP3    H112523   6.650   3.948   1.815
 4194TIP3    H212524   6.628   4.040   1.932
 4195TIP3   OH212525   6.583   3.458   1.400
 4195TIP3    H112526   6.489   3.455   1.426
 4195TIP3    H212527   6.580   3.517   1.322
 4196TIP3   OH212528   7.740   5.160   0.904
 4196TIP3    H112529   7.786   5.135   0.823
 4196TIP3    H212530   7.802   5.224   0.944
 4197TIP3   OH212531   6.803   3.535   2.214
 4197TIP3    H112532   6.753   3.533   2.297
 4197TIP3    H212533   6.737   3.575   2.154
 4198TIP3   OH212534   6.843   4.965   2.293
 4198TIP3    H112535   6.752   4.935   2.276
 4198TIP3    H212536   6.854   4.945   2.387
 4199TIP3   OH212537   7.019   4.993   1.838
 4199TIP3    H112538   6.971   5.069   1.800
 4199TIP3    H212539   7.106   5.009   1.796
 4200TIP3   OH212540   7.469   5.245   1.975
 4200TIP3    H112541   7.509   5.242   2.065
 4200TIP3    H212542   7.538   5.294   1.927
 4201TIP3   OH212543   7.644   5.403   1.825
 4201TIP3    H112544   7.713   5.343   1.791
 4201TIP3    H212545   7.696   5.452   1.893
 4202TIP3   OH212546   6.699   5.257   1.860
 4202TIP3    H112547   6.609   5.290   1.839
 4202TIP3    H212548   6.707   5.285   1.952
 4203TIP3   OH212549   6.937   5.236   1.721
 4203TIP3    H112550   6.851   5.247   1.767
 4203TIP3    H212551   6.914   5.265   1.631
 4204TIP3   OH212552   7.363   5.272   1.516
 4204TIP3    H112553   7.289   5.277   1.453
 4204TIP3    H212554   7.357   5.359   1.559
 4205TIP3   OH212555   7.628   5.200   1.570
 4205TIP3    H112556   7.537   5.220   1.543
 4205TIP3    H212557   7.679   5.270   1.527
 4206TIP3   OH212558   7.823   5.390   1.481
 4206TIP3    H112559   7.821   5.476   1.434
 4206TIP3    H212560   7.861   5.330   1.413
 4207TIP3   OH212561   6.611   5.049   1.609
 4207TIP3    H112562   6.637   5.023   1.700
 4207TIP3    H212563   6.681   5.002   1.558
 4208TIP3   OH212564   6.802   4.918   1.464
 4208TIP3    H112565   6.818   4.834   1.514
 4208TIP3    H212566   6.893   4.954   1.459
 4209TIP3   OH212567   7.072   5.016   1.465
 4209TIP3    H112568   7.101   4.923   1.452
 4209TIP3    H212569   7.111   5.034   1.552
 4210TIP3   OH212570   7.631   3.667   1.547
 4210TIP3    H112571   7.597   3.595   1.603
 4210TIP3    H212572   7.711   3.626   1.507
 4211TIP3   OH212573   6.894   3.379   1.571
 4211TIP3    H112574   6.801   3.347   1.573
 4211TIP3    H212575   6.942   3.294   1.567
 4212TIP3   OH212576   6.680   3.248   1.218
 4212TIP3    H112577   6.709   3.307   1.146
 4212TIP3    H212578   6.651   3.312   1.285
 4213TIP3   OH212579   7.338   3.409   1.452
 4213TIP3    H112580   7.393   3.461   1.391
 4213TIP3    H212581   7.355   3.453   1.536
 4214TIP3   OH212582   7.847   3.546   1.437
 4214TIP3    H112583   7.888   3.534   1.351
 4214TIP3    H212584   7.858   3.458   1.478
 4215TIP3   OH212585   7.903   3.490   0.990
 4215TIP3    H112586   7.820   3.541   1.003
 4215TIP3    H212587   7.883   3.413   1.045
 4216TIP3   OH212588   6.400   4.820   0.998
 4216TIP3    H112589   6.314   4.786   0.966
 4216TIP3    H212590   6.388   4.914   0.975
 4217TIP3   OH212591   6.796   3.407   0.983
 4217TIP3    H112592   6.845   3.346   0.925
 4217TIP3    H212593   6.868   3.462   1.019
 4218TIP3   OH212594   7.309   3.583   1.083
 4218TIP3    H112595   7.371   3.537   1.142
 4218TIP3    H212596   7.331   3.675   1.106
 4219TIP3   OH212597   7.181   5.014   0.578
 4219TIP3    H112598   7.268   5.045   0.548
 4219TIP3    H212599   7.169   4.936   0.522
 4220TIP3   OH212600   7.101   3.659   2.460
 4220TIP3    H112601   7.066   3.590   2.518
 4220TIP3    H212602   7.195   3.659   2.489
 4221TIP3   OH212603   7.349   3.656   2.581
 4221TIP3    H112604   7.436   3.634   2.544
 4221TIP3    H212605   7.338   3.586   2.649
 4222TIP3   OH212606   6.468   4.850   0.644
 4222TIP3    H112607   6.446   4.877   0.734
 4222TIP3    H212608   6.555   4.808   0.653
 4223TIP3   OH212609   8.157   3.743   2.399
 4223TIP3    H112610   8.180   3.721   2.491
 4223TIP3    H212611   8.227   3.699   2.349
 4224TIP3   OH212612   8.106   5.276   1.877
 4224TIP3    H112613   8.034   5.241   1.820
 4224TIP3    H212614   8.088   5.372   1.871
 4225TIP3   OH212615   0.041   5.171   2.835
 4225TIP3    H112616   0.001   5.259   2.826
 4225TIP3    H212617  -0.030   5.116   2.798
 4226TIP3   OH212618   0.040   5.167   3.209
 4226TIP3    H112619   0.070   5.138   3.297
 4226TIP3    H212620  -0.004   5.086   3.177
 4227TIP3   OH212621   0.273   5.476   2.895
 4227TIP3    H112622   0.266   5.397   2.951
 4227TIP3    H212623   0.313   5.539   2.957
 4228TIP3   OH212624  -0.022   5.935   2.934
 4228TIP3    H112625  -0.011   5.865   2.865
 4228TIP3    H212626  -0.099   5.901   2.982
 4229TIP3   OH212627  -0.132   5.383   3.230
 4229TIP3    H112628  -0.086   5.299   3.211
 4229TIP3    H212629  -0.059   5.432   3.273
 4230TIP3   OH212630   0.849   4.718   3.259
 4230TIP3    H112631   0.875   4.802   3.301
 4230TIP3    H212632   0.868   4.738   3.165
 4231TIP3   OH212633   0.250   4.903   3.295
 4231TIP3    H112634   0.291   4.817   3.313
 4231TIP3    H212635   0.215   4.889   3.205
 4232TIP3   OH212636   0.278   4.652   2.881
 4232TIP3    H112637   0.350   4.635   2.946
 4232TIP3    H212638   0.330   4.687   2.807
 4233TIP3   OH212639   0.918   4.924   3.433
 4233TIP3    H112640   0.838   4.976   3.411
 4233TIP3    H212641   0.940   4.960   3.520
 4234TIP3   OH212642  -0.096   5.395   2.706
 4234TIP3    H112643  -0.094   5.363   2.614
 4234TIP3    H212644  -0.027   5.463   2.707
 4235TIP3   OH212645   0.491   4.652   3.049
 4235TIP3    H112646   0.482   4.601   3.130
 4235TIP3    H212647   0.543   4.729   3.078
 4236TIP3   OH212648   0.347   5.697   3.072
 4236TIP3    H112649   0.257   5.710   3.110
 4236TIP3    H212650   0.348   5.756   2.997
 4237TIP3   OH212651   0.639   4.621   3.431
 4237TIP3    H112652   0.551   4.648   3.398
 4237TIP3    H212653   0.697   4.651   3.357
 4238TIP3   OH212654  -0.055   4.272   3.400
 4238TIP3    H112655  -0.055   4.176   3.422
 4238TIP3    H212656  -0.137   4.298   3.447
 4239TIP3   OH212657   0.053   5.766   2.729
 4239TIP3    H112658   0.096   5.680   2.708
 4239TIP3    H212659   0.120   5.829   2.694
 4240TIP3   OH212660   0.166   5.529   2.646
 4240TIP3    H112661   0.194   5.463   2.580
 4240TIP3    H212662   0.220   5.504   2.725
 4241TIP3   OH212663   0.574   5.631   3.405
 4241TIP3    H112664   0.566   5.554   3.346
 4241TIP3    H212665   0.567   5.706   3.342
 4242TIP3   OH212666  -0.121   5.029   2.664
 4242TIP3    H112667  -0.207   5.073   2.646
 4242TIP3    H212668  -0.083   5.021   2.575
 4243TIP3   OH212669  -0.165   4.804   2.375
 4243TIP3    H112670  -0.103   4.859   2.427
 4243TIP3    H212671  -0.102   4.745   2.330
 4244TIP3   OH212672   0.770   5.265   3.247
 4244TIP3    H112673   0.688   5.320   3.254
 4244TIP3    H212674   0.801   5.292   3.159
 4245TIP3   OH212675   0.215   5.108   2.634
 4245TIP3    H112676   0.162   5.128   2.714
 4245TIP3    H212677   0.299   5.080   2.675
 4246TIP3   OH212678   0.450   5.148   3.544
 4246TIP3    H112679   0.449   5.231   3.596
 4246TIP3    H212680   0.365   5.156   3.497
 4247TIP3   OH212681   0.099   5.726   3.192
 4247TIP3    H112682   0.054   5.777   3.261
 4247TIP3    H212683   0.102   5.637   3.235
 4248TIP3   OH212684   0.058   4.966   2.457
 4248TIP3    H112685   0.117   5.024   2.509
 4248TIP3    H212686   0.086   4.988   2.365
 4249TIP3   OH212687   0.571   4.208   2.507
 4249TIP3    H112688   0.489   4.228   2.557
 4249TIP3    H212689   0.585   4.291   2.458
 4250TIP3   OH212690   0.370   5.574   2.058
 4250TIP3    H112691   0.379   5.671   2.040
 4250TIP3    H212692   0.463   5.545   2.044
 4251TIP3   OH212693   0.817   5.973   3.450
 4251TIP3    H112694   0.813   5.878   3.467
 4251TIP3    H212695   0.735   6.003   3.496
 4252TIP3   OH212696  -0.049   5.841   2.171
 4252TIP3    H112697  -0.015   5.760   2.127
 4252TIP3    H212698  -0.083   5.805   2.254
 4253TIP3   OH212699  -0.088   5.835   2.474
 4253TIP3    H112700  -0.157   5.858   2.537
 4253TIP3    H212701  -0.015   5.811   2.533
 4254TIP3   OH212702   0.704   5.106   3.724
 4254TIP3    H112703   0.622   5.119   3.674
 4254TIP3    H212704   0.716   5.009   3.718
 4255TIP3   OH212705   0.236   4.456   3.729
 4255TIP3    H112706   0.303   4.429   3.794
 4255TIP3    H212707   0.151   4.435   3.775
 4256TIP3   OH212708   0.473   4.884   3.645
 4256TIP3    H112709   0.425   4.879   3.731
 4256TIP3    H212710   0.449   4.973   3.613
 4257TIP3   OH212711   0.132   5.019   2.204
 4257TIP3    H112712   0.097   4.989   2.118
 4257TIP3    H212713   0.213   5.064   2.175
 4258TIP3   OH212714  -0.160   4.393   2.496
 4258TIP3    H112715  -0.184   4.391   2.591
 4258TIP3    H212716  -0.201   4.308   2.469
 4259TIP3   OH212717   0.011   4.827   2.797
 4259TIP3    H112718  -0.043   4.897   2.754
 4259TIP3    H212719   0.062   4.792   2.722
 4260TIP3   OH212720   0.215   5.097   3.878
 4260TIP3    H112721   0.193   5.024   3.940
 4260TIP3    H212722   0.308   5.114   3.905
 4261TIP3   OH212723   0.166   4.857   3.033
 4261TIP3    H112724   0.104   4.885   2.962
 4261TIP3    H212725   0.197   4.774   2.993
 4262TIP3   OH212726   0.169   5.103   3.456
 4262TIP3    H112727   0.205   5.034   3.396
 4262TIP3    H212728   0.152   5.048   3.535
 4263TIP3   OH212729  -0.146   4.574   3.123
 4263TIP3    H112730  -0.238   4.542   3.134
 4263TIP3    H212731  -0.106   4.562   3.210
 4264TIP3   OH212732   0.333   4.637   3.332
 4264TIP3    H112733   0.296   4.651   3.422
 4264TIP3    H212734   0.266   4.576   3.295
 4265TIP3   OH212735   0.511   6.325   3.544
 4265TIP3    H112736   0.508   6.359   3.453
 4265TIP3    H212737   0.582   6.380   3.583
 4266TIP3   OH212738  -0.060   4.896   3.237
 4266TIP3    H112739  -0.011   4.847   3.170
 4266TIP3    H212740  -0.045   4.843   3.317
 4267TIP3   OH212741  -0.077   4.800   3.519
 4267TIP3    H112742  -0.138   4.876   3.524
 4267TIP3    H212743  -0.002   4.834   3.572
 4268TIP3   OH212744   0.540   5.415   3.240
 4268TIP3    H112745   0.564   5.465   3.159
 4268TIP3    H212746   0.455   5.373   3.215
 4269TIP3   OH212747   0.094   4.492   2.470
 4269TIP3    H112748  -0.003   4.476   2.478
 4269TIP3    H212749   0.104   4.585   2.497
 4270TIP3   OH212750   0.033   5.503   3.606
 4270TIP3    H112751   0.066   5.474   3.692
 4270TIP3    H212752  -0.032   5.571   3.630
 4271TIP3   OH212753   0.167   4.737   2.575
 4271TIP3    H112754   0.263   4.742   2.592
 4271TIP3    H212755   0.150   4.817   2.522
 4272TIP3   OH212756  -0.220   5.332   2.456
 4272TIP3    H112757  -0.286   5.394   2.423
 4272TIP3    H212758  -0.275   5.264   2.500
 4273TIP3   OH212759  -0.032   5.188   3.874
 4273TIP3    H112760  -0.052   5.176   3.779
 4273TIP3    H212761   0.063   5.165   3.875
 4274TIP3   OH212762   0.203   5.775   3.483
 4274TIP3    H112763   0.111   5.759   3.504
 4274TIP3    H212764   0.238   5.805   3.570
 4275TIP3   OH212765   0.608   4.828   2.413
 4275TIP3    H112766   0.545   4.783   2.351
 4275TIP3    H212767   0.607   4.916   2.371
 4276TIP3   OH212768   0.825   5.681   3.496
 4276TIP3    H112769   0.727   5.680   3.487
 4276TIP3    H212770   0.850   5.654   3.405
 4277TIP3   OH212771   0.307   5.643   2.321
 4277TIP3    H112772   0.289   5.563   2.371
 4277TIP3    H212773   0.324   5.609   2.231
 4278TIP3   OH212774   0.303   5.277   3.159
 4278TIP3    H112775   0.210   5.249   3.171
 4278TIP3    H212776   0.339   5.198   3.115
 4279TIP3   OH212777   0.101   5.485   3.337
 4279TIP3    H112778   0.089   5.486   3.434
 4279TIP3    H212779   0.180   5.428   3.327
 4280TIP3   OH212780   0.073   5.373   2.220
 4280TIP3    H112781   0.115   5.347   2.304
 4280TIP3    H212782  -0.021   5.358   2.238
 4281TIP3   OH212783   0.358   5.988   3.374
 4281TIP3    H112784   0.288   5.924   3.398
 4281TIP3    H212785   0.308   6.070   3.364
 4282TIP3   OH212786   0.403   5.844   2.044
 4282TIP3    H112787   0.437   5.905   1.976
 4282TIP3    H212788   0.327   5.898   2.075
 4283TIP3   OH212789   0.224   5.321   2.456
 4283TIP3    H112790   0.215   5.244   2.516
 4283TIP3    H212791   0.318   5.310   2.430
 4284TIP3   OH212792   0.257   4.694   3.592
 4284TIP3    H112793   0.338   4.730   3.631
 4284TIP3    H212794   0.243   4.612   3.644
 4285TIP3   OH212795   0.145   4.440   2.752
 4285TIP3    H112796   0.124   4.465   2.660
 4285TIP3    H212797   0.177   4.525   2.790
 4286TIP3   OH212798  -0.166   4.621   2.856
 4286TIP3    H112799  -0.105   4.695   2.842
 4286TIP3    H212800  -0.168   4.616   2.954
 4287TIP3   OH212801   0.113   4.948   3.669
 4287TIP3    H112802   0.140   4.996   3.749
 4287TIP3    H212803   0.164   4.866   3.679
 4288TIP3   OH212804  -0.021   4.355   2.967
 4288TIP3    H112805  -0.036   4.439   3.015
 4288TIP3    H212806   0.032   4.387   2.891
 4289TIP3   OH212807   0.737   4.833   3.646
 4289TIP3    H112808   0.639   4.834   3.651
 4289TIP3    H212809   0.750   4.817   3.551
 4290TIP3   OH212810   0.390   5.037   3.033
 4290TIP3    H112811   0.314   4.976   3.044
 4290TIP3    H212812   0.462   4.989   3.080
 4291TIP3   OH212813   0.271   5.869   3.724
 4291TIP3    H112814   0.242   5.823   3.805
 4291TIP3    H212815   0.329   5.938   3.762
 4292TIP3   OH212816   0.057   5.608   2.038
 4292TIP3    H112817   0.097   5.547   2.102
 4292TIP3    H212818   0.122   5.607   1.966
 4293TIP3   OH212819  -0.278   5.251   2.161
 4293TIP3    H112820  -0.263   5.267   2.254
 4293TIP3    H212821  -0.275   5.153   2.157
 4294TIP3   OH212822   0.359   5.514   3.539
 4294TIP3    H112823   0.436   5.560   3.498
 4294TIP3    H212824   0.291   5.581   3.528
 4295TIP3   OH212825  -0.421   4.693   2.379
 4295TIP3    H112826  -0.451   4.702   2.287
 4295TIP3    H212827  -0.329   4.725   2.375
 4296TIP3   OH212828   0.219   5.437   3.942
 4296TIP3    H112829   0.301   5.429   3.893
 4296TIP3    H212830   0.234   5.376   4.016
 4297TIP3   OH212831   0.366   5.104   2.080
 4297TIP3    H112832   0.348   5.058   1.996
 4297TIP3    H212833   0.336   5.195   2.055
 4298TIP3   OH212834  -0.175   4.563   3.683
 4298TIP3    H112835  -0.122   4.641   3.659
 4298TIP3    H212836  -0.226   4.596   3.759
 4299TIP3   OH212837  -0.110   5.200   3.607
 4299TIP3    H112838  -0.028   5.166   3.569
 4299TIP3    H212839  -0.112   5.290   3.571
 4300TIP3   OH212840   0.459   5.118   3.993
 4300TIP3    H112841   0.510   5.039   4.016
 4300TIP3    H212842   0.527   5.180   3.963
 4301TIP3   OH212843   0.492   5.372   3.726
 4301TIP3    H112844   0.435   5.426   3.667
 4301TIP3    H212845   0.580   5.394   3.688
 4302TIP3   OH212846  -0.019   4.379   3.802
 4302TIP3    H112847  -0.076   4.445   3.757
 4302TIP3    H212848  -0.078   4.301   3.799
 4303TIP3   OH212849   0.114   4.886   4.019
 4303TIP3    H112850   0.120   4.904   4.115
 4303TIP3    H212851   0.035   4.832   4.013
 4304TIP3   OH212852   0.341   4.827   3.873
 4304TIP3    H112853   0.268   4.833   3.938
 4304TIP3    H212854   0.417   4.801   3.930
 4305TIP3   OH212855   0.564   4.773   4.026
 4305TIP3    H112856   0.577   4.678   4.049
 4305TIP3    H212857   0.560   4.816   4.114
 4306TIP3   OH212858   0.083   4.401   4.057
 4306TIP3    H112859   0.141   4.323   4.058
 4306TIP3    H212860   0.037   4.390   3.971
 4307TIP3   OH212861   0.118   4.618   4.219
 4307TIP3    H112862   0.110   4.539   4.160
 4307TIP3    H212863   0.028   4.653   4.218
 4308TIP3   OH212864   0.589   6.088   2.935
 4308TIP3    H112865   0.618   6.117   3.023
 4308TIP3    H212866   0.655   6.128   2.877
 4309TIP3   OH212867   0.634   6.104   3.218
 4309TIP3    H112868   0.601   6.012   3.213
 4309TIP3    H212869   0.712   6.092   3.274
 4310TIP3   OH212870   0.687   5.778   3.791
 4310TIP3    H112871   0.613   5.788   3.854
 4310TIP3    H212872   0.728   5.867   3.794
 4311TIP3   OH212873   0.498   5.293   2.415
 4311TIP3    H112874   0.566   5.356   2.382
 4311TIP3    H212875   0.545   5.254   2.492
 4312TIP3   OH212876   0.628   5.161   2.617
 4312TIP3    H112877   0.565   5.117   2.677
 4312TIP3    H212878   0.695   5.197   2.679
 4313TIP3   OH212879   0.677   5.547   3.043
 4313TIP3    H112880   0.736   5.484   2.998
 4313TIP3    H212881   0.683   5.626   2.986
 4314TIP3   OH212882   0.529   5.838   3.235
 4314TIP3    H112883   0.465   5.892   3.288
 4314TIP3    H212884   0.468   5.787   3.178
 4315TIP3   OH212885   0.567   5.067   2.265
 4315TIP3    H112886   0.497   5.069   2.196
 4315TIP3    H212887   0.540   5.143   2.319
 4316TIP3   OH212888   0.437   4.741   2.221
 4316TIP3    H112889   0.401   4.780   2.141
 4316TIP3    H212890   0.412   4.646   2.210
 4317TIP3   OH212891   0.443   5.015   2.765
 4317TIP3    H112892   0.452   4.919   2.758
 4317TIP3    H212893   0.431   5.028   2.862
 4318TIP3   OH212894   0.733   5.440   3.619
 4318TIP3    H112895   0.807   5.375   3.611
 4318TIP3    H212896   0.764   5.512   3.561
 4319TIP3   OH212897   0.918   5.247   3.639
 4319TIP3    H112898   0.845   5.195   3.679
 4319TIP3    H212899   0.993   5.185   3.652
 4320TIP3   OH212900   0.382   4.475   2.206
 4320TIP3    H112901   0.458   4.444   2.260
 4320TIP3    H212902   0.310   4.414   2.231
 4321TIP3   OH212903   0.440   4.731   2.660
 4321TIP3    H112904   0.480   4.642   2.675
 4321TIP3    H212905   0.499   4.763   2.589
 4322TIP3   OH212906   0.603   4.907   3.154
 4322TIP3    H112907   0.689   4.933   3.114
 4322TIP3    H212908   0.616   4.944   3.244
 4323TIP3   OH212909   0.670   5.048   3.388
 4323TIP3    H112910   0.592   5.084   3.435
 4323TIP3    H212911   0.704   5.128   3.341
 4324TIP3   OH212912   1.115   4.634   3.942
 4324TIP3    H112913   1.181   4.572   3.903
 4324TIP3    H212914   1.096   4.694   3.868
 4325TIP3   OH212915   0.549   4.481   2.697
 4325TIP3    H112916   0.597   4.466   2.781
 4325TIP3    H212917   0.488   4.405   2.696
 4326TIP3   OH212918   0.997   4.786   3.749
 4326TIP3    H112919   0.913   4.825   3.780
 4326TIP3    H212920   0.963   4.713   3.694
 4327TIP3   OH212921   0.632   4.417   2.329
 4327TIP3    H112922   0.672   4.345   2.277
 4327TIP3    H212923   0.699   4.488   2.322
 4328TIP3   OH212924   0.208   5.949   2.605
 4328TIP3    H112925   0.250   5.922   2.521
 4328TIP3    H212926   0.239   6.041   2.610
 4329TIP3   OH212927   0.165   6.149   3.478
 4329TIP3    H112928   0.190   6.071   3.530
 4329TIP3    H212929   0.195   6.219   3.541
 4330TIP3   OH212930   0.885   4.558   3.630
 4330TIP3    H112931   0.798   4.585   3.598
 4330TIP3    H212932   0.884   4.462   3.614
 4331TIP3   OH212933   0.113   6.071   3.156
 4331TIP3    H112934   0.071   5.991   3.194
 4331TIP3    H212935   0.094   6.133   3.228
 4332TIP3   OH212936   0.106   4.461   3.255
 4332TIP3    H112937   0.054   4.392   3.302
 4332TIP3    H212938   0.161   4.408   3.196
 4333TIP3   OH212939   0.629   4.353   3.169
 4333TIP3    H112940   0.662   4.395   3.087
 4333TIP3    H212941   0.533   4.353   3.153
 4334TIP3   OH212942   0.716   4.436   2.917
 4334TIP3    H112943   0.788   4.388   2.871
 4334TIP3    H212944   0.746   4.528   2.901
 4335TIP3   OH212945  -0.197   4.187   3.142
 4335TIP3    H112946  -0.150   4.246   3.081
 4335TIP3    H212947  -0.186   4.233   3.226
 4336TIP3   OH212948   0.351   4.343   3.123
 4336TIP3    H112949   0.328   4.313   3.035
 4336TIP3    H212950   0.327   4.265   3.179
 4337TIP3   OH212951   0.366   4.267   2.687
 4337TIP3    H112952   0.280   4.312   2.699
 4337TIP3    H212953   0.349   4.183   2.734
 4338TIP3   OH212954  -0.220   4.372   2.759
 4338TIP3    H112955  -0.185   4.328   2.837
 4338TIP3    H212956  -0.216   4.466   2.788
 4339TIP3   OH212957   0.333   5.911   2.367
 4339TIP3    H112958   0.330   5.814   2.349
 4339TIP3    H212959   0.297   5.946   2.283
 4340TIP3   OH212960   0.627   4.502   4.060
 4340TIP3    H112961   0.645   4.472   4.152
 4340TIP3    H212962   0.717   4.501   4.021
 4341TIP3   OH212963   0.576   6.059   3.554
 4341TIP3    H112964   0.500   6.024   3.504
 4341TIP3    H212965   0.556   6.155   3.554
 4342TIP3   OH212966   1.832   5.430   2.319
 4342TIP3    H112967   1.804   5.522   2.299
 4342TIP3    H212968   1.755   5.381   2.284
 4343TIP3   OH212969   1.830   5.431   2.697
 4343TIP3    H112970   1.862   5.401   2.784
 4343TIP3    H212971   1.790   5.351   2.660
 4344TIP3   OH212972   1.130   5.328   3.065
 4344TIP3    H112973   1.162   5.260   3.127
 4344TIP3    H212974   1.209   5.384   3.056
 4345TIP3   OH212975   2.074   5.733   2.379
 4345TIP3    H112976   2.061   5.661   2.442
 4345TIP3    H212977   2.103   5.805   2.436
 4346TIP3   OH212978   1.100   5.734   2.789
 4346TIP3    H112979   1.094   5.636   2.792
 4346TIP3    H212980   1.196   5.745   2.785
 4347TIP3   OH212981   0.808   4.937   2.576
 4347TIP3    H112982   0.762   5.022   2.588
 4347TIP3    H212983   0.737   4.884   2.536
 4348TIP3   OH212984   0.868   5.225   2.744
 4348TIP3    H112985   0.917   5.149   2.780
 4348TIP3    H212986   0.928   5.256   2.675
 4349TIP3   OH212987   1.726   6.199   2.397
 4349TIP3    H112988   1.771   6.127   2.348
 4349TIP3    H212989   1.714   6.160   2.484
 4350TIP3   OH212990   1.631   5.656   2.747
 4350TIP3    H112991   1.668   5.580   2.700
 4350TIP3    H212992   1.715   5.701   2.770
 4351TIP3   OH212993   2.637   4.978   2.743
 4351TIP3    H112994   2.671   5.059   2.787
 4351TIP3    H212995   2.667   4.993   2.651
 4352TIP3   OH212996   2.040   5.159   2.781
 4352TIP3    H112997   2.085   5.075   2.801
 4352TIP3    H212998   2.013   5.143   2.688
 4353TIP3   OH212999   1.378   4.817   2.746
 4353TIP3    H113000   1.360   4.890   2.683
 4353TIP3    H213001   1.331   4.744   2.699
 4354TIP3   OH213002   2.073   4.909   2.368
 4354TIP3    H113003   2.145   4.892   2.433
 4354TIP3    H213004   2.127   4.943   2.294
 4355TIP3   OH213005   1.013   5.019   2.851
 4355TIP3    H113006   1.097   5.002   2.898
 4355TIP3    H213007   1.028   4.964   2.771
 4356TIP3   OH213008   1.455   5.217   2.644
 4356TIP3    H113009   1.550   5.192   2.656
 4356TIP3    H213010   1.417   5.133   2.611
 4357TIP3   OH213011   2.716   5.183   2.914
 4357TIP3    H113012   2.633   5.231   2.895
 4357TIP3    H213013   2.729   5.207   3.007
 4358TIP3   OH213014   1.376   4.800   3.178
 4358TIP3    H113015   1.317   4.839   3.111
 4358TIP3    H213016   1.326   4.819   3.260
 4359TIP3   OH213017   1.726   5.652   2.187
 4359TIP3    H113018   1.683   5.630   2.103
 4359TIP3    H213019   1.681   5.736   2.210
 4360TIP3   OH213020   1.484   5.576   2.976
 4360TIP3    H113021   1.421   5.640   3.014
 4360TIP3    H213022   1.525   5.628   2.904
 4361TIP3   OH213023   2.285   4.910   2.537
 4361TIP3    H113024   2.280   4.860   2.620
 4361TIP3    H213025   2.341   4.985   2.563
 4362TIP3   OH213026   1.246   4.916   2.964
 4362TIP3    H113027   1.309   4.988   2.988
 4362TIP3    H213028   1.295   4.876   2.888
 4363TIP3   OH213029   1.310   5.768   3.071
 4363TIP3    H113030   1.285   5.855   3.033
 4363TIP3    H213031   1.231   5.753   3.128
 4364TIP3   OH213032   0.703   5.458   2.309
 4364TIP3    H113033   0.668   5.484   2.221
 4364TIP3    H213034   0.736   5.543   2.343
 4365TIP3   OH213035   2.147   5.976   2.550
 4365TIP3    H113036   2.057   5.965   2.590
 4365TIP3    H213037   2.135   6.061   2.504
 4366TIP3   OH213038   2.435   4.877   2.911
 4366TIP3    H113039   2.349   4.908   2.879
 4366TIP3    H213040   2.496   4.909   2.841
 4367TIP3   OH213041   1.734   4.521   2.890
 4367TIP3    H113042   1.723   4.426   2.908
 4367TIP3    H213043   1.657   4.558   2.938
 4368TIP3   OH213044   1.850   6.025   2.225
 4368TIP3    H113045   1.898   5.941   2.205
 4368TIP3    H213046   1.909   6.087   2.177
 4369TIP3   OH213047   1.990   5.810   2.128
 4369TIP3    H113048   1.954   5.731   2.085
 4369TIP3    H213049   2.025   5.771   2.212
 4370TIP3   OH213050   2.372   5.890   2.891
 4370TIP3    H113051   2.361   5.811   2.833
 4370TIP3    H213052   2.357   5.963   2.827
 4371TIP3   OH213053   1.664   5.282   2.148
 4371TIP3    H113054   1.584   5.335   2.126
 4371TIP3    H213055   1.709   5.279   2.062
 4372TIP3   OH213056   1.623   5.063   1.868
 4372TIP3    H113057   1.690   5.117   1.914
 4372TIP3    H213058   1.681   5.001   1.819
 4373TIP3   OH213059   2.567   5.526   2.736
 4373TIP3    H113060   2.484   5.577   2.742
 4373TIP3    H213061   2.596   5.548   2.645
 4374TIP3   OH213062   2.011   5.365   2.121
 4374TIP3    H113063   1.956   5.389   2.199
 4374TIP3    H213064   2.095   5.339   2.164
 4375TIP3   OH213065   2.246   5.405   3.031
 4375TIP3    H113066   2.243   5.488   3.082
 4375TIP3    H213067   2.159   5.410   2.985
 4376TIP3   OH213068   1.243   5.364   2.538
 4376TIP3    H113069   1.201   5.307   2.470
 4376TIP3    H213070   1.320   5.310   2.566
 4377TIP3   OH213071   1.372   5.774   2.687
 4377TIP3    H113072   1.351   5.732   2.602
 4377TIP3    H213073   1.463   5.740   2.704
 4378TIP3   OH213074   1.379   5.334   2.891
 4378TIP3    H113075   1.412   5.312   2.802
 4378TIP3    H213076   1.423   5.419   2.911
 4379TIP3   OH213077   1.905   5.971   2.668
 4379TIP3    H113078   1.892   6.050   2.722
 4379TIP3    H213079   1.890   5.898   2.731
 4380TIP3   OH213080   1.518   5.891   3.214
 4380TIP3    H113081   1.458   5.953   3.261
 4380TIP3    H213082   1.452   5.837   3.165
 4381TIP3   OH213083   1.852   5.222   1.945
 4381TIP3    H113084   1.910   5.283   1.997
 4381TIP3    H213085   1.879   5.246   1.853
 4382TIP3   OH213086   1.271   5.448   3.315
 4382TIP3    H113087   1.276   5.535   3.360
 4382TIP3    H213088   1.176   5.429   3.324
 4383TIP3   OH213089   1.593   5.903   2.224
 4383TIP3    H113090   1.669   5.960   2.243
 4383TIP3    H213091   1.532   5.962   2.178
 4384TIP3   OH213092   1.312   6.057   3.300
 4384TIP3    H113093   1.274   6.058   3.211
 4384TIP3    H213094   1.234   6.037   3.356
 4385TIP3   OH213095   2.367   4.465   1.993
 4385TIP3    H113096   2.286   4.485   2.044
 4385TIP3    H213097   2.381   4.548   1.944
 4386TIP3   OH213098   1.108   5.205   2.345
 4386TIP3    H113099   1.045   5.252   2.285
 4386TIP3    H213100   1.066   5.119   2.352
 4387TIP3   OH213101   2.166   5.832   1.544
 4387TIP3    H113102   2.175   5.928   1.528
 4387TIP3    H213103   2.258   5.801   1.531
 4388TIP3   OH213104   0.889   5.589   3.250
 4388TIP3    H113105   0.829   5.564   3.178
 4388TIP3    H213106   0.929   5.503   3.277
 4389TIP3   OH213107   0.744   5.778   2.888
 4389TIP3    H113108   0.839   5.772   2.871
 4389TIP3    H213109   0.740   5.861   2.939
 4390TIP3   OH213110   2.609   6.232   2.934
 4390TIP3    H113111   2.608   6.135   2.949
 4390TIP3    H213112   2.527   6.257   2.981
 4391TIP3   OH213113   1.715   6.020   3.071
 4391TIP3    H113114   1.715   6.112   3.104
 4391TIP3    H213115   1.644   5.980   3.126
 4392TIP3   OH213116   1.476   6.150   2.022
 4392TIP3    H113117   1.428   6.126   1.940
 4392TIP3    H213118   1.440   6.237   2.043
 4393TIP3   OH213119   0.913   6.000   2.407
 4393TIP3    H113120   0.960   5.989   2.492
 4393TIP3    H213121   0.854   5.922   2.409
 4394TIP3   OH213122   1.680   6.053   1.663
 4394TIP3    H113123   1.738   5.982   1.627
 4394TIP3    H213124   1.710   6.058   1.756
 4395TIP3   OH213125   1.727   6.100   1.934
 4395TIP3    H113126   1.637   6.109   1.973
 4395TIP3    H213127   1.772   6.049   2.004
 4396TIP3   OH213128   2.499   5.365   3.211
 4396TIP3    H113129   2.418   5.377   3.159
 4396TIP3    H213130   2.516   5.269   3.200
 4397TIP3   OH213131   1.095   5.771   3.238
 4397TIP3    H113132   1.145   5.757   3.321
 4397TIP3    H213133   1.020   5.708   3.248
 4398TIP3   OH213134   1.495   4.594   3.021
 4398TIP3    H113135   1.405   4.566   2.995
 4398TIP3    H213136   1.473   4.679   3.064
 4399TIP3   OH213137   2.030   4.711   3.215
 4399TIP3    H113138   2.098   4.684   3.279
 4399TIP3    H213139   1.946   4.691   3.262
 4400TIP3   OH213140   2.267   5.139   3.133
 4400TIP3    H113141   2.218   5.135   3.218
 4400TIP3    H213142   2.244   5.228   3.099
 4401TIP3   OH213143   1.928   5.272   1.691
 4401TIP3    H113144   1.893   5.245   1.604
 4401TIP3    H213145   2.009   5.320   1.664
 4402TIP3   OH213146   1.639   4.646   1.992
 4402TIP3    H113147   1.607   4.642   2.084
 4402TIP3    H213148   1.602   4.563   1.958
 4403TIP3   OH213149   1.424   5.111   3.040
 4403TIP3    H113150   1.377   5.137   3.121
 4403TIP3    H213151   1.411   5.192   2.985
 4404TIP3   OH213152   1.311   4.997   2.554
 4404TIP3    H113153   1.218   4.972   2.570
 4404TIP3    H213154   1.325   4.957   2.465
 4405TIP3   OH213155   1.801   5.083   2.280
 4405TIP3    H113156   1.748   5.154   2.239
 4405TIP3    H213157   1.856   5.053   2.205
 4406TIP3   OH213158   1.975   5.363   3.368
 4406TIP3    H113159   1.954   5.290   3.430
 4406TIP3    H213160   2.069   5.378   3.389
 4407TIP3   OH213161   1.958   5.113   2.521
 4407TIP3    H113162   1.899   5.142   2.449
 4407TIP3    H213163   1.992   5.031   2.479
 4408TIP3   OH213164   1.243   5.141   3.249
 4408TIP3    H113165   1.276   5.205   3.314
 4408TIP3    H213166   1.236   5.060   3.302
 4409TIP3   OH213167   1.293   4.615   1.958
 4409TIP3    H113168   1.287   4.616   2.055
 4409TIP3    H213169   1.217   4.672   1.934
 4410TIP3   OH213170   0.838   4.660   2.831
 4410TIP3    H113171   0.914   4.695   2.882
 4410TIP3    H213172   0.878   4.633   2.747
 4411TIP3   OH213173   0.814   4.644   2.350
 4411TIP3    H113174   0.859   4.681   2.272
 4411TIP3    H213175   0.753   4.718   2.369
 4412TIP3   OH213176   1.968   5.359   2.945
 4412TIP3    H113177   2.001   5.286   2.887
 4412TIP3    H213178   1.940   5.306   3.023
 4413TIP3   OH213179   1.635   4.821   2.616
 4413TIP3    H113180   1.554   4.819   2.670
 4413TIP3    H213181   1.705   4.820   2.683
 4414TIP3   OH213182   1.071   4.874   2.626
 4414TIP3    H113183   0.977   4.882   2.597
 4414TIP3    H213184   1.095   4.783   2.599
 4415TIP3   OH213185   1.342   4.872   2.311
 4415TIP3    H113186   1.437   4.887   2.291
 4415TIP3    H213187   1.297   4.895   2.227
 4416TIP3   OH213188   2.129   4.897   2.817
 4416TIP3    H113189   2.094   4.908   2.908
 4416TIP3    H213190   2.065   4.834   2.780
 4417TIP3   OH213191   1.182   4.904   2.091
 4417TIP3    H113192   1.110   4.861   2.041
 4417TIP3    H213193   1.234   4.942   2.017
 4418TIP3   OH213194   2.299   6.584   3.035
 4418TIP3    H113195   2.299   6.608   2.941
 4418TIP3    H213196   2.377   6.632   3.068
 4419TIP3   OH213197   1.258   5.694   3.458
 4419TIP3    H113198   1.338   5.724   3.505
 4419TIP3    H213199   1.193   5.695   3.531
 4420TIP3   OH213200   1.720   5.146   2.712
 4420TIP3    H113201   1.795   5.110   2.661
 4420TIP3    H213202   1.734   5.105   2.799
 4421TIP3   OH213203   1.245   4.638   2.588
 4421TIP3    H113204   1.214   4.557   2.633
 4421TIP3    H213205   1.299   4.602   2.515
 4422TIP3   OH213206   1.698   5.041   3.006
 4422TIP3    H113207   1.609   5.081   3.016
 4422TIP3    H213208   1.756   5.103   3.054
 4423TIP3   OH213209   1.434   5.436   2.098
 4423TIP3    H113210   1.362   5.370   2.086
 4423TIP3    H213211   1.415   5.469   2.190
 4424TIP3   OH213212   2.335   5.672   2.728
 4424TIP3    H113213   2.358   5.721   2.646
 4424TIP3    H213214   2.251   5.629   2.703
 4425TIP3   OH213215   1.893   4.747   1.959
 4425TIP3    H113216   1.796   4.732   1.965
 4425TIP3    H213217   1.903   4.842   1.982
 4426TIP3   OH213218   1.836   5.755   3.094
 4426TIP3    H113219   1.857   5.730   3.185
 4426TIP3    H213220   1.794   5.842   3.104
 4427TIP3   OH213221   1.963   4.995   2.062
 4427TIP3    H113222   2.059   5.001   2.078
 4427TIP3    H213223   1.945   5.075   2.009
 4428TIP3   OH213224   1.124   5.455   2.774
 4428TIP3    H113225   1.162   5.428   2.688
 4428TIP3    H213226   1.169   5.394   2.835
 4429TIP3   OH213227   1.581   5.587   1.922
 4429TIP3    H113228   1.533   5.673   1.927
 4429TIP3    H213229   1.525   5.531   1.981
 4430TIP3   OH213230   1.006   5.380   3.387
 4430TIP3    H113231   1.031   5.368   3.481
 4430TIP3    H213232   0.939   5.311   3.375
 4431TIP3   OH213233   1.733   5.491   3.405
 4431TIP3    H113234   1.675   5.431   3.354
 4431TIP3    H213235   1.821   5.458   3.379
 4432TIP3   OH213236   1.994   6.017   2.986
 4432TIP3    H113237   1.898   6.011   3.002
 4432TIP3    H213238   2.023   6.065   3.067
 4433TIP3   OH213239   2.404   5.084   1.900
 4433TIP3    H113240   2.342   5.039   1.837
 4433TIP3    H213241   2.402   5.173   1.859
 4434TIP3   OH213242   2.623   5.942   2.979
 4434TIP3    H113243   2.525   5.937   2.972
 4434TIP3    H213244   2.648   5.911   2.889
 4435TIP3   OH213245   2.110   5.907   1.809
 4435TIP3    H113246   2.079   5.838   1.868
 4435TIP3    H213247   2.116   5.861   1.723
 4436TIP3   OH213248   2.101   5.533   2.648
 4436TIP3    H113249   2.007   5.508   2.660
 4436TIP3    H213250   2.135   5.454   2.602
 4437TIP3   OH213251   1.227   5.761   2.399
 4437TIP3    H113252   1.228   5.842   2.344
 4437TIP3    H213253   1.132   5.743   2.404
 4438TIP3   OH213254   0.791   5.064   2.100
 4438TIP3    H113255   0.837   5.149   2.118
 4438TIP3    H213256   0.715   5.071   2.160
 4439TIP3   OH213257   1.368   5.527   2.344
 4439TIP3    H113258   1.332   5.617   2.362
 4439TIP3    H213259   1.331   5.477   2.419
 4440TIP3   OH213260   1.495   6.105   2.869
 4440TIP3    H113261   1.538   6.177   2.819
 4440TIP3    H213262   1.571   6.069   2.918
 4441TIP3   OH213263   1.148   6.000   2.252
 4441TIP3    H113264   1.061   6.008   2.297
 4441TIP3    H213265   1.178   6.093   2.252
 4442TIP3   OH213266   1.886   5.738   2.825
 4442TIP3    H113267   1.877   5.736   2.923
 4442TIP3    H213268   1.966   5.684   2.813
 4443TIP3   OH213269   1.859   5.633   1.707
 4443TIP3    H113270   1.908   5.607   1.788
 4443TIP3    H213271   1.769   5.604   1.730
 4444TIP3   OH213272   2.134   6.272   2.878
 4444TIP3    H113273   2.056   6.214   2.873
 4444TIP3    H213274   2.115   6.336   2.806
 4445TIP3   OH213275   2.199   6.106   1.529
 4445TIP3    H113276   2.228   6.170   1.462
 4445TIP3    H213277   2.120   6.152   1.564
 4446TIP3   OH213278   1.219   4.879   3.396
 4446TIP3    H113279   1.126   4.892   3.418
 4446TIP3    H213280   1.253   4.829   3.473
 4447TIP3   OH213281   2.018   5.568   1.928
 4447TIP3    H113282   2.007   5.501   1.998
 4447TIP3    H213283   2.115   5.563   1.914
 4448TIP3   OH213284   0.933   5.967   3.028
 4448TIP3    H113285   0.988   5.893   3.059
 4448TIP3    H213286   0.961   6.037   3.089
 4449TIP3   OH213287   1.228   5.617   1.711
 4449TIP3    H113288   1.236   5.529   1.670
 4449TIP3    H213289   1.206   5.594   1.803
 4450TIP3   OH213290   1.171   5.615   1.985
 4450TIP3    H113291   1.246   5.592   2.042
 4450TIP3    H213292   1.175   5.714   1.986
 4451TIP3   OH213293   0.907   5.311   2.184
 4451TIP3    H113294   0.842   5.357   2.240
 4451TIP3    H213295   0.922   5.379   2.115
 4452TIP3   OH213296   2.053   4.948   3.076
 4452TIP3    H113297   2.134   4.986   3.114
 4452TIP3    H213298   2.041   4.867   3.131
 4453TIP3   OH213299   1.934   4.700   2.240
 4453TIP3    H113300   1.921   4.722   2.146
 4453TIP3    H213301   1.972   4.783   2.276
 4454TIP3   OH213302   1.439   5.816   1.934
 4454TIP3    H113303   1.351   5.843   1.966
 4454TIP3    H213304   1.447   5.872   1.855
 4455TIP3   OH213305   1.625   4.878   2.342
 4455TIP3    H113306   1.690   4.949   2.324
 4455TIP3    H213307   1.631   4.870   2.440
 4456TIP3   OH213308   1.894   5.198   3.151
 4456TIP3    H113309   1.914   5.251   3.231
 4456TIP3    H213310   1.950   5.119   3.165
 4457TIP3   OH213311   1.769   4.607   2.445
 4457TIP3    H113312   1.767   4.682   2.507
 4457TIP3    H213313   1.829   4.643   2.376
 4458TIP3   OH213314   1.182   5.889   1.996
 4458TIP3    H113315   1.150   5.957   1.932
 4458TIP3    H213316   1.163   5.933   2.081
 4459TIP3   OH213317   1.280   4.604   2.236
 4459TIP3    H113318   1.279   4.695   2.270
 4459TIP3    H213319   1.376   4.584   2.244
 4460TIP3   OH213320   2.536   5.099   3.131
 4460TIP3    H113321   2.438   5.096   3.138
 4460TIP3    H213322   2.548   5.055   3.045
 4461TIP3   OH213323   2.185   5.293   2.519
 4461TIP3    H113324   2.111   5.232   2.531
 4461TIP3    H213325   2.258   5.247   2.566
 4462TIP3   OH213326   0.896   5.520   1.992
 4462TIP3    H113327   0.955   5.597   1.996
 4462TIP3    H213328   0.943   5.468   1.923
 4463TIP3   OH213329   0.841   4.796   2.126
 4463TIP3    H113330   0.844   4.893   2.119
 4463TIP3    H213331   0.761   4.775   2.076
 4464TIP3   OH213332   2.153   6.252   2.467
 4464TIP3    H113333   2.113   6.291   2.387
 4464TIP3    H213334   2.248   6.270   2.449
 4465TIP3   OH213335   1.228   4.515   2.999
 4465TIP3    H113336   1.199   4.484   2.911
 4465TIP3    H213337   1.216   4.435   3.054
 4466TIP3   OH213338   0.772   5.735   2.381
 4466TIP3    H113339   0.693   5.769   2.425
 4466TIP3    H213340   0.757   5.771   2.291
 4467TIP3   OH213341   0.925   6.274   3.447
 4467TIP3    H113342   1.010   6.277   3.496
 4467TIP3    H213343   0.906   6.179   3.448
 4468TIP3   OH213344   1.405   6.241   3.493
 4468TIP3    H113345   1.501   6.229   3.500
 4468TIP3    H213346   1.384   6.181   3.418
 4469TIP3   OH213347   1.395   5.816   1.627
 4469TIP3    H113348   1.334   5.745   1.658
 4469TIP3    H213349   1.464   5.762   1.585
 4470TIP3   OH213350   2.050   6.143   3.223
 4470TIP3    H113351   2.038   6.076   3.295
 4470TIP3    H213352   2.125   6.196   3.258
 4471TIP3   OH213353   1.830   5.862   1.534
 4471TIP3    H113354   1.871   5.793   1.590
 4471TIP3    H213355   1.881   5.856   1.451
 4472TIP3   OH213356   1.056   5.680   3.649
 4472TIP3    H113357   1.072   5.585   3.654
 4472TIP3    H213358   0.968   5.683   3.605
 4473TIP3   OH213359   1.031   5.334   1.841
 4473TIP3    H113360   1.090   5.302   1.912
 4473TIP3    H213361   1.096   5.340   1.767
 4474TIP3   OH213362   1.665   5.766   3.422
 4474TIP3    H113363   1.623   5.782   3.335
 4474TIP3    H213364   1.695   5.673   3.415
 4475TIP3   OH213365   1.549   5.533   1.649
 4475TIP3    H113366   1.545   5.543   1.746
 4475TIP3    H213367   1.541   5.436   1.641
 4476TIP3   OH213368   2.157   5.772   3.028
 4476TIP3    H113369   2.231   5.819   2.984
 4476TIP3    H213370   2.085   5.837   3.015
 4477TIP3   OH213371   1.175   5.411   3.630
 4477TIP3    H113372   1.253   5.358   3.611
 4477TIP3    H213373   1.199   5.448   3.717
 4478TIP3   OH213374   1.244   5.235   2.067
 4478TIP3    H113375   1.216   5.190   2.148
 4478TIP3    H213376   1.279   5.161   2.013
 4479TIP3   OH213377   1.508   5.297   3.289
 4479TIP3    H113378   1.433   5.361   3.293
 4479TIP3    H213379   1.560   5.334   3.214
 4480TIP3   OH213380   1.340   5.028   1.906
 4480TIP3    H113381   1.314   5.034   1.812
 4480TIP3    H213382   1.438   5.033   1.899
 4481TIP3   OH213383   2.027   5.703   3.427
 4481TIP3    H113384   2.108   5.681   3.380
 4481TIP3    H213385   2.025   5.635   3.497
 4482TIP3   OH213386   2.166   5.362   1.566
 4482TIP3    H113387   2.144   5.315   1.483
 4482TIP3    H213388   2.132   5.451   1.543
 4483TIP3   OH213389   1.631   5.087   3.420
 4483TIP3    H113390   1.634   5.008   3.363
 4483TIP3    H213391   1.589   5.153   3.360
 4484TIP3   OH213392   1.635   4.874   3.226
 4484TIP3    H113393   1.664   4.916   3.143
 4484TIP3    H213394   1.541   4.852   3.206
 4485TIP3   OH213395   1.664   5.410   3.099
 4485TIP3    H113396   1.747   5.418   3.051
 4485TIP3    H213397   1.608   5.478   3.054
 4486TIP3   OH213398   2.246   5.378   3.480
 4486TIP3    H113399   2.295   5.295   3.493
 4486TIP3    H213400   2.315   5.436   3.447
 4487TIP3   OH213401   2.288   5.631   3.216
 4487TIP3    H113402   2.229   5.683   3.157
 4487TIP3    H213403   2.375   5.651   3.176
 4488TIP3   OH213404   1.507   5.204   3.647
 4488TIP3    H113405   1.440   5.135   3.662
 4488TIP3    H213406   1.545   5.176   3.561
 4489TIP3   OH213407   1.768   4.638   3.289
 4489TIP3    H113408   1.719   4.721   3.270
 4489TIP3    H213409   1.699   4.570   3.280
 4490TIP3   OH213410   1.894   5.145   3.509
 4490TIP3    H113411   1.887   5.132   3.605
 4490TIP3    H213412   1.803   5.119   3.482
 4491TIP3   OH213413   2.133   5.092   3.363
 4491TIP3    H113414   2.059   5.094   3.427
 4491TIP3    H213415   2.208   5.062   3.419
 4492TIP3   OH213416   2.361   5.032   3.513
 4492TIP3    H113417   2.374   4.937   3.533
 4492TIP3    H213418   2.359   5.072   3.603
 4493TIP3   OH213419   1.349   4.982   3.700
 4493TIP3    H113420   1.363   4.892   3.667
 4493TIP3    H213421   1.386   4.974   3.790
 4494TIP3   OH213422   1.864   4.650   3.547
 4494TIP3    H113423   1.930   4.579   3.545
 4494TIP3    H213424   1.825   4.641   3.458
 4495TIP3   OH213425   1.930   4.865   3.707
 4495TIP3    H113426   1.907   4.793   3.644
 4495TIP3    H213427   1.851   4.923   3.701
 4496TIP3   OH213428   1.150   6.098   1.817
 4496TIP3    H113429   1.242   6.096   1.783
 4496TIP3    H213430   1.103   6.130   1.739
 4497TIP3   OH213431   0.630   5.470   2.033
 4497TIP3    H113432   0.722   5.497   2.013
 4497TIP3    H213433   0.625   5.384   1.986
 4498TIP3   OH213434   0.540   6.088   2.439
 4498TIP3    H113435   0.476   6.025   2.400
 4498TIP3    H213436   0.586   6.030   2.503
 4499TIP3   OH213437   0.678   5.942   2.625
 4499TIP3    H113438   0.672   5.865   2.683
 4499TIP3    H213439   0.729   6.003   2.682
 4500TIP3   OH213440   2.403   6.353   2.423
 4500TIP3    H113441   2.430   6.371   2.515
 4500TIP3    H213442   2.480   6.380   2.372
 4501TIP3   OH213443   2.438   6.357   2.703
 4501TIP3    H113444   2.392   6.270   2.703
 4501TIP3    H213445   2.511   6.337   2.763
 4502TIP3   OH213446   2.481   6.035   3.279
 4502TIP3    H113447   2.408   6.043   3.343
 4502TIP3    H213448   2.523   6.124   3.284
 4503TIP3   OH213449   2.297   5.549   1.902
 4503TIP3    H113450   2.367   5.611   1.872
 4503TIP3    H213451   2.340   5.509   1.981
 4504TIP3   OH213452   2.425   5.418   2.105
 4504TIP3    H113453   2.360   5.374   2.163
 4504TIP3    H213454   2.490   5.454   2.168
 4505TIP3   OH213455   2.479   5.807   2.536
 4505TIP3    H113456   2.532   5.741   2.488
 4505TIP3    H213457   2.469   5.878   2.470
 4506TIP3   OH213458   2.312   6.111   2.730
 4506TIP3    H113459   2.241   6.148   2.785
 4506TIP3    H213460   2.262   6.060   2.663
 4507TIP3   OH213461   2.365   5.324   1.751
 4507TIP3    H113462   2.294   5.326   1.683
 4507TIP3    H213463   2.335   5.399   1.806
 4508TIP3   OH213464   2.235   4.998   1.706
 4508TIP3    H113465   2.194   5.035   1.628
 4508TIP3    H213466   2.209   4.904   1.698
 4509TIP3   OH213467   2.241   5.272   2.252
 4509TIP3    H113468   2.249   5.176   2.245
 4509TIP3    H213469   2.228   5.285   2.348
 4510TIP3   OH213470   0.866   5.348   2.997
 4510TIP3    H113471   0.866   5.318   2.904
 4510TIP3    H213472   0.963   5.349   3.015
 4511TIP3   OH213473   2.530   5.697   3.107
 4511TIP3    H113474   2.602   5.631   3.099
 4511TIP3    H213475   2.559   5.766   3.044
 4512TIP3   OH213476   2.716   5.504   3.128
 4512TIP3    H113477   2.641   5.453   3.166
 4512TIP3    H213478   2.789   5.440   3.141
 4513TIP3   OH213479   2.178   4.733   1.695
 4513TIP3    H113480   2.255   4.701   1.746
 4513TIP3    H213481   2.107   4.670   1.718
 4514TIP3   OH213482   2.237   4.988   2.147
 4514TIP3    H113483   2.276   4.899   2.163
 4514TIP3    H213484   2.296   5.019   2.076
 4515TIP3   OH213485   2.397   5.166   2.640
 4515TIP3    H113486   2.484   5.190   2.600
 4515TIP3    H213487   2.413   5.199   2.731
 4516TIP3   OH213488   2.466   5.306   2.874
 4516TIP3    H113489   2.388   5.341   2.921
 4516TIP3    H213490   2.500   5.386   2.828
 4517TIP3   OH213491   1.084   5.032   3.664
 4517TIP3    H113492   1.181   5.028   3.672
 4517TIP3    H213493   1.060   4.949   3.711
 4518TIP3   OH213494   2.917   4.895   3.430
 4518TIP3    H113495   2.978   4.830   3.388
 4518TIP3    H213496   2.892   4.951   3.353
 4519TIP3   OH213497   2.344   4.738   2.184
 4519TIP3    H113498   2.395   4.723   2.266
 4519TIP3    H213499   2.285   4.660   2.184
 4520TIP3   OH213500   1.045   4.724   3.006
 4520TIP3    H113501   1.108   4.650   3.013
 4520TIP3    H213502   1.107   4.799   2.997
 4521TIP3   OH213503   0.849   4.998   3.077
 4521TIP3    H113504   0.898   4.992   2.992
 4521TIP3    H213505   0.879   5.084   3.109
 4522TIP3   OH213506   2.791   5.039   3.234
 4522TIP3    H113507   2.703   5.077   3.254
 4522TIP3    H213508   2.765   4.966   3.176
 4523TIP3   OH213509   2.427   4.674   1.815
 4523TIP3    H113510   2.467   4.601   1.763
 4523TIP3    H213511   2.496   4.743   1.809
 4524TIP3   OH213512   0.831   4.503   2.578
 4524TIP3    H113513   0.737   4.500   2.602
 4524TIP3    H213514   0.830   4.561   2.499
 4525TIP3   OH213515   1.989   6.205   2.080
 4525TIP3    H113516   2.043   6.190   2.000
 4525TIP3    H213517   2.050   6.257   2.136
 4526TIP3   OH213518   1.034   4.550   3.388
 4526TIP3    H113519   1.003   4.585   3.473
 4526TIP3    H213520   0.983   4.606   3.326
 4527TIP3   OH213521   1.093   6.005   3.468
 4527TIP3    H113522   1.000   5.979   3.452
 4527TIP3    H213523   1.102   5.993   3.563
 4528TIP3   OH213524   1.267   6.039   3.014
 4528TIP3    H113525   1.221   6.116   2.976
 4528TIP3    H213526   1.354   6.053   2.972
 4529TIP3   OH213527   1.716   6.287   3.152
 4529TIP3    H113528   1.756   6.287   3.242
 4529TIP3    H213529   1.783   6.338   3.102
 4530TIP3   OH213530   1.895   6.438   3.010
 4530TIP3    H113531   1.968   6.384   2.974
 4530TIP3    H213532   1.945   6.494   3.073
 4531TIP3   OH213533   2.687   4.799   3.114
 4531TIP3    H113534   2.597   4.792   3.079
 4531TIP3    H213535   2.720   4.707   3.104
 4532TIP3   OH213536   0.947   6.297   3.039
 4532TIP3    H113537   0.857   6.330   3.017
 4532TIP3    H213538   0.958   6.336   3.127
 4533TIP3   OH213539   1.183   6.277   2.897
 4533TIP3    H113540   1.096   6.290   2.942
 4533TIP3    H213541   1.163   6.310   2.807
 4534TIP3   OH213542   1.610   6.308   2.693
 4534TIP3    H113543   1.538   6.328   2.630
 4534TIP3    H213544   1.621   6.394   2.738
 4535TIP3   OH213545   1.877   6.246   2.744
 4535TIP3    H113546   1.782   6.262   2.725
 4535TIP3    H213547   1.918   6.326   2.708
 4536TIP3   OH213548   2.089   6.440   2.664
 4536TIP3    H113549   2.074   6.522   2.613
 4536TIP3    H213550   2.112   6.376   2.594
 4537TIP3   OH213551   0.854   6.090   2.786
 4537TIP3    H113552   0.882   6.068   2.877
 4537TIP3    H213553   0.927   6.046   2.736
 4538TIP3   OH213554   1.049   5.963   2.641
 4538TIP3    H113555   1.067   5.879   2.690
 4538TIP3    H213556   1.140   6.001   2.634
 4539TIP3   OH213557   1.317   6.060   2.642
 4539TIP3    H113558   1.348   5.969   2.629
 4539TIP3    H213559   1.360   6.079   2.728
 4540TIP3   OH213560   1.891   4.715   2.727
 4540TIP3    H113561   1.849   4.645   2.781
 4540TIP3    H213562   1.966   4.668   2.687
 4541TIP3   OH213563   2.417   4.593   2.637
 4541TIP3    H113564   2.455   4.645   2.563
 4541TIP3    H213565   2.322   4.614   2.630
 4542TIP3   OH213566   2.511   4.697   2.400
 4542TIP3    H113567   2.585   4.645   2.361
 4542TIP3    H213568   2.545   4.788   2.386
 4543TIP3   OH213569   1.142   4.424   2.750
 4543TIP3    H113570   1.050   4.393   2.749
 4543TIP3    H213571   1.190   4.339   2.744
 4544TIP3   OH213572   0.928   4.292   2.394
 4544TIP3    H113573   0.959   4.350   2.322
 4544TIP3    H213574   0.900   4.357   2.461
 4545TIP3   OH213575   1.584   4.456   2.630
 4545TIP3    H113576   1.640   4.505   2.568
 4545TIP3    H213577   1.610   4.495   2.715
 4546TIP3   OH213578   2.130   4.602   2.613
 4546TIP3    H113579   2.133   4.566   2.524
 4546TIP3    H213580   2.117   4.521   2.667
 4547TIP3   OH213581   2.162   4.524   2.174
 4547TIP3    H113582   2.074   4.566   2.184
 4547TIP3    H213583   2.147   4.439   2.222
 4548TIP3   OH213584   0.641   5.866   2.186
 4548TIP3    H113585   0.562   5.830   2.142
 4548TIP3    H213586   0.636   5.957   2.152
 4549TIP3   OH213587   1.045   4.450   2.161
 4549TIP3    H113588   1.094   4.391   2.102
 4549TIP3    H213589   1.116   4.507   2.196
 4550TIP3   OH213590   1.558   4.627   2.259
 4550TIP3    H113591   1.620   4.581   2.318
 4550TIP3    H213592   1.580   4.720   2.283
 4551TIP3   OH213593   1.418   6.058   1.753
 4551TIP3    H113594   1.507   6.077   1.718
 4551TIP3    H213595   1.396   5.981   1.697
 4552TIP3   OH213596   2.137   6.176   1.855
 4552TIP3    H113597   2.136   6.078   1.844
 4552TIP3    H213598   2.096   6.204   1.770
 4553TIP3   OH213599   1.350   4.698   3.634
 4553TIP3    H113600   1.316   4.632   3.696
 4553TIP3    H213601   1.444   4.701   3.662
 4554TIP3   OH213602   1.597   4.700   3.756
 4554TIP3    H113603   1.685   4.675   3.721
 4554TIP3    H213604   1.586   4.632   3.826
 4555TIP3   OH213605   0.720   5.859   1.837
 4555TIP3    H113606   0.728   5.929   1.902
 4555TIP3    H213607   0.812   5.849   1.804
 4556TIP3   OH213608   2.423   4.761   3.546
 4556TIP3    H113609   2.442   4.730   3.637
 4556TIP3    H213610   2.512   4.757   3.505
 4557TIP3   OH213611   2.365   6.317   3.036
 4557TIP3    H113612   2.285   6.283   2.991
 4557TIP3    H213613   2.343   6.412   3.042
 4558TIP3   OH213614   3.630   5.688   1.805
 4558TIP3    H113615   3.601   5.779   1.786
 4558TIP3    H213616   3.552   5.638   1.773
 4559TIP3   OH213617   3.627   5.687   2.184
 4559TIP3    H113618   3.658   5.657   2.271
 4559TIP3    H213619   3.586   5.606   2.149
 4560TIP3   OH213620   2.927   5.585   2.551
 4560TIP3    H113621   2.957   5.515   2.613
 4560TIP3    H213622   3.008   5.637   2.543
 4561TIP3   OH213623   3.870   5.990   1.865
 4561TIP3    H113624   3.856   5.918   1.928
 4561TIP3    H213625   3.899   6.062   1.923
 4562TIP3   OH213626   2.896   5.993   2.276
 4562TIP3    H113627   2.888   5.895   2.278
 4562TIP3    H213628   2.992   6.002   2.273
 4563TIP3   OH213629   2.605   5.197   2.061
 4563TIP3    H113630   2.556   5.280   2.075
 4563TIP3    H213631   2.535   5.140   2.026
 4564TIP3   OH213632   2.666   5.483   2.231
 4564TIP3    H113633   2.712   5.405   2.269
 4564TIP3    H213634   2.724   5.506   2.158
 4565TIP3   OH213635   3.519   6.452   1.883
 4565TIP3    H113636   3.566   6.381   1.834
 4565TIP3    H213637   3.515   6.414   1.972
 4566TIP3   OH213638   3.427   5.914   2.233
 4566TIP3    H113639   3.463   5.836   2.188
 4566TIP3    H213640   3.512   5.957   2.256
 4567TIP3   OH213641   4.438   5.234   2.231
 4567TIP3    H113642   4.468   5.317   2.274
 4567TIP3    H213643   4.460   5.252   2.138
 4568TIP3   OH213644   3.841   5.417   2.266
 4568TIP3    H113645   3.881   5.331   2.288
 4568TIP3    H213646   3.808   5.400   2.176
 4569TIP3   OH213647   3.175   5.076   2.229
 4569TIP3    H113648   3.153   5.147   2.166
 4569TIP3    H213649   3.128   5.001   2.189
 4570TIP3   OH213650   3.870   5.165   1.854
 4570TIP3    H113651   3.941   5.147   1.920
 4570TIP3    H213652   3.924   5.200   1.781
 4571TIP3   OH213653   2.811   5.277   2.337
 4571TIP3    H113654   2.893   5.256   2.385
 4571TIP3    H213655   2.824   5.220   2.258
 4572TIP3   OH213656   3.251   5.474   2.131
 4572TIP3    H113657   3.345   5.448   2.144
 4572TIP3    H213658   3.212   5.390   2.099
 4573TIP3   OH213659   4.514   5.442   2.400
 4573TIP3    H113660   4.429   5.488   2.380
 4573TIP3    H213661   4.522   5.461   2.494
 4574TIP3   OH213662   3.176   5.061   2.667
 4574TIP3    H113663   3.114   5.090   2.598
 4574TIP3    H213664   3.123   5.074   2.747
 4575TIP3   OH213665   3.524   5.911   1.673
 4575TIP3    H113666   3.477   5.885   1.593
 4575TIP3    H213667   3.478   5.994   1.697
 4576TIP3   OH213668   3.281   5.833   2.462
 4576TIP3    H113669   3.217   5.896   2.502
 4576TIP3    H213670   3.321   5.886   2.391
 4577TIP3   OH213671   4.082   5.166   2.023
 4577TIP3    H113672   4.072   5.114   2.104
 4577TIP3    H213673   4.136   5.242   2.053
 4578TIP3   OH213674   3.043   5.172   2.450
 4578TIP3    H113675   3.108   5.241   2.475
 4578TIP3    H213676   3.093   5.129   2.376
 4579TIP3   OH213677   3.106   6.025   2.559
 4579TIP3    H113678   3.080   6.111   2.521
 4579TIP3    H213679   3.027   6.008   2.616
 4580TIP3   OH213680   2.503   5.714   1.793
 4580TIP3    H113681   2.461   5.741   1.710
 4580TIP3    H213682   2.532   5.799   1.831
 4581TIP3   OH213683   3.943   6.232   2.036
 4581TIP3    H113684   3.853   6.222   2.076
 4581TIP3    H213685   3.932   6.318   1.990
 4582TIP3   OH213686   4.231   5.136   2.398
 4582TIP3    H113687   4.143   5.163   2.367
 4582TIP3    H213688   4.290   5.167   2.326
 4583TIP3   OH213689   3.533   4.782   2.382
 4583TIP3    H113690   3.518   4.689   2.406
 4583TIP3    H213691   3.453   4.823   2.423
 4584TIP3   OH213692   3.646   6.280   1.710
 4584TIP3    H113693   3.694   6.196   1.690
 4584TIP3    H213694   3.708   6.343   1.668
 4585TIP3   OH213695   3.788   6.065   1.614
 4585TIP3    H113696   3.746   5.987   1.576
 4585TIP3    H213697   3.823   6.028   1.698
 4586TIP3   OH213698   4.168   6.146   2.377
 4586TIP3    H113699   4.156   6.068   2.320
 4586TIP3    H213700   4.152   6.220   2.315
 4587TIP3   OH213701   3.460   5.539   1.634
 4587TIP3    H113702   3.379   5.590   1.612
 4587TIP3    H213703   3.505   5.535   1.548
 4588TIP3   OH213704   3.418   5.323   1.352
 4588TIP3    H113705   3.486   5.373   1.400
 4588TIP3    H213706   3.475   5.258   1.305
 4589TIP3   OH213707   4.364   5.783   2.223
 4589TIP3    H113708   4.280   5.834   2.229
 4589TIP3    H213709   4.391   5.806   2.131
 4590TIP3   OH213710   3.808   5.622   1.607
 4590TIP3    H113711   3.753   5.645   1.685
 4590TIP3    H213712   3.891   5.595   1.651
 4591TIP3   OH213713   4.042   5.663   2.516
 4591TIP3    H113714   4.038   5.745   2.568
 4591TIP3    H213715   3.955   5.665   2.472
 4592TIP3   OH213716   3.040   5.621   2.023
 4592TIP3    H113717   2.997   5.563   1.957
 4592TIP3    H213718   3.116   5.566   2.053
 4593TIP3   OH213719   3.171   6.034   2.172
 4593TIP3    H113720   3.147   5.986   2.091
 4593TIP3    H213721   3.260   5.998   2.190
 4594TIP3   OH213722   3.175   5.591   2.379
 4594TIP3    H113723   3.208   5.567   2.289
 4594TIP3    H213724   3.220   5.676   2.397
 4595TIP3   OH213725   3.701   6.228   2.154
 4595TIP3    H113726   3.689   6.307   2.210
 4595TIP3    H213727   3.686   6.154   2.217
 4596TIP3   OH213728   3.313   6.149   2.700
 4596TIP3    H113729   3.253   6.210   2.749
 4596TIP3    H213730   3.248   6.094   2.653
 4597TIP3   OH213731   3.648   5.480   1.433
 4597TIP3    H113732   3.706   5.539   1.485
 4597TIP3    H213733   3.675   5.503   1.340
 4598TIP3   OH213734   3.067   5.707   2.800
 4598TIP3    H113735   3.070   5.793   2.848
 4598TIP3    H213736   2.973   5.685   2.810
 4599TIP3   OH213737   3.388   6.160   1.709
 4599TIP3    H113738   3.467   6.214   1.729
 4599TIP3    H213739   3.329   6.224   1.667
 4600TIP3   OH213740   3.107   6.317   2.788
 4600TIP3    H113741   3.071   6.314   2.698
 4600TIP3    H213742   3.028   6.295   2.843
 4601TIP3   OH213743   4.163   4.721   1.480
 4601TIP3    H113744   4.082   4.740   1.531
 4601TIP3    H213745   4.175   4.806   1.432
 4602TIP3   OH213746   2.905   5.463   1.830
 4602TIP3    H113747   2.838   5.505   1.771
 4602TIP3    H213748   2.867   5.375   1.842
 4603TIP3   OH213749   3.961   6.088   1.027
 4603TIP3    H113750   3.971   6.185   1.015
 4603TIP3    H213751   4.054   6.058   1.017
 4604TIP3   OH213752   2.687   5.846   2.735
 4604TIP3    H113753   2.622   5.821   2.666
 4604TIP3    H213754   2.724   5.759   2.762
 4605TIP3   OH213755   2.541   6.040   2.368
 4605TIP3    H113756   2.636   6.025   2.357
 4605TIP3    H213757   2.540   6.115   2.430
 4606TIP3   OH213758   4.406   6.488   2.421
 4606TIP3    H113759   4.405   6.392   2.438
 4606TIP3    H213760   4.324   6.515   2.468
 4607TIP3   OH213761   3.510   6.277   2.557
 4607TIP3    H113762   3.510   6.369   2.591
 4607TIP3    H213763   3.439   6.237   2.612
 4608TIP3   OH213764   3.270   6.405   1.510
 4608TIP3    H113765   3.226   6.385   1.426
 4608TIP3    H213766   3.238   6.495   1.530
 4609TIP3   OH213767   2.707   6.272   1.896
 4609TIP3    H113768   2.754   6.253   1.981
 4609TIP3    H213769   2.647   6.195   1.893
 4610TIP3   OH213770   3.474   6.307   1.150
 4610TIP3    H113771   3.533   6.238   1.114
 4610TIP3    H213772   3.506   6.315   1.243
 4611TIP3   OH213773   3.522   6.354   1.422
 4611TIP3    H113774   3.433   6.363   1.464
 4611TIP3    H213775   3.571   6.310   1.493
 4612TIP3   OH213776   4.296   5.622   2.697
 4612TIP3    H113777   4.214   5.633   2.647
 4612TIP3    H213778   4.311   5.526   2.687
 4613TIP3   OH213779   2.890   6.030   2.726
 4613TIP3    H113780   2.941   6.012   2.808
 4613TIP3    H213781   2.817   5.965   2.733
 4614TIP3   OH213782   3.299   4.873   2.489
 4614TIP3    H113783   3.227   4.808   2.490
 4614TIP3    H213784   3.265   4.936   2.556
 4615TIP3   OH213785   3.823   4.971   2.703
 4615TIP3    H113786   3.891   4.939   2.767
 4615TIP3    H213787   3.739   4.948   2.748
 4616TIP3   OH213788   4.067   5.399   2.623
 4616TIP3    H113789   4.015   5.393   2.706
 4616TIP3    H213790   4.039   5.484   2.586
 4617TIP3   OH213791   3.724   5.530   1.178
 4617TIP3    H113792   3.690   5.501   1.091
 4617TIP3    H213793   3.805   5.578   1.151
 4618TIP3   OH213794   3.437   4.903   1.479
 4618TIP3    H113795   3.404   4.899   1.571
 4618TIP3    H213796   3.398   4.820   1.445
 4619TIP3   OH213797   3.223   5.368   2.528
 4619TIP3    H113798   3.172   5.389   2.608
 4619TIP3    H213799   3.206   5.448   2.473
 4620TIP3   OH213800   3.105   5.257   2.039
 4620TIP3    H113801   3.013   5.228   2.057
 4620TIP3    H213802   3.119   5.214   1.951
 4621TIP3   OH213803   3.599   5.341   1.768
 4621TIP3    H113804   3.545   5.412   1.726
 4621TIP3    H213805   3.652   5.309   1.692
 4622TIP3   OH213806   3.772   5.621   2.857
 4622TIP3    H113807   3.750   5.547   2.918
 4622TIP3    H213808   3.866   5.633   2.877
 4623TIP3   OH213809   3.756   5.370   2.007
 4623TIP3    H113810   3.695   5.398   1.936
 4623TIP3    H213811   3.789   5.287   1.966
 4624TIP3   OH213812   3.040   5.397   2.735
 4624TIP3    H113813   3.071   5.457   2.805
 4624TIP3    H213814   3.031   5.313   2.784
 4625TIP3   OH213815   3.092   4.874   1.444
 4625TIP3    H113816   3.085   4.871   1.541
 4625TIP3    H213817   3.011   4.925   1.422
 4626TIP3   OH213818   2.635   4.920   2.315
 4626TIP3    H113819   2.711   4.951   2.370
 4626TIP3    H213820   2.677   4.885   2.235
 4627TIP3   OH213821   2.610   4.901   1.836
 4627TIP3    H113822   2.657   4.938   1.758
 4627TIP3    H213823   2.549   4.974   1.855
 4628TIP3   OH213824   3.767   5.616   2.431
 4628TIP3    H113825   3.799   5.543   2.373
 4628TIP3    H213826   3.737   5.563   2.508
 4629TIP3   OH213827   3.432   5.081   2.103
 4629TIP3    H113828   3.349   5.076   2.155
 4629TIP3    H213829   3.499   5.073   2.173
 4630TIP3   OH213830   2.869   5.131   2.110
 4630TIP3    H113831   2.774   5.137   2.083
 4630TIP3    H213832   2.893   5.039   2.089
 4631TIP3   OH213833   3.139   5.130   1.798
 4631TIP3    H113834   3.233   5.142   1.777
 4631TIP3    H213835   3.093   5.150   1.714
 4632TIP3   OH213836   3.925   5.153   2.303
 4632TIP3    H113837   3.890   5.164   2.395
 4632TIP3    H213838   3.860   5.089   2.267
 4633TIP3   OH213839   2.977   5.163   1.578
 4633TIP3    H113840   2.904   5.119   1.532
 4633TIP3    H213841   3.028   5.197   1.502
 4634TIP3   OH213842   4.094   6.841   2.522
 4634TIP3    H113843   4.094   6.865   2.428
 4634TIP3    H213844   4.173   6.888   2.555
 4635TIP3   OH213845   3.053   5.954   2.944
 4635TIP3    H113846   3.133   5.981   2.993
 4635TIP3    H213847   2.989   5.949   3.018
 4636TIP3   OH213848   3.517   5.406   2.201
 4636TIP3    H113849   3.587   5.361   2.152
 4636TIP3    H213850   3.522   5.362   2.289
 4637TIP3   OH213851   3.040   4.894   2.075
 4637TIP3    H113852   3.007   4.816   2.125
 4637TIP3    H213853   3.097   4.853   2.009
 4638TIP3   OH213854   3.495   5.304   2.482
 4638TIP3    H113855   3.404   5.335   2.501
 4638TIP3    H213856   3.551   5.361   2.539
 4639TIP3   OH213857   3.229   5.694   1.584
 4639TIP3    H113858   3.159   5.626   1.574
 4639TIP3    H213859   3.211   5.726   1.675
 4640TIP3   OH213860   4.131   5.928   2.215
 4640TIP3    H113861   4.153   5.978   2.133
 4640TIP3    H213862   4.047   5.885   2.191
 4641TIP3   OH213863   3.688   5.006   1.442
 4641TIP3    H113864   3.592   4.987   1.453
 4641TIP3    H213865   3.697   5.099   1.470
 4642TIP3   OH213866   3.634   6.013   2.580
 4642TIP3    H113867   3.651   5.983   2.670
 4642TIP3    H213868   3.591   6.099   2.592
 4643TIP3   OH213869   3.759   5.251   1.549
 4643TIP3    H113870   3.855   5.256   1.566
 4643TIP3    H213871   3.742   5.332   1.497
 4644TIP3   OH213872   2.923   5.716   2.260
 4644TIP3    H113873   2.960   5.685   2.175
 4644TIP3    H213874   2.961   5.651   2.323
 4645TIP3   OH213875   3.375   5.842   1.404
 4645TIP3    H113876   3.328   5.928   1.411
 4645TIP3    H213877   3.321   5.786   1.465
 4646TIP3   OH213878   2.802   5.637   2.874
 4646TIP3    H113879   2.824   5.622   2.968
 4646TIP3    H213880   2.735   5.568   2.858
 4647TIP3   OH213881   3.528   5.748   2.892
 4647TIP3    H113882   3.469   5.688   2.844
 4647TIP3    H213883   3.616   5.713   2.865
 4648TIP3   OH213884   3.791   6.275   2.473
 4648TIP3    H113885   3.695   6.267   2.488
 4648TIP3    H213886   3.819   6.323   2.554
 4649TIP3   OH213887   4.201   5.340   1.386
 4649TIP3    H113888   4.139   5.295   1.324
 4649TIP3    H213889   4.199   5.429   1.345
 4650TIP3   OH213890   4.419   6.198   2.466
 4650TIP3    H113891   4.321   6.194   2.459
 4650TIP3    H213892   4.443   6.167   2.376
 4651TIP3   OH213893   3.902   6.160   1.294
 4651TIP3    H113894   3.874   6.091   1.356
 4651TIP3    H213895   3.912   6.111   1.210
 4652TIP3   OH213896   3.897   5.790   2.134
 4652TIP3    H113897   3.804   5.764   2.147
 4652TIP3    H213898   3.931   5.710   2.089
 4653TIP3   OH213899   3.023   6.017   1.885
 4653TIP3    H113900   3.022   6.098   1.831
 4653TIP3    H213901   2.929   5.997   1.892
 4654TIP3   OH213902   2.586   5.322   1.586
 4654TIP3    H113903   2.632   5.405   1.608
 4654TIP3    H213904   2.509   5.326   1.648
 4655TIP3   OH213905   3.165   5.784   1.829
 4655TIP3    H113906   3.128   5.873   1.850
 4655TIP3    H213907   3.129   5.731   1.903
 4656TIP3   OH213908   3.291   6.362   2.355
 4656TIP3    H113909   3.336   6.433   2.305
 4656TIP3    H213910   3.366   6.325   2.404
 4657TIP3   OH213911   2.939   6.258   1.738
 4657TIP3    H113912   2.854   6.267   1.785
 4657TIP3    H213913   2.972   6.350   1.741
 4658TIP3   OH213914   3.683   5.995   2.312
 4658TIP3    H113915   3.673   5.993   2.410
 4658TIP3    H213916   3.761   5.940   2.300
 4659TIP3   OH213917   3.655   5.888   1.195
 4659TIP3    H113918   3.707   5.863   1.274
 4659TIP3    H213919   3.566   5.861   1.223
 4660TIP3   OH213920   3.930   6.529   2.364
 4660TIP3    H113921   3.852   6.471   2.359
 4660TIP3    H213922   3.912   6.593   2.291
 4661TIP3   OH213923   3.996   6.363   1.016
 4661TIP3    H113924   4.032   6.436   0.962
 4661TIP3    H213925   3.915   6.408   1.050
 4662TIP3   OH213926   3.015   5.142   2.883
 4662TIP3    H113927   2.918   5.141   2.896
 4662TIP3    H213928   3.044   5.078   2.950
 4663TIP3   OH213929   3.815   5.823   1.412
 4663TIP3    H113930   3.803   5.757   1.483
 4663TIP3    H213931   3.912   5.819   1.401
 4664TIP3   OH213932   2.730   6.225   2.515
 4664TIP3    H113933   2.782   6.147   2.541
 4664TIP3    H213934   2.760   6.288   2.582
 4665TIP3   OH213935   3.023   5.869   1.195
 4665TIP3    H113936   3.036   5.777   1.165
 4665TIP3    H213937   3.003   5.856   1.290
 4666TIP3   OH213938   2.967   5.874   1.468
 4666TIP3    H113939   3.039   5.845   1.526
 4666TIP3    H213940   2.974   5.972   1.475
 4667TIP3   OH213941   2.704   5.568   1.669
 4667TIP3    H113942   2.638   5.611   1.727
 4667TIP3    H213943   2.718   5.638   1.603
 4668TIP3   OH213944   3.851   5.205   2.563
 4668TIP3    H113945   3.931   5.239   2.604
 4668TIP3    H213946   3.834   5.124   2.616
 4669TIP3   OH213947   3.731   4.957   1.726
 4669TIP3    H113948   3.718   4.980   1.632
 4669TIP3    H213949   3.769   5.039   1.763
 4670TIP3   OH213950   3.234   6.072   1.417
 4670TIP3    H113951   3.147   6.099   1.452
 4670TIP3    H213952   3.248   6.141   1.351
 4671TIP3   OH213953   3.422   5.135   1.830
 4671TIP3    H113954   3.487   5.207   1.814
 4671TIP3    H213955   3.426   5.127   1.928
 4672TIP3   OH213956   3.692   5.456   2.637
 4672TIP3    H113957   3.710   5.507   2.719
 4672TIP3    H213958   3.744   5.376   2.651
 4673TIP3   OH213959   3.566   4.865   1.933
 4673TIP3    H113960   3.564   4.940   1.995
 4673TIP3    H213961   3.626   4.900   1.863
 4674TIP3   OH213962   2.977   6.148   1.482
 4674TIP3    H113963   2.945   6.216   1.419
 4674TIP3    H213964   2.958   6.190   1.568
 4675TIP3   OH213965   3.077   4.860   1.720
 4675TIP3    H113966   3.075   4.949   1.760
 4675TIP3    H213967   3.172   4.840   1.730
 4676TIP3   OH213968   4.334   5.354   2.615
 4676TIP3    H113969   4.236   5.354   2.626
 4676TIP3    H213970   4.340   5.308   2.531
 4677TIP3   OH213971   3.982   5.549   2.005
 4677TIP3    H113972   3.906   5.490   2.018
 4677TIP3    H213973   4.054   5.502   2.053
 4678TIP3   OH213974   2.694   5.779   1.476
 4678TIP3    H113975   2.760   5.850   1.484
 4678TIP3    H213976   2.740   5.723   1.409
 4679TIP3   OH213977   2.639   5.053   1.610
 4679TIP3    H113978   2.637   5.151   1.605
 4679TIP3    H213979   2.557   5.028   1.567
 4680TIP3   OH213980   3.950   6.504   1.956
 4680TIP3    H113981   3.907   6.551   1.881
 4680TIP3    H213982   4.044   6.521   1.935
 4681TIP3   OH213983   3.017   4.774   2.490
 4681TIP3    H113984   2.998   4.736   2.402
 4681TIP3    H213985   3.024   4.695   2.546
 4682TIP3   OH213986   2.570   6.003   1.869
 4682TIP3    H113987   2.488   6.027   1.914
 4682TIP3    H213988   2.550   6.034   1.778
 4683TIP3   OH213989   2.720   6.530   2.935
 4683TIP3    H113990   2.806   6.529   2.981
 4683TIP3    H213991   2.699   6.435   2.934
 4684TIP3   OH213992   3.205   6.501   2.977
 4684TIP3    H113993   3.299   6.477   2.987
 4684TIP3    H213994   3.179   6.441   2.905
 4685TIP3   OH213995   3.186   6.073   1.110
 4685TIP3    H113996   3.128   6.002   1.146
 4685TIP3    H213997   3.260   6.019   1.077
 4686TIP3   OH213998   3.843   6.402   2.712
 4686TIP3    H113999   3.833   6.333   2.782
 4686TIP3    H214000   3.921   6.453   2.744
 4687TIP3   OH214001   3.623   6.115   1.019
 4687TIP3    H114002   3.665   6.049   1.078
 4687TIP3    H214003   3.680   6.113   0.940
 4688TIP3   OH214004   2.853   5.938   3.135
 4688TIP3    H114005   2.869   5.842   3.142
 4688TIP3    H214006   2.765   5.940   3.091
 4689TIP3   OH214007   2.829   5.592   1.328
 4689TIP3    H114008   2.882   5.555   1.400
 4689TIP3    H214009   2.897   5.596   1.257
 4690TIP3   OH214010   3.460   6.023   2.909
 4690TIP3    H114011   3.419   6.036   2.821
 4690TIP3    H214012   3.491   5.930   2.904
 4691TIP3   OH214013   3.338   5.789   1.134
 4691TIP3    H114014   3.340   5.800   1.231
 4691TIP3    H214015   3.338   5.691   1.128
 4692TIP3   OH214016   3.953   6.029   2.515
 4692TIP3    H114017   4.027   6.076   2.472
 4692TIP3    H214018   3.880   6.092   2.502
 4693TIP3   OH214019   2.972   5.672   3.115
 4693TIP3    H114020   3.045   5.611   3.097
 4693TIP3    H214021   2.997   5.705   3.204
 4694TIP3   OH214022   3.041   5.493   1.553
 4694TIP3    H114023   3.011   5.450   1.635
 4694TIP3    H214024   3.075   5.417   1.501
 4695TIP3   OH214025   3.305   5.558   2.780
 4695TIP3    H114026   3.228   5.617   2.781
 4695TIP3    H214027   3.356   5.591   2.702
 4696TIP3   OH214028   3.136   5.286   1.392
 4696TIP3    H114029   3.111   5.288   1.297
 4696TIP3    H214030   3.234   5.290   1.385
 4697TIP3   OH214031   3.824   5.961   2.914
 4697TIP3    H114032   3.904   5.936   2.866
 4697TIP3    H214033   3.820   5.892   2.983
 4698TIP3   OH214034   3.962   5.619   1.052
 4698TIP3    H114035   3.939   5.571   0.970
 4698TIP3    H214036   3.927   5.708   1.028
 4699TIP3   OH214037   3.430   5.345   2.906
 4699TIP3    H114038   3.430   5.264   2.851
 4699TIP3    H214039   3.385   5.410   2.848
 4700TIP3   OH214040   3.433   5.136   2.712
 4700TIP3    H114041   3.460   5.169   2.625
 4700TIP3    H214042   3.340   5.110   2.695
 4701TIP3   OH214043   3.461   5.669   2.587
 4701TIP3    H114044   3.543   5.672   2.535
 4701TIP3    H214045   3.405   5.735   2.541
 4702TIP3   OH214046   4.042   5.635   2.967
 4702TIP3    H114047   4.090   5.551   2.979
 4702TIP3    H214048   4.112   5.693   2.934
 4703TIP3   OH214049   4.084   5.887   2.704
 4703TIP3    H114050   4.025   5.939   2.644
 4703TIP3    H214051   4.171   5.907   2.663
 4704TIP3   OH214052   3.305   5.461   3.134
 4704TIP3    H114053   3.238   5.391   3.149
 4704TIP3    H214054   3.341   5.434   3.047
 4705TIP3   OH214055   3.564   4.899   2.777
 4705TIP3    H114056   3.512   4.979   2.756
 4705TIP3    H214057   3.502   4.828   2.752
 4706TIP3   OH214058   3.690   5.402   2.995
 4706TIP3    H114059   3.679   5.388   3.091
 4706TIP3    H214060   3.600   5.376   2.965
 4707TIP3   OH214061   3.930   5.350   2.851
 4707TIP3    H114062   3.855   5.350   2.913
 4707TIP3    H214063   4.003   5.318   2.907
 4708TIP3   OH214064   4.161   5.289   3.000
 4708TIP3    H114065   4.172   5.194   3.020
 4708TIP3    H214066   4.156   5.329   3.090
 4709TIP3   OH214067   3.147   5.241   3.187
 4709TIP3    H114068   3.150   5.149   3.153
 4709TIP3    H214069   3.183   5.227   3.277
 4710TIP3   OH214070   3.660   4.906   3.035
 4710TIP3    H114071   3.726   4.834   3.029
 4710TIP3    H214072   3.618   4.898   2.947
 4711TIP3   OH214073   3.727   5.121   3.194
 4711TIP3    H114074   3.705   5.050   3.131
 4711TIP3    H214075   3.648   5.179   3.188
 4712TIP3   OH214076   2.944   6.352   1.296
 4712TIP3    H114077   3.039   6.348   1.275
 4712TIP3    H214078   2.912   6.397   1.216
 4713TIP3   OH214079   2.425   5.731   1.514
 4713TIP3    H114080   2.520   5.752   1.498
 4713TIP3    H214081   2.419   5.642   1.473
 4714TIP3   OH214082   2.469   6.230   2.107
 4714TIP3    H114083   2.449   6.142   2.143
 4714TIP3    H214084   2.526   6.266   2.177
 4715TIP3   OH214085   4.203   6.594   1.911
 4715TIP3    H114086   4.226   6.626   2.001
 4715TIP3    H214087   4.261   6.647   1.855
 4716TIP3   OH214088   4.234   6.614   2.191
 4716TIP3    H114089   4.189   6.527   2.189
 4716TIP3    H214090   4.304   6.595   2.254
 4717TIP3   OH214091   4.278   6.292   2.766
 4717TIP3    H114092   4.205   6.301   2.830
 4717TIP3    H214093   4.320   6.380   2.771
 4718TIP3   OH214094   4.094   5.806   1.388
 4718TIP3    H114095   4.164   5.868   1.360
 4718TIP3    H214096   4.136   5.766   1.468
 4719TIP3   OH214097   4.221   5.674   1.592
 4719TIP3    H114098   4.155   5.630   1.650
 4719TIP3    H214099   4.285   5.711   1.657
 4720TIP3   OH214100   4.276   6.065   2.024
 4720TIP3    H114101   4.328   5.998   1.974
 4720TIP3    H214102   4.264   6.135   1.958
 4721TIP3   OH214103   4.109   6.366   2.217
 4721TIP3    H114104   4.038   6.406   2.271
 4721TIP3    H214105   4.058   6.317   2.149
 4722TIP3   OH214106   4.161   5.581   1.238
 4722TIP3    H114107   4.090   5.583   1.170
 4722TIP3    H214108   4.132   5.656   1.294
 4723TIP3   OH214109   4.032   5.254   1.192
 4723TIP3    H114110   3.988   5.290   1.114
 4723TIP3    H214111   4.007   5.159   1.186
 4724TIP3   OH214112   4.038   5.528   1.738
 4724TIP3    H114113   4.044   5.432   1.731
 4724TIP3    H214114   4.023   5.541   1.835
 4725TIP3   OH214115   2.662   5.605   2.483
 4725TIP3    H114116   2.662   5.573   2.390
 4725TIP3    H214117   2.759   5.605   2.501
 4726TIP3   OH214118   4.326   5.954   2.594
 4726TIP3    H114119   4.398   5.888   2.586
 4726TIP3    H214120   4.355   6.023   2.532
 4727TIP3   OH214121   4.512   5.760   2.613
 4727TIP3    H114122   4.438   5.710   2.651
 4727TIP3    H214123   4.585   5.696   2.627
 4728TIP3   OH214124   3.974   4.989   1.180
 4728TIP3    H114125   4.050   4.957   1.233
 4728TIP3    H214126   3.902   4.928   1.204
 4729TIP3   OH214127   4.033   5.244   1.633
 4729TIP3    H114128   4.071   5.155   1.650
 4729TIP3    H214129   4.093   5.275   1.563
 4730TIP3   OH214130   4.195   5.421   2.127
 4730TIP3    H114131   4.281   5.447   2.088
 4730TIP3    H214132   4.208   5.456   2.218
 4731TIP3   OH214133   4.263   5.562   2.360
 4731TIP3    H114134   4.184   5.596   2.408
 4731TIP3    H214135   4.295   5.643   2.316
 4732TIP3   OH214136   2.881   5.292   3.161
 4732TIP3    H114137   2.979   5.283   3.160
 4732TIP3    H214138   2.856   5.206   3.200
 4733TIP3   OH214139   4.716   5.153   2.916
 4733TIP3    H114140   4.775   5.088   2.873
 4733TIP3    H214141   4.687   5.208   2.840
 4734TIP3   OH214142   4.141   4.994   1.670
 4734TIP3    H114143   4.190   4.979   1.754
 4734TIP3    H214144   4.080   4.917   1.670
 4735TIP3   OH214145   2.839   4.983   2.492
 4735TIP3    H114146   2.898   4.905   2.501
 4735TIP3    H214147   2.905   5.054   2.484
 4736TIP3   OH214148   2.643   5.257   2.561
 4736TIP3    H114149   2.694   5.246   2.478
 4736TIP3    H214150   2.679   5.340   2.595
 4737TIP3   OH214151   4.588   5.295   2.722
 4737TIP3    H114152   4.501   5.334   2.744
 4737TIP3    H214153   4.558   5.222   2.663
 4738TIP3   OH214154   4.223   4.931   1.301
 4738TIP3    H114155   4.263   4.857   1.251
 4738TIP3    H214156   4.293   4.999   1.295
 4739TIP3   OH214157   2.627   4.760   2.064
 4739TIP3    H114158   2.533   4.757   2.089
 4739TIP3    H214159   2.626   4.818   1.985
 4740TIP3   OH214160   3.787   6.462   1.569
 4740TIP3    H114161   3.837   6.447   1.486
 4740TIP3    H214162   3.843   6.527   1.614
 4741TIP3   OH214163   2.846   4.850   2.882
 4741TIP3    H114164   2.794   4.835   2.962
 4741TIP3    H214165   2.777   4.876   2.818
 4742TIP3   OH214166   2.887   6.269   2.957
 4742TIP3    H114167   2.797   6.236   2.938
 4742TIP3    H214168   2.899   6.244   3.049
 4743TIP3   OH214169   3.064   6.296   2.502
 4743TIP3    H114170   3.018   6.373   2.462
 4743TIP3    H214171   3.151   6.309   2.460
 4744TIP3   OH214172   3.512   6.544   2.641
 4744TIP3    H114173   3.554   6.544   2.730
 4744TIP3    H214174   3.579   6.594   2.590
 4745TIP3   OH214175   3.691   6.694   2.498
 4745TIP3    H114176   3.762   6.642   2.458
 4745TIP3    H214177   3.742   6.751   2.560
 4746TIP3   OH214178   4.485   5.057   2.599
 4746TIP3    H114179   4.393   5.050   2.566
 4746TIP3    H214180   4.515   4.963   2.589
 4747TIP3   OH214181   2.741   6.559   2.522
 4747TIP3    H114182   2.651   6.594   2.505
 4747TIP3    H214183   2.753   6.584   2.614
 4748TIP3   OH214184   2.980   6.535   2.385
 4748TIP3    H114185   2.893   6.548   2.429
 4748TIP3    H214186   2.961   6.566   2.294
 4749TIP3   OH214187   3.405   6.564   2.181
 4749TIP3    H114188   3.337   6.585   2.115
 4749TIP3    H214189   3.418   6.650   2.225
 4750TIP3   OH214190   3.673   6.503   2.232
 4750TIP3    H114191   3.579   6.519   2.212
 4750TIP3    H214192   3.716   6.580   2.193
 4751TIP3   OH214193   3.882   6.695   2.149
 4751TIP3    H114194   3.869   6.779   2.100
 4751TIP3    H214195   3.907   6.633   2.077
 4752TIP3   OH214196   2.659   6.350   2.280
 4752TIP3    H114197   2.687   6.322   2.370
 4752TIP3    H214198   2.726   6.301   2.227
 4753TIP3   OH214199   2.845   6.221   2.128
 4753TIP3    H114200   2.861   6.136   2.174
 4753TIP3    H214201   2.937   6.255   2.121
 4754TIP3   OH214202   3.114   6.316   2.130
 4754TIP3    H114203   3.144   6.225   2.116
 4754TIP3    H214204   3.158   6.335   2.215
 4755TIP3   OH214205   3.687   4.971   2.215
 4755TIP3    H114206   3.643   4.906   2.273
 4755TIP3    H214207   3.759   4.919   2.176
 4756TIP3   OH214208   4.215   4.852   2.125
 4756TIP3    H114209   4.250   4.904   2.049
 4756TIP3    H214210   4.119   4.867   2.117
 4757TIP3   OH214211   4.308   4.954   1.887
 4757TIP3    H114212   4.381   4.902   1.847
 4757TIP3    H214213   4.341   5.046   1.872
 4758TIP3   OH214214   2.940   4.680   2.231
 4758TIP3    H114215   2.848   4.647   2.237
 4758TIP3    H214216   2.990   4.595   2.232
 4759TIP3   OH214217   2.722   4.549   1.881
 4759TIP3    H114218   2.754   4.607   1.809
 4759TIP3    H214219   2.696   4.614   1.949
 4760TIP3   OH214220   3.379   4.714   2.115
 4760TIP3    H114221   3.442   4.765   2.061
 4760TIP3    H214222   3.393   4.752   2.203
 4761TIP3   OH214223   3.934   4.859   2.098
 4761TIP3    H114224   3.926   4.821   2.010
 4761TIP3    H214225   3.917   4.780   2.155
 4762TIP3   OH214226   3.958   4.780   1.660
 4762TIP3    H114227   3.870   4.821   1.672
 4762TIP3    H214228   3.945   4.696   1.709
 4763TIP3   OH214229   2.444   6.120   1.661
 4763TIP3    H114230   2.359   6.082   1.632
 4763TIP3    H214231   2.431   6.211   1.630
 4764TIP3   OH214232   2.840   4.709   1.646
 4764TIP3    H114233   2.889   4.646   1.589
 4764TIP3    H214234   2.914   4.763   1.682
 4765TIP3   OH214235   3.355   4.884   1.745
 4765TIP3    H114236   3.412   4.836   1.805
 4765TIP3    H214237   3.378   4.976   1.771
 4766TIP3   OH214238   3.214   6.312   1.244
 4766TIP3    H114239   3.302   6.333   1.208
 4766TIP3    H214240   3.191   6.237   1.185
 4767TIP3   OH214241   3.933   6.427   1.337
 4767TIP3    H114242   3.925   6.329   1.326
 4767TIP3    H214243   3.887   6.458   1.256
 4768TIP3   OH214244   3.145   4.967   3.129
 4768TIP3    H114245   3.111   4.892   3.182
 4768TIP3    H214246   3.240   4.964   3.154
 4769TIP3   OH214247   3.396   4.959   3.246
 4769TIP3    H114248   3.479   4.932   3.205
 4769TIP3    H214249   3.383   4.889   3.313
 4770TIP3   OH214250   2.519   6.146   1.304
 4770TIP3    H114251   2.523   6.171   1.397
 4770TIP3    H214252   2.607   6.103   1.290
 4771TIP3   OH214253   4.220   5.018   3.033
 4771TIP3    H114254   4.238   4.987   3.124
 4771TIP3    H214255   4.309   5.013   2.992
 4772TIP3   OH214256   4.162   6.574   2.522
 4772TIP3    H114257   4.081   6.541   2.477
 4772TIP3    H214258   4.140   6.669   2.528
 4773TIP3   OH214259   5.425   5.945   1.293
 4773TIP3    H114260   5.396   6.035   1.271
 4773TIP3    H214261   5.350   5.893   1.258
 4774TIP3   OH214262   5.416   5.946   1.675
 4774TIP3    H114263   5.453   5.914   1.759
 4774TIP3    H214264   5.382   5.864   1.636
 4775TIP3   OH214265   4.724   5.840   2.036
 4775TIP3    H114266   4.751   5.771   2.098
 4775TIP3    H214267   4.804   5.894   2.033
 4776TIP3   OH214268   5.664   6.248   1.353
 4776TIP3    H114269   5.655   6.174   1.414
 4776TIP3    H214270   5.698   6.318   1.411
 4777TIP3   OH214271   4.696   6.246   1.756
 4777TIP3    H114272   4.678   6.150   1.757
 4777TIP3    H214273   4.787   6.246   1.789
 4778TIP3   OH214274   4.402   5.455   1.548
 4778TIP3    H114275   4.351   5.537   1.561
 4778TIP3    H214276   4.333   5.396   1.515
 4779TIP3   OH214277   4.464   5.741   1.718
 4779TIP3    H114278   4.509   5.662   1.756
 4779TIP3    H214279   4.518   5.759   1.640
 4780TIP3   OH214280   5.309   6.699   1.375
 4780TIP3    H114281   5.351   6.631   1.319
 4780TIP3    H214282   5.351   6.683   1.460
 4781TIP3   OH214283   5.229   6.176   1.718
 4781TIP3    H114284   5.257   6.093   1.676
 4781TIP3    H214285   5.319   6.208   1.745
 4782TIP3   OH214286   6.234   5.491   1.718
 4782TIP3    H114287   6.265   5.573   1.762
 4782TIP3    H214288   6.254   5.511   1.625
 4783TIP3   OH214289   5.635   5.674   1.753
 4783TIP3    H114290   5.677   5.588   1.775
 4783TIP3    H214291   5.605   5.656   1.662
 4784TIP3   OH214292   4.971   5.331   1.719
 4784TIP3    H114293   4.951   5.403   1.655
 4784TIP3    H214294   4.925   5.256   1.674
 4785TIP3   OH214295   5.666   5.424   1.341
 4785TIP3    H114296   5.738   5.405   1.406
 4785TIP3    H214297   5.719   5.456   1.267
 4786TIP3   OH214298   4.607   5.533   1.823
 4786TIP3    H114299   4.689   5.513   1.872
 4786TIP3    H214300   4.619   5.476   1.745
 4787TIP3   OH214301   5.048   5.731   1.617
 4787TIP3    H114302   5.142   5.705   1.630
 4787TIP3    H214303   5.008   5.647   1.586
 4788TIP3   OH214304   6.310   5.698   1.887
 4788TIP3    H114305   6.225   5.745   1.869
 4788TIP3    H214306   6.321   5.720   1.981
 4789TIP3   OH214307   4.970   5.315   2.152
 4789TIP3    H114308   4.908   5.350   2.086
 4789TIP3    H214309   4.919   5.331   2.234
 4790TIP3   OH214310   5.319   6.167   1.162
 4790TIP3    H114311   5.274   6.141   1.080
 4790TIP3    H214312   5.271   6.248   1.186
 4791TIP3   OH214313   5.077   6.088   1.948
 4791TIP3    H114314   5.012   6.149   1.990
 4791TIP3    H214315   5.124   6.146   1.886
 4792TIP3   OH214316   5.878   5.423   1.510
 4792TIP3    H114317   5.871   5.370   1.591
 4792TIP3    H214318   5.933   5.498   1.540
 4793TIP3   OH214319   4.839   5.430   1.937
 4793TIP3    H114320   4.903   5.500   1.961
 4793TIP3    H214321   4.887   5.388   1.862
 4794TIP3   OH214322   4.898   6.277   2.039
 4794TIP3    H114323   4.871   6.367   2.009
 4794TIP3    H214324   4.824   6.258   2.101
 4795TIP3   OH214325   4.300   5.972   1.281
 4795TIP3    H114326   4.257   5.999   1.198
 4795TIP3    H214327   4.330   6.057   1.318
 4796TIP3   OH214328   5.727   6.489   1.527
 4796TIP3    H114329   5.634   6.482   1.557
 4796TIP3    H214330   5.727   6.574   1.479
 4797TIP3   OH214331   6.027   5.392   1.885
 4797TIP3    H114332   5.939   5.419   1.853
 4797TIP3    H214333   6.086   5.422   1.813
 4798TIP3   OH214334   5.327   5.034   1.865
 4798TIP3    H114335   5.314   4.939   1.882
 4798TIP3    H214336   5.249   5.071   1.912
 4799TIP3   OH214337   5.436   6.533   1.196
 4799TIP3    H114338   5.487   6.452   1.176
 4799TIP3    H214339   5.497   6.600   1.158
 4800TIP3   OH214340   5.583   6.322   1.101
 4800TIP3    H114341   5.545   6.242   1.061
 4800TIP3    H214342   5.618   6.286   1.185
 4801TIP3   OH214343   5.963   6.402   1.865
 4801TIP3    H114344   5.954   6.324   1.806
 4801TIP3    H214345   5.949   6.477   1.803
 4802TIP3   OH214346   5.255   5.799   1.124
 4802TIP3    H114347   5.175   5.847   1.096
 4802TIP3    H214348   5.303   5.788   1.039
 4803TIP3   OH214349   5.213   5.580   0.840
 4803TIP3    H114350   5.283   5.630   0.886
 4803TIP3    H214351   5.269   5.515   0.792
 4804TIP3   OH214352   6.159   6.038   1.708
 4804TIP3    H114353   6.076   6.090   1.715
 4804TIP3    H214354   6.188   6.063   1.618
 4805TIP3   OH214355   5.605   5.880   1.095
 4805TIP3    H114356   5.550   5.902   1.174
 4805TIP3    H214357   5.688   5.852   1.138
 4806TIP3   OH214358   5.839   5.919   2.004
 4806TIP3    H114359   5.836   6.001   2.057
 4806TIP3    H214360   5.752   5.923   1.959
 4807TIP3   OH214361   4.837   5.878   1.510
 4807TIP3    H114362   4.793   5.820   1.444
 4807TIP3    H214363   4.912   5.822   1.539
 4808TIP3   OH214364   5.021   6.337   1.654
 4808TIP3    H114365   4.952   6.298   1.596
 4808TIP3    H214366   5.075   6.257   1.673
 4809TIP3   OH214367   4.973   5.845   1.865
 4809TIP3    H114368   5.005   5.821   1.776
 4809TIP3    H214369   5.018   5.930   1.883
 4810TIP3   OH214370   5.468   6.486   1.644
 4810TIP3    H114371   5.492   6.565   1.696
 4810TIP3    H214372   5.484   6.413   1.707
 4811TIP3   OH214373   5.107   6.409   2.180
 4811TIP3    H114374   5.052   6.466   2.237
 4811TIP3    H214375   5.040   6.350   2.143
 4812TIP3   OH214376   5.440   5.736   0.928
 4812TIP3    H114377   5.502   5.795   0.975
 4812TIP3    H214378   5.462   5.755   0.833
 4813TIP3   OH214379   4.862   5.966   2.284
 4813TIP3    H114380   4.866   6.049   2.336
 4813TIP3    H214381   4.768   5.942   2.298
 4814TIP3   OH214382   5.180   6.425   1.211
 4814TIP3    H114383   5.265   6.472   1.211
 4814TIP3    H214384   5.126   6.477   1.149
 4815TIP3   OH214385   4.898   6.570   2.274
 4815TIP3    H114386   4.848   6.558   2.192
 4815TIP3    H214387   4.827   6.554   2.340
 4816TIP3   OH214388   5.961   4.979   0.969
 4816TIP3    H114389   5.878   4.999   1.017
 4816TIP3    H214390   5.973   5.061   0.917
 4817TIP3   OH214391   4.699   5.721   1.320
 4817TIP3    H114392   4.634   5.761   1.259
 4817TIP3    H214393   4.665   5.631   1.329
 4818TIP3   OH214394   4.484   6.103   2.221
 4818TIP3    H114395   4.417   6.078   2.155
 4818TIP3    H214396   4.521   6.016   2.248
 4819TIP3   OH214397   4.335   6.299   1.851
 4819TIP3    H114398   4.431   6.291   1.852
 4819TIP3    H214399   4.320   6.375   1.909
 4820TIP3   OH214400   6.202   6.744   1.909
 4820TIP3    H114401   6.200   6.648   1.927
 4820TIP3    H214402   6.119   6.771   1.956
 4821TIP3   OH214403   5.313   6.531   2.045
 4821TIP3    H114404   5.310   6.625   2.073
 4821TIP3    H214405   5.239   6.493   2.098
 4822TIP3   OH214406   5.067   6.660   0.997
 4822TIP3    H114407   5.023   6.641   0.912
 4822TIP3    H214408   5.034   6.748   1.019
 4823TIP3   OH214409   4.506   6.513   1.381
 4823TIP3    H114410   4.550   6.500   1.467
 4823TIP3    H214411   4.448   6.434   1.380
 4824TIP3   OH214412   5.264   6.554   0.652
 4824TIP3    H114413   5.322   6.482   0.619
 4824TIP3    H214414   5.302   6.570   0.741
 4825TIP3   OH214415   5.321   6.613   0.915
 4825TIP3    H114416   5.230   6.619   0.953
 4825TIP3    H214417   5.370   6.569   0.987
 4826TIP3   OH214418   6.092   5.878   2.185
 4826TIP3    H114419   6.010   5.889   2.134
 4826TIP3    H214420   6.108   5.782   2.175
 4827TIP3   OH214421   4.688   6.285   2.211
 4827TIP3    H114422   4.737   6.270   2.295
 4827TIP3    H214423   4.615   6.221   2.220
 4828TIP3   OH214424   5.088   5.109   1.993
 4828TIP3    H114425   4.999   5.078   1.967
 4828TIP3    H214426   5.062   5.191   2.040
 4829TIP3   OH214427   5.621   5.226   2.189
 4829TIP3    H114428   5.689   5.196   2.253
 4829TIP3    H214429   5.537   5.205   2.234
 4830TIP3   OH214430   5.861   5.654   2.108
 4830TIP3    H114431   5.811   5.649   2.192
 4830TIP3    H214432   5.836   5.741   2.073
 4831TIP3   OH214433   5.500   5.787   0.673
 4831TIP3    H114434   5.481   5.761   0.581
 4831TIP3    H214435   5.578   5.844   0.657
 4832TIP3   OH214436   5.231   5.161   0.966
 4832TIP3    H114437   5.199   5.154   1.058
 4832TIP3    H214438   5.196   5.077   0.930
 4833TIP3   OH214439   5.019   5.624   2.015
 4833TIP3    H114440   4.968   5.646   2.096
 4833TIP3    H214441   5.003   5.704   1.960
 4834TIP3   OH214442   4.902   5.513   1.528
 4834TIP3    H114443   4.810   5.484   1.545
 4834TIP3    H214444   4.916   5.472   1.439
 4835TIP3   OH214445   5.395   5.598   1.255
 4835TIP3    H114446   5.342   5.668   1.212
 4835TIP3    H214447   5.449   5.565   1.180
 4836TIP3   OH214448   5.567   5.877   2.342
 4836TIP3    H114449   5.547   5.803   2.404
 4836TIP3    H214450   5.661   5.891   2.363
 4837TIP3   OH214451   5.551   5.627   1.493
 4837TIP3    H114452   5.491   5.653   1.421
 4837TIP3    H214453   5.586   5.545   1.453
 4838TIP3   OH214454   4.836   5.654   2.222
 4838TIP3    H114455   4.865   5.715   2.292
 4838TIP3    H214456   4.826   5.570   2.272
 4839TIP3   OH214457   4.887   5.130   0.931
 4839TIP3    H114458   4.883   5.127   1.029
 4839TIP3    H214459   4.806   5.180   0.910
 4840TIP3   OH214460   4.431   5.179   1.801
 4840TIP3    H114461   4.508   5.207   1.854
 4840TIP3    H214462   4.470   5.141   1.721
 4841TIP3   OH214463   4.407   5.157   1.323
 4841TIP3    H114464   4.454   5.194   1.245
 4841TIP3    H214465   4.346   5.230   1.342
 4842TIP3   OH214466   5.559   5.873   1.917
 4842TIP3    H114467   5.594   5.800   1.859
 4842TIP3    H214468   5.532   5.820   1.995
 4843TIP3   OH214469   5.230   5.340   1.590
 4843TIP3    H114470   5.147   5.332   1.641
 4843TIP3    H214471   5.297   5.330   1.659
 4844TIP3   OH214472   4.665   5.387   1.598
 4844TIP3    H114473   4.570   5.394   1.570
 4844TIP3    H214474   4.688   5.295   1.575
 4845TIP3   OH214475   4.934   5.389   1.285
 4845TIP3    H114476   5.029   5.397   1.264
 4845TIP3    H214477   4.890   5.408   1.200
 4846TIP3   OH214478   5.721   5.410   1.790
 4846TIP3    H114479   5.686   5.421   1.882
 4846TIP3    H214480   5.658   5.346   1.754
 4847TIP3   OH214481   4.772   5.421   1.065
 4847TIP3    H114482   4.699   5.376   1.018
 4847TIP3    H214483   4.824   5.454   0.989
 4848TIP3   OH214484   5.890   7.097   2.009
 4848TIP3    H114485   5.889   7.124   1.915
 4848TIP3    H214486   5.968   7.147   2.042
 4849TIP3   OH214487   4.851   6.211   2.431
 4849TIP3    H114488   4.930   6.237   2.482
 4849TIP3    H214489   4.785   6.206   2.504
 4850TIP3   OH214490   5.313   5.662   1.687
 4850TIP3    H114491   5.383   5.619   1.635
 4850TIP3    H214492   5.322   5.618   1.774
 4851TIP3   OH214493   4.838   5.150   1.562
 4851TIP3    H114494   4.804   5.071   1.609
 4851TIP3    H214495   4.892   5.110   1.493
 4852TIP3   OH214496   5.291   5.557   1.975
 4852TIP3    H114497   5.201   5.593   1.990
 4852TIP3    H214498   5.348   5.617   2.027
 4853TIP3   OH214499   5.024   5.952   1.070
 4853TIP3    H114500   4.954   5.883   1.060
 4853TIP3    H214501   5.006   5.983   1.162
 4854TIP3   OH214502   5.928   6.186   1.701
 4854TIP3    H114503   5.952   6.234   1.619
 4854TIP3    H214504   5.844   6.142   1.676
 4855TIP3   OH214505   5.485   5.260   0.935
 4855TIP3    H114506   5.388   5.243   0.940
 4855TIP3    H214507   5.493   5.355   0.956
 4856TIP3   OH214508   5.422   6.266   2.067
 4856TIP3    H114509   5.452   6.239   2.155
 4856TIP3    H214510   5.391   6.357   2.082
 4857TIP3   OH214511   5.555   5.508   1.039
 4857TIP3    H114512   5.652   5.511   1.052
 4857TIP3    H214513   5.538   5.586   0.983
 4858TIP3   OH214514   4.723   5.975   1.748
 4858TIP3    H114515   4.757   5.940   1.663
 4858TIP3    H214516   4.754   5.908   1.811
 4859TIP3   OH214517   5.171   6.099   0.889
 4859TIP3    H114518   5.126   6.186   0.899
 4859TIP3    H214519   5.117   6.044   0.949
 4860TIP3   OH214520   4.599   5.893   2.360
 4860TIP3    H114521   4.620   5.878   2.455
 4860TIP3    H214522   4.531   5.825   2.344
 4861TIP3   OH214523   5.325   6.005   2.378
 4861TIP3    H114524   5.266   5.943   2.332
 4861TIP3    H214525   5.413   5.970   2.352
 4862TIP3   OH214526   5.583   6.530   1.957
 4862TIP3    H114527   5.488   6.526   1.980
 4862TIP3    H214528   5.618   6.577   2.036
 4863TIP3   OH214529   5.996   5.597   0.873
 4863TIP3    H114530   5.933   5.552   0.812
 4863TIP3    H214531   5.995   5.685   0.829
 4864TIP3   OH214532   6.214   6.453   1.955
 4864TIP3    H114533   6.116   6.449   1.947
 4864TIP3    H214534   6.239   6.424   1.864
 4865TIP3   OH214535   5.691   6.400   0.775
 4865TIP3    H114536   5.668   6.355   0.858
 4865TIP3    H214537   5.703   6.326   0.716
 4866TIP3   OH214538   5.692   6.047   1.620
 4866TIP3    H114539   5.600   6.020   1.633
 4866TIP3    H214540   5.728   5.967   1.575
 4867TIP3   OH214541   4.819   6.282   1.384
 4867TIP3    H114542   4.818   6.355   1.319
 4867TIP3    H214543   4.728   6.250   1.379
 4868TIP3   OH214544   4.380   5.579   1.071
 4868TIP3    H114545   4.428   5.661   1.094
 4868TIP3    H214546   4.305   5.582   1.135
 4869TIP3   OH214547   4.959   6.044   1.317
 4869TIP3    H114548   4.926   6.132   1.342
 4869TIP3    H214549   4.925   5.988   1.390
 4870TIP3   OH214550   4.742   6.514   1.228
 4870TIP3    H114551   4.655   6.523   1.271
 4870TIP3    H214552   4.772   6.607   1.226
 4871TIP3   OH214553   5.480   6.252   1.799
 4871TIP3    H114554   5.471   6.250   1.897
 4871TIP3    H214555   5.559   6.198   1.787
 4872TIP3   OH214556   5.446   6.140   0.697
 4872TIP3    H114557   5.498   6.113   0.776
 4872TIP3    H214558   5.356   6.115   0.725
 4873TIP3   OH214559   5.727   6.785   1.850
 4873TIP3    H114560   5.647   6.729   1.845
 4873TIP3    H214561   5.710   6.851   1.779
 4874TIP3   OH214562   4.811   5.397   2.369
 4874TIP3    H114563   4.715   5.401   2.383
 4874TIP3    H214564   4.839   5.336   2.439
 4875TIP3   OH214565   5.614   6.082   0.906
 4875TIP3    H114566   5.602   6.013   0.975
 4875TIP3    H214567   5.710   6.073   0.889
 4876TIP3   OH214568   4.533   6.480   1.999
 4876TIP3    H114569   4.577   6.403   2.039
 4876TIP3    H214570   4.545   6.546   2.068
 4877TIP3   OH214571   4.813   6.124   0.681
 4877TIP3    H114572   4.834   6.033   0.651
 4877TIP3    H214573   4.796   6.110   0.776
 4878TIP3   OH214574   4.763   6.128   0.956
 4878TIP3    H114575   4.838   6.100   1.010
 4878TIP3    H214576   4.769   6.226   0.963
 4879TIP3   OH214577   4.500   5.824   1.156
 4879TIP3    H114578   4.434   5.868   1.214
 4879TIP3    H214579   4.515   5.894   1.090
 4880TIP3   OH214580   5.646   5.462   2.050
 4880TIP3    H114581   5.727   5.498   2.089
 4880TIP3    H214582   5.631   5.381   2.104
 4881TIP3   OH214583   5.523   5.215   1.215
 4881TIP3    H114584   5.512   5.234   1.119
 4881TIP3    H214585   5.563   5.298   1.248
 4882TIP3   OH214586   5.035   6.332   0.913
 4882TIP3    H114587   4.945   6.361   0.940
 4882TIP3    H214588   5.040   6.370   0.824
 4883TIP3   OH214589   5.217   5.393   1.317
 4883TIP3    H114590   5.284   5.463   1.300
 4883TIP3    H214591   5.223   5.385   1.415
 4884TIP3   OH214592   5.488   5.713   2.124
 4884TIP3    H114593   5.507   5.764   2.205
 4884TIP3    H214594   5.541   5.632   2.138
 4885TIP3   OH214595   5.361   5.123   1.421
 4885TIP3    H114596   5.359   5.200   1.480
 4885TIP3    H214597   5.421   5.156   1.349
 4886TIP3   OH214598   4.772   6.400   0.973
 4886TIP3    H114599   4.745   6.471   0.910
 4886TIP3    H214600   4.758   6.445   1.059
 4887TIP3   OH214601   4.872   5.117   1.208
 4887TIP3    H114602   4.873   5.206   1.247
 4887TIP3    H214603   4.967   5.093   1.216
 4888TIP3   OH214604   6.128   5.611   2.102
 4888TIP3    H114605   6.031   5.609   2.112
 4888TIP3    H214606   6.137   5.566   2.017
 4889TIP3   OH214607   5.778   5.807   1.493
 4889TIP3    H114608   5.703   5.745   1.504
 4889TIP3    H214609   5.850   5.759   1.540
 4890TIP3   OH214610   4.490   6.035   0.961
 4890TIP3    H114611   4.556   6.106   0.971
 4890TIP3    H214612   4.537   5.980   0.895
 4891TIP3   OH214613   4.436   5.310   1.097
 4891TIP3    H114614   4.432   5.408   1.090
 4891TIP3    H214615   4.353   5.284   1.056
 4892TIP3   OH214616   5.746   6.755   1.440
 4892TIP3    H114617   5.704   6.806   1.367
 4892TIP3    H214618   5.840   6.777   1.422
 4893TIP3   OH214619   4.821   5.030   1.971
 4893TIP3    H114620   4.792   4.996   1.884
 4893TIP3    H214621   4.812   4.952   2.029
 4894TIP3   OH214622   4.366   6.253   1.353
 4894TIP3    H114623   4.290   6.279   1.406
 4894TIP3    H214624   4.339   6.287   1.265
 4895TIP3   OH214625   4.517   6.788   2.421
 4895TIP3    H114626   4.603   6.789   2.470
 4895TIP3    H214627   4.496   6.693   2.423
 4896TIP3   OH214628   5.000   6.757   2.464
 4896TIP3    H114629   5.094   6.739   2.478
 4896TIP3    H214630   4.980   6.697   2.390
 4897TIP3   OH214631   4.988   6.330   0.622
 4897TIP3    H114632   4.925   6.256   0.636
 4897TIP3    H214633   5.042   6.294   0.550
 4898TIP3   OH214634   5.643   6.654   2.195
 4898TIP3    H114635   5.631   6.589   2.268
 4898TIP3    H214636   5.717   6.709   2.229
 4899TIP3   OH214637   5.402   6.359   0.524
 4899TIP3    H114638   5.434   6.282   0.573
 4899TIP3    H214639   5.480   6.385   0.470
 4900TIP3   OH214640   4.650   6.194   2.620
 4900TIP3    H114641   4.665   6.098   2.629
 4900TIP3    H214642   4.561   6.196   2.578
 4901TIP3   OH214643   4.625   5.848   0.813
 4901TIP3    H114644   4.677   5.811   0.886
 4901TIP3    H214645   4.695   5.853   0.744
 4902TIP3   OH214646   5.257   6.278   2.394
 4902TIP3    H114647   5.219   6.288   2.305
 4902TIP3    H214648   5.290   6.186   2.392
 4903TIP3   OH214649   5.136   6.043   0.615
 4903TIP3    H114650   5.136   6.059   0.711
 4903TIP3    H214651   5.134   5.945   0.613
 4904TIP3   OH214652   5.747   6.286   2.000
 4904TIP3    H114653   5.824   6.330   1.958
 4904TIP3    H214654   5.679   6.355   1.988
 4905TIP3   OH214655   4.770   5.929   2.602
 4905TIP3    H114656   4.842   5.866   2.587
 4905TIP3    H214657   4.793   5.963   2.691
 4906TIP3   OH214658   4.836   5.749   1.040
 4906TIP3    H114659   4.809   5.704   1.121
 4906TIP3    H214660   4.872   5.675   0.987
 4907TIP3   OH214661   5.101   5.814   2.266
 4907TIP3    H114662   5.025   5.874   2.268
 4907TIP3    H214663   5.152   5.847   2.189
 4908TIP3   OH214664   4.933   5.544   0.879
 4908TIP3    H114665   4.908   5.543   0.784
 4908TIP3    H214666   5.030   5.546   0.873
 4909TIP3   OH214667   5.619   6.216   2.399
 4909TIP3    H114668   5.703   6.195   2.356
 4909TIP3    H214669   5.616   6.149   2.470
 4910TIP3   OH214670   5.726   5.921   0.591
 4910TIP3    H114671   5.767   5.857   0.530
 4910TIP3    H214672   5.721   5.998   0.531
 4911TIP3   OH214673   5.226   5.601   2.393
 4911TIP3    H114674   5.226   5.520   2.338
 4911TIP3    H214675   5.181   5.666   2.334
 4912TIP3   OH214676   5.228   5.389   2.199
 4912TIP3    H114677   5.256   5.428   2.114
 4912TIP3    H214678   5.134   5.365   2.181
 4913TIP3   OH214679   5.257   5.922   2.072
 4913TIP3    H114680   5.341   5.927   2.024
 4913TIP3    H214681   5.202   5.989   2.027
 4914TIP3   OH214682   5.838   5.891   2.453
 4914TIP3    H114683   5.887   5.808   2.467
 4914TIP3    H214684   5.907   5.950   2.422
 4915TIP3   OH214685   5.879   6.143   2.188
 4915TIP3    H114686   5.821   6.196   2.129
 4915TIP3    H214687   5.967   6.164   2.148
 4916TIP3   OH214688   5.101   5.717   2.620
 4916TIP3    H114689   5.034   5.648   2.636
 4916TIP3    H214690   5.137   5.689   2.534
 4917TIP3   OH214691   5.361   5.152   2.264
 4917TIP3    H114692   5.310   5.234   2.243
 4917TIP3    H214693   5.292   5.083   2.254
 4918TIP3   OH214694   5.486   5.658   2.482
 4918TIP3    H114695   5.478   5.645   2.579
 4918TIP3    H214696   5.396   5.632   2.454
 4919TIP3   OH214697   5.725   5.605   2.337
 4919TIP3    H114698   5.651   5.607   2.400
 4919TIP3    H214699   5.800   5.575   2.393
 4920TIP3   OH214700   5.953   5.545   2.487
 4920TIP3    H114701   5.967   5.450   2.507
 4920TIP3    H214702   5.951   5.586   2.576
 4921TIP3   OH214703   4.944   5.496   2.673
 4921TIP3    H114704   4.949   5.405   2.639
 4921TIP3    H214705   4.979   5.484   2.764
 4922TIP3   OH214706   5.456   5.162   2.522
 4922TIP3    H114707   5.523   5.091   2.517
 4922TIP3    H214708   5.416   5.155   2.433
 4923TIP3   OH214709   5.522   5.377   2.683
 4923TIP3    H114710   5.499   5.306   2.618
 4923TIP3    H214711   5.443   5.436   2.676
 4924TIP3   OH214712   4.743   6.610   0.799
 4924TIP3    H114713   4.835   6.605   0.765
 4924TIP3    H214714   4.694   6.632   0.716
 4925TIP3   OH214715   4.221   5.988   0.999
 4925TIP3    H114716   4.316   6.010   0.985
 4925TIP3    H214717   4.216   5.899   0.959
 4926TIP3   OH214718   4.136   6.601   1.411
 4926TIP3    H114719   4.069   6.538   1.376
 4926TIP3    H214720   4.180   6.543   1.478
 4927TIP3   OH214721   4.271   6.454   1.600
 4927TIP3    H114722   4.259   6.378   1.659
 4927TIP3    H214723   4.319   6.514   1.660
 4928TIP3   OH214724   5.997   6.852   1.397
 4928TIP3    H114725   6.023   6.883   1.486
 4928TIP3    H214726   6.060   6.899   1.340
 4929TIP3   OH214727   6.028   6.869   1.677
 4929TIP3    H114728   5.988   6.780   1.677
 4929TIP3    H214729   6.103   6.855   1.736
 4930TIP3   OH214730   6.073   6.548   2.252
 4930TIP3    H114731   6.001   6.557   2.318
 4930TIP3    H214732   6.115   6.636   2.257
 4931TIP3   OH214733   5.892   6.066   0.878
 4931TIP3    H114734   5.963   6.126   0.852
 4931TIP3    H214735   5.931   6.023   0.958
 4932TIP3   OH214736   6.017   5.931   1.079
 4932TIP3    H114737   5.951   5.886   1.136
 4932TIP3    H214738   6.081   5.966   1.143
 4933TIP3   OH214739   6.069   6.320   1.507
 4933TIP3    H114740   6.124   6.256   1.459
 4933TIP3    H214741   6.065   6.395   1.445
 4934TIP3   OH214742   5.905   6.620   1.705
 4934TIP3    H114743   5.836   6.665   1.758
 4934TIP3    H214744   5.852   6.573   1.637
 4935TIP3   OH214745   5.960   5.841   0.728
 4935TIP3    H114746   5.880   5.838   0.673
 4935TIP3    H214747   5.936   5.917   0.784
 4936TIP3   OH214748   5.824   5.519   0.676
 4936TIP3    H114749   5.787   5.539   0.589
 4936TIP3    H214750   5.799   5.425   0.686
 4937TIP3   OH214751   5.834   5.785   1.225
 4937TIP3    H114752   5.840   5.688   1.216
 4937TIP3    H214753   5.820   5.796   1.322
 4938TIP3   OH214754   4.459   5.862   1.969
 4938TIP3    H114755   4.458   5.829   1.876
 4938TIP3    H214756   4.556   5.861   1.988
 4939TIP3   OH214757   6.122   6.210   2.079
 4939TIP3    H114758   6.194   6.144   2.072
 4939TIP3    H214759   6.153   6.281   2.021
 4940TIP3   OH214760   6.307   6.016   2.098
 4940TIP3    H114761   6.234   5.965   2.139
 4940TIP3    H214762   6.381   5.954   2.112
 4941TIP3   OH214763   5.763   5.258   0.690
 4941TIP3    H114764   5.845   5.212   0.714
 4941TIP3    H214765   5.698   5.186   0.684
 4942TIP3   OH214766   5.830   5.502   1.121
 4942TIP3    H114767   5.868   5.412   1.137
 4942TIP3    H214768   5.889   5.530   1.048
 4943TIP3   OH214769   5.991   5.679   1.614
 4943TIP3    H114770   6.078   5.703   1.575
 4943TIP3    H214771   6.005   5.713   1.705
 4944TIP3   OH214772   6.059   5.818   1.847
 4944TIP3    H114773   5.981   5.852   1.895
 4944TIP3    H214774   6.092   5.899   1.802
 4945TIP3   OH214775   4.677   5.548   2.648
 4945TIP3    H114776   4.775   5.539   2.648
 4945TIP3    H214777   4.652   5.462   2.687
 4946TIP3   OH214778   6.508   5.407   2.402
 4946TIP3    H114779   6.570   5.344   2.360
 4946TIP3    H214780   6.483   5.464   2.326
 4947TIP3   OH214781   5.935   5.252   1.159
 4947TIP3    H114782   5.984   5.234   1.242
 4947TIP3    H214783   5.876   5.174   1.156
 4948TIP3   OH214784   4.637   5.238   1.977
 4948TIP3    H114785   4.697   5.162   1.986
 4948TIP3    H214786   4.701   5.311   1.971
 4949TIP3   OH214787   4.441   5.512   2.049
 4949TIP3    H114788   4.490   5.504   1.965
 4949TIP3    H214789   4.474   5.596   2.082
 4950TIP3   OH214790   6.384   5.552   2.207
 4950TIP3    H114791   6.299   5.591   2.233
 4950TIP3    H214792   6.353   5.479   2.150
 4951TIP3   OH214793   6.024   5.189   0.792
 4951TIP3    H114794   6.057   5.113   0.740
 4951TIP3    H214795   6.091   5.257   0.772
 4952TIP3   OH214796   4.424   5.020   1.554
 4952TIP3    H114797   4.330   5.013   1.577
 4952TIP3    H214798   4.421   5.075   1.473
 4953TIP3   OH214799   5.576   6.721   1.065
 4953TIP3    H114800   5.631   6.697   0.988
 4953TIP3    H214801   5.631   6.789   1.108
 4954TIP3   OH214802   4.645   5.097   2.366
 4954TIP3    H114803   4.593   5.089   2.448
 4954TIP3    H214804   4.577   5.133   2.305
 4955TIP3   OH214805   4.685   6.522   2.443
 4955TIP3    H114806   4.593   6.493   2.428
 4955TIP3    H214807   4.696   6.503   2.537
 4956TIP3   OH214808   4.861   6.545   1.980
 4956TIP3    H114809   4.805   6.616   1.941
 4956TIP3    H214810   4.940   6.596   2.001
 4957TIP3   OH214811   5.307   6.799   2.125
 4957TIP3    H114812   5.347   6.798   2.214
 4957TIP3    H214813   5.375   6.850   2.075
 4958TIP3   OH214814   5.490   6.948   1.985
 4958TIP3    H114815   5.565   6.900   1.948
 4958TIP3    H214816   5.537   7.008   2.047
 4959TIP3   OH214817   6.281   5.313   2.086
 4959TIP3    H114818   6.190   5.307   2.053
 4959TIP3    H214819   6.311   5.220   2.075
 4960TIP3   OH214820   4.542   6.812   2.013
 4960TIP3    H114821   4.453   6.846   1.989
 4960TIP3    H214822   4.550   6.848   2.102
 4961TIP3   OH214823   4.774   6.783   1.867
 4961TIP3    H114824   4.690   6.798   1.916
 4961TIP3    H214825   4.754   6.826   1.781
 4962TIP3   OH214826   5.189   6.798   1.666
 4962TIP3    H114827   5.132   6.839   1.599
 4962TIP3    H214828   5.206   6.876   1.723
 4963TIP3   OH214829   5.470   6.759   1.711
 4963TIP3    H114830   5.378   6.786   1.699
 4963TIP3    H214831   5.519   6.838   1.682
 4964TIP3   OH214832   5.671   6.946   1.636
 4964TIP3    H114833   5.662   7.034   1.591
 4964TIP3    H214834   5.702   6.890   1.562
 4965TIP3   OH214835   4.451   6.608   1.759
 4965TIP3    H114836   4.477   6.582   1.850
 4965TIP3    H214837   4.520   6.559   1.709
 4966TIP3   OH214838   4.639   6.469   1.617
 4966TIP3    H114839   4.643   6.382   1.663
 4966TIP3    H214840   4.732   6.491   1.614
 4967TIP3   OH214841   5.484   5.228   1.703
 4967TIP3    H114842   5.441   5.159   1.757
 4967TIP3    H214843   5.555   5.179   1.659
 4968TIP3   OH214844   6.011   5.111   1.613
 4968TIP3    H114845   6.046   5.161   1.536
 4968TIP3    H214846   5.915   5.123   1.603
 4969TIP3   OH214847   6.105   5.211   1.375
 4969TIP3    H114848   6.177   5.160   1.333
 4969TIP3    H214849   6.136   5.303   1.359
 4970TIP3   OH214850   4.734   4.938   1.722
 4970TIP3    H114851   4.642   4.905   1.724
 4970TIP3    H214852   4.783   4.853   1.718
 4971TIP3   OH214853   4.516   4.806   1.368
 4971TIP3    H114854   4.551   4.862   1.297
 4971TIP3    H214855   4.492   4.870   1.437
 4972TIP3   OH214856   5.174   4.974   1.602
 4972TIP3    H114857   5.235   5.019   1.542
 4972TIP3    H214858   5.201   5.007   1.688
 4973TIP3   OH214859   5.728   5.115   1.584
 4973TIP3    H114860   5.723   5.077   1.496
 4973TIP3    H214861   5.713   5.036   1.641
 4974TIP3   OH214862   5.754   5.038   1.149
 4974TIP3    H114863   5.665   5.075   1.155
 4974TIP3    H214864   5.741   4.952   1.196
 4975TIP3   OH214865   4.239   6.375   1.150
 4975TIP3    H114866   4.154   6.341   1.116
 4975TIP3    H214867   4.225   6.470   1.133
 4976TIP3   OH214868   4.637   4.967   1.131
 4976TIP3    H114869   4.686   4.902   1.076
 4976TIP3    H214870   4.711   5.019   1.168
 4977TIP3   OH214871   5.148   5.143   1.232
 4977TIP3    H114872   5.207   5.090   1.288
 4977TIP3    H214873   5.176   5.233   1.258
 4978TIP3   OH214874   5.005   6.581   0.725
 4978TIP3    H114875   5.098   6.592   0.695
 4978TIP3    H214876   4.986   6.498   0.675
 4979TIP3   OH214877   5.738   6.661   0.856
 4979TIP3    H114878   5.717   6.571   0.822
 4979TIP3    H214879   5.718   6.718   0.779
 4980TIP3   OH214880   4.942   5.220   2.613
 4980TIP3    H114881   4.907   5.149   2.668
 4980TIP3    H214882   5.037   5.218   2.641
 4981TIP3   OH214883   5.192   5.215   2.732
 4981TIP3    H114884   5.276   5.189   2.692
 4981TIP3    H214885   5.179   5.144   2.799
 4982TIP3   OH214886   4.314   6.401   0.791
 4982TIP3    H114887   4.313   6.427   0.884
 4982TIP3    H214888   4.404   6.362   0.781
 4983TIP3   OH214889   6.016   5.274   2.520
 4983TIP3    H114890   6.035   5.243   2.611
 4983TIP3    H214891   6.105   5.270   2.479
 4984TIP3   OH214892   5.957   6.830   2.010
 4984TIP3    H114893   5.877   6.799   1.964
 4984TIP3    H214894   5.939   6.926   2.014
 4985TIP3   OH214895   7.219   6.192   1.150
 4985TIP3    H114896   7.250   6.180   1.242
 4985TIP3    H214897   7.169   6.111   1.134
 4986TIP3   OH214898   6.522   6.097   1.521
 4986TIP3    H114899   6.551   6.028   1.583
 4986TIP3    H214900   6.595   6.160   1.527
 4987TIP3   OH214901   6.487   6.505   1.246
 4987TIP3    H114902   6.481   6.407   1.252
 4987TIP3    H214903   6.584   6.517   1.248
 4988TIP3   OH214904   6.200   5.714   1.034
 4988TIP3    H114905   6.146   5.793   1.048
 4988TIP3    H214906   6.133   5.651   1.002
 4989TIP3   OH214907   6.257   5.997   1.205
 4989TIP3    H114908   6.303   5.919   1.243
 4989TIP3    H214909   6.317   6.022   1.134
 4990TIP3   OH214910   7.018   6.426   1.207
 4990TIP3    H114911   7.057   6.353   1.155
 4990TIP3    H214912   7.102   6.470   1.234
 4991TIP3   OH214913   8.010   5.751   1.199
 4991TIP3    H114914   8.051   5.816   1.260
 4991TIP3    H214915   8.039   5.785   1.114
 4992TIP3   OH214916   7.424   5.923   1.257
 4992TIP3    H114917   7.473   5.838   1.263
 4992TIP3    H214918   7.401   5.924   1.162
 4993TIP3   OH214919   6.773   5.586   1.206
 4993TIP3    H114920   6.744   5.660   1.149
 4993TIP3    H214921   6.725   5.512   1.163
 4994TIP3   OH214922   7.453   5.676   0.846
 4994TIP3    H114923   7.525   5.658   0.911
 4994TIP3    H214924   7.507   5.691   0.767
 4995TIP3   OH214925   6.402   5.791   1.310
 4995TIP3    H114926   6.484   5.769   1.359
 4995TIP3    H214927   6.412   5.730   1.233
 4996TIP3   OH214928   6.845   5.990   1.097
 4996TIP3    H114929   6.937   5.962   1.115
 4996TIP3    H214930   6.801   5.905   1.076
 4997TIP3   OH214931   8.091   5.947   1.368
 4997TIP3    H114932   8.011   6.003   1.362
 4997TIP3    H214933   8.111   5.953   1.462
 4998TIP3   OH214934   6.766   5.571   1.639
 4998TIP3    H114935   6.704   5.608   1.574
 4998TIP3    H214936   6.716   5.586   1.722
 4999TIP3   OH214937   6.873   6.342   1.441
 4999TIP3    H114938   6.810   6.407   1.479
 4999TIP3    H214939   6.916   6.395   1.371
 5000TIP3   OH214940   7.676   5.682   1.002
 5000TIP3    H114941   7.692   5.621   1.075
 5000TIP3    H214942   7.724   5.762   1.032
 5001TIP3   OH214943   6.635   5.685   1.423
 5001TIP3    H114944   6.697   5.758   1.448
 5001TIP3    H214945   6.686   5.643   1.350
 5002TIP3   OH214946   6.696   6.537   1.528
 5002TIP3    H114947   6.673   6.626   1.494
 5002TIP3    H214948   6.618   6.523   1.587
 5003TIP3   OH214949   6.093   6.239   0.758
 5003TIP3    H114950   6.018   6.257   0.697
 5003TIP3    H214951   6.102   6.325   0.805
 5004TIP3   OH214952   7.536   6.717   1.005
 5004TIP3    H114953   7.445   6.712   1.040
 5004TIP3    H214954   7.550   6.813   1.009
 5005TIP3   OH214955   7.823   5.648   1.370
 5005TIP3    H114956   7.742   5.688   1.336
 5005TIP3    H214957   7.889   5.675   1.303
 5006TIP3   OH214958   7.125   5.291   1.356
 5006TIP3    H114959   7.110   5.195   1.371
 5006TIP3    H214960   7.046   5.328   1.400
 5007TIP3   OH214961   7.753   6.658   1.355
 5007TIP3    H114962   7.736   6.572   1.311
 5007TIP3    H214963   7.683   6.715   1.321
 5008TIP3   OH214964   7.951   6.287   1.192
 5008TIP3    H114965   7.876   6.347   1.212
 5008TIP3    H214966   7.960   6.300   1.098
 5009TIP3   OH214967   7.630   6.170   1.493
 5009TIP3    H114968   7.638   6.243   1.558
 5009TIP3    H214969   7.564   6.207   1.433
 5010TIP3   OH214970   6.631   6.132   0.995
 5010TIP3    H114971   6.586   6.071   0.934
 5010TIP3    H214972   6.708   6.079   1.026
 5011TIP3   OH214973   6.765   6.542   1.140
 5011TIP3    H114974   6.751   6.482   1.066
 5011TIP3    H214975   6.854   6.515   1.170
 5012TIP3   OH214976   6.775   6.101   1.350
 5012TIP3    H114977   6.806   6.089   1.259
 5012TIP3    H214978   6.813   6.188   1.375
 5013TIP3   OH214979   7.295   6.738   1.132
 5013TIP3    H114980   7.273   6.816   1.184
 5013TIP3    H214981   7.279   6.665   1.195
 5014TIP3   OH214982   6.906   6.661   1.671
 5014TIP3    H114983   6.849   6.722   1.723
 5014TIP3    H214984   6.838   6.607   1.626
 5015TIP3   OH214985   6.658   6.218   1.772
 5015TIP3    H114986   6.665   6.304   1.819
 5015TIP3    H214987   6.563   6.198   1.789
 5016TIP3   OH214988   6.700   6.828   1.761
 5016TIP3    H114989   6.663   6.828   1.671
 5016TIP3    H214990   6.621   6.808   1.817
 5017TIP3   OH214991   6.485   5.971   0.817
 5017TIP3    H114992   6.409   6.011   0.770
 5017TIP3    H214993   6.452   5.883   0.834
 5018TIP3   OH214994   6.279   6.358   1.710
 5018TIP3    H114995   6.215   6.333   1.640
 5018TIP3    H214996   6.317   6.271   1.737
 5019TIP3   OH214997   6.133   6.554   1.341
 5019TIP3    H114998   6.229   6.546   1.334
 5019TIP3    H214999   6.124   6.632   1.398
 5020TIP3   OH215000   7.101   6.789   1.527
 5020TIP3    H115001   7.104   6.878   1.567
 5020TIP3    H215002   7.032   6.747   1.583
 5021TIP3   OH215003   6.295   6.758   0.856
 5021TIP3    H115004   6.361   6.759   0.928
 5021TIP3    H215005   6.215   6.739   0.907
 5022TIP3   OH215006   7.901   6.137   1.666
 5022TIP3    H115007   7.809   6.156   1.644
 5022TIP3    H215008   7.905   6.040   1.658
 5023TIP3   OH215009   6.484   6.541   1.699
 5023TIP3    H115010   6.534   6.527   1.781
 5023TIP3    H215011   6.410   6.477   1.709
 5024TIP3   OH215012   6.884   5.369   1.478
 5024TIP3    H115013   6.795   5.335   1.452
 5024TIP3    H215014   6.856   5.447   1.529
 5025TIP3   OH215015   7.418   5.519   1.690
 5025TIP3    H115016   7.481   5.457   1.734
 5025TIP3    H215017   7.331   5.479   1.718
 5026TIP3   OH215018   7.632   5.902   1.591
 5026TIP3    H115019   7.618   5.927   1.684
 5026TIP3    H215020   7.633   5.990   1.549
 5027TIP3   OH215021   6.817   5.878   1.497
 5027TIP3    H115022   6.770   5.900   1.580
 5027TIP3    H215023   6.802   5.960   1.445
 5028TIP3   OH215024   6.693   5.771   1.027
 5028TIP3    H115025   6.600   5.746   1.046
 5028TIP3    H215026   6.708   5.716   0.947
 5029TIP3   OH215027   7.367   6.134   1.820
 5029TIP3    H115028   7.346   6.062   1.882
 5029TIP3    H215029   7.454   6.162   1.853
 5030TIP3   OH215030   7.345   5.888   0.989
 5030TIP3    H115031   7.321   5.939   0.910
 5030TIP3    H215032   7.377   5.805   0.948
 5031TIP3   OH215033   6.636   5.908   1.707
 5031TIP3    H115034   6.659   5.974   1.774
 5031TIP3    H215035   6.623   5.828   1.760
 5032TIP3   OH215036   6.224   5.439   1.290
 5032TIP3    H115037   6.306   5.461   1.339
 5032TIP3    H215038   6.256   5.398   1.207
 5033TIP3   OH215039   6.210   5.422   0.816
 5033TIP3    H115040   6.253   5.456   0.735
 5033TIP3    H215041   6.142   5.491   0.830
 5034TIP3   OH215042   7.326   6.129   1.407
 5034TIP3    H115043   7.371   6.055   1.359
 5034TIP3    H215044   7.361   6.121   1.496
 5035TIP3   OH215045   7.026   5.587   1.076
 5035TIP3    H115046   6.941   5.585   1.124
 5035TIP3    H215047   7.090   5.593   1.149
 5036TIP3   OH215048   6.460   5.643   1.082
 5036TIP3    H115049   6.365   5.652   1.056
 5036TIP3    H215050   6.478   5.549   1.062
 5037TIP3   OH215051   6.724   5.641   0.791
 5037TIP3    H115052   6.820   5.636   0.775
 5037TIP3    H215053   6.702   5.724   0.746
 5038TIP3   OH215054   7.513   5.657   1.277
 5038TIP3    H115055   7.470   5.627   1.357
 5038TIP3    H215056   7.470   5.601   1.210
 5039TIP3   OH215057   6.647   6.464   1.918
 5039TIP3    H115058   6.728   6.492   1.967
 5039TIP3    H215059   6.583   6.464   1.992
 5040TIP3   OH215060   7.106   5.912   1.167
 5040TIP3    H115061   7.187   5.886   1.120
 5040TIP3    H215062   7.124   5.881   1.257
 5041TIP3   OH215063   6.639   5.405   1.051
 5041TIP3    H115064   6.598   5.329   1.098
 5041TIP3    H215065   6.685   5.360   0.979
 5042TIP3   OH215066   7.085   5.822   1.472
 5042TIP3    H115067   6.988   5.837   1.465
 5042TIP3    H215068   7.112   5.904   1.516
 5043TIP3   OH215069   7.719   6.436   1.189
 5043TIP3    H115070   7.706   6.502   1.119
 5043TIP3    H215071   7.636   6.383   1.178
 5044TIP3   OH215072   7.223   6.519   1.558
 5044TIP3    H115073   7.257   6.500   1.647
 5044TIP3    H215074   7.185   6.607   1.568
 5045TIP3   OH215075   6.515   6.227   1.236
 5045TIP3    H115076   6.553   6.194   1.152
 5045TIP3    H215077   6.550   6.163   1.300
 5046TIP3   OH215078   6.396   6.148   1.847
 5046TIP3    H115079   6.418   6.136   1.942
 5046TIP3    H215080   6.327   6.080   1.835
 5047TIP3   OH215081   7.125   6.262   1.862
 5047TIP3    H115082   7.071   6.193   1.820
 5047TIP3    H215083   7.216   6.232   1.840
 5048TIP3   OH215084   7.371   6.763   1.443
 5048TIP3    H115085   7.275   6.769   1.458
 5048TIP3    H215086   7.403   6.819   1.516
 5049TIP3   OH215087   7.491   6.293   1.139
 5049TIP3    H115088   7.395   6.281   1.127
 5049TIP3    H215089   7.524   6.222   1.079
 5050TIP3   OH215090   6.597   6.521   0.839
 5050TIP3    H115091   6.630   6.603   0.799
 5050TIP3    H215092   6.515   6.551   0.881
 5051TIP3   OH215093   6.170   5.841   0.547
 5051TIP3    H115094   6.213   5.916   0.593
 5051TIP3    H215095   6.091   5.829   0.604
 5052TIP3   OH215096   6.777   6.314   0.846
 5052TIP3    H115097   6.723   6.394   0.843
 5052TIP3    H215098   6.725   6.258   0.907
 5053TIP3   OH215099   6.882   6.873   1.328
 5053TIP3    H115100   6.922   6.947   1.277
 5053TIP3    H215101   6.959   6.843   1.380
 5054TIP3   OH215102   7.270   6.502   1.287
 5054TIP3    H115103   7.263   6.504   1.385
 5054TIP3    H215104   7.358   6.462   1.275
 5055TIP3   OH215105   7.508   7.002   1.354
 5055TIP3    H115106   7.416   6.971   1.349
 5055TIP3    H215107   7.503   7.096   1.336
 5056TIP3   OH215108   6.609   5.651   1.856
 5056TIP3    H115109   6.513   5.657   1.872
 5056TIP3    H215110   6.637   5.593   1.929
 5057TIP3   OH215111   6.324   6.736   1.487
 5057TIP3    H115112   6.378   6.663   1.521
 5057TIP3    H215113   6.349   6.807   1.548
 5058TIP3   OH215114   6.283   6.069   0.661
 5058TIP3    H115115   6.211   6.122   0.703
 5058TIP3    H215116   6.313   6.130   0.592
 5059TIP3   OH215117   7.007   5.639   0.805
 5059TIP3    H115118   7.062   5.715   0.782
 5059TIP3    H215119   7.018   5.633   0.903
 5060TIP3   OH215120   7.164   5.386   0.911
 5060TIP3    H115121   7.141   5.453   0.978
 5060TIP3    H215122   7.231   5.433   0.861
 5061TIP3   OH215123   6.670   5.376   0.686
 5061TIP3    H115124   6.663   5.457   0.739
 5061TIP3    H215125   6.765   5.356   0.698
 5062TIP3   OH215126   7.912   5.871   1.585
 5062TIP3    H115127   7.815   5.859   1.588
 5062TIP3    H215128   7.934   5.821   1.505
 5063TIP3   OH215129   7.570   6.070   0.995
 5063TIP3    H115130   7.505   5.999   0.991
 5063TIP3    H215131   7.650   6.023   1.026
 5064TIP3   OH215132   6.239   5.575   0.583
 5064TIP3    H115133   6.219   5.668   0.564
 5064TIP3    H215134   6.172   5.529   0.532
 5065TIP3   OH215135   6.621   5.286   1.457
 5065TIP3    H115136   6.588   5.251   1.371
 5065TIP3    H215137   6.610   5.209   1.516
 5066TIP3   OH215138   6.130   6.499   0.832
 5066TIP3    H115139   6.085   6.550   0.901
 5066TIP3    H215140   6.180   6.567   0.786
 5067TIP3   OH215141   6.313   7.044   1.909
 5067TIP3    H115142   6.399   7.045   1.956
 5067TIP3    H215143   6.294   6.948   1.908
 5068TIP3   OH215144   6.796   7.014   1.951
 5068TIP3    H115145   6.889   6.993   1.966
 5068TIP3    H215146   6.774   6.953   1.878
 5069TIP3   OH215147   7.400   6.898   1.676
 5069TIP3    H115148   7.390   6.831   1.748
 5069TIP3    H215149   7.480   6.945   1.707
 5070TIP3   OH215150   6.445   6.452   2.108
 5070TIP3    H115151   6.462   6.356   2.117
 5070TIP3    H215152   6.357   6.453   2.065
 5071TIP3   OH215153   7.052   6.537   1.883
 5071TIP3    H115154   7.014   6.549   1.794
 5071TIP3    H215155   7.088   6.446   1.879
 5072TIP3   OH215156   7.539   6.539   1.484
 5072TIP3    H115157   7.614   6.597   1.463
 5072TIP3    H215158   7.464   6.601   1.475
 5073TIP3   OH215159   6.565   6.182   2.089
 5073TIP3    H115160   6.641   6.125   2.074
 5073TIP3    H215161   6.587   6.219   2.177
 5074TIP3   OH215162   6.899   6.067   1.746
 5074TIP3    H115163   6.824   6.129   1.757
 5074TIP3    H215164   6.945   6.103   1.668
 5075TIP3   OH215165   7.413   6.470   1.876
 5075TIP3    H115166   7.505   6.455   1.856
 5075TIP3    H215167   7.411   6.448   1.972
 5076TIP3   OH215168   7.020   5.860   1.880
 5076TIP3    H115169   7.014   5.778   1.827
 5076TIP3    H215170   6.975   5.926   1.823
 5077TIP3   OH215171   7.025   5.640   1.685
 5077TIP3    H115172   7.046   5.689   1.603
 5077TIP3    H215173   6.930   5.618   1.672
 5078TIP3   OH215174   7.061   6.165   1.541
 5078TIP3    H115175   7.145   6.191   1.500
 5078TIP3    H215176   7.002   6.237   1.511
 5079TIP3   OH215177   7.651   6.127   1.902
 5079TIP3    H115178   7.700   6.077   1.969
 5079TIP3    H215179   7.674   6.218   1.924
 5080TIP3   OH215180   7.681   6.387   1.656
 5080TIP3    H115181   7.619   6.444   1.605
 5080TIP3    H215182   7.768   6.417   1.621
 5081TIP3   OH215183   6.893   5.975   2.106
 5081TIP3    H115184   6.829   5.904   2.123
 5081TIP3    H215185   6.934   5.945   2.022
 5082TIP3   OH215186   7.166   5.408   1.736
 5082TIP3    H115187   7.108   5.487   1.725
 5082TIP3    H215188   7.098   5.336   1.735
 5083TIP3   OH215189   7.287   5.911   1.966
 5083TIP3    H115190   7.286   5.908   2.063
 5083TIP3    H215191   7.193   5.891   1.947
 5084TIP3   OH215192   7.507   5.825   1.831
 5084TIP3    H115193   7.440   5.870   1.892
 5084TIP3    H215194   7.588   5.827   1.892
 5085TIP3   OH215195   7.734   5.798   1.971
 5085TIP3    H115196   7.758   5.706   1.995
 5085TIP3    H215197   7.737   5.846   2.056
 5086TIP3   OH215198   6.739   5.752   2.160
 5086TIP3    H115199   6.745   5.659   2.129
 5086TIP3    H215200   6.776   5.743   2.250
 5087TIP3   OH215201   7.255   5.422   2.001
 5087TIP3    H115202   7.321   5.350   2.005
 5087TIP3    H215203   7.214   5.405   1.914
 5088TIP3   OH215204   7.317   5.634   2.168
 5088TIP3    H115205   7.293   5.563   2.104
 5088TIP3    H215206   7.239   5.693   2.164
 5089TIP3   OH215207   5.934   6.859   0.908
 5089TIP3    H115208   5.866   6.803   0.865
 5089TIP3    H215209   5.972   6.795   0.972
 5090TIP3   OH215210   6.082   6.699   1.077
 5090TIP3    H115211   6.059   6.634   1.145
 5090TIP3    H215212   6.124   6.767   1.133
 5091TIP3   OH215213   7.885   6.836   1.741
 5091TIP3    H115214   7.803   6.795   1.774
 5091TIP3    H215215   7.891   6.909   1.804
 5092TIP3   OH215216   6.256   6.118   1.457
 5092TIP3    H115217   6.254   6.087   1.364
 5092TIP3    H215218   6.353   6.117   1.474
 5093TIP3   OH215219   7.926   6.464   1.559
 5093TIP3    H115220   8.008   6.411   1.547
 5093TIP3    H215221   7.937   6.532   1.491
 5094TIP3   OH215222   8.126   6.255   1.580
 5094TIP3    H115223   8.040   6.221   1.614
 5094TIP3    H215224   8.185   6.227   1.650
 5095TIP3   OH215225   7.789   5.934   1.095
 5095TIP3    H115226   7.873   5.962   1.054
 5095TIP3    H215227   7.802   5.970   1.186
 5096TIP3   OH215228   7.846   6.075   1.330
 5096TIP3    H115229   7.773   6.113   1.384
 5096TIP3    H215230   7.887   6.155   1.293
 5097TIP3   OH215231   6.473   5.804   2.131
 5097TIP3    H115232   6.571   5.797   2.134
 5097TIP3    H215233   6.448   5.719   2.172
 5098TIP3   OH215234   8.318   5.673   1.888
 5098TIP3    H115235   8.362   5.599   1.844
 5098TIP3    H215236   8.284   5.724   1.811
 5099TIP3   OH215237   6.435   5.493   1.462
 5099TIP3    H115238   6.496   5.417   1.473
 5099TIP3    H215239   6.498   5.567   1.458
 5100TIP3   OH215240   6.238   5.768   1.536
 5100TIP3    H115241   6.286   5.762   1.452
 5100TIP3    H215242   6.268   5.853   1.570
 5101TIP3   OH215243   8.182   5.804   1.695
 5101TIP3    H115244   8.102   5.851   1.722
 5101TIP3    H215245   8.145   5.734   1.636
 5102TIP3   OH215246   6.220   5.286   1.049
 5102TIP3    H115247   6.125   5.269   1.061
 5102TIP3    H215248   6.221   5.335   0.964
 5103TIP3   OH215249   6.441   5.351   1.851
 5103TIP3    H115250   6.391   5.346   1.934
 5103TIP3    H215251   6.373   5.389   1.792
 5104TIP3   OH215252   6.479   6.779   1.928
 5104TIP3    H115253   6.388   6.749   1.915
 5104TIP3    H215254   6.494   6.760   2.021
 5105TIP3   OH215255   6.656   6.807   1.473
 5105TIP3    H115256   6.611   6.885   1.436
 5105TIP3    H215257   6.744   6.821   1.432
 5106TIP3   OH215258   7.093   7.047   1.625
 5106TIP3    H115259   7.135   7.049   1.713
 5106TIP3    H215260   7.161   7.094   1.571
 5107TIP3   OH215261   7.278   7.179   1.479
 5107TIP3    H115262   7.353   7.118   1.474
 5107TIP3    H215263   7.321   7.262   1.505
 5108TIP3   OH215264   8.073   5.569   1.584
 5108TIP3    H115265   7.991   5.560   1.533
 5108TIP3    H215266   8.121   5.488   1.558
 5109TIP3   OH215267   6.333   7.068   1.498
 5109TIP3    H115268   6.244   7.103   1.478
 5109TIP3    H215269   6.346   7.102   1.587
 5110TIP3   OH215270   6.572   7.045   1.357
 5110TIP3    H115271   6.485   7.059   1.401
 5110TIP3    H215272   6.555   7.079   1.267
 5111TIP3   OH215273   6.986   7.072   1.160
 5111TIP3    H115274   6.916   7.089   1.093
 5111TIP3    H215275   6.997   7.161   1.198
 5112TIP3   OH215276   7.255   7.022   1.206
 5112TIP3    H115277   7.158   7.014   1.200
 5112TIP3    H215278   7.266   7.107   1.161
 5113TIP3   OH215279   6.246   6.860   1.243
 5113TIP3    H115280   6.273   6.837   1.335
 5113TIP3    H215281   6.318   6.816   1.194
 5114TIP3   OH215282   6.438   6.730   1.092
 5114TIP3    H115283   6.453   6.650   1.148
 5114TIP3    H215284   6.527   6.771   1.094
 5115TIP3   OH215285   6.699   6.820   1.106
 5115TIP3    H115286   6.738   6.731   1.102
 5115TIP3    H215287   6.745   6.855   1.184
 5116TIP3   OH215288   7.282   5.481   1.194
 5116TIP3    H115289   7.236   5.412   1.245
 5116TIP3    H215290   7.353   5.431   1.150
 5117TIP3   OH215291   7.806   5.366   1.097
 5117TIP3    H115292   7.849   5.412   1.022
 5117TIP3    H215293   7.711   5.384   1.083
 5118TIP3   OH215294   7.926   5.459   0.861
 5118TIP3    H115295   7.985   5.417   0.796
 5118TIP3    H215296   7.956   5.550   0.856
 5119TIP3   OH215297   6.531   5.195   1.208
 5119TIP3    H115298   6.438   5.164   1.208
 5119TIP3    H215299   6.578   5.109   1.204
 5120TIP3   OH215300   6.336   5.060   0.860
 5120TIP3    H115301   6.358   5.121   0.786
 5120TIP3    H215302   6.286   5.120   0.918
 5121TIP3   OH215303   6.972   5.224   1.089
 5121TIP3    H115304   7.035   5.274   1.036
 5121TIP3    H215305   6.985   5.262   1.177
 5122TIP3   OH215306   7.518   5.373   1.070
 5122TIP3    H115307   7.529   5.328   0.985
 5122TIP3    H215308   7.507   5.295   1.130
 5123TIP3   OH215309   6.433   5.225   0.661
 5123TIP3    H115310   6.458   5.177   0.580
 5123TIP3    H215311   6.511   5.283   0.673
 5124TIP3   OH215312   6.938   5.375   0.745
 5124TIP3    H115313   7.008   5.347   0.806
 5124TIP3    H215314   6.963   5.469   0.735
 5125TIP3   OH215315   6.739   5.475   2.098
 5125TIP3    H115316   6.702   5.405   2.154
 5125TIP3    H215317   6.833   5.474   2.128
 5126TIP3   OH215318   6.987   5.469   2.218
 5126TIP3    H115319   7.075   5.443   2.185
 5126TIP3    H215320   6.973   5.401   2.288
 5127TIP3   OH215321   7.809   5.530   2.005
 5127TIP3    H115322   7.829   5.500   2.097
 5127TIP3    H215323   7.898   5.527   1.964
 5128TIP3   OH215324   8.040   6.023   1.001
 5128TIP3    H115325   8.119   6.018   0.944
 5128TIP3    H215326   8.069   6.092   1.062
 5129TIP3   OH215327   0.481   6.532   2.901
 5129TIP3    H115328   0.510   6.612   2.950
 5129TIP3    H215329   0.498   6.559   2.809
 5130TIP3   OH215330  -0.086   6.420   2.521
 5130TIP3    H115331  -0.029   6.441   2.596
 5130TIP3    H215332  -0.050   6.482   2.455
 5131TIP3   OH215333   0.557   6.742   3.062
 5131TIP3    H115334   0.470   6.777   3.041
 5131TIP3    H215335   0.550   6.754   3.159
 5132TIP3   OH215336   0.112   6.465   2.717
 5132TIP3    H115337   0.177   6.395   2.725
 5132TIP3    H215338   0.167   6.545   2.722
 5133TIP3   OH215339   0.275   6.395   3.037
 5133TIP3    H115340   0.214   6.466   3.061
 5133TIP3    H215341   0.343   6.444   2.986
 5134TIP3   OH215342   0.220   7.461   3.036
 5134TIP3    H115343   0.200   7.371   3.005
 5134TIP3    H215344   0.182   7.514   2.965
 5135TIP3   OH215345   0.415   7.087   2.888
 5135TIP3    H115346   0.330   7.134   2.897
 5135TIP3    H215347   0.439   7.110   2.796
 5136TIP3   OH215348   0.220   6.023   2.143
 5136TIP3    H115349   0.136   6.036   2.190
 5136TIP3    H215350   0.229   6.107   2.094
 5137TIP3   OH215351   0.376   7.741   3.097
 5137TIP3    H115352   0.393   7.648   3.121
 5137TIP3    H215353   0.323   7.773   3.171
 5138TIP3   OH215354   0.182   7.236   2.882
 5138TIP3    H115355   0.213   7.282   2.801
 5138TIP3    H215356   0.093   7.208   2.857
 5139TIP3   OH215357   0.464   7.479   3.138
 5139TIP3    H115358   0.368   7.470   3.116
 5139TIP3    H215359   0.501   7.460   3.049
 5140TIP3   OH215360   0.025   6.848   2.672
 5140TIP3    H115361  -0.044   6.787   2.699
 5140TIP3    H215362   0.106   6.804   2.705
 5141TIP3   OH215363   0.268   6.597   3.721
 5141TIP3    H115364   0.246   6.508   3.688
 5141TIP3    H215365   0.185   6.621   3.764
 5142TIP3   OH215366   0.276   6.976   2.268
 5142TIP3    H115367   0.208   6.933   2.325
 5142TIP3    H215368   0.331   7.023   2.334
 5143TIP3   OH215369   0.308   7.358   2.680
 5143TIP3    H115370   0.370   7.295   2.637
 5143TIP3    H215371   0.326   7.439   2.627
 5144TIP3   OH215372   0.111   6.821   2.411
 5144TIP3    H115373   0.093   6.726   2.400
 5144TIP3    H215374   0.071   6.840   2.498
 5145TIP3   OH215375   0.361   7.253   3.266
 5145TIP3    H115376   0.423   7.176   3.267
 5145TIP3    H215377   0.402   7.311   3.201
 5146TIP3   OH215378   0.547   7.058   3.283
 5146TIP3    H115379   0.483   6.984   3.298
 5146TIP3    H215380   0.630   7.007   3.294
 5147TIP3   OH215381   0.085   6.551   2.353
 5147TIP3    H115382   0.129   6.463   2.354
 5147TIP3    H215383   0.090   6.571   2.258
 5148TIP3   OH215384   0.239   6.719   2.781
 5148TIP3    H115385   0.328   6.744   2.747
 5148TIP3    H215386   0.243   6.762   2.869
 5149TIP3   OH215387   0.281   6.865   3.011
 5149TIP3    H115388   0.287   6.861   3.109
 5149TIP3    H215389   0.328   6.948   2.990
 5150TIP3   OH215390   0.760   6.457   3.578
 5150TIP3    H115391   0.818   6.392   3.534
 5150TIP3    H215392   0.729   6.512   3.503
 5151TIP3   OH215393   0.209   6.295   2.342
 5151TIP3    H115394   0.250   6.275   2.429
 5151TIP3    H215395   0.142   6.223   2.335
 5152TIP3   OH215396   0.628   6.608   3.387
 5152TIP3    H115397   0.552   6.663   3.414
 5152TIP3    H215398   0.584   6.542   3.330
 5153TIP3   OH215399   0.298   6.234   1.968
 5153TIP3    H115400   0.317   6.150   1.919
 5153TIP3    H215401   0.386   6.274   1.969
 5154TIP3   OH215402   0.525   6.365   3.258
 5154TIP3    H115403   0.440   6.366   3.211
 5154TIP3    H215404   0.553   6.271   3.247
 5155TIP3   OH215405   0.357   6.253   2.566
 5155TIP3    H115406   0.430   6.200   2.527
 5155TIP3    H215407   0.391   6.344   2.551
 5156TIP3   OH215408   0.036   6.157   2.798
 5156TIP3    H115409   0.001   6.185   2.712
 5156TIP3    H215410  -0.025   6.083   2.818
 5157TIP3   OH215411   0.023   6.073   2.333
 5157TIP3    H115412  -0.064   6.092   2.295
 5157TIP3    H215413   0.010   5.981   2.363
 5158TIP3   OH215414   0.269   6.295   3.682
 5158TIP3    H115415   0.280   6.284   3.779
 5158TIP3    H215416   0.361   6.309   3.653
 5159TIP3   OH215417   1.468   7.237   1.964
 5159TIP3    H115418   1.444   7.330   1.941
 5159TIP3    H215419   1.392   7.191   1.925
 5160TIP3   OH215420   1.471   7.245   2.334
 5160TIP3    H115421   1.498   7.214   2.422
 5160TIP3    H215422   1.427   7.166   2.297
 5161TIP3   OH215423   0.769   7.140   2.697
 5161TIP3    H115424   0.797   7.072   2.761
 5161TIP3    H215425   0.844   7.201   2.703
 5162TIP3   OH215426   1.711   7.545   2.007
 5162TIP3    H115427   1.689   7.476   2.071
 5162TIP3    H215428   1.739   7.618   2.066
 5163TIP3   OH215429   0.766   7.531   2.464
 5163TIP3    H115430   0.745   7.435   2.454
 5163TIP3    H215431   0.853   7.533   2.420
 5164TIP3   OH215432   0.429   6.748   2.199
 5164TIP3    H115433   0.395   6.837   2.219
 5164TIP3    H215434   0.382   6.696   2.266
 5165TIP3   OH215435   0.518   7.044   2.387
 5165TIP3    H115436   0.562   6.966   2.427
 5165TIP3    H215437   0.575   7.061   2.311
 5166TIP3   OH215438   1.273   7.471   2.382
 5166TIP3    H115439   1.306   7.391   2.336
 5166TIP3    H215440   1.359   7.509   2.410
 5167TIP3   OH215441   2.277   6.794   2.378
 5167TIP3    H115442   2.308   6.872   2.430
 5167TIP3    H215443   2.302   6.821   2.288
 5168TIP3   OH215444   1.684   6.976   2.415
 5168TIP3    H115445   1.719   6.888   2.438
 5168TIP3    H215446   1.648   6.959   2.327
 5169TIP3   OH215447   1.018   6.632   2.381
 5169TIP3    H115448   0.995   6.704   2.319
 5169TIP3    H215449   0.972   6.557   2.338
 5170TIP3   OH215450   1.718   6.726   2.011
 5170TIP3    H115451   1.793   6.699   2.067
 5170TIP3    H215452   1.764   6.761   1.932
 5171TIP3   OH215453   0.653   6.832   2.486
 5171TIP3    H115454   0.734   6.814   2.538
 5171TIP3    H215455   0.670   6.773   2.409
 5172TIP3   OH215456   1.093   7.033   2.278
 5172TIP3    H115457   1.186   7.007   2.293
 5172TIP3    H215458   1.052   6.948   2.249
 5173TIP3   OH215459   2.351   6.998   2.549
 5173TIP3    H115460   2.267   7.044   2.534
 5173TIP3    H215461   2.365   7.018   2.643
 5174TIP3   OH215462   1.014   6.616   2.816
 5174TIP3    H115463   0.952   6.652   2.751
 5174TIP3    H215464   0.964   6.630   2.898
 5175TIP3   OH215465   1.391   7.470   1.845
 5175TIP3    H115466   1.338   7.452   1.764
 5175TIP3    H215467   1.375   7.565   1.855
 5176TIP3   OH215468   1.117   7.393   2.614
 5176TIP3    H115469   1.056   7.457   2.656
 5176TIP3    H215470   1.158   7.447   2.544
 5177TIP3   OH215471   1.948   6.705   2.182
 5177TIP3    H115472   1.896   6.680   2.260
 5177TIP3    H215473   1.980   6.793   2.207
 5178TIP3   OH215474   0.884   6.731   2.601
 5178TIP3    H115475   0.948   6.802   2.626
 5178TIP3    H215476   0.934   6.689   2.526
 5179TIP3   OH215477   0.936   7.595   2.707
 5179TIP3    H115478   0.884   7.611   2.626
 5179TIP3    H215479   0.863   7.586   2.772
 5180TIP3   OH215480   1.784   7.749   2.172
 5180TIP3    H115481   1.707   7.765   2.230
 5180TIP3    H215482   1.800   7.839   2.136
 5181TIP3   OH215483   2.072   6.692   2.545
 5181TIP3    H115484   1.984   6.724   2.519
 5181TIP3    H215485   2.130   6.727   2.474
 5182TIP3   OH215486   1.371   6.337   2.528
 5182TIP3    H115487   1.359   6.241   2.546
 5182TIP3    H215488   1.294   6.373   2.576
 5183TIP3   OH215489   1.672   7.593   1.740
 5183TIP3    H115490   1.627   7.514   1.705
 5183TIP3    H215491   1.701   7.560   1.828
 5184TIP3   OH215492   2.007   7.711   2.521
 5184TIP3    H115493   1.995   7.627   2.471
 5184TIP3    H215494   1.973   7.776   2.459
 5185TIP3   OH215495   1.305   7.100   1.785
 5185TIP3    H115496   1.223   7.150   1.763
 5185TIP3    H215497   1.345   7.091   1.696
 5186TIP3   OH215498   1.263   6.876   1.527
 5186TIP3    H115499   1.339   6.927   1.562
 5186TIP3    H215500   1.309   6.816   1.466
 5187TIP3   OH215501   2.203   7.339   2.369
 5187TIP3    H115502   2.119   7.389   2.379
 5187TIP3    H215503   2.230   7.365   2.279
 5188TIP3   OH215504   1.647   7.162   1.771
 5188TIP3    H115505   1.591   7.186   1.848
 5188TIP3    H215506   1.732   7.142   1.816
 5189TIP3   OH215507   1.884   7.221   2.666
 5189TIP3    H115508   1.879   7.303   2.718
 5189TIP3    H215509   1.796   7.222   2.623
 5190TIP3   OH215510   0.881   7.175   2.171
 5190TIP3    H115511   0.837   7.114   2.108
 5190TIP3    H215512   0.957   7.121   2.203
 5191TIP3   OH215513   0.998   7.550   2.325
 5191TIP3    H115514   1.011   7.516   2.235
 5191TIP3    H215515   1.091   7.557   2.354
 5192TIP3   OH215516   1.021   7.147   2.528
 5192TIP3    H115517   1.053   7.128   2.438
 5192TIP3    H215518   1.060   7.234   2.548
 5193TIP3   OH215519   1.554   7.780   2.326
 5193TIP3    H115520   1.507   7.826   2.395
 5193TIP3    H215521   1.545   7.687   2.358
 5194TIP3   OH215522   1.155   7.661   2.864
 5194TIP3    H115523   1.111   7.727   2.918
 5194TIP3    H215524   1.082   7.626   2.810
 5195TIP3   OH215525   1.489   7.034   1.583
 5195TIP3    H115526   1.546   7.092   1.638
 5195TIP3    H215527   1.520   7.057   1.492
 5196TIP3   OH215528   0.905   7.265   2.945
 5196TIP3    H115529   0.912   7.347   2.998
 5196TIP3    H215530   0.812   7.240   2.964
 5197TIP3   OH215531   2.008   6.280   1.633
 5197TIP3    H115532   1.923   6.294   1.679
 5197TIP3    H215533   2.014   6.361   1.578
 5198TIP3   OH215534   0.730   7.017   1.992
 5198TIP3    H115535   0.669   7.059   1.929
 5198TIP3    H215536   0.702   6.924   1.989
 5199TIP3   OH215537   0.536   7.402   2.889
 5199TIP3    H115538   0.472   7.383   2.818
 5199TIP3    H215539   0.568   7.313   2.913
 5200TIP3   OH215540   0.395   7.576   2.546
 5200TIP3    H115541   0.486   7.598   2.524
 5200TIP3    H215542   0.358   7.663   2.571
 5201TIP3   OH215543   2.185   7.995   2.589
 5201TIP3    H115544   2.196   7.902   2.616
 5201TIP3    H215545   2.111   8.024   2.645
 5202TIP3   OH215546   2.136   7.180   2.847
 5202TIP3    H115547   2.052   7.189   2.799
 5202TIP3    H215548   2.152   7.083   2.840
 5203TIP3   OH215549   0.736   7.590   2.895
 5203TIP3    H115550   0.790   7.547   2.963
 5203TIP3    H215551   0.660   7.529   2.885
 5204TIP3   OH215552   1.133   6.412   2.656
 5204TIP3    H115553   1.044   6.379   2.631
 5204TIP3    H215554   1.106   6.492   2.705
 5205TIP3   OH215555   1.665   6.527   2.852
 5205TIP3    H115556   1.733   6.499   2.916
 5205TIP3    H215557   1.581   6.506   2.898
 5206TIP3   OH215558   1.907   6.956   2.773
 5206TIP3    H115559   1.857   6.949   2.857
 5206TIP3    H215560   1.878   7.043   2.738
 5207TIP3   OH215561   1.570   7.085   1.331
 5207TIP3    H115562   1.528   7.063   1.247
 5207TIP3    H215563   1.653   7.125   1.301
 5208TIP3   OH215564   1.280   6.459   1.632
 5208TIP3    H115565   1.244   6.452   1.723
 5208TIP3    H215566   1.242   6.378   1.593
 5209TIP3   OH215567   1.064   6.926   2.678
 5209TIP3    H115568   1.013   6.947   2.759
 5209TIP3    H215569   1.048   7.007   2.625
 5210TIP3   OH215570   0.945   6.815   2.194
 5210TIP3    H115571   0.853   6.786   2.209
 5210TIP3    H215572   0.962   6.775   2.105
 5211TIP3   OH215573   1.440   6.900   1.919
 5211TIP3    H115574   1.386   6.970   1.877
 5211TIP3    H215575   1.492   6.868   1.842
 5212TIP3   OH215576   1.613   7.179   3.007
 5212TIP3    H115577   1.590   7.105   3.068
 5212TIP3    H215578   1.708   7.190   3.028
 5213TIP3   OH215579   1.597   6.929   2.157
 5213TIP3    H115580   1.535   6.959   2.087
 5213TIP3    H215581   1.628   6.846   2.115
 5214TIP3   OH215582   0.882   6.954   2.885
 5214TIP3    H115583   0.903   7.015   2.957
 5214TIP3    H215584   0.868   6.871   2.934
 5215TIP3   OH215585   0.938   6.431   1.593
 5215TIP3    H115586   0.920   6.430   1.689
 5215TIP3    H215587   0.849   6.446   1.556
 5216TIP3   OH215588   0.473   6.483   2.463
 5216TIP3    H115589   0.552   6.506   2.517
 5216TIP3    H215590   0.509   6.435   2.387
 5217TIP3   OH215591   0.456   6.475   1.994
 5217TIP3    H115592   0.517   6.469   1.919
 5217TIP3    H215593   0.434   6.569   1.996
 5218TIP3   OH215594   1.610   7.175   2.582
 5218TIP3    H115595   1.642   7.102   2.523
 5218TIP3    H215596   1.579   7.122   2.658
 5219TIP3   OH215597   1.276   6.639   2.254
 5219TIP3    H115598   1.191   6.633   2.302
 5219TIP3    H215599   1.339   6.633   2.327
 5220TIP3   OH215600   0.706   6.688   2.256
 5220TIP3    H115601   0.614   6.687   2.222
 5220TIP3    H215602   0.736   6.596   2.242
 5221TIP3   OH215603   0.985   6.696   1.953
 5221TIP3    H115604   1.079   6.699   1.926
 5221TIP3    H215605   0.937   6.698   1.868
 5222TIP3   OH215606   1.763   6.708   2.444
 5222TIP3    H115607   1.738   6.721   2.539
 5222TIP3    H215608   1.694   6.644   2.417
 5223TIP3   OH215609   0.807   6.698   1.748
 5223TIP3    H115610   0.717   6.721   1.721
 5223TIP3    H215611   0.863   6.744   1.681
 5224TIP3   OH215612   0.901   7.507   3.096
 5224TIP3    H115613   0.979   7.537   3.147
 5224TIP3    H215614   0.837   7.492   3.169
 5225TIP3   OH215615   1.358   6.964   2.353
 5225TIP3    H115616   1.425   6.917   2.302
 5225TIP3    H215617   1.363   6.922   2.440
 5226TIP3   OH215618   0.883   6.452   2.226
 5226TIP3    H115619   0.848   6.374   2.273
 5226TIP3    H215620   0.930   6.411   2.152
 5227TIP3   OH215621   1.335   6.861   2.634
 5227TIP3    H115622   1.245   6.894   2.652
 5227TIP3    H215623   1.391   6.919   2.690
 5228TIP3   OH215624   1.075   7.238   1.739
 5228TIP3    H115625   1.007   7.167   1.742
 5228TIP3    H215626   1.064   7.277   1.828
 5229TIP3   OH215627   1.970   7.486   2.369
 5229TIP3    H115628   1.990   7.534   2.287
 5229TIP3    H215629   1.886   7.441   2.347
 5230TIP3   OH215630   1.531   6.559   1.602
 5230TIP3    H115631   1.435   6.540   1.605
 5230TIP3    H215632   1.535   6.656   1.615
 5231TIP3   OH215633   1.451   7.535   2.740
 5231TIP3    H115634   1.485   7.504   2.824
 5231TIP3    H215635   1.443   7.630   2.756
 5232TIP3   OH215636   1.600   6.812   1.704
 5232TIP3    H115637   1.697   6.819   1.711
 5232TIP3    H215638   1.578   6.887   1.646
 5233TIP3   OH215639   0.763   7.259   2.408
 5233TIP3    H115640   0.805   7.228   2.326
 5233TIP3    H215641   0.798   7.198   2.475
 5234TIP3   OH215642   1.237   7.458   1.624
 5234TIP3    H115643   1.192   7.497   1.547
 5234TIP3    H215644   1.205   7.366   1.616
 5235TIP3   OH215645   0.647   7.189   3.026
 5235TIP3    H115646   0.662   7.175   3.121
 5235TIP3    H215647   0.576   7.125   3.008
 5236TIP3   OH215648   1.369   7.304   3.040
 5236TIP3    H115649   1.308   7.242   2.997
 5236TIP3    H215650   1.456   7.267   3.013
 5237TIP3   OH215651   1.605   7.766   2.671
 5237TIP3    H115652   1.557   7.828   2.617
 5237TIP3    H215653   1.650   7.825   2.735
 5238TIP3   OH215654   2.041   6.898   1.538
 5238TIP3    H115655   1.980   6.853   1.474
 5238TIP3    H215656   2.042   6.985   1.494
 5239TIP3   OH215657   2.257   7.728   2.618
 5239TIP3    H115658   2.160   7.725   2.600
 5239TIP3    H215659   2.291   7.710   2.527
 5240TIP3   OH215660   1.768   7.667   1.422
 5240TIP3    H115661   1.744   7.601   1.489
 5240TIP3    H215662   1.723   7.627   1.346
 5241TIP3   OH215663   1.737   7.347   2.285
 5241TIP3    H115664   1.644   7.322   2.298
 5241TIP3    H215665   1.771   7.268   2.239
 5242TIP3   OH215666   0.923   7.568   2.012
 5242TIP3    H115667   0.937   7.650   1.963
 5242TIP3    H215668   0.829   7.552   1.993
 5243TIP3   OH215669   1.031   7.320   1.989
 5243TIP3    H115670   1.000   7.412   2.001
 5243TIP3    H215671   0.982   7.273   2.059
 5244TIP3   OH215672   1.527   7.544   2.467
 5244TIP3    H115673   1.511   7.540   2.564
 5244TIP3    H215674   1.603   7.484   2.457
 5245TIP3   OH215675   1.568   7.487   1.363
 5245TIP3    H115676   1.591   7.431   1.441
 5245TIP3    H215677   1.470   7.475   1.361
 5246TIP3   OH215678   0.854   6.697   3.032
 5246TIP3    H115679   0.760   6.708   3.053
 5246TIP3    H215680   0.883   6.641   3.105
 5247TIP3   OH215681   1.663   7.356   1.580
 5247TIP3    H115682   1.650   7.285   1.646
 5247TIP3    H215683   1.761   7.353   1.569
 5248TIP3   OH215684   1.698   6.757   2.706
 5248TIP3    H115685   1.771   6.798   2.756
 5248TIP3    H215686   1.677   6.679   2.762
 5249TIP3   OH215687   1.571   6.516   1.878
 5249TIP3    H115688   1.554   6.533   1.783
 5249TIP3    H215689   1.604   6.602   1.909
 5250TIP3   OH215690   1.268   6.692   1.981
 5250TIP3    H115691   1.330   6.766   1.964
 5250TIP3    H215692   1.268   6.687   2.079
 5251TIP3   OH215693   1.535   7.014   2.787
 5251TIP3    H115694   1.547   7.068   2.868
 5251TIP3    H215695   1.585   6.934   2.808
 5252TIP3   OH215696   1.409   6.425   2.087
 5252TIP3    H115697   1.397   6.505   2.140
 5252TIP3    H215698   1.467   6.458   2.015
 5253TIP3   OH215699   0.919   6.417   1.873
 5253TIP3    H115700   0.918   6.508   1.906
 5253TIP3    H215701   1.015   6.397   1.879
 5254TIP3   OH215702   2.174   6.913   2.767
 5254TIP3    H115703   2.076   6.912   2.778
 5254TIP3    H215704   2.182   6.865   2.683
 5255TIP3   OH215705   1.823   7.107   2.156
 5255TIP3    H115706   1.745   7.050   2.170
 5255TIP3    H215707   1.892   7.059   2.206
 5256TIP3   OH215708   0.868   6.330   2.635
 5256TIP3    H115709   0.837   6.296   2.548
 5256TIP3    H215710   0.855   6.252   2.693
 5257TIP3   OH215711   1.706   7.940   2.852
 5257TIP3    H115712   1.651   7.894   2.920
 5257TIP3    H215713   1.785   7.951   2.907
 5258TIP3   OH215714   0.701   7.481   3.278
 5258TIP3    H115715   0.718   7.386   3.291
 5258TIP3    H215716   0.610   7.478   3.240
 5259TIP3   OH215717   1.311   7.573   3.067
 5259TIP3    H115718   1.267   7.591   2.981
 5259TIP3    H215719   1.336   7.479   3.056
 5260TIP3   OH215720   1.800   7.574   2.660
 5260TIP3    H115721   1.869   7.630   2.619
 5260TIP3    H215722   1.723   7.635   2.659
 5261TIP3   OH215723   0.814   7.228   3.266
 5261TIP3    H115724   0.877   7.156   3.254
 5261TIP3    H215725   0.839   7.259   3.356
 5262TIP3   OH215726   0.872   7.059   1.732
 5262TIP3    H115727   0.861   6.999   1.807
 5262TIP3    H215728   0.891   6.996   1.660
 5263TIP3   OH215729   1.149   7.118   2.931
 5263TIP3    H115730   1.069   7.174   2.932
 5263TIP3    H215731   1.196   7.150   2.850
 5264TIP3   OH215732   0.995   6.823   1.595
 5264TIP3    H115733   0.978   6.814   1.499
 5264TIP3    H215734   1.092   6.834   1.592
 5265TIP3   OH215735   1.668   7.517   3.064
 5265TIP3    H115736   1.748   7.489   3.018
 5265TIP3    H215737   1.659   7.448   3.133
 5266TIP3   OH215738   1.804   7.176   1.204
 5266TIP3    H115739   1.784   7.132   1.119
 5266TIP3    H215740   1.777   7.268   1.181
 5267TIP3   OH215741   1.272   6.903   3.055
 5267TIP3    H115742   1.269   6.822   3.001
 5267TIP3    H215743   1.225   6.968   2.998
 5268TIP3   OH215744   1.273   6.689   2.861
 5268TIP3    H115745   1.298   6.728   2.775
 5268TIP3    H215746   1.178   6.666   2.845
 5269TIP3   OH215747   1.301   7.224   2.731
 5269TIP3    H115748   1.384   7.235   2.684
 5269TIP3    H215749   1.246   7.295   2.693
 5270TIP3   OH215750   1.882   7.192   3.114
 5270TIP3    H115751   1.928   7.110   3.138
 5270TIP3    H215752   1.955   7.247   3.084
 5271TIP3   OH215753   1.924   7.445   2.858
 5271TIP3    H115754   1.866   7.493   2.795
 5271TIP3    H215755   2.012   7.462   2.817
 5272TIP3   OH215756   1.146   7.021   3.282
 5272TIP3    H115757   1.080   6.952   3.301
 5272TIP3    H215758   1.183   6.988   3.197
 5273TIP3   OH215759   1.405   6.452   2.925
 5273TIP3    H115760   1.355   6.534   2.907
 5273TIP3    H215761   1.336   6.384   2.917
 5274TIP3   OH215762   1.531   6.961   3.145
 5274TIP3    H115763   1.524   6.944   3.241
 5274TIP3    H215764   1.441   6.935   3.118
 5275TIP3   OH215765   1.770   6.905   3.000
 5275TIP3    H115766   1.696   6.908   3.063
 5275TIP3    H215767   1.844   6.874   3.056
 5276TIP3   OH215768   2.003   6.846   3.148
 5276TIP3    H115769   2.012   6.751   3.170
 5276TIP3    H215770   1.995   6.887   3.237
 5277TIP3   OH215771   0.998   6.794   3.337
 5277TIP3    H115772   1.000   6.701   3.305
 5277TIP3    H215773   1.031   6.782   3.428
 5278TIP3   OH215774   1.501   6.464   3.184
 5278TIP3    H115775   1.568   6.393   3.182
 5278TIP3    H215776   1.461   6.455   3.095
 5279TIP3   OH215777   1.570   6.684   3.339
 5279TIP3    H115778   1.545   6.610   3.280
 5279TIP3    H215779   1.490   6.740   3.338
 5280TIP3   OH215780   2.122   7.870   2.894
 5280TIP3    H115781   2.052   7.854   2.961
 5280TIP3    H215782   2.178   7.933   2.940
 5281TIP3   OH215783   1.934   7.362   1.542
 5281TIP3    H115784   1.999   7.428   1.508
 5281TIP3    H215785   1.984   7.324   1.618
 5282TIP3   OH215786   2.064   7.231   1.742
 5282TIP3    H115787   1.998   7.187   1.800
 5282TIP3    H215788   2.128   7.268   1.807
 5283TIP3   OH215789   2.116   7.618   2.179
 5283TIP3    H115790   2.164   7.552   2.126
 5283TIP3    H215791   2.081   7.679   2.113
 5284TIP3   OH215792   2.004   7.139   1.391
 5284TIP3    H115793   1.934   7.136   1.322
 5284TIP3    H215794   1.972   7.214   1.444
 5285TIP3   OH215795   1.872   6.813   1.346
 5285TIP3    H115796   1.833   6.848   1.265
 5285TIP3    H215797   1.846   6.718   1.338
 5286TIP3   OH215798   1.885   7.084   1.892
 5286TIP3    H115799   1.886   6.988   1.881
 5286TIP3    H215800   1.870   7.095   1.988
 5287TIP3   OH215801   0.504   7.167   2.634
 5287TIP3    H115802   0.503   7.137   2.541
 5287TIP3    H215803   0.601   7.165   2.653
 5288TIP3   OH215804   2.165   7.506   2.746
 5288TIP3    H115805   2.236   7.438   2.741
 5288TIP3    H215806   2.201   7.576   2.689
 5289TIP3   OH215807   2.352   7.316   2.763
 5289TIP3    H115808   2.279   7.263   2.802
 5289TIP3    H215809   2.427   7.254   2.776
 5290TIP3   OH215810   1.814   6.548   1.342
 5290TIP3    H115811   1.887   6.505   1.389
 5290TIP3    H215812   1.740   6.486   1.351
 5291TIP3   OH215813   1.880   6.803   1.786
 5291TIP3    H115814   1.918   6.713   1.797
 5291TIP3    H215815   1.931   6.835   1.710
 5292TIP3   OH215816   2.033   6.974   2.276
 5292TIP3    H115817   2.120   7.002   2.238
 5292TIP3    H215818   2.045   7.010   2.367
 5293TIP3   OH215819   2.101   7.118   2.508
 5293TIP3    H115820   2.024   7.152   2.559
 5293TIP3    H215821   2.134   7.200   2.466
 5294TIP3   OH215822   0.738   6.868   3.308
 5294TIP3    H115823   0.832   6.840   3.315
 5294TIP3    H215824   0.692   6.789   3.343
 5295TIP3   OH215825   2.555   6.711   3.066
 5295TIP3    H115826   2.615   6.645   3.025
 5295TIP3    H215827   2.529   6.766   2.989
 5296TIP3   OH215828   1.988   6.544   1.831
 5296TIP3    H115829   1.992   6.520   1.924
 5296TIP3    H215830   1.922   6.478   1.800
 5297TIP3   OH215831   0.683   6.536   2.635
 5297TIP3    H115832   0.744   6.462   2.649
 5297TIP3    H215833   0.744   6.611   2.635
 5298TIP3   OH215834   0.486   6.812   2.711
 5298TIP3    H115835   0.537   6.809   2.628
 5298TIP3    H215836   0.516   6.894   2.751
 5299TIP3   OH215837   2.429   6.853   2.870
 5299TIP3    H115838   2.343   6.891   2.897
 5299TIP3    H215839   2.398   6.780   2.814
 5300TIP3   OH215840   2.075   6.484   1.459
 5300TIP3    H115841   2.101   6.414   1.395
 5300TIP3    H215842   2.132   6.559   1.433
 5301TIP3   OH215843   0.474   6.326   2.223
 5301TIP3    H115844   0.382   6.311   2.250
 5301TIP3    H215845   0.463   6.383   2.144
 5302TIP3   OH215846   0.691   6.395   3.027
 5302TIP3    H115847   0.644   6.398   3.112
 5302TIP3    H215848   0.623   6.433   2.968
 5303TIP3   OH215849   0.775   7.807   3.118
 5303TIP3    H115850   0.760   7.725   3.068
 5303TIP3    H215851   0.766   7.778   3.210
 5304TIP3   OH215852   2.327   6.613   2.748
 5304TIP3    H115853   2.234   6.604   2.720
 5304TIP3    H215854   2.358   6.520   2.739
 5305TIP3   OH215855   1.533   6.530   2.372
 5305TIP3    H115856   1.485   6.465   2.426
 5305TIP3    H215857   1.595   6.475   2.322
 5306TIP3   OH215858   2.059   6.410   2.256
 5306TIP3    H115859   2.073   6.502   2.233
 5306TIP3    H215860   1.962   6.408   2.264
 5307TIP3   OH215861   0.779   6.240   2.385
 5307TIP3    H115862   0.687   6.207   2.384
 5307TIP3    H215863   0.827   6.154   2.381
 5308TIP3   OH215864   0.579   6.101   2.040
 5308TIP3    H115865   0.609   6.155   1.963
 5308TIP3    H215866   0.546   6.168   2.101
 5309TIP3   OH215867   1.221   6.272   2.265
 5309TIP3    H115868   1.283   6.320   2.208
 5309TIP3    H215869   1.242   6.308   2.352
 5310TIP3   OH215870   1.780   6.414   2.246
 5310TIP3    H115871   1.763   6.374   2.160
 5310TIP3    H215872   1.761   6.339   2.307
 5311TIP3   OH215873   1.799   6.343   1.810
 5311TIP3    H115874   1.708   6.377   1.818
 5311TIP3    H215875   1.789   6.258   1.858
 5312TIP3   OH215876   0.686   6.265   1.837
 5312TIP3    H115877   0.706   6.216   1.755
 5312TIP3    H215878   0.770   6.313   1.850
 5313TIP3   OH215879   1.194   6.444   1.895
 5313TIP3    H115880   1.249   6.389   1.953
 5313TIP3    H215881   1.224   6.533   1.923
 5314TIP3   OH215882   0.989   6.518   3.272
 5314TIP3    H115883   0.950   6.452   3.331
 5314TIP3    H215884   1.083   6.517   3.303
 5315TIP3   OH215885   1.236   6.513   3.394
 5315TIP3    H115886   1.323   6.488   3.360
 5315TIP3    H215887   1.223   6.445   3.464
 5316TIP3   OH215888   2.060   6.575   3.183
 5316TIP3    H115889   2.077   6.545   3.275
 5316TIP3    H215890   2.150   6.570   3.144
 5317TIP3   OH215891   3.266   7.496   1.449
 5317TIP3    H115892   3.242   7.588   1.427
 5317TIP3    H215893   3.192   7.448   1.408
 5318TIP3   OH215894   3.260   7.501   1.822
 5318TIP3    H115895   3.294   7.474   1.909
 5318TIP3    H215896   3.224   7.418   1.788
 5319TIP3   OH215897   2.564   7.400   2.190
 5319TIP3    H115898   2.590   7.330   2.252
 5319TIP3    H215899   2.646   7.451   2.184
 5320TIP3   OH215900   3.496   7.803   1.492
 5320TIP3    H115901   3.493   7.732   1.558
 5320TIP3    H215902   3.532   7.876   1.547
 5321TIP3   OH215903   2.556   7.757   1.969
 5321TIP3    H115904   2.563   7.666   1.931
 5321TIP3    H215905   2.628   7.799   1.917
 5322TIP3   OH215906   2.237   7.004   1.704
 5322TIP3    H115907   2.192   7.089   1.716
 5322TIP3    H215908   2.170   6.956   1.652
 5323TIP3   OH215909   2.302   7.295   1.869
 5323TIP3    H115910   2.352   7.218   1.905
 5323TIP3    H215911   2.359   7.322   1.795
 5324TIP3   OH215912   3.071   7.726   1.867
 5324TIP3    H115913   3.109   7.645   1.827
 5324TIP3    H215914   3.155   7.767   1.896
 5325TIP3   OH215915   4.075   7.049   1.868
 5325TIP3    H115916   4.105   7.130   1.913
 5325TIP3    H215917   4.097   7.070   1.775
 5326TIP3   OH215918   3.475   7.231   1.904
 5326TIP3    H115919   3.518   7.146   1.926
 5326TIP3    H215920   3.446   7.213   1.812
 5327TIP3   OH215921   2.808   6.885   1.869
 5327TIP3    H115922   2.791   6.957   1.806
 5327TIP3    H215923   2.763   6.810   1.825
 5328TIP3   OH215924   3.507   6.981   1.492
 5328TIP3    H115925   3.579   6.963   1.557
 5328TIP3    H215926   3.560   7.015   1.418
 5329TIP3   OH215927   2.448   7.090   1.974
 5329TIP3    H115928   2.531   7.071   2.023
 5329TIP3    H215929   2.463   7.033   1.895
 5330TIP3   OH215930   2.888   7.288   1.767
 5330TIP3    H115931   2.983   7.264   1.780
 5330TIP3    H215932   2.851   7.203   1.736
 5331TIP3   OH215933   4.149   7.254   2.038
 5331TIP3    H115934   4.066   7.302   2.020
 5331TIP3    H215935   4.164   7.279   2.131
 5332TIP3   OH215936   2.809   6.871   2.300
 5332TIP3    H115937   2.747   6.911   2.237
 5332TIP3    H215938   2.761   6.886   2.384
 5333TIP3   OH215939   3.179   7.717   1.305
 5333TIP3    H115940   3.118   7.685   1.236
 5333TIP3    H215941   3.154   7.810   1.316
 5334TIP3   OH215942   2.914   7.646   2.098
 5334TIP3    H115943   2.856   7.713   2.141
 5334TIP3    H215944   2.961   7.700   2.032
 5335TIP3   OH215945   3.720   6.980   1.661
 5335TIP3    H115946   3.712   6.930   1.742
 5335TIP3    H215947   3.774   7.057   1.689
 5336TIP3   OH215948   2.676   6.986   2.088
 5336TIP3    H115949   2.739   7.058   2.113
 5336TIP3    H215950   2.726   6.945   2.013
 5337TIP3   OH215951   2.745   7.844   2.192
 5337TIP3    H115952   2.705   7.904   2.127
 5337TIP3    H215953   2.669   7.829   2.253
 5338TIP3   OH215954   2.132   7.526   1.422
 5338TIP3    H115955   2.089   7.535   1.334
 5338TIP3    H215956   2.141   7.621   1.441
 5339TIP3   OH215957   3.570   8.006   1.653
 5339TIP3    H115958   3.498   8.028   1.715
 5339TIP3    H215959   3.599   8.094   1.622
 5340TIP3   OH215960   3.868   6.949   2.034
 5340TIP3    H115961   3.781   6.979   2.003
 5340TIP3    H215962   3.928   6.981   1.963
 5341TIP3   OH215963   3.165   6.590   2.012
 5341TIP3    H115964   3.157   6.495   2.034
 5341TIP3    H215965   3.089   6.627   2.062
 5342TIP3   OH215966   3.472   7.848   1.225
 5342TIP3    H115967   3.415   7.772   1.203
 5342TIP3    H215968   3.502   7.822   1.316
 5343TIP3   OH215969   3.801   7.966   2.010
 5343TIP3    H115970   3.794   7.884   1.956
 5343TIP3    H215971   3.779   8.034   1.946
 5344TIP3   OH215972   3.101   7.358   1.267
 5344TIP3    H115973   3.013   7.394   1.245
 5344TIP3    H215974   3.134   7.331   1.180
 5345TIP3   OH215975   3.070   7.182   0.996
 5345TIP3    H115976   3.159   7.158   1.026
 5345TIP3    H215977   3.021   7.097   0.995
 5346TIP3   OH215978   3.999   7.595   1.859
 5346TIP3    H115979   3.917   7.649   1.864
 5346TIP3    H215980   4.030   7.620   1.769
 5347TIP3   OH215981   3.450   7.449   1.251
 5347TIP3    H115982   3.394   7.463   1.331
 5347TIP3    H215983   3.532   7.415   1.292
 5348TIP3   OH215984   3.679   7.477   2.154
 5348TIP3    H115985   3.676   7.559   2.206
 5348TIP3    H215986   3.593   7.481   2.109
 5349TIP3   OH215987   2.682   7.435   1.656
 5349TIP3    H115988   2.634   7.376   1.594
 5349TIP3    H215989   2.755   7.378   1.687
 5350TIP3   OH215990   2.797   7.804   1.824
 5350TIP3    H115991   2.813   7.760   1.739
 5350TIP3    H215992   2.889   7.812   1.854
 5351TIP3   OH215993   2.808   7.406   2.013
 5351TIP3    H115994   2.848   7.383   1.926
 5351TIP3    H215995   2.855   7.490   2.036
 5352TIP3   OH215996   3.345   8.039   1.813
 5352TIP3    H115997   3.313   8.084   1.892
 5352TIP3    H215998   3.338   7.946   1.843
 5353TIP3   OH215999   2.942   7.934   2.360
 5353TIP3    H116000   2.901   7.975   2.439
 5353TIP3    H216001   2.869   7.889   2.316
 5354TIP3   OH216002   3.313   7.294   1.078
 5354TIP3    H116003   3.360   7.356   1.139
 5354TIP3    H216004   3.314   7.342   0.995
 5355TIP3   OH216005   2.703   7.521   2.436
 5355TIP3    H116006   2.710   7.608   2.483
 5355TIP3    H216007   2.608   7.502   2.451
 5356TIP3   OH216008   3.801   6.535   1.118
 5356TIP3    H116009   3.719   6.554   1.168
 5356TIP3    H216010   3.813   6.619   1.069
 5357TIP3   OH216011   2.537   7.279   1.475
 5357TIP3    H116012   2.475   7.322   1.412
 5357TIP3    H216013   2.506   7.188   1.472
 5358TIP3   OH216014   2.322   7.655   2.365
 5358TIP3    H116015   2.246   7.627   2.311
 5358TIP3    H216016   2.360   7.570   2.397
 5359TIP3   OH216017   2.241   7.860   2.031
 5359TIP3    H116018   2.239   7.920   1.954
 5359TIP3    H216019   2.176   7.906   2.088
 5360TIP3   OH216020   3.971   8.248   2.072
 5360TIP3    H116021   3.992   8.157   2.102
 5360TIP3    H216022   3.909   8.277   2.140
 5361TIP3   OH216023   3.933   7.436   2.335
 5361TIP3    H116024   3.851   7.447   2.284
 5361TIP3    H216025   3.949   7.340   2.325
 5362TIP3   OH216026   2.530   7.826   2.347
 5362TIP3    H116027   2.576   7.841   2.432
 5362TIP3    H216028   2.456   7.769   2.376
 5363TIP3   OH216029   2.926   6.667   2.145
 5363TIP3    H116030   2.835   6.640   2.120
 5363TIP3    H216031   2.906   6.750   2.192
 5364TIP3   OH216032   3.462   6.782   2.339
 5364TIP3    H116033   3.531   6.754   2.403
 5364TIP3    H216034   3.379   6.762   2.386
 5365TIP3   OH216035   3.700   7.211   2.257
 5365TIP3    H116036   3.652   7.206   2.342
 5365TIP3    H216037   3.677   7.299   2.224
 5366TIP3   OH216038   3.083   6.711   1.118
 5366TIP3    H116039   3.039   6.711   1.205
 5366TIP3    H216040   3.038   6.635   1.077
 5367TIP3   OH216041   2.855   7.183   2.162
 5367TIP3    H116042   2.812   7.208   2.246
 5367TIP3    H216043   2.841   7.264   2.109
 5368TIP3   OH216044   2.744   7.068   1.678
 5368TIP3    H116045   2.650   7.045   1.692
 5368TIP3    H216046   2.758   7.032   1.587
 5369TIP3   OH216047   3.235   7.156   1.405
 5369TIP3    H116048   3.184   7.227   1.362
 5369TIP3    H216049   3.289   7.123   1.331
 5370TIP3   OH216050   3.409   7.433   2.490
 5370TIP3    H116051   3.388   7.360   2.553
 5370TIP3    H216052   3.503   7.449   2.513
 5371TIP3   OH216053   3.391   7.184   1.645
 5371TIP3    H116054   3.331   7.211   1.572
 5371TIP3    H216055   3.426   7.102   1.604
 5372TIP3   OH216056   2.672   7.212   2.373
 5372TIP3    H116057   2.712   7.274   2.437
 5372TIP3    H216058   2.667   7.130   2.426
 5373TIP3   OH216059   2.709   6.655   1.091
 5373TIP3    H116060   2.700   6.686   1.183
 5373TIP3    H216061   2.701   6.737   1.040
 5374TIP3   OH216062   2.258   6.714   1.501
 5374TIP3    H116063   2.299   6.744   1.416
 5374TIP3    H216064   2.189   6.782   1.506
 5375TIP3   OH216065   3.400   7.431   2.067
 5375TIP3    H116066   3.434   7.358   2.010
 5375TIP3    H216067   3.373   7.379   2.146
 5376TIP3   OH216068   3.070   6.897   1.741
 5376TIP3    H116069   2.990   6.890   1.796
 5376TIP3    H216070   3.141   6.888   1.807
 5377TIP3   OH216071   2.503   6.945   1.745
 5377TIP3    H116072   2.408   6.955   1.719
 5377TIP3    H216073   2.523   6.854   1.718
 5378TIP3   OH216074   2.774   6.949   1.431
 5378TIP3    H116075   2.869   6.957   1.411
 5378TIP3    H216076   2.731   6.969   1.344
 5379TIP3   OH216077   3.562   6.968   1.940
 5379TIP3    H116078   3.528   6.979   2.032
 5379TIP3    H216079   3.498   6.904   1.904
 5380TIP3   OH216080   2.615   6.977   1.207
 5380TIP3    H116081   2.536   6.939   1.162
 5380TIP3    H216082   2.672   6.989   1.127
 5381TIP3   OH216083   2.692   7.764   2.578
 5381TIP3    H116084   2.775   7.790   2.623
 5381TIP3    H216085   2.632   7.762   2.655
 5382TIP3   OH216086   3.153   7.219   1.836
 5382TIP3    H116087   3.226   7.179   1.785
 5382TIP3    H216088   3.164   7.177   1.923
 5383TIP3   OH216089   2.682   6.692   1.710
 5383TIP3    H116090   2.692   6.596   1.720
 5383TIP3    H216091   2.727   6.707   1.626
 5384TIP3   OH216092   3.131   7.114   2.128
 5384TIP3    H116093   3.043   7.153   2.141
 5384TIP3    H216094   3.190   7.174   2.177
 5385TIP3   OH216095   2.860   7.508   1.220
 5385TIP3    H116096   2.795   7.434   1.209
 5385TIP3    H216097   2.849   7.530   1.316
 5386TIP3   OH216098   3.768   7.745   1.853
 5386TIP3    H116099   3.794   7.792   1.771
 5386TIP3    H216100   3.684   7.702   1.827
 5387TIP3   OH216101   3.330   6.817   1.083
 5387TIP3    H116102   3.234   6.796   1.091
 5387TIP3    H216103   3.334   6.912   1.105
 5388TIP3   OH216104   3.243   7.792   2.231
 5388TIP3    H116105   3.280   7.766   2.317
 5388TIP3    H216106   3.247   7.888   2.238
 5389TIP3   OH216107   3.397   7.063   1.193
 5389TIP3    H116108   3.493   7.065   1.206
 5389TIP3    H216109   3.382   7.142   1.137
 5390TIP3   OH216110   2.557   7.497   1.892
 5390TIP3    H116111   2.598   7.475   1.806
 5390TIP3    H216112   2.610   7.445   1.954
 5391TIP3   OH216113   2.996   7.664   1.046
 5391TIP3    H116114   2.954   7.742   1.084
 5391TIP3    H216115   2.951   7.593   1.096
 5392TIP3   OH216116   2.436   7.455   2.514
 5392TIP3    H116117   2.466   7.441   2.606
 5392TIP3    H216118   2.374   7.381   2.502
 5393TIP3   OH216119   3.166   7.558   2.531
 5393TIP3    H116120   3.109   7.500   2.478
 5393TIP3    H216121   3.255   7.528   2.505
 5394TIP3   OH216122   3.393   8.022   2.161
 5394TIP3    H116123   3.357   8.090   2.104
 5394TIP3    H216124   3.448   8.077   2.221
 5395TIP3   OH216125   3.838   7.154   1.021
 5395TIP3    H116126   3.772   7.111   0.961
 5395TIP3    H216127   3.836   7.243   0.980
 5396TIP3   OH216128   4.051   7.985   2.110
 5396TIP3    H116129   3.955   7.983   2.089
 5396TIP3    H216130   4.087   7.970   2.019
 5397TIP3   OH216131   3.557   7.920   0.919
 5397TIP3    H116132   3.540   7.841   0.972
 5397TIP3    H216133   3.543   7.891   0.828
 5398TIP3   OH216134   3.532   7.604   1.771
 5398TIP3    H116135   3.439   7.577   1.783
 5398TIP3    H216136   3.569   7.525   1.726
 5399TIP3   OH216137   2.658   7.808   1.472
 5399TIP3    H116138   2.678   7.894   1.432
 5399TIP3    H216139   2.569   7.793   1.437
 5400TIP3   OH216140   2.223   7.138   1.220
 5400TIP3    H116141   2.269   7.221   1.244
 5400TIP3    H216142   2.148   7.138   1.283
 5401TIP3   OH216143   2.820   7.589   1.473
 5401TIP3    H116144   2.766   7.670   1.478
 5401TIP3    H216145   2.781   7.536   1.545
 5402TIP3   OH216146   3.323   7.801   1.954
 5402TIP3    H116147   3.309   7.797   2.051
 5402TIP3    H216148   3.402   7.746   1.943
 5403TIP3   OH216149   3.277   7.607   0.815
 5403TIP3    H116150   3.330   7.607   0.899
 5403TIP3    H216151   3.215   7.681   0.837
 5404TIP3   OH216152   2.654   6.954   2.519
 5404TIP3    H116153   2.559   6.958   2.537
 5404TIP3    H216154   2.685   6.895   2.590
 5405TIP3   OH216155   3.450   7.619   1.033
 5405TIP3    H116156   3.440   7.564   1.114
 5405TIP3    H216157   3.548   7.623   1.029
 5406TIP3   OH216158   2.675   7.651   0.847
 5406TIP3    H116159   2.681   7.555   0.827
 5406TIP3    H216160   2.643   7.652   0.939
 5407TIP3   OH216161   2.611   7.690   1.119
 5407TIP3    H116162   2.676   7.649   1.177
 5407TIP3    H216163   2.610   7.782   1.150
 5408TIP3   OH216164   2.343   7.385   1.308
 5408TIP3    H116165   2.274   7.428   1.363
 5408TIP3    H216166   2.352   7.452   1.238
 5409TIP3   OH216167   3.487   7.018   2.199
 5409TIP3    H116168   3.567   7.057   2.239
 5409TIP3    H216169   3.473   6.938   2.254
 5410TIP3   OH216170   3.366   6.772   1.364
 5410TIP3    H116171   3.354   6.792   1.270
 5410TIP3    H216172   3.405   6.855   1.398
 5411TIP3   OH216173   3.058   6.950   1.468
 5411TIP3    H116174   3.124   7.021   1.450
 5411TIP3    H216175   3.064   6.942   1.566
 5412TIP3   OH216176   3.329   7.270   2.275
 5412TIP3    H116177   3.348   7.323   2.355
 5412TIP3    H216178   3.383   7.190   2.290
 5413TIP3   OH216179   3.203   6.679   1.569
 5413TIP3    H116180   3.202   6.754   1.631
 5413TIP3    H216181   3.263   6.713   1.499
 5414TIP3   OH216182   2.709   6.679   1.376
 5414TIP3    H116183   2.718   6.774   1.395
 5414TIP3    H216184   2.803   6.653   1.372
 5415TIP3   OH216185   3.968   7.170   2.254
 5415TIP3    H116186   3.870   7.166   2.262
 5415TIP3    H216187   3.980   7.127   2.169
 5416TIP3   OH216188   3.619   7.364   1.643
 5416TIP3    H116189   3.544   7.303   1.656
 5416TIP3    H216190   3.692   7.318   1.690
 5417TIP3   OH216191   2.329   7.588   1.114
 5417TIP3    H116192   2.375   7.673   1.117
 5417TIP3    H216193   2.385   7.540   1.049
 5418TIP3   OH216194   2.262   6.865   1.268
 5418TIP3    H116195   2.272   6.959   1.247
 5418TIP3    H216196   2.215   6.832   1.191
 5419TIP3   OH216197   2.661   6.570   2.112
 5419TIP3    H116198   2.685   6.507   2.043
 5419TIP3    H216199   2.655   6.509   2.189
 5420TIP3   OH216200   3.506   8.197   2.335
 5420TIP3    H116201   3.452   8.148   2.402
 5420TIP3    H216202   3.582   8.212   2.392
 5421TIP3   OH216203   2.491   7.739   2.765
 5421TIP3    H116204   2.519   7.645   2.771
 5421TIP3    H216205   2.402   7.731   2.727
 5422TIP3   OH216206   2.473   7.410   0.964
 5422TIP3    H116207   2.520   7.361   1.034
 5422TIP3    H216208   2.539   7.404   0.892
 5423TIP3   OH216209   3.118   7.839   2.543
 5423TIP3    H116210   3.063   7.854   2.464
 5423TIP3    H216211   3.129   7.742   2.544
 5424TIP3   OH216212   2.985   7.595   0.764
 5424TIP3    H116213   2.972   7.613   0.859
 5424TIP3    H216214   2.981   7.498   0.762
 5425TIP3   OH216215   3.594   7.831   2.147
 5425TIP3    H116216   3.664   7.883   2.104
 5425TIP3    H216217   3.519   7.894   2.146
 5426TIP3   OH216218   2.609   7.482   2.751
 5426TIP3    H116219   2.688   7.430   2.732
 5426TIP3    H216220   2.633   7.517   2.840
 5427TIP3   OH216221   2.688   7.295   1.184
 5427TIP3    H116222   2.653   7.245   1.259
 5427TIP3    H216223   2.719   7.222   1.126
 5428TIP3   OH216224   2.938   7.365   2.410
 5428TIP3    H116225   2.868   7.433   2.418
 5428TIP3    H216226   2.993   7.402   2.337
 5429TIP3   OH216227   3.459   7.765   2.546
 5429TIP3    H116228   3.546   7.751   2.508
 5429TIP3    H216229   3.458   7.701   2.620
 5430TIP3   OH216230   3.588   7.437   0.705
 5430TIP3    H116231   3.568   7.381   0.627
 5430TIP3    H216232   3.593   7.523   0.661
 5431TIP3   OH216233   3.066   7.159   2.543
 5431TIP3    H116234   3.067   7.078   2.489
 5431TIP3    H216235   3.022   7.224   2.484
 5432TIP3   OH216236   3.068   6.945   2.350
 5432TIP3    H116237   3.097   6.987   2.266
 5432TIP3    H216238   2.974   6.924   2.330
 5433TIP3   OH216239   3.095   7.477   2.219
 5433TIP3    H116240   3.182   7.489   2.179
 5433TIP3    H216241   3.044   7.551   2.181
 5434TIP3   OH216242   3.679   7.449   2.605
 5434TIP3    H116243   3.728   7.366   2.617
 5434TIP3    H216244   3.748   7.508   2.572
 5435TIP3   OH216245   3.720   7.700   2.343
 5435TIP3    H116246   3.662   7.749   2.281
 5435TIP3    H216247   3.808   7.718   2.302
 5436TIP3   OH216248   2.940   7.274   2.771
 5436TIP3    H116249   2.874   7.204   2.786
 5436TIP3    H216250   2.978   7.247   2.685
 5437TIP3   OH216251   3.202   6.710   2.414
 5437TIP3    H116252   3.151   6.791   2.394
 5437TIP3    H216253   3.133   6.641   2.405
 5438TIP3   OH216254   3.328   7.216   2.633
 5438TIP3    H116255   3.320   7.204   2.729
 5438TIP3    H216256   3.237   7.190   2.606
 5439TIP3   OH216257   3.566   7.162   2.487
 5439TIP3    H116258   3.492   7.165   2.550
 5439TIP3    H216259   3.641   7.132   2.543
 5440TIP3   OH216260   3.793   7.103   2.637
 5440TIP3    H116261   3.807   7.008   2.657
 5440TIP3    H216262   3.792   7.143   2.727
 5441TIP3   OH216263   2.784   7.053   2.824
 5441TIP3    H116264   2.791   6.962   2.791
 5441TIP3    H216265   2.820   7.043   2.914
 5442TIP3   OH216266   3.297   6.721   2.672
 5442TIP3    H116267   3.364   6.650   2.669
 5442TIP3    H216268   3.258   6.712   2.582
 5443TIP3   OH216269   3.363   6.935   2.832
 5443TIP3    H116270   3.341   6.864   2.768
 5443TIP3    H216271   3.284   6.994   2.826
 5444TIP3   OH216272   2.067   7.526   1.141
 5444TIP3    H116273   2.161   7.554   1.134
 5444TIP3    H216274   2.067   7.440   1.094
 5445TIP3   OH216275   3.919   8.124   2.383
 5445TIP3    H116276   3.848   8.111   2.450
 5445TIP3    H216277   3.973   8.192   2.425
 5446TIP3   OH216278   3.726   7.621   1.026
 5446TIP3    H116279   3.795   7.684   0.996
 5446TIP3    H216280   3.771   7.581   1.105
 5447TIP3   OH216281   3.856   7.488   1.227
 5447TIP3    H116282   3.793   7.445   1.288
 5447TIP3    H216283   3.925   7.524   1.288
 5448TIP3   OH216284   3.907   7.871   1.659
 5448TIP3    H116285   3.965   7.810   1.610
 5448TIP3    H216286   3.916   7.953   1.605
 5449TIP3   OH216287   3.801   7.397   0.873
 5449TIP3    H116288   3.726   7.394   0.810
 5449TIP3    H216289   3.770   7.470   0.930
 5450TIP3   OH216290   3.666   7.071   0.830
 5450TIP3    H116291   3.634   7.103   0.744
 5450TIP3    H216292   3.637   6.977   0.825
 5451TIP3   OH216293   3.673   7.342   1.375
 5451TIP3    H116294   3.682   7.246   1.368
 5451TIP3    H216295   3.661   7.355   1.472
 5452TIP3   OH216296   2.305   7.433   2.109
 5452TIP3    H116297   2.306   7.394   2.019
 5452TIP3    H216298   2.401   7.424   2.133
 5453TIP3   OH216299   3.960   7.761   2.233
 5453TIP3    H116300   4.033   7.695   2.227
 5453TIP3    H216301   3.994   7.832   2.176
 5454TIP3   OH216302   4.150   7.574   2.252
 5454TIP3    H116303   4.076   7.522   2.290
 5454TIP3    H216304   4.223   7.510   2.264
 5455TIP3   OH216305   3.613   6.804   0.819
 5455TIP3    H116306   3.686   6.770   0.874
 5455TIP3    H216307   3.538   6.745   0.838
 5456TIP3   OH216308   3.671   7.058   1.271
 5456TIP3    H116309   3.710   6.969   1.287
 5456TIP3    H216310   3.730   7.088   1.199
 5457TIP3   OH216311   3.832   7.236   1.764
 5457TIP3    H116312   3.918   7.261   1.725
 5457TIP3    H216313   3.845   7.271   1.854
 5458TIP3   OH216314   3.899   7.376   1.997
 5458TIP3    H116315   3.821   7.411   2.045
 5458TIP3    H216316   3.932   7.457   1.952
 5459TIP3   OH216317   2.518   7.104   2.794
 5459TIP3    H116318   2.616   7.097   2.797
 5459TIP3    H216319   2.493   7.020   2.835
 5460TIP3   OH216320   4.346   6.963   2.552
 5460TIP3    H116321   4.410   6.901   2.511
 5460TIP3    H216322   4.324   7.022   2.477
 5461TIP3   OH216323   3.778   6.809   1.307
 5461TIP3    H116324   3.827   6.793   1.391
 5461TIP3    H216325   3.718   6.732   1.307
 5462TIP3   OH216326   2.471   6.779   2.116
 5462TIP3    H116327   2.539   6.712   2.134
 5462TIP3    H216328   2.524   6.860   2.113
 5463TIP3   OH216329   2.281   7.068   2.197
 5463TIP3    H116330   2.332   7.069   2.114
 5463TIP3    H216331   2.316   7.145   2.243
 5464TIP3   OH216332   4.225   7.110   2.357
 5464TIP3    H116333   4.139   7.149   2.382
 5464TIP3    H216334   4.194   7.037   2.300
 5465TIP3   OH216335   3.862   6.744   0.941
 5465TIP3    H116336   3.900   6.671   0.888
 5465TIP3    H216337   3.930   6.814   0.933
 5466TIP3   OH216338   2.263   6.582   1.743
 5466TIP3    H116339   2.163   6.569   1.734
 5466TIP3    H216340   2.275   6.635   1.656
 5467TIP3   OH216341   2.486   6.658   2.515
 5467TIP3    H116342   2.436   6.645   2.598
 5467TIP3    H216343   2.415   6.690   2.456
 5468TIP3   OH216344   2.506   8.025   2.576
 5468TIP3    H116345   2.457   7.949   2.607
 5468TIP3    H216346   2.589   8.021   2.628
 5469TIP3   OH216347   4.123   6.871   2.236
 5469TIP3    H116348   4.031   6.865   2.204
 5469TIP3    H216349   4.152   6.778   2.226
 5470TIP3   OH216350   3.322   6.785   1.850
 5470TIP3    H116351   3.282   6.716   1.906
 5470TIP3    H216352   3.398   6.738   1.810
 5471TIP3   OH216353   3.852   6.666   1.761
 5471TIP3    H116354   3.887   6.718   1.686
 5471TIP3    H216355   3.756   6.682   1.754
 5472TIP3   OH216356   3.945   6.768   1.524
 5472TIP3    H116357   4.018   6.717   1.484
 5472TIP3    H216358   3.978   6.860   1.509
 5473TIP3   OH216359   2.379   6.366   1.523
 5473TIP3    H116360   2.408   6.411   1.441
 5473TIP3    H216361   2.307   6.423   1.553
 5474TIP3   OH216362   3.013   6.534   1.757
 5474TIP3    H116363   3.071   6.577   1.692
 5474TIP3    H216364   3.051   6.563   1.841
 5475TIP3   OH216365   3.567   6.673   1.736
 5475TIP3    H116366   3.565   6.635   1.647
 5475TIP3    H216367   3.553   6.593   1.792
 5476TIP3   OH216368   3.596   6.595   1.298
 5476TIP3    H116369   3.507   6.634   1.306
 5476TIP3    H216370   3.582   6.510   1.346
 5477TIP3   OH216371   2.478   6.516   1.292
 5477TIP3    H116372   2.524   6.461   1.226
 5477TIP3    H216373   2.552   6.574   1.322
 5478TIP3   OH216374   2.987   6.701   1.384
 5478TIP3    H116375   3.049   6.650   1.438
 5478TIP3    H216376   3.015   6.792   1.408
 5479TIP3   OH216377   2.784   6.777   2.762
 5479TIP3    H116378   2.748   6.706   2.818
 5479TIP3    H216379   2.878   6.775   2.790
 5480TIP3   OH216380   3.032   6.772   2.881
 5480TIP3    H116381   3.118   6.746   2.844
 5480TIP3    H216382   3.019   6.703   2.950
 5481TIP3   OH216383   3.857   6.832   2.670
 5481TIP3    H116384   3.875   6.800   2.761
 5481TIP3    H216385   3.946   6.828   2.629
 5482TIP3   OH216386   5.063   7.760   0.956
 5482TIP3    H116387   5.041   7.849   0.922
 5482TIP3    H216388   4.980   7.713   0.937
 5483TIP3   OH216389   5.047   7.759   1.306
 5483TIP3    H116390   5.082   7.740   1.396
 5483TIP3    H216391   5.017   7.671   1.279
 5484TIP3   OH216392   4.362   7.656   1.674
 5484TIP3    H116393   4.392   7.587   1.737
 5484TIP3    H216394   4.440   7.713   1.671
 5485TIP3   OH216395   5.293   8.059   0.977
 5485TIP3    H116396   5.291   7.987   1.042
 5485TIP3    H216397   5.331   8.131   1.033
 5486TIP3   OH216398   4.363   8.033   1.456
 5486TIP3    H116399   4.341   7.941   1.432
 5486TIP3    H216400   4.436   8.051   1.394
 5487TIP3   OH216401   4.040   7.267   1.183
 5487TIP3    H116402   3.993   7.350   1.200
 5487TIP3    H216403   3.967   7.212   1.150
 5488TIP3   OH216404   4.095   7.550   1.351
 5488TIP3    H116405   4.144   7.476   1.392
 5488TIP3    H216406   4.163   7.588   1.293
 5489TIP3   OH216407   4.870   7.981   1.352
 5489TIP3    H116408   4.910   7.900   1.316
 5489TIP3    H216409   4.953   8.023   1.384
 5490TIP3   OH216410   5.871   7.307   1.357
 5490TIP3    H116411   5.894   7.390   1.405
 5490TIP3    H216412   5.893   7.332   1.266
 5491TIP3   OH216413   5.278   7.490   1.389
 5491TIP3    H116414   5.319   7.405   1.415
 5491TIP3    H216415   5.246   7.469   1.300
 5492TIP3   OH216416   4.609   7.144   1.356
 5492TIP3    H116417   4.589   7.218   1.295
 5492TIP3    H216418   4.560   7.072   1.310
 5493TIP3   OH216419   5.308   7.238   0.981
 5493TIP3    H116420   5.376   7.217   1.049
 5493TIP3    H216421   5.367   7.272   0.912
 5494TIP3   OH216422   4.243   7.348   1.460
 5494TIP3    H116423   4.325   7.329   1.510
 5494TIP3    H216424   4.257   7.291   1.382
 5495TIP3   OH216425   4.685   7.545   1.251
 5495TIP3    H116426   4.779   7.520   1.266
 5495TIP3    H216427   4.647   7.460   1.222
 5496TIP3   OH216428   5.927   7.520   1.528
 5496TIP3    H116429   5.870   7.598   1.517
 5496TIP3    H216430   5.954   7.535   1.621
 5497TIP3   OH216431   4.606   7.126   1.788
 5497TIP3    H116432   4.546   7.166   1.723
 5497TIP3    H216433   4.557   7.144   1.870
 5498TIP3   OH216434   4.962   7.959   0.800
 5498TIP3    H116435   4.891   7.943   0.736
 5498TIP3    H216436   4.950   8.050   0.826
 5499TIP3   OH216437   4.706   7.905   1.587
 5499TIP3    H116438   4.648   7.972   1.630
 5499TIP3    H216439   4.754   7.960   1.522
 5500TIP3   OH216440   5.519   7.236   1.152
 5500TIP3    H116441   5.506   7.192   1.237
 5500TIP3    H216442   5.569   7.316   1.178
 5501TIP3   OH216443   4.475   7.244   1.574
 5501TIP3    H116444   4.537   7.316   1.599
 5501TIP3    H216445   4.526   7.203   1.500
 5502TIP3   OH216446   4.528   8.111   1.681
 5502TIP3    H116447   4.478   8.119   1.598
 5502TIP3    H216448   4.453   8.104   1.744
 5503TIP3   OH216449   3.925   7.782   0.914
 5503TIP3    H116450   3.880   7.808   0.831
 5503TIP3    H216451   3.944   7.870   0.948
 5504TIP3   OH216452   5.365   8.265   1.135
 5504TIP3    H116453   5.295   8.282   1.201
 5504TIP3    H216454   5.393   8.355   1.109
 5505TIP3   OH216455   5.664   7.192   1.513
 5505TIP3    H116456   5.580   7.237   1.494
 5505TIP3    H216457   5.725   7.233   1.449
 5506TIP3   OH216458   4.967   6.869   1.497
 5506TIP3    H116459   4.944   6.777   1.482
 5506TIP3    H216460   4.889   6.901   1.547
 5507TIP3   OH216461   5.599   8.218   1.504
 5507TIP3    H116462   5.593   8.131   1.457
 5507TIP3    H216463   5.575   8.278   1.432
 5508TIP3   OH216464   4.883   7.615   0.793
 5508TIP3    H116465   4.793   7.653   0.786
 5508TIP3    H216466   4.923   7.660   0.717
 5509TIP3   OH216467   5.820   7.848   1.334
 5509TIP3    H116468   5.736   7.866   1.379
 5509TIP3    H216469   5.807   7.890   1.248
 5510TIP3   OH216470   5.198   7.631   0.763
 5510TIP3    H116471   5.160   7.685   0.835
 5510TIP3    H216472   5.292   7.627   0.792
 5511TIP3   OH216473   4.477   7.690   1.143
 5511TIP3    H116474   4.436   7.629   1.078
 5511TIP3    H216475   4.552   7.636   1.177
 5512TIP3   OH216476   4.599   8.060   1.305
 5512TIP3    H116477   4.613   8.010   1.224
 5512TIP3    H216478   4.691   8.067   1.337
 5513TIP3   OH216479   4.608   7.663   1.499
 5513TIP3    H116480   4.647   7.643   1.412
 5513TIP3    H216481   4.651   7.748   1.524
 5514TIP3   OH216482   5.142   8.294   1.300
 5514TIP3    H116483   5.104   8.338   1.377
 5514TIP3    H216484   5.136   8.201   1.330
 5515TIP3   OH216485   4.743   8.173   1.844
 5515TIP3    H116486   4.700   8.246   1.891
 5515TIP3    H216487   4.672   8.141   1.785
 5516TIP3   OH216488   4.499   7.776   1.923
 5516TIP3    H116489   4.506   7.861   1.971
 5516TIP3    H216490   4.405   7.755   1.936
 5517TIP3   OH216491   5.500   6.749   0.576
 5517TIP3    H116492   5.446   6.777   0.652
 5517TIP3    H216493   5.481   6.822   0.512
 5518TIP3   OH216494   4.347   7.526   0.947
 5518TIP3    H116495   4.274   7.574   0.901
 5518TIP3    H216496   4.302   7.445   0.973
 5519TIP3   OH216497   4.124   7.916   1.860
 5519TIP3    H116498   4.063   7.898   1.786
 5519TIP3    H216499   4.159   7.827   1.882
 5520TIP3   OH216500   3.987   8.089   1.517
 5520TIP3    H116501   4.079   8.110   1.495
 5520TIP3    H216502   3.954   8.176   1.547
 5521TIP3   OH216503   5.771   8.508   1.561
 5521TIP3    H116504   5.796   8.414   1.571
 5521TIP3    H216505   5.703   8.514   1.630
 5522TIP3   OH216506   4.325   8.106   1.872
 5522TIP3    H116507   4.382   8.060   1.937
 5522TIP3    H216508   4.252   8.042   1.859
 5523TIP3   OH216509   4.726   6.921   1.629
 5523TIP3    H116510   4.634   6.893   1.606
 5523TIP3    H216511   4.705   7.005   1.673
 5524TIP3   OH216512   5.260   7.021   1.819
 5524TIP3    H116513   5.329   7.009   1.887
 5524TIP3    H216514   5.177   7.016   1.869
 5525TIP3   OH216515   5.495   7.468   1.734
 5525TIP3    H116516   5.455   7.469   1.823
 5525TIP3    H216517   5.519   7.561   1.718
 5526TIP3   OH216518   4.894   6.987   0.607
 5526TIP3    H116519   4.848   6.986   0.693
 5526TIP3    H216520   4.882   6.895   0.579
 5527TIP3   OH216521   4.652   7.440   1.649
 5527TIP3    H116522   4.607   7.465   1.732
 5527TIP3    H216523   4.639   7.521   1.596
 5528TIP3   OH216524   4.539   7.324   1.164
 5528TIP3    H116525   4.447   7.297   1.183
 5528TIP3    H216526   4.551   7.282   1.076
 5529TIP3   OH216527   5.030   7.401   0.902
 5529TIP3    H116528   4.978   7.477   0.868
 5529TIP3    H216529   5.088   7.380   0.827
 5530TIP3   OH216530   5.205   7.691   1.980
 5530TIP3    H116531   5.184   7.617   2.041
 5530TIP3    H216532   5.300   7.703   1.996
 5531TIP3   OH216533   5.187   7.439   1.136
 5531TIP3    H116534   5.128   7.469   1.065
 5531TIP3    H216535   5.221   7.357   1.094
 5532TIP3   OH216536   4.472   7.468   1.860
 5532TIP3    H116537   4.506   7.531   1.925
 5532TIP3    H216538   4.464   7.386   1.913
 5533TIP3   OH216539   4.517   6.932   0.575
 5533TIP3    H116540   4.521   6.938   0.673
 5533TIP3    H216541   4.453   7.000   0.554
 5534TIP3   OH216542   4.067   6.993   1.439
 5534TIP3    H116543   4.144   7.021   1.492
 5534TIP3    H216544   4.107   6.956   1.358
 5535TIP3   OH216545   4.043   6.971   0.961
 5535TIP3    H116546   4.092   7.010   0.886
 5535TIP3    H216547   3.981   7.043   0.982
 5536TIP3   OH216548   5.155   7.685   1.542
 5536TIP3    H116549   5.214   7.622   1.495
 5536TIP3    H216550   5.171   7.655   1.633
 5537TIP3   OH216551   4.862   7.144   1.227
 5537TIP3    H116552   4.782   7.147   1.282
 5537TIP3    H216553   4.932   7.156   1.294
 5538TIP3   OH216554   4.301   7.203   1.233
 5538TIP3    H116555   4.206   7.210   1.208
 5538TIP3    H216556   4.322   7.109   1.213
 5539TIP3   OH216557   4.568   7.199   0.919
 5539TIP3    H116558   4.665   7.211   0.910
 5539TIP3    H216559   4.533   7.231   0.833
 5540TIP3   OH216560   5.356   7.223   1.422
 5540TIP3    H116561   5.328   7.235   1.516
 5540TIP3    H216562   5.287   7.162   1.391
 5541TIP3   OH216563   4.430   7.247   0.680
 5541TIP3    H116564   4.340   7.214   0.669
 5541TIP3    H216565   4.473   7.222   0.596
 5542TIP3   OH216566   4.491   8.019   2.070
 5542TIP3    H116567   4.572   8.049   2.117
 5542TIP3    H216568   4.429   8.009   2.145
 5543TIP3   OH216569   4.949   7.470   1.318
 5543TIP3    H116570   5.028   7.438   1.272
 5543TIP3    H216571   4.965   7.441   1.409
 5544TIP3   OH216572   4.476   6.963   1.199
 5544TIP3    H116573   4.440   6.885   1.246
 5544TIP3    H216574   4.525   6.923   1.126
 5545TIP3   OH216575   4.927   7.367   1.620
 5545TIP3    H116576   4.840   7.412   1.629
 5545TIP3    H216577   4.988   7.428   1.668
 5546TIP3   OH216578   4.650   7.771   0.714
 5546TIP3    H116579   4.591   7.693   0.707
 5546TIP3    H216580   4.640   7.799   0.808
 5547TIP3   OH216581   5.569   8.005   1.340
 5547TIP3    H116582   5.591   8.048   1.255
 5547TIP3    H216583   5.485   7.960   1.320
 5548TIP3   OH216584   5.168   7.019   0.581
 5548TIP3    H116585   5.073   6.996   0.578
 5548TIP3    H216586   5.166   7.115   0.597
 5549TIP3   OH216587   5.033   8.057   1.718
 5549TIP3    H116588   5.084   8.024   1.794
 5549TIP3    H216589   5.062   8.150   1.713
 5550TIP3   OH216590   5.228   7.272   0.673
 5550TIP3    H116591   5.315   7.297   0.712
 5550TIP3    H216592   5.200   7.356   0.630
 5551TIP3   OH216593   4.347   7.761   1.379
 5551TIP3    H116594   4.396   7.741   1.297
 5551TIP3    H216595   4.399   7.713   1.446
 5552TIP3   OH216596   4.237   7.704   1.999
 5552TIP3    H116597   4.258   7.690   2.093
 5552TIP3    H216598   4.169   7.637   1.983
 5553TIP3   OH216599   4.962   7.814   2.018
 5553TIP3    H116600   4.905   7.759   1.963
 5553TIP3    H216601   5.051   7.782   1.991
 5554TIP3   OH216602   5.169   8.289   1.654
 5554TIP3    H116603   5.163   8.351   1.581
 5554TIP3    H216604   5.232   8.338   1.712
 5555TIP3   OH216605   5.854   8.244   1.601
 5555TIP3    H116606   5.759   8.220   1.595
 5555TIP3    H216607   5.882   8.222   1.509
 5556TIP3   OH216608   5.326   7.867   1.248
 5556TIP3    H116609   5.235   7.838   1.266
 5556TIP3    H216610   5.365   7.786   1.210
 5557TIP3   OH216611   4.455   8.062   0.958
 5557TIP3    H116612   4.476   8.150   0.924
 5557TIP3    H216613   4.362   8.055   0.933
 5558TIP3   OH216614   4.042   7.395   0.742
 5558TIP3    H116615   4.081   7.484   0.756
 5558TIP3    H216616   3.956   7.405   0.788
 5559TIP3   OH216617   4.619   7.848   0.968
 5559TIP3    H116618   4.562   7.928   0.967
 5559TIP3    H216619   4.577   7.795   1.038
 5560TIP3   OH216620   5.122   8.058   1.441
 5560TIP3    H116621   5.108   8.052   1.537
 5560TIP3    H216622   5.205   8.008   1.432
 5561TIP3   OH216623   4.450   7.209   2.006
 5561TIP3    H116624   4.354   7.215   2.023
 5561TIP3    H216625   4.479   7.152   2.079
 5562TIP3   OH216626   4.385   7.935   0.612
 5562TIP3    H116627   4.463   7.883   0.638
 5562TIP3    H216628   4.420   8.025   0.626
 5563TIP3   OH216629   4.140   7.645   0.819
 5563TIP3    H116630   4.064   7.678   0.872
 5563TIP3    H216631   4.153   7.723   0.763
 5564TIP3   OH216632   5.287   7.269   1.682
 5564TIP3    H116633   5.362   7.319   1.719
 5564TIP3    H216634   5.278   7.192   1.741
 5565TIP3   OH216635   5.150   7.034   0.868
 5565TIP3    H116636   5.163   7.042   0.771
 5565TIP3    H216637   5.199   7.112   0.901
 5566TIP3   OH216638   4.846   7.205   0.957
 5566TIP3    H116639   4.917   7.270   0.941
 5566TIP3    H216640   4.854   7.192   1.054
 5567TIP3   OH216641   5.117   7.518   1.773
 5567TIP3    H116642   5.139   7.577   1.847
 5567TIP3    H216643   5.184   7.448   1.781
 5568TIP3   OH216644   4.991   6.932   1.064
 5568TIP3    H116645   4.990   7.007   1.126
 5568TIP3    H216646   5.051   6.968   0.995
 5569TIP3   OH216647   4.510   6.933   0.851
 5569TIP3    H116648   4.515   7.023   0.889
 5569TIP3    H216649   4.604   6.908   0.856
 5570TIP3   OH216650   5.767   7.391   1.746
 5570TIP3    H116651   5.677   7.428   1.758
 5570TIP3    H216652   5.775   7.396   1.650
 5571TIP3   OH216653   5.417   7.619   1.121
 5571TIP3    H116654   5.341   7.562   1.142
 5571TIP3    H216655   5.490   7.574   1.170
 5572TIP3   OH216656   4.108   7.860   0.656
 5572TIP3    H116657   4.172   7.927   0.683
 5572TIP3    H216658   4.159   7.806   0.594
 5573TIP3   OH216659   4.093   7.125   0.733
 5573TIP3    H116660   4.083   7.220   0.750
 5573TIP3    H216661   4.007   7.101   0.696
 5574TIP3   OH216662   4.461   6.844   1.607
 5574TIP3    H116663   4.427   6.810   1.521
 5574TIP3    H216664   4.449   6.766   1.665
 5575TIP3   OH216665   5.302   8.455   1.826
 5575TIP3    H116666   5.244   8.410   1.892
 5575TIP3    H216667   5.381   8.461   1.882
 5576TIP3   OH216668   4.290   7.992   2.252
 5576TIP3    H116669   4.310   7.897   2.258
 5576TIP3    H216670   4.200   7.991   2.213
 5577TIP3   OH216671   4.902   8.085   2.043
 5577TIP3    H116672   4.864   8.107   1.955
 5577TIP3    H216673   4.930   7.993   2.029
 5578TIP3   OH216674   5.370   8.087   1.626
 5578TIP3    H116675   5.457   8.123   1.605
 5578TIP3    H216676   5.313   8.166   1.629
 5579TIP3   OH216677   4.406   7.740   2.241
 5579TIP3    H116678   4.481   7.682   2.222
 5579TIP3    H216679   4.432   7.774   2.330
 5580TIP3   OH216680   4.488   7.552   0.691
 5580TIP3    H116681   4.445   7.527   0.775
 5580TIP3    H216682   4.492   7.467   0.646
 5581TIP3   OH216683   4.738   7.625   1.898
 5581TIP3    H116684   4.663   7.689   1.901
 5581TIP3    H216685   4.791   7.660   1.823
 5582TIP3   OH216686   5.252   8.031   2.042
 5582TIP3    H116687   5.332   8.014   1.991
 5582TIP3    H216688   5.254   7.960   2.108
 5583TIP3   OH216689   4.861   7.416   2.031
 5583TIP3    H116690   4.864   7.336   1.974
 5583TIP3    H216691   4.820   7.482   1.971
 5584TIP3   OH216692   4.866   7.199   1.836
 5584TIP3    H116693   4.894   7.246   1.755
 5584TIP3    H216694   4.771   7.180   1.816
 5585TIP3   OH216695   4.894   7.734   1.706
 5585TIP3    H116696   4.978   7.734   1.658
 5585TIP3    H216697   4.847   7.810   1.666
 5586TIP3   OH216698   5.477   7.706   2.094
 5586TIP3    H116699   5.522   7.621   2.102
 5586TIP3    H216700   5.548   7.763   2.060
 5587TIP3   OH216701   4.737   7.532   2.258
 5587TIP3    H116702   4.670   7.462   2.274
 5587TIP3    H216703   4.774   7.504   2.172
 5588TIP3   OH216704   4.995   6.964   1.902
 5588TIP3    H116705   4.952   7.050   1.880
 5588TIP3    H216706   4.921   6.902   1.892
 5589TIP3   OH216707   5.125   7.473   2.120
 5589TIP3    H116708   5.116   7.459   2.216
 5589TIP3    H216709   5.034   7.448   2.092
 5590TIP3   OH216710   5.363   7.419   1.973
 5590TIP3    H116711   5.290   7.422   2.037
 5590TIP3    H216712   5.438   7.390   2.029
 5591TIP3   OH216713   5.588   7.359   2.126
 5591TIP3    H116714   5.603   7.264   2.146
 5591TIP3    H216715   5.588   7.400   2.215
 5592TIP3   OH216716   4.580   7.310   2.311
 5592TIP3    H116717   4.589   7.219   2.277
 5592TIP3    H216718   4.617   7.300   2.401
 5593TIP3   OH216719   5.092   6.976   2.158
 5593TIP3    H116720   5.162   6.907   2.155
 5593TIP3    H216721   5.054   6.969   2.068
 5594TIP3   OH216722   5.158   7.192   2.318
 5594TIP3    H116723   5.135   7.121   2.255
 5594TIP3    H216724   5.081   7.251   2.313
 5595TIP3   OH216725   3.835   7.785   0.629
 5595TIP3    H116726   3.926   7.817   0.638
 5595TIP3    H216727   3.846   7.694   0.595
 5596TIP3   OH216728   5.712   8.385   1.868
 5596TIP3    H116729   5.644   8.368   1.938
 5596TIP3    H216730   5.771   8.446   1.912
 5597TIP3   OH216731   5.708   8.128   1.137
 5597TIP3    H116732   5.769   8.068   1.090
 5597TIP3    H216733   5.707   8.206   1.079
 5598TIP3   OH216734   5.454   7.607   0.846
 5598TIP3    H116735   5.481   7.513   0.846
 5598TIP3    H216736   5.452   7.626   0.943
 5599TIP3   OH216737   4.097   7.671   1.609
 5599TIP3    H116738   4.096   7.647   1.514
 5599TIP3    H216739   4.194   7.674   1.625
 5600TIP3   OH216740   5.947   7.848   1.800
 5600TIP3    H116741   5.860   7.831   1.757
 5600TIP3    H216742   5.992   7.764   1.778
 5601TIP3   OH216743   5.481   7.326   0.761
 5601TIP3    H116744   5.509   7.232   0.782
 5601TIP3    H216745   5.554   7.350   0.702
 5602TIP3   OH216746   5.625   7.494   1.252
 5602TIP3    H116747   5.715   7.518   1.218
 5602TIP3    H216748   5.627   7.537   1.339
 5603TIP3   OH216749   4.314   7.361   2.281
 5603TIP3    H116750   4.412   7.354   2.284
 5603TIP3    H216751   4.289   7.276   2.322
 5604TIP3   OH216752   6.147   7.223   2.040
 5604TIP3    H116753   6.207   7.159   1.997
 5604TIP3    H216754   6.118   7.278   1.965
 5605TIP3   OH216755   5.554   7.077   0.817
 5605TIP3    H116756   5.620   7.050   0.884
 5605TIP3    H216757   5.503   6.994   0.808
 5606TIP3   OH216758   4.275   7.051   1.612
 5606TIP3    H116759   4.338   6.977   1.624
 5606TIP3    H216760   4.337   7.126   1.608
 5607TIP3   OH216761   4.078   7.326   1.686
 5607TIP3    H116762   4.128   7.321   1.602
 5607TIP3    H216763   4.107   7.411   1.720
 5608TIP3   OH216764   6.019   7.367   1.848
 5608TIP3    H116765   5.931   7.406   1.864
 5608TIP3    H216766   5.991   7.294   1.789
 5609TIP3   OH216767   4.061   6.832   1.192
 5609TIP3    H116768   3.967   6.825   1.215
 5609TIP3    H216769   4.058   6.889   1.112
 5610TIP3   OH216770   4.282   6.907   2.000
 5610TIP3    H116771   4.234   6.903   2.084
 5610TIP3    H216772   4.214   6.947   1.942
 5611TIP3   OH216773   4.363   8.322   2.089
 5611TIP3    H116774   4.352   8.240   2.039
 5611TIP3    H216775   4.360   8.292   2.182
 5612TIP3   OH216776   5.924   7.127   1.723
 5612TIP3    H116777   5.832   7.135   1.693
 5612TIP3    H216778   5.943   7.032   1.710
 5613TIP3   OH216779   5.125   7.047   1.334
 5613TIP3    H116780   5.080   6.982   1.390
 5613TIP3    H216781   5.199   6.997   1.296
 5614TIP3   OH216782   5.646   6.921   1.249
 5614TIP3    H116783   5.684   6.974   1.175
 5614TIP3    H216784   5.552   6.944   1.244
 5615TIP3   OH216785   5.742   7.024   1.015
 5615TIP3    H116786   5.813   6.972   0.972
 5615TIP3    H216787   5.777   7.115   1.003
 5616TIP3   OH216788   4.371   6.752   1.357
 5616TIP3    H116789   4.278   6.720   1.360
 5616TIP3    H216790   4.418   6.666   1.355
 5617TIP3   OH216791   4.158   6.620   1.006
 5617TIP3    H116792   4.188   6.679   0.934
 5617TIP3    H216793   4.128   6.684   1.074
 5618TIP3   OH216794   4.819   6.783   1.243
 5618TIP3    H116795   4.873   6.828   1.175
 5618TIP3    H216796   4.821   6.848   1.314
 5619TIP3   OH216797   5.358   6.924   1.224
 5619TIP3    H116798   5.366   6.893   1.133
 5619TIP3    H216799   5.342   6.841   1.273
 5620TIP3   OH216800   5.384   6.856   0.802
 5620TIP3    H116801   5.292   6.886   0.798
 5620TIP3    H216802   5.375   6.772   0.853
 5621TIP3   OH216803   4.275   6.782   0.773
 5621TIP3    H116804   4.320   6.714   0.718
 5621TIP3    H216805   4.351   6.831   0.811
 5622TIP3   OH216806   4.788   6.956   0.865
 5622TIP3    H116807   4.846   6.904   0.923
 5622TIP3    H216808   4.811   7.046   0.896
 5623TIP3   OH216809   4.580   7.031   2.247
 5623TIP3    H116810   4.544   6.962   2.306
 5623TIP3    H216811   4.674   7.031   2.277
 5624TIP3   OH216812   4.828   7.027   2.368
 5624TIP3    H116813   4.916   7.003   2.334
 5624TIP3    H216814   4.815   6.959   2.437
 5625TIP3   OH216815   5.652   7.088   2.157
 5625TIP3    H116816   5.672   7.057   2.248
 5625TIP3    H216817   5.741   7.085   2.115
 5626TIP3   OH216818   6.160   7.908   1.154
 5626TIP3    H116819   6.191   7.847   1.223
 5626TIP3    H216820   6.225   7.979   1.156
 5627TIP3   OH216821   6.034   7.600   0.958
 5627TIP3    H116822   6.122   7.578   0.993
 5627TIP3    H216823   6.036   7.560   0.871
 5628TIP3   OH216824   6.399   7.386   1.275
 5628TIP3    H116825   6.334   7.422   1.212
 5628TIP3    H216826   6.352   7.400   1.360
 5629TIP3   OH216827   6.279   7.496   1.049
 5629TIP3    H116828   6.337   7.570   1.077
 5629TIP3    H216829   6.335   7.452   0.984
 5630TIP3   OH216830   6.761   7.101   1.005
 5630TIP3    H116831   6.735   7.008   1.002
 5630TIP3    H216832   6.677   7.143   1.033
 5631TIP3   OH216833   6.299   8.037   1.405
 5631TIP3    H116834   6.294   8.117   1.463
 5631TIP3    H216835   6.208   8.004   1.419
 5632TIP3   OH216836   5.921   8.165   1.348
 5632TIP3    H116837   5.850   8.146   1.285
 5632TIP3    H216838   5.953   8.076   1.372
 5633TIP3   OH216839   5.776   8.357   0.992
 5633TIP3    H116840   5.872   8.360   1.001
 5633TIP3    H216841   5.747   8.421   1.059
 5634TIP3   OH216842   6.113   8.367   1.359
 5634TIP3    H116843   6.186   8.324   1.406
 5634TIP3    H216844   6.050   8.294   1.342
 5635TIP3   OH216845   6.517   7.183   1.120
 5635TIP3    H116846   6.427   7.150   1.097
 5635TIP3    H216847   6.492   7.261   1.173
 5636TIP3   OH216848   7.066   7.288   1.312
 5636TIP3    H116849   7.115   7.256   1.390
 5636TIP3    H216850   6.974   7.284   1.344
 5637TIP3   OH216851   6.442   7.703   1.126
 5637TIP3    H116852   6.403   7.715   1.216
 5637TIP3    H216853   6.421   7.787   1.084
 5638TIP3   OH216854   6.270   7.722   1.347
 5638TIP3    H116855   6.273   7.782   1.423
 5638TIP3    H216856   6.259   7.636   1.393
 5639TIP3   OH216857   5.874   7.249   0.934
 5639TIP3    H116858   5.935   7.282   1.003
 5639TIP3    H216859   5.936   7.212   0.870
 5640TIP3   OH216860   6.292   8.267   1.556
 5640TIP3    H116861   6.351   8.311   1.618
 5640TIP3    H216862   6.214   8.256   1.614
 5641TIP3   OH216863   6.715   7.609   1.123
 5641TIP3    H116864   6.626   7.643   1.103
 5641TIP3    H216865   6.771   7.681   1.091
 5642TIP3   OH216866   6.040   7.951   1.483
 5642TIP3    H116867   6.044   7.947   1.580
 5642TIP3    H216868   5.961   7.897   1.463
 5643TIP3   OH216869   6.246   7.465   1.493
 5643TIP3    H116870   6.152   7.474   1.517
 5643TIP3    H216871   6.278   7.408   1.565
 5644TIP3   OH216872   6.255   7.105   1.105
 5644TIP3    H116873   6.222   7.071   1.018
 5644TIP3    H216874   6.246   7.025   1.161
 5645TIP3   OH216875   6.088   8.246   1.735
 5645TIP3    H116876   6.103   8.150   1.743
 5645TIP3    H216877   5.997   8.249   1.697
 5646TIP3   OH216878   6.208   7.999   1.724
 5646TIP3    H116879   6.265   7.922   1.719
 5646TIP3    H216880   6.226   8.030   1.815
 5647TIP3   OH216881   6.539   7.850   1.379
 5647TIP3    H116882   6.470   7.900   1.424
 5647TIP3    H216883   6.560   7.908   1.305
 5648TIP3   OH216884   6.648   7.653   1.528
 5648TIP3    H116885   6.656   7.573   1.471
 5648TIP3    H216886   6.609   7.717   1.465
 5649TIP3   OH216887   6.656   7.451   1.338
 5649TIP3    H116888   6.687   7.498   1.257
 5649TIP3    H216889   6.563   7.430   1.314
 5650TIP3   OH216890   6.535   7.792   1.741
 5650TIP3    H116891   6.467   7.726   1.763
 5650TIP3    H216892   6.576   7.750   1.662
 5651TIP3   OH216893   6.800   7.221   1.380
 5651TIP3    H116894   6.746   7.303   1.369
 5651TIP3    H216895   6.731   7.152   1.373
 5652TIP3   OH216896   6.895   7.759   1.611
 5652TIP3    H116897   6.936   7.718   1.690
 5652TIP3    H216898   6.817   7.701   1.598
 5653TIP3   OH216899   6.377   7.570   1.798
 5653TIP3    H116900   6.385   7.479   1.763
 5653TIP3    H216901   6.413   7.557   1.888
 5654TIP3   OH216902   6.886   7.231   1.640
 5654TIP3    H116903   6.951   7.158   1.643
 5654TIP3    H216904   6.851   7.222   1.549
 5655TIP3   OH216905   6.942   7.436   1.812
 5655TIP3    H116906   6.922   7.369   1.744
 5655TIP3    H216907   6.868   7.500   1.801
 5656TIP3   OH216908   5.901   7.941   1.072
 5656TIP3    H116909   5.910   7.886   0.993
 5656TIP3    H216910   5.992   7.933   1.109
 5657TIP3   OH216911   6.107   7.613   1.754
 5657TIP3    H116912   6.204   7.609   1.764
 5657TIP3    H216913   6.080   7.534   1.804
 5658TIP3   OH216914   6.072   7.310   1.108
 5658TIP3    H116915   6.134   7.234   1.116
 5658TIP3    H216916   6.135   7.384   1.100
 5659TIP3   OH216917   5.872   7.582   1.182
 5659TIP3    H116918   5.926   7.590   1.100
 5659TIP3    H216919   5.889   7.667   1.225
 5660TIP3   OH216920   6.077   7.166   1.488
 5660TIP3    H116921   6.029   7.161   1.572
 5660TIP3    H216922   6.008   7.204   1.430
 5661TIP3   OH216923   6.156   8.560   1.584
 5661TIP3    H116924   6.124   8.485   1.532
 5661TIP3    H216925   6.127   8.542   1.675
 5662TIP3   OH216926   6.161   7.005   0.873
 5662TIP3    H116927   6.072   6.966   0.861
 5662TIP3    H216928   6.218   6.936   0.836
 5663TIP3   OH216929   6.376   7.290   1.733
 5663TIP3    H116930   6.339   7.222   1.791
 5663TIP3    H216931   6.470   7.289   1.763
 5664TIP3   OH216932   6.623   7.285   1.855
 5664TIP3    H116933   6.711   7.265   1.819
 5664TIP3    H216934   6.613   7.214   1.922
 5665TIP3   OH216935   1.834   0.470   5.769
 5665TIP3    H116936   1.765   0.429   5.822
 5665TIP3    H216937   1.841   0.558   5.808
 5666TIP3   OH216938   1.455   0.938   5.773
 5666TIP3    H116939   1.510   0.869   5.730
 5666TIP3    H216940   1.451   0.906   5.864
 5667TIP3   OH216941   2.437  -0.054   6.235
 5667TIP3    H116942   2.346  -0.026   6.251
 5667TIP3    H216943   2.467  -0.075   6.325
 5668TIP3   OH216944   1.480   0.421   5.542
 5668TIP3    H116945   1.417   0.348   5.536
 5668TIP3    H216946   1.420   0.490   5.577
 5669TIP3   OH216947   1.890   0.719   5.926
 5669TIP3    H116948   1.800   0.713   5.968
 5669TIP3    H216949   1.880   0.805   5.880
 5670TIP3   OH216950   1.594   0.768   5.611
 5670TIP3    H116951   1.641   0.686   5.584
 5670TIP3    H216952   1.650   0.834   5.563
 5671TIP3   OH216953   1.737   0.557   5.511
 5671TIP3    H116954   1.669   0.496   5.478
 5671TIP3    H216955   1.775   0.506   5.585
 5672TIP3   OH216956   2.111   0.638   6.263
 5672TIP3    H116957   2.084   0.571   6.199
 5672TIP3    H216958   2.089   0.721   6.215
 5673TIP3   OH216959   1.784   0.157   5.505
 5673TIP3    H116960   1.720   0.115   5.565
 5673TIP3    H216961   1.852   0.089   5.500
 5674TIP3   OH216962   1.645   0.724   6.034
 5674TIP3    H116963   1.611   0.797   6.090
 5674TIP3    H216964   1.628   0.645   6.089
 5675TIP3   OH216965   1.319   0.677   5.595
 5675TIP3    H116966   1.403   0.716   5.625
 5675TIP3    H216967   1.280   0.748   5.541
 5676TIP3   OH216968   1.910   0.583   4.926
 5676TIP3    H116969   1.933   0.676   4.942
 5676TIP3    H216970   1.998   0.544   4.910
 5677TIP3   OH216971   2.347   0.976   6.316
 5677TIP3    H116972   2.346   0.881   6.338
 5677TIP3    H216973   2.264   1.005   6.361
 5678TIP3   OH216974   1.214   0.895   5.409
 5678TIP3    H116975   1.158   0.877   5.331
 5678TIP3    H216976   1.187   0.986   5.431
 5679TIP3   OH216977   1.410   0.786   5.044
 5679TIP3    H116978   1.476   0.723   5.009
 5679TIP3    H216979   1.445   0.802   5.134
 5680TIP3   OH216980   1.461   0.842   5.310
 5680TIP3    H116981   1.374   0.858   5.353
 5680TIP3    H216982   1.506   0.789   5.378
 5681TIP3   OH216983   8.852   6.718   3.268
 5681TIP3    H116984   8.766   6.760   3.288
 5681TIP3    H216985   8.826   6.625   3.264
 5682TIP3   OH216986   1.664   0.059   5.056
 5682TIP3    H116987   1.624   0.005   4.986
 5682TIP3    H216988   1.755   0.070   5.026
 5683TIP3   OH216989   2.035   1.328   6.415
 5683TIP3    H116990   2.034   1.355   6.322
 5683TIP3    H216991   2.113   1.377   6.449
 5684TIP3   OH216992   1.739   0.758   6.372
 5684TIP3    H116993   1.643   0.767   6.370
 5684TIP3    H216994   1.761   0.810   6.452
 5685TIP3   OH216995   2.155  -0.167   5.268
 5685TIP3    H116996   2.093  -0.222   5.216
 5685TIP3    H216997   2.140  -0.081   5.224
 5686TIP3   OH216998   2.358   0.689   6.365
 5686TIP3    H116999   2.260   0.685   6.356
 5686TIP3    H217000   2.384   0.659   6.275
 5687TIP3   OH217001   1.795   0.642   5.187
 5687TIP3    H117002   1.800   0.576   5.257
 5687TIP3    H217003   1.845   0.601   5.114
 5688TIP3   OH217004   1.829   0.239   6.047
 5688TIP3    H117005   1.738   0.260   6.021
 5688TIP3    H217006   1.862   0.187   5.973
 5689TIP3   OH217007   1.366   0.802   6.171
 5689TIP3    H117008   1.320   0.882   6.140
 5689TIP3    H217009   1.309   0.770   6.242
 5690TIP3   OH217010   1.688   0.485   6.172
 5690TIP3    H117011   1.675   0.498   6.268
 5690TIP3    H217012   1.772   0.438   6.172
 5691TIP3   OH217013   1.591   0.376   5.084
 5691TIP3    H117014   1.656   0.359   5.156
 5691TIP3    H217015   1.519   0.321   5.115
 5692TIP3   OH217016   1.870   1.017   6.252
 5692TIP3    H117017   1.788   0.964   6.240
 5692TIP3    H217018   1.858   1.084   6.182
 5693TIP3   OH217019   1.764   0.325   5.289
 5693TIP3    H117020   1.761   0.265   5.368
 5693TIP3    H217021   1.859   0.320   5.270
 5694TIP3   OH217022   1.168   0.574   5.286
 5694TIP3    H117023   1.125   0.572   5.372
 5694TIP3    H217024   1.179   0.669   5.271
 5695TIP3   OH217025   1.893   0.988   5.848
 5695TIP3    H117026   1.848   1.036   5.775
 5695TIP3    H217027   1.986   1.011   5.826
 5696TIP3   OH217028   1.179   0.584   4.977
 5696TIP3    H117029   1.235   0.593   5.056
 5696TIP3    H217030   1.240   0.537   4.915
 5697TIP3   OH217031   1.798   0.878   6.611
 5697TIP3    H117032   1.810   0.796   6.662
 5697TIP3    H217033   1.877   0.931   6.635
 5698TIP3   OH217034   1.563   0.600   4.908
 5698TIP3    H117035   1.610   0.546   4.974
 5698TIP3    H217036   1.624   0.598   4.831
 5699TIP3   OH217037   1.892   0.513   6.396
 5699TIP3    H117038   1.965   0.571   6.369
 5699TIP3    H217039   1.819   0.577   6.402
 5700TIP3   OH217040   1.910   0.106   4.935
 5700TIP3    H117041   1.880   0.061   4.854
 5700TIP3    H217042   1.872   0.195   4.919
 5701TIP3   OH217043   2.032   0.378   6.589
 5701TIP3    H117044   1.969   0.418   6.526
 5701TIP3    H217045   2.116   0.401   6.543
 5702TIP3   OH217046   0.886   0.910   5.206
 5702TIP3    H117047   0.966   0.859   5.191
 5702TIP3    H217048   0.858   0.927   5.115
 5703TIP3   OH217049   2.145   1.079   5.804
 5703TIP3    H117050   2.168   1.115   5.892
 5703TIP3    H217051   2.200   1.133   5.746
 5704TIP3   OH217052   2.172   1.104   6.085
 5704TIP3    H117053   2.132   1.014   6.083
 5704TIP3    H217054   2.247   1.087   6.144
 5705TIP3   OH217055   2.219   0.778   6.656
 5705TIP3    H117056   2.148   0.782   6.722
 5705TIP3    H217057   2.260   0.867   6.664
 5706TIP3   OH217058   2.037   0.299   5.275
 5706TIP3    H117059   2.111   0.358   5.251
 5706TIP3    H217060   2.072   0.258   5.357
 5707TIP3   OH217061   2.162   0.166   5.479
 5707TIP3    H117062   2.102   0.112   5.535
 5707TIP3    H217063   2.230   0.196   5.542
 5708TIP3   OH217064   2.254   0.485   5.884
 5708TIP3    H117065   2.288   0.547   5.814
 5708TIP3    H217066   2.182   0.545   5.914
 5709TIP3   OH217067   2.046   0.855   6.113
 5709TIP3    H117068   1.978   0.903   6.163
 5709TIP3    H217069   1.993   0.813   6.042
 5710TIP3   OH217070   2.100   0.071   5.128
 5710TIP3    H117071   2.031   0.074   5.058
 5710TIP3    H217072   2.070   0.146   5.184
 5711TIP3   OH217073   1.980  -0.270   5.077
 5711TIP3    H117074   1.931  -0.201   5.029
 5711TIP3    H217075   1.918  -0.343   5.077
 5712TIP3   OH217076   2.004   0.003   5.636
 5712TIP3    H117077   1.995  -0.092   5.617
 5712TIP3    H217078   1.962   0.010   5.722
 5713TIP3   OH217079   2.260   0.449   6.467
 5713TIP3    H117080   2.333   0.383   6.464
 5713TIP3    H217081   2.301   0.527   6.425
 5714TIP3   OH217082   2.440   0.256   6.491
 5714TIP3    H117083   2.377   0.194   6.533
 5714TIP3    H217084   2.524   0.229   6.535
 5715TIP3   OH217085   2.123  -0.059   6.012
 5715TIP3    H117086   2.210  -0.050   5.971
 5715TIP3    H217087   2.144  -0.036   6.105
 5716TIP3   OH217088   2.173   0.062   6.258
 5716TIP3    H117089   2.101   0.057   6.323
 5716TIP3    H217090   2.207   0.151   6.275
 5717TIP3   OH217091   1.728   0.946   5.459
 5717TIP3    H117092   1.783   0.906   5.391
 5717TIP3    H217093   1.785   1.015   5.498
 5718TIP3   OH217094   1.457   1.096   6.543
 5718TIP3    H117095   1.502   1.059   6.621
 5718TIP3    H217096   1.532   1.113   6.483
 5719TIP3   OH217097   1.647   1.188   6.374
 5719TIP3    H117098   1.722   1.137   6.340
 5719TIP3    H217099   1.693   1.245   6.440
 5720TIP3   OH217100   1.356   1.075   6.056
 5720TIP3    H117101   1.277   1.093   6.001
 5720TIP3    H217102   1.365   1.159   6.105
 5721TIP3   OH217103   1.615   0.991   6.128
 5721TIP3    H117104   1.520   1.002   6.108
 5721TIP3    H217105   1.653   1.070   6.086
 5722TIP3   OH217106   1.827   1.184   6.042
 5722TIP3    H117107   1.809   1.268   5.994
 5722TIP3    H217108   1.847   1.122   5.969
 5723TIP3   OH217109   1.148   0.817   5.142
 5723TIP3    H117110   1.236   0.830   5.103
 5723TIP3    H217111   1.108   0.760   5.074
 5724TIP3   OH217112   2.102   1.061   6.413
 5724TIP3    H117113   2.021   1.031   6.367
 5724TIP3    H217114   2.084   1.157   6.420
 5725TIP3   OH217115   3.366   0.429   5.186
 5725TIP3    H117116   3.340   0.522   5.169
 5725TIP3    H217117   3.288   0.383   5.152
 5726TIP3   OH217118   3.365   0.430   5.560
 5726TIP3    H117119   3.389   0.404   5.650
 5726TIP3    H217120   3.321   0.351   5.526
 5727TIP3   OH217121   2.647   0.332   5.943
 5727TIP3    H117122   2.688   0.260   5.997
 5727TIP3    H217123   2.726   0.379   5.914
 5728TIP3   OH217124   3.606   0.735   5.245
 5728TIP3    H117125   3.594   0.665   5.311
 5728TIP3    H217126   3.636   0.809   5.300
 5729TIP3   OH217127   2.633   0.736   5.655
 5729TIP3    H117128   2.628   0.638   5.656
 5729TIP3    H217129   2.729   0.749   5.655
 5730TIP3   OH217130   2.333  -0.059   5.451
 5730TIP3    H117131   2.280   0.022   5.451
 5730TIP3    H217132   2.275  -0.117   5.396
 5731TIP3   OH217133   2.386   0.232   5.627
 5731TIP3    H117134   2.440   0.154   5.655
 5731TIP3    H217135   2.441   0.264   5.554
 5732TIP3   OH217136   3.253   1.196   5.261
 5732TIP3    H117137   3.303   1.125   5.214
 5732TIP3    H217138   3.251   1.163   5.351
 5733TIP3   OH217139   3.164   0.658   5.612
 5733TIP3    H117140   3.202   0.581   5.566
 5733TIP3    H217141   3.248   0.703   5.636
 5734TIP3   OH217142   3.577   0.183   5.642
 5734TIP3    H117143   3.610   0.093   5.658
 5734TIP3    H217144   3.533   0.173   5.555
 5735TIP3   OH217145   2.843  -0.170   5.648
 5735TIP3    H117146   2.858  -0.101   5.582
 5735TIP3    H217147   2.902  -0.240   5.616
 5736TIP3   OH217148   3.579  -0.069   5.270
 5736TIP3    H117149   3.642  -0.142   5.283
 5736TIP3    H217150   3.597  -0.049   5.177
 5737TIP3   OH217151   2.537   0.022   5.704
 5737TIP3    H117152   2.614   0.010   5.764
 5737TIP3    H217153   2.561  -0.039   5.632
 5738TIP3   OH217154   2.987   0.219   5.509
 5738TIP3    H117155   3.080   0.195   5.527
 5738TIP3    H217156   2.950   0.133   5.481
 5739TIP3   OH217157   4.206   0.149   5.718
 5739TIP3    H117158   4.137   0.217   5.735
 5739TIP3    H217159   4.250   0.152   5.805
 5740TIP3   OH217160   3.261   0.653   5.055
 5740TIP3    H117161   3.214   0.627   4.975
 5740TIP3    H217162   3.218   0.738   5.076
 5741TIP3   OH217163   3.020   0.575   5.844
 5741TIP3    H117164   2.955   0.639   5.883
 5741TIP3    H217165   3.059   0.628   5.772
 5742TIP3   OH217166   2.747  -0.033   5.863
 5742TIP3    H117167   2.835   0.007   5.879
 5742TIP3    H217168   2.775  -0.112   5.812
 5743TIP3   OH217169   2.843   0.769   5.936
 5743TIP3    H117170   2.819   0.856   5.899
 5743TIP3    H217171   2.765   0.754   5.993
 5744TIP3   OH217172   2.243   0.461   5.173
 5744TIP3    H117173   2.195   0.486   5.093
 5744TIP3    H217174   2.266   0.548   5.212
 5745TIP3   OH217175   3.679   0.975   5.414
 5745TIP3    H117176   3.589   0.967   5.454
 5745TIP3    H217177   3.671   1.062   5.369
 5746TIP3   OH217178   3.384   1.022   5.091
 5746TIP3    H117179   3.433   0.940   5.068
 5746TIP3    H217180   3.442   1.088   5.048
 5747TIP3   OH217181   3.525   0.808   4.993
 5747TIP3    H117182   3.487   0.729   4.954
 5747TIP3    H217183   3.560   0.773   5.078
 5748TIP3   OH217184   3.906   0.890   5.758
 5748TIP3    H117185   3.895   0.813   5.699
 5748TIP3    H217186   3.887   0.965   5.697
 5749TIP3   OH217187   3.196   0.286   5.012
 5749TIP3    H117188   3.115   0.335   4.989
 5749TIP3    H217189   3.242   0.280   4.927
 5750TIP3   OH217190   3.153   0.068   4.740
 5750TIP3    H117191   3.223   0.119   4.784
 5750TIP3    H217192   3.207   0.011   4.683
 5751TIP3   OH217193   4.099   0.521   5.594
 5751TIP3    H117194   4.019   0.578   5.602
 5751TIP3    H217195   4.134   0.553   5.508
 5752TIP3   OH217196   3.543   0.367   4.986
 5752TIP3    H117197   3.489   0.390   5.065
 5752TIP3    H217198   3.629   0.347   5.028
 5753TIP3   OH217199   3.771   0.422   5.886
 5753TIP3    H117200   3.769   0.503   5.940
 5753TIP3    H217201   3.682   0.426   5.847
 5754TIP3   OH217202   2.777   0.366   5.402
 5754TIP3    H117203   2.734   0.307   5.336
 5754TIP3    H217204   2.853   0.312   5.432
 5755TIP3   OH217205   2.907   0.777   5.552
 5755TIP3    H117206   2.886   0.728   5.471
 5755TIP3    H217207   2.997   0.744   5.571
 5756TIP3   OH217208   2.908   0.335   5.761
 5756TIP3    H117209   2.941   0.313   5.671
 5756TIP3    H217210   2.952   0.420   5.780
 5757TIP3   OH217211   3.437   0.972   5.533
 5757TIP3    H117212   3.425   1.053   5.586
 5757TIP3    H217213   3.422   0.900   5.598
 5758TIP3   OH217214   3.051   0.891   6.081
 5758TIP3    H117215   2.991   0.953   6.128
 5758TIP3    H217216   2.985   0.838   6.032
 5759TIP3   OH217217   3.385   0.222   4.813
 5759TIP3    H117218   3.444   0.282   4.865
 5759TIP3    H217219   3.412   0.246   4.721
 5760TIP3   OH217220   2.809   0.453   6.182
 5760TIP3    H117221   2.807   0.537   6.233
 5760TIP3    H217222   2.714   0.434   6.173
 5761TIP3   OH217223   3.124   0.908   5.074
 5761TIP3    H117224   3.205   0.954   5.104
 5761TIP3    H217225   3.062   0.981   5.066
 5762TIP3   OH217226   2.846   1.057   6.167
 5762TIP3    H117227   2.807   1.059   6.078
 5762TIP3    H217228   2.767   1.038   6.223
 5763TIP3   OH217229   2.643   0.204   5.209
 5763TIP3    H117230   2.577   0.250   5.152
 5763TIP3    H217231   2.600   0.119   5.222
 5764TIP3   OH217232   3.702   0.833   4.403
 5764TIP3    H117233   3.712   0.930   4.395
 5764TIP3    H217234   3.795   0.804   4.397
 5765TIP3   OH217235   2.424   0.590   6.122
 5765TIP3    H117236   2.383   0.568   6.037
 5765TIP3    H217237   2.463   0.504   6.150
 5766TIP3   OH217238   2.290   0.764   5.767
 5766TIP3    H117239   2.381   0.784   5.741
 5766TIP3    H217240   2.263   0.849   5.805
 5767TIP3   OH217241   4.145   1.234   5.809
 5767TIP3    H117242   4.139   1.137   5.815
 5767TIP3    H217243   4.059   1.260   5.848
 5768TIP3   OH217244   3.248   1.020   5.938
 5768TIP3    H117245   3.248   1.113   5.970
 5768TIP3    H217246   3.177   0.982   5.993
 5769TIP3   OH217247   2.997   1.148   4.893
 5769TIP3    H117248   2.953   1.140   4.806
 5769TIP3    H217249   2.973   1.238   4.921
 5770TIP3   OH217250   2.442   0.998   5.273
 5770TIP3    H117251   2.497   0.991   5.355
 5770TIP3    H217252   2.378   0.928   5.290
 5771TIP3   OH217253   3.251   1.107   4.801
 5771TIP3    H117254   3.167   1.109   4.852
 5771TIP3    H217255   3.310   1.061   4.862
 5772TIP3   OH217256   4.046   0.347   6.083
 5772TIP3    H117257   3.978   0.408   6.052
 5772TIP3    H217258   4.005   0.263   6.051
 5773TIP3   OH217259   2.630   0.773   6.104
 5773TIP3    H117260   2.681   0.763   6.187
 5773TIP3    H217261   2.554   0.713   6.119
 5774TIP3   OH217262   3.851   0.182   6.003
 5774TIP3    H117263   3.817   0.179   6.094
 5774TIP3    H217264   3.805   0.258   5.963
 5775TIP3   OH217265   3.463   0.272   4.559
 5775TIP3    H117266   3.426   0.246   4.472
 5775TIP3    H217267   3.541   0.323   4.531
 5776TIP3   OH217268   2.977   0.120   5.918
 5776TIP3    H117269   2.915   0.138   5.992
 5776TIP3    H217270   2.956   0.195   5.858
 5777TIP3   OH217271   2.849  -0.007   5.417
 5777TIP3    H117272   2.755  -0.027   5.437
 5777TIP3    H217273   2.852  -0.030   5.322
 5778TIP3   OH217274   3.331   0.088   5.144
 5778TIP3    H117275   3.280   0.160   5.102
 5778TIP3    H217276   3.388   0.058   5.071
 5779TIP3   OH217277   3.514   0.385   6.223
 5779TIP3    H117278   3.489   0.310   6.282
 5779TIP3    H217279   3.608   0.398   6.251
 5780TIP3   OH217280   3.476   0.145   5.394
 5780TIP3    H117281   3.418   0.173   5.320
 5780TIP3    H217282   3.511   0.061   5.354
 5781TIP3   OH217283   2.779   0.152   6.113
 5781TIP3    H117284   2.811   0.202   6.189
 5781TIP3    H217285   2.754   0.067   6.152
 5782TIP3   OH217286   2.404  -0.302   5.257
 5782TIP3    H117287   2.416  -0.292   5.161
 5782TIP3    H217288   2.313  -0.268   5.264
 5783TIP3   OH217289   3.494   0.370   5.815
 5783TIP3    H117290   3.531   0.305   5.751
 5783TIP3    H217291   3.476   0.311   5.891
 5784TIP3   OH217292   2.595  -0.117   5.466
 5784TIP3    H117293   2.500  -0.094   5.453
 5784TIP3    H217294   2.589  -0.213   5.462
 5785TIP3   OH217295   2.890  -0.122   5.169
 5785TIP3    H117296   2.980  -0.107   5.135
 5785TIP3    H217297   2.832  -0.106   5.090
 5786TIP3   OH217298   2.716  -0.097   4.958
 5786TIP3    H117299   2.639  -0.140   4.916
 5786TIP3    H217300   2.763  -0.063   4.880
 5787TIP3   OH217301   3.833   1.583   5.902
 5787TIP3    H117302   3.831   1.610   5.808
 5787TIP3    H217303   3.908   1.635   5.935
 5788TIP3   OH217304   2.790   0.696   6.324
 5788TIP3    H117305   2.871   0.725   6.372
 5788TIP3    H217306   2.726   0.696   6.398
 5789TIP3   OH217307   3.244   0.147   5.579
 5789TIP3    H117308   3.325   0.113   5.538
 5789TIP3    H217309   3.250   0.109   5.670
 5790TIP3   OH217310   3.247   0.068   5.843
 5790TIP3    H117311   3.153   0.063   5.871
 5790TIP3    H217312   3.288   0.112   5.919
 5791TIP3   OH217313   2.965   0.440   4.961
 5791TIP3    H117314   2.897   0.369   4.954
 5791TIP3    H217315   2.948   0.472   5.054
 5792TIP3   OH217316   3.870   0.672   5.594
 5792TIP3    H117317   3.893   0.723   5.513
 5792TIP3    H217318   3.784   0.632   5.570
 5793TIP3   OH217319   3.397  -0.207   4.770
 5793TIP3    H117320   3.340  -0.262   4.825
 5793TIP3    H217321   3.441  -0.150   4.836
 5794TIP3   OH217322   3.370   0.756   5.960
 5794TIP3    H117323   3.386   0.731   6.052
 5794TIP3    H217324   3.328   0.843   5.969
 5795TIP3   OH217325   3.500  -0.004   4.935
 5795TIP3    H117326   3.595   0.010   4.954
 5795TIP3    H217327   3.478   0.072   4.878
 5796TIP3   OH217328   2.657   0.460   5.639
 5796TIP3    H117329   2.696   0.431   5.554
 5796TIP3    H217330   2.688   0.392   5.700
 5797TIP3   OH217331   3.106   0.587   4.776
 5797TIP3    H117332   3.055   0.670   4.789
 5797TIP3    H217333   3.060   0.528   4.839
 5798TIP3   OH217334   2.530   0.374   6.255
 5798TIP3    H117335   2.578   0.397   6.337
 5798TIP3    H217336   2.491   0.290   6.286
 5799TIP3   OH217337   3.266   0.493   6.272
 5799TIP3    H117338   3.205   0.433   6.225
 5799TIP3    H217339   3.353   0.463   6.239
 5800TIP3   OH217340   3.527   1.012   5.854
 5800TIP3    H117341   3.431   1.012   5.868
 5800TIP3    H217342   3.557   1.063   5.932
 5801TIP3   OH217343   3.952   0.102   4.754
 5801TIP3    H117344   3.886   0.045   4.711
 5801TIP3    H217345   3.939   0.186   4.704
 5802TIP3   OH217346   4.156   0.945   5.846
 5802TIP3    H117347   4.058   0.941   5.836
 5802TIP3    H217348   4.183   0.913   5.757
 5803TIP3   OH217349   3.635   0.905   4.670
 5803TIP3    H117350   3.614   0.836   4.734
 5803TIP3    H217351   3.646   0.856   4.587
 5804TIP3   OH217352   3.633   0.534   5.516
 5804TIP3    H117353   3.539   0.510   5.527
 5804TIP3    H217354   3.667   0.456   5.468
 5805TIP3   OH217355   2.759   0.759   5.260
 5805TIP3    H117356   2.755   0.844   5.211
 5805TIP3    H217357   2.666   0.746   5.280
 5806TIP3   OH217358   2.323   0.065   4.967
 5806TIP3    H117359   2.368   0.149   4.990
 5806TIP3    H217360   2.246   0.067   5.028
 5807TIP3   OH217361   2.903   0.528   5.208
 5807TIP3    H117362   2.864   0.616   5.226
 5807TIP3    H217363   2.866   0.476   5.282
 5808TIP3   OH217364   3.029   1.106   5.735
 5808TIP3    H117365   3.071   1.178   5.685
 5808TIP3    H217366   3.104   1.071   5.785
 5809TIP3   OH217367   2.690   0.994   5.131
 5809TIP3    H117368   2.598   1.008   5.161
 5809TIP3    H217369   2.719   1.087   5.118
 5810TIP3   OH217370   3.418   0.738   5.692
 5810TIP3    H117371   3.409   0.738   5.790
 5810TIP3    H217372   3.500   0.687   5.680
 5811TIP3   OH217373   3.377   0.621   4.573
 5811TIP3    H117374   3.440   0.608   4.648
 5811TIP3    H217375   3.294   0.597   4.617
 5812TIP3   OH217376   3.668   1.273   5.742
 5812TIP3    H117377   3.588   1.218   5.735
 5812TIP3    H217378   3.652   1.339   5.671
 5813TIP3   OH217379   3.733   1.109   4.395
 5813TIP3    H117380   3.776   1.183   4.348
 5813TIP3    H217381   3.652   1.155   4.425
 5814TIP3   OH217382   3.550   0.567   4.789
 5814TIP3    H117383   3.540   0.501   4.860
 5814TIP3    H217384   3.648   0.565   4.778
 5815TIP3   OH217385   2.471   0.969   5.893
 5815TIP3    H117386   2.525   0.897   5.927
 5815TIP3    H217387   2.493   1.040   5.955
 5816TIP3   OH217388   2.756   0.619   4.575
 5816TIP3    H117389   2.769   0.527   4.543
 5816TIP3    H217390   2.740   0.604   4.670
 5817TIP3   OH217391   2.706   0.622   4.854
 5817TIP3    H117392   2.768   0.565   4.902
 5817TIP3    H217393   2.740   0.710   4.874
 5818TIP3   OH217394   2.443   0.315   5.051
 5818TIP3    H117395   2.375   0.357   5.108
 5818TIP3    H217396   2.452   0.384   4.983
 5819TIP3   OH217397   2.950   0.816   4.799
 5819TIP3    H117398   2.921   0.875   4.870
 5819TIP3    H217399   2.990   0.880   4.739
 5820TIP3   OH217400   3.176  -0.131   5.194
 5820TIP3    H117401   3.231  -0.052   5.174
 5820TIP3    H217402   3.187  -0.138   5.290
 5821TIP3   OH217403   3.447   0.196   6.027
 5821TIP3    H117404   3.435   0.277   6.081
 5821TIP3    H217405   3.464   0.133   6.098
 5822TIP3   OH217406   3.723   0.294   5.388
 5822TIP3    H117407   3.641   0.242   5.398
 5822TIP3    H217408   3.787   0.242   5.439
 5823TIP3   OH217409   2.432   0.522   4.856
 5823TIP3    H117410   2.500   0.591   4.864
 5823TIP3    H217411   2.475   0.466   4.788
 5824TIP3   OH217412   2.377  -0.206   4.997
 5824TIP3    H117413   2.368  -0.110   4.984
 5824TIP3    H217414   2.298  -0.240   4.950
 5825TIP3   OH217415   3.687   1.246   5.335
 5825TIP3    H117416   3.645   1.293   5.260
 5825TIP3    H217417   3.782   1.266   5.315
 5826TIP3   OH217418   2.292   0.740   5.242
 5826TIP3    H117419   2.201   0.770   5.259
 5826TIP3    H217420   2.305   0.773   5.153
 5827TIP3   OH217421   2.459   1.275   6.314
 5827TIP3    H117422   2.544   1.278   6.362
 5827TIP3    H217423   2.439   1.180   6.315
 5828TIP3   OH217424   2.939   1.244   6.359
 5828TIP3    H117425   3.034   1.232   6.370
 5828TIP3    H217426   2.919   1.184   6.285
 5829TIP3   OH217427   2.927   0.816   4.486
 5829TIP3    H117428   2.861   0.757   4.529
 5829TIP3    H217429   3.001   0.754   4.482
 5830TIP3   OH217430   3.585   1.143   6.088
 5830TIP3    H117431   3.572   1.078   6.161
 5830TIP3    H217432   3.655   1.200   6.124
 5831TIP3   OH217433   2.592   0.685   6.515
 5831TIP3    H117434   2.605   0.590   6.530
 5831TIP3    H217435   2.502   0.687   6.477
 5832TIP3   OH217436   2.568   0.340   4.706
 5832TIP3    H117437   2.616   0.296   4.778
 5832TIP3    H217438   2.636   0.341   4.636
 5833TIP3   OH217439   3.200   0.768   6.288
 5833TIP3    H117440   3.155   0.783   6.202
 5833TIP3    H217441   3.227   0.674   6.282
 5834TIP3   OH217442   3.068   0.546   4.501
 5834TIP3    H117443   3.074   0.552   4.599
 5834TIP3    H217444   3.072   0.448   4.493
 5835TIP3   OH217445   3.690   0.773   5.895
 5835TIP3    H117446   3.763   0.820   5.851
 5835TIP3    H217447   3.618   0.837   5.883
 5836TIP3   OH217448   2.707   0.417   6.489
 5836TIP3    H117449   2.781   0.356   6.476
 5836TIP3    H217450   2.727   0.448   6.580
 5837TIP3   OH217451   2.780   0.238   4.934
 5837TIP3    H117452   2.745   0.194   5.014
 5837TIP3    H217453   2.812   0.162   4.882
 5838TIP3   OH217454   3.043   0.313   6.159
 5838TIP3    H117455   2.962   0.368   6.160
 5838TIP3    H217456   3.086   0.340   6.075
 5839TIP3   OH217457   2.873   0.033   4.772
 5839TIP3    H117458   2.848   0.029   4.677
 5839TIP3    H217459   2.970   0.034   4.766
 5840TIP3   OH217460   3.562   0.707   6.296
 5840TIP3    H117461   3.639   0.679   6.244
 5840TIP3    H217462   3.554   0.636   6.361
 5841TIP3   OH217463   3.693   0.366   4.429
 5841TIP3    H117464   3.673   0.321   4.345
 5841TIP3    H217465   3.661   0.456   4.408
 5842TIP3   OH217466   3.155   0.103   6.282
 5842TIP3    H117467   3.151   0.037   6.211
 5842TIP3    H217468   3.109   0.179   6.240
 5843TIP3   OH217469   3.208   0.413   5.962
 5843TIP3    H117470   3.284   0.425   5.904
 5843TIP3    H217471   3.145   0.478   5.924
 5844TIP3   OH217472   3.765   0.404   6.332
 5844TIP3    H117473   3.797   0.322   6.374
 5844TIP3    H217474   3.847   0.454   6.317
 5845TIP3   OH217475   3.821   0.631   6.083
 5845TIP3    H117476   3.758   0.683   6.027
 5845TIP3    H217477   3.905   0.661   6.040
 5846TIP3   OH217478   3.013   0.215   6.507
 5846TIP3    H117479   2.968   0.131   6.532
 5846TIP3    H217480   3.073   0.183   6.438
 5847TIP3   OH217481   3.413   0.171   6.349
 5847TIP3    H117482   3.429   0.118   6.431
 5847TIP3    H217483   3.319   0.150   6.334
 5848TIP3   OH217484   2.162   0.472   4.892
 5848TIP3    H117485   2.256   0.494   4.877
 5848TIP3    H217486   2.155   0.384   4.850
 5849TIP3   OH217487   2.053   1.074   5.307
 5849TIP3    H117488   2.059   0.999   5.246
 5849TIP3    H217489   2.106   1.038   5.382
 5850TIP3   OH217490   2.213   0.952   5.488
 5850TIP3    H117491   2.202   0.870   5.539
 5850TIP3    H217492   2.268   1.005   5.549
 5851TIP3   OH217493   3.938   1.341   5.291
 5851TIP3    H117494   3.965   1.376   5.378
 5851TIP3    H217495   4.000   1.385   5.231
 5852TIP3   OH217496   3.966   1.361   5.573
 5852TIP3    H117497   3.926   1.271   5.569
 5852TIP3    H217498   4.045   1.342   5.624
 5853TIP3   OH217499   4.016   1.036   6.149
 5853TIP3    H117500   3.940   1.041   6.210
 5853TIP3    H217501   4.049   1.128   6.150
 5854TIP3   OH217502   3.829   0.552   4.767
 5854TIP3    H117503   3.899   0.615   4.738
 5854TIP3    H217504   3.873   0.512   4.846
 5855TIP3   OH217505   3.959   0.423   4.968
 5855TIP3    H117506   3.894   0.380   5.028
 5855TIP3    H217507   4.026   0.458   5.030
 5856TIP3   OH217508   4.012   0.807   5.402
 5856TIP3    H117509   4.065   0.744   5.350
 5856TIP3    H217510   4.005   0.883   5.341
 5857TIP3   OH217511   3.845   1.108   5.600
 5857TIP3    H117512   3.774   1.153   5.649
 5857TIP3    H217513   3.795   1.062   5.529
 5858TIP3   OH217514   3.893   0.331   4.611
 5858TIP3    H117515   3.822   0.339   4.544
 5858TIP3    H217516   3.868   0.404   4.671
 5859TIP3   OH217517   3.761  -0.019   4.577
 5859TIP3    H117518   3.751   0.059   4.521
 5859TIP3    H217519   3.715  -0.086   4.525
 5860TIP3   OH217520   3.773   0.288   5.118
 5860TIP3    H117521   3.771   0.191   5.101
 5860TIP3    H217522   3.760   0.292   5.215
 5861TIP3   OH217523   4.054   0.708   5.970
 5861TIP3    H117524   4.126   0.642   5.959
 5861TIP3    H217525   4.081   0.778   5.908
 5862TIP3   OH217526   4.236   0.516   5.985
 5862TIP3    H117527   4.177   0.448   6.022
 5862TIP3    H217528   4.322   0.486   6.022
 5863TIP3   OH217529   3.761   0.018   5.046
 5863TIP3    H117530   3.778  -0.067   5.091
 5863TIP3    H217531   3.815   0.001   4.966
 5864TIP3   OH217532   3.948   0.170   5.517
 5864TIP3    H117533   4.008   0.225   5.464
 5864TIP3    H217534   3.946   0.221   5.602
 5865TIP3   OH217535   3.987   0.319   5.737
 5865TIP3    H117536   3.911   0.353   5.788
 5865TIP3    H217537   4.025   0.402   5.700
 5866TIP3   OH217538   2.650   0.123   6.594
 5866TIP3    H117539   2.740   0.095   6.568
 5866TIP3    H217540   2.605   0.037   6.592
 5867TIP3   OH217541   2.376   0.106   5.924
 5867TIP3    H117542   2.386   0.030   5.862
 5867TIP3    H217543   2.461   0.093   5.971
 5868TIP3   OH217544   3.521   1.206   4.947
 5868TIP3    H117545   3.573   1.194   4.865
 5868TIP3    H217546   3.574   1.271   4.996
 5869TIP3   OH217547   2.625   1.006   6.334
 5869TIP3    H117548   2.532   0.981   6.320
 5869TIP3    H217549   2.636   0.993   6.429
 5870TIP3   OH217550   2.801   1.039   5.880
 5870TIP3    H117551   2.753   1.116   5.842
 5870TIP3    H217552   2.888   1.055   5.838
 5871TIP3   OH217553   3.249   1.287   6.018
 5871TIP3    H117554   3.289   1.288   6.107
 5871TIP3    H217555   3.315   1.340   5.968
 5872TIP3   OH217556   3.428   1.439   5.876
 5872TIP3    H117557   3.501   1.388   5.839
 5872TIP3    H217558   3.477   1.497   5.939
 5873TIP3   OH217559   2.479   1.298   5.906
 5873TIP3    H117560   2.390   1.332   5.884
 5873TIP3    H217561   2.491   1.338   5.993
 5874TIP3   OH217562   2.715   1.278   5.763
 5874TIP3    H117563   2.629   1.290   5.809
 5874TIP3    H217564   2.695   1.311   5.674
 5875TIP3   OH217565   3.144   1.309   5.560
 5875TIP3    H117566   3.071   1.328   5.498
 5875TIP3    H217567   3.155   1.395   5.605
 5876TIP3   OH217568   3.411   1.245   5.611
 5876TIP3    H117569   3.317   1.264   5.591
 5876TIP3    H217570   3.455   1.323   5.573
 5877TIP3   OH217571   3.616   1.438   5.529
 5877TIP3    H117572   3.605   1.523   5.480
 5877TIP3    H217573   3.644   1.378   5.457
 5878TIP3   OH217574   2.392   1.093   5.651
 5878TIP3    H117575   2.418   1.070   5.743
 5878TIP3    H217576   2.465   1.049   5.602
 5879TIP3   OH217577   2.584   0.963   5.505
 5879TIP3    H117578   2.601   0.881   5.556
 5879TIP3    H217579   2.674   1.002   5.499
 5880TIP3   OH217580   2.850   1.060   5.510
 5880TIP3    H117581   2.882   0.968   5.498
 5880TIP3    H217582   2.893   1.082   5.594
 5881TIP3   OH217583   2.936   1.060   4.632
 5881TIP3    H117584   3.021   1.093   4.600
 5881TIP3    H217585   2.918   0.985   4.573
 5882TIP3   OH217586   3.667   1.171   4.715
 5882TIP3    H117587   3.659   1.074   4.704
 5882TIP3    H217588   3.623   1.202   4.633
 5883TIP3   OH217589   2.261   0.896   4.680
 5883TIP3    H117590   2.247   0.921   4.772
 5883TIP3    H217591   2.347   0.850   4.682
 5884TIP3   OH217592   3.898   1.316   5.906
 5884TIP3    H117593   3.819   1.285   5.857
 5884TIP3    H217594   3.879   1.412   5.907
 5885TIP3   OH217595   5.161   0.686   4.673
 5885TIP3    H117596   5.136   0.779   4.655
 5885TIP3    H217597   5.083   0.640   4.638
 5886TIP3   OH217598   5.156   0.689   5.048
 5886TIP3    H117599   5.186   0.660   5.136
 5886TIP3    H217600   5.120   0.608   5.011
 5887TIP3   OH217601   4.459   0.590   5.419
 5887TIP3    H117602   4.492   0.519   5.477
 5887TIP3    H217603   4.541   0.640   5.404
 5888TIP3   OH217604   5.401   0.991   4.732
 5888TIP3    H117605   5.392   0.920   4.797
 5888TIP3    H217606   5.432   1.065   4.787
 5889TIP3   OH217607   4.430   0.992   5.143
 5889TIP3    H117608   4.423   0.894   5.146
 5889TIP3    H217609   4.526   1.002   5.137
 5890TIP3   OH217610   4.127   0.195   4.942
 5890TIP3    H117611   4.079   0.279   4.948
 5890TIP3    H217612   4.070   0.147   4.878
 5891TIP3   OH217613   4.196   0.487   5.096
 5891TIP3    H117614   4.243   0.406   5.127
 5891TIP3    H217615   4.257   0.518   5.027
 5892TIP3   OH217616   5.049   1.451   4.747
 5892TIP3    H117617   5.098   1.380   4.701
 5892TIP3    H217618   5.048   1.418   4.838
 5893TIP3   OH217619   4.960   0.914   5.100
 5893TIP3    H117620   4.999   0.837   5.055
 5893TIP3    H217621   5.044   0.960   5.124
 5894TIP3   OH217622   5.365   0.442   5.129
 5894TIP3    H117623   5.405   0.354   5.149
 5894TIP3    H217624   5.330   0.428   5.039
 5895TIP3   OH217625   4.638   0.081   5.134
 5895TIP3    H117626   4.653   0.155   5.073
 5895TIP3    H217627   4.703   0.017   5.101
 5896TIP3   OH217628   5.371   0.184   4.757
 5896TIP3    H117629   5.438   0.119   4.785
 5896TIP3    H217630   5.401   0.202   4.667
 5897TIP3   OH217631   4.334   0.275   5.193
 5897TIP3    H117632   4.415   0.268   5.249
 5897TIP3    H217633   4.362   0.221   5.116
 5898TIP3   OH217634   4.784   0.476   4.997
 5898TIP3    H117635   4.878   0.452   5.012
 5898TIP3    H217636   4.748   0.390   4.967
 5899TIP3   OH217637   6.039   0.452   5.218
 5899TIP3    H117638   5.948   0.488   5.220
 5899TIP3    H217639   6.056   0.434   5.311
 5900TIP3   OH217640   5.056   0.910   4.541
 5900TIP3    H117641   5.010   0.889   4.459
 5900TIP3    H217642   5.013   0.995   4.565
 5901TIP3   OH217643   4.814   0.832   5.331
 5901TIP3    H117644   4.751   0.898   5.368
 5901TIP3    H217645   4.856   0.883   5.258
 5902TIP3   OH217646   4.545   0.224   5.346
 5902TIP3    H117647   4.632   0.264   5.365
 5902TIP3    H217648   4.575   0.145   5.295
 5903TIP3   OH217649   4.639   1.026   5.425
 5903TIP3    H117650   4.615   1.112   5.385
 5903TIP3    H217651   4.559   1.012   5.481
 5904TIP3   OH217652   4.036   0.717   4.661
 5904TIP3    H117653   3.996   0.747   4.578
 5904TIP3    H217654   4.068   0.801   4.700
 5905TIP3   OH217655   5.475   1.232   4.901
 5905TIP3    H117656   5.385   1.224   4.940
 5905TIP3    H217657   5.467   1.319   4.856
 5906TIP3   OH217658   5.179   1.279   4.576
 5906TIP3    H117659   5.228   1.196   4.555
 5906TIP3    H217660   5.240   1.344   4.535
 5907TIP3   OH217661   5.321   1.064   4.480
 5907TIP3    H117662   5.281   0.985   4.442
 5907TIP3    H217663   5.356   1.029   4.565
 5908TIP3   OH217664   5.701   1.147   5.245
 5908TIP3    H117665   5.690   1.069   5.186
 5908TIP3    H217666   5.684   1.222   5.183
 5909TIP3   OH217667   4.992   0.542   4.499
 5909TIP3    H117668   4.912   0.594   4.476
 5909TIP3    H217669   5.039   0.539   4.414
 5910TIP3   OH217670   4.948   0.327   4.224
 5910TIP3    H117671   5.018   0.376   4.271
 5910TIP3    H217672   5.002   0.267   4.170
 5911TIP3   OH217673   5.897   0.789   5.092
 5911TIP3    H117674   5.812   0.839   5.095
 5911TIP3    H217675   5.924   0.806   5.000
 5912TIP3   OH217676   5.339   0.623   4.474
 5912TIP3    H117677   5.286   0.646   4.553
 5912TIP3    H217678   5.425   0.602   4.517
 5913TIP3   OH217679   5.568   0.677   5.377
 5913TIP3    H117680   5.566   0.758   5.430
 5913TIP3    H217681   5.480   0.682   5.334
 5914TIP3   OH217682   4.572   0.623   4.891
 5914TIP3    H117683   4.530   0.564   4.824
 5914TIP3    H217684   4.650   0.569   4.919
 5915TIP3   OH217685   4.701   1.029   5.041
 5915TIP3    H117686   4.682   0.987   4.956
 5915TIP3    H217687   4.792   0.998   5.059
 5916TIP3   OH217688   4.705   0.593   5.245
 5916TIP3    H117689   4.740   0.569   5.156
 5916TIP3    H217690   4.752   0.677   5.265
 5917TIP3   OH217691   5.233   1.229   5.020
 5917TIP3    H117692   5.221   1.310   5.073
 5917TIP3    H217693   5.219   1.157   5.085
 5918TIP3   OH217694   4.846   1.149   5.568
 5918TIP3    H117695   4.786   1.211   5.614
 5918TIP3    H217696   4.782   1.095   5.519
 5919TIP3   OH217697   5.181   0.479   4.300
 5919TIP3    H117698   5.240   0.539   4.353
 5919TIP3    H217699   5.209   0.504   4.208
 5920TIP3   OH217700   4.602   0.710   5.668
 5920TIP3    H117701   4.603   0.795   5.716
 5920TIP3    H217702   4.507   0.687   5.673
 5921TIP3   OH217703   4.921   1.162   4.574
 5921TIP3    H117704   5.001   1.214   4.594
 5921TIP3    H217705   4.862   1.229   4.537
 5922TIP3   OH217706   4.641   1.318   5.654
 5922TIP3    H117707   4.607   1.318   5.562
 5922TIP3    H217708   4.561   1.295   5.705
 5923TIP3   OH217709   4.437   0.461   4.699
 5923TIP3    H117710   4.374   0.507   4.639
 5923TIP3    H217711   4.397   0.373   4.704
 5924TIP3   OH217712   5.494   1.089   3.893
 5924TIP3    H117713   5.503   1.186   3.881
 5924TIP3    H217714   5.588   1.060   3.883
 5925TIP3   OH217715   4.219   0.848   5.603
 5925TIP3    H117716   4.156   0.825   5.531
 5925TIP3    H217717   4.258   0.761   5.626
 5926TIP3   OH217718   4.074   1.039   5.237
 5926TIP3    H117719   4.169   1.033   5.225
 5926TIP3    H217720   4.066   1.120   5.290
 5927TIP3   OH217721   5.940   1.490   5.290
 5927TIP3    H117722   5.938   1.394   5.305
 5927TIP3    H217723   5.857   1.517   5.335
 5928TIP3   OH217724   5.045   1.278   5.425
 5928TIP3    H117725   5.045   1.370   5.457
 5928TIP3    H217726   4.974   1.239   5.480
 5929TIP3   OH217727   4.803   1.406   4.377
 5929TIP3    H117728   4.759   1.392   4.291
 5929TIP3    H217729   4.773   1.496   4.401
 5930TIP3   OH217730   4.242   1.256   4.761
 5930TIP3    H117731   4.293   1.248   4.845
 5930TIP3    H217732   4.182   1.180   4.770
 5931TIP3   OH217733   5.005   1.306   4.017
 5931TIP3    H117734   5.065   1.238   3.981
 5931TIP3    H217735   5.039   1.318   4.108
 5932TIP3   OH217736   5.055   1.354   4.287
 5932TIP3    H117737   4.967   1.364   4.331
 5932TIP3    H217738   5.108   1.317   4.360
 5933TIP3   OH217739   5.838   0.601   5.567
 5933TIP3    H117740   5.770   0.661   5.532
 5933TIP3    H217741   5.805   0.517   5.532
 5934TIP3   OH217742   4.423   1.031   5.593
 5934TIP3    H117743   4.475   1.012   5.674
 5934TIP3    H217744   4.350   0.966   5.599
 5935TIP3   OH217745   5.627   0.431   5.495
 5935TIP3    H117746   5.612   0.447   5.589
 5935TIP3    H217747   5.600   0.514   5.452
 5936TIP3   OH217748   5.257   0.529   4.044
 5936TIP3    H117749   5.224   0.501   3.957
 5936TIP3    H217750   5.336   0.580   4.019
 5937TIP3   OH217751   4.771   0.377   5.404
 5937TIP3    H117752   4.712   0.399   5.478
 5937TIP3    H217753   4.753   0.452   5.343
 5938TIP3   OH217754   4.645   0.252   4.907
 5938TIP3    H117755   4.551   0.231   4.924
 5938TIP3    H217756   4.651   0.229   4.812
 5939TIP3   OH217757   5.126   0.342   4.630
 5939TIP3    H117758   5.075   0.415   4.587
 5939TIP3    H217759   5.185   0.314   4.558
 5940TIP3   OH217760   5.310   0.641   5.709
 5940TIP3    H117761   5.286   0.566   5.769
 5940TIP3    H217762   5.404   0.655   5.735
 5941TIP3   OH217763   5.269   0.398   4.881
 5941TIP3    H117764   5.215   0.427   4.805
 5941TIP3    H217765   5.305   0.314   4.843
 5942TIP3   OH217766   4.572   0.412   5.598
 5942TIP3    H117767   4.608   0.462   5.673
 5942TIP3    H217768   4.552   0.325   5.636
 5943TIP3   OH217769   4.199  -0.045   4.748
 5943TIP3    H117770   4.212  -0.033   4.652
 5943TIP3    H217771   4.109  -0.007   4.755
 5944TIP3   OH217772   5.287   0.627   5.303
 5944TIP3    H117773   5.325   0.563   5.239
 5944TIP3    H217774   5.270   0.568   5.379
 5945TIP3   OH217775   4.390   0.142   4.954
 5945TIP3    H117776   4.293   0.160   4.942
 5945TIP3    H217777   4.390   0.047   4.938
 5946TIP3   OH217778   4.684   0.137   4.659
 5946TIP3    H117779   4.776   0.149   4.628
 5946TIP3    H217780   4.630   0.154   4.579
 5947TIP3   OH217781   4.510   0.167   4.450
 5947TIP3    H117782   4.446   0.105   4.415
 5947TIP3    H217783   4.557   0.196   4.369
 5948TIP3   OH217784   5.627   1.841   5.388
 5948TIP3    H117785   5.626   1.867   5.294
 5948TIP3    H217786   5.704   1.892   5.421
 5949TIP3   OH217787   4.584   0.953   5.813
 5949TIP3    H117788   4.666   0.979   5.858
 5949TIP3    H217789   4.522   0.954   5.888
 5950TIP3   OH217790   5.040   0.399   5.064
 5950TIP3    H117791   5.124   0.374   5.022
 5950TIP3    H217792   5.050   0.362   5.154
 5951TIP3   OH217793   5.041   0.321   5.334
 5951TIP3    H117794   4.948   0.322   5.362
 5951TIP3    H217795   5.086   0.367   5.406
 5952TIP3   OH217796   4.762   0.695   4.449
 5952TIP3    H117797   4.691   0.628   4.440
 5952TIP3    H217798   4.745   0.728   4.541
 5953TIP3   OH217799   5.663   0.931   5.081
 5953TIP3    H117800   5.687   0.980   4.999
 5953TIP3    H217801   5.579   0.887   5.055
 5954TIP3   OH217802   5.190   0.054   4.254
 5954TIP3    H117803   5.139  -0.007   4.309
 5954TIP3    H217804   5.237   0.108   4.321
 5955TIP3   OH217805   5.161   1.010   5.448
 5955TIP3    H117806   5.188   0.989   5.538
 5955TIP3    H217807   5.126   1.100   5.455
 5956TIP3   OH217808   5.296   0.252   4.421
 5956TIP3    H117809   5.390   0.266   4.445
 5956TIP3    H217810   5.276   0.330   4.365
 5957TIP3   OH217811   4.453   0.712   5.127
 5957TIP3    H117812   4.491   0.686   5.041
 5957TIP3    H217813   4.500   0.653   5.188
 5958TIP3   OH217814   4.906   0.842   4.265
 5958TIP3    H117815   4.860   0.928   4.272
 5958TIP3    H217816   4.854   0.788   4.329
 5959TIP3   OH217817   4.334   0.639   5.739
 5959TIP3    H117818   4.359   0.627   5.832
 5959TIP3    H217819   4.269   0.568   5.727
 5960TIP3   OH217820   5.062   0.750   5.758
 5960TIP3    H117821   5.004   0.690   5.708
 5960TIP3    H217822   5.151   0.721   5.728
 5961TIP3   OH217823   5.324   1.268   5.344
 5961TIP3    H117824   5.227   1.269   5.356
 5961TIP3    H217825   5.353   1.321   5.421
 5962TIP3   OH217826   5.753   0.358   4.239
 5962TIP3    H117827   5.685   0.300   4.199
 5962TIP3    H217828   5.736   0.442   4.190
 5963TIP3   OH217829   5.951   1.201   5.332
 5963TIP3    H117830   5.853   1.198   5.323
 5963TIP3    H217831   5.978   1.169   5.242
 5964TIP3   OH217832   5.430   1.162   4.158
 5964TIP3    H117833   5.410   1.092   4.222
 5964TIP3    H217834   5.446   1.112   4.076
 5965TIP3   OH217835   5.429   0.791   5.002
 5965TIP3    H117836   5.336   0.766   5.012
 5965TIP3    H217837   5.464   0.713   4.956
 5966TIP3   OH217838   4.556   1.018   4.750
 5966TIP3    H117839   4.559   1.100   4.697
 5966TIP3    H217840   4.461   1.004   4.760
 5967TIP3   OH217841   4.117   0.324   4.448
 5967TIP3    H117842   4.167   0.404   4.472
 5967TIP3    H217843   4.043   0.326   4.512
 5968TIP3   OH217844   4.696   0.784   4.695
 5968TIP3    H117845   4.661   0.874   4.713
 5968TIP3    H217846   4.662   0.734   4.770
 5969TIP3   OH217847   4.824   1.363   5.221
 5969TIP3    H117848   4.866   1.436   5.171
 5969TIP3    H217849   4.901   1.328   5.269
 5970TIP3   OH217850   4.477   1.258   4.603
 5970TIP3    H117851   4.391   1.268   4.649
 5970TIP3    H217852   4.510   1.350   4.606
 5971TIP3   OH217853   5.215   0.995   5.179
 5971TIP3    H117854   5.206   0.993   5.277
 5971TIP3    H217855   5.296   0.944   5.165
 5972TIP3   OH217856   5.187   0.885   4.062
 5972TIP3    H117857   5.242   0.861   4.141
 5972TIP3    H217858   5.099   0.864   4.096
 5973TIP3   OH217859   5.463   1.530   5.229
 5973TIP3    H117860   5.382   1.475   5.220
 5973TIP3    H217861   5.448   1.596   5.157
 5974TIP3   OH217862   5.528   1.364   3.883
 5974TIP3    H117863   5.567   1.437   3.831
 5974TIP3    H217864   5.448   1.410   3.915
 5975TIP3   OH217865   5.348   0.821   4.278
 5975TIP3    H117866   5.338   0.756   4.351
 5975TIP3    H217867   5.445   0.820   4.268
 5976TIP3   OH217868   4.262   1.224   5.382
 5976TIP3    H117869   4.318   1.151   5.411
 5976TIP3    H217870   4.294   1.297   5.437
 5977TIP3   OH217871   4.553   0.869   4.061
 5977TIP3    H117872   4.572   0.777   4.035
 5977TIP3    H217873   4.536   0.858   4.157
 5978TIP3   OH217874   4.500   0.874   4.334
 5978TIP3    H117875   4.573   0.847   4.392
 5978TIP3    H217876   4.505   0.973   4.341
 5979TIP3   OH217877   4.237   0.569   4.537
 5979TIP3    H117878   4.172   0.613   4.594
 5979TIP3    H217879   4.253   0.639   4.471
 5980TIP3   OH217880   4.764   1.071   4.279
 5980TIP3    H117881   4.679   1.099   4.318
 5980TIP3    H217882   4.785   1.149   4.225
 5981TIP3   OH217883   4.966   0.129   4.687
 5981TIP3    H117884   5.022   0.204   4.659
 5981TIP3    H217885   4.992   0.121   4.779
 5982TIP3   OH217886   5.238   0.453   5.514
 5982TIP3    H117887   5.233   0.532   5.572
 5982TIP3    H217888   5.269   0.388   5.579
 5983TIP3   OH217889   4.507   1.147   4.349
 5983TIP3    H117890   4.478   1.217   4.287
 5983TIP3    H217891   4.492   1.191   4.436
 5984TIP3   OH217892   5.517   0.555   4.873
 5984TIP3    H117893   5.441   0.495   4.887
 5984TIP3    H217894   5.589   0.508   4.921
 5985TIP3   OH217895   4.226   0.780   4.341
 5985TIP3    H117896   4.291   0.852   4.353
 5985TIP3    H217897   4.275   0.727   4.275
 5986TIP3   OH217898   4.172   0.053   4.491
 5986TIP3    H117899   4.170   0.148   4.470
 5986TIP3    H217900   4.102   0.018   4.432
 5987TIP3   OH217901   5.483   1.503   4.822
 5987TIP3    H117902   5.441   1.550   4.747
 5987TIP3    H217903   5.577   1.522   4.801
 5988TIP3   OH217904   4.100   0.989   4.733
 5988TIP3    H117905   4.024   1.024   4.783
 5988TIP3    H217906   4.082   1.028   4.645
 5989TIP3   OH217907   4.255   1.531   5.803
 5989TIP3    H117908   4.341   1.527   5.851
 5989TIP3    H217909   4.233   1.436   5.797
 5990TIP3   OH217910   4.731   1.502   5.849
 5990TIP3    H117911   4.827   1.489   5.857
 5990TIP3    H217912   4.712   1.442   5.775
 5991TIP3   OH217913   4.713   1.074   3.968
 5991TIP3    H117914   4.659   1.003   4.010
 5991TIP3    H217915   4.791   1.023   3.941
 5992TIP3   OH217916   5.376   1.403   5.579
 5992TIP3    H117917   5.367   1.335   5.649
 5992TIP3    H217918   5.453   1.455   5.610
 5993TIP3   OH217919   5.153   1.114   3.884
 5993TIP3    H117920   5.200   1.054   3.944
 5993TIP3    H217921   5.213   1.116   3.806
 5994TIP3   OH217922   4.381   0.949   6.009
 5994TIP3    H117923   4.402   0.855   6.018
 5994TIP3    H217924   4.298   0.946   5.958
 5995TIP3   OH217925   4.363   0.592   4.193
 5995TIP3    H117926   4.415   0.555   4.267
 5995TIP3    H217927   4.432   0.597   4.124
 5996TIP3   OH217928   4.986   1.023   5.780
 5996TIP3    H117929   4.952   1.040   5.690
 5996TIP3    H217930   5.022   0.932   5.772
 5997TIP3   OH217931   4.864   0.787   3.997
 5997TIP3    H117932   4.871   0.803   4.093
 5997TIP3    H217933   4.870   0.689   3.995
 5998TIP3   OH217934   5.485   1.031   5.382
 5998TIP3    H117935   5.560   1.074   5.338
 5998TIP3    H217936   5.415   1.098   5.368
 5999TIP3   OH217937   4.506   0.666   5.980
 5999TIP3    H117938   4.588   0.620   5.959
 5999TIP3    H217939   4.527   0.699   6.070
 6000TIP3   OH217940   4.571   0.494   4.418
 6000TIP3    H117941   4.544   0.448   4.500
 6000TIP3    H217942   4.607   0.420   4.365
 6001TIP3   OH217943   4.838   0.568   5.645
 6001TIP3    H117944   4.759   0.626   5.644
 6001TIP3    H217945   4.885   0.597   5.563
 6002TIP3   OH217946   4.669   0.288   4.259
 6002TIP3    H117947   4.647   0.282   4.164
 6002TIP3    H217948   4.767   0.290   4.255
 6003TIP3   OH217949   5.358   0.963   5.782
 6003TIP3    H117950   5.436   0.937   5.732
 6003TIP3    H217951   5.353   0.893   5.850
 6004TIP3   OH217952   5.490   0.619   3.916
 6004TIP3    H117953   5.470   0.576   3.831
 6004TIP3    H217954   5.458   0.710   3.895
 6005TIP3   OH217955   4.949   0.356   5.768
 6005TIP3    H117956   4.955   0.297   5.693
 6005TIP3    H217957   4.905   0.434   5.727
 6006TIP3   OH217958   5.001   0.669   5.449
 6006TIP3    H117959   5.081   0.679   5.395
 6006TIP3    H217960   4.942   0.735   5.409
 6007TIP3   OH217961   5.562   0.660   5.818
 6007TIP3    H117962   5.593   0.582   5.868
 6007TIP3    H217963   5.643   0.711   5.805
 6008TIP3   OH217964   5.616   0.889   5.569
 6008TIP3    H117965   5.554   0.941   5.513
 6008TIP3    H217966   5.701   0.917   5.527
 6009TIP3   OH217967   4.803   0.472   5.992
 6009TIP3    H117968   4.764   0.386   6.015
 6009TIP3    H217969   4.868   0.446   5.925
 6010TIP3   OH217970   5.206   0.431   5.838
 6010TIP3    H117971   5.223   0.378   5.919
 6010TIP3    H217972   5.114   0.405   5.822
 6011TIP3   OH217973   4.476   1.348   4.160
 6011TIP3    H117974   4.572   1.345   4.144
 6011TIP3    H217975   4.449   1.400   4.082
 6012TIP3   OH217976   3.959   0.732   4.378
 6012TIP3    H117977   4.054   0.755   4.364
 6012TIP3    H217978   3.955   0.642   4.339
 6013TIP3   OH217979   3.871   1.344   4.791
 6013TIP3    H117980   3.805   1.281   4.756
 6013TIP3    H217981   3.916   1.287   4.859
 6014TIP3   OH217982   4.008   1.198   4.978
 6014TIP3    H117983   3.999   1.123   5.039
 6014TIP3    H217984   4.061   1.259   5.033
 6015TIP3   OH217985   5.735   1.595   4.778
 6015TIP3    H117986   5.760   1.630   4.866
 6015TIP3    H217987   5.793   1.645   4.719
 6016TIP3   OH217988   5.764   1.616   5.059
 6016TIP3    H117989   5.723   1.527   5.055
 6016TIP3    H217990   5.839   1.597   5.118
 6017TIP3   OH217991   5.811   1.293   5.634
 6017TIP3    H117992   5.737   1.303   5.697
 6017TIP3    H217993   5.852   1.382   5.637
 6018TIP3   OH217994   5.626   0.808   4.254
 6018TIP3    H117995   5.696   0.871   4.226
 6018TIP3    H217996   5.669   0.768   4.333
 6019TIP3   OH217997   5.755   0.679   4.457
 6019TIP3    H117998   5.690   0.635   4.515
 6019TIP3    H217999   5.820   0.715   4.520
 6020TIP3   OH218000   5.808   1.065   4.890
 6020TIP3    H118001   5.861   1.000   4.841
 6020TIP3    H218002   5.801   1.139   4.826
 6021TIP3   OH218003   5.642   1.366   5.085
 6021TIP3    H118004   5.570   1.409   5.136
 6021TIP3    H218005   5.591   1.319   5.015
 6022TIP3   OH218006   5.690   0.587   4.097
 6022TIP3    H118007   5.618   0.595   4.030
 6022TIP3    H218008   5.664   0.660   4.158
 6023TIP3   OH218009   5.556   0.237   4.062
 6023TIP3    H118010   5.546   0.316   4.008
 6023TIP3    H218011   5.510   0.171   4.011
 6024TIP3   OH218012   5.569   0.543   4.604
 6024TIP3    H118013   5.569   0.446   4.590
 6024TIP3    H218014   5.559   0.549   4.702
 6025TIP3   OH218015   4.196   0.602   5.350
 6025TIP3    H118016   4.197   0.576   5.256
 6025TIP3    H218017   4.293   0.606   5.368
 6026TIP3   OH218018   5.849   0.964   5.456
 6026TIP3    H118019   5.921   0.898   5.446
 6026TIP3    H218020   5.877   1.035   5.396
 6027TIP3   OH218021   6.033   0.774   5.473
 6027TIP3    H118022   5.973   0.704   5.507
 6027TIP3    H218023   6.118   0.742   5.510
 6028TIP3   OH218024   5.554   0.272   4.532
 6028TIP3    H118025   5.576   0.190   4.581
 6028TIP3    H218026   5.611   0.255   4.453
 6029TIP3   OH218027   5.727   0.434   5.004
 6029TIP3    H118028   5.812   0.453   4.957
 6029TIP3    H218029   5.747   0.478   5.090
 6030TIP3   OH218030   5.787   0.575   5.231
 6030TIP3    H118031   5.707   0.612   5.273
 6030TIP3    H218032   5.827   0.653   5.188
 6031TIP3   OH218033   4.436   0.373   6.090
 6031TIP3    H118034   4.528   0.364   6.058
 6031TIP3    H218035   4.407   0.281   6.075
 6032TIP3   OH218036   4.189   0.233   5.419
 6032TIP3    H118037   4.232   0.257   5.333
 6032TIP3    H218038   4.207   0.312   5.471
 6033TIP3   OH218039   5.319   1.461   4.435
 6033TIP3    H118040   5.371   1.450   4.353
 6033TIP3    H218041   5.370   1.530   4.481
 6034TIP3   OH218042   4.420   1.266   5.818
 6034TIP3    H118043   4.330   1.236   5.797
 6034TIP3    H218044   4.427   1.246   5.912
 6035TIP3   OH218045   4.597   1.298   5.369
 6035TIP3    H118046   4.551   1.375   5.328
 6035TIP3    H218047   4.684   1.311   5.326
 6036TIP3   OH218048   5.045   1.544   5.507
 6036TIP3    H118049   5.087   1.546   5.595
 6036TIP3    H218050   5.111   1.595   5.454
 6037TIP3   OH218051   5.224   1.694   5.365
 6037TIP3    H118052   5.297   1.645   5.324
 6037TIP3    H218053   5.275   1.752   5.427
 6038TIP3   OH218054   4.274   1.552   5.395
 6038TIP3    H118055   4.186   1.589   5.369
 6038TIP3    H218056   4.286   1.596   5.480
 6039TIP3   OH218057   4.511   1.532   5.250
 6039TIP3    H118058   4.424   1.547   5.294
 6039TIP3    H218059   4.494   1.568   5.160
 6040TIP3   OH218060   4.937   1.564   5.048
 6040TIP3    H118061   4.870   1.586   4.981
 6040TIP3    H218062   4.951   1.651   5.091
 6041TIP3   OH218063   5.206   1.502   5.098
 6041TIP3    H118064   5.112   1.521   5.079
 6041TIP3    H218065   5.250   1.580   5.059
 6042TIP3   OH218066   5.414   1.695   5.016
 6042TIP3    H118067   5.401   1.780   4.969
 6042TIP3    H218068   5.440   1.635   4.942
 6043TIP3   OH218069   4.186   1.349   5.137
 6043TIP3    H118070   4.213   1.326   5.229
 6043TIP3    H218071   4.258   1.305   5.087
 6044TIP3   OH218072   4.379   1.220   4.993
 6044TIP3    H118073   4.397   1.137   5.042
 6044TIP3    H218074   4.470   1.259   4.987
 6045TIP3   OH218075   4.644   1.315   4.997
 6045TIP3    H118076   4.679   1.225   4.984
 6045TIP3    H218077   4.688   1.339   5.080
 6046TIP3   OH218078   3.975   1.120   4.531
 6046TIP3    H118079   3.890   1.088   4.496
 6046TIP3    H218080   3.964   1.215   4.519
 6047TIP3   OH218081   4.746   1.311   4.110
 6047TIP3    H118082   4.835   1.333   4.076
 6047TIP3    H218083   4.724   1.237   4.049
 6048TIP3   OH218084   5.465   1.428   4.203
 6048TIP3    H118085   5.455   1.331   4.191
 6048TIP3    H218086   5.420   1.461   4.122
 6049TIP3   OH218087   4.050   1.147   4.168
 6049TIP3    H118088   4.052   1.176   4.261
 6049TIP3    H218089   4.139   1.107   4.156
 6050TIP3   OH218090   5.694   1.574   5.390
 6050TIP3    H118091   5.615   1.542   5.342
 6050TIP3    H218092   5.675   1.670   5.393
 6051TIP3   OH218093   6.956   0.943   4.161
 6051TIP3    H118094   6.931   1.035   4.141
 6051TIP3    H218095   6.880   0.896   4.123
 6052TIP3   OH218096   6.970   0.943   4.537
 6052TIP3    H118097   6.983   0.903   4.624
 6052TIP3    H218098   6.914   0.879   4.492
 6053TIP3   OH218099   6.255   0.842   4.901
 6053TIP3    H118100   6.287   0.770   4.960
 6053TIP3    H218101   6.332   0.900   4.902
 6054TIP3   OH218102   7.196   1.248   4.219
 6054TIP3    H118103   7.189   1.176   4.283
 6054TIP3    H218104   7.231   1.320   4.274
 6055TIP3   OH218105   6.229   1.251   4.630
 6055TIP3    H118106   6.217   1.154   4.634
 6055TIP3    H218107   6.326   1.256   4.626
 6056TIP3   OH218108   5.930   0.457   4.423
 6056TIP3    H118109   5.876   0.537   4.435
 6056TIP3    H218110   5.870   0.405   4.366
 6057TIP3   OH218111   5.994   0.746   4.582
 6057TIP3    H118112   6.036   0.665   4.619
 6057TIP3    H218113   6.050   0.764   4.506
 6058TIP3   OH218114   6.847   1.708   4.235
 6058TIP3    H118115   6.893   1.638   4.185
 6058TIP3    H218116   6.848   1.673   4.325
 6059TIP3   OH218117   7.160   0.701   4.619
 6059TIP3    H118118   7.200   0.614   4.637
 6059TIP3    H218119   7.126   0.689   4.528
 6060TIP3   OH218120   6.435   0.341   4.620
 6060TIP3    H118121   6.451   0.412   4.556
 6060TIP3    H218122   6.497   0.274   4.590
 6061TIP3   OH218123   7.166   0.440   4.243
 6061TIP3    H118124   7.234   0.375   4.270
 6061TIP3    H218125   7.198   0.460   4.154
 6062TIP3   OH218126   6.130   0.536   4.681
 6062TIP3    H118127   6.208   0.526   4.741
 6062TIP3    H218128   6.155   0.474   4.610
 6063TIP3   OH218129   6.578   0.731   4.487
 6063TIP3    H118130   6.672   0.708   4.501
 6063TIP3    H218131   6.542   0.646   4.455
 6064TIP3   OH218132   7.827   0.696   4.702
 6064TIP3    H118133   7.741   0.741   4.707
 6064TIP3    H218134   7.853   0.689   4.795
 6065TIP3   OH218135   6.849   1.165   4.029
 6065TIP3    H118136   6.808   1.146   3.944
 6065TIP3    H218137   6.807   1.250   4.052
 6066TIP3   OH218138   6.343   0.481   4.835
 6066TIP3    H118139   6.431   0.518   4.852
 6066TIP3    H218140   6.369   0.401   4.784
 6067TIP3   OH218141   6.445   1.278   4.898
 6067TIP3    H118142   6.405   1.359   4.861
 6067TIP3    H218143   6.369   1.247   4.952
 6068TIP3   OH218144   5.833   0.973   4.147
 6068TIP3    H118145   5.792   1.002   4.064
 6068TIP3    H218146   5.864   1.058   4.186
 6069TIP3   OH218147   7.269   1.489   4.390
 6069TIP3    H118148   7.177   1.482   4.423
 6069TIP3    H218149   7.265   1.574   4.342
 6070TIP3   OH218150   6.973   1.536   4.062
 6070TIP3    H118151   7.022   1.453   4.041
 6070TIP3    H218152   7.035   1.601   4.022
 6071TIP3   OH218153   7.114   1.321   3.968
 6071TIP3    H118154   7.082   1.241   3.924
 6071TIP3    H218155   7.150   1.285   4.052
 6072TIP3   OH218156   7.495   1.401   4.734
 6072TIP3    H118157   7.488   1.326   4.671
 6072TIP3    H218158   7.481   1.478   4.674
 6073TIP3   OH218159   6.788   0.799   3.986
 6073TIP3    H118160   6.708   0.851   3.963
 6073TIP3    H218161   6.835   0.795   3.901
 6074TIP3   OH218162   6.745   0.580   3.715
 6074TIP3    H118163   6.814   0.633   3.759
 6074TIP3    H218164   6.802   0.525   3.656
 6075TIP3   OH218165   7.691   1.044   4.577
 6075TIP3    H118166   7.608   1.096   4.581
 6075TIP3    H218167   7.722   1.065   4.487
 6076TIP3   OH218168   7.135   0.879   3.961
 6076TIP3    H118169   7.082   0.902   4.040
 6076TIP3    H218170   7.221   0.858   4.003
 6077TIP3   OH218171   7.364   0.934   4.863
 6077TIP3    H118172   7.363   1.014   4.918
 6077TIP3    H218173   7.278   0.940   4.819
 6078TIP3   OH218174   6.368   0.879   4.376
 6078TIP3    H118175   6.325   0.821   4.310
 6078TIP3    H218176   6.444   0.824   4.405
 6079TIP3   OH218177   6.499   1.282   4.522
 6079TIP3    H118178   6.454   1.247   4.444
 6079TIP3    H218179   6.592   1.264   4.501
 6080TIP3   OH218180   6.513   0.848   4.731
 6080TIP3    H118181   6.532   0.810   4.642
 6080TIP3    H218182   6.552   0.935   4.724
 6081TIP3   OH218183   7.023   1.487   4.505
 6081TIP3    H118184   7.016   1.570   4.555
 6081TIP3    H218185   7.015   1.417   4.573
 6082TIP3   OH218186   6.633   1.396   5.046
 6082TIP3    H118187   6.591   1.465   5.104
 6082TIP3    H218188   6.549   1.350   5.020
 6083TIP3   OH218189   6.977   0.736   3.786
 6083TIP3    H118190   7.036   0.795   3.838
 6083TIP3    H218191   7.004   0.759   3.694
 6084TIP3   OH218192   6.397   0.971   5.148
 6084TIP3    H118193   6.398   1.052   5.202
 6084TIP3    H218194   6.304   0.943   5.160
 6085TIP3   OH218195   6.716   1.421   4.068
 6085TIP3    H118196   6.798   1.473   4.079
 6085TIP3    H218197   6.658   1.483   4.021
 6086TIP3   OH218198   6.442   1.568   5.141
 6086TIP3    H118199   6.401   1.571   5.053
 6086TIP3    H218200   6.365   1.548   5.198
 6087TIP3   OH218201   6.234   0.718   4.185
 6087TIP3    H118202   6.170   0.764   4.126
 6087TIP3    H218203   6.191   0.632   4.196
 6088TIP3   OH218204   7.289   1.347   3.381
 6088TIP3    H118205   7.298   1.444   3.368
 6088TIP3    H218206   7.382   1.317   3.370
 6089TIP3   OH218207   6.018   1.105   5.088
 6089TIP3    H118208   5.952   1.082   5.020
 6089TIP3    H218209   6.055   1.017   5.113
 6090TIP3   OH218210   5.869   1.297   4.722
 6090TIP3    H118211   5.965   1.293   4.715
 6090TIP3    H218212   5.856   1.377   4.774
 6091TIP3   OH218213   7.737   1.749   4.780
 6091TIP3    H118214   7.733   1.652   4.790
 6091TIP3    H218215   7.652   1.775   4.822
 6092TIP3   OH218216   6.815   1.543   4.909
 6092TIP3    H118217   6.845   1.636   4.921
 6092TIP3    H218218   6.778   1.532   4.999
 6093TIP3   OH218219   6.600   1.662   3.864
 6093TIP3    H118220   6.556   1.645   3.779
 6093TIP3    H218221   6.569   1.751   3.887
 6094TIP3   OH218222   6.038   1.513   4.246
 6094TIP3    H118223   6.086   1.504   4.331
 6094TIP3    H218224   5.977   1.438   4.253
 6095TIP3   OH218225   6.802   1.563   3.504
 6095TIP3    H118226   6.862   1.495   3.467
 6095TIP3    H218227   6.836   1.574   3.595
 6096TIP3   OH218228   6.852   1.611   3.774
 6096TIP3    H118229   6.764   1.621   3.817
 6096TIP3    H218230   6.904   1.573   3.846
 6097TIP3   OH218231   7.635   0.858   5.055
 6097TIP3    H118232   7.569   0.918   5.019
 6097TIP3    H218233   7.600   0.773   5.021
 6098TIP3   OH218234   6.230   1.279   5.070
 6098TIP3    H118235   6.275   1.269   5.156
 6098TIP3    H218236   6.153   1.219   5.080
 6099TIP3   OH218237   7.430   0.689   4.981
 6099TIP3    H118238   7.409   0.701   5.075
 6099TIP3    H218239   7.398   0.771   4.939
 6100TIP3   OH218240   7.055   0.784   3.531
 6100TIP3    H118241   7.018   0.759   3.444
 6100TIP3    H218242   7.132   0.837   3.505
 6101TIP3   OH218243   6.570   0.634   4.895
 6101TIP3    H118244   6.505   0.649   4.967
 6101TIP3    H218245   6.550   0.709   4.835
 6102TIP3   OH218246   6.442   0.508   4.391
 6102TIP3    H118247   6.348   0.486   4.410
 6102TIP3    H218248   6.446   0.484   4.296
 6103TIP3   OH218249   6.922   0.599   4.116
 6103TIP3    H118250   6.872   0.672   4.074
 6103TIP3    H218251   6.982   0.571   4.045
 6104TIP3   OH218252   7.105   0.897   5.196
 6104TIP3    H118253   7.082   0.824   5.258
 6104TIP3    H218254   7.198   0.913   5.222
 6105TIP3   OH218255   7.067   0.655   4.369
 6105TIP3    H118256   7.012   0.684   4.293
 6105TIP3    H218257   7.102   0.571   4.330
 6106TIP3   OH218258   6.374   0.666   5.086
 6106TIP3    H118259   6.387   0.711   5.170
 6106TIP3    H218260   6.334   0.582   5.112
 6107TIP3   OH218261   5.995   0.207   4.229
 6107TIP3    H118262   6.007   0.223   4.134
 6107TIP3    H218263   5.907   0.248   4.240
 6108TIP3   OH218264   7.081   0.883   4.797
 6108TIP3    H118265   7.120   0.824   4.728
 6108TIP3    H218266   7.070   0.819   4.870
 6109TIP3   OH218267   6.190   0.397   4.439
 6109TIP3    H118268   6.094   0.420   4.427
 6109TIP3    H218269   6.182   0.301   4.440
 6110TIP3   OH218270   6.482   0.391   4.143
 6110TIP3    H118271   6.573   0.407   4.113
 6110TIP3    H218272   6.426   0.408   4.063
 6111TIP3   OH218273   6.308   0.415   3.930
 6111TIP3    H118274   6.233   0.373   3.883
 6111TIP3    H218275   6.357   0.452   3.854
 6112TIP3   OH218276   7.424   2.098   4.875
 6112TIP3    H118277   7.424   2.123   4.780
 6112TIP3    H218278   7.503   2.146   4.907
 6113TIP3   OH218279   6.386   1.211   5.299
 6113TIP3    H118280   6.464   1.238   5.352
 6113TIP3    H218281   6.318   1.208   5.370
 6114TIP3   OH218282   6.835   0.656   4.551
 6114TIP3    H118283   6.919   0.631   4.510
 6114TIP3    H218284   6.844   0.618   4.641
 6115TIP3   OH218285   6.839   0.582   4.818
 6115TIP3    H118286   6.745   0.577   4.845
 6115TIP3    H218287   6.880   0.622   4.895
 6116TIP3   OH218288   6.558   0.952   3.937
 6116TIP3    H118289   6.487   0.885   3.927
 6116TIP3    H218290   6.540   0.984   4.029
 6117TIP3   OH218291   7.459   1.188   4.567
 6117TIP3    H118292   7.485   1.236   4.486
 6117TIP3    H218293   7.375   1.144   4.541
 6118TIP3   OH218294   6.994   0.303   3.745
 6118TIP3    H118295   6.928   0.257   3.799
 6118TIP3    H218296   7.035   0.364   3.809
 6119TIP3   OH218297   6.900   1.277   4.953
 6119TIP3    H118298   6.950   1.214   5.010
 6119TIP3    H218299   6.965   1.351   4.950
 6120TIP3   OH218300   7.091   0.508   3.907
 6120TIP3    H118301   7.185   0.523   3.930
 6120TIP3    H218302   7.071   0.586   3.851
 6121TIP3   OH218303   6.257   0.976   4.615
 6121TIP3    H118304   6.290   0.942   4.529
 6121TIP3    H218305   6.281   0.905   4.676
 6122TIP3   OH218306   6.705   1.099   3.757
 6122TIP3    H118307   6.657   1.186   3.763
 6122TIP3    H218308   6.650   1.045   3.818
 6123TIP3   OH218309   6.135   0.892   5.223
 6123TIP3    H118310   6.151   0.878   5.319
 6123TIP3    H218311   6.065   0.827   5.206
 6124TIP3   OH218312   6.857   1.009   5.241
 6124TIP3    H118313   6.794   0.941   5.209
 6124TIP3    H218314   6.944   0.972   5.214
 6125TIP3   OH218315   7.109   1.504   4.852
 6125TIP3    H118316   7.026   1.548   4.832
 6125TIP3    H218317   7.149   1.566   4.916
 6126TIP3   OH218318   7.554   0.615   3.727
 6126TIP3    H118319   7.486   0.557   3.689
 6126TIP3    H218320   7.536   0.699   3.679
 6127TIP3   OH218321   7.746   1.455   4.821
 6127TIP3    H118322   7.649   1.453   4.811
 6127TIP3    H218323   7.774   1.426   4.731
 6128TIP3   OH218324   7.226   1.418   3.645
 6128TIP3    H118325   7.207   1.347   3.708
 6128TIP3    H218326   7.242   1.371   3.562
 6129TIP3   OH218327   7.223   1.049   4.490
 6129TIP3    H118328   7.130   1.019   4.501
 6129TIP3    H218329   7.261   0.971   4.444
 6130TIP3   OH218330   6.355   1.279   4.248
 6130TIP3    H118331   6.355   1.357   4.188
 6130TIP3    H218332   6.261   1.257   4.249
 6131TIP3   OH218333   5.915   0.579   3.938
 6131TIP3    H118334   5.963   0.661   3.960
 6131TIP3    H218335   5.840   0.583   4.001
 6132TIP3   OH218336   6.492   1.043   4.183
 6132TIP3    H118337   6.458   1.132   4.203
 6132TIP3    H218338   6.455   0.991   4.257
 6133TIP3   OH218339   6.627   1.614   4.708
 6133TIP3    H118340   6.656   1.687   4.649
 6133TIP3    H218341   6.704   1.609   4.767
 6134TIP3   OH218342   6.274   1.513   4.092
 6134TIP3    H118343   6.188   1.523   4.137
 6134TIP3    H218344   6.306   1.606   4.093
 6135TIP3   OH218345   7.020   1.263   4.677
 6135TIP3    H118346   7.045   1.236   4.766
 6135TIP3    H218347   7.076   1.205   4.623
 6136TIP3   OH218348   6.984   1.142   3.549
 6136TIP3    H118349   7.037   1.119   3.629
 6136TIP3    H218350   6.895   1.119   3.579
 6137TIP3   OH218351   7.256   1.787   4.714
 6137TIP3    H118352   7.172   1.740   4.694
 6137TIP3    H218353   7.252   1.858   4.646
 6138TIP3   OH218354   7.324   1.622   3.369
 6138TIP3    H118355   7.362   1.694   3.317
 6138TIP3    H218356   7.244   1.667   3.402
 6139TIP3   OH218357   7.144   1.081   3.768
 6139TIP3    H118358   7.134   1.013   3.838
 6139TIP3    H218359   7.241   1.078   3.754
 6140TIP3   OH218360   6.063   1.482   4.866
 6140TIP3    H118361   6.113   1.406   4.902
 6140TIP3    H218362   6.083   1.550   4.930
 6141TIP3   OH218363   6.351   1.127   3.548
 6141TIP3    H118364   6.367   1.035   3.519
 6141TIP3    H218365   6.331   1.114   3.643
 6142TIP3   OH218366   6.297   1.131   3.821
 6142TIP3    H118367   6.371   1.104   3.877
 6142TIP3    H218368   6.301   1.229   3.827
 6143TIP3   OH218369   6.034   0.826   4.024
 6143TIP3    H118370   5.968   0.870   4.081
 6143TIP3    H218371   6.048   0.895   3.956
 6144TIP3   OH218372   6.562   1.329   3.770
 6144TIP3    H118373   6.475   1.357   3.805
 6144TIP3    H218374   6.579   1.400   3.707
 6145TIP3   OH218375   6.765   0.383   4.171
 6145TIP3    H118376   6.820   0.461   4.146
 6145TIP3    H218377   6.786   0.376   4.264
 6146TIP3   OH218378   7.032   0.712   5.004
 6146TIP3    H118379   7.037   0.787   5.068
 6146TIP3    H218380   7.057   0.639   5.062
 6147TIP3   OH218381   6.305   1.404   3.836
 6147TIP3    H118382   6.274   1.473   3.772
 6147TIP3    H218383   6.289   1.448   3.922
 6148TIP3   OH218384   7.313   0.812   4.361
 6148TIP3    H118385   7.237   0.753   4.373
 6148TIP3    H218386   7.385   0.765   4.409
 6149TIP3   OH218387   6.022   1.036   3.829
 6149TIP3    H118388   6.086   1.109   3.839
 6149TIP3    H218389   6.070   0.983   3.762
 6150TIP3   OH218390   5.967   0.306   3.972
 6150TIP3    H118391   5.965   0.402   3.958
 6150TIP3    H218392   5.889   0.276   3.923
 6151TIP3   OH218393   7.280   1.759   4.309
 6151TIP3    H118394   7.237   1.806   4.234
 6151TIP3    H218395   7.374   1.781   4.290
 6152TIP3   OH218396   5.896   1.247   4.219
 6152TIP3    H118397   5.822   1.280   4.271
 6152TIP3    H218398   5.875   1.286   4.131
 6153TIP3   OH218399   6.050   1.788   5.288
 6153TIP3    H118400   6.136   1.789   5.336
 6153TIP3    H218401   6.029   1.693   5.289
 6154TIP3   OH218402   6.533   1.757   5.332
 6154TIP3    H118403   6.627   1.742   5.344
 6154TIP3    H218404   6.512   1.697   5.259
 6155TIP3   OH218405   6.515   1.331   3.462
 6155TIP3    H118406   6.458   1.259   3.498
 6155TIP3    H218407   6.590   1.279   3.429
 6156TIP3   OH218408   7.174   1.659   5.065
 6156TIP3    H118409   7.166   1.593   5.137
 6156TIP3    H218410   7.250   1.713   5.094
 6157TIP3   OH218411   6.950   1.372   3.371
 6157TIP3    H118412   6.999   1.311   3.430
 6157TIP3    H218413   7.006   1.373   3.291
 6158TIP3   OH218414   6.182   1.195   5.487
 6158TIP3    H118415   6.197   1.099   5.496
 6158TIP3    H218416   6.094   1.198   5.444
 6159TIP3   OH218417   6.157   0.849   3.680
 6159TIP3    H118418   6.211   0.814   3.753
 6159TIP3    H218419   6.225   0.853   3.609
 6160TIP3   OH218420   6.794   1.280   5.262
 6160TIP3    H118421   6.747   1.280   5.178
 6160TIP3    H218422   6.828   1.189   5.267
 6161TIP3   OH218423   6.664   1.046   3.488
 6161TIP3    H118424   6.670   1.059   3.585
 6161TIP3    H218425   6.666   0.948   3.482
 6162TIP3   OH218426   7.276   1.290   4.867
 6162TIP3    H118427   7.359   1.319   4.824
 6162TIP3    H218428   7.221   1.369   4.853
 6163TIP3   OH218429   6.303   0.925   5.470
 6163TIP3    H118430   6.382   0.871   5.454
 6163TIP3    H218431   6.325   0.961   5.559
 6164TIP3   OH218432   6.369   0.751   3.907
 6164TIP3    H118433   6.340   0.705   3.987
 6164TIP3    H218434   6.404   0.676   3.853
 6165TIP3   OH218435   6.643   0.835   5.137
 6165TIP3    H118436   6.555   0.880   5.136
 6165TIP3    H218437   6.673   0.849   5.045
 6166TIP3   OH218438   6.465   0.545   3.746
 6166TIP3    H118439   6.442   0.544   3.651
 6166TIP3    H218440   6.563   0.547   3.741
 6167TIP3   OH218441   7.154   1.217   5.263
 6167TIP3    H118442   7.239   1.196   5.224
 6167TIP3    H218443   7.147   1.151   5.334
 6168TIP3   OH218444   7.288   0.876   3.403
 6168TIP3    H118445   7.266   0.832   3.318
 6168TIP3    H218446   7.256   0.967   3.382
 6169TIP3   OH218447   6.746   0.616   5.257
 6169TIP3    H118448   6.744   0.550   5.186
 6169TIP3    H218449   6.701   0.692   5.213
 6170TIP3   OH218450   6.792   0.930   4.914
 6170TIP3    H118451   6.877   0.899   4.880
 6170TIP3    H218452   6.788   1.020   4.881
 6171TIP3   OH218453   7.358   0.917   5.304
 6171TIP3    H118454   7.387   0.839   5.356
 6171TIP3    H218455   7.440   0.966   5.292
 6172TIP3   OH218456   7.412   1.146   5.053
 6172TIP3    H118457   7.351   1.201   4.998
 6172TIP3    H218458   7.498   1.173   5.013
 6173TIP3   OH218459   6.603   0.729   5.480
 6173TIP3    H118460   6.559   0.645   5.504
 6173TIP3    H218461   6.665   0.698   5.412
 6174TIP3   OH218462   7.002   0.689   5.326
 6174TIP3    H118463   7.020   0.634   5.407
 6174TIP3    H218464   6.910   0.661   5.309
 6175TIP3   OH218465   6.273   1.606   3.648
 6175TIP3    H118466   6.369   1.603   3.630
 6175TIP3    H218467   6.244   1.655   3.569
 6176TIP3   OH218468   5.754   0.988   3.866
 6176TIP3    H118469   5.848   1.011   3.852
 6176TIP3    H218470   5.750   0.899   3.825
 6177TIP3   OH218471   5.670   1.601   4.277
 6177TIP3    H118472   5.602   1.539   4.242
 6177TIP3    H218473   5.713   1.544   4.344
 6178TIP3   OH218474   5.805   1.454   4.465
 6178TIP3    H118475   5.793   1.380   4.526
 6178TIP3    H218476   5.855   1.515   4.522
 6179TIP3   OH218477   7.528   1.859   4.265
 6179TIP3    H118478   7.563   1.892   4.350
 6179TIP3    H218479   7.595   1.890   4.203
 6180TIP3   OH218480   7.555   1.875   4.550
 6180TIP3    H118481   7.523   1.783   4.543
 6180TIP3    H218482   7.642   1.861   4.590
 6181TIP3   OH218483   7.606   1.549   5.121
 6181TIP3    H118484   7.533   1.560   5.185
 6181TIP3    H218485   7.648   1.637   5.123
 6182TIP3   OH218486   7.422   1.066   3.739
 6182TIP3    H118487   7.492   1.128   3.712
 6182TIP3    H218488   7.464   1.026   3.819
 6183TIP3   OH218489   7.548   0.940   3.944
 6183TIP3    H118490   7.483   0.893   4.002
 6183TIP3    H218491   7.614   0.973   4.009
 6184TIP3   OH218492   7.603   1.320   4.374
 6184TIP3    H118493   7.657   1.258   4.322
 6184TIP3    H218494   7.600   1.399   4.316
 6185TIP3   OH218495   7.438   1.619   4.574
 6185TIP3    H118496   7.368   1.668   4.620
 6185TIP3    H218497   7.389   1.574   4.502
 6186TIP3   OH218498   7.486   0.843   3.585
 6186TIP3    H118499   7.415   0.851   3.517
 6186TIP3    H218500   7.461   0.917   3.644
 6187TIP3   OH218501   7.353   0.495   3.550
 6187TIP3    H118502   7.340   0.573   3.496
 6187TIP3    H218503   7.310   0.427   3.497
 6188TIP3   OH218504   7.364   0.800   4.092
 6188TIP3    H118505   7.366   0.703   4.077
 6188TIP3    H218506   7.355   0.805   4.189
 6189TIP3   OH218507   5.991   0.863   4.836
 6189TIP3    H118508   5.990   0.832   4.743
 6189TIP3    H218509   6.087   0.862   4.854
 6190TIP3   OH218510   7.647   1.218   4.942
 6190TIP3    H118511   7.720   1.153   4.933
 6190TIP3    H218512   7.677   1.290   4.885
 6191TIP3   OH218513   7.830   1.027   4.962
 6191TIP3    H118514   7.771   0.957   4.996
 6191TIP3    H218515   7.916   0.996   4.998
 6192TIP3   OH218516   7.350   0.529   4.019
 6192TIP3    H118517   7.372   0.446   4.068
 6192TIP3    H218518   7.406   0.512   3.940
 6193TIP3   OH218519   7.524   0.691   4.491
 6193TIP3    H118520   7.608   0.710   4.443
 6193TIP3    H218521   7.544   0.734   4.577
 6194TIP3   OH218522   7.584   0.831   4.718
 6194TIP3    H118523   7.504   0.868   4.760
 6194TIP3    H218524   7.622   0.910   4.674
 6195TIP3   OH218525   6.234   0.629   5.574
 6195TIP3    H118526   6.325   0.610   5.545
 6195TIP3    H218527   6.191   0.545   5.550
 6196TIP3   OH218528   5.968   0.525   4.907
 6196TIP3    H118529   6.016   0.521   4.821
 6196TIP3    H218530   6.011   0.599   4.950
 6197TIP3   OH218531   7.115   1.718   3.923
 6197TIP3    H118532   7.166   1.705   3.840
 6197TIP3    H218533   7.169   1.785   3.968
 6198TIP3   OH218534   6.219   1.520   5.307
 6198TIP3    H118535   6.126   1.494   5.292
 6198TIP3    H218536   6.228   1.505   5.402
 6199TIP3   OH218537   6.397   1.552   4.853
 6199TIP3    H118538   6.340   1.624   4.818
 6199TIP3    H218539   6.479   1.575   4.806
 6200TIP3   OH218540   6.846   1.795   4.988
 6200TIP3    H118541   6.883   1.800   5.080
 6200TIP3    H218542   6.911   1.853   4.941
 6201TIP3   OH218543   7.022   1.949   4.853
 6201TIP3    H118544   7.097   1.906   4.809
 6201TIP3    H218545   7.070   2.009   4.915
 6202TIP3   OH218546   6.073   1.811   4.881
 6202TIP3    H118547   5.984   1.845   4.855
 6202TIP3    H218548   6.081   1.851   4.968
 6203TIP3   OH218549   6.308   1.788   4.735
 6203TIP3    H118550   6.223   1.802   4.781
 6203TIP3    H218551   6.289   1.824   4.647
 6204TIP3   OH218552   6.732   1.817   4.537
 6204TIP3    H118553   6.666   1.840   4.469
 6204TIP3    H218554   6.746   1.905   4.578
 6205TIP3   OH218555   7.002   1.755   4.589
 6205TIP3    H118556   6.910   1.778   4.566
 6205TIP3    H218557   7.050   1.829   4.547
 6206TIP3   OH218558   7.205   1.949   4.502
 6206TIP3    H118559   7.194   2.036   4.456
 6206TIP3    H218560   7.237   1.893   4.429
 6207TIP3   OH218561   5.983   1.608   4.624
 6207TIP3    H118562   6.009   1.582   4.715
 6207TIP3    H218563   6.053   1.562   4.574
 6208TIP3   OH218564   6.173   1.477   4.480
 6208TIP3    H118565   6.191   1.394   4.530
 6208TIP3    H218566   6.263   1.516   4.473
 6209TIP3   OH218567   6.437   1.577   4.480
 6209TIP3    H118568   6.474   1.490   4.460
 6209TIP3    H218569   6.477   1.595   4.567
 6210TIP3   OH218570   5.771   1.377   4.018
 6210TIP3    H118571   5.686   1.344   3.982
 6210TIP3    H218572   5.760   1.472   4.002
 6211TIP3   OH218573   6.543   1.569   3.598
 6211TIP3    H118574   6.632   1.591   3.563
 6211TIP3    H218575   6.521   1.494   3.538
 6212TIP3   OH218576   7.260   1.684   3.690
 6212TIP3    H118577   7.251   1.587   3.678
 6212TIP3    H218578   7.216   1.717   3.609
 6213TIP3   OH218579   5.846   1.404   3.654
 6213TIP3    H118580   5.846   1.433   3.747
 6213TIP3    H218581   5.935   1.364   3.644
 6214TIP3   OH218582   7.488   1.830   4.879
 6214TIP3    H118583   7.410   1.800   4.829
 6214TIP3    H218584   7.473   1.927   4.880
 6215TIP3   OH218585   8.074   1.099   4.370
 6215TIP3    H118586   8.088   1.057   4.456
 6215TIP3    H218587   8.136   1.173   4.377
 6216TIP3   OH218588   8.017   1.505   4.118
 6216TIP3    H118589   8.005   1.408   4.115
 6216TIP3    H218590   8.112   1.509   4.136
 6217TIP3   OH218591   7.731   0.723   3.929
 6217TIP3    H118592   7.670   0.799   3.921
 6217TIP3    H218593   7.689   0.661   3.868
 6218TIP3   OH218594   7.790   1.002   4.075
 6218TIP3    H118595   7.838   0.922   4.105
 6218TIP3    H218596   7.837   1.022   3.993
 6219TIP3   OH218597   7.934   0.787   4.171
 6219TIP3    H118598   8.020   0.755   4.200
 6219TIP3    H218599   7.908   0.722   4.103
 6220TIP3   OH218600   8.221   1.534   4.380
 6220TIP3    H118601   8.210   1.629   4.357
 6220TIP3    H218602   8.152   1.528   4.449
 6221TIP3   OH218603   7.630   1.230   3.637
 6221TIP3    H118604   7.585   1.262   3.557
 6221TIP3    H218605   7.660   1.314   3.677
 6222TIP3   OH218606   8.171   1.238   4.614
 6222TIP3    H118607   8.185   1.313   4.675
 6222TIP3    H218608   8.087   1.204   4.650
 6223TIP3   OH218609   8.200   1.847   4.645
 6223TIP3    H118610   8.183   1.849   4.549
 6223TIP3    H218611   8.118   1.806   4.681
 6224TIP3   OH218612   7.810   1.359   4.578
 6224TIP3    H118613   7.749   1.338   4.505
 6224TIP3    H218614   7.848   1.272   4.600
 6225TIP3   OH218615   7.667   1.552   4.215
 6225TIP3    H118616   7.762   1.546   4.197
 6225TIP3    H218617   7.665   1.634   4.267
 6226TIP3   OH218618   7.831   1.765   3.735
 6226TIP3    H118619   7.892   1.762   3.812
 6226TIP3    H218620   7.771   1.693   3.759
 6227TIP3   OH218621   8.018   1.543   4.564
 6227TIP3    H118622   8.067   1.525   4.647
 6227TIP3    H218623   7.944   1.480   4.571
 6228TIP3   OH218624   7.783   0.451   3.704
 6228TIP3    H118625   7.799   0.484   3.613
 6228TIP3    H218626   7.702   0.501   3.724
 6229TIP3   OH218627   8.171   1.451   4.785
 6229TIP3    H118628   8.255   1.490   4.812
 6229TIP3    H218629   8.113   1.470   4.861
 6230TIP3   OH218630   8.039   1.228   4.111
 6230TIP3    H118631   8.085   1.212   4.028
 6230TIP3    H218632   8.069   1.157   4.170
 6231TIP3   OH218633   7.930   1.145   4.710
 6231TIP3    H118634   7.947   1.135   4.805
 6231TIP3    H218635   7.858   1.080   4.697
 6232TIP3   OH218636   7.711   0.835   3.425
 6232TIP3    H118637   7.761   0.915   3.451
 6232TIP3    H218638   7.636   0.840   3.488
 6233TIP3   OH218639   8.059   1.742   3.564
 6233TIP3    H118640   7.972   1.741   3.607
 6233TIP3    H218641   8.101   1.815   3.613
 6234TIP3   OH218642   7.850   1.736   4.362
 6234TIP3    H118643   7.916   1.672   4.393
 6234TIP3    H218644   7.884   1.819   4.398
 6235TIP3   OH218645   7.822   1.081   3.502
 6235TIP3    H118646   7.764   1.119   3.570
 6235TIP3    H218647   7.832   1.156   3.441
 6236TIP3   OH218648   7.813   1.296   3.318
 6236TIP3    H118649   7.845   1.385   3.338
 6236TIP3    H218650   7.872   1.272   3.246
 6237TIP3   OH218651   7.766   0.566   3.456
 6237TIP3    H118652   7.756   0.663   3.446
 6237TIP3    H218653   7.693   0.531   3.403
 6238TIP3   OH218654   7.681   1.493   3.707
 6238TIP3    H118655   7.611   1.537   3.756
 6238TIP3    H218656   7.676   1.540   3.622
 6239TIP3   OH218657   7.841   2.043   4.781
 6239TIP3    H118658   7.929   2.043   4.824
 6239TIP3    H218659   7.824   1.948   4.772
 6240TIP3   OH218660   8.327   1.987   4.838
 6240TIP3    H118661   8.369   2.058   4.786
 6240TIP3    H218662   8.271   1.945   4.768
 6241TIP3   OH218663   7.974   1.451   4.982
 6241TIP3    H118664   7.993   1.356   4.980
 6241TIP3    H218665   7.890   1.456   4.932
 6242TIP3   OH218666   8.089   1.186   4.958
 6242TIP3    H118667   8.160   1.125   4.938
 6242TIP3    H218668   8.118   1.221   5.046
 6243TIP3   OH218669   7.545   1.246   3.347
 6243TIP3    H118670   7.641   1.264   3.341
 6243TIP3    H218671   7.541   1.155   3.311
 6244TIP3   OH218672   7.464   1.857   3.764
 6244TIP3    H118673   7.397   1.795   3.730
 6244TIP3    H218674   7.509   1.802   3.832
 6245TIP3   OH218675   7.602   1.710   3.950
 6245TIP3    H118676   7.593   1.636   4.013
 6245TIP3    H218677   7.657   1.771   4.003
 6246TIP3   OH218678   7.796   1.115   4.328
 6246TIP3    H118679   7.787   1.088   4.234
 6246TIP3    H218680   7.894   1.120   4.335
 6247TIP3   OH218681   8.040   0.886   5.051
 6247TIP3    H118682   8.128   0.867   5.013
 6247TIP3    H218683   7.992   0.803   5.029
 6248TIP3   OH218684   7.765   0.785   4.392
 6248TIP3    H118685   7.815   0.782   4.309
 6248TIP3    H218686   7.798   0.867   4.432
 6249TIP3   OH218687   8.008   1.744   4.817
 6249TIP3    H118688   7.916   1.733   4.789
 6249TIP3    H218689   7.998   1.762   4.911
 6250TIP3   OH218690   8.196   1.807   4.345
 6250TIP3    H118691   8.136   1.874   4.305
 6250TIP3    H218692   8.276   1.830   4.296
 6251TIP3   OH218693   7.849   2.043   4.376
 6251TIP3    H118694   7.772   2.101   4.360
 6251TIP3    H218695   7.911   2.101   4.423
 6252TIP3   OH218696   8.082   2.000   4.194
 6252TIP3    H118697   8.039   2.056   4.261
 6252TIP3    H218698   8.093   2.064   4.120
 6253TIP3   OH218699   7.775   1.861   4.109
 6253TIP3    H118700   7.808   1.856   4.201
 6253TIP3    H218701   7.852   1.821   4.063
 6254TIP3   OH218702   7.973   1.734   3.966
 6254TIP3    H118703   7.987   1.646   4.008
 6254TIP3    H218704   8.065   1.765   3.958
 6255TIP3   OH218705   7.571   1.632   3.498
 6255TIP3    H118706   7.484   1.602   3.466
 6255TIP3    H218707   7.559   1.728   3.490
 6256TIP3   OH218708   7.642   1.665   3.143
 6256TIP3    H118709   7.633   1.689   3.237
 6256TIP3    H218710   7.722   1.608   3.143
 6257TIP3   OH218711   1.206   1.988   5.337
 6257TIP3    H118712   1.179   2.080   5.317
 6257TIP3    H218713   1.130   1.940   5.300
 6258TIP3   OH218714   1.212   1.991   5.707
 6258TIP3    H118715   1.235   1.962   5.797
 6258TIP3    H218716   1.162   1.917   5.672
 6259TIP3   OH218717   0.514   1.887   6.078
 6259TIP3    H118718   0.553   1.822   6.139
 6259TIP3    H218719   0.587   1.949   6.065
 6260TIP3   OH218720   1.448   2.291   5.396
 6260TIP3    H118721   1.434   2.223   5.463
 6260TIP3    H218722   1.478   2.367   5.449
 6261TIP3   OH218723   0.480   2.309   5.795
 6261TIP3    H118724   0.461   2.215   5.809
 6261TIP3    H218725   0.579   2.303   5.794
 6262TIP3   OH218726   1.092   2.751   5.412
 6262TIP3    H118727   1.141   2.682   5.363
 6262TIP3    H218728   1.098   2.717   5.503
 6263TIP3   OH218729   1.005   2.215   5.768
 6263TIP3    H118730   1.038   2.144   5.711
 6263TIP3    H218731   1.090   2.258   5.790
 6264TIP3   OH218732   2.016   1.536   5.761
 6264TIP3    H118733   2.045   1.617   5.807
 6264TIP3    H218734   2.038   1.558   5.669
 6265TIP3   OH218735   1.398   1.709   5.803
 6265TIP3    H118736   1.453   1.630   5.818
 6265TIP3    H218737   1.382   1.702   5.707
 6266TIP3   OH218738   0.768   1.375   5.747
 6266TIP3    H118739   0.731   1.439   5.681
 6266TIP3    H218740   0.703   1.304   5.745
 6267TIP3   OH218741   1.447   1.471   5.386
 6267TIP3    H118742   1.520   1.453   5.450
 6267TIP3    H218743   1.498   1.504   5.310
 6268TIP3   OH218744   7.014   8.128   2.657
 6268TIP3    H118745   7.111   8.117   2.664
 6268TIP3    H218746   6.995   8.084   2.573
 6269TIP3   OH218747   0.829   1.763   5.662
 6269TIP3    H118748   0.922   1.735   5.672
 6269TIP3    H218749   0.786   1.682   5.627
 6270TIP3   OH218750   2.089   1.741   5.933
 6270TIP3    H118751   2.006   1.791   5.915
 6270TIP3    H218752   2.111   1.774   6.022
 6271TIP3   OH218753   1.102   2.211   5.204
 6271TIP3    H118754   1.055   2.187   5.124
 6271TIP3    H218755   1.057   2.294   5.228
 6272TIP3   OH218756   0.860   2.133   5.999
 6272TIP3    H118757   0.796   2.199   6.033
 6272TIP3    H218758   0.898   2.181   5.922
 6273TIP3   OH218759   1.661   1.470   5.554
 6273TIP3    H118760   1.656   1.416   5.633
 6273TIP3    H218761   1.715   1.546   5.583
 6274TIP3   OH218762   0.666   1.482   5.981
 6274TIP3    H118763   0.732   1.552   5.987
 6274TIP3    H218764   0.706   1.430   5.907
 6275TIP3   OH218765   0.683   2.325   6.088
 6275TIP3    H118766   0.662   2.413   6.049
 6275TIP3    H218767   0.605   2.316   6.147
 6276TIP3   OH218768   0.029   2.043   5.327
 6276TIP3    H118769   0.040   2.039   5.231
 6276TIP3    H218770   0.115   2.070   5.359
 6277TIP3   OH218771   1.520   2.533   5.564
 6277TIP3    H118772   1.430   2.526   5.604
 6277TIP3    H218773   1.513   2.619   5.519
 6278TIP3   OH218774   1.809   1.435   5.926
 6278TIP3    H118775   1.723   1.466   5.895
 6278TIP3    H218776   1.870   1.468   5.856
 6279TIP3   OH218777   1.112   1.080   5.913
 6279TIP3    H118778   1.101   0.983   5.916
 6279TIP3    H218779   1.022   1.108   5.935
 6280TIP3   OH218780   1.223   2.581   5.240
 6280TIP3    H118781   1.272   2.498   5.218
 6280TIP3    H218782   1.285   2.646   5.199
 6281TIP3   OH218783   1.365   2.366   5.144
 6281TIP3    H118784   1.323   2.289   5.105
 6281TIP3    H218785   1.400   2.329   5.228
 6282TIP3   OH218786   1.745   2.448   5.909
 6282TIP3    H118787   1.735   2.371   5.848
 6282TIP3    H218788   1.728   2.523   5.848
 6283TIP3   OH218789   1.038   1.842   5.165
 6283TIP3    H118790   0.956   1.891   5.145
 6283TIP3    H218791   1.081   1.838   5.078
 6284TIP3   OH218792   0.997   1.626   4.881
 6284TIP3    H118793   1.064   1.677   4.929
 6284TIP3    H218794   1.053   1.561   4.836
 6285TIP3   OH218795   1.940   2.081   5.751
 6285TIP3    H118796   1.858   2.135   5.757
 6285TIP3    H218797   1.972   2.109   5.662
 6286TIP3   OH218798   1.385   1.924   5.138
 6286TIP3    H118799   1.329   1.948   5.216
 6286TIP3    H218800   1.468   1.900   5.182
 6287TIP3   OH218801   1.619   1.963   6.050
 6287TIP3    H118802   1.622   2.045   6.104
 6287TIP3    H218803   1.539   1.980   5.997
 6288TIP3   OH218804   0.638   1.949   5.559
 6288TIP3    H118805   0.555   1.911   5.520
 6288TIP3    H218806   0.690   1.868   5.577
 6289TIP3   OH218807   0.734   2.319   5.713
 6289TIP3    H118808   0.721   2.282   5.624
 6289TIP3    H218809   0.829   2.301   5.727
 6290TIP3   OH218810   0.781   1.878   5.919
 6290TIP3    H118811   0.782   1.866   5.822
 6290TIP3    H218812   0.800   1.973   5.929
 6291TIP3   OH218813   1.278   2.530   5.684
 6291TIP3    H118814   1.266   2.611   5.736
 6291TIP3    H218815   1.263   2.459   5.749
 6292TIP3   OH218816   0.892   2.448   6.232
 6292TIP3    H118817   0.833   2.512   6.278
 6292TIP3    H218818   0.826   2.396   6.182
 6293TIP3   OH218819   1.228   1.780   4.962
 6293TIP3    H118820   1.284   1.842   5.014
 6293TIP3    H218821   1.254   1.804   4.870
 6294TIP3   OH218822   0.649   2.003   6.336
 6294TIP3    H118823   0.654   2.091   6.378
 6294TIP3    H218824   0.552   1.993   6.329
 6295TIP3   OH218825   0.966   2.465   5.241
 6295TIP3    H118826   1.046   2.516   5.258
 6295TIP3    H218827   0.909   2.529   5.196
 6296TIP3   OH218828   0.687   2.616   6.317
 6296TIP3    H118829   0.649   2.619   6.228
 6296TIP3    H218830   0.608   2.598   6.373
 6297TIP3   OH218831   1.539   2.391   4.557
 6297TIP3    H118832   1.548   2.488   4.545
 6297TIP3    H218833   1.632   2.362   4.547
 6298TIP3   OH218834   0.274   2.156   6.243
 6298TIP3    H118835   0.211   2.114   6.182
 6298TIP3    H218836   0.309   2.078   6.291
 6299TIP3   OH218837   0.126   2.382   5.879
 6299TIP3    H118838   0.189   2.309   5.881
 6299TIP3    H218839   0.147   2.426   5.964
 6300TIP3   OH218840   1.983   2.791   5.953
 6300TIP3    H118841   1.981   2.695   5.968
 6300TIP3    H218842   1.900   2.817   5.999
 6301TIP3   OH218843   1.092   2.577   6.090
 6301TIP3    H118844   1.091   2.670   6.121
 6301TIP3    H218845   1.019   2.539   6.143
 6302TIP3   OH218846   0.843   2.705   5.042
 6302TIP3    H118847   0.805   2.690   4.953
 6302TIP3    H218848   0.818   2.797   5.061
 6303TIP3   OH218849   1.050   2.608   4.681
 6303TIP3    H118850   1.110   2.539   4.644
 6303TIP3    H218851   1.085   2.618   4.772
 6304TIP3   OH218852   1.097   2.656   4.953
 6304TIP3    H118853   1.010   2.663   4.997
 6304TIP3    H218854   1.152   2.618   5.023
 6305TIP3   OH218855   1.876   1.923   6.229
 6305TIP3    H118856   1.795   1.937   6.179
 6305TIP3    H218857   1.890   1.826   6.218
 6306TIP3   OH218858   0.471   2.338   6.258
 6306TIP3    H118859   0.519   2.312   6.339
 6306TIP3    H218860   0.395   2.276   6.258
 6307TIP3   OH218861   1.403   1.276   6.239
 6307TIP3    H118862   1.477   1.245   6.295
 6307TIP3    H218863   1.325   1.243   6.286
 6308TIP3   OH218864   1.631   1.694   6.143
 6308TIP3    H118865   1.591   1.691   6.233
 6308TIP3    H218866   1.622   1.788   6.118
 6309TIP3   OH218867   1.303   1.829   4.708
 6309TIP3    H118868   1.268   1.803   4.620
 6309TIP3    H218869   1.380   1.882   4.682
 6310TIP3   OH218870   1.022   1.206   5.004
 6310TIP3    H118871   0.988   1.203   5.096
 6310TIP3    H218872   0.976   1.128   4.968
 6311TIP3   OH218873   0.866   1.681   6.081
 6311TIP3    H118874   0.789   1.683   6.141
 6311TIP3    H218875   0.834   1.744   6.011
 6312TIP3   OH218876   0.669   1.554   5.568
 6312TIP3    H118877   0.580   1.591   5.552
 6312TIP3    H218878   0.689   1.516   5.479
 6313TIP3   OH218879   1.179   1.648   5.299
 6313TIP3    H118880   1.123   1.716   5.257
 6313TIP3    H218881   1.229   1.613   5.223
 6314TIP3   OH218882   1.346   1.916   6.372
 6314TIP3    H118883   1.329   1.847   6.441
 6314TIP3    H218884   1.437   1.941   6.397
 6315TIP3   OH218885   1.330   1.675   5.537
 6315TIP3    H118886   1.274   1.704   5.462
 6315TIP3    H218887   1.363   1.591   5.497
 6316TIP3   OH218888   0.636   1.713   6.266
 6316TIP3    H118889   0.649   1.776   6.338
 6316TIP3    H218890   0.593   1.638   6.311
 6317TIP3   OH218891   0.671   1.178   4.985
 6317TIP3    H118892   0.648   1.152   5.076
 6317TIP3    H218893   0.586   1.213   4.957
 6318TIP3   OH218894   1.328   1.915   5.962
 6318TIP3    H118895   1.368   1.844   5.906
 6318TIP3    H218896   1.324   1.871   6.048
 6319TIP3   OH218897   1.023   1.387   5.625
 6319TIP3    H118898   0.935   1.370   5.666
 6319TIP3    H218899   1.081   1.371   5.701
 6320TIP3   OH218900   0.722   1.443   5.326
 6320TIP3    H118901   0.813   1.451   5.294
 6320TIP3    H218902   0.668   1.458   5.245
 6321TIP3   OH218903   1.506   1.454   5.834
 6321TIP3    H118904   1.468   1.462   5.924
 6321TIP3    H218905   1.445   1.388   5.796
 6322TIP3   OH218906   0.560   1.463   5.112
 6322TIP3    H118907   0.482   1.420   5.076
 6322TIP3    H218908   0.606   1.491   5.030
 6323TIP3   OH218909   1.671   3.141   6.050
 6323TIP3    H118910   1.667   3.164   5.955
 6323TIP3    H218911   1.739   3.202   6.082
 6324TIP3   OH218912   0.632   2.250   6.477
 6324TIP3    H118913   0.714   2.281   6.520
 6324TIP3    H218914   0.570   2.256   6.552
 6325TIP3   OH218915   1.106   1.701   5.728
 6325TIP3    H118916   1.154   1.667   5.651
 6325TIP3    H218917   1.174   1.692   5.796
 6326TIP3   OH218918   0.810   1.994   5.114
 6326TIP3    H118919   0.739   1.926   5.105
 6326TIP3    H218920   0.790   2.031   5.203
 6327TIP3   OH218921   1.710   2.230   5.745
 6327TIP3    H118922   1.734   2.280   5.664
 6327TIP3    H218923   1.625   2.189   5.719
 6328TIP3   OH218924   1.268   1.309   4.972
 6328TIP3    H118925   1.172   1.287   4.982
 6328TIP3    H218926   1.273   1.402   5.000
 6329TIP3   OH218927   1.206   2.309   6.113
 6329TIP3    H118928   1.233   2.294   6.204
 6329TIP3    H218929   1.170   2.400   6.116
 6330TIP3   OH218930   1.336   1.555   5.081
 6330TIP3    H118931   1.433   1.562   5.095
 6330TIP3    H218932   1.316   1.634   5.028
 6331TIP3   OH218933   0.507   2.028   5.799
 6331TIP3    H118934   0.521   2.001   5.707
 6331TIP3    H218935   0.519   1.944   5.845
 6332TIP3   OH218936   0.953   2.144   4.935
 6332TIP3    H118937   0.906   2.230   4.941
 6332TIP3    H218938   0.899   2.089   4.995
 6333TIP3   OH218939   0.373   1.961   6.405
 6333TIP3    H118940   0.421   1.947   6.489
 6333TIP3    H218941   0.284   1.930   6.429
 6334TIP3   OH218942   1.108   2.051   6.420
 6334TIP3    H118943   1.049   1.989   6.374
 6334TIP3    H218944   1.197   2.018   6.394
 6335TIP3   OH218945   1.368   2.568   6.008
 6335TIP3    H118946   1.272   2.571   6.021
 6335TIP3    H218947   1.398   2.622   6.084
 6336TIP3   OH218948   1.777   1.645   4.917
 6336TIP3    H118949   1.716   1.601   4.853
 6336TIP3    H218950   1.774   1.734   4.877
 6337TIP3   OH218951   1.995   2.498   5.998
 6337TIP3    H118952   1.897   2.495   5.989
 6337TIP3    H218953   2.021   2.470   5.907
 6338TIP3   OH218954   1.477   2.462   4.822
 6338TIP3    H118955   1.453   2.392   4.884
 6338TIP3    H218956   1.490   2.415   4.738
 6339TIP3   OH218957   1.475   2.091   5.668
 6339TIP3    H118958   1.380   2.068   5.676
 6339TIP3    H218959   1.508   2.013   5.618
 6340TIP3   OH218960   0.591   2.324   5.435
 6340TIP3    H118961   0.590   2.400   5.373
 6340TIP3    H218962   0.514   2.274   5.406
 6341TIP3   OH218963   0.144   1.623   5.112
 6341TIP3    H118964   0.206   1.699   5.119
 6341TIP3    H218965   0.088   1.645   5.188
 6342TIP3   OH218966   0.747   2.097   5.354
 6342TIP3    H118967   0.712   2.181   5.386
 6342TIP3    H218968   0.716   2.036   5.424
 6343TIP3   OH218969   0.875   2.665   5.901
 6343TIP3    H118970   0.909   2.731   5.839
 6343TIP3    H218971   0.957   2.632   5.941
 6344TIP3   OH218972   0.518   2.564   5.295
 6344TIP3    H118973   0.427   2.580   5.266
 6344TIP3    H218974   0.554   2.656   5.294
 6345TIP3   OH218975   1.260   2.295   5.843
 6345TIP3    H118976   1.251   2.295   5.941
 6345TIP3    H218977   1.344   2.249   5.831
 6346TIP3   OH218978   1.232   2.188   4.724
 6346TIP3    H118979   1.284   2.164   4.805
 6346TIP3    H218980   1.143   2.164   4.753
 6347TIP3   OH218981   1.507   2.832   5.892
 6347TIP3    H118982   1.427   2.777   5.884
 6347TIP3    H218983   1.493   2.897   5.821
 6348TIP3   OH218984   1.574   2.666   4.546
 6348TIP3    H118985   1.612   2.739   4.495
 6348TIP3    H218986   1.493   2.711   4.578
 6349TIP3   OH218987   1.393   2.124   4.942
 6349TIP3    H118988   1.382   2.059   5.014
 6349TIP3    H218989   1.490   2.122   4.930
 6350TIP3   OH218990   0.308   2.509   6.053
 6350TIP3    H118991   0.371   2.447   6.093
 6350TIP3    H218992   0.331   2.592   6.098
 6351TIP3   OH218993   0.600   2.171   4.724
 6351TIP3    H118994   0.614   2.079   4.694
 6351TIP3    H218995   0.580   2.157   4.819
 6352TIP3   OH218996   0.545   2.176   4.997
 6352TIP3    H118997   0.615   2.143   5.056
 6352TIP3    H218998   0.554   2.273   5.005
 6353TIP3   OH218999   0.256   1.860   5.167
 6353TIP3    H119000   0.285   1.846   5.261
 6353TIP3    H219001   0.298   1.945   5.150
 6354TIP3   OH219002   1.417   1.507   6.092
 6354TIP3    H119003   1.500   1.549   6.121
 6354TIP3    H219004   1.414   1.427   6.149
 6355TIP3   OH219005   1.311   1.258   5.256
 6355TIP3    H119006   1.292   1.280   5.163
 6355TIP3    H219007   1.345   1.343   5.291
 6356TIP3   OH219008   0.812   2.373   4.946
 6356TIP3    H119009   0.725   2.402   4.980
 6356TIP3    H219010   0.829   2.442   4.881
 6357TIP3   OH219011   1.010   1.439   5.360
 6357TIP3    H119012   1.070   1.515   5.344
 6357TIP3    H219013   1.007   1.436   5.458
 6358TIP3   OH219014   1.231   1.727   6.179
 6358TIP3    H119015   1.256   1.795   6.246
 6358TIP3    H219016   1.310   1.668   6.184
 6359TIP3   OH219017   1.153   1.169   5.470
 6359TIP3    H119018   1.126   1.252   5.514
 6359TIP3    H219019   1.208   1.203   5.396
 6360TIP3   OH219020   0.554   2.450   5.012
 6360TIP3    H119021   0.524   2.512   4.941
 6360TIP3    H219022   0.547   2.506   5.091
 6361TIP3   OH219023   0.665   1.165   5.296
 6361TIP3    H119024   0.675   1.261   5.306
 6361TIP3    H219025   0.759   1.140   5.282
 6362TIP3   OH219026   1.904   1.658   6.148
 6362TIP3    H119027   1.806   1.648   6.151
 6362TIP3    H219028   1.922   1.622   6.060
 6363TIP3   OH219029   1.559   1.851   5.537
 6363TIP3    H119030   1.484   1.789   5.545
 6363TIP3    H219031   1.632   1.803   5.583
 6364TIP3   OH219032   0.274   2.100   4.993
 6364TIP3    H119033   0.350   2.160   5.003
 6364TIP3    H219034   0.314   2.032   4.936
 6365TIP3   OH219035   0.216   1.361   5.143
 6365TIP3    H119036   0.212   1.456   5.120
 6365TIP3    H219037   0.196   1.315   5.060
 6366TIP3   OH219038   1.528   2.803   5.486
 6366TIP3    H119039   1.485   2.851   5.411
 6366TIP3    H219040   1.622   2.824   5.465
 6367TIP3   OH219041   0.174   2.333   5.403
 6367TIP3    H119042   0.090   2.330   5.449
 6367TIP3    H219043   0.142   2.352   5.313
 6368TIP3   OH219044   0.320   2.842   6.442
 6368TIP3    H119045   0.395   2.846   6.504
 6368TIP3    H219046   0.279   2.759   6.467
 6369TIP3   OH219047   0.783   2.801   6.510
 6369TIP3    H119048   0.877   2.783   6.517
 6369TIP3    H219049   0.758   2.744   6.436
 6370TIP3   OH219050   0.764   2.375   4.640
 6370TIP3    H119051   0.707   2.303   4.675
 6370TIP3    H219052   0.839   2.323   4.606
 6371TIP3   OH219053   1.423   2.704   6.242
 6371TIP3    H119054   1.412   2.635   6.312
 6371TIP3    H219055   1.498   2.756   6.274
 6372TIP3   OH219056   1.199   2.417   4.548
 6372TIP3    H119057   1.246   2.355   4.607
 6372TIP3    H219058   1.256   2.418   4.469
 6373TIP3   OH219059   0.423   2.232   6.660
 6373TIP3    H119060   0.447   2.138   6.662
 6373TIP3    H219061   0.343   2.232   6.606
 6374TIP3   OH219062   0.403   1.896   4.853
 6374TIP3    H119063   0.450   1.860   4.931
 6374TIP3    H219064   0.477   1.898   4.788
 6375TIP3   OH219065   1.038   2.326   6.439
 6375TIP3    H119066   0.998   2.343   6.352
 6375TIP3    H219067   1.070   2.233   6.432
 6376TIP3   OH219068   0.915   2.091   4.665
 6376TIP3    H119069   0.918   2.102   4.762
 6376TIP3    H219070   0.914   1.993   4.658
 6377TIP3   OH219071   1.529   2.331   6.042
 6377TIP3    H119072   1.605   2.376   6.001
 6377TIP3    H219073   1.460   2.399   6.032
 6378TIP3   OH219074   0.530   1.969   6.645
 6378TIP3    H119075   0.604   1.910   6.625
 6378TIP3    H219076   0.557   2.002   6.734
 6379TIP3   OH219077   0.621   1.795   5.084
 6379TIP3    H119078   0.572   1.753   5.156
 6379TIP3    H219079   0.654   1.717   5.034
 6380TIP3   OH219080   0.892   1.864   6.308
 6380TIP3    H119081   0.808   1.914   6.319
 6380TIP3    H219082   0.927   1.903   6.226
 6381TIP3   OH219083   0.714   1.588   4.920
 6381TIP3    H119084   0.688   1.590   4.826
 6381TIP3    H219085   0.811   1.593   4.913
 6382TIP3   OH219086   1.398   2.258   6.442
 6382TIP3    H119087   1.485   2.245   6.401
 6382TIP3    H219088   1.401   2.196   6.517
 6383TIP3   OH219089   1.541   1.921   4.582
 6383TIP3    H119090   1.517   1.875   4.499
 6383TIP3    H219091   1.507   2.011   4.560
 6384TIP3   OH219092   1.014   1.644   6.411
 6384TIP3    H119093   0.950   1.580   6.444
 6384TIP3    H219094   0.958   1.720   6.384
 6385TIP3   OH219095   1.046   1.956   6.099
 6385TIP3    H119096   1.126   1.993   6.059
 6385TIP3    H219097   0.982   2.026   6.072
 6386TIP3   OH219098   1.619   1.936   6.494
 6386TIP3    H119099   1.671   1.857   6.515
 6386TIP3    H219100   1.688   1.999   6.468
 6387TIP3   OH219101   1.662   2.186   6.228
 6387TIP3    H119102   1.603   2.241   6.171
 6387TIP3    H219103   1.749   2.210   6.190
 6388TIP3   OH219104   0.880   1.791   6.650
 6388TIP3    H119105   0.821   1.714   6.668
 6388TIP3    H219106   0.936   1.758   6.580
 6389TIP3   OH219107   1.125   1.192   6.297
 6389TIP3    H119108   1.093   1.282   6.300
 6389TIP3    H219109   1.043   1.145   6.323
 6390TIP3   OH219110   1.272   1.709   6.530
 6390TIP3    H119111   1.266   1.694   6.626
 6390TIP3    H219112   1.185   1.678   6.501
 6391TIP3   OH219113   1.504   1.647   6.378
 6391TIP3    H119114   1.434   1.655   6.445
 6391TIP3    H219115   1.580   1.619   6.433
 6392TIP3   OH219116   1.731   1.589   6.528
 6392TIP3    H119117   1.745   1.495   6.551
 6392TIP3    H219118   1.729   1.632   6.616
 6393TIP3   OH219119   1.242   1.249   6.537
 6393TIP3    H119120   1.327   1.199   6.547
 6393TIP3    H219121   1.203   1.204   6.460
 6394TIP3   OH219122   1.310   1.439   6.716
 6394TIP3    H119123   1.281   1.373   6.649
 6394TIP3    H219124   1.229   1.495   6.724
 6395TIP3   OH219125   0.523   2.651   4.828
 6395TIP3    H119126   0.618   2.650   4.807
 6395TIP3    H219127   0.489   2.698   4.749
 6396TIP3   OH219128   0.013   2.032   5.036
 6396TIP3    H119129   0.108   2.054   5.027
 6396TIP3    H219130   0.010   1.939   5.006
 6397TIP3   OH219131  -0.084   2.648   5.457
 6397TIP3    H119132  -0.156   2.593   5.424
 6397TIP3    H219133  -0.040   2.589   5.522
 6398TIP3   OH219134   0.052   2.517   5.655
 6398TIP3    H119135   0.067   2.424   5.677
 6398TIP3    H219136   0.065   2.553   5.744
 6399TIP3   OH219137   1.779   2.897   5.442
 6399TIP3    H119138   1.808   2.934   5.528
 6399TIP3    H219139   1.838   2.942   5.380
 6400TIP3   OH219140   1.809   2.918   5.725
 6400TIP3    H119141   1.767   2.830   5.718
 6400TIP3    H219142   1.886   2.895   5.779
 6401TIP3   OH219143   1.853   2.595   6.294
 6401TIP3    H119144   1.782   2.603   6.361
 6401TIP3    H219145   1.896   2.683   6.300
 6402TIP3   OH219146   1.672   2.108   4.917
 6402TIP3    H119147   1.740   2.172   4.888
 6402TIP3    H219148   1.716   2.069   4.996
 6403TIP3   OH219149   1.801   1.974   5.120
 6403TIP3    H119150   1.734   1.933   5.179
 6403TIP3    H219151   1.863   2.015   5.184
 6404TIP3   OH219152   1.853   2.365   5.553
 6404TIP3    H119153   1.905   2.303   5.500
 6404TIP3    H219154   1.846   2.443   5.494
 6405TIP3   OH219155   1.686   2.666   5.749
 6405TIP3    H119156   1.615   2.711   5.799
 6405TIP3    H219157   1.636   2.620   5.679
 6406TIP3   OH219158   1.738   1.882   4.768
 6406TIP3    H119159   1.668   1.885   4.700
 6406TIP3    H219160   1.710   1.958   4.823
 6407TIP3   OH219161   1.614   1.556   4.720
 6407TIP3    H119162   1.568   1.600   4.648
 6407TIP3    H219163   1.582   1.463   4.709
 6408TIP3   OH219164   1.615   1.832   5.269
 6408TIP3    H119165   1.622   1.735   5.263
 6408TIP3    H219166   1.601   1.846   5.365
 6409TIP3   OH219167   0.246   1.893   6.017
 6409TIP3    H119168   0.240   1.897   5.921
 6409TIP3    H219169   0.343   1.891   6.032
 6410TIP3   OH219170   1.903   2.255   6.122
 6410TIP3    H119171   1.977   2.191   6.114
 6410TIP3    H219172   1.932   2.327   6.063
 6411TIP3   OH219173   2.089   2.062   6.139
 6411TIP3    H119174   2.017   2.011   6.181
 6411TIP3    H219175   2.164   2.001   6.154
 6412TIP3   OH219176   1.543   1.293   4.717
 6412TIP3    H119177   1.605   1.247   4.774
 6412TIP3    H219178   1.463   1.237   4.722
 6413TIP3   OH219179   1.613   1.546   5.165
 6413TIP3    H119180   1.651   1.456   5.177
 6413TIP3    H219181   1.669   1.580   5.094
 6414TIP3   OH219182   1.773   1.723   5.658
 6414TIP3    H119183   1.859   1.748   5.617
 6414TIP3    H219184   1.787   1.760   5.747
 6415TIP3   OH219185   1.839   1.865   5.890
 6415TIP3    H119186   1.762   1.901   5.938
 6415TIP3    H219187   1.873   1.945   5.844
 6416TIP3   OH219188   2.289   1.450   6.445
 6416TIP3    H119189   2.352   1.389   6.401
 6416TIP3    H219190   2.263   1.510   6.372
 6417TIP3   OH219191   1.723   1.292   5.195
 6417TIP3    H119192   1.761   1.281   5.284
 6417TIP3    H219193   1.657   1.219   5.194
 6418TIP3   OH219194   2.165   1.597   6.252
 6418TIP3    H119195   2.082   1.638   6.284
 6418TIP3    H219196   2.130   1.527   6.194
 6419TIP3   OH219197   1.365   2.763   5.099
 6419TIP3    H119198   1.414   2.750   5.016
 6419TIP3    H219199   1.417   2.832   5.143
 6420TIP3   OH219200   0.469   2.562   6.491
 6420TIP3    H119201   0.392   2.508   6.469
 6420TIP3    H219202   0.473   2.558   6.587
 6421TIP3   OH219203   0.641   2.595   6.025
 6421TIP3    H119204   0.598   2.676   5.993
 6421TIP3    H219205   0.730   2.611   5.988
 6422TIP3   OH219206   1.091   2.844   6.170
 6422TIP3    H119207   1.132   2.847   6.260
 6422TIP3    H219208   1.156   2.896   6.119
 6423TIP3   OH219209   1.269   2.995   6.029
 6423TIP3    H119210   1.342   2.946   5.987
 6423TIP3    H219211   1.319   3.053   6.090
 6424TIP3   OH219212   2.062   1.361   6.129
 6424TIP3    H119213   1.971   1.356   6.096
 6424TIP3    H219214   2.091   1.267   6.118
 6425TIP3   OH219215   0.318   2.859   6.055
 6425TIP3    H119216   0.225   2.885   6.037
 6425TIP3    H219217   0.329   2.895   6.144
 6426TIP3   OH219218   0.548   2.826   5.908
 6426TIP3    H119219   0.465   2.844   5.957
 6426TIP3    H219220   0.533   2.878   5.826
 6427TIP3   OH219221   0.982   2.868   5.708
 6427TIP3    H119222   0.925   2.903   5.638
 6427TIP3    H219223   0.998   2.950   5.760
 6428TIP3   OH219224   1.250   2.803   5.761
 6428TIP3    H119225   1.156   2.823   5.741
 6428TIP3    H219226   1.294   2.881   5.722
 6429TIP3   OH219227   1.459   2.996   5.679
 6429TIP3    H119228   1.445   3.081   5.632
 6429TIP3    H219229   1.485   2.937   5.605
 6430TIP3   OH219230   1.270   1.280   5.761
 6430TIP3    H119231   1.223   1.206   5.804
 6430TIP3    H219232   1.329   1.233   5.700
 6431TIP3   OH219233   1.793   1.151   5.656
 6431TIP3    H119234   1.825   1.207   5.582
 6431TIP3    H219235   1.696   1.164   5.650
 6432TIP3   OH219236   1.878   1.260   5.421
 6432TIP3    H119237   1.948   1.203   5.384
 6432TIP3    H219238   1.916   1.350   5.404
 6433TIP3   OH219239   0.939   1.072   5.649
 6433TIP3    H119240   1.010   1.087   5.585
 6433TIP3    H219241   0.979   1.009   5.709
 6434TIP3   OH219242   1.513   1.161   5.629
 6434TIP3    H119243   1.500   1.127   5.540
 6434TIP3    H219244   1.492   1.082   5.684
 6435TIP3   OH219245   1.542   1.087   5.196
 6435TIP3    H119246   1.452   1.123   5.199
 6435TIP3    H219247   1.529   0.998   5.236
 6436TIP3   OH219248   0.015   2.429   5.196
 6436TIP3    H119249  -0.048   2.370   5.153
 6436TIP3    H219250  -0.009   2.515   5.156
 6437TIP3   OH219251   0.940   1.197   5.264
 6437TIP3    H119252   0.977   1.131   5.324
 6437TIP3    H219253   0.973   1.282   5.302
 6438TIP3   OH219254   0.792   2.615   4.775
 6438TIP3    H119255   0.881   2.636   4.739
 6438TIP3    H219256   0.769   2.540   4.715
 6439TIP3   OH219257   1.508   2.729   4.867
 6439TIP3    H119258   1.500   2.631   4.854
 6439TIP3    H219259   1.465   2.762   4.785
 6440TIP3   OH219260   0.098   2.451   4.831
 6440TIP3    H119261   0.094   2.479   4.924
 6440TIP3    H219262   0.185   2.407   4.824
 6441TIP3   OH219263   1.798   1.318   6.563
 6441TIP3    H119264   1.816   1.286   6.654
 6441TIP3    H219265   1.887   1.317   6.523
 6442TIP3   OH219266   1.738   2.874   6.055
 6442TIP3    H119267   1.660   2.841   6.006
 6442TIP3    H219268   1.717   2.970   6.057
 6443TIP3   OH219269   2.999   2.243   4.828
 6443TIP3    H119270   2.976   2.336   4.808
 6443TIP3    H219271   2.924   2.198   4.787
 6444TIP3   OH219272   2.996   2.255   5.189
 6444TIP3    H119273   3.023   2.223   5.277
 6444TIP3    H219274   2.984   2.176   5.136
 6445TIP3   OH219275   2.306   2.141   5.562
 6445TIP3    H119276   2.337   2.075   5.625
 6445TIP3    H219277   2.374   2.209   5.571
 6446TIP3   OH219278   3.243   2.548   4.882
 6446TIP3    H119279   3.233   2.485   4.953
 6446TIP3    H219280   3.273   2.628   4.929
 6447TIP3   OH219281   2.271   2.551   5.294
 6447TIP3    H119282   2.265   2.453   5.297
 6447TIP3    H219283   2.367   2.563   5.286
 6448TIP3   OH219284   1.980   1.754   5.080
 6448TIP3    H119285   1.932   1.838   5.093
 6448TIP3    H219286   1.910   1.701   5.038
 6449TIP3   OH219287   2.040   2.043   5.248
 6449TIP3    H119288   2.088   1.965   5.284
 6449TIP3    H219289   2.096   2.069   5.174
 6450TIP3   OH219290   2.886   3.007   4.895
 6450TIP3    H119291   2.939   2.937   4.852
 6450TIP3    H219292   2.888   2.981   4.988
 6451TIP3   OH219293   2.800   2.472   5.252
 6451TIP3    H119294   2.840   2.398   5.203
 6451TIP3    H219295   2.882   2.519   5.277
 6452TIP3   OH219296   3.810   1.793   5.246
 6452TIP3    H119297   3.840   1.874   5.293
 6452TIP3    H219298   3.837   1.813   5.155
 6453TIP3   OH219299   3.156   1.941   5.303
 6453TIP3    H119300   3.227   1.873   5.309
 6453TIP3    H219301   3.149   1.947   5.205
 6454TIP3   OH219302   2.555   1.630   5.248
 6454TIP3    H119303   2.528   1.704   5.189
 6454TIP3    H219304   2.512   1.555   5.201
 6455TIP3   OH219305   3.243   1.721   4.872
 6455TIP3    H119306   3.315   1.707   4.937
 6455TIP3    H219307   3.295   1.759   4.798
 6456TIP3   OH219308   2.183   1.835   5.354
 6456TIP3    H119309   2.266   1.816   5.402
 6456TIP3    H219310   2.197   1.778   5.275
 6457TIP3   OH219311   2.620   2.031   5.136
 6457TIP3    H119312   2.707   1.991   5.140
 6457TIP3    H219313   2.565   1.953   5.111
 6458TIP3   OH219314   3.883   1.995   5.423
 6458TIP3    H119315   3.804   2.048   5.402
 6458TIP3    H219316   3.910   2.034   5.508
 6459TIP3   OH219317   2.546   1.614   5.683
 6459TIP3    H119318   2.486   1.654   5.617
 6459TIP3    H219319   2.494   1.632   5.765
 6460TIP3   OH219320   2.897   2.465   4.691
 6460TIP3    H119321   2.851   2.450   4.607
 6460TIP3    H219322   2.858   2.551   4.718
 6461TIP3   OH219323   2.655   2.390   5.486
 6461TIP3    H119324   2.591   2.455   5.523
 6461TIP3    H219325   2.694   2.442   5.412
 6462TIP3   OH219326   3.455   1.726   5.041
 6462TIP3    H119327   3.454   1.675   5.123
 6462TIP3    H219328   3.513   1.801   5.065
 6463TIP3   OH219329   2.415   1.729   5.466
 6463TIP3    H119330   2.477   1.802   5.491
 6463TIP3    H219331   2.465   1.689   5.391
 6464TIP3   OH219332   2.479   2.583   5.575
 6464TIP3    H119333   2.455   2.670   5.535
 6464TIP3    H219334   2.400   2.571   5.632
 6465TIP3   OH219335   1.878   2.274   4.811
 6465TIP3    H119336   1.836   2.304   4.728
 6465TIP3    H219337   1.908   2.360   4.849
 6466TIP3   OH219338   3.314   2.787   5.047
 6466TIP3    H119339   3.225   2.783   5.089
 6466TIP3    H219340   3.311   2.875   5.004
 6467TIP3   OH219341   3.606   1.690   5.411
 6467TIP3    H119342   3.521   1.726   5.380
 6467TIP3    H219343   3.669   1.724   5.344
 6468TIP3   OH219344   2.907   1.340   5.400
 6468TIP3    H119345   2.892   1.244   5.410
 6468TIP3    H219346   2.827   1.374   5.445
 6469TIP3   OH219347   3.023   2.835   4.728
 6469TIP3    H119348   3.073   2.754   4.702
 6469TIP3    H219349   3.082   2.903   4.688
 6470TIP3   OH219350   3.163   2.620   4.629
 6470TIP3    H119351   3.119   2.543   4.592
 6470TIP3    H219352   3.197   2.586   4.714
 6471TIP3   OH219353   3.540   2.703   5.398
 6471TIP3    H119354   3.534   2.629   5.334
 6471TIP3    H219355   3.524   2.781   5.339
 6472TIP3   OH219356   2.834   2.098   4.652
 6472TIP3    H119357   2.753   2.150   4.634
 6472TIP3    H219358   2.878   2.100   4.565
 6473TIP3   OH219359   2.795   1.882   4.367
 6473TIP3    H119360   2.859   1.934   4.418
 6473TIP3    H219361   2.855   1.820   4.321
 6474TIP3   OH219362   3.735   2.333   5.236
 6474TIP3    H119363   3.656   2.392   5.242
 6474TIP3    H219364   3.771   2.362   5.149
 6475TIP3   OH219365   3.178   2.178   4.627
 6475TIP3    H119366   3.126   2.205   4.705
 6475TIP3    H219367   3.264   2.156   4.668
 6476TIP3   OH219368   3.406   2.225   5.536
 6476TIP3    H119369   3.421   2.296   5.602
 6476TIP3    H219370   3.356   2.275   5.469
 6477TIP3   OH219371   2.409   2.181   5.041
 6477TIP3    H119372   2.365   2.125   4.973
 6477TIP3    H219373   2.487   2.128   5.064
 6478TIP3   OH219374   2.540   2.585   5.192
 6478TIP3    H119375   2.522   2.547   5.105
 6478TIP3    H219376   2.632   2.554   5.209
 6479TIP3   OH219377   2.567   2.145   5.396
 6479TIP3    H119378   2.580   2.140   5.300
 6479TIP3    H219379   2.596   2.237   5.417
 6480TIP3   OH219380   3.076   2.785   5.172
 6480TIP3    H119381   3.060   2.870   5.218
 6480TIP3    H219382   3.055   2.719   5.240
 6481TIP3   OH219383   2.687   2.705   5.719
 6481TIP3    H119384   2.628   2.768   5.766
 6481TIP3    H219385   2.621   2.653   5.670
 6482TIP3   OH219386   3.025   2.035   4.449
 6482TIP3    H119387   3.080   2.097   4.502
 6482TIP3    H219388   3.052   2.060   4.358
 6483TIP3   OH219389   2.440   2.263   5.815
 6483TIP3    H119390   2.448   2.348   5.861
 6483TIP3    H219391   2.346   2.243   5.832
 6484TIP3   OH219392   2.764   2.719   4.725
 6484TIP3    H119393   2.841   2.774   4.746
 6484TIP3    H219394   2.702   2.783   4.688
 6485TIP3   OH219395   2.482   2.874   5.804
 6485TIP3    H119396   2.446   2.876   5.714
 6485TIP3    H219397   2.402   2.854   5.858
 6486TIP3   OH219398   3.535   1.280   4.494
 6486TIP3    H119399   3.456   1.302   4.548
 6486TIP3    H219400   3.551   1.365   4.448
 6487TIP3   OH219401   2.277   2.023   4.850
 6487TIP3    H119402   2.212   2.067   4.790
 6487TIP3    H219403   2.243   1.933   4.852
 6488TIP3   OH219404   3.335   2.646   4.042
 6488TIP3    H119405   3.343   2.744   4.032
 6488TIP3    H219406   3.429   2.619   4.033
 6489TIP3   OH219407   2.061   2.404   5.753
 6489TIP3    H119408   1.996   2.383   5.683
 6489TIP3    H219409   2.098   2.316   5.777
 6490TIP3   OH219410   1.915   2.596   5.390
 6490TIP3    H119411   2.010   2.594   5.376
 6490TIP3    H219412   1.904   2.678   5.439
 6491TIP3   OH219413   3.780   3.049   5.442
 6491TIP3    H119414   3.778   2.953   5.454
 6491TIP3    H219415   3.697   3.075   5.486
 6492TIP3   OH219416   2.886   2.833   5.575
 6492TIP3    H119417   2.887   2.926   5.607
 6492TIP3    H219418   2.815   2.795   5.630
 6493TIP3   OH219419   2.646   2.964   4.528
 6493TIP3    H119420   2.600   2.952   4.443
 6493TIP3    H219421   2.617   3.053   4.556
 6494TIP3   OH219422   2.084   2.812   4.909
 6494TIP3    H119423   2.133   2.805   4.994
 6494TIP3    H219424   2.019   2.741   4.921
 6495TIP3   OH219425   2.846   2.864   4.166
 6495TIP3    H119426   2.907   2.796   4.132
 6495TIP3    H219427   2.880   2.877   4.258
 6496TIP3   OH219428   2.896   2.911   4.436
 6496TIP3    H119429   2.808   2.923   4.479
 6496TIP3    H219430   2.949   2.879   4.511
 6497TIP3   OH219431   3.672   2.177   5.720
 6497TIP3    H119432   3.593   2.194   5.669
 6497TIP3    H219433   3.686   2.081   5.707
 6498TIP3   OH219434   2.265   2.588   5.744
 6498TIP3    H119435   2.316   2.570   5.826
 6498TIP3    H219436   2.191   2.524   5.752
 6499TIP3   OH219437   2.665   1.414   5.523
 6499TIP3    H119438   2.577   1.382   5.496
 6499TIP3    H219439   2.637   1.493   5.573
 6500TIP3   OH219440   3.198   1.529   5.717
 6500TIP3    H119441   3.267   1.503   5.781
 6500TIP3    H219442   3.115   1.508   5.764
 6501TIP3   OH219443   3.426   1.953   5.629
 6501TIP3    H119444   3.389   1.947   5.720
 6501TIP3    H219445   3.418   2.048   5.609
 6502TIP3   OH219446   3.095   2.081   4.192
 6502TIP3    H119447   3.066   2.059   4.102
 6502TIP3    H219448   3.172   2.138   4.173
 6503TIP3   OH219449   2.818   1.460   4.489
 6503TIP3    H119450   2.799   1.457   4.584
 6503TIP3    H219451   2.770   1.383   4.457
 6504TIP3   OH219452   2.598   1.917   5.541
 6504TIP3    H119453   2.550   1.944   5.622
 6504TIP3    H219454   2.591   2.000   5.488
 6505TIP3   OH219455   2.477   1.816   5.066
 6505TIP3    H119456   2.384   1.786   5.077
 6505TIP3    H219457   2.494   1.789   4.973
 6506TIP3   OH219458   2.971   1.900   4.785
 6506TIP3    H119459   2.917   1.972   4.745
 6506TIP3    H219460   3.025   1.872   4.709
 6507TIP3   OH219461   3.142   2.173   5.859
 6507TIP3    H119462   3.122   2.105   5.927
 6507TIP3    H219463   3.232   2.199   5.887
 6508TIP3   OH219464   3.137   1.936   5.021
 6508TIP3    H119465   3.073   1.962   4.951
 6508TIP3    H219466   3.164   1.850   4.983
 6509TIP3   OH219467   2.421   1.955   5.752
 6509TIP3    H119468   2.436   2.021   5.821
 6509TIP3    H219469   2.407   1.874   5.804
 6510TIP3   OH219470   2.474   1.438   4.479
 6510TIP3    H119471   2.443   1.429   4.571
 6510TIP3    H219472   2.395   1.484   4.441
 6511TIP3   OH219473   2.013   1.473   5.328
 6511TIP3    H119474   2.080   1.512   5.389
 6511TIP3    H219475   2.065   1.455   5.250
 6512TIP3   OH219476   2.002   1.474   4.872
 6512TIP3    H119477   2.042   1.500   4.787
 6512TIP3    H219478   1.927   1.537   4.874
 6513TIP3   OH219479   3.108   2.167   5.439
 6513TIP3    H119480   3.186   2.134   5.390
 6513TIP3    H219481   3.143   2.187   5.527
 6514TIP3   OH219482   2.808   1.638   5.118
 6514TIP3    H119483   2.723   1.634   5.166
 6514TIP3    H219484   2.873   1.623   5.188
 6515TIP3   OH219485   2.240   1.688   5.129
 6515TIP3    H119486   2.146   1.700   5.099
 6515TIP3    H219487   2.263   1.600   5.095
 6516TIP3   OH219488   2.523   1.732   4.815
 6516TIP3    H119489   2.611   1.712   4.781
 6516TIP3    H219490   2.464   1.712   4.740
 6517TIP3   OH219491   3.304   1.710   5.319
 6517TIP3    H119492   3.270   1.712   5.412
 6517TIP3    H219493   3.244   1.644   5.280
 6518TIP3   OH219494   2.349   1.723   4.599
 6518TIP3    H119495   2.275   1.679   4.556
 6518TIP3    H219496   2.398   1.757   4.522
 6519TIP3   OH219497   3.469   3.398   5.538
 6519TIP3    H119498   3.466   3.425   5.444
 6519TIP3    H219499   3.544   3.451   5.570
 6520TIP3   OH219500   2.429   2.509   5.961
 6520TIP3    H119501   2.508   2.539   6.010
 6520TIP3    H219502   2.364   2.507   6.034
 6521TIP3   OH219503   2.424   1.452   5.081
 6521TIP3    H119504   2.394   1.369   5.122
 6521TIP3    H219505   2.433   1.422   4.987
 6522TIP3   OH219506   2.606   2.249   4.603
 6522TIP3    H119507   2.533   2.185   4.592
 6522TIP3    H219508   2.586   2.284   4.693
 6523TIP3   OH219509   3.508   2.486   5.231
 6523TIP3    H119510   3.535   2.538   5.151
 6523TIP3    H219511   3.422   2.449   5.204
 6524TIP3   OH219512   3.065   1.570   4.444
 6524TIP3    H119513   2.970   1.553   4.462
 6524TIP3    H219514   3.079   1.660   4.481
 6525TIP3   OH219515   3.000   2.561   5.603
 6525TIP3    H119516   3.029   2.553   5.695
 6525TIP3    H219517   2.966   2.653   5.600
 6526TIP3   OH219518   3.134   1.806   4.563
 6526TIP3    H119519   3.230   1.816   4.582
 6526TIP3    H219520   3.114   1.889   4.514
 6527TIP3   OH219521   2.299   2.273   5.281
 6527TIP3    H119522   2.333   2.243   5.194
 6527TIP3    H219523   2.328   2.204   5.341
 6528TIP3   OH219524   2.748   2.399   4.420
 6528TIP3    H119525   2.701   2.486   4.424
 6528TIP3    H219526   2.694   2.347   4.483
 6529TIP3   OH219527   2.179   2.192   5.889
 6529TIP3    H119528   2.202   2.183   5.984
 6529TIP3    H219529   2.108   2.126   5.880
 6530TIP3   OH219530   2.902   2.307   5.906
 6530TIP3    H119531   2.841   2.239   5.872
 6530TIP3    H219532   2.989   2.272   5.878
 6531TIP3   OH219533   3.162   2.814   5.501
 6531TIP3    H119534   3.067   2.828   5.509
 6531TIP3    H219535   3.195   2.873   5.572
 6532TIP3   OH219536   3.573   1.900   4.404
 6532TIP3    H119537   3.511   1.856   4.341
 6532TIP3    H219538   3.572   1.990   4.364
 6533TIP3   OH219539   3.791   2.752   5.487
 6533TIP3    H119540   3.694   2.753   5.477
 6533TIP3    H219541   3.818   2.726   5.396
 6534TIP3   OH219542   3.267   2.720   4.306
 6534TIP3    H119543   3.252   2.652   4.373
 6534TIP3    H219544   3.288   2.669   4.225
 6535TIP3   OH219545   3.271   2.340   5.168
 6535TIP3    H119546   3.175   2.334   5.155
 6535TIP3    H219547   3.304   2.270   5.108
 6536TIP3   OH219548   2.398   2.575   4.899
 6536TIP3    H119549   2.399   2.658   4.847
 6536TIP3    H219550   2.303   2.563   4.912
 6537TIP3   OH219551   1.960   1.879   4.604
 6537TIP3    H119552   2.006   1.964   4.623
 6537TIP3    H219553   1.883   1.885   4.665
 6538TIP3   OH219554   2.539   2.342   4.847
 6538TIP3    H119555   2.504   2.432   4.862
 6538TIP3    H219556   2.498   2.294   4.922
 6539TIP3   OH219557   2.666   2.920   5.371
 6539TIP3    H119558   2.705   2.994   5.319
 6539TIP3    H219559   2.743   2.890   5.420
 6540TIP3   OH219560   2.320   2.814   4.754
 6540TIP3    H119561   2.234   2.825   4.799
 6540TIP3    H219562   2.354   2.906   4.757
 6541TIP3   OH219563   3.054   2.548   5.332
 6541TIP3    H119564   3.047   2.552   5.430
 6541TIP3    H219565   3.146   2.520   5.321
 6542TIP3   OH219566   3.028   2.439   4.212
 6542TIP3    H119567   3.081   2.418   4.292
 6542TIP3    H219568   2.939   2.423   4.244
 6543TIP3   OH219569   3.303   3.087   5.376
 6543TIP3    H119570   3.220   3.037   5.364
 6543TIP3    H219571   3.293   3.156   5.307
 6544TIP3   OH219572   3.368   2.922   4.033
 6544TIP3    H119573   3.409   2.996   3.984
 6544TIP3    H219574   3.288   2.968   4.065
 6545TIP3   OH219575   2.390   1.694   5.899
 6545TIP3    H119576   2.296   1.704   5.919
 6545TIP3    H219577   2.421   1.641   5.974
 6546TIP3   OH219578   3.189   2.376   4.428
 6546TIP3    H119579   3.180   2.313   4.502
 6546TIP3    H219580   3.286   2.378   4.417
 6547TIP3   OH219581   2.104   2.783   5.532
 6547TIP3    H119582   2.158   2.708   5.562
 6547TIP3    H219583   2.136   2.853   5.590
 6548TIP3   OH219584   2.397   2.426   4.210
 6548TIP3    H119585   2.411   2.333   4.185
 6548TIP3    H219586   2.379   2.418   4.306
 6549TIP3   OH219587   2.344   2.432   4.482
 6549TIP3    H119588   2.411   2.409   4.547
 6549TIP3    H219589   2.345   2.531   4.488
 6550TIP3   OH219590   2.078   2.128   4.687
 6550TIP3    H119591   2.012   2.172   4.744
 6550TIP3    H219592   2.090   2.197   4.619
 6551TIP3   OH219593   3.215   1.763   5.572
 6551TIP3    H119594   3.294   1.805   5.610
 6551TIP3    H219595   3.205   1.684   5.630
 6552TIP3   OH219596   3.113   1.512   4.740
 6552TIP3    H119597   3.095   1.544   4.650
 6552TIP3    H219598   3.149   1.593   4.783
 6553TIP3   OH219599   2.606   2.629   4.429
 6553TIP3    H119600   2.521   2.656   4.468
 6553TIP3    H219601   2.626   2.709   4.377
 6554TIP3   OH219602   2.806   1.680   4.838
 6554TIP3    H119603   2.863   1.758   4.824
 6554TIP3    H219604   2.798   1.680   4.936
 6555TIP3   OH219605   3.073   1.994   5.659
 6555TIP3    H119606   3.069   2.061   5.732
 6555TIP3    H219607   3.126   1.926   5.705
 6556TIP3   OH219608   2.944   1.426   4.951
 6556TIP3    H119609   2.933   1.505   5.006
 6556TIP3    H219610   3.003   1.460   4.881
 6557TIP3   OH219611   2.348   2.704   4.500
 6557TIP3    H119612   2.319   2.773   4.437
 6557TIP3    H219613   2.334   2.749   4.586
 6558TIP3   OH219614   3.699   1.913   5.638
 6558TIP3    H119615   3.602   1.903   5.637
 6558TIP3    H219616   3.723   1.884   5.549
 6559TIP3   OH219617   3.355   2.111   5.027
 6559TIP3    H119618   3.284   2.044   5.027
 6559TIP3    H219619   3.430   2.063   5.069
 6560TIP3   OH219620   2.067   2.337   4.494
 6560TIP3    H119621   2.125   2.413   4.503
 6560TIP3    H219622   2.116   2.287   4.425
 6561TIP3   OH219623   2.012   1.608   4.622
 6561TIP3    H119624   2.013   1.706   4.619
 6561TIP3    H219625   1.922   1.589   4.593
 6562TIP3   OH219626   3.325   3.057   4.971
 6562TIP3    H119627   3.282   3.105   4.897
 6562TIP3    H219628   3.419   3.080   4.952
 6563TIP3   OH219629   2.402   1.333   5.502
 6563TIP3    H119630   2.370   1.299   5.415
 6563TIP3    H219631   2.391   1.254   5.560
 6564TIP3   OH219632   1.938   2.542   4.883
 6564TIP3    H119633   1.866   2.580   4.934
 6564TIP3    H219634   1.922   2.585   4.796
 6565TIP3   OH219635   2.092   3.086   5.958
 6565TIP3    H119636   2.182   3.080   5.996
 6565TIP3    H219637   2.071   2.991   5.948
 6566TIP3   OH219638   2.574   3.058   5.998
 6566TIP3    H119639   2.669   3.042   6.007
 6566TIP3    H219640   2.552   3.000   5.922
 6567TIP3   OH219641   2.557   2.632   4.121
 6567TIP3    H119642   2.501   2.563   4.162
 6567TIP3    H219643   2.635   2.579   4.096
 6568TIP3   OH219644   3.219   2.960   5.728
 6568TIP3    H119645   3.210   2.892   5.800
 6568TIP3    H219646   3.294   3.013   5.759
 6569TIP3   OH219647   2.994   2.671   4.034
 6569TIP3    H119648   3.046   2.616   4.096
 6569TIP3    H219649   3.054   2.677   3.957
 6570TIP3   OH219650   2.227   2.500   6.150
 6570TIP3    H119651   2.243   2.405   6.165
 6570TIP3    H219652   2.138   2.498   6.107
 6571TIP3   OH219653   2.203   2.150   4.343
 6571TIP3    H119654   2.256   2.117   4.418
 6571TIP3    H219655   2.272   2.155   4.274
 6572TIP3   OH219656   2.836   2.584   5.926
 6572TIP3    H119657   2.793   2.600   5.840
 6572TIP3    H219658   2.865   2.490   5.918
 6573TIP3   OH219659   2.711   2.347   4.150
 6573TIP3    H119660   2.714   2.360   4.247
 6573TIP3    H219661   2.706   2.249   4.146
 6574TIP3   OH219662   3.323   2.585   5.524
 6574TIP3    H119663   3.401   2.629   5.485
 6574TIP3    H219664   3.258   2.659   5.520
 6575TIP3   OH219665   2.347   2.227   6.131
 6575TIP3    H119666   2.420   2.165   6.124
 6575TIP3    H219667   2.366   2.264   6.220
 6576TIP3   OH219668   2.415   2.048   4.570
 6576TIP3    H119669   2.387   2.007   4.653
 6576TIP3    H219670   2.449   1.971   4.519
 6577TIP3   OH219671   2.688   2.122   5.794
 6577TIP3    H119672   2.606   2.175   5.803
 6577TIP3    H219673   2.720   2.148   5.706
 6578TIP3   OH219674   2.511   1.841   4.406
 6578TIP3    H119675   2.485   1.849   4.312
 6578TIP3    H219676   2.608   1.851   4.400
 6579TIP3   OH219677   3.193   2.512   5.926
 6579TIP3    H119678   3.283   2.505   5.893
 6579TIP3    H219679   3.196   2.452   6.003
 6580TIP3   OH219680   3.335   2.176   4.069
 6580TIP3    H119681   3.312   2.132   3.984
 6580TIP3    H219682   3.304   2.267   4.048
 6581TIP3   OH219683   2.805   1.905   5.921
 6581TIP3    H119684   2.799   1.824   5.867
 6581TIP3    H219685   2.759   1.972   5.865
 6582TIP3   OH219686   2.801   1.690   5.725
 6582TIP3    H119687   2.805   1.738   5.641
 6582TIP3    H219688   2.707   1.661   5.723
 6583TIP3   OH219689   2.851   2.216   5.568
 6583TIP3    H119690   2.925   2.273   5.542
 6583TIP3    H219691   2.776   2.277   5.548
 6584TIP3   OH219692   3.414   2.191   5.978
 6584TIP3    H119693   3.467   2.115   6.006
 6584TIP3    H219694   3.482   2.256   5.956
 6585TIP3   OH219695   3.458   2.438   5.708
 6585TIP3    H119696   3.399   2.497   5.655
 6585TIP3    H219697   3.546   2.467   5.674
 6586TIP3   OH219698   2.678   2.022   6.144
 6586TIP3    H119699   2.609   1.956   6.167
 6586TIP3    H219700   2.715   1.984   6.063
 6587TIP3   OH219701   2.938   1.454   5.791
 6587TIP3    H119702   2.887   1.535   5.772
 6587TIP3    H219703   2.868   1.385   5.783
 6588TIP3   OH219704   3.066   1.961   6.011
 6588TIP3    H119705   3.062   1.951   6.108
 6588TIP3    H219706   2.973   1.935   5.990
 6589TIP3   OH219707   3.299   1.899   5.863
 6589TIP3    H119708   3.229   1.910   5.930
 6589TIP3    H219709   3.376   1.875   5.919
 6590TIP3   OH219710   3.528   1.845   6.013
 6590TIP3    H119711   3.541   1.751   6.038
 6590TIP3    H219712   3.524   1.890   6.100
 6591TIP3   OH219713   2.520   1.797   6.200
 6591TIP3    H119714   2.529   1.704   6.173
 6591TIP3    H219715   2.554   1.793   6.292
 6592TIP3   OH219716   3.034   1.464   6.050
 6592TIP3    H119717   3.101   1.394   6.047
 6592TIP3    H219718   2.993   1.455   5.961
 6593TIP3   OH219719   3.099   1.682   6.210
 6593TIP3    H119720   3.075   1.610   6.147
 6593TIP3    H219721   3.020   1.739   6.207
 6594TIP3   OH219722   2.316   2.902   4.309
 6594TIP3    H119723   2.413   2.904   4.294
 6594TIP3    H219724   2.287   2.957   4.234
 6595TIP3   OH219725   1.799   2.289   4.530
 6595TIP3    H119726   1.893   2.312   4.516
 6595TIP3    H219727   1.794   2.201   4.488
 6596TIP3   OH219728   1.713   2.900   4.941
 6596TIP3    H119729   1.645   2.839   4.905
 6596TIP3    H219730   1.757   2.844   5.008
 6597TIP3   OH219731   1.851   2.754   5.127
 6597TIP3    H119732   1.838   2.681   5.190
 6597TIP3    H219733   1.902   2.816   5.182
 6598TIP3   OH219734   3.575   3.155   4.929
 6598TIP3    H119735   3.604   3.191   5.015
 6598TIP3    H219736   3.635   3.198   4.867
 6599TIP3   OH219737   3.603   3.174   5.211
 6599TIP3    H119738   3.567   3.083   5.206
 6599TIP3    H219739   3.684   3.158   5.261
 6600TIP3   OH219740   3.652   2.849   5.784
 6600TIP3    H119741   3.578   2.860   5.848
 6600TIP3    H219742   3.693   2.938   5.786
 6601TIP3   OH219743   3.468   2.364   4.403
 6601TIP3    H119744   3.535   2.429   4.374
 6601TIP3    H219745   3.513   2.327   4.482
 6602TIP3   OH219746   3.595   2.230   4.605
 6602TIP3    H119747   3.531   2.192   4.669
 6602TIP3    H219748   3.664   2.268   4.663
 6603TIP3   OH219749   3.645   2.619   5.037
 6603TIP3    H119750   3.702   2.561   4.983
 6603TIP3    H219751   3.643   2.700   4.982
 6604TIP3   OH219752   3.481   2.920   5.238
 6604TIP3    H119753   3.412   2.970   5.285
 6604TIP3    H219754   3.431   2.878   5.166
 6605TIP3   OH219755   3.533   2.137   4.255
 6605TIP3    H119756   3.463   2.143   4.187
 6605TIP3    H219757   3.509   2.214   4.311
 6606TIP3   OH219758   3.406   1.810   4.210
 6606TIP3    H119759   3.365   1.858   4.137
 6606TIP3    H219760   3.378   1.718   4.192
 6607TIP3   OH219761   3.408   2.089   4.758
 6607TIP3    H119762   3.421   1.993   4.753
 6607TIP3    H219763   3.398   2.104   4.854
 6608TIP3   OH219764   2.039   2.158   5.502
 6608TIP3    H119765   2.036   2.131   5.408
 6608TIP3    H219766   2.136   2.160   5.517
 6609TIP3   OH219767   3.699   2.512   5.608
 6609TIP3    H119768   3.774   2.449   5.601
 6609TIP3    H219769   3.728   2.586   5.551
 6610TIP3   OH219770   3.883   2.317   5.628
 6610TIP3    H119771   3.813   2.266   5.673
 6610TIP3    H219772   3.959   2.257   5.641
 6611TIP3   OH219773   3.351   1.543   4.192
 6611TIP3    H119774   3.433   1.522   4.243
 6611TIP3    H219775   3.284   1.488   4.234
 6612TIP3   OH219776   3.405   1.802   4.651
 6612TIP3    H119777   3.447   1.714   4.665
 6612TIP3    H219778   3.464   1.838   4.582
 6613TIP3   OH219779   3.568   1.981   5.144
 6613TIP3    H119780   3.654   2.005   5.102
 6613TIP3    H219781   3.586   2.018   5.233
 6614TIP3   OH219782   3.634   2.121   5.377
 6614TIP3    H119783   3.559   2.161   5.425
 6614TIP3    H219784   3.670   2.199   5.329
 6615TIP3   OH219785   2.253   1.845   6.166
 6615TIP3    H119786   2.351   1.845   6.176
 6615TIP3    H219787   2.231   1.764   6.214
 6616TIP3   OH219788   4.086   1.707   5.933
 6616TIP3    H119789   4.149   1.647   5.889
 6616TIP3    H219790   4.059   1.766   5.859
 6617TIP3   OH219791   3.515   1.552   4.687
 6617TIP3    H119792   3.566   1.538   4.769
 6617TIP3    H219793   3.455   1.475   4.688
 6618TIP3   OH219794   2.214   1.539   5.506
 6618TIP3    H119795   2.277   1.465   5.517
 6618TIP3    H219796   2.275   1.614   5.501
 6619TIP3   OH219797   2.019   1.813   5.579
 6619TIP3    H119798   2.069   1.810   5.495
 6619TIP3    H219799   2.043   1.900   5.613
 6620TIP3   OH219800   3.961   1.853   5.741
 6620TIP3    H119801   3.877   1.894   5.769
 6620TIP3    H219802   3.927   1.784   5.681
 6621TIP3   OH219803   3.596   1.492   4.316
 6621TIP3    H119804   3.643   1.419   4.271
 6621TIP3    H219805   3.664   1.562   4.317
 6622TIP3   OH219806   1.969   1.275   5.058
 6622TIP3    H119807   1.902   1.326   5.109
 6622TIP3    H219808   2.000   1.347   4.996
 6623TIP3   OH219809   3.161   3.016   4.586
 6623TIP3    H119810   3.214   3.008   4.503
 6623TIP3    H219811   3.207   3.089   4.632
 6624TIP3   OH219812   2.220   1.392   5.892
 6624TIP3    H119813   2.174   1.393   5.977
 6624TIP3    H219814   2.155   1.435   5.834
 6625TIP3   OH219815   2.260   2.829   5.975
 6625TIP3    H119816   2.170   2.796   5.957
 6625TIP3    H219817   2.274   2.800   6.066
 6626TIP3   OH219818   2.439   2.854   5.518
 6626TIP3    H119819   2.391   2.931   5.479
 6626TIP3    H219820   2.526   2.869   5.475
 6627TIP3   OH219821   2.886   3.099   5.657
 6627TIP3    H119822   2.928   3.104   5.746
 6627TIP3    H219823   2.951   3.151   5.605
 6628TIP3   OH219824   3.066   3.249   5.518
 6628TIP3    H119825   3.140   3.205   5.474
 6628TIP3    H219826   3.115   3.311   5.577
 6629TIP3   OH219827   3.858   1.617   5.616
 6629TIP3    H119828   3.767   1.612   5.583
 6629TIP3    H219829   3.887   1.523   5.604
 6630TIP3   OH219830   2.115   3.110   5.544
 6630TIP3    H119831   2.030   3.149   5.515
 6630TIP3    H219832   2.118   3.144   5.634
 6631TIP3   OH219833   2.352   3.088   5.399
 6631TIP3    H119834   2.266   3.105   5.443
 6631TIP3    H219835   2.335   3.125   5.310
 6632TIP3   OH219836   2.779   3.120   5.198
 6632TIP3    H119837   2.711   3.142   5.131
 6632TIP3    H219838   2.793   3.208   5.240
 6633TIP3   OH219839   3.047   3.057   5.247
 6633TIP3    H119840   2.953   3.079   5.230
 6633TIP3    H219841   3.092   3.135   5.210
 6634TIP3   OH219842   3.253   3.251   5.166
 6634TIP3    H119843   3.239   3.338   5.122
 6634TIP3    H219844   3.281   3.195   5.091
 6635TIP3   OH219845   2.026   2.905   5.288
 6635TIP3    H119846   2.054   2.883   5.379
 6635TIP3    H219847   2.099   2.864   5.237
 6636TIP3   OH219848   2.220   2.778   5.143
 6636TIP3    H119849   2.238   2.696   5.194
 6636TIP3    H219850   2.309   2.818   5.137
 6637TIP3   OH219851   2.483   2.873   5.147
 6637TIP3    H119852   2.520   2.784   5.135
 6637TIP3    H219853   2.527   2.899   5.230
 6638TIP3   OH219854   3.058   1.531   5.239
 6638TIP3    H119855   3.017   1.459   5.291
 6638TIP3    H219856   3.130   1.485   5.192
 6639TIP3   OH219857   3.587   1.406   5.139
 6639TIP3    H119858   3.625   1.459   5.066
 6639TIP3    H219859   3.493   1.428   5.134
 6640TIP3   OH219860   3.681   1.511   4.904
 6640TIP3    H119861   3.754   1.459   4.864
 6640TIP3    H219862   3.715   1.602   4.889
 6641TIP3   OH219863   2.309   1.239   5.258
 6641TIP3    H119864   2.218   1.207   5.246
 6641TIP3    H219865   2.360   1.155   5.248
 6642TIP3   OH219866   2.766   1.261   5.130
 6642TIP3    H119867   2.819   1.322   5.076
 6642TIP3    H219868   2.760   1.308   5.214
 6643TIP3   OH219869   3.301   1.420   5.118
 6643TIP3    H119870   3.301   1.383   5.029
 6643TIP3    H219871   3.287   1.339   5.173
 6644TIP3   OH219872   3.328   1.339   4.673
 6644TIP3    H119873   3.247   1.389   4.697
 6644TIP3    H219874   3.310   1.253   4.719
 6645TIP3   OH219875   1.816   2.678   4.682
 6645TIP3    H119876   1.731   2.647   4.646
 6645TIP3    H219877   1.806   2.774   4.667
 6646TIP3   OH219878   2.750   1.405   4.749
 6646TIP3    H119879   2.807   1.394   4.829
 6646TIP3    H219880   2.727   1.499   4.766
 6647TIP3   OH219881   2.587   2.869   4.262
 6647TIP3    H119882   2.676   2.892   4.227
 6647TIP3    H219883   2.565   2.795   4.201
 6648TIP3   OH219884   3.305   2.986   4.352
 6648TIP3    H119885   3.294   2.889   4.340
 6648TIP3    H219886   3.260   3.020   4.272
 6649TIP3   OH219887   2.522   1.518   6.138
 6649TIP3    H119888   2.484   1.451   6.198
 6649TIP3    H219889   2.615   1.518   6.169
 6650TIP3   OH219890   2.769   1.513   6.259
 6650TIP3    H119891   2.857   1.491   6.226
 6650TIP3    H219892   2.756   1.445   6.329
 6651TIP3   OH219893   1.890   2.704   4.318
 6651TIP3    H119894   1.888   2.737   4.409
 6651TIP3    H219895   1.980   2.666   4.310
 6652TIP3   OH219896   3.593   1.574   6.049
 6652TIP3    H119897   3.611   1.547   6.141
 6652TIP3    H219898   3.683   1.572   6.010
 6653TIP3   OH219899   3.532   3.130   5.543
 6653TIP3    H119900   3.454   3.101   5.492
 6653TIP3    H219901   3.517   3.227   5.543
 6654TIP3   OH219902   4.800   2.500   4.307
 6654TIP3    H119903   4.777   2.594   4.293
 6654TIP3    H219904   4.716   2.458   4.282
 6655TIP3   OH219905   4.834   2.479   4.675
 6655TIP3    H119906   4.826   2.473   4.771
 6655TIP3    H219907   4.747   2.450   4.644
 6656TIP3   OH219908   4.099   2.401   5.056
 6656TIP3    H119909   4.136   2.335   5.118
 6656TIP3    H219910   4.171   2.465   5.051
 6657TIP3   OH219911   5.041   2.803   4.369
 6657TIP3    H119912   5.023   2.737   4.437
 6657TIP3    H219913   5.067   2.880   4.422
 6658TIP3   OH219914   4.050   2.801   4.785
 6658TIP3    H119915   4.059   2.704   4.781
 6658TIP3    H219916   4.146   2.825   4.786
 6659TIP3   OH219917   3.775   2.005   4.565
 6659TIP3    H119918   3.737   2.093   4.582
 6659TIP3    H219919   3.699   1.960   4.524
 6660TIP3   OH219920   3.833   2.295   4.728
 6660TIP3    H119921   3.885   2.223   4.768
 6660TIP3    H219922   3.901   2.344   4.680
 6661TIP3   OH219923   4.688   3.268   4.384
 6661TIP3    H119924   4.738   3.195   4.341
 6661TIP3    H219925   4.676   3.234   4.473
 6662TIP3   OH219926   5.610   2.049   4.735
 6662TIP3    H119927   5.638   2.131   4.780
 6662TIP3    H219928   5.628   2.071   4.642
 6663TIP3   OH219929   5.007   2.229   4.776
 6663TIP3    H119930   5.051   2.143   4.789
 6663TIP3    H219931   4.977   2.222   4.684
 6664TIP3   OH219932   4.344   1.888   4.736
 6664TIP3    H119933   4.327   1.962   4.675
 6664TIP3    H219934   4.295   1.816   4.690
 6665TIP3   OH219935   5.040   1.978   4.358
 6665TIP3    H119936   5.112   1.963   4.424
 6665TIP3    H219937   5.093   2.016   4.285
 6666TIP3   OH219938   3.979   2.091   4.842
 6666TIP3    H119939   4.063   2.075   4.890
 6666TIP3    H219940   3.995   2.037   4.761
 6667TIP3   OH219941   4.422   2.287   4.636
 6667TIP3    H119942   4.515   2.261   4.648
 6667TIP3    H219943   4.383   2.204   4.602
 6668TIP3   OH219944   5.681   2.255   4.906
 6668TIP3    H119945   5.600   2.305   4.885
 6668TIP3    H219946   5.698   2.286   4.997
 6669TIP3   OH219947   4.342   1.872   5.169
 6669TIP3    H119948   4.284   1.912   5.101
 6669TIP3    H219949   4.292   1.892   5.250
 6670TIP3   OH219950   4.698   2.727   4.173
 6670TIP3    H119951   4.644   2.705   4.096
 6670TIP3    H219952   4.655   2.811   4.201
 6671TIP3   OH219953   5.254   1.980   4.528
 6671TIP3    H119954   5.239   1.937   4.613
 6671TIP3    H219955   5.304   2.059   4.554
 6672TIP3   OH219956   4.213   1.988   4.955
 6672TIP3    H119957   4.274   2.062   4.978
 6672TIP3    H219958   4.263   1.948   4.879
 6673TIP3   OH219959   4.286   2.825   5.095
 6673TIP3    H119960   4.289   2.847   5.000
 6673TIP3    H219961   4.195   2.850   5.121
 6674TIP3   OH219962   3.672   2.531   4.299
 6674TIP3    H119963   3.634   2.564   4.215
 6674TIP3    H219964   3.705   2.615   4.339
 6675TIP3   OH219965   5.116   3.047   4.537
 6675TIP3    H119966   5.027   3.037   4.579
 6675TIP3    H219967   5.104   3.133   4.493
 6676TIP3   OH219968   5.402   1.947   4.900
 6676TIP3    H119969   5.315   1.979   4.871
 6676TIP3    H219970   5.461   1.981   4.830
 6677TIP3   OH219971   4.701   1.593   4.882
 6677TIP3    H119972   4.687   1.498   4.899
 6677TIP3    H219973   4.624   1.632   4.928
 6678TIP3   OH219974   4.821   3.093   4.216
 6678TIP3    H119975   4.870   3.011   4.192
 6678TIP3    H219976   4.880   3.159   4.173
 6679TIP3   OH219977   4.962   2.877   4.116
 6679TIP3    H119978   4.906   2.804   4.088
 6679TIP3    H219979   4.997   2.843   4.201
 6680TIP3   OH219980   5.341   2.961   4.881
 6680TIP3    H119981   5.326   2.884   4.823
 6680TIP3    H219982   5.320   3.036   4.821
 6681TIP3   OH219983   4.626   2.348   4.136
 6681TIP3    H119984   4.548   2.405   4.118
 6681TIP3    H219985   4.675   2.355   4.053
 6682TIP3   OH219986   4.588   2.137   3.854
 6682TIP3    H119987   4.651   2.189   3.907
 6682TIP3    H219988   4.650   2.076   3.809
 6683TIP3   OH219989   5.534   2.596   4.725
 6683TIP3    H119990   5.450   2.648   4.731
 6683TIP3    H219991   5.563   2.623   4.635
 6684TIP3   OH219992   4.978   2.434   4.110
 6684TIP3    H119993   4.922   2.460   4.187
 6684TIP3    H219994   5.062   2.412   4.155
 6685TIP3   OH219995   5.213   2.477   5.021
 6685TIP3    H119996   5.211   2.562   5.070
 6685TIP3    H219997   5.126   2.481   4.976
 6686TIP3   OH219998   4.205   2.430   4.531
 6686TIP3    H119999   4.172   2.375   4.457
 6686TIP3    H220000   4.287   2.382   4.557
 6687TIP3   OH220001   4.352   2.419   4.879
 6687TIP3    H120002   4.379   2.388   4.790
 6687TIP3    H220003   4.382   2.512   4.877
 6688TIP3   OH220004   4.874   3.046   4.654
 6688TIP3    H120005   4.855   3.124   4.709
 6688TIP3    H220006   4.865   2.972   4.717
 6689TIP3   OH220007   4.488   2.963   5.212
 6689TIP3    H120008   4.424   3.026   5.250
 6689TIP3    H220009   4.426   2.904   5.163
 6690TIP3   OH220010   4.820   2.293   3.936
 6690TIP3    H120011   4.877   2.354   3.988
 6690TIP3    H220012   4.847   2.318   3.844
 6691TIP3   OH220013   4.240   2.512   5.310
 6691TIP3    H120014   4.247   2.604   5.344
 6691TIP3    H220015   4.143   2.501   5.315
 6692TIP3   OH220016   4.562   2.973   4.202
 6692TIP3    H120017   4.635   3.028   4.236
 6692TIP3    H220018   4.496   3.039   4.177
 6693TIP3   OH220019   4.280   3.134   5.293
 6693TIP3    H120020   4.249   3.134   5.200
 6693TIP3    H220021   4.199   3.109   5.342
 6694TIP3   OH220022   5.333   1.536   3.983
 6694TIP3    H120023   5.252   1.557   4.035
 6694TIP3    H220024   5.347   1.621   3.936
 6695TIP3   OH220025   4.080   2.271   4.322
 6695TIP3    H120026   4.015   2.323   4.271
 6695TIP3    H220027   4.028   2.194   4.346
 6696TIP3   OH220028   5.131   2.903   3.530
 6696TIP3    H120029   5.139   3.001   3.518
 6696TIP3    H220030   5.224   2.875   3.520
 6697TIP3   OH220031   3.852   2.658   5.242
 6697TIP3    H120032   3.795   2.637   5.166
 6697TIP3    H220033   3.893   2.572   5.264
 6698TIP3   OH220034   3.713   2.850   4.879
 6698TIP3    H120035   3.808   2.846   4.862
 6698TIP3    H220036   3.707   2.934   4.929
 6699TIP3   OH220037   5.576   3.305   4.927
 6699TIP3    H120038   5.573   3.208   4.940
 6699TIP3    H220039   5.493   3.331   4.973
 6700TIP3   OH220040   4.692   3.085   5.070
 6700TIP3    H120041   4.683   3.179   5.093
 6700TIP3    H220042   4.612   3.048   5.115
 6701TIP3   OH220043   4.441   3.223   4.012
 6701TIP3    H120044   4.394   3.208   3.928
 6701TIP3    H220045   4.409   3.311   4.039
 6702TIP3   OH220046   3.880   3.069   4.400
 6702TIP3    H120047   3.934   3.061   4.482
 6702TIP3    H220048   3.815   2.999   4.415
 6703TIP3   OH220049   4.643   3.122   3.654
 6703TIP3    H120050   4.703   3.053   3.619
 6703TIP3    H220051   4.676   3.132   3.746
 6704TIP3   OH220052   4.692   3.168   3.925
 6704TIP3    H120053   4.604   3.180   3.966
 6704TIP3    H220054   4.742   3.129   3.999
 6705TIP3   OH220055   5.467   2.436   5.202
 6705TIP3    H120056   5.385   2.452   5.152
 6705TIP3    H220057   5.479   2.340   5.190
 6706TIP3   OH220058   4.047   2.854   5.237
 6706TIP3    H120059   4.108   2.830   5.310
 6706TIP3    H220060   3.980   2.783   5.242
 6707TIP3   OH220061   4.462   1.666   5.011
 6707TIP3    H120062   4.372   1.638   4.986
 6707TIP3    H220063   4.440   1.751   5.054
 6708TIP3   OH220064   4.995   1.782   5.205
 6708TIP3    H120065   5.063   1.757   5.270
 6708TIP3    H220066   4.911   1.764   5.251
 6709TIP3   OH220067   5.235   2.212   5.123
 6709TIP3    H120068   5.185   2.209   5.208
 6709TIP3    H220069   5.212   2.301   5.089
 6710TIP3   OH220070   4.892   2.340   3.679
 6710TIP3    H120071   4.862   2.316   3.589
 6710TIP3    H220072   4.969   2.395   3.658
 6711TIP3   OH220073   4.605   1.719   3.982
 6711TIP3    H120074   4.575   1.716   4.075
 6711TIP3    H220075   4.568   1.634   3.950
 6712TIP3   OH220076   4.390   2.188   5.026
 6712TIP3    H120077   4.342   2.211   5.108
 6712TIP3    H220078   4.381   2.271   4.975
 6713TIP3   OH220079   4.279   2.066   4.544
 6713TIP3    H120080   4.185   2.046   4.561
 6713TIP3    H220081   4.291   2.027   4.455
 6714TIP3   OH220082   4.766   2.152   4.269
 6714TIP3    H120083   4.713   2.225   4.230
 6714TIP3    H220084   4.822   2.127   4.193
 6715TIP3   OH220085   4.941   2.433   5.356
 6715TIP3    H120086   4.922   2.361   5.420
 6715TIP3    H220087   5.034   2.452   5.378
 6716TIP3   OH220088   4.925   2.184   4.515
 6716TIP3    H120089   4.867   2.222   4.446
 6716TIP3    H220090   4.954   2.103   4.468
 6717TIP3   OH220091   4.214   2.213   5.240
 6717TIP3    H120092   4.237   2.282   5.304
 6717TIP3    H220093   4.206   2.134   5.296
 6718TIP3   OH220094   4.257   1.686   3.948
 6718TIP3    H120095   4.255   1.687   4.046
 6718TIP3    H220096   4.183   1.746   3.927
 6719TIP3   OH220097   3.806   1.732   4.820
 6719TIP3    H120098   3.878   1.769   4.876
 6719TIP3    H220099   3.853   1.708   4.739
 6720TIP3   OH220100   3.778   1.716   4.338
 6720TIP3    H120101   3.826   1.753   4.261
 6720TIP3    H220102   3.720   1.791   4.359
 6721TIP3   OH220103   4.937   2.431   4.942
 6721TIP3    H120104   4.967   2.363   4.878
 6721TIP3    H220105   4.909   2.374   5.016
 6722TIP3   OH220106   4.601   1.885   4.605
 6722TIP3    H120107   4.519   1.889   4.658
 6722TIP3    H220108   4.669   1.900   4.672
 6723TIP3   OH220109   4.037   1.947   4.616
 6723TIP3    H120110   3.943   1.955   4.587
 6723TIP3    H220111   4.062   1.856   4.589
 6724TIP3   OH220112   4.309   1.941   4.301
 6724TIP3    H120113   4.403   1.960   4.283
 6724TIP3    H220114   4.264   1.967   4.218
 6725TIP3   OH220115   5.097   1.965   4.805
 6725TIP3    H120116   5.063   1.980   4.896
 6725TIP3    H220117   5.028   1.906   4.770
 6726TIP3   OH220118   4.148   1.971   4.080
 6726TIP3    H120119   4.075   1.934   4.029
 6726TIP3    H220120   4.201   2.013   4.008
 6727TIP3   OH220121   5.264   3.656   5.025
 6727TIP3    H120122   5.260   3.679   4.931
 6727TIP3    H220123   5.342   3.707   5.055
 6728TIP3   OH220124   4.222   2.762   5.448
 6728TIP3    H120125   4.302   2.796   5.490
 6728TIP3    H220126   4.158   2.769   5.521
 6729TIP3   OH220127   4.680   2.203   4.700
 6729TIP3    H120128   4.764   2.192   4.652
 6729TIP3    H220129   4.703   2.175   4.790
 6730TIP3   OH220130   4.209   1.710   4.578
 6730TIP3    H120131   4.180   1.629   4.624
 6730TIP3    H220132   4.267   1.675   4.508
 6731TIP3   OH220133   4.663   2.111   5.002
 6731TIP3    H120134   4.576   2.154   5.005
 6731TIP3    H220135   4.722   2.175   5.046
 6732TIP3   OH220136   4.402   2.506   4.088
 6732TIP3    H120137   4.327   2.445   4.076
 6732TIP3    H220138   4.383   2.542   4.179
 6733TIP3   OH220139   5.303   2.742   4.719
 6733TIP3    H120140   5.324   2.793   4.638
 6733TIP3    H220141   5.216   2.702   4.696
 6734TIP3   OH220142   4.859   1.821   3.943
 6734TIP3    H120143   4.762   1.807   3.954
 6734TIP3    H220144   4.872   1.915   3.971
 6735TIP3   OH220145   4.794   2.817   5.088
 6735TIP3    H120146   4.821   2.814   5.181
 6735TIP3    H220147   4.758   2.908   5.081
 6736TIP3   OH220148   4.931   2.065   4.049
 6736TIP3    H120149   5.026   2.074   4.069
 6736TIP3    H220150   4.911   2.148   4.000
 6737TIP3   OH220151   4.076   2.510   4.765
 6737TIP3    H120152   4.123   2.502   4.679
 6737TIP3    H220153   4.138   2.465   4.825
 6738TIP3   OH220154   4.543   2.655   3.905
 6738TIP3    H120155   4.497   2.742   3.910
 6738TIP3    H220156   4.490   2.603   3.968
 6739TIP3   OH220157   3.973   2.449   5.377
 6739TIP3    H120158   3.998   2.440   5.471
 6739TIP3    H220159   3.904   2.380   5.369
 6740TIP3   OH220160   4.698   2.561   5.397
 6740TIP3    H120161   4.638   2.501   5.349
 6740TIP3    H220162   4.786   2.529   5.368
 6741TIP3   OH220163   4.967   3.096   4.979
 6741TIP3    H120164   4.871   3.083   4.989
 6741TIP3    H220165   4.987   3.144   5.062
 6742TIP3   OH220166   5.371   2.156   3.890
 6742TIP3    H120167   5.309   2.112   3.827
 6742TIP3    H220168   5.369   2.246   3.850
 6743TIP3   OH220169   5.590   3.013   4.970
 6743TIP3    H120170   5.492   3.009   4.962
 6743TIP3    H220171   5.615   2.983   4.880
 6744TIP3   OH220172   5.070   2.976   3.796
 6744TIP3    H120173   5.044   2.909   3.861
 6744TIP3    H220174   5.082   2.925   3.714
 6745TIP3   OH220175   5.073   2.604   4.637
 6745TIP3    H120176   4.981   2.574   4.651
 6745TIP3    H220177   5.107   2.527   4.588
 6746TIP3   OH220178   4.182   2.823   4.356
 6746TIP3    H120179   4.192   2.915   4.328
 6746TIP3    H220180   4.100   2.826   4.407
 6747TIP3   OH220181   3.756   2.137   4.089
 6747TIP3    H120182   3.803   2.221   4.109
 6747TIP3    H220183   3.681   2.143   4.151
 6748TIP3   OH220184   4.335   2.595   4.332
 6748TIP3    H120185   4.300   2.686   4.344
 6748TIP3    H220186   4.304   2.555   4.415
 6749TIP3   OH220187   4.458   3.195   4.865
 6749TIP3    H120188   4.507   3.257   4.808
 6749TIP3    H220189   4.525   3.131   4.889
 6750TIP3   OH220190   4.112   3.077   4.235
 6750TIP3    H120191   4.028   3.083   4.285
 6750TIP3    H220192   4.145   3.169   4.241
 6751TIP3   OH220193   4.887   2.826   4.824
 6751TIP3    H120194   4.850   2.809   4.913
 6751TIP3    H220195   4.933   2.744   4.804
 6752TIP3   OH220196   4.824   2.699   3.698
 6752TIP3    H120197   4.878   2.675   3.777
 6752TIP3    H220198   4.735   2.680   3.731
 6753TIP3   OH220199   5.102   3.345   4.867
 6753TIP3    H120200   5.024   3.287   4.863
 6753TIP3    H220201   5.083   3.408   4.794
 6754TIP3   OH220202   5.166   3.179   3.519
 6754TIP3    H120203   5.204   3.252   3.468
 6754TIP3    H220204   5.085   3.224   3.553
 6755TIP3   OH220205   4.187   1.953   5.388
 6755TIP3    H120206   4.092   1.960   5.404
 6755TIP3    H220207   4.216   1.895   5.460
 6756TIP3   OH220208   4.985   2.631   3.911
 6756TIP3    H120209   4.975   2.571   3.987
 6756TIP3    H220210   5.082   2.634   3.903
 6757TIP3   OH220211   3.897   3.040   5.021
 6757TIP3    H120212   3.958   2.968   5.044
 6757TIP3    H220213   3.936   3.112   5.071
 6758TIP3   OH220214   4.192   2.684   3.697
 6758TIP3    H120215   4.209   2.592   3.672
 6758TIP3    H220216   4.176   2.675   3.794
 6759TIP3   OH220217   4.140   2.688   3.970
 6759TIP3    H120218   4.205   2.666   4.038
 6759TIP3    H220219   4.140   2.786   3.976
 6760TIP3   OH220220   3.872   2.382   4.174
 6760TIP3    H120221   3.808   2.429   4.232
 6760TIP3    H220222   3.889   2.452   4.108
 6761TIP3   OH220223   5.022   2.019   5.064
 6761TIP3    H120224   5.100   2.060   5.105
 6761TIP3    H220225   5.008   1.939   5.120
 6762TIP3   OH220226   4.903   1.771   4.229
 6762TIP3    H120227   4.890   1.797   4.136
 6762TIP3    H220228   4.941   1.853   4.268
 6763TIP3   OH220229   4.401   2.885   3.914
 6763TIP3    H120230   4.317   2.911   3.956
 6763TIP3    H220231   4.421   2.965   3.863
 6764TIP3   OH220232   4.591   1.949   4.332
 6764TIP3    H120233   4.655   2.021   4.314
 6764TIP3    H220234   4.597   1.942   4.430
 6765TIP3   OH220235   4.856   2.270   5.145
 6765TIP3    H120236   4.880   2.326   5.222
 6765TIP3    H220237   4.913   2.193   5.157
 6766TIP3   OH220238   4.736   1.679   4.435
 6766TIP3    H120239   4.728   1.754   4.497
 6766TIP3    H220240   4.796   1.717   4.367
 6767TIP3   OH220241   4.143   2.960   3.986
 6767TIP3    H120242   4.114   3.031   3.924
 6767TIP3    H220243   4.129   3.003   4.073
 6768TIP3   OH220244   4.247   1.676   4.225
 6768TIP3    H120245   4.246   1.767   4.260
 6768TIP3    H220246   4.343   1.657   4.235
 6769TIP3   OH220247   5.502   2.168   5.123
 6769TIP3    H120248   5.404   2.166   5.129
 6769TIP3    H220249   5.514   2.135   5.033
 6770TIP3   OH220250   5.154   2.362   4.507
 6770TIP3    H120251   5.075   2.308   4.525
 6770TIP3    H220252   5.224   2.315   4.557
 6771TIP3   OH220253   3.862   2.594   3.980
 6771TIP3    H120254   3.922   2.669   3.994
 6771TIP3    H220255   3.913   2.545   3.912
 6772TIP3   OH220256   3.808   1.868   4.113
 6772TIP3    H120257   3.813   1.966   4.108
 6772TIP3    H220258   3.722   1.852   4.074
 6773TIP3   OH220259   5.121   3.318   4.460
 6773TIP3    H120260   5.077   3.365   4.385
 6773TIP3    H220261   5.214   3.338   4.438
 6774TIP3   OH220262   4.195   1.589   4.988
 6774TIP3    H120263   4.165   1.556   4.901
 6774TIP3    H220264   4.186   1.510   5.045
 6775TIP3   OH220265   3.731   2.795   4.370
 6775TIP3    H120266   3.661   2.838   4.420
 6775TIP3    H220267   3.722   2.840   4.283
 6776TIP3   OH220268   3.890   3.345   5.442
 6776TIP3    H120269   3.978   3.344   5.485
 6776TIP3    H220270   3.871   3.249   5.436
 6777TIP3   OH220271   4.377   3.314   5.485
 6777TIP3    H120272   4.471   3.290   5.486
 6777TIP3    H220273   4.346   3.258   5.410
 6778TIP3   OH220274   4.354   2.889   3.609
 6778TIP3    H120275   4.298   2.820   3.650
 6778TIP3    H220276   4.431   2.836   3.581
 6779TIP3   OH220277   5.010   3.223   5.222
 6779TIP3    H120278   5.002   3.150   5.288
 6779TIP3    H220279   5.090   3.269   5.251
 6780TIP3   OH220280   4.791   2.929   3.521
 6780TIP3    H120281   4.839   2.869   3.581
 6780TIP3    H220282   4.848   2.931   3.442
 6781TIP3   OH220283   4.022   2.753   5.641
 6781TIP3    H120284   4.038   2.657   5.642
 6781TIP3    H220285   3.935   2.757   5.595
 6782TIP3   OH220286   3.999   2.404   3.831
 6782TIP3    H120287   4.055   2.376   3.906
 6782TIP3    H220288   4.067   2.411   3.761
 6783TIP3   OH220289   4.630   2.839   5.415
 6783TIP3    H120290   4.588   2.862   5.329
 6783TIP3    H220291   4.658   2.746   5.402
 6784TIP3   OH220292   4.506   2.602   3.637
 6784TIP3    H120293   4.510   2.617   3.734
 6784TIP3    H220294   4.503   2.505   3.633
 6785TIP3   OH220295   5.126   2.845   5.024
 6785TIP3    H120296   5.196   2.894   4.978
 6785TIP3    H220297   5.048   2.896   4.997
 6786TIP3   OH220298   4.139   2.481   5.623
 6786TIP3    H120299   4.221   2.436   5.598
 6786TIP3    H220300   4.164   2.520   5.709
 6787TIP3   OH220301   4.204   2.309   4.052
 6787TIP3    H120302   4.181   2.272   4.139
 6787TIP3    H220303   4.242   2.231   4.006
 6788TIP3   OH220304   4.482   2.374   5.278
 6788TIP3    H120305   4.402   2.430   5.285
 6788TIP3    H220306   4.523   2.411   5.196
 6789TIP3   OH220307   4.307   2.097   3.896
 6789TIP3    H120308   4.282   2.106   3.802
 6789TIP3    H220309   4.404   2.106   3.890
 6790TIP3   OH220310   4.991   2.773   5.419
 6790TIP3    H120311   5.071   2.755   5.368
 6790TIP3    H220312   4.994   2.706   5.489
 6791TIP3   OH220313   5.132   2.433   3.555
 6791TIP3    H120314   5.109   2.389   3.472
 6791TIP3    H220315   5.099   2.524   3.535
 6792TIP3   OH220316   4.598   2.160   5.409
 6792TIP3    H120317   4.600   2.081   5.351
 6792TIP3    H220318   4.558   2.228   5.350
 6793TIP3   OH220319   4.601   1.944   5.217
 6793TIP3    H120320   4.630   1.990   5.135
 6793TIP3    H220321   4.507   1.924   5.197
 6794TIP3   OH220322   4.620   2.496   5.071
 6794TIP3    H120323   4.711   2.483   5.040
 6794TIP3    H220324   4.606   2.589   5.048
 6795TIP3   OH220325   5.212   2.450   5.470
 6795TIP3    H120326   5.265   2.370   5.481
 6795TIP3    H220327   5.277   2.513   5.438
 6796TIP3   OH220328   5.255   2.700   5.208
 6796TIP3    H120329   5.196   2.754   5.150
 6796TIP3    H220330   5.342   2.722   5.167
 6797TIP3   OH220331   4.477   2.274   5.639
 6797TIP3    H120332   4.407   2.208   5.652
 6797TIP3    H220333   4.512   2.249   5.551
 6798TIP3   OH220334   4.735   1.710   5.282
 6798TIP3    H120335   4.686   1.793   5.260
 6798TIP3    H220336   4.665   1.643   5.270
 6799TIP3   OH220337   4.862   2.215   5.499
 6799TIP3    H120338   4.852   2.207   5.595
 6799TIP3    H220339   4.771   2.191   5.471
 6800TIP3   OH220340   5.099   2.161   5.352
 6800TIP3    H120341   5.025   2.167   5.416
 6800TIP3    H220342   5.173   2.134   5.409
 6801TIP3   OH220343   5.327   2.104   5.504
 6801TIP3    H120344   5.340   2.009   5.525
 6801TIP3    H220345   5.324   2.145   5.593
 6802TIP3   OH220346   4.314   2.056   5.690
 6802TIP3    H120347   4.325   1.965   5.655
 6802TIP3    H220348   4.349   2.046   5.781
 6803TIP3   OH220349   4.826   1.718   5.541
 6803TIP3    H120350   4.896   1.650   5.534
 6803TIP3    H220351   4.789   1.713   5.450
 6804TIP3   OH220352   4.893   1.934   5.702
 6804TIP3    H120353   4.872   1.865   5.635
 6804TIP3    H220354   4.817   1.996   5.693
 6805TIP3   OH220355   4.113   3.160   3.795
 6805TIP3    H120356   4.209   3.160   3.781
 6805TIP3    H220357   4.085   3.214   3.719
 6806TIP3   OH220358   3.595   2.547   4.016
 6806TIP3    H120359   3.689   2.571   4.003
 6806TIP3    H220360   3.593   2.458   3.975
 6807TIP3   OH220361   3.512   3.156   4.426
 6807TIP3    H120362   3.442   3.095   4.392
 6807TIP3    H220363   3.554   3.101   4.495
 6808TIP3   OH220364   3.648   3.010   4.614
 6808TIP3    H120365   3.637   2.938   4.677
 6808TIP3    H220366   3.700   3.073   4.668
 6809TIP3   OH220367   5.373   3.410   4.414
 6809TIP3    H120368   5.399   3.443   4.503
 6809TIP3    H220369   5.434   3.457   4.356
 6810TIP3   OH220370   5.403   3.430   4.695
 6810TIP3    H120371   5.357   3.344   4.692
 6810TIP3    H220372   5.477   3.408   4.754
 6811TIP3   OH220373   5.450   3.107   5.271
 6811TIP3    H120374   5.375   3.116   5.334
 6811TIP3    H220375   5.490   3.196   5.275
 6812TIP3   OH220376   5.265   2.620   3.891
 6812TIP3    H120377   5.333   2.685   3.863
 6812TIP3    H220378   5.308   2.582   3.970
 6813TIP3   OH220379   5.393   2.487   4.094
 6813TIP3    H120380   5.326   2.446   4.153
 6813TIP3    H220381   5.456   2.528   4.157
 6814TIP3   OH220382   5.448   2.880   4.529
 6814TIP3    H120383   5.498   2.817   4.474
 6814TIP3    H220384   5.434   2.954   4.468
 6815TIP3   OH220385   5.278   3.181   4.723
 6815TIP3    H120386   5.205   3.223   4.774
 6815TIP3    H220387   5.228   3.134   4.652
 6816TIP3   OH220388   5.331   2.395   3.741
 6816TIP3    H120389   5.260   2.399   3.673
 6816TIP3    H220390   5.304   2.470   3.797
 6817TIP3   OH220391   5.204   2.067   3.695
 6817TIP3    H120392   5.159   2.111   3.622
 6817TIP3    H220393   5.175   1.974   3.683
 6818TIP3   OH220394   5.208   2.344   4.241
 6818TIP3    H120395   5.215   2.248   4.237
 6818TIP3    H220396   5.193   2.360   4.338
 6819TIP3   OH220397   3.835   2.412   4.989
 6819TIP3    H120398   3.834   2.393   4.894
 6819TIP3    H220399   3.932   2.418   5.005
 6820TIP3   OH220400   5.496   2.769   5.098
 6820TIP3    H120401   5.570   2.705   5.088
 6820TIP3    H220402   5.520   2.839   5.035
 6821TIP3   OH220403   5.682   2.575   5.115
 6821TIP3    H120404   5.608   2.526   5.156
 6821TIP3    H220405   5.755   2.511   5.129
 6822TIP3   OH220406   5.146   1.801   3.680
 6822TIP3    H120407   5.223   1.775   3.735
 6822TIP3    H220408   5.074   1.744   3.711
 6823TIP3   OH220409   5.202   2.059   4.138
 6823TIP3    H120410   5.243   1.970   4.152
 6823TIP3    H220411   5.261   2.094   4.069
 6824TIP3   OH220412   5.366   2.233   4.632
 6824TIP3    H120413   5.451   2.260   4.592
 6824TIP3    H220414   5.378   2.272   4.721
 6825TIP3   OH220415   5.432   2.378   4.864
 6825TIP3    H120416   5.354   2.413   4.911
 6825TIP3    H220417   5.465   2.459   4.818
 6826TIP3   OH220418   4.047   2.101   5.653
 6826TIP3    H120419   4.145   2.100   5.660
 6826TIP3    H220420   4.025   2.019   5.702
 6827TIP3   OH220421   5.885   1.967   5.420
 6827TIP3    H120422   5.944   1.903   5.375
 6827TIP3    H220423   5.856   2.023   5.345
 6828TIP3   OH220424   5.313   1.809   4.173
 6828TIP3    H120425   5.361   1.796   4.257
 6828TIP3    H220426   5.252   1.733   4.174
 6829TIP3   OH220427   4.010   1.797   4.996
 6829TIP3    H120428   4.073   1.723   5.004
 6829TIP3    H220429   4.071   1.872   4.987
 6830TIP3   OH220430   3.814   2.070   5.066
 6830TIP3    H120431   3.865   2.067   4.982
 6830TIP3    H220432   3.839   2.157   5.099
 6831TIP3   OH220433   5.757   2.110   5.227
 6831TIP3    H120434   5.672   2.151   5.251
 6831TIP3    H220435   5.725   2.040   5.167
 6832TIP3   OH220436   5.393   1.747   3.805
 6832TIP3    H120437   5.436   1.674   3.755
 6832TIP3    H220438   5.461   1.817   3.801
 6833TIP3   OH220439   3.797   1.568   4.562
 6833TIP3    H120440   3.705   1.573   4.593
 6833TIP3    H220441   3.797   1.631   4.487
 6834TIP3   OH220442   4.958   3.276   4.072
 6834TIP3    H120443   5.009   3.264   3.989
 6834TIP3    H220444   5.009   3.344   4.118
 6835TIP3   OH220445   4.017   1.651   5.380
 6835TIP3    H120446   3.968   1.651   5.464
 6835TIP3    H220447   3.952   1.692   5.320
 6836TIP3   OH220448   4.059   3.083   5.464
 6836TIP3    H120449   3.971   3.051   5.439
 6836TIP3    H220450   4.062   3.064   5.559
 6837TIP3   OH220451   4.226   3.124   5.019
 6837TIP3    H120452   4.194   3.201   4.968
 6837TIP3    H220453   4.310   3.108   4.971
 6838TIP3   OH220454   4.683   3.357   5.147
 6838TIP3    H120455   4.727   3.362   5.234
 6838TIP3    H220456   4.747   3.408   5.092
 6839TIP3   OH220457   4.860   3.508   5.003
 6839TIP3    H120458   4.929   3.457   4.959
 6839TIP3    H220459   4.914   3.565   5.063
 6840TIP3   OH220460   5.655   1.873   5.103
 6840TIP3    H120461   5.564   1.871   5.068
 6840TIP3    H220462   5.683   1.779   5.091
 6841TIP3   OH220463   3.909   3.367   5.029
 6841TIP3    H120464   3.822   3.405   5.006
 6841TIP3    H220465   3.922   3.405   5.117
 6842TIP3   OH220466   4.148   3.352   4.886
 6842TIP3    H120467   4.061   3.363   4.930
 6842TIP3    H220468   4.130   3.385   4.796
 6843TIP3   OH220469   4.580   3.381   4.679
 6843TIP3    H120470   4.505   3.399   4.618
 6843TIP3    H220471   4.588   3.468   4.725
 6844TIP3   OH220472   4.844   3.322   4.737
 6844TIP3    H120473   4.749   3.335   4.717
 6844TIP3    H220474   4.883   3.399   4.695
 6845TIP3   OH220475   5.057   3.512   4.654
 6845TIP3    H120476   5.039   3.595   4.606
 6845TIP3    H220477   5.078   3.450   4.581
 6846TIP3   OH220478   3.824   3.161   4.773
 6846TIP3    H120479   3.850   3.141   4.865
 6846TIP3    H220480   3.899   3.118   4.725
 6847TIP3   OH220481   4.022   3.033   4.630
 6847TIP3    H120482   4.038   2.950   4.681
 6847TIP3    H220483   4.113   3.070   4.626
 6848TIP3   OH220484   4.289   3.131   4.632
 6848TIP3    H120485   4.321   3.039   4.632
 6848TIP3    H220486   4.320   3.154   4.722
 6849TIP3   OH220487   4.862   1.788   4.720
 6849TIP3    H120488   4.815   1.719   4.772
 6849TIP3    H220489   4.934   1.738   4.679
 6850TIP3   OH220490   5.385   1.663   4.626
 6850TIP3    H120491   5.421   1.718   4.553
 6850TIP3    H220492   5.290   1.685   4.622
 6851TIP3   OH220493   5.478   1.767   4.390
 6851TIP3    H120494   5.552   1.717   4.349
 6851TIP3    H220495   5.510   1.859   4.377
 6852TIP3   OH220496   4.109   1.495   4.739
 6852TIP3    H120497   4.016   1.463   4.741
 6852TIP3    H220498   4.158   1.410   4.735
 6853TIP3   OH220499   3.886   1.365   4.381
 6853TIP3    H120500   3.924   1.424   4.312
 6853TIP3    H220501   3.864   1.430   4.451
 6854TIP3   OH220502   4.551   1.527   4.620
 6854TIP3    H120503   4.607   1.579   4.560
 6854TIP3    H220504   4.572   1.569   4.705
 6855TIP3   OH220505   5.100   1.674   4.604
 6855TIP3    H120506   5.097   1.639   4.514
 6855TIP3    H220507   5.085   1.592   4.657
 6856TIP3   OH220508   5.128   1.596   4.164
 6856TIP3    H120509   5.042   1.641   4.176
 6856TIP3    H220510   5.112   1.512   4.212
 6857TIP3   OH220511   3.612   2.934   4.167
 6857TIP3    H120512   3.526   2.905   4.132
 6857TIP3    H220513   3.603   3.030   4.156
 6858TIP3   OH220514   4.011   1.523   4.151
 6858TIP3    H120515   4.062   1.464   4.093
 6858TIP3    H220516   4.082   1.581   4.187
 6859TIP3   OH220517   4.525   1.698   4.249
 6859TIP3    H120518   4.587   1.654   4.310
 6859TIP3    H220519   4.545   1.792   4.273
 6860TIP3   OH220520   4.383   3.127   3.747
 6860TIP3    H120521   4.472   3.148   3.713
 6860TIP3    H220522   4.361   3.051   3.688
 6861TIP3   OH220523   5.103   3.243   3.839
 6861TIP3    H120524   5.094   3.145   3.828
 6861TIP3    H220525   5.057   3.275   3.759
 6862TIP3   OH220526   4.316   1.774   5.625
 6862TIP3    H120527   4.280   1.707   5.685
 6862TIP3    H220528   4.410   1.775   5.654
 6863TIP3   OH220529   4.564   1.768   5.749
 6863TIP3    H120530   4.649   1.760   5.703
 6863TIP3    H220531   4.567   1.690   5.806
 6864TIP3   OH220532   3.685   2.959   3.805
 6864TIP3    H120533   3.686   2.992   3.896
 6864TIP3    H220534   3.776   2.922   3.795
 6865TIP3   OH220535   5.390   1.832   5.537
 6865TIP3    H120536   5.409   1.802   5.628
 6865TIP3    H220537   5.479   1.830   5.495
 6866TIP3   OH220538   5.330   3.388   5.029
 6866TIP3    H120539   5.252   3.355   4.980
 6866TIP3    H220540   5.309   3.483   5.031
 6867TIP3   OH220541   6.595   2.758   3.796
 6867TIP3    H120542   6.568   2.851   3.777
 6867TIP3    H220543   6.517   2.711   3.763
 6868TIP3   OH220544   6.595   2.759   4.173
 6868TIP3    H120545   6.624   2.730   4.261
 6868TIP3    H220546   6.552   2.679   4.138
 6869TIP3   OH220547   5.896   2.656   4.538
 6869TIP3    H120548   5.926   2.588   4.602
 6869TIP3    H220549   5.972   2.716   4.537
 6870TIP3   OH220550   6.836   3.061   3.856
 6870TIP3    H120551   6.824   2.991   3.922
 6870TIP3    H220552   6.865   3.136   3.910
 6871TIP3   OH220553   5.864   3.064   4.266
 6871TIP3    H120554   5.856   2.966   4.270
 6871TIP3    H220555   5.960   3.074   4.261
 6872TIP3   OH220556   5.573   2.267   4.052
 6872TIP3    H120557   5.527   2.351   4.068
 6872TIP3    H220558   5.500   2.214   4.015
 6873TIP3   OH220559   5.632   2.555   4.220
 6873TIP3    H120560   5.680   2.478   4.258
 6873TIP3    H220561   5.692   2.585   4.151
 6874TIP3   OH220562   6.485   3.524   3.872
 6874TIP3    H120563   6.533   3.452   3.825
 6874TIP3    H220564   6.477   3.488   3.961
 6875TIP3   OH220565   6.394   2.985   4.224
 6875TIP3    H120566   6.432   2.909   4.176
 6875TIP3    H220567   6.477   3.030   4.248
 6876TIP3   OH220568   7.400   2.306   4.220
 6876TIP3    H120569   7.433   2.387   4.265
 6876TIP3    H220570   7.429   2.323   4.129
 6877TIP3   OH220571   6.803   2.487   4.258
 6877TIP3    H120572   6.848   2.403   4.278
 6877TIP3    H220573   6.775   2.472   4.166
 6878TIP3   OH220574   6.142   2.145   4.222
 6878TIP3    H120575   6.122   2.219   4.161
 6878TIP3    H220576   6.094   2.073   4.177
 6879TIP3   OH220577   6.836   2.237   3.845
 6879TIP3    H120578   6.908   2.220   3.910
 6879TIP3    H220579   6.889   2.272   3.771
 6880TIP3   OH220580   5.776   2.349   4.327
 6880TIP3    H120581   5.859   2.330   4.376
 6880TIP3    H220582   5.790   2.292   4.248
 6881TIP3   OH220583   6.219   2.546   4.119
 6881TIP3    H120584   6.312   2.520   4.133
 6881TIP3    H220585   6.179   2.461   4.088
 6882TIP3   OH220586   7.477   2.510   4.393
 6882TIP3    H120587   7.395   2.560   4.373
 6882TIP3    H220588   7.495   2.540   4.484
 6883TIP3   OH220589   6.140   2.129   4.656
 6883TIP3    H120590   6.080   2.168   4.589
 6883TIP3    H220591   6.088   2.147   4.737
 6884TIP3   OH220592   6.489   2.981   3.664
 6884TIP3    H120593   6.443   2.960   3.582
 6884TIP3    H220594   6.446   3.065   3.689
 6885TIP3   OH220595   6.247   2.904   4.453
 6885TIP3    H120596   6.183   2.969   4.492
 6885TIP3    H220597   6.287   2.957   4.381
 6886TIP3   OH220598   7.049   2.238   4.015
 6886TIP3    H120599   7.041   2.191   4.098
 6886TIP3    H220600   7.103   2.315   4.040
 6887TIP3   OH220601   6.009   2.245   4.441
 6887TIP3    H120602   6.072   2.317   4.465
 6887TIP3    H220603   6.059   2.204   4.366
 6888TIP3   OH220604   6.073   3.097   4.549
 6888TIP3    H120605   6.048   3.183   4.510
 6888TIP3    H220606   5.994   3.082   4.605
 6889TIP3   OH220607   5.471   2.788   3.785
 6889TIP3    H120608   5.428   2.817   3.702
 6889TIP3    H220609   5.501   2.873   3.823
 6890TIP3   OH220610   6.909   3.304   4.026
 6890TIP3    H120611   6.820   3.295   4.065
 6890TIP3    H220612   6.900   3.389   3.980
 6891TIP3   OH220613   7.198   2.203   4.388
 6891TIP3    H120614   7.112   2.235   4.357
 6891TIP3    H220615   7.259   2.237   4.318
 6892TIP3   OH220616   6.498   1.851   4.370
 6892TIP3    H120617   6.481   1.756   4.383
 6892TIP3    H220618   6.421   1.890   4.416
 6893TIP3   OH220619   6.614   3.351   3.701
 6893TIP3    H120620   6.662   3.268   3.679
 6893TIP3    H220621   6.675   3.416   3.660
 6894TIP3   OH220622   6.754   3.136   3.604
 6894TIP3    H120623   6.713   3.058   3.565
 6894TIP3    H220624   6.789   3.099   3.689
 6895TIP3   OH220625   7.135   3.218   4.369
 6895TIP3    H120626   7.124   3.140   4.310
 6895TIP3    H220627   7.118   3.292   4.307
 6896TIP3   OH220628   6.425   2.610   3.624
 6896TIP3    H120629   6.346   2.663   3.604
 6896TIP3    H220630   6.472   2.609   3.539
 6897TIP3   OH220631   6.385   2.394   3.343
 6897TIP3    H120632   6.451   2.446   3.391
 6897TIP3    H220633   6.444   2.331   3.296
 6898TIP3   OH220634   7.330   2.854   4.213
 6898TIP3    H120635   7.247   2.906   4.218
 6898TIP3    H220636   7.359   2.878   4.122
 6899TIP3   OH220637   6.773   2.692   3.598
 6899TIP3    H120638   6.719   2.717   3.676
 6899TIP3    H220639   6.857   2.668   3.642
 6900TIP3   OH220640   7.008   2.734   4.508
 6900TIP3    H120641   7.006   2.817   4.559
 6900TIP3    H220642   6.922   2.738   4.463
 6901TIP3   OH220643   6.006   2.692   4.014
 6901TIP3    H120644   5.964   2.635   3.946
 6901TIP3    H220645   6.083   2.639   4.042
 6902TIP3   OH220646   6.136   3.102   4.164
 6902TIP3    H120647   6.114   3.060   4.079
 6902TIP3    H220648   6.226   3.068   4.181
 6903TIP3   OH220649   6.146   2.661   4.368
 6903TIP3    H120650   6.177   2.643   4.277
 6903TIP3    H220651   6.187   2.749   4.388
 6904TIP3   OH220652   6.668   3.300   4.145
 6904TIP3    H120653   6.654   3.380   4.198
 6904TIP3    H220654   6.652   3.227   4.209
 6905TIP3   OH220655   6.279   3.220   4.692
 6905TIP3    H120656   6.219   3.282   4.738
 6905TIP3    H220657   6.214   3.166   4.642
 6906TIP3   OH220658   6.615   2.551   3.423
 6906TIP3    H120659   6.673   2.611   3.475
 6906TIP3    H220660   6.642   2.575   3.331
 6907TIP3   OH220661   6.033   2.776   4.791
 6907TIP3    H120662   6.038   2.863   4.837
 6907TIP3    H220663   5.938   2.757   4.802
 6908TIP3   OH220664   6.356   3.232   3.699
 6908TIP3    H120665   6.433   3.287   3.719
 6908TIP3    H220666   6.294   3.295   3.660
 6909TIP3   OH220667   6.074   3.388   4.779
 6909TIP3    H120668   6.039   3.388   4.688
 6909TIP3    H220669   5.995   3.366   4.833
 6910TIP3   OH220670   7.129   1.793   3.470
 6910TIP3    H120671   7.049   1.814   3.521
 6910TIP3    H220672   7.143   1.877   3.422
 6911TIP3   OH220673   5.873   2.533   3.818
 6911TIP3    H120674   5.807   2.580   3.761
 6911TIP3    H220675   5.828   2.449   3.833
 6912TIP3   OH220676   6.927   3.160   3.018
 6912TIP3    H120677   6.936   3.258   3.005
 6912TIP3    H220678   7.021   3.132   3.007
 6913TIP3   OH220679   5.654   2.918   4.726
 6913TIP3    H120680   5.586   2.898   4.658
 6913TIP3    H220681   5.689   2.830   4.749
 6914TIP3   OH220682   5.507   3.111   4.358
 6914TIP3    H120683   5.603   3.108   4.351
 6914TIP3    H220684   5.494   3.191   4.412
 6915TIP3   OH220685   7.371   3.561   4.413
 6915TIP3    H120686   7.370   3.465   4.425
 6915TIP3    H220687   7.288   3.586   4.459
 6916TIP3   OH220688   6.478   3.347   4.549
 6916TIP3    H120689   6.478   3.440   4.581
 6916TIP3    H220690   6.406   3.309   4.603
 6917TIP3   OH220691   6.238   3.478   3.499
 6917TIP3    H120692   6.192   3.459   3.415
 6917TIP3    H220693   6.204   3.566   3.523
 6918TIP3   OH220694   5.676   3.326   3.884
 6918TIP3    H120695   5.725   3.318   3.969
 6918TIP3    H220696   5.613   3.253   3.893
 6919TIP3   OH220697   6.439   3.378   3.141
 6919TIP3    H120698   6.499   3.309   3.105
 6919TIP3    H220699   6.473   3.388   3.232
 6920TIP3   OH220700   6.489   3.425   3.412
 6920TIP3    H120701   6.400   3.436   3.453
 6920TIP3    H220702   6.539   3.385   3.484
 6921TIP3   OH220703   7.262   2.693   4.688
 6921TIP3    H120704   7.182   2.706   4.636
 6921TIP3    H220705   7.278   2.597   4.678
 6922TIP3   OH220706   5.858   3.101   4.716
 6922TIP3    H120707   5.907   3.084   4.799
 6922TIP3    H220708   5.784   3.037   4.723
 6923TIP3   OH220709   6.259   1.924   4.498
 6923TIP3    H120710   6.169   1.894   4.472
 6923TIP3    H220711   6.235   2.008   4.542
 6924TIP3   OH220712   6.791   2.038   4.691
 6924TIP3    H120713   6.859   2.016   4.758
 6924TIP3    H220714   6.707   2.022   4.738
 6925TIP3   OH220715   7.029   2.468   4.609
 6925TIP3    H120716   6.980   2.465   4.695
 6925TIP3    H220717   7.007   2.557   4.576
 6926TIP3   OH220718   6.690   2.599   3.167
 6926TIP3    H120719   6.657   2.573   3.079
 6926TIP3    H220720   6.768   2.651   3.143
 6927TIP3   OH220721   6.402   1.975   3.469
 6927TIP3    H120722   6.370   1.972   3.561
 6927TIP3    H220723   6.365   1.892   3.435
 6928TIP3   OH220724   6.188   2.440   4.518
 6928TIP3    H120725   6.138   2.463   4.598
 6928TIP3    H220726   6.174   2.520   4.463
 6929TIP3   OH220727   6.074   2.325   4.031
 6929TIP3    H120728   5.981   2.301   4.048
 6929TIP3    H220729   6.086   2.285   3.942
 6930TIP3   OH220730   6.564   2.411   3.757
 6930TIP3    H120731   6.510   2.483   3.717
 6930TIP3    H220732   6.618   2.382   3.682
 6931TIP3   OH220733   6.738   2.691   4.845
 6931TIP3    H120734   6.717   2.619   4.907
 6931TIP3    H220735   6.832   2.707   4.866
 6932TIP3   OH220736   6.721   2.441   3.999
 6932TIP3    H120737   6.662   2.473   3.927
 6932TIP3    H220738   6.753   2.359   3.956
 6933TIP3   OH220739   6.008   2.469   4.726
 6933TIP3    H120740   6.032   2.535   4.793
 6933TIP3    H220741   5.998   2.388   4.779
 6934TIP3   OH220742   6.056   1.945   3.435
 6934TIP3    H120743   6.050   1.944   3.533
 6934TIP3    H220744   5.979   2.000   3.413
 6935TIP3   OH220745   5.602   1.990   4.306
 6935TIP3    H120746   5.676   2.024   4.360
 6935TIP3    H220747   5.645   1.961   4.224
 6936TIP3   OH220748   5.577   1.973   3.826
 6936TIP3    H120749   5.623   2.011   3.748
 6936TIP3    H220750   5.516   2.046   3.846
 6937TIP3   OH220751   6.730   2.688   4.422
 6937TIP3    H120752   6.764   2.615   4.364
 6937TIP3    H220753   6.702   2.635   4.500
 6938TIP3   OH220754   6.398   2.147   4.092
 6938TIP3    H120755   6.315   2.147   4.144
 6938TIP3    H220756   6.465   2.151   4.162
 6939TIP3   OH220757   5.834   2.204   4.101
 6939TIP3    H120758   5.740   2.212   4.074
 6939TIP3    H220759   5.856   2.112   4.077
 6940TIP3   OH220760   6.105   2.200   3.788
 6940TIP3    H120761   6.199   2.216   3.767
 6940TIP3    H220762   6.059   2.223   3.705
 6941TIP3   OH220763   6.892   2.224   4.292
 6941TIP3    H120764   6.858   2.237   4.384
 6941TIP3    H220765   6.825   2.163   4.257
 6942TIP3   OH220766   5.945   2.231   3.568
 6942TIP3    H120767   5.871   2.190   3.520
 6942TIP3    H220768   5.996   2.269   3.494
 6943TIP3   OH220769   7.060   3.911   4.510
 6943TIP3    H120770   7.056   3.933   4.415
 6943TIP3    H220771   7.130   3.970   4.541
 6944TIP3   OH220772   6.021   3.022   4.935
 6944TIP3    H120773   6.100   3.053   4.984
 6944TIP3    H220774   5.955   3.022   5.008
 6945TIP3   OH220775   6.483   2.473   4.188
 6945TIP3    H120776   6.558   2.439   4.138
 6945TIP3    H220777   6.496   2.434   4.276
 6946TIP3   OH220778   6.009   1.966   4.066
 6946TIP3    H120779   5.975   1.886   4.111
 6946TIP3    H220780   6.060   1.928   3.993
 6947TIP3   OH220781   6.460   2.370   4.484
 6947TIP3    H120782   6.371   2.409   4.493
 6947TIP3    H220783   6.518   2.433   4.532
 6948TIP3   OH220784   6.198   2.764   3.575
 6948TIP3    H120785   6.125   2.699   3.564
 6948TIP3    H220786   6.179   2.798   3.666
 6949TIP3   OH220787   7.098   3.001   4.205
 6949TIP3    H120788   7.122   3.050   4.124
 6949TIP3    H220789   7.013   2.958   4.180
 6950TIP3   OH220790   6.656   2.077   3.434
 6950TIP3    H120791   6.559   2.061   3.442
 6950TIP3    H220792   6.666   2.171   3.459
 6951TIP3   OH220793   6.598   3.083   4.571
 6951TIP3    H120794   6.617   3.060   4.663
 6951TIP3    H220795   6.557   3.171   4.579
 6952TIP3   OH220796   6.726   2.323   3.538
 6952TIP3    H120797   6.822   2.330   3.556
 6952TIP3    H220798   6.708   2.404   3.487
 6953TIP3   OH220799   5.889   2.785   4.252
 6953TIP3    H120800   5.926   2.756   4.166
 6953TIP3    H220801   5.928   2.721   4.314
 6954TIP3   OH220802   6.341   2.913   3.394
 6954TIP3    H120803   6.294   3.000   3.399
 6954TIP3    H220804   6.287   2.859   3.456
 6955TIP3   OH220805   5.770   2.705   4.863
 6955TIP3    H120806   5.789   2.693   4.958
 6955TIP3    H220807   5.699   2.640   4.849
 6956TIP3   OH220808   6.495   2.819   4.883
 6956TIP3    H120809   6.436   2.761   4.833
 6956TIP3    H220810   6.583   2.786   4.855
 6957TIP3   OH220811   6.758   3.342   4.466
 6957TIP3    H120812   6.661   3.339   4.479
 6957TIP3    H220813   6.785   3.393   4.545
 6958TIP3   OH220814   7.167   2.413   3.377
 6958TIP3    H120815   7.105   2.369   3.314
 6958TIP3    H220816   7.165   2.502   3.336
 6959TIP3   OH220817   7.386   3.271   4.457
 6959TIP3    H120818   7.288   3.266   4.449
 6959TIP3    H220819   7.411   3.240   4.367
 6960TIP3   OH220820   6.866   3.232   3.283
 6960TIP3    H120821   6.842   3.162   3.345
 6960TIP3    H220822   6.879   3.184   3.199
 6961TIP3   OH220823   6.863   2.862   4.126
 6961TIP3    H120824   6.769   2.837   4.137
 6961TIP3    H220825   6.897   2.783   4.079
 6962TIP3   OH220826   5.989   3.088   3.873
 6962TIP3    H120827   5.990   3.171   3.821
 6962TIP3    H220828   5.895   3.075   3.886
 6963TIP3   OH220829   5.553   2.394   3.577
 6963TIP3    H120830   5.598   2.478   3.597
 6963TIP3    H220831   5.476   2.399   3.638
 6964TIP3   OH220832   6.130   2.855   3.820
 6964TIP3    H120833   6.095   2.945   3.837
 6964TIP3    H220834   6.094   2.805   3.895
 6965TIP3   OH220835   6.258   3.434   4.345
 6965TIP3    H120836   6.299   3.507   4.294
 6965TIP3    H220837   6.335   3.399   4.393
 6966TIP3   OH220838   5.910   3.327   3.728
 6966TIP3    H120839   5.825   3.337   3.774
 6966TIP3    H220840   5.943   3.420   3.730
 6967TIP3   OH220841   6.648   3.066   4.303
 6967TIP3    H120842   6.639   3.065   4.401
 6967TIP3    H220843   6.729   3.015   4.290
 6968TIP3   OH220844   6.621   2.957   3.185
 6968TIP3    H120845   6.673   2.933   3.265
 6968TIP3    H220846   6.532   2.935   3.216
 6969TIP3   OH220847   6.896   3.602   4.354
 6969TIP3    H120848   6.817   3.546   4.346
 6969TIP3    H220849   6.880   3.667   4.281
 6970TIP3   OH220850   6.962   3.436   3.006
 6970TIP3    H120851   7.000   3.508   2.954
 6970TIP3    H220852   6.881   3.481   3.039
 6971TIP3   OH220853   5.982   2.210   4.873
 6971TIP3    H120854   5.886   2.217   4.889
 6971TIP3    H220855   6.010   2.152   4.946
 6972TIP3   OH220856   6.781   2.893   3.403
 6972TIP3    H120857   6.771   2.828   3.475
 6972TIP3    H220858   6.878   2.891   3.391
 6973TIP3   OH220859   5.698   3.296   4.504
 6973TIP3    H120860   5.750   3.220   4.536
 6973TIP3    H220861   5.725   3.365   4.566
 6974TIP3   OH220862   5.989   2.941   3.184
 6974TIP3    H120863   6.003   2.849   3.156
 6974TIP3    H220864   5.970   2.929   3.280
 6975TIP3   OH220865   5.935   2.945   3.457
 6975TIP3    H120866   6.005   2.920   3.519
 6975TIP3    H220867   5.938   3.044   3.463
 6976TIP3   OH220868   5.670   2.640   3.661
 6976TIP3    H120869   5.604   2.685   3.718
 6976TIP3    H220870   5.684   2.710   3.593
 6977TIP3   OH220871   6.817   2.275   4.551
 6977TIP3    H120872   6.896   2.316   4.591
 6977TIP3    H220873   6.804   2.196   4.607
 6978TIP3   OH220874   6.698   2.028   3.717
 6978TIP3    H120875   6.684   2.052   3.623
 6978TIP3    H220876   6.735   2.111   3.753
 6979TIP3   OH220877   6.199   3.143   3.406
 6979TIP3    H120878   6.113   3.170   3.443
 6979TIP3    H220879   6.215   3.216   3.344
 6980TIP3   OH220880   6.389   2.206   3.819
 6980TIP3    H120881   6.453   2.278   3.802
 6980TIP3    H220882   6.393   2.199   3.917
 6981TIP3   OH220883   6.657   2.527   4.628
 6981TIP3    H120884   6.675   2.582   4.707
 6981TIP3    H220885   6.713   2.449   4.644
 6982TIP3   OH220886   6.532   1.936   3.923
 6982TIP3    H120887   6.526   2.013   3.983
 6982TIP3    H220888   6.592   1.972   3.854
 6983TIP3   OH220889   5.942   3.218   3.473
 6983TIP3    H120890   5.911   3.287   3.410
 6983TIP3    H220891   5.925   3.262   3.559
 6984TIP3   OH220892   6.043   1.932   3.712
 6984TIP3    H120893   6.042   2.023   3.748
 6984TIP3    H220894   6.139   1.913   3.721
 6985TIP3   OH220895   7.297   2.427   4.610
 6985TIP3    H120896   7.199   2.424   4.614
 6985TIP3    H220897   7.312   2.390   4.522
 6986TIP3   OH220898   6.948   2.621   3.996
 6986TIP3    H120899   6.873   2.561   4.009
 6986TIP3    H220900   7.021   2.575   4.043
 6987TIP3   OH220901   5.659   2.850   3.467
 6987TIP3    H120902   5.720   2.925   3.477
 6987TIP3    H220903   5.708   2.799   3.399
 6988TIP3   OH220904   5.605   2.125   3.600
 6988TIP3    H120905   5.606   2.223   3.595
 6988TIP3    H220906   5.519   2.105   3.561
 6989TIP3   OH220907   6.916   3.575   3.947
 6989TIP3    H120908   6.873   3.623   3.872
 6989TIP3    H220909   7.010   3.594   3.926
 6990TIP3   OH220910   5.994   1.845   4.474
 6990TIP3    H120911   5.962   1.812   4.387
 6990TIP3    H220912   5.982   1.767   4.532
 6991TIP3   OH220913   5.532   3.058   3.855
 6991TIP3    H120914   5.460   3.093   3.909
 6991TIP3    H220915   5.511   3.100   3.769
 6992TIP3   OH220916   5.686   3.602   4.927
 6992TIP3    H120917   5.773   3.600   4.972
 6992TIP3    H220918   5.664   3.507   4.924
 6993TIP3   OH220919   6.172   3.572   4.969
 6993TIP3    H120920   6.266   3.549   4.976
 6993TIP3    H220921   6.145   3.513   4.896
 6994TIP3   OH220922   6.152   3.145   3.098
 6994TIP3    H120923   6.095   3.074   3.136
 6994TIP3    H220924   6.227   3.093   3.066
 6995TIP3   OH220925   6.810   3.475   4.703
 6995TIP3    H120926   6.799   3.405   4.772
 6995TIP3    H220927   6.887   3.525   4.736
 6996TIP3   OH220928   6.588   3.186   3.009
 6996TIP3    H120929   6.635   3.125   3.067
 6996TIP3    H220930   6.644   3.187   2.929
 6997TIP3   OH220931   5.819   3.010   5.126
 6997TIP3    H120932   5.834   2.914   5.132
 6997TIP3    H220933   5.731   3.013   5.082
 6998TIP3   OH220934   5.795   2.663   3.317
 6998TIP3    H120935   5.850   2.631   3.391
 6998TIP3    H220936   5.863   2.668   3.246
 6999TIP3   OH220937   6.427   3.095   4.899
 6999TIP3    H120938   6.384   3.111   4.813
 6999TIP3    H220939   6.457   3.002   4.892
 7000TIP3   OH220940   6.303   2.860   3.125
 7000TIP3    H120941   6.307   2.873   3.222
 7000TIP3    H220942   6.302   2.762   3.120
 7001TIP3   OH220943   6.919   3.101   4.505
 7001TIP3    H120944   6.993   3.147   4.461
 7001TIP3    H220945   6.847   3.166   4.492
 7002TIP3   OH220946   5.938   2.743   5.107
 7002TIP3    H120947   6.013   2.685   5.090
 7002TIP3    H220948   5.962   2.778   5.196
 7003TIP3   OH220949   6.005   2.565   3.542
 7003TIP3    H120950   5.977   2.524   3.626
 7003TIP3    H220951   6.040   2.489   3.492
 7004TIP3   OH220952   6.273   2.629   4.770
 7004TIP3    H120953   6.195   2.688   4.771
 7004TIP3    H220954   6.322   2.663   4.692
 7005TIP3   OH220955   6.103   2.356   3.383
 7005TIP3    H120956   6.077   2.362   3.288
 7005TIP3    H220957   6.200   2.362   3.376
 7006TIP3   OH220958   6.790   3.032   4.905
 7006TIP3    H120959   6.870   3.010   4.857
 7006TIP3    H220960   6.788   2.964   4.974
 7007TIP3   OH220961   6.928   2.690   3.043
 7007TIP3    H120962   6.905   2.645   2.959
 7007TIP3    H220963   6.895   2.780   3.021
 7008TIP3   OH220964   6.396   2.417   4.895
 7008TIP3    H120965   6.395   2.337   4.839
 7008TIP3    H220966   6.352   2.484   4.838
 7009TIP3   OH220967   6.399   2.200   4.702
 7009TIP3    H120968   6.426   2.246   4.620
 7009TIP3    H220969   6.305   2.181   4.684
 7010TIP3   OH220970   6.428   2.739   4.575
 7010TIP3    H120971   6.510   2.750   4.526
 7010TIP3    H220972   6.370   2.806   4.532
 7011TIP3   OH220973   7.008   2.706   4.957
 7011TIP3    H120974   7.060   2.625   4.970
 7011TIP3    H220975   7.076   2.767   4.924
 7012TIP3   OH220976   7.050   2.959   4.694
 7012TIP3    H120977   6.992   3.012   4.634
 7012TIP3    H220978   7.137   2.980   4.653
 7013TIP3   OH220979   6.274   2.531   5.125
 7013TIP3    H120980   6.204   2.464   5.140
 7013TIP3    H220981   6.308   2.505   5.037
 7014TIP3   OH220982   6.530   1.966   4.769
 7014TIP3    H120983   6.483   2.050   4.747
 7014TIP3    H220984   6.458   1.901   4.757
 7015TIP3   OH220985   6.658   2.473   4.986
 7015TIP3    H120986   6.648   2.462   5.082
 7015TIP3    H220987   6.567   2.448   4.957
 7016TIP3   OH220988   6.895   2.418   4.840
 7016TIP3    H120989   6.821   2.424   4.904
 7016TIP3    H220990   6.970   2.391   4.897
 7017TIP3   OH220991   7.121   2.360   4.991
 7017TIP3    H120992   7.136   2.265   5.012
 7017TIP3    H220993   7.121   2.402   5.079
 7018TIP3   OH220994   6.113   2.312   5.177
 7018TIP3    H120995   6.120   2.221   5.143
 7018TIP3    H220996   6.148   2.301   5.267
 7019TIP3   OH220997   6.627   1.975   5.025
 7019TIP3    H120998   6.694   1.905   5.018
 7019TIP3    H220999   6.585   1.971   4.937
 7020TIP3   OH221000   6.691   2.192   5.186
 7020TIP3    H121001   6.667   2.122   5.122
 7020TIP3    H221002   6.614   2.253   5.181
 7021TIP3   OH221003   5.910   3.418   3.284
 7021TIP3    H121004   6.006   3.418   3.267
 7021TIP3    H221005   5.880   3.470   3.207
 7022TIP3   OH221006   5.391   2.803   3.503
 7022TIP3    H121007   5.486   2.826   3.490
 7022TIP3    H221008   5.387   2.714   3.462
 7023TIP3   OH221009   5.306   3.415   3.914
 7023TIP3    H121010   5.239   3.353   3.879
 7023TIP3    H221011   5.350   3.358   3.982
 7024TIP3   OH221012   5.443   3.268   4.101
 7024TIP3    H121013   5.430   3.194   4.163
 7024TIP3    H221014   5.493   3.329   4.158
 7025TIP3   OH221015   7.167   3.669   3.902
 7025TIP3    H121016   7.198   3.703   3.988
 7025TIP3    H221017   7.229   3.710   3.840
 7026TIP3   OH221018   7.198   3.688   4.185
 7026TIP3    H121019   7.154   3.601   4.178
 7026TIP3    H221020   7.275   3.663   4.239
 7027TIP3   OH221021   7.244   3.364   4.757
 7027TIP3    H121022   7.171   3.372   4.821
 7027TIP3    H221023   7.285   3.453   4.761
 7028TIP3   OH221024   7.060   2.877   3.378
 7028TIP3    H121025   7.129   2.941   3.349
 7028TIP3    H221026   7.104   2.839   3.457
 7029TIP3   OH221027   7.188   2.745   3.581
 7029TIP3    H121028   7.122   2.703   3.641
 7029TIP3    H221029   7.253   2.783   3.644
 7030TIP3   OH221030   7.242   3.136   4.014
 7030TIP3    H121031   7.294   3.071   3.963
 7030TIP3    H221032   7.235   3.211   3.951
 7031TIP3   OH221033   7.075   3.437   4.209
 7031TIP3    H121034   7.002   3.479   4.259
 7031TIP3    H221035   7.026   3.390   4.139
 7032TIP3   OH221036   7.127   2.652   3.228
 7032TIP3    H121037   7.056   2.655   3.160
 7032TIP3    H221038   7.099   2.728   3.284
 7033TIP3   OH221039   6.999   2.325   3.182
 7033TIP3    H121040   6.955   2.365   3.107
 7033TIP3    H221041   6.972   2.231   3.173
 7034TIP3   OH221042   7.003   2.601   3.729
 7034TIP3    H121043   7.012   2.505   3.723
 7034TIP3    H221044   6.990   2.615   3.825
 7035TIP3   OH221045   5.630   2.671   4.475
 7035TIP3    H121046   5.628   2.645   4.380
 7035TIP3    H221047   5.727   2.674   4.491
 7036TIP3   OH221048   7.293   3.026   4.584
 7036TIP3    H121049   7.365   2.960   4.576
 7036TIP3    H221050   7.319   3.095   4.521
 7037TIP3   OH221051   7.478   2.832   4.604
 7037TIP3    H121052   7.404   2.781   4.643
 7037TIP3    H221053   7.552   2.768   4.618
 7038TIP3   OH221054   6.941   2.060   3.169
 7038TIP3    H121055   7.018   2.030   3.223
 7038TIP3    H221056   6.870   2.000   3.195
 7039TIP3   OH221057   6.999   2.316   3.624
 7039TIP3    H121058   7.038   2.227   3.639
 7039TIP3    H221059   7.058   2.349   3.554
 7040TIP3   OH221060   7.160   2.494   4.118
 7040TIP3    H121061   7.247   2.518   4.077
 7040TIP3    H221062   7.175   2.529   4.208
 7041TIP3   OH221063   7.229   2.635   4.351
 7041TIP3    H121064   7.150   2.670   4.398
 7041TIP3    H221065   7.262   2.715   4.305
 7042TIP3   OH221066   5.846   2.360   5.146
 7042TIP3    H121067   5.944   2.355   5.150
 7042TIP3    H221068   5.822   2.276   5.190
 7043TIP3   OH221069   7.677   2.223   4.907
 7043TIP3    H121070   7.739   2.159   4.865
 7043TIP3    H221071   7.654   2.280   4.831
 7044TIP3   OH221072   7.108   2.067   3.660
 7044TIP3    H121073   7.158   2.052   3.743
 7044TIP3    H221074   7.048   1.989   3.661
 7045TIP3   OH221075   5.808   2.053   4.479
 7045TIP3    H121076   5.871   1.979   4.489
 7045TIP3    H221077   5.869   2.128   4.474
 7046TIP3   OH221078   5.613   2.326   4.554
 7046TIP3    H121079   5.661   2.323   4.469
 7046TIP3    H221080   5.636   2.414   4.586
 7047TIP3   OH221081   7.553   2.369   4.713
 7047TIP3    H121082   7.465   2.406   4.731
 7047TIP3    H221083   7.529   2.296   4.654
 7048TIP3   OH221084   7.189   2.004   3.291
 7048TIP3    H121085   7.231   1.930   3.242
 7048TIP3    H221086   7.258   2.073   3.288
 7049TIP3   OH221087   5.594   1.828   4.052
 7049TIP3    H121088   5.501   1.828   4.080
 7049TIP3    H221089   5.592   1.889   3.975
 7050TIP3   OH221090   6.754   3.533   3.560
 7050TIP3    H121091   6.802   3.519   3.476
 7050TIP3    H221092   6.809   3.601   3.602
 7051TIP3   OH221093   5.814   1.907   4.867
 7051TIP3    H121094   5.765   1.906   4.951
 7051TIP3    H221095   5.749   1.949   4.807
 7052TIP3   OH221096   5.854   3.338   4.947
 7052TIP3    H121097   5.763   3.309   4.928
 7052TIP3    H221098   5.862   3.318   5.041
 7053TIP3   OH221099   6.031   3.368   4.493
 7053TIP3    H121100   5.982   3.443   4.454
 7053TIP3    H221101   6.117   3.383   4.449
 7054TIP3   OH221102   6.479   3.614   4.632
 7054TIP3    H121103   6.520   3.617   4.720
 7054TIP3    H221104   6.544   3.665   4.579
 7055TIP3   OH221105   6.657   3.765   4.489
 7055TIP3    H121106   6.728   3.715   4.447
 7055TIP3    H221107   6.709   3.822   4.550
 7056TIP3   OH221108   7.449   2.129   4.592
 7056TIP3    H121109   7.360   2.124   4.553
 7056TIP3    H221110   7.481   2.037   4.580
 7057TIP3   OH221111   5.709   3.626   4.517
 7057TIP3    H121112   5.621   3.663   4.491
 7057TIP3    H221113   5.714   3.659   4.607
 7058TIP3   OH221114   5.946   3.605   4.374
 7058TIP3    H121115   5.859   3.619   4.418
 7058TIP3    H221116   5.927   3.639   4.284
 7059TIP3   OH221117   6.373   3.636   4.171
 7059TIP3    H121118   6.301   3.654   4.106
 7059TIP3    H221119   6.382   3.724   4.213
 7060TIP3   OH221120   6.639   3.575   4.223
 7060TIP3    H121121   6.545   3.591   4.203
 7060TIP3    H221122   6.682   3.651   4.181
 7061TIP3   OH221123   6.850   3.768   4.140
 7061TIP3    H121124   6.835   3.851   4.091
 7061TIP3    H221125   6.874   3.706   4.067
 7062TIP3   OH221126   5.620   3.420   4.262
 7062TIP3    H121127   5.647   3.396   4.353
 7062TIP3    H221128   5.692   3.376   4.211
 7063TIP3   OH221129   5.813   3.291   4.117
 7063TIP3    H121130   5.830   3.208   4.167
 7063TIP3    H221131   5.903   3.330   4.111
 7064TIP3   OH221132   6.078   3.387   4.119
 7064TIP3    H121133   6.112   3.296   4.108
 7064TIP3    H221134   6.120   3.410   4.204
 7065TIP3   OH221135   6.656   2.045   4.207
 7065TIP3    H121136   6.612   1.975   4.259
 7065TIP3    H221137   6.729   1.996   4.164
 7066TIP3   OH221138   7.180   1.921   4.114
 7066TIP3    H121139   7.218   1.974   4.041
 7066TIP3    H221140   7.085   1.942   4.107
 7067TIP3   OH221141   7.274   2.024   3.878
 7067TIP3    H121142   7.348   1.974   3.838
 7067TIP3    H221143   7.307   2.116   3.863
 7068TIP3   OH221144   5.905   1.753   4.225
 7068TIP3    H121145   5.812   1.721   4.227
 7068TIP3    H221146   5.953   1.667   4.221
 7069TIP3   OH221147   5.688   1.621   3.871
 7069TIP3    H121148   5.720   1.680   3.800
 7069TIP3    H221149   5.661   1.686   3.939
 7070TIP3   OH221150   6.349   1.782   4.106
 7070TIP3    H121151   6.404   1.834   4.045
 7070TIP3    H221152   6.365   1.827   4.190
 7071TIP3   OH221153   6.894   1.931   4.089
 7071TIP3    H121154   6.894   1.896   4.000
 7071TIP3    H221155   6.880   1.849   4.143
 7072TIP3   OH221156   6.924   1.853   3.651
 7072TIP3    H121157   6.837   1.895   3.661
 7072TIP3    H221158   6.910   1.768   3.698
 7073TIP3   OH221159   5.409   3.191   3.654
 7073TIP3    H121160   5.324   3.159   3.620
 7073TIP3    H221161   5.397   3.286   3.640
 7074TIP3   OH221162   5.807   1.781   3.637
 7074TIP3    H121163   5.857   1.720   3.579
 7074TIP3    H221164   5.879   1.836   3.673
 7075TIP3   OH221165   6.321   1.956   3.736
 7075TIP3    H121166   6.382   1.909   3.795
 7075TIP3    H221167   6.343   2.048   3.760
 7076TIP3   OH221168   6.180   3.383   3.235
 7076TIP3    H121169   6.269   3.405   3.199
 7076TIP3    H221170   6.158   3.309   3.175
 7077TIP3   OH221171   6.897   3.499   3.327
 7077TIP3    H121172   6.889   3.401   3.315
 7077TIP3    H221173   6.853   3.531   3.246
 7078TIP3   OH221174   6.113   2.032   5.113
 7078TIP3    H121175   6.076   1.964   5.172
 7078TIP3    H221176   6.207   2.032   5.143
 7079TIP3   OH221177   6.361   2.029   5.235
 7079TIP3    H121178   6.447   2.006   5.199
 7079TIP3    H221179   6.348   1.960   5.303
 7080TIP3   OH221180   5.483   3.218   3.292
 7080TIP3    H121181   5.482   3.248   3.384
 7080TIP3    H221182   5.573   3.179   3.283
 7081TIP3   OH221183   7.186   2.089   5.023
 7081TIP3    H121184   7.206   2.059   5.114
 7081TIP3    H221185   7.275   2.088   4.981
 7082TIP3   OH221186   7.126   3.644   4.517
 7082TIP3    H121187   7.048   3.610   4.467
 7082TIP3    H221188   7.104   3.739   4.517
 7083TIP3   OH221189   8.391   3.027   3.631
 7083TIP3    H121190   8.419   2.951   3.685
 7083TIP3    H221191   8.332   2.982   3.570
 7084TIP3   OH221192   7.690   2.912   4.028
 7084TIP3    H121193   7.721   2.844   4.091
 7084TIP3    H221194   7.768   2.969   4.022
 7085TIP3   OH221195   7.659   3.320   3.755
 7085TIP3    H121196   7.653   3.223   3.758
 7085TIP3    H221197   7.756   3.331   3.746
 7086TIP3   OH221198   7.368   2.524   3.538
 7086TIP3    H121199   7.320   2.608   3.553
 7086TIP3    H221200   7.296   2.470   3.502
 7087TIP3   OH221201   7.428   2.811   3.708
 7087TIP3    H121202   7.476   2.734   3.745
 7087TIP3    H221203   7.487   2.839   3.637
 7088TIP3   OH221204   8.291   3.728   3.337
 7088TIP3    H121205   8.382   3.697   3.346
 7088TIP3    H221206   8.270   3.755   3.427
 7089TIP3   OH221207   8.182   3.238   3.712
 7089TIP3    H121208   8.225   3.167   3.663
 7089TIP3    H221209   8.253   3.304   3.715
 7090TIP3   OH221210   7.930   2.403   3.711
 7090TIP3    H121211   7.918   2.474   3.644
 7090TIP3    H221212   7.886   2.329   3.665
 7091TIP3   OH221213   7.573   2.605   3.813
 7091TIP3    H121214   7.655   2.585   3.862
 7091TIP3    H221215   7.587   2.549   3.734
 7092TIP3   OH221216   7.996   2.811   3.598
 7092TIP3    H121217   8.088   2.797   3.629
 7092TIP3    H221218   7.970   2.720   3.569
 7093TIP3   OH221219   7.937   2.392   4.146
 7093TIP3    H121220   7.873   2.423   4.079
 7093TIP3    H221221   7.885   2.406   4.228
 7094TIP3   OH221222   8.299   3.262   3.172
 7094TIP3    H121223   8.267   3.210   3.099
 7094TIP3    H221224   8.241   3.342   3.168
 7095TIP3   OH221225   8.043   3.160   3.946
 7095TIP3    H121226   7.979   3.226   3.982
 7095TIP3    H221227   8.083   3.209   3.871
 7096TIP3   OH221228   7.803   2.501   3.929
 7096TIP3    H121229   7.869   2.571   3.954
 7096TIP3    H221230   7.851   2.459   3.854
 7097TIP3   OH221231   7.869   3.354   4.037
 7097TIP3    H121232   7.844   3.439   3.995
 7097TIP3    H221233   7.789   3.340   4.093
 7098TIP3   OH221234   7.266   3.044   3.272
 7098TIP3    H121235   7.224   3.073   3.189
 7098TIP3    H221236   7.297   3.129   3.310
 7099TIP3   OH221237   8.215   2.838   3.092
 7099TIP3    H121238   8.145   2.906   3.088
 7099TIP3    H221239   8.277   2.870   3.025
 7100TIP3   OH221240   7.792   2.954   3.497
 7100TIP3    H121241   7.753   2.894   3.429
 7100TIP3    H221242   7.868   2.901   3.528
 7101TIP3   OH221243   7.927   3.357   3.651
 7101TIP3    H121244   7.908   3.315   3.566
 7101TIP3    H221245   8.017   3.325   3.670
 7102TIP3   OH221246   7.941   2.919   3.857
 7102TIP3    H121247   7.969   2.900   3.765
 7102TIP3    H221248   7.980   3.007   3.873
 7103TIP3   OH221249   8.352   3.522   3.674
 7103TIP3    H121250   8.364   3.619   3.674
 7103TIP3    H221251   8.444   3.494   3.660
 7104TIP3   OH221252   8.075   3.474   4.183
 7104TIP3    H121253   8.014   3.538   4.226
 7104TIP3    H221254   8.011   3.422   4.130
 7105TIP3   OH221255   7.830   3.035   4.278
 7105TIP3    H121256   7.833   3.121   4.325
 7105TIP3    H221257   7.735   3.013   4.288
 7106TIP3   OH221258   8.169   3.516   3.177
 7106TIP3    H121259   8.192   3.584   3.243
 7106TIP3    H221260   8.091   3.554   3.135
 7107TIP3   OH221261   7.870   3.645   4.265
 7107TIP3    H121262   7.836   3.646   4.174
 7107TIP3    H221263   7.790   3.624   4.317
 7108TIP3   OH221264   7.669   2.790   3.302
 7108TIP3    H121265   7.601   2.834   3.246
 7108TIP3    H221266   7.625   2.706   3.321
 7109TIP3   OH221267   7.450   3.175   4.213
 7109TIP3    H121268   7.385   3.152   4.143
 7109TIP3    H221269   7.486   3.087   4.238
 7110TIP3   OH221270   7.303   3.367   3.847
 7110TIP3    H121271   7.399   3.361   3.835
 7110TIP3    H221272   7.295   3.448   3.900
 7111TIP3   OH221273   8.272   3.601   4.040
 7111TIP3    H121274   8.268   3.694   4.073
 7111TIP3    H221275   8.200   3.560   4.092
 7112TIP3   OH221276   8.033   3.733   2.988
 7112TIP3    H121277   7.986   3.720   2.903
 7112TIP3    H221278   8.004   3.823   3.013
 7113TIP3   OH221279   7.472   3.583   3.371
 7113TIP3    H121280   7.521   3.575   3.455
 7113TIP3    H221281   7.411   3.508   3.379
 7114TIP3   OH221282   8.223   3.669   2.675
 7114TIP3    H121283   8.261   3.586   2.640
 7114TIP3    H221284   8.265   3.674   2.764
 7115TIP3   OH221285   8.298   3.695   2.941
 7115TIP3    H121286   8.207   3.709   2.976
 7115TIP3    H221287   8.328   3.624   3.000
 7116TIP3   OH221288   7.653   3.359   4.205
 7116TIP3    H121289   7.705   3.339   4.285
 7116TIP3    H221290   7.580   3.294   4.210
 7117TIP3   OH221291   8.040   2.187   3.991
 7117TIP3    H121292   7.952   2.156   3.964
 7117TIP3    H221293   8.018   2.267   4.040
 7118TIP3   OH221294   7.978   2.698   4.009
 7118TIP3    H121295   7.924   2.719   4.088
 7118TIP3    H221296   7.964   2.777   3.953
 7119TIP3   OH221297   7.868   2.579   3.514
 7119TIP3    H121298   7.776   2.553   3.532
 7119TIP3    H221299   7.884   2.535   3.428
 7120TIP3   OH221300   7.803   2.727   4.216
 7120TIP3    H121301   7.829   2.786   4.287
 7120TIP3    H221302   7.795   2.641   4.263
 7121TIP3   OH221303   7.844   2.200   2.919
 7121TIP3    H121304   7.845   2.202   3.017
 7121TIP3    H221305   7.767   2.257   2.900
 7122TIP3   OH221306   7.398   2.248   3.792
 7122TIP3    H121307   7.472   2.281   3.847
 7122TIP3    H221308   7.442   2.215   3.713
 7123TIP3   OH221309   7.372   2.229   3.312
 7123TIP3    H121310   7.420   2.267   3.235
 7123TIP3    H221311   7.312   2.303   3.333
 7124TIP3   OH221312   8.193   2.411   3.598
 7124TIP3    H121313   8.108   2.401   3.644
 7124TIP3    H221314   8.255   2.418   3.672
 7125TIP3   OH221315   7.630   2.459   3.587
 7125TIP3    H121316   7.536   2.465   3.560
 7125TIP3    H221317   7.654   2.367   3.565
 7126TIP3   OH221318   7.909   2.456   3.269
 7126TIP3    H121319   7.996   2.483   3.236
 7126TIP3    H221320   7.850   2.476   3.193
 7127TIP3   OH221321   7.741   2.487   3.058
 7127TIP3    H121322   7.665   2.448   3.011
 7127TIP3    H221323   7.791   2.525   2.983
 7128TIP3   OH221324   7.816   3.280   4.422
 7128TIP3    H121325   7.896   3.309   4.470
 7128TIP3    H221326   7.752   3.277   4.496
 7129TIP3   OH221327   0.141   4.284   5.270
 7129TIP3    H121328   0.159   4.221   5.199
 7129TIP3    H221329   0.135   4.223   5.346
 7130TIP3   OH221330   7.802   2.221   3.549
 7130TIP3    H121331   7.769   2.144   3.600
 7130TIP3    H221332   7.879   2.185   3.504
 7131TIP3   OH221333   8.244   2.667   3.955
 7131TIP3    H121334   8.153   2.663   3.991
 7131TIP3    H221335   8.301   2.671   4.033
 7132TIP3   OH221336   7.996   3.021   3.067
 7132TIP3    H121337   7.924   2.955   3.056
 7132TIP3    H221338   7.978   3.054   3.158
 7133TIP3   OH221339   8.380   3.334   4.055
 7133TIP3    H121340   8.396   3.314   4.147
 7133TIP3    H221341   8.348   3.426   4.057
 7134TIP3   OH221342   7.686   3.043   3.739
 7134TIP3    H121343   7.720   3.014   3.652
 7134TIP3    H221344   7.723   2.976   3.799
 7135TIP3   OH221345   8.115   3.165   2.867
 7135TIP3    H121346   8.081   3.256   2.884
 7135TIP3    H221347   8.077   3.115   2.941
 7136TIP3   OH221348   7.565   2.964   4.351
 7136TIP3    H121349   7.587   2.950   4.445
 7136TIP3    H221350   7.497   2.896   4.335
 7137TIP3   OH221351   8.291   3.070   4.368
 7137TIP3    H121352   8.225   3.011   4.327
 7137TIP3    H221353   8.373   3.028   4.341
 7138TIP3   OH221354   8.542   3.606   3.969
 7138TIP3    H121355   8.444   3.605   3.963
 7138TIP3    H221356   8.556   3.674   4.035
 7139TIP3   OH221357   7.785   3.347   3.360
 7139TIP3    H121358   7.784   3.430   3.309
 7139TIP3    H221359   7.691   3.331   3.372
 7140TIP3   OH221360   7.348   2.650   3.063
 7140TIP3    H121361   7.394   2.734   3.084
 7140TIP3    H221362   7.272   2.655   3.125
 7141TIP3   OH221363   7.927   3.114   3.309
 7141TIP3    H121364   7.888   3.202   3.326
 7141TIP3    H221365   7.888   3.062   3.382
 7142TIP3   OH221366   8.052   3.692   3.832
 7142TIP3    H121367   8.089   3.765   3.779
 7142TIP3    H221368   8.132   3.654   3.870
 7143TIP3   OH221369   7.708   3.585   3.215
 7143TIP3    H121370   7.622   3.595   3.260
 7143TIP3    H221371   7.741   3.678   3.217
 7144TIP3   OH221372   7.777   2.472   4.359
 7144TIP3    H121373   7.681   2.469   4.375
 7144TIP3    H221374   7.811   2.414   4.430
 7145TIP3   OH221375   7.492   3.553   3.993
 7145TIP3    H121376   7.545   3.477   4.020
 7145TIP3    H221377   7.527   3.622   4.051
 7146TIP3   OH221378   7.786   3.199   2.671
 7146TIP3    H121379   7.798   3.106   2.644
 7146TIP3    H221380   7.768   3.189   2.767
 7147TIP3   OH221381   7.732   3.202   2.942
 7147TIP3    H121382   7.803   3.175   3.002
 7147TIP3    H221383   7.734   3.300   2.951
 7148TIP3   OH221384   7.465   2.897   3.147
 7148TIP3    H121385   7.400   2.941   3.205
 7148TIP3    H221386   7.480   2.967   3.081
 7149TIP3   OH221387   7.993   3.406   2.896
 7149TIP3    H121388   7.905   3.431   2.930
 7149TIP3    H221389   8.011   3.482   2.839
 7150TIP3   OH221390   7.735   3.475   2.960
 7150TIP3    H121391   7.704   3.544   2.897
 7150TIP3    H221392   7.721   3.519   3.046
 7151TIP3   OH221393   7.836   2.192   3.193
 7151TIP3    H121394   7.833   2.279   3.238
 7151TIP3    H221395   7.928   2.167   3.209
 7152TIP3   OH221396   7.456   3.106   2.953
 7152TIP3    H121397   7.517   3.181   2.965
 7152TIP3    H221398   7.505   3.056   2.885
 7153TIP3   OH221399   7.403   2.382   3.085
 7153TIP3    H121400   7.400   2.480   3.082
 7153TIP3    H221401   7.317   2.359   3.048
 7154TIP3   OH221402   7.775   2.104   3.964
 7154TIP3    H121403   7.757   2.065   3.876
 7154TIP3    H221404   7.778   2.024   4.022
 7155TIP3   OH221405   7.329   3.317   3.343
 7155TIP3    H121406   7.254   3.351   3.394
 7155TIP3    H221407   7.310   3.357   3.255
 7156TIP3   OH221408   7.480   3.855   4.420
 7156TIP3    H121409   7.571   3.849   4.456
 7156TIP3    H221410   7.459   3.760   4.409
 7157TIP3   OH221411   7.963   3.826   4.460
 7157TIP3    H121412   8.058   3.809   4.466
 7157TIP3    H221413   7.939   3.771   4.383
 7158TIP3   OH221414   7.956   3.397   2.584
 7158TIP3    H121415   7.890   3.333   2.621
 7158TIP3    H221416   8.036   3.343   2.590
 7159TIP3   OH221417   7.615   3.268   4.613
 7159TIP3    H121418   7.631   3.172   4.620
 7159TIP3    H221419   7.527   3.269   4.568
 7160TIP3   OH221420   7.595   2.919   2.802
 7160TIP3    H121421   7.646   2.887   2.878
 7160TIP3    H221422   7.666   2.925   2.735
 7161TIP3   OH221423   8.229   3.350   4.383
 7161TIP3    H121424   8.181   3.369   4.300
 7161TIP3    H221425   8.249   3.254   4.376
 7162TIP3   OH221426   8.115   3.098   2.604
 7162TIP3    H121427   8.128   3.135   2.694
 7162TIP3    H221428   8.061   3.021   2.625
 7163TIP3   OH221429   7.735   3.000   4.592
 7163TIP3    H121430   7.808   2.940   4.575
 7163TIP3    H221431   7.759   3.034   4.681
 7164TIP3   OH221432   7.798   2.822   3.027
 7164TIP3    H121433   7.773   2.784   3.113
 7164TIP3    H221434   7.836   2.746   2.980
 7165TIP3   OH221435   8.070   2.893   4.260
 7165TIP3    H121436   7.988   2.947   4.265
 7165TIP3    H221437   8.109   2.922   4.175
 7166TIP3   OH221438   7.896   2.611   2.869
 7166TIP3    H121439   7.868   2.609   2.776
 7166TIP3    H221440   7.993   2.610   2.860
 7167TIP3   OH221441   8.177   2.671   4.388
 7167TIP3    H121442   8.184   2.592   4.330
 7167TIP3    H221443   8.139   2.737   4.326
 7168TIP3   OH221444   8.192   2.481   4.183
 7168TIP3    H121445   8.214   2.474   4.089
 7168TIP3    H221446   8.101   2.444   4.183
 7169TIP3   OH221447   8.230   2.996   4.054
 7169TIP3    H121448   8.236   2.945   3.973
 7169TIP3    H221449   8.173   3.071   4.026
 7170TIP3   OH221450   8.062   2.792   4.610
 7170TIP3    H121451   7.998   2.720   4.627
 7170TIP3    H221452   8.101   2.762   4.526
 7171TIP3   OH221453   8.325   2.227   4.216
 7171TIP3    H121454   8.284   2.315   4.223
 7171TIP3    H221455   8.268   2.181   4.281
 7172TIP3   OH221456   8.426   2.754   4.472
 7172TIP3    H121457   8.431   2.732   4.567
 7172TIP3    H221458   8.339   2.715   4.451
 7173TIP3   OH221459   7.910   2.569   4.667
 7173TIP3    H121460   7.916   2.477   4.634
 7173TIP3    H221461   7.946   2.557   4.757
 7174TIP3   OH221462   8.465   2.428   4.707
 7174TIP3    H121463   8.433   2.348   4.662
 7174TIP3    H221464   8.393   2.493   4.692
 7175TIP3   OH221465   7.698   3.675   2.771
 7175TIP3    H121466   7.794   3.670   2.757
 7175TIP3    H221467   7.673   3.728   2.693
 7176TIP3   OH221468   7.187   3.060   2.990
 7176TIP3    H121469   7.282   3.082   2.976
 7176TIP3    H221470   7.183   2.971   2.949
 7177TIP3   OH221471   7.101   3.672   3.402
 7177TIP3    H121472   7.034   3.609   3.366
 7177TIP3    H221473   7.145   3.615   3.469
 7178TIP3   OH221474   7.238   3.525   3.588
 7178TIP3    H121475   7.227   3.450   3.649
 7178TIP3    H221476   7.290   3.586   3.644
 7179TIP3   OH221477   7.425   2.931   3.961
 7179TIP3    H121478   7.424   2.902   3.868
 7179TIP3    H221479   7.522   2.932   3.978
 7180TIP3   OH221480   7.644   2.619   4.636
 7180TIP3    H121481   7.742   2.611   4.636
 7180TIP3    H221482   7.620   2.534   4.677
 7181TIP3   OH221483   7.599   2.314   3.969
 7181TIP3    H121484   7.658   2.235   3.977
 7181TIP3    H221485   7.666   2.385   3.962
 7182TIP3   OH221486   7.406   2.585   4.039
 7182TIP3    H121487   7.457   2.576   3.956
 7182TIP3    H221488   7.438   2.670   4.071
 7183TIP3   OH221489   7.389   2.086   3.539
 7183TIP3    H121490   7.296   2.085   3.566
 7183TIP3    H221491   7.388   2.146   3.461
 7184TIP3   OH221492   7.608   2.178   4.359
 7184TIP3    H121493   7.557   2.167   4.441
 7184TIP3    H221494   7.540   2.207   4.297
 7185TIP3   OH221495   7.648   3.601   4.436
 7185TIP3    H121496   7.560   3.566   4.415
 7185TIP3    H221497   7.661   3.570   4.527
 7186TIP3   OH221498   7.827   3.625   3.980
 7186TIP3    H121499   7.780   3.701   3.939
 7186TIP3    H221500   7.914   3.640   3.937
 7187TIP3   OH221501   8.269   3.862   4.128
 7187TIP3    H121502   8.317   3.871   4.213
 7187TIP3    H221503   8.318   3.925   4.071
 7188TIP3   OH221504   8.409   4.028   3.967
 7188TIP3    H121505   8.463   3.995   3.893
 7188TIP3    H221506   8.477   4.077   4.018
 7189TIP3   OH221507   7.503   3.881   4.003
 7189TIP3    H121508   7.417   3.920   3.976
 7189TIP3    H221509   7.508   3.914   4.094
 7190TIP3   OH221510   7.740   3.858   3.859
 7190TIP3    H121511   7.654   3.875   3.903
 7190TIP3    H221512   7.724   3.894   3.770
 7191TIP3   OH221513   8.157   3.891   3.656
 7191TIP3    H121514   8.087   3.914   3.592
 7191TIP3    H221515   8.174   3.980   3.696
 7192TIP3   OH221516   8.414   3.789   3.665
 7192TIP3    H121517   8.324   3.830   3.663
 7192TIP3    H221518   8.470   3.866   3.684
 7193TIP3   OH221519   7.415   3.676   3.749
 7193TIP3    H121520   7.443   3.653   3.840
 7193TIP3    H221521   7.487   3.633   3.698
 7194TIP3   OH221522   7.608   3.548   3.604
 7194TIP3    H121523   7.626   3.465   3.654
 7194TIP3    H221524   7.698   3.587   3.598
 7195TIP3   OH221525   7.873   3.643   3.607
 7195TIP3    H121526   7.908   3.553   3.596
 7195TIP3    H221527   7.916   3.668   3.691
 7196TIP3   OH221528   7.704   2.008   3.709
 7196TIP3    H121529   7.612   1.975   3.713
 7196TIP3    H221530   7.753   1.924   3.706
 7197TIP3   OH221531   7.483   1.879   3.356
 7197TIP3    H121532   7.515   1.938   3.286
 7197TIP3    H221533   7.459   1.942   3.426
 7198TIP3   OH221534   8.118   2.119   3.530
 7198TIP3    H121535   8.198   2.171   3.546
 7198TIP3    H221536   8.110   2.071   3.614
 7199TIP3   OH221537   7.204   3.448   3.142
 7199TIP3    H121538   7.119   3.416   3.106
 7199TIP3    H221539   7.194   3.543   3.125
 7200TIP3   OH221540   7.601   2.038   3.123
 7200TIP3    H121541   7.650   1.977   3.065
 7200TIP3    H221542   7.674   2.094   3.159
 7201TIP3   OH221543   7.963   3.639   2.726
 7201TIP3    H121544   8.053   3.671   2.704
 7201TIP3    H221545   7.954   3.568   2.658
 7202TIP3   OH221546   7.902   2.302   4.609
 7202TIP3    H121547   7.883   2.221   4.659
 7202TIP3    H221548   7.985   2.273   4.563
 7203TIP3   OH221549   8.186   2.296   4.765
 7203TIP3    H121550   8.189   2.275   4.669
 7203TIP3    H221551   8.135   2.219   4.798
 7204TIP3   OH221552   7.279   3.474   2.779
 7204TIP3    H121553   7.279   3.505   2.870
 7204TIP3    H221554   7.369   3.436   2.769
 7205TIP3   OH221555   0.843   3.802   4.974
 7205TIP3    H121556   0.818   3.895   4.956
 7205TIP3    H221557   0.764   3.756   4.941
 7206TIP3   OH221558   0.844   3.803   5.348
 7206TIP3    H121559   0.872   3.775   5.437
 7206TIP3    H221560   0.799   3.724   5.315
 7207TIP3   OH221561   0.171   3.683   5.685
 7207TIP3    H121562   0.177   3.625   5.763
 7207TIP3    H221563   0.152   3.769   5.727
 7208TIP3   OH221564   1.082   4.106   5.033
 7208TIP3    H121565   1.074   4.037   5.100
 7208TIP3    H221566   1.115   4.181   5.086
 7209TIP3   OH221567   0.124   4.079   5.447
 7209TIP3    H121568   0.114   3.981   5.455
 7209TIP3    H221569   0.221   4.087   5.443
 7210TIP3   OH221570  -0.099   3.586   5.388
 7210TIP3    H121571  -0.079   3.534   5.468
 7210TIP3    H221572  -0.013   3.626   5.373
 7211TIP3   OH221573   0.734   4.569   5.049
 7211TIP3    H121574   0.782   4.499   5.001
 7211TIP3    H221575   0.725   4.531   5.137
 7212TIP3   OH221576   0.648   4.029   5.399
 7212TIP3    H121577   0.687   3.952   5.354
 7212TIP3    H221578   0.732   4.074   5.424
 7213TIP3   OH221579   1.654   3.349   5.397
 7213TIP3    H121580   1.682   3.433   5.438
 7213TIP3    H221581   1.680   3.364   5.304
 7214TIP3   OH221582   1.051   3.530   5.436
 7214TIP3    H121583   1.097   3.446   5.454
 7214TIP3    H221584   1.024   3.517   5.343
 7215TIP3   OH221585   0.392   3.190   5.400
 7215TIP3    H121586   0.372   3.264   5.339
 7215TIP3    H221587   0.343   3.118   5.353
 7216TIP3   OH221588   1.085   3.281   5.021
 7216TIP3    H121589   1.157   3.265   5.086
 7216TIP3    H221590   1.137   3.317   4.947
 7217TIP3   OH221591   0.016   3.377   5.526
 7217TIP3    H121592   0.101   3.372   5.573
 7217TIP3    H221593   0.038   3.331   5.442
 7218TIP3   OH221594   0.471   3.591   5.280
 7218TIP3    H121595   0.561   3.565   5.306
 7218TIP3    H221596   0.429   3.505   5.260
 7219TIP3   OH221597   1.727   3.554   5.572
 7219TIP3    H121598   1.647   3.605   5.544
 7219TIP3    H221599   1.740   3.591   5.660
 7220TIP3   OH221600   0.385   3.167   5.831
 7220TIP3    H121601   0.331   3.217   5.767
 7220TIP3    H221602   0.336   3.186   5.914
 7221TIP3   OH221603   0.735   4.023   4.843
 7221TIP3    H121604   0.693   4.005   4.758
 7221TIP3    H221605   0.695   4.110   4.866
 7222TIP3   OH221606   0.495   3.951   5.632
 7222TIP3    H121607   0.431   4.013   5.673
 7222TIP3    H221608   0.532   4.004   5.560
 7223TIP3   OH221609   1.297   3.281   5.192
 7223TIP3    H121610   1.289   3.237   5.277
 7223TIP3    H221611   1.351   3.359   5.214
 7224TIP3   OH221612   0.260   3.288   5.620
 7224TIP3    H121613   0.317   3.365   5.644
 7224TIP3    H221614   0.310   3.252   5.544
 7225TIP3   OH221615   0.317   4.135   5.738
 7225TIP3    H121616   0.279   4.217   5.699
 7225TIP3    H221617   0.245   4.102   5.794
 7226TIP3   OH221618   1.157   4.348   5.203
 7226TIP3    H121619   1.067   4.340   5.241
 7226TIP3    H221620   1.150   4.433   5.156
 7227TIP3   OH221621   1.447   3.249   5.564
 7227TIP3    H121622   1.360   3.280   5.534
 7227TIP3    H221623   1.507   3.283   5.494
 7228TIP3   OH221624   0.748   2.907   5.535
 7228TIP3    H121625   0.756   2.816   5.565
 7228TIP3    H221626   0.671   2.939   5.587
 7229TIP3   OH221627   0.861   4.396   4.877
 7229TIP3    H121628   0.910   4.313   4.856
 7229TIP3    H221629   0.922   4.461   4.836
 7230TIP3   OH221630   1.001   4.181   4.781
 7230TIP3    H121631   0.967   4.101   4.739
 7230TIP3    H221632   1.037   4.145   4.866
 7231TIP3   OH221633   1.384   4.262   5.546
 7231TIP3    H121634   1.373   4.185   5.486
 7231TIP3    H221635   1.367   4.337   5.485
 7232TIP3   OH221636   0.674   3.653   4.801
 7232TIP3    H121637   0.595   3.708   4.780
 7232TIP3    H221638   0.722   3.654   4.716
 7233TIP3   OH221639   0.633   3.439   4.519
 7233TIP3    H121640   0.699   3.491   4.568
 7233TIP3    H221641   0.693   3.376   4.472
 7234TIP3   OH221642   1.578   3.896   5.388
 7234TIP3    H121643   1.496   3.950   5.393
 7234TIP3    H221644   1.610   3.921   5.299
 7235TIP3   OH221645   1.020   3.736   4.774
 7235TIP3    H121646   0.968   3.761   4.854
 7235TIP3    H221647   1.106   3.713   4.816
 7236TIP3   OH221648   1.257   3.778   5.684
 7236TIP3    H121649   1.254   3.863   5.733
 7236TIP3    H221650   1.170   3.782   5.639
 7237TIP3   OH221651   0.256   3.733   5.189
 7237TIP3    H121652   0.215   3.676   5.121
 7237TIP3    H221653   0.335   3.681   5.214
 7238TIP3   OH221654   0.386   4.115   5.355
 7238TIP3    H121655   0.378   4.089   5.262
 7238TIP3    H221656   0.482   4.104   5.370
 7239TIP3   OH221657   0.432   3.698   5.538
 7239TIP3    H121658   0.442   3.699   5.441
 7239TIP3    H221659   0.443   3.792   5.563
 7240TIP3   OH221660   0.915   4.345   5.321
 7240TIP3    H121661   0.903   4.425   5.375
 7240TIP3    H221662   0.900   4.272   5.385
 7241TIP3   OH221663   0.534   4.260   5.866
 7241TIP3    H121664   0.478   4.328   5.909
 7241TIP3    H221665   0.465   4.204   5.826
 7242TIP3   OH221666   0.863   3.595   4.599
 7242TIP3    H121667   0.921   3.655   4.652
 7242TIP3    H221668   0.890   3.620   4.508
 7243TIP3   OH221669   0.292   3.807   5.972
 7243TIP3    H121670   0.307   3.889   6.024
 7243TIP3    H221671   0.204   3.831   5.935
 7244TIP3   OH221672   0.603   4.277   4.874
 7244TIP3    H121673   0.683   4.329   4.895
 7244TIP3    H221674   0.543   4.343   4.839
 7245TIP3   OH221675   0.345   4.449   5.938
 7245TIP3    H121676   0.297   4.440   5.854
 7245TIP3    H221677   0.275   4.429   6.005
 7246TIP3   OH221678   1.378   2.838   4.646
 7246TIP3    H121679   1.298   2.859   4.698
 7246TIP3    H221680   1.393   2.922   4.599
 7247TIP3   OH221681   0.124   3.574   4.992
 7247TIP3    H121682   0.062   3.622   4.934
 7247TIP3    H221683   0.072   3.496   5.015
 7248TIP3   OH221684   1.178   4.204   4.192
 7248TIP3    H121685   1.188   4.301   4.181
 7248TIP3    H221686   1.271   4.174   4.183
 7249TIP3   OH221687   1.621   4.607   5.591
 7249TIP3    H121688   1.618   4.510   5.601
 7249TIP3    H221689   1.537   4.632   5.636
 7250TIP3   OH221690   0.727   4.393   5.723
 7250TIP3    H121691   0.727   4.485   5.758
 7250TIP3    H221692   0.657   4.352   5.779
 7251TIP3   OH221693   0.486   4.523   4.676
 7251TIP3    H121694   0.438   4.510   4.592
 7251TIP3    H221695   0.455   4.611   4.704
 7252TIP3   OH221696   0.687   4.421   4.317
 7252TIP3    H121697   0.748   4.353   4.283
 7252TIP3    H221698   0.721   4.434   4.409
 7253TIP3   OH221699   0.737   4.470   4.587
 7253TIP3    H121700   0.649   4.481   4.630
 7253TIP3    H221701   0.789   4.431   4.659
 7254TIP3   OH221702   1.509   3.735   5.868
 7254TIP3    H121703   1.430   3.754   5.815
 7254TIP3    H221704   1.522   3.640   5.851
 7255TIP3   OH221705   0.513   2.969   5.673
 7255TIP3    H121706   0.425   2.933   5.651
 7255TIP3    H221707   0.487   3.054   5.712
 7256TIP3   OH221708   1.041   3.082   5.869
 7256TIP3    H121709   1.108   3.057   5.935
 7256TIP3    H221710   0.956   3.066   5.916
 7257TIP3   OH221711   1.282   3.514   5.789
 7257TIP3    H121712   1.229   3.511   5.872
 7257TIP3    H221713   1.257   3.601   5.752
 7258TIP3   OH221714   0.937   3.643   4.344
 7258TIP3    H121715   0.907   3.618   4.254
 7258TIP3    H221716   1.017   3.694   4.322
 7259TIP3   OH221717   0.651   3.019   4.646
 7259TIP3    H121718   0.618   3.016   4.738
 7259TIP3    H221719   0.613   2.936   4.612
 7260TIP3   OH221720   0.432   3.484   5.699
 7260TIP3    H121721   0.379   3.514   5.775
 7260TIP3    H221722   0.426   3.563   5.640
 7261TIP3   OH221723   0.322   3.368   5.209
 7261TIP3    H121724   0.227   3.349   5.223
 7261TIP3    H221725   0.334   3.329   5.119
 7262TIP3   OH221726   0.812   3.454   4.933
 7262TIP3    H121727   0.759   3.527   4.894
 7262TIP3    H221728   0.867   3.428   4.858
 7263TIP3   OH221729   0.986   3.735   6.020
 7263TIP3    H121730   0.965   3.663   6.084
 7263TIP3    H221731   1.080   3.751   6.043
 7264TIP3   OH221732   0.970   3.486   5.176
 7264TIP3    H121733   0.912   3.520   5.105
 7264TIP3    H221734   1.001   3.404   5.132
 7265TIP3   OH221735   0.247   3.508   5.914
 7265TIP3    H121736   0.275   3.583   5.969
 7265TIP3    H221737   0.258   3.432   5.973
 7266TIP3   OH221738   0.306   2.990   4.613
 7266TIP3    H121739   0.297   2.989   4.710
 7266TIP3    H221740   0.228   3.044   4.588
 7267TIP3   OH221741  -0.148   3.044   5.470
 7267TIP3    H121742  -0.076   3.065   5.533
 7267TIP3    H221743  -0.107   2.983   5.408
 7268TIP3   OH221744  -0.178   3.046   5.019
 7268TIP3    H121745  -0.130   3.057   4.934
 7268TIP3    H221746  -0.186   3.138   5.046
 7269TIP3   OH221747   0.980   3.732   5.598
 7269TIP3    H121748   1.012   3.659   5.541
 7269TIP3    H221749   0.949   3.681   5.676
 7270TIP3   OH221750   0.646   3.188   5.269
 7270TIP3    H121751   0.564   3.191   5.322
 7270TIP3    H221752   0.714   3.200   5.338
 7271TIP3   OH221753   0.078   3.249   5.279
 7271TIP3    H121754  -0.016   3.244   5.255
 7271TIP3    H221755   0.110   3.159   5.259
 7272TIP3   OH221756   0.354   3.243   4.965
 7272TIP3    H121757   0.448   3.262   4.945
 7272TIP3    H221758   0.307   3.269   4.882
 7273TIP3   OH221759   1.142   3.268   5.469
 7273TIP3    H121760   1.108   3.281   5.560
 7273TIP3    H221761   1.074   3.208   5.433
 7274TIP3   OH221762   0.194   3.276   4.745
 7274TIP3    H121763   0.120   3.233   4.697
 7274TIP3    H221764   0.244   3.314   4.670
 7275TIP3   OH221765   1.309   4.957   5.689
 7275TIP3    H121766   1.308   4.980   5.594
 7275TIP3    H221767   1.388   5.007   5.719
 7276TIP3   OH221768   0.298   4.070   6.077
 7276TIP3    H121769   0.359   4.101   6.147
 7276TIP3    H221770   0.213   4.080   6.121
 7277TIP3   OH221771   0.731   3.516   5.363
 7277TIP3    H121772   0.809   3.485   5.315
 7277TIP3    H221773   0.745   3.480   5.453
 7278TIP3   OH221774   0.255   3.013   5.241
 7278TIP3    H121775   0.222   2.930   5.279
 7278TIP3    H221776   0.303   2.984   5.162
 7279TIP3   OH221777   0.706   3.414   5.664
 7279TIP3    H121778   0.619   3.456   5.670
 7279TIP3    H221779   0.765   3.478   5.708
 7280TIP3   OH221780   0.447   3.809   4.750
 7280TIP3    H121781   0.374   3.743   4.740
 7280TIP3    H221782   0.430   3.841   4.842
 7281TIP3   OH221783   1.348   4.045   5.382
 7281TIP3    H121784   1.372   4.095   5.300
 7281TIP3    H221785   1.263   4.004   5.356
 7282TIP3   OH221786   0.905   3.122   4.610
 7282TIP3    H121787   0.808   3.107   4.619
 7282TIP3    H221788   0.916   3.216   4.636
 7283TIP3   OH221789   0.849   4.128   5.748
 7283TIP3    H121790   0.863   4.103   5.840
 7283TIP3    H221791   0.806   4.215   5.755
 7284TIP3   OH221792   0.975   3.367   4.714
 7284TIP3    H121793   1.071   3.374   4.733
 7284TIP3    H221794   0.957   3.449   4.664
 7285TIP3   OH221795   0.128   3.807   5.428
 7285TIP3    H121796   0.186   3.779   5.354
 7285TIP3    H221797   0.158   3.753   5.504
 7286TIP3   OH221798   0.589   3.957   4.568
 7286TIP3    H121799   0.542   4.044   4.574
 7286TIP3    H221800   0.536   3.903   4.631
 7287TIP3   OH221801   0.742   3.863   6.062
 7287TIP3    H121802   0.680   3.805   6.014
 7287TIP3    H221803   0.828   3.829   6.029
 7288TIP3   OH221804   1.006   4.386   5.643
 7288TIP3    H121805   0.910   4.384   5.656
 7288TIP3    H221806   1.034   4.438   5.722
 7289TIP3   OH221807   1.413   3.458   4.554
 7289TIP3    H121808   1.351   3.414   4.491
 7289TIP3    H221809   1.412   3.547   4.513
 7290TIP3   OH221810   1.634   4.315   5.634
 7290TIP3    H121811   1.536   4.311   5.625
 7290TIP3    H221812   1.660   4.285   5.544
 7291TIP3   OH221813   1.102   4.278   4.455
 7291TIP3    H121814   1.099   4.210   4.524
 7291TIP3    H221815   1.132   4.228   4.376
 7292TIP3   OH221816   1.112   3.906   5.303
 7292TIP3    H121817   1.018   3.882   5.314
 7292TIP3    H221818   1.146   3.828   5.256
 7293TIP3   OH221819   0.224   4.129   5.042
 7293TIP3    H121820   0.232   4.212   4.990
 7293TIP3    H221821   0.132   4.105   5.025
 7294TIP3   OH221822  -0.191   3.429   4.779
 7294TIP3    H121823  -0.139   3.510   4.766
 7294TIP3    H221824  -0.277   3.469   4.796
 7295TIP3   OH221825   0.381   3.897   4.996
 7295TIP3    H121826   0.344   3.986   5.012
 7295TIP3    H221827   0.347   3.847   5.072
 7296TIP3   OH221828   0.508   4.478   5.530
 7296TIP3    H121829   0.549   4.547   5.474
 7296TIP3    H221830   0.585   4.446   5.579
 7297TIP3   OH221831   0.157   4.371   4.909
 7297TIP3    H121832   0.065   4.402   4.906
 7297TIP3    H221833   0.203   4.459   4.914
 7298TIP3   OH221834   0.898   4.111   5.480
 7298TIP3    H121835   0.889   4.110   5.578
 7298TIP3    H221836   0.979   4.060   5.467
 7299TIP3   OH221837   0.869   4.001   4.362
 7299TIP3    H121838   0.924   3.979   4.441
 7299TIP3    H221839   0.781   3.978   4.396
 7300TIP3   OH221840   1.144   4.647   5.531
 7300TIP3    H121841   1.065   4.591   5.522
 7300TIP3    H221842   1.129   4.712   5.458
 7301TIP3   OH221843   1.209   4.481   4.182
 7301TIP3    H121844   1.253   4.556   4.138
 7301TIP3    H221845   1.128   4.526   4.214
 7302TIP3   OH221846   0.240   3.248   6.057
 7302TIP3    H121847   0.146   3.253   6.083
 7302TIP3    H221848   0.275   3.195   6.130
 7303TIP3   OH221849   1.029   3.937   4.580
 7303TIP3    H121850   1.020   3.872   4.651
 7303TIP3    H221851   1.126   3.935   4.566
 7304TIP3   OH221852   0.237   3.985   4.360
 7304TIP3    H121853   0.254   3.892   4.334
 7304TIP3    H221854   0.220   3.975   4.456
 7305TIP3   OH221855   0.187   3.992   4.632
 7305TIP3    H121856   0.255   3.964   4.695
 7305TIP3    H221857   0.191   4.090   4.639
 7306TIP3   OH221858  -0.074   3.687   4.836
 7306TIP3    H121859  -0.115   3.735   4.909
 7306TIP3    H221860  -0.077   3.753   4.764
 7307TIP3   OH221861   1.068   3.318   5.728
 7307TIP3    H121862   1.145   3.359   5.770
 7307TIP3    H221863   1.053   3.239   5.784
 7308TIP3   OH221864   0.946   3.073   4.893
 7308TIP3    H121865   0.933   3.097   4.800
 7308TIP3    H221866   0.984   3.155   4.930
 7309TIP3   OH221867   0.447   4.188   4.580
 7309TIP3    H121868   0.362   4.215   4.620
 7309TIP3    H221869   0.467   4.265   4.526
 7310TIP3   OH221870   0.636   3.250   4.996
 7310TIP3    H121871   0.700   3.323   4.977
 7310TIP3    H221872   0.642   3.244   5.093
 7311TIP3   OH221873   0.906   3.571   5.804
 7311TIP3    H121874   0.920   3.628   5.882
 7311TIP3    H221875   0.961   3.494   5.824
 7312TIP3   OH221876   0.781   2.979   5.098
 7312TIP3    H121877   0.772   3.055   5.159
 7312TIP3    H221878   0.841   3.018   5.030
 7313TIP3   OH221879   0.192   4.263   4.652
 7313TIP3    H121880   0.158   4.329   4.587
 7313TIP3    H221881   0.171   4.308   4.736
 7314TIP3   OH221882   0.292   2.977   4.892
 7314TIP3    H121883   0.291   3.070   4.922
 7314TIP3    H221884   0.389   2.959   4.898
 7315TIP3   OH221885   1.549   3.468   5.788
 7315TIP3    H121886   1.451   3.466   5.794
 7315TIP3    H221887   1.561   3.439   5.697
 7316TIP3   OH221888   1.197   3.666   5.175
 7316TIP3    H121889   1.122   3.605   5.187
 7316TIP3    H221890   1.270   3.619   5.221
 7317TIP3   OH221891  -0.086   3.900   4.655
 7317TIP3    H121892  -0.021   3.971   4.652
 7317TIP3    H221893  -0.053   3.843   4.583
 7318TIP3   OH221894  -0.121   3.164   4.785
 7318TIP3    H121895  -0.126   3.262   4.787
 7318TIP3    H221896  -0.210   3.144   4.752
 7319TIP3   OH221897   1.165   4.620   5.124
 7319TIP3    H121898   1.122   4.667   5.049
 7319TIP3    H221899   1.259   4.639   5.103
 7320TIP3   OH221900   0.259   2.851   5.655
 7320TIP3    H121901   0.215   2.841   5.569
 7320TIP3    H221902   0.188   2.833   5.717
 7321TIP3   OH221903   0.431   4.621   6.139
 7321TIP3    H121904   0.521   4.590   6.153
 7321TIP3    H221905   0.405   4.568   6.061
 7322TIP3   OH221906   0.399   4.189   4.273
 7322TIP3    H121907   0.341   4.120   4.313
 7322TIP3    H221908   0.476   4.135   4.250
 7323TIP3   OH221909   1.058   4.520   5.879
 7323TIP3    H121910   1.048   4.451   5.949
 7323TIP3    H221911   1.135   4.571   5.911
 7324TIP3   OH221912   0.838   4.229   4.185
 7324TIP3    H121913   0.881   4.171   4.250
 7324TIP3    H221914   0.903   4.232   4.113
 7325TIP3   OH221915   0.044   3.710   4.490
 7325TIP3    H121916   0.094   3.679   4.567
 7325TIP3    H221917   0.115   3.713   4.423
 7326TIP3   OH221918   0.680   4.140   6.074
 7326TIP3    H121919   0.633   4.155   5.990
 7326TIP3    H221920   0.706   4.045   6.068
 7327TIP3   OH221921   0.550   3.906   4.299
 7327TIP3    H121922   0.556   3.918   4.396
 7327TIP3    H221923   0.550   3.808   4.295
 7328TIP3   OH221924   1.168   4.145   5.683
 7328TIP3    H121925   1.242   4.191   5.638
 7328TIP3    H221926   1.096   4.210   5.670
 7329TIP3   OH221927   0.211   3.815   6.283
 7329TIP3    H121928   0.255   3.732   6.259
 7329TIP3    H221929   0.247   3.835   6.371
 7330TIP3   OH221930   0.255   3.610   4.720
 7330TIP3    H121931   0.226   3.568   4.803
 7330TIP3    H221932   0.289   3.533   4.669
 7331TIP3   OH221933   0.528   3.670   5.948
 7331TIP3    H121934   0.446   3.724   5.954
 7331TIP3    H221935   0.571   3.707   5.868
 7332TIP3   OH221936   0.352   3.401   4.560
 7332TIP3    H121937   0.326   3.406   4.465
 7332TIP3    H221938   0.449   3.407   4.553
 7333TIP3   OH221939   1.039   4.077   6.083
 7333TIP3    H121940   1.117   4.054   6.032
 7333TIP3    H221941   1.036   4.008   6.151
 7334TIP3   OH221942   1.173   3.735   4.219
 7334TIP3    H121943   1.151   3.690   4.135
 7334TIP3    H221944   1.143   3.826   4.197
 7335TIP3   OH221945   0.650   3.461   6.071
 7335TIP3    H121946   0.643   3.382   6.015
 7335TIP3    H221947   0.605   3.529   6.015
 7336TIP3   OH221948   0.645   3.243   5.878
 7336TIP3    H121949   0.672   3.292   5.797
 7336TIP3    H221950   0.550   3.225   5.859
 7337TIP3   OH221951   0.680   3.787   5.751
 7337TIP3    H121952   0.759   3.799   5.697
 7337TIP3    H221953   0.617   3.850   5.709
 7338TIP3   OH221954   1.257   3.752   6.135
 7338TIP3    H121955   1.309   3.670   6.142
 7338TIP3    H221956   1.322   3.814   6.099
 7339TIP3   OH221957   1.299   4.003   5.871
 7339TIP3    H121958   1.240   4.056   5.812
 7339TIP3    H221959   1.386   4.026   5.830
 7340TIP3   OH221960   0.533   3.582   6.303
 7340TIP3    H121961   0.467   3.511   6.321
 7340TIP3    H221962   0.561   3.559   6.212
 7341TIP3   OH221963   0.780   3.011   5.945
 7341TIP3    H121964   0.730   3.093   5.923
 7341TIP3    H221965   0.711   2.943   5.934
 7342TIP3   OH221966   0.907   3.517   6.163
 7342TIP3    H121967   0.893   3.506   6.258
 7342TIP3    H221968   0.817   3.493   6.131
 7343TIP3   OH221969   1.144   3.463   6.017
 7343TIP3    H121970   1.068   3.469   6.078
 7343TIP3    H221971   1.216   3.434   6.075
 7344TIP3   OH221972   1.382   3.407   6.169
 7344TIP3    H121973   1.387   3.311   6.188
 7344TIP3    H221974   1.372   3.447   6.258
 7345TIP3   OH221975   0.385   3.358   6.355
 7345TIP3    H121976   0.377   3.266   6.323
 7345TIP3    H221977   0.415   3.343   6.447
 7346TIP3   OH221978   0.875   3.021   6.202
 7346TIP3    H121979   0.942   2.950   6.197
 7346TIP3    H221980   0.835   3.016   6.113
 7347TIP3   OH221981   0.940   3.237   6.363
 7347TIP3    H121982   0.917   3.167   6.298
 7347TIP3    H221983   0.863   3.297   6.357
 7348TIP3   OH221984   0.157   4.469   4.467
 7348TIP3    H121985   0.252   4.467   4.447
 7348TIP3    H221986   0.124   4.516   4.389
 7349TIP3   OH221987   1.414   4.718   5.079
 7349TIP3    H121988   1.448   4.749   5.165
 7349TIP3    H221989   1.479   4.751   5.017
 7350TIP3   OH221990   1.446   4.734   5.362
 7350TIP3    H121991   1.404   4.645   5.355
 7350TIP3    H221992   1.524   4.710   5.414
 7351TIP3   OH221993   1.495   4.407   5.936
 7351TIP3    H121994   1.419   4.417   5.998
 7351TIP3    H221995   1.534   4.496   5.938
 7352TIP3   OH221996   1.302   3.918   4.554
 7352TIP3    H121997   1.361   3.991   4.525
 7352TIP3    H221998   1.352   3.884   4.632
 7353TIP3   OH221999   1.437   3.789   4.756
 7353TIP3    H122000   1.375   3.750   4.820
 7353TIP3    H222001   1.507   3.827   4.813
 7354TIP3   OH222002   1.490   4.178   5.189
 7354TIP3    H122003   1.543   4.115   5.137
 7354TIP3    H222004   1.486   4.255   5.129
 7355TIP3   OH222005   1.323   4.481   5.387
 7355TIP3    H122006   1.251   4.524   5.436
 7355TIP3    H222007   1.275   4.434   5.316
 7356TIP3   OH222008   1.373   3.693   4.407
 7356TIP3    H122009   1.302   3.702   4.339
 7356TIP3    H222010   1.351   3.770   4.463
 7357TIP3   OH222011   1.246   3.368   4.361
 7357TIP3    H122012   1.205   3.412   4.285
 7357TIP3    H222013   1.219   3.275   4.347
 7358TIP3   OH222014   1.249   3.646   4.907
 7358TIP3    H122015   1.262   3.550   4.902
 7358TIP3    H222016   1.237   3.660   5.003
 7359TIP3   OH222017   1.541   4.071   5.761
 7359TIP3    H122018   1.614   4.007   5.752
 7359TIP3    H222019   1.565   4.140   5.697
 7360TIP3   OH222020   1.724   3.877   5.785
 7360TIP3    H122021   1.650   3.826   5.824
 7360TIP3    H222022   1.797   3.812   5.798
 7361TIP3   OH222023   1.191   3.101   4.341
 7361TIP3    H122024   1.267   3.076   4.397
 7361TIP3    H222025   1.119   3.045   4.373
 7362TIP3   OH222026   1.246   3.360   4.801
 7362TIP3    H122027   1.288   3.272   4.814
 7362TIP3    H222028   1.306   3.396   4.733
 7363TIP3   OH222029   1.410   3.537   5.295
 7363TIP3    H122030   1.496   3.562   5.254
 7363TIP3    H222031   1.424   3.574   5.384
 7364TIP3   OH222032   1.479   3.679   5.528
 7364TIP3    H122033   1.400   3.715   5.574
 7364TIP3    H222034   1.511   3.759   5.481
 7365TIP3   OH222035   0.115   3.304   6.327
 7365TIP3    H122036   0.202   3.348   6.320
 7365TIP3    H222037   0.054   3.379   6.334
 7366TIP3   OH222038   1.956   3.284   6.086
 7366TIP3    H122039   2.001   3.210   6.040
 7366TIP3    H222040   1.909   3.326   6.010
 7367TIP3   OH222041   1.357   3.111   4.838
 7367TIP3    H122042   1.407   3.096   4.921
 7367TIP3    H222043   1.297   3.034   4.838
 7368TIP3   OH222044   0.064   3.082   5.650
 7368TIP3    H122045   0.141   3.038   5.689
 7368TIP3    H222046   0.098   3.172   5.642
 7369TIP3   OH222047   1.800   3.406   5.898
 7369TIP3    H122048   1.714   3.451   5.912
 7369TIP3    H222049   1.773   3.341   5.830
 7370TIP3   OH222050   1.437   3.049   4.468
 7370TIP3    H122051   1.482   2.977   4.419
 7370TIP3    H222052   1.505   3.120   4.467
 7371TIP3   OH222053  -0.147   2.872   5.222
 7371TIP3    H122054  -0.234   2.877   5.262
 7371TIP3    H222055  -0.156   2.935   5.146
 7372TIP3   OH222056   1.000   4.579   4.735
 7372TIP3    H122057   1.052   4.564   4.653
 7372TIP3    H222058   1.056   4.643   4.782
 7373TIP3   OH222059   0.048   2.932   6.040
 7373TIP3    H122060   0.009   2.916   6.128
 7373TIP3    H222061   0.022   3.025   6.026
 7374TIP3   OH222062   0.270   4.410   5.666
 7374TIP3    H122063   0.232   4.489   5.623
 7374TIP3    H222064   0.360   4.415   5.628
 7375TIP3   OH222065   0.730   4.656   5.808
 7375TIP3    H122066   0.771   4.660   5.897
 7375TIP3    H222067   0.794   4.709   5.756
 7376TIP3   OH222068   0.906   4.811   5.665
 7376TIP3    H122069   0.976   4.760   5.623
 7376TIP3    H222070   0.958   4.867   5.727
 7377TIP3   OH222071   1.699   3.173   5.768
 7377TIP3    H122072   1.609   3.172   5.730
 7377TIP3    H222073   1.727   3.080   5.755
 7378TIP3   OH222074   0.200   4.666   5.563
 7378TIP3    H122075   0.147   4.701   5.637
 7378TIP3    H222076   0.173   4.724   5.490
 7379TIP3   OH222077   0.622   4.681   5.349
 7379TIP3    H122078   0.554   4.700   5.282
 7379TIP3    H222079   0.633   4.769   5.390
 7380TIP3   OH222080   0.889   4.619   5.401
 7380TIP3    H122081   0.795   4.636   5.380
 7380TIP3    H222082   0.932   4.694   5.358
 7381TIP3   OH222083   1.097   4.812   5.316
 7381TIP3    H122084   1.083   4.896   5.267
 7381TIP3    H222085   1.123   4.751   5.244
 7382TIP3   OH222086   8.235   2.797   3.724
 7382TIP3    H122087   8.237   2.750   3.810
 7382TIP3    H222088   8.298   2.740   3.675
 7383TIP3   OH222089   0.359   4.473   5.290
 7383TIP3    H122090   0.311   4.391   5.268
 7383TIP3    H222091   0.400   4.450   5.375
 7384TIP3   OH222092   0.909   3.092   5.382
 7384TIP3    H122093   0.859   3.023   5.430
 7384TIP3    H222094   0.981   3.042   5.340
 7385TIP3   OH222095   1.429   2.966   5.292
 7385TIP3    H122096   1.466   3.018   5.218
 7385TIP3    H222097   1.334   2.988   5.286
 7386TIP3   OH222098   1.523   3.065   5.055
 7386TIP3    H122099   1.596   3.016   5.013
 7386TIP3    H222100   1.556   3.157   5.041
 7387TIP3   OH222101   0.147   2.786   5.400
 7387TIP3    H122102   0.051   2.771   5.405
 7387TIP3    H222103   0.176   2.696   5.381
 7388TIP3   OH222104  -0.043   2.663   5.060
 7388TIP3    H122105  -0.027   2.716   4.981
 7388TIP3    H222106  -0.085   2.728   5.120
 7389TIP3   OH222107   0.598   2.829   5.287
 7389TIP3    H122108   0.647   2.875   5.218
 7389TIP3    H222109   0.626   2.878   5.366
 7390TIP3   OH222110   1.144   2.974   5.267
 7390TIP3    H122111   1.144   2.941   5.177
 7390TIP3    H222112   1.128   2.892   5.319
 7391TIP3   OH222113   1.173   2.897   4.827
 7391TIP3    H122114   1.087   2.941   4.837
 7391TIP3    H222115   1.157   2.813   4.876
 7392TIP3   OH222116   0.058   2.825   4.816
 7392TIP3    H122117   0.106   2.762   4.758
 7392TIP3    H222118   0.131   2.879   4.851
 7393TIP3   OH222119   0.570   3.000   4.913
 7393TIP3    H122120   0.635   2.957   4.970
 7393TIP3    H222121   0.589   3.094   4.937
 7394TIP3   OH222122   0.426   4.428   4.409
 7394TIP3    H122123   0.516   4.449   4.377
 7394TIP3    H222124   0.406   4.352   4.351
 7395TIP3   OH222125   1.145   4.542   4.503
 7395TIP3    H122126   1.135   4.445   4.491
 7395TIP3    H222127   1.102   4.575   4.421
 7396TIP3   OH222128   0.365   3.078   6.288
 7396TIP3    H122129   0.325   3.009   6.344
 7396TIP3    H222130   0.456   3.077   6.323
 7397TIP3   OH222131   0.611   3.075   6.416
 7397TIP3    H122132   0.695   3.051   6.375
 7397TIP3    H222133   0.597   3.001   6.479
 7398TIP3   OH222134   1.434   3.134   6.200
 7398TIP3    H122135   1.452   3.103   6.292
 7398TIP3    H222136   1.522   3.128   6.159
 7399TIP3   OH222137   1.374   4.689   5.694
 7399TIP3    H122138   1.296   4.657   5.643
 7399TIP3    H222139   1.355   4.785   5.695
 7400TIP3   OH222140   1.941   3.961   5.205
 7400TIP3    H122141   1.974   3.897   5.272
 7400TIP3    H222142   2.015   4.023   5.197
 7401TIP3   OH222143   1.907   4.358   4.939
 7401TIP3    H122144   1.903   4.260   4.935
 7401TIP3    H222145   2.002   4.371   4.921
 7402TIP3   OH222146   1.610   3.561   4.715
 7402TIP3    H122147   1.575   3.651   4.730
 7402TIP3    H222148   1.534   3.518   4.672
 7403TIP3   OH222149   1.676   3.857   4.878
 7403TIP3    H122150   1.730   3.782   4.914
 7403TIP3    H222151   1.739   3.899   4.818
 7404TIP3   OH222152   2.529   4.825   4.534
 7404TIP3    H122153   2.581   4.754   4.490
 7404TIP3    H222154   2.520   4.791   4.624
 7405TIP3   OH222155   3.448   3.606   4.882
 7405TIP3    H122156   3.476   3.688   4.927
 7405TIP3    H222157   3.493   3.614   4.795
 7406TIP3   OH222158   2.917   3.783   4.910
 7406TIP3    H122159   2.917   3.687   4.921
 7406TIP3    H222160   2.865   3.793   4.828
 7407TIP3   OH222161   2.191   3.436   4.896
 7407TIP3    H122162   2.175   3.511   4.833
 7407TIP3    H222163   2.137   3.369   4.850
 7408TIP3   OH222164   2.882   3.526   4.502
 7408TIP3    H122165   2.950   3.513   4.572
 7408TIP3    H222166   2.932   3.579   4.438
 7409TIP3   OH222167   1.819   3.652   4.996
 7409TIP3    H122168   1.905   3.636   5.039
 7409TIP3    H222169   1.829   3.592   4.918
 7410TIP3   OH222170   3.518   3.813   5.054
 7410TIP3    H122171   3.438   3.868   5.040
 7410TIP3    H222172   3.541   3.841   5.144
 7411TIP3   OH222173   2.183   3.431   5.322
 7411TIP3    H122174   2.126   3.467   5.251
 7411TIP3    H222175   2.130   3.456   5.401
 7412TIP3   OH222176   2.565   4.303   4.308
 7412TIP3    H122177   2.498   4.239   4.281
 7412TIP3    H222178   2.507   4.377   4.336
 7413TIP3   OH222179   2.307   4.214   5.139
 7413TIP3    H122180   2.233   4.274   5.161
 7413TIP3    H222181   2.287   4.186   5.048
 7414TIP3   OH222182   3.091   3.518   4.678
 7414TIP3    H122183   3.063   3.489   4.766
 7414TIP3    H222184   3.146   3.595   4.698
 7415TIP3   OH222185   2.049   3.538   5.106
 7415TIP3    H122186   2.108   3.613   5.133
 7415TIP3    H222187   2.099   3.504   5.029
 7416TIP3   OH222188   2.112   4.400   5.216
 7416TIP3    H122189   2.088   4.482   5.169
 7416TIP3    H222190   2.032   4.389   5.271
 7417TIP3   OH222191   1.482   4.107   4.465
 7417TIP3    H122192   1.498   4.106   4.369
 7417TIP3    H222193   1.559   4.157   4.497
 7418TIP3   OH222194   2.959   4.614   4.698
 7418TIP3    H122195   2.869   4.594   4.730
 7418TIP3    H222196   2.944   4.697   4.649
 7419TIP3   OH222197   3.243   3.503   5.053
 7419TIP3    H122198   3.155   3.532   5.026
 7419TIP3    H222199   3.300   3.538   4.981
 7420TIP3   OH222200   2.544   3.152   5.035
 7420TIP3    H122201   2.526   3.057   5.047
 7420TIP3    H222202   2.465   3.190   5.079
 7421TIP3   OH222203   2.667   4.653   4.370
 7421TIP3    H122204   2.710   4.573   4.334
 7421TIP3    H222205   2.722   4.721   4.326
 7422TIP3   OH222206   2.802   4.439   4.256
 7422TIP3    H122207   2.729   4.380   4.230
 7422TIP3    H222208   2.827   4.401   4.341
 7423TIP3   OH222209   3.180   4.517   5.018
 7423TIP3    H122210   3.173   4.450   4.949
 7423TIP3    H222211   3.165   4.600   4.968
 7424TIP3   OH222212   2.472   3.902   4.275
 7424TIP3    H122213   2.392   3.958   4.275
 7424TIP3    H222214   2.507   3.916   4.186
 7425TIP3   OH222215   2.429   3.697   4.001
 7425TIP3    H122216   2.490   3.743   4.062
 7425TIP3    H222217   2.491   3.635   3.957
 7426TIP3   OH222218   2.813   3.999   4.284
 7426TIP3    H122219   2.734   4.026   4.334
 7426TIP3    H222220   2.844   3.925   4.338
 7427TIP3   OH222221   3.053   4.024   5.172
 7427TIP3    H122222   3.049   4.104   5.230
 7427TIP3    H222223   2.980   4.041   5.110
 7428TIP3   OH222224   2.173   4.404   4.826
 7428TIP3    H122225   2.134   4.369   4.743
 7428TIP3    H222226   2.250   4.348   4.836
 7429TIP3   OH222227   2.714   4.594   4.818
 7429TIP3    H122228   2.702   4.686   4.847
 7429TIP3    H222229   2.708   4.547   4.902
 7430TIP3   OH222230   2.325   4.523   5.355
 7430TIP3    H122231   2.262   4.583   5.399
 7430TIP3    H222232   2.264   4.466   5.304
 7431TIP3   OH222233   2.674   3.851   4.083
 7431TIP3    H122234   2.723   3.921   4.131
 7431TIP3    H222235   2.694   3.876   3.989
 7432TIP3   OH222236   2.078   4.078   5.461
 7432TIP3    H122237   2.080   4.167   5.503
 7432TIP3    H222238   1.982   4.060   5.462
 7433TIP3   OH222239   2.405   4.532   4.358
 7433TIP3    H122240   2.471   4.595   4.389
 7433TIP3    H222241   2.335   4.589   4.324
 7434TIP3   OH222242   2.118   4.691   5.442
 7434TIP3    H122243   2.085   4.690   5.350
 7434TIP3    H222244   2.039   4.667   5.494
 7435TIP3   OH222245   3.173   3.094   4.133
 7435TIP3    H122246   3.093   3.115   4.186
 7435TIP3    H222247   3.188   3.179   4.087
 7436TIP3   OH222248   2.972   4.461   3.683
 7436TIP3    H122249   2.981   4.558   3.668
 7436TIP3    H222250   3.065   4.432   3.671
 7437TIP3   OH222251   1.697   4.221   5.389
 7437TIP3    H122252   1.635   4.199   5.317
 7437TIP3    H222253   1.733   4.133   5.414
 7438TIP3   OH222254   1.552   4.408   5.031
 7438TIP3    H122255   1.646   4.399   5.008
 7438TIP3    H222256   1.551   4.492   5.078
 7439TIP3   OH222257   3.404   4.858   5.067
 7439TIP3    H122258   3.410   4.764   5.090
 7439TIP3    H222259   3.327   4.885   5.122
 7440TIP3   OH222260   2.521   4.651   5.210
 7440TIP3    H122261   2.520   4.743   5.245
 7440TIP3    H222262   2.450   4.610   5.264
 7441TIP3   OH222263   2.283   4.782   4.162
 7441TIP3    H122264   2.234   4.761   4.081
 7441TIP3    H222265   2.249   4.870   4.186
 7442TIP3   OH222266   1.722   4.630   4.550
 7442TIP3    H122267   1.773   4.616   4.633
 7442TIP3    H222268   1.673   4.545   4.548
 7443TIP3   OH222269   2.483   4.680   3.804
 7443TIP3    H122270   2.543   4.611   3.769
 7443TIP3    H222271   2.517   4.689   3.896
 7444TIP3   OH222272   2.533   4.727   4.075
 7444TIP3    H122273   2.444   4.738   4.115
 7444TIP3    H222274   2.581   4.682   4.146
 7445TIP3   OH222275   3.313   3.993   5.350
 7445TIP3    H122276   3.223   4.013   5.321
 7445TIP3    H222277   3.317   3.896   5.343
 7446TIP3   OH222278   1.898   4.406   5.385
 7446TIP3    H122279   1.951   4.383   5.464
 7446TIP3    H222280   1.826   4.340   5.388
 7447TIP3   OH222281   2.304   3.223   5.162
 7447TIP3    H122282   2.214   3.195   5.135
 7447TIP3    H222283   2.282   3.310   5.200
 7448TIP3   OH222284   2.836   3.338   5.355
 7448TIP3    H122285   2.903   3.317   5.422
 7448TIP3    H222286   2.751   3.323   5.402
 7449TIP3   OH222287   3.080   3.769   5.276
 7449TIP3    H122288   3.029   3.765   5.360
 7449TIP3    H222289   3.054   3.856   5.240
 7450TIP3   OH222290   2.734   3.901   3.827
 7450TIP3    H122291   2.702   3.874   3.739
 7450TIP3    H222292   2.813   3.953   3.803
 7451TIP3   OH222293   2.448   3.276   4.132
 7451TIP3    H122294   2.417   3.275   4.225
 7451TIP3    H222295   2.408   3.193   4.101
 7452TIP3   OH222296   2.211   3.730   5.201
 7452TIP3    H122297   2.167   3.773   5.277
 7452TIP3    H222298   2.235   3.805   5.145
 7453TIP3   OH222299   2.121   3.584   4.691
 7453TIP3    H122300   2.044   3.640   4.705
 7453TIP3    H222301   2.126   3.576   4.594
 7454TIP3   OH222302   2.610   3.713   4.418
 7454TIP3    H122303   2.552   3.786   4.383
 7454TIP3    H222304   2.655   3.683   4.337
 7455TIP3   OH222305   2.790   4.003   5.519
 7455TIP3    H122306   2.771   3.921   5.570
 7455TIP3    H222307   2.887   4.011   5.532
 7456TIP3   OH222308   2.774   3.724   4.672
 7456TIP3    H122309   2.707   3.777   4.627
 7456TIP3    H222310   2.787   3.650   4.610
 7457TIP3   OH222311   2.034   3.781   5.407
 7457TIP3    H122312   2.085   3.841   5.464
 7457TIP3    H222313   2.040   3.696   5.454
 7458TIP3   OH222314   2.098   3.245   4.099
 7458TIP3    H122315   2.096   3.245   4.197
 7458TIP3    H222316   2.025   3.305   4.079
 7459TIP3   OH222317   1.649   3.286   4.973
 7459TIP3    H122318   1.719   3.329   5.026
 7459TIP3    H222319   1.692   3.277   4.887
 7460TIP3   OH222320   1.620   3.274   4.487
 7460TIP3    H122321   1.670   3.312   4.412
 7460TIP3    H222322   1.562   3.349   4.509
 7461TIP3   OH222323   2.444   3.426   4.751
 7461TIP3    H122324   2.358   3.438   4.797
 7461TIP3    H222325   2.507   3.458   4.818
 7462TIP3   OH222326   1.860   3.486   4.792
 7462TIP3    H122327   1.777   3.505   4.742
 7462TIP3    H222328   1.907   3.421   4.737
 7463TIP3   OH222329   2.157   3.488   4.435
 7463TIP3    H122330   2.247   3.523   4.424
 7463TIP3    H222331   2.107   3.523   4.357
 7464TIP3   OH222332   2.942   3.506   4.954
 7464TIP3    H122333   2.911   3.530   5.044
 7464TIP3    H222334   2.864   3.456   4.922
 7465TIP3   OH222335   1.986   3.529   4.226
 7465TIP3    H122336   1.910   3.494   4.178
 7465TIP3    H222337   2.039   3.566   4.153
 7466TIP3   OH222338   3.105   5.216   5.176
 7466TIP3    H122339   3.105   5.237   5.080
 7466TIP3    H222340   3.185   5.261   5.206
 7467TIP3   OH222341   2.063   4.324   5.600
 7467TIP3    H122342   2.144   4.355   5.645
 7467TIP3    H222343   1.999   4.327   5.673
 7468TIP3   OH222344   2.051   3.267   4.730
 7468TIP3    H122345   2.022   3.184   4.771
 7468TIP3    H222346   2.106   3.240   4.656
 7469TIP3   OH222347   2.244   4.062   4.250
 7469TIP3    H122348   2.171   4.004   4.220
 7469TIP3    H222349   2.211   4.087   4.338
 7470TIP3   OH222350   2.698   3.381   4.086
 7470TIP3    H122351   2.603   3.364   4.104
 7470TIP3    H222352   2.711   3.472   4.121
 7471TIP3   OH222353   2.656   4.389   5.240
 7471TIP3    H122354   2.662   4.359   5.331
 7471TIP3    H222355   2.599   4.468   5.245
 7472TIP3   OH222356   2.770   3.620   4.198
 7472TIP3    H122357   2.866   3.624   4.218
 7472TIP3    H222358   2.754   3.703   4.148
 7473TIP3   OH222359   1.940   4.075   4.909
 7473TIP3    H122360   1.986   4.072   4.824
 7473TIP3    H222361   1.990   4.006   4.954
 7474TIP3   OH222362   2.379   4.209   4.052
 7474TIP3    H122363   2.340   4.299   4.062
 7474TIP3    H222364   2.328   4.159   4.118
 7475TIP3   OH222365   1.809   4.012   5.530
 7475TIP3    H122366   1.831   3.993   5.623
 7475TIP3    H222367   1.745   3.941   5.510
 7476TIP3   OH222368   2.541   4.114   5.553
 7476TIP3    H122369   2.494   4.081   5.474
 7476TIP3    H222370   2.632   4.087   5.529
 7477TIP3   OH222371   2.795   4.653   5.120
 7477TIP3    H122372   2.702   4.640   5.146
 7477TIP3    H222373   2.830   4.694   5.202
 7478TIP3   OH222374   3.210   3.717   4.041
 7478TIP3    H122375   3.148   3.670   3.980
 7478TIP3    H222376   3.208   3.804   3.996
 7479TIP3   OH222377   3.429   4.571   5.122
 7479TIP3    H122378   3.331   4.565   5.113
 7479TIP3    H222379   3.456   4.543   5.032
 7480TIP3   OH222380   2.911   4.534   3.947
 7480TIP3    H122381   2.886   4.464   4.009
 7480TIP3    H222382   2.924   4.486   3.863
 7481TIP3   OH222383   2.012   4.413   4.576
 7481TIP3    H122384   2.014   4.460   4.491
 7481TIP3    H222385   1.982   4.325   4.549
 7482TIP3   OH222386   1.591   3.692   4.236
 7482TIP3    H122387   1.634   3.780   4.250
 7482TIP3    H222388   1.520   3.698   4.303
 7483TIP3   OH222389   2.303   4.735   5.012
 7483TIP3    H122390   2.344   4.805   4.958
 7483TIP3    H222391   2.379   4.699   5.059
 7484TIP3   OH222392   1.948   4.637   4.375
 7484TIP3    H122393   1.870   4.632   4.434
 7484TIP3    H222394   1.976   4.729   4.387
 7485TIP3   OH222395   2.663   4.260   3.848
 7485TIP3    H122396   2.716   4.234   3.927
 7485TIP3    H222397   2.574   4.237   3.879
 7486TIP3   OH222398   2.939   4.904   5.019
 7486TIP3    H122399   2.862   4.844   5.013
 7486TIP3    H222400   2.922   4.967   4.945
 7487TIP3   OH222401   3.006   4.736   3.670
 7487TIP3    H122402   3.045   4.808   3.616
 7487TIP3    H222403   2.926   4.782   3.702
 7488TIP3   OH222404   2.026   3.516   5.544
 7488TIP3    H122405   1.928   3.518   5.545
 7488TIP3    H222406   2.045   3.441   5.602
 7489TIP3   OH222407   2.823   4.187   4.060
 7489TIP3    H122408   2.819   4.133   4.141
 7489TIP3    H222409   2.920   4.195   4.046
 7490TIP3   OH222410   1.738   4.600   5.170
 7490TIP3    H122411   1.792   4.521   5.186
 7490TIP3    H222412   1.779   4.662   5.233
 7491TIP3   OH222413   2.034   4.241   3.846
 7491TIP3    H122414   2.049   4.148   3.823
 7491TIP3    H222415   2.016   4.234   3.942
 7492TIP3   OH222416   1.984   4.244   4.114
 7492TIP3    H122417   2.009   4.208   4.201
 7492TIP3    H222418   1.986   4.341   4.131
 7493TIP3   OH222419   1.689   3.936   4.303
 7493TIP3    H122420   1.689   3.952   4.398
 7493TIP3    H222421   1.769   3.990   4.286
 7494TIP3   OH222422   2.864   3.573   5.210
 7494TIP3    H122423   2.935   3.621   5.255
 7494TIP3    H222424   2.849   3.497   5.269
 7495TIP3   OH222425   2.748   3.324   4.376
 7495TIP3    H122426   2.730   3.357   4.286
 7495TIP3    H222427   2.787   3.404   4.419
 7496TIP3   OH222428   2.248   4.447   4.069
 7496TIP3    H122429   2.159   4.466   4.105
 7496TIP3    H222430   2.258   4.521   4.008
 7497TIP3   OH222431   2.438   3.506   4.481
 7497TIP3    H122432   2.500   3.581   4.468
 7497TIP3    H222433   2.435   3.501   4.579
 7498TIP3   OH222434   2.679   3.820   5.327
 7498TIP3    H122435   2.726   3.889   5.377
 7498TIP3    H222436   2.750   3.760   5.301
 7499TIP3   OH222437   2.578   3.235   4.586
 7499TIP3    H122438   2.557   3.312   4.644
 7499TIP3    H222439   2.638   3.277   4.520
 7500TIP3   OH222440   1.989   4.519   4.133
 7500TIP3    H122441   1.955   4.589   4.073
 7500TIP3    H222442   1.970   4.559   4.220
 7501TIP3   OH222443   2.090   3.230   4.375
 7501TIP3    H122444   2.089   3.323   4.405
 7501TIP3    H222445   2.185   3.212   4.386
 7502TIP3   OH222446   3.344   3.719   5.273
 7502TIP3    H122447   3.246   3.722   5.282
 7502TIP3    H222448   3.352   3.691   5.181
 7503TIP3   OH222449   1.695   4.181   4.101
 7503TIP3    H122450   1.767   4.229   4.143
 7503TIP3    H222451   1.746   4.108   4.060
 7504TIP3   OH222452   1.650   3.425   4.258
 7504TIP3    H122453   1.657   3.522   4.258
 7504TIP3    H222454   1.559   3.412   4.232
 7505TIP3   OH222455   2.959   4.879   4.609
 7505TIP3    H122456   2.918   4.926   4.534
 7505TIP3    H222457   3.054   4.898   4.589
 7506TIP3   OH222458   2.037   3.147   5.139
 7506TIP3    H122459   2.007   3.116   5.050
 7506TIP3    H222460   2.025   3.067   5.194
 7507TIP3   OH222461   1.583   4.392   4.533
 7507TIP3    H122462   1.490   4.398   4.557
 7507TIP3    H222463   1.576   4.398   4.436
 7508TIP3   OH222464   1.731   4.903   5.591
 7508TIP3    H122465   1.818   4.901   5.635
 7508TIP3    H222466   1.710   4.808   5.587
 7509TIP3   OH222467   2.217   4.872   5.633
 7509TIP3    H122468   2.310   4.849   5.639
 7509TIP3    H222469   2.189   4.814   5.559
 7510TIP3   OH222470   2.195   4.447   3.761
 7510TIP3    H122471   2.138   4.376   3.800
 7510TIP3    H222472   2.271   4.393   3.734
 7511TIP3   OH222473   2.854   4.774   5.366
 7511TIP3    H122474   2.843   4.704   5.434
 7511TIP3    H222475   2.932   4.823   5.398
 7512TIP3   OH222476   2.632   4.489   3.673
 7512TIP3    H122477   2.679   4.426   3.731
 7512TIP3    H222478   2.687   4.488   3.592
 7513TIP3   OH222479   1.863   4.310   5.791
 7513TIP3    H122480   1.878   4.213   5.790
 7513TIP3    H222481   1.775   4.315   5.746
 7514TIP3   OH222482   1.840   3.961   3.979
 7514TIP3    H122483   1.890   3.935   4.058
 7514TIP3    H222484   1.913   3.969   3.914
 7515TIP3   OH222485   2.467   4.392   5.563
 7515TIP3    H122486   2.430   4.410   5.474
 7515TIP3    H222487   2.501   4.301   5.554
 7516TIP3   OH222488   2.348   4.160   3.785
 7516TIP3    H122489   2.349   4.174   3.882
 7516TIP3    H222490   2.343   4.062   3.782
 7517TIP3   OH222491   2.966   4.398   5.166
 7517TIP3    H122492   3.031   4.456   5.122
 7517TIP3    H222493   2.883   4.447   5.155
 7518TIP3   OH222494   1.979   4.042   5.775
 7518TIP3    H122495   2.060   4.000   5.742
 7518TIP3    H222496   2.009   4.079   5.861
 7519TIP3   OH222497   2.049   3.872   4.190
 7519TIP3    H122498   2.015   3.857   4.280
 7519TIP3    H222499   2.079   3.783   4.162
 7520TIP3   OH222500   2.298   3.916   5.437
 7520TIP3    H122501   2.231   3.988   5.439
 7520TIP3    H222502   2.365   3.957   5.378
 7521TIP3   OH222503   2.149   3.648   4.044
 7521TIP3    H122504   2.122   3.662   3.951
 7521TIP3    H222505   2.245   3.663   4.038
 7522TIP3   OH222506   2.841   4.334   5.570
 7522TIP3    H122507   2.927   4.339   5.524
 7522TIP3    H222508   2.862   4.268   5.637
 7523TIP3   OH222509   2.972   3.991   3.706
 7523TIP3    H122510   2.951   3.946   3.622
 7523TIP3    H222511   2.940   4.081   3.684
 7524TIP3   OH222512   2.441   3.717   5.563
 7524TIP3    H122513   2.447   3.641   5.503
 7524TIP3    H222514   2.400   3.784   5.503
 7525TIP3   OH222515   2.441   3.506   5.362
 7525TIP3    H122516   2.462   3.564   5.288
 7525TIP3    H222517   2.347   3.485   5.346
 7526TIP3   OH222518   2.468   4.058   5.289
 7526TIP3    H122519   2.534   4.025   5.227
 7526TIP3    H222520   2.416   4.120   5.233
 7527TIP3   OH222521   3.059   3.997   5.582
 7527TIP3    H122522   3.117   3.930   5.621
 7527TIP3    H222523   3.076   4.073   5.640
 7528TIP3   OH222524   3.098   4.244   5.340
 7528TIP3    H122525   3.038   4.302   5.288
 7528TIP3    H222526   3.185   4.273   5.304
 7529TIP3   OH222527   2.317   3.833   5.788
 7529TIP3    H122528   2.250   3.763   5.795
 7529TIP3    H222529   2.353   3.815   5.698
 7530TIP3   OH222530   2.574   3.271   5.433
 7530TIP3    H122531   2.526   3.353   5.407
 7530TIP3    H222532   2.505   3.203   5.419
 7531TIP3   OH222533   2.708   3.775   5.646
 7531TIP3    H122534   2.702   3.762   5.741
 7531TIP3    H222535   2.619   3.751   5.614
 7532TIP3   OH222536   2.940   3.705   5.499
 7532TIP3    H122537   2.864   3.724   5.558
 7532TIP3    H222538   3.014   3.696   5.563
 7533TIP3   OH222539   3.173   3.670   5.669
 7533TIP3    H122540   3.181   3.574   5.685
 7533TIP3    H222541   3.166   3.709   5.758
 7534TIP3   OH222542   2.153   3.612   5.826
 7534TIP3    H122543   2.163   3.538   5.764
 7534TIP3    H222544   2.179   3.569   5.908
 7535TIP3   OH222545   2.670   3.275   5.690
 7535TIP3    H122546   2.737   3.205   5.682
 7535TIP3    H222547   2.630   3.272   5.601
 7536TIP3   OH222548   2.732   3.491   5.850
 7536TIP3    H122549   2.715   3.419   5.785
 7536TIP3    H222550   2.650   3.543   5.844
 7537TIP3   OH222551   1.955   4.727   3.948
 7537TIP3    H122552   2.051   4.719   3.931
 7537TIP3    H222553   1.928   4.773   3.867
 7538TIP3   OH222554   1.435   4.108   4.157
 7538TIP3    H122555   1.529   4.135   4.148
 7538TIP3    H222556   1.440   4.015   4.127
 7539TIP3   OH222557   1.348   4.718   4.577
 7539TIP3    H122558   1.283   4.653   4.543
 7539TIP3    H222559   1.394   4.664   4.646
 7540TIP3   OH222560   1.475   4.581   4.773
 7540TIP3    H122561   1.481   4.494   4.814
 7540TIP3    H222562   1.538   4.632   4.827
 7541TIP3   OH222563   3.210   4.973   4.567
 7541TIP3    H122564   3.241   5.002   4.654
 7541TIP3    H222565   3.277   5.011   4.507
 7542TIP3   OH222566   3.245   4.990   4.847
 7542TIP3    H122567   3.202   4.902   4.845
 7542TIP3    H222568   3.321   4.967   4.904
 7543TIP3   OH222569   3.292   4.664   5.419
 7543TIP3    H122570   3.218   4.666   5.483
 7543TIP3    H222571   3.329   4.754   5.428
 7544TIP3   OH222572   3.096   4.192   4.029
 7544TIP3    H122573   3.161   4.258   3.995
 7544TIP3    H222574   3.151   4.148   4.096
 7545TIP3   OH222575   3.259   4.056   4.194
 7545TIP3    H122576   3.209   4.001   4.254
 7545TIP3    H222577   3.313   4.112   4.253
 7546TIP3   OH222578   3.329   4.438   4.667
 7546TIP3    H122579   3.309   4.366   4.606
 7546TIP3    H222580   3.269   4.507   4.636
 7547TIP3   OH222581   3.121   4.743   4.874
 7547TIP3    H122582   3.050   4.784   4.927
 7547TIP3    H222583   3.070   4.695   4.805
 7548TIP3   OH222584   3.170   3.953   3.892
 7548TIP3    H122585   3.100   3.955   3.823
 7548TIP3    H222586   3.145   4.033   3.942
 7549TIP3   OH222587   3.045   3.625   3.846
 7549TIP3    H122588   3.001   3.668   3.771
 7549TIP3    H222589   3.017   3.532   3.834
 7550TIP3   OH222590   1.676   3.972   5.137
 7550TIP3    H122591   1.674   3.945   5.043
 7550TIP3    H222592   1.773   3.976   5.152
 7551TIP3   OH222593   3.340   4.329   5.245
 7551TIP3    H122594   3.411   4.262   5.238
 7551TIP3    H222595   3.374   4.401   5.189
 7552TIP3   OH222596   3.522   4.133   5.262
 7552TIP3    H122597   3.448   4.082   5.303
 7552TIP3    H222598   3.596   4.070   5.279
 7553TIP3   OH222599   2.988   3.359   3.828
 7553TIP3    H122600   3.064   3.333   3.884
 7553TIP3    H222601   2.916   3.303   3.862
 7554TIP3   OH222602   3.039   3.616   4.276
 7554TIP3    H122603   3.079   3.528   4.298
 7554TIP3    H222604   3.107   3.649   4.215
 7555TIP3   OH222605   3.287   3.961   5.028
 7555TIP3    H122606   3.206   3.959   5.082
 7555TIP3    H222607   3.260   4.023   4.959
 7556TIP3   OH222608   1.885   3.661   5.817
 7556TIP3    H122609   1.982   3.655   5.806
 7556TIP3    H222610   1.865   3.574   5.855
 7557TIP3   OH222611   3.728   3.527   5.572
 7557TIP3    H122612   3.786   3.461   5.527
 7557TIP3    H222613   3.697   3.580   5.496
 7558TIP3   OH222614   3.154   3.369   4.323
 7558TIP3    H122615   3.202   3.355   4.408
 7558TIP3    H222616   3.092   3.293   4.325
 7559TIP3   OH222617   1.849   3.354   5.155
 7559TIP3    H122618   1.914   3.281   5.156
 7559TIP3    H222619   1.909   3.429   5.136
 7560TIP3   OH222620   1.656   3.629   5.219
 7560TIP3    H122621   1.706   3.621   5.135
 7560TIP3    H222622   1.683   3.717   5.246
 7561TIP3   OH222623   3.598   3.667   5.380
 7561TIP3    H122624   3.513   3.710   5.402
 7561TIP3    H222625   3.566   3.599   5.317
 7562TIP3   OH222626   3.234   3.306   3.953
 7562TIP3    H122627   3.280   3.233   3.908
 7562TIP3    H222628   3.302   3.376   3.954
 7563TIP3   OH222629   1.636   3.122   4.709
 7563TIP3    H122630   1.546   3.131   4.743
 7563TIP3    H222631   1.638   3.189   4.637
 7564TIP3   OH222632   2.799   4.835   4.223
 7564TIP3    H122633   2.848   4.821   4.139
 7564TIP3    H222634   2.853   4.902   4.267
 7565TIP3   OH222635   1.860   3.215   5.534
 7565TIP3    H122636   1.805   3.209   5.614
 7565TIP3    H222637   1.796   3.252   5.470
 7566TIP3   OH222638   1.899   4.641   5.612
 7566TIP3    H122639   1.809   4.609   5.590
 7566TIP3    H222640   1.905   4.621   5.706
 7567TIP3   OH222641   2.073   4.674   5.158
 7567TIP3    H122642   2.029   4.750   5.115
 7567TIP3    H222643   2.161   4.684   5.115
 7568TIP3   OH222644   2.524   4.918   5.297
 7568TIP3    H122645   2.567   4.918   5.385
 7568TIP3    H222646   2.590   4.967   5.243
 7569TIP3   OH222647   2.703   5.066   5.151
 7569TIP3    H122648   2.775   5.014   5.113
 7569TIP3    H222649   2.753   5.124   5.213
 7570TIP3   OH222650   3.496   3.431   5.254
 7570TIP3    H122651   3.405   3.432   5.218
 7570TIP3    H222652   3.522   3.337   5.241
 7571TIP3   OH222653   1.754   4.931   5.177
 7571TIP3    H122654   1.665   4.965   5.154
 7571TIP3    H222655   1.759   4.958   5.270
 7572TIP3   OH222656   1.992   4.910   5.038
 7572TIP3    H122657   1.904   4.922   5.081
 7572TIP3    H222658   1.972   4.938   4.946
 7573TIP3   OH222659   2.418   4.938   4.833
 7573TIP3    H122660   2.345   4.955   4.771
 7573TIP3    H222661   2.428   5.025   4.877
 7574TIP3   OH222662   2.685   4.868   4.876
 7574TIP3    H122663   2.590   4.890   4.863
 7574TIP3    H222664   2.728   4.949   4.844
 7575TIP3   OH222665   2.892   5.068   4.803
 7575TIP3    H122666   2.879   5.152   4.755
 7575TIP3    H222667   2.918   5.007   4.731
 7576TIP3   OH222668   1.663   4.722   4.928
 7576TIP3    H122669   1.692   4.697   5.019
 7576TIP3    H222670   1.735   4.679   4.876
 7577TIP3   OH222671   1.857   4.598   4.786
 7577TIP3    H122672   1.874   4.505   4.814
 7577TIP3    H222673   1.948   4.628   4.767
 7578TIP3   OH222674   2.129   4.692   4.777
 7578TIP3    H122675   2.149   4.599   4.758
 7578TIP3    H222676   2.169   4.701   4.865
 7579TIP3   OH222677   2.708   3.346   4.880
 7579TIP3    H122678   2.656   3.277   4.925
 7579TIP3    H222679   2.773   3.296   4.829
 7580TIP3   OH222680   3.227   3.218   4.776
 7580TIP3    H122681   3.263   3.275   4.705
 7580TIP3    H222682   3.132   3.242   4.774
 7581TIP3   OH222683   3.320   3.322   4.539
 7581TIP3    H122684   3.394   3.273   4.499
 7581TIP3    H222685   3.353   3.414   4.527
 7582TIP3   OH222686   1.951   3.051   4.892
 7582TIP3    H122687   1.857   3.022   4.891
 7582TIP3    H222688   1.997   2.965   4.885
 7583TIP3   OH222689   1.733   2.922   4.533
 7583TIP3    H122690   1.765   2.982   4.464
 7583TIP3    H222691   1.705   2.986   4.602
 7584TIP3   OH222692   2.395   3.081   4.770
 7584TIP3    H122693   2.447   3.138   4.710
 7584TIP3    H222694   2.403   3.131   4.853
 7585TIP3   OH222695   2.945   3.230   4.753
 7585TIP3    H122696   2.932   3.201   4.662
 7585TIP3    H222697   2.925   3.148   4.804
 7586TIP3   OH222698   2.968   3.154   4.313
 7586TIP3    H122699   2.884   3.202   4.328
 7586TIP3    H222700   2.951   3.071   4.362
 7587TIP3   OH222701   1.452   4.489   4.312
 7587TIP3    H122702   1.366   4.457   4.280
 7587TIP3    H222703   1.439   4.585   4.309
 7588TIP3   OH222704   1.852   3.082   4.301
 7588TIP3    H122705   1.904   3.024   4.243
 7588TIP3    H222706   1.921   3.140   4.338
 7589TIP3   OH222707   2.369   3.254   4.399
 7589TIP3    H122708   2.432   3.215   4.462
 7589TIP3    H222709   2.381   3.349   4.422
 7590TIP3   OH222710   2.223   4.685   3.896
 7590TIP3    H122711   2.313   4.705   3.862
 7590TIP3    H222712   2.202   4.609   3.837
 7591TIP3   OH222713   2.942   4.801   3.991
 7591TIP3    H122714   2.935   4.703   3.979
 7591TIP3    H222715   2.898   4.832   3.909
 7592TIP3   OH222716   2.153   3.330   5.783
 7592TIP3    H122717   2.124   3.256   5.839
 7592TIP3    H222718   2.248   3.335   5.809
 7593TIP3   OH222719   2.402   3.330   5.893
 7593TIP3    H122720   2.491   3.315   5.857
 7593TIP3    H222721   2.400   3.269   5.969
 7594TIP3   OH222722   1.529   4.524   3.957
 7594TIP3    H122723   1.527   4.539   4.052
 7594TIP3    H222724   1.615   4.479   3.945
 7595TIP3   OH222725   3.230   3.393   5.687
 7595TIP3    H122726   3.251   3.361   5.777
 7595TIP3    H222727   3.318   3.391   5.644
 7596TIP3   OH222728   3.168   4.946   5.182
 7596TIP3    H122729   3.090   4.915   5.132
 7596TIP3    H222730   3.149   5.042   5.184
 7597TIP3   OH222731   3.415   3.810   4.201
 7597TIP3    H122732   3.390   3.903   4.196
 7597TIP3    H222733   3.338   3.767   4.159
 7598TIP3   OH222734   4.323   5.082   4.018
 7598TIP3    H122735   4.376   5.010   3.979
 7598TIP3    H222736   4.315   5.056   4.111
 7599TIP3   OH222737   5.239   3.857   4.371
 7599TIP3    H122738   5.269   3.938   4.418
 7599TIP3    H222739   5.280   3.867   4.283
 7600TIP3   OH222740   4.662   4.056   4.407
 7600TIP3    H122741   4.683   3.963   4.425
 7600TIP3    H222742   4.627   4.051   4.316
 7601TIP3   OH222743   3.975   3.715   4.355
 7601TIP3    H122744   3.922   3.780   4.306
 7601TIP3    H222745   3.934   3.633   4.320
 7602TIP3   OH222746   4.676   3.788   3.992
 7602TIP3    H122747   4.746   3.772   4.060
 7602TIP3    H222748   4.728   3.831   3.923
 7603TIP3   OH222749   3.628   3.869   4.473
 7603TIP3    H122750   3.715   3.865   4.514
 7603TIP3    H222751   3.649   3.850   4.380
 7604TIP3   OH222752   5.318   4.065   4.546
 7604TIP3    H122753   5.238   4.121   4.527
 7604TIP3    H222754   5.334   4.091   4.638
 7605TIP3   OH222755   3.980   3.683   4.810
 7605TIP3    H122756   3.923   3.722   4.741
 7605TIP3    H222757   3.929   3.707   4.890
 7606TIP3   OH222758   4.353   4.558   3.797
 7606TIP3    H122759   4.293   4.508   3.740
 7606TIP3    H222760   4.295   4.631   3.827
 7607TIP3   OH222761   4.105   4.476   4.631
 7607TIP3    H122762   4.021   4.520   4.659
 7607TIP3    H222763   4.124   4.523   4.550
 7608TIP3   OH222764   4.887   3.783   4.163
 7608TIP3    H122765   4.861   3.741   4.246
 7608TIP3    H222766   4.957   3.844   4.191
 7609TIP3   OH222767   3.863   3.795   4.593
 7609TIP3    H122768   3.917   3.874   4.614
 7609TIP3    H222769   3.913   3.760   4.515
 7610TIP3   OH222770   3.886   4.638   4.669
 7610TIP3    H122771   3.888   4.734   4.650
 7610TIP3    H222772   3.831   4.640   4.750
 7611TIP3   OH222773   3.305   4.350   3.935
 7611TIP3    H122774   3.270   4.378   3.849
 7611TIP3    H222775   3.338   4.434   3.973
 7612TIP3   OH222776   5.036   3.764   4.542
 7612TIP3    H122777   4.947   3.789   4.512
 7612TIP3    H222778   5.093   3.795   4.469
 7613TIP3   OH222779   4.339   3.405   4.520
 7613TIP3    H122780   4.326   3.311   4.540
 7613TIP3    H222781   4.262   3.444   4.566
 7614TIP3   OH222782   4.463   4.906   3.857
 7614TIP3    H122783   4.507   4.827   3.821
 7614TIP3    H222784   4.518   4.976   3.815
 7615TIP3   OH222785   4.600   4.689   3.751
 7615TIP3    H122786   4.539   4.633   3.700
 7615TIP3    H222787   4.599   4.642   3.834
 7616TIP3   OH222788   4.983   4.773   4.505
 7616TIP3    H122789   4.962   4.701   4.444
 7616TIP3    H222790   4.952   4.852   4.455
 7617TIP3   OH222791   4.262   4.159   3.764
 7617TIP3    H122792   4.186   4.215   3.740
 7617TIP3    H222793   4.316   4.163   3.683
 7618TIP3   OH222794   4.225   3.952   3.491
 7618TIP3    H122795   4.290   4.002   3.543
 7618TIP3    H222796   4.284   3.889   3.445
 7619TIP3   OH222797   4.607   4.258   3.757
 7619TIP3    H122798   4.550   4.283   3.832
 7619TIP3    H222799   4.687   4.227   3.802
 7620TIP3   OH222800   4.852   4.287   4.659
 7620TIP3    H122801   4.837   4.370   4.707
 7620TIP3    H222802   4.778   4.287   4.596
 7621TIP3   OH222803   3.992   4.683   4.284
 7621TIP3    H122804   3.957   4.595   4.272
 7621TIP3    H222805   4.072   4.665   4.336
 7622TIP3   OH222806   4.460   4.108   3.572
 7622TIP3    H122807   4.514   4.172   3.623
 7622TIP3    H222808   4.485   4.132   3.480
 7623TIP3   OH222809   3.875   4.327   4.951
 7623TIP3    H122810   3.881   4.416   4.991
 7623TIP3    H222811   3.780   4.316   4.941
 7624TIP3   OH222812   4.197   4.788   3.847
 7624TIP3    H122813   4.267   4.849   3.875
 7624TIP3    H222814   4.130   4.846   3.810
 7625TIP3   OH222815   4.970   3.351   3.621
 7625TIP3    H122816   4.889   3.370   3.672
 7625TIP3    H222817   4.983   3.435   3.573
 7626TIP3   OH222818   3.710   4.063   3.919
 7626TIP3    H122819   3.631   4.111   3.888
 7626TIP3    H222820   3.676   4.013   3.994
 7627TIP3   OH222821   4.769   4.719   3.169
 7627TIP3    H122822   4.777   4.815   3.155
 7627TIP3    H222823   4.861   4.689   3.158
 7628TIP3   OH222824   3.495   4.473   4.881
 7628TIP3    H122825   3.433   4.458   4.806
 7628TIP3    H222826   3.520   4.382   4.907
 7629TIP3   OH222827   3.345   4.691   4.492
 7629TIP3    H122828   3.433   4.663   4.519
 7629TIP3    H222829   3.324   4.756   4.560
 7630TIP3   OH222830   5.213   5.117   4.566
 7630TIP3    H122831   5.210   5.022   4.589
 7630TIP3    H222832   5.130   5.148   4.609
 7631TIP3   OH222833   4.305   4.908   4.703
 7631TIP3    H122834   4.314   5.001   4.729
 7631TIP3    H222835   4.243   4.880   4.775
 7632TIP3   OH222836   4.080   5.038   3.649
 7632TIP3    H122837   4.031   5.017   3.567
 7632TIP3    H222838   4.045   5.125   3.674
 7633TIP3   OH222839   3.515   4.886   4.035
 7633TIP3    H122840   3.565   4.881   4.119
 7633TIP3    H222841   3.458   4.808   4.042
 7634TIP3   OH222842   4.280   4.937   3.291
 7634TIP3    H122843   4.340   4.868   3.255
 7634TIP3    H222844   4.313   4.946   3.383
 7635TIP3   OH222845   4.330   4.983   3.561
 7635TIP3    H122846   4.241   4.995   3.601
 7635TIP3    H222847   4.377   4.942   3.635
 7636TIP3   OH222848   5.102   4.250   4.839
 7636TIP3    H122849   5.022   4.265   4.786
 7636TIP3    H222850   5.115   4.154   4.827
 7637TIP3   OH222851   3.693   4.663   4.866
 7637TIP3    H122852   3.752   4.652   4.943
 7637TIP3    H222853   3.626   4.594   4.880
 7638TIP3   OH222854   4.099   3.483   4.645
 7638TIP3    H122855   4.008   3.454   4.622
 7638TIP3    H222856   4.076   3.565   4.693
 7639TIP3   OH222857   4.631   3.598   4.843
 7639TIP3    H122858   4.697   3.568   4.908
 7639TIP3    H222859   4.545   3.578   4.887
 7640TIP3   OH222860   4.878   4.028   4.766
 7640TIP3    H122861   4.824   4.022   4.848
 7640TIP3    H222862   4.845   4.111   4.726
 7641TIP3   OH222863   4.532   4.158   3.318
 7641TIP3    H122864   4.497   4.131   3.231
 7641TIP3    H222865   4.611   4.209   3.291
 7642TIP3   OH222866   4.245   3.533   3.619
 7642TIP3    H122867   4.213   3.530   3.712
 7642TIP3    H222868   4.206   3.449   3.587
 7643TIP3   OH222869   4.022   4.015   4.655
 7643TIP3    H122870   3.972   4.024   4.740
 7643TIP3    H222871   4.003   4.099   4.612
 7644TIP3   OH222872   4.406   3.976   3.908
 7644TIP3    H122873   4.350   4.045   3.866
 7644TIP3    H222874   4.455   3.941   3.832
 7645TIP3   OH222875   4.584   4.249   4.992
 7645TIP3    H122876   4.556   4.177   5.052
 7645TIP3    H222877   4.677   4.260   5.019
 7646TIP3   OH222878   4.567   4.002   4.142
 7646TIP3    H122879   4.499   4.023   4.076
 7646TIP3    H222880   4.596   3.916   4.109
 7647TIP3   OH222881   3.856   4.012   4.873
 7647TIP3    H122882   3.870   4.092   4.926
 7647TIP3    H222883   3.848   3.942   4.940
 7648TIP3   OH222884   3.896   3.502   3.585
 7648TIP3    H122885   3.893   3.503   3.683
 7648TIP3    H222886   3.820   3.560   3.565
 7649TIP3   OH222887   3.443   3.546   4.460
 7649TIP3    H122888   3.511   3.594   4.511
 7649TIP3    H222889   3.488   3.529   4.376
 7650TIP3   OH222890   3.415   3.530   3.975
 7650TIP3    H122891   3.465   3.567   3.899
 7650TIP3    H222892   3.358   3.606   3.996
 7651TIP3   OH222893   4.239   3.707   4.242
 7651TIP3    H122894   4.155   3.708   4.291
 7651TIP3    H222895   4.304   3.716   4.313
 7652TIP3   OH222896   3.687   3.756   4.237
 7652TIP3    H122897   3.591   3.762   4.219
 7652TIP3    H222898   3.710   3.666   4.208
 7653TIP3   OH222899   3.951   3.734   3.929
 7653TIP3    H122900   4.038   3.777   3.925
 7653TIP3    H222901   3.897   3.782   3.863
 7654TIP3   OH222902   4.736   3.776   4.440
 7654TIP3    H122903   4.705   3.794   4.532
 7654TIP3    H222904   4.663   3.721   4.408
 7655TIP3   OH222905   3.779   3.791   3.715
 7655TIP3    H122906   3.708   3.750   3.663
 7655TIP3    H222907   3.835   3.828   3.643
 7656TIP3   OH222908   4.902   5.469   4.663
 7656TIP3    H122909   4.900   5.495   4.569
 7656TIP3    H222910   4.980   5.519   4.695
 7657TIP3   OH222911   3.854   4.578   5.080
 7657TIP3    H122912   3.938   4.617   5.112
 7657TIP3    H222913   3.800   4.583   5.160
 7658TIP3   OH222914   3.850   3.519   4.215
 7658TIP3    H122915   3.819   3.438   4.260
 7658TIP3    H222916   3.902   3.486   4.141
 7659TIP3   OH222917   4.291   3.916   4.649
 7659TIP3    H122918   4.209   3.968   4.644
 7659TIP3    H222919   4.356   3.979   4.686
 7660TIP3   OH222920   4.034   4.324   3.722
 7660TIP3    H122921   3.968   4.253   3.703
 7660TIP3    H222922   4.021   4.336   3.817
 7661TIP3   OH222923   4.495   3.637   3.580
 7661TIP3    H122924   4.399   3.618   3.592
 7661TIP3    H222925   4.505   3.729   3.610
 7662TIP3   OH222926   4.455   4.646   4.733
 7662TIP3    H122927   4.439   4.619   4.824
 7662TIP3    H222928   4.395   4.722   4.725
 7663TIP3   OH222929   4.567   3.880   3.689
 7663TIP3    H122930   4.663   3.887   3.705
 7663TIP3    H222931   4.548   3.961   3.637
 7664TIP3   OH222932   4.183   4.471   3.542
 7664TIP3    H122933   4.139   4.559   3.549
 7664TIP3    H222934   4.126   4.418   3.601
 7665TIP3   OH222935   3.598   4.256   5.017
 7665TIP3    H122936   3.645   4.272   5.101
 7665TIP3    H222937   3.549   4.176   5.043
 7666TIP3   OH222938   4.330   4.356   5.040
 7666TIP3    H122939   4.273   4.308   4.978
 7666TIP3    H222940   4.418   4.336   5.004
 7667TIP3   OH222941   4.606   4.906   4.615
 7667TIP3    H122942   4.510   4.893   4.622
 7667TIP3    H222943   4.624   4.953   4.699
 7668TIP3   OH222944   5.008   3.972   3.527
 7668TIP3    H122945   4.946   3.925   3.465
 7668TIP3    H222946   5.005   4.060   3.484
 7669TIP3   OH222947   5.229   4.823   4.604
 7669TIP3    H122948   5.131   4.824   4.609
 7669TIP3    H222949   5.238   4.786   4.515
 7670TIP3   OH222950   4.709   4.790   3.435
 7670TIP3    H122951   4.682   4.719   3.494
 7670TIP3    H222952   4.720   4.744   3.349
 7671TIP3   OH222953   3.392   3.951   3.726
 7671TIP3    H122954   3.440   4.034   3.747
 7671TIP3    H222955   3.317   3.957   3.789
 7672TIP3   OH222956   4.104   4.990   4.491
 7672TIP3    H122957   4.152   5.063   4.447
 7672TIP3    H222958   4.171   4.958   4.554
 7673TIP3   OH222959   3.741   4.893   3.861
 7673TIP3    H122960   3.664   4.890   3.920
 7673TIP3    H222961   3.775   4.984   3.876
 7674TIP3   OH222962   4.461   4.518   3.335
 7674TIP3    H122963   4.512   4.492   3.414
 7674TIP3    H222964   4.371   4.492   3.362
 7675TIP3   OH222965   4.739   5.158   4.501
 7675TIP3    H122966   4.660   5.100   4.496
 7675TIP3    H222967   4.719   5.223   4.431
 7676TIP3   OH222968   4.803   4.993   3.157
 7676TIP3    H122969   4.840   5.066   3.103
 7676TIP3    H222970   4.723   5.039   3.189
 7677TIP3   OH222971   3.824   3.768   5.029
 7677TIP3    H122972   3.728   3.774   5.042
 7677TIP3    H222973   3.851   3.705   5.098
 7678TIP3   OH222974   4.621   4.451   3.550
 7678TIP3    H122975   4.610   4.389   3.624
 7678TIP3    H222976   4.718   4.449   3.538
 7679TIP3   OH222977   3.543   4.846   4.662
 7679TIP3    H122978   3.601   4.778   4.701
 7679TIP3    H222979   3.574   4.923   4.711
 7680TIP3   OH222980   3.831   4.500   3.335
 7680TIP3    H122981   3.842   4.408   3.303
 7680TIP3    H222982   3.810   4.485   3.429
 7681TIP3   OH222983   3.773   4.504   3.608
 7681TIP3    H122984   3.848   4.479   3.663
 7681TIP3    H222985   3.777   4.602   3.612
 7682TIP3   OH222986   3.501   4.201   3.808
 7682TIP3    H122987   3.437   4.247   3.867
 7682TIP3    H222988   3.516   4.271   3.742
 7683TIP3   OH222989   4.665   3.831   4.699
 7683TIP3    H122990   4.739   3.869   4.748
 7683TIP3    H222991   4.641   3.753   4.754
 7684TIP3   OH222992   4.542   3.582   3.865
 7684TIP3    H122993   4.525   3.610   3.773
 7684TIP3    H222994   4.578   3.664   3.905
 7685TIP3   OH222995   4.041   4.701   3.559
 7685TIP3    H122996   3.954   4.728   3.593
 7685TIP3    H222997   4.055   4.770   3.492
 7686TIP3   OH222998   4.234   3.765   3.971
 7686TIP3    H122999   4.298   3.838   3.958
 7686TIP3    H223000   4.236   3.754   4.069
 7687TIP3   OH223001   4.477   4.073   4.785
 7687TIP3    H123002   4.507   4.139   4.849
 7687TIP3    H223003   4.550   4.009   4.784
 7688TIP3   OH223004   4.373   3.494   4.074
 7688TIP3    H123005   4.367   3.570   4.135
 7688TIP3    H223006   4.432   3.531   4.005
 7689TIP3   OH223007   3.784   4.775   3.621
 7689TIP3    H123008   3.752   4.846   3.561
 7689TIP3    H223009   3.767   4.816   3.709
 7690TIP3   OH223010   3.885   3.483   3.861
 7690TIP3    H123011   3.886   3.576   3.892
 7690TIP3    H223012   3.980   3.464   3.871
 7691TIP3   OH223013   5.142   3.980   4.761
 7691TIP3    H123014   5.044   3.982   4.771
 7691TIP3    H223015   5.148   3.941   4.673
 7692TIP3   OH223016   3.500   4.410   3.616
 7692TIP3    H123017   3.563   4.483   3.625
 7692TIP3    H223018   3.547   4.356   3.549
 7693TIP3   OH223019   3.445   3.681   3.747
 7693TIP3    H123020   3.451   3.779   3.744
 7693TIP3    H223021   3.357   3.666   3.713
 7694TIP3   OH223022   4.761   5.141   4.106
 7694TIP3    H123023   4.714   5.180   4.029
 7694TIP3    H223024   4.854   5.156   4.077
 7695TIP3   OH223025   3.832   3.404   4.625
 7695TIP3    H123026   3.802   3.371   4.538
 7695TIP3    H223027   3.823   3.325   4.682
 7696TIP3   OH223028   3.372   4.618   4.009
 7696TIP3    H123029   3.296   4.654   4.056
 7696TIP3    H223030   3.357   4.657   3.920
 7697TIP3   OH223031   3.526   5.160   5.077
 7697TIP3    H123032   3.615   5.156   5.119
 7697TIP3    H223033   3.510   5.064   5.071
 7698TIP3   OH223034   4.006   5.124   5.109
 7698TIP3    H123035   4.096   5.109   5.140
 7698TIP3    H223036   4.003   5.053   5.041
 7699TIP3   OH223037   3.995   4.703   3.251
 7699TIP3    H123038   3.936   4.632   3.286
 7699TIP3    H223039   4.067   4.650   3.215
 7700TIP3   OH223040   4.651   5.035   4.854
 7700TIP3    H123041   4.639   4.965   4.923
 7700TIP3    H223042   4.728   5.085   4.888
 7701TIP3   OH223043   4.430   4.746   3.160
 7701TIP3    H123044   4.475   4.681   3.217
 7701TIP3    H223045   4.485   4.744   3.079
 7702TIP3   OH223046   3.659   4.571   5.279
 7702TIP3    H123047   3.677   4.476   5.282
 7702TIP3    H223048   3.571   4.573   5.236
 7703TIP3   OH223049   3.635   4.223   3.468
 7703TIP3    H123050   3.689   4.186   3.540
 7703TIP3    H223051   3.703   4.227   3.396
 7704TIP3   OH223052   4.308   4.636   5.048
 7704TIP3    H123053   4.241   4.687   4.999
 7704TIP3    H223054   4.288   4.543   5.032
 7705TIP3   OH223055   4.147   4.419   3.274
 7705TIP3    H123056   4.148   4.431   3.371
 7705TIP3    H223057   4.144   4.321   3.268
 7706TIP3   OH223058   4.764   4.646   4.650
 7706TIP3    H123059   4.821   4.717   4.615
 7706TIP3    H223060   4.677   4.691   4.653
 7707TIP3   OH223061   3.774   4.304   5.253
 7707TIP3    H123062   3.852   4.252   5.229
 7707TIP3    H223063   3.799   4.334   5.343
 7708TIP3   OH223064   3.855   4.123   3.697
 7708TIP3    H123065   3.807   4.088   3.776
 7708TIP3    H223066   3.881   4.040   3.651
 7709TIP3   OH223067   4.110   4.183   4.923
 7709TIP3    H123068   4.032   4.243   4.924
 7709TIP3    H223069   4.161   4.219   4.847
 7710TIP3   OH223070   3.943   3.913   3.532
 7710TIP3    H123071   3.918   3.920   3.438
 7710TIP3    H223072   4.040   3.920   3.526
 7711TIP3   OH223073   4.644   4.595   5.060
 7711TIP3    H123074   4.715   4.561   5.005
 7711TIP3    H223075   4.625   4.520   5.119
 7712TIP3   OH223076   4.770   4.248   3.193
 7712TIP3    H123077   4.748   4.202   3.110
 7712TIP3    H223078   4.736   4.338   3.171
 7713TIP3   OH223079   4.240   3.975   5.046
 7713TIP3    H123080   4.238   3.896   4.989
 7713TIP3    H223081   4.195   4.041   4.989
 7714TIP3   OH223082   4.237   3.756   4.862
 7714TIP3    H123083   4.265   3.804   4.780
 7714TIP3    H223084   4.144   3.736   4.840
 7715TIP3   OH223085   4.268   4.296   4.740
 7715TIP3    H123086   4.340   4.289   4.677
 7715TIP3    H223087   4.210   4.365   4.699
 7716TIP3   OH223088   4.850   4.265   5.109
 7716TIP3    H123089   4.899   4.182   5.115
 7716TIP3    H223090   4.918   4.325   5.074
 7717TIP3   OH223091   4.892   4.518   4.848
 7717TIP3    H123092   4.833   4.567   4.787
 7717TIP3    H223093   4.978   4.536   4.804
 7718TIP3   OH223094   4.119   4.086   5.280
 7718TIP3    H123095   4.047   4.020   5.290
 7718TIP3    H223096   4.149   4.069   5.189
 7719TIP3   OH223097   4.374   3.525   4.920
 7719TIP3    H123098   4.321   3.605   4.899
 7719TIP3    H223099   4.308   3.454   4.908
 7720TIP3   OH223100   4.499   4.032   5.135
 7720TIP3    H123101   4.479   4.021   5.230
 7720TIP3    H223102   4.411   4.008   5.098
 7721TIP3   OH223103   4.738   3.979   4.990
 7721TIP3    H123104   4.659   3.984   5.048
 7721TIP3    H223105   4.807   3.948   5.051
 7722TIP3   OH223106   4.975   3.921   5.141
 7722TIP3    H123107   4.980   3.825   5.161
 7722TIP3    H223108   4.966   3.961   5.231
 7723TIP3   OH223109   3.952   3.870   5.328
 7723TIP3    H123110   3.960   3.780   5.291
 7723TIP3    H223111   3.988   3.856   5.418
 7724TIP3   OH223112   4.467   3.535   5.177
 7724TIP3    H123113   4.532   3.462   5.170
 7724TIP3    H223114   4.426   3.530   5.088
 7725TIP3   OH223115   4.532   3.749   5.337
 7725TIP3    H123116   4.511   3.679   5.271
 7725TIP3    H223117   4.456   3.810   5.328
 7726TIP3   OH223118   3.751   4.981   3.436
 7726TIP3    H123119   3.847   4.976   3.417
 7726TIP3    H223120   3.721   5.027   3.356
 7727TIP3   OH223121   3.233   4.360   3.656
 7727TIP3    H123122   3.327   4.383   3.639
 7727TIP3    H223123   3.227   4.272   3.614
 7728TIP3   OH223124   3.146   4.974   4.066
 7728TIP3    H123125   3.080   4.911   4.030
 7728TIP3    H223126   3.191   4.917   4.133
 7729TIP3   OH223127   3.282   4.828   4.253
 7729TIP3    H123128   3.276   4.753   4.316
 7729TIP3    H223129   3.334   4.889   4.309
 7730TIP3   OH223130   5.013   5.223   4.052
 7730TIP3    H123131   5.036   5.262   4.139
 7730TIP3    H223132   5.069   5.274   3.992
 7731TIP3   OH223133   5.039   5.247   4.333
 7731TIP3    H123134   4.997   5.159   4.329
 7731TIP3    H223135   5.114   5.227   4.392
 7732TIP3   OH223136   5.086   4.921   4.904
 7732TIP3    H123137   5.013   4.929   4.968
 7732TIP3    H223138   5.127   5.010   4.911
 7733TIP3   OH223139   4.899   4.438   3.526
 7733TIP3    H123140   4.967   4.502   3.495
 7733TIP3    H223141   4.943   4.400   3.604
 7734TIP3   OH223142   5.024   4.307   3.730
 7734TIP3    H123143   4.967   4.249   3.785
 7734TIP3    H223144   5.093   4.338   3.790
 7735TIP3   OH223145   4.904   4.994   4.359
 7735TIP3    H123146   4.846   5.045   4.419
 7735TIP3    H223147   4.849   4.989   4.280
 7736TIP3   OH223148   4.967   4.211   3.380
 7736TIP3    H123149   4.898   4.211   3.310
 7736TIP3    H223150   4.937   4.288   3.431
 7737TIP3   OH223151   4.841   3.883   3.333
 7737TIP3    H123152   4.797   3.923   3.257
 7737TIP3    H223153   4.814   3.789   3.324
 7738TIP3   OH223154   4.849   4.158   3.893
 7738TIP3    H123155   4.852   4.064   3.868
 7738TIP3    H223156   4.824   4.153   3.987
 7739TIP3   OH223157   5.134   4.583   4.734
 7739TIP3    H123158   5.206   4.516   4.731
 7739TIP3    H223159   5.167   4.652   4.675
 7740TIP3   OH223160   5.320   4.395   4.776
 7740TIP3    H123161   5.245   4.339   4.802
 7740TIP3    H223162   5.391   4.328   4.771
 7741TIP3   OH223163   4.783   3.618   3.319
 7741TIP3    H123164   4.858   3.587   3.374
 7741TIP3    H223165   4.710   3.559   3.345
 7742TIP3   OH223166   4.844   3.881   3.774
 7742TIP3    H123167   4.878   3.790   3.793
 7742TIP3    H223168   4.903   3.905   3.700
 7743TIP3   OH223169   5.085   4.211   4.511
 7743TIP3    H123170   5.000   4.215   4.559
 7743TIP3    H223171   5.072   4.280   4.445
 7744TIP3   OH223172   3.686   3.917   5.294
 7744TIP3    H123173   3.784   3.912   5.297
 7744TIP3    H223174   3.661   3.835   5.340
 7745TIP3   OH223175   5.524   3.784   5.058
 7745TIP3    H123176   5.582   3.718   5.014
 7745TIP3    H223177   5.493   3.837   4.981
 7746TIP3   OH223178   4.947   3.627   3.811
 7746TIP3    H123179   4.996   3.611   3.894
 7746TIP3    H223180   4.886   3.550   3.810
 7747TIP3   OH223181   3.643   3.612   4.652
 7747TIP3    H123182   3.711   3.541   4.648
 7747TIP3    H223183   3.696   3.688   4.624
 7748TIP3   OH223184   5.394   3.924   4.864
 7748TIP3    H123185   5.307   3.965   4.883
 7748TIP3    H223186   5.365   3.853   4.804
 7749TIP3   OH223187   5.031   3.561   3.442
 7749TIP3    H123188   5.072   3.488   3.392
 7749TIP3    H223189   5.099   3.631   3.438
 7750TIP3   OH223190   3.433   3.379   4.197
 7750TIP3    H123191   3.342   3.386   4.232
 7750TIP3    H223192   3.432   3.445   4.124
 7751TIP3   OH223193   4.595   5.089   3.711
 7751TIP3    H123194   4.645   5.078   3.627
 7751TIP3    H223195   4.646   5.158   3.756
 7752TIP3   OH223196   3.653   3.467   5.020
 7752TIP3    H123197   3.604   3.465   5.103
 7752TIP3    H223198   3.587   3.505   4.959
 7753TIP3   OH223199   3.671   4.918   5.125
 7753TIP3    H123200   3.600   4.865   5.085
 7753TIP3    H223201   3.700   4.864   5.199
 7754TIP3   OH223202   3.861   4.909   4.606
 7754TIP3    H123203   3.827   5.000   4.599
 7754TIP3    H223204   3.956   4.926   4.594
 7755TIP3   OH223205   4.321   5.178   4.780
 7755TIP3    H123206   4.360   5.173   4.869
 7755TIP3    H223207   4.389   5.228   4.731
 7756TIP3   OH223208   4.500   5.326   4.637
 7756TIP3    H123209   4.570   5.272   4.598
 7756TIP3    H223210   4.552   5.382   4.699
 7757TIP3   OH223211   5.292   3.686   4.740
 7757TIP3    H123212   5.200   3.683   4.707
 7757TIP3    H223213   5.320   3.592   4.729
 7758TIP3   OH223214   3.547   5.184   4.661
 7758TIP3    H123215   3.459   5.224   4.644
 7758TIP3    H223216   3.559   5.206   4.754
 7759TIP3   OH223217   3.789   5.174   4.526
 7759TIP3    H123218   3.701   5.181   4.570
 7759TIP3    H223219   3.768   5.200   4.435
 7760TIP3   OH223220   4.218   5.196   4.316
 7760TIP3    H123221   4.142   5.215   4.258
 7760TIP3    H223222   4.228   5.281   4.363
 7761TIP3   OH223223   4.488   5.139   4.366
 7761TIP3    H123224   4.391   5.145   4.351
 7761TIP3    H223225   4.520   5.221   4.328
 7762TIP3   OH223226   4.695   5.331   4.293
 7762TIP3    H123227   4.678   5.413   4.241
 7762TIP3    H223228   4.716   5.266   4.222
 7763TIP3   OH223229   3.459   4.982   4.416
 7763TIP3    H123230   3.487   4.956   4.506
 7763TIP3    H223231   3.532   4.941   4.365
 7764TIP3   OH223232   3.657   4.865   4.267
 7764TIP3    H123233   3.684   4.778   4.299
 7764TIP3    H223234   3.745   4.910   4.262
 7765TIP3   OH223235   3.921   4.950   4.271
 7765TIP3    H123236   3.954   4.859   4.257
 7765TIP3    H223237   3.961   4.968   4.359
 7766TIP3   OH223238   4.498   3.599   4.356
 7766TIP3    H123239   4.452   3.535   4.412
 7766TIP3    H223240   4.569   3.546   4.317
 7767TIP3   OH223241   5.024   3.479   4.264
 7767TIP3    H123242   5.057   3.533   4.189
 7767TIP3    H223243   4.928   3.496   4.259
 7768TIP3   OH223244   5.116   3.582   4.026
 7768TIP3    H123245   5.189   3.530   3.986
 7768TIP3    H223246   5.150   3.673   4.012
 7769TIP3   OH223247   3.747   3.308   4.376
 7769TIP3    H123248   3.654   3.277   4.378
 7769TIP3    H223249   3.795   3.223   4.372
 7770TIP3   OH223250   3.525   3.179   4.019
 7770TIP3    H123251   3.560   3.239   3.950
 7770TIP3    H223252   3.500   3.242   4.089
 7771TIP3   OH223253   4.189   3.342   4.257
 7771TIP3    H123254   4.246   3.395   4.199
 7771TIP3    H223255   4.208   3.380   4.344
 7772TIP3   OH223256   4.745   3.488   4.238
 7772TIP3    H123257   4.729   3.452   4.150
 7772TIP3    H223258   4.727   3.409   4.295
 7773TIP3   OH223259   4.765   3.410   3.801
 7773TIP3    H123260   4.679   3.455   3.814
 7773TIP3    H223261   4.750   3.327   3.849
 7774TIP3   OH223262   3.249   4.749   3.806
 7774TIP3    H123263   3.164   4.716   3.770
 7774TIP3    H223264   3.238   4.844   3.788
 7775TIP3   OH223265   3.648   3.339   3.787
 7775TIP3    H123266   3.700   3.280   3.730
 7775TIP3    H223267   3.718   3.396   3.824
 7776TIP3   OH223268   4.165   3.511   3.884
 7776TIP3    H123269   4.226   3.472   3.949
 7776TIP3    H223270   4.175   3.605   3.908
 7777TIP3   OH223271   4.020   4.942   3.384
 7777TIP3    H123272   4.109   4.963   3.349
 7777TIP3    H223273   3.998   4.866   3.325
 7778TIP3   OH223274   4.739   5.057   3.478
 7778TIP3    H123275   4.732   4.960   3.466
 7778TIP3    H223276   4.694   5.089   3.397
 7779TIP3   OH223277   3.953   3.590   5.265
 7779TIP3    H123278   3.919   3.521   5.323
 7779TIP3    H223279   4.048   3.591   5.292
 7780TIP3   OH223280   4.203   3.590   5.387
 7780TIP3    H123281   4.285   3.564   5.342
 7780TIP3    H223282   4.191   3.517   5.452
 7781TIP3   OH223283   3.326   4.778   3.442
 7781TIP3    H123284   3.326   4.803   3.536
 7781TIP3    H223285   3.414   4.736   3.431
 7782TIP3   OH223286   5.028   3.648   5.174
 7782TIP3    H123287   5.048   3.615   5.264
 7782TIP3    H223288   5.115   3.644   5.130
 7783TIP3   OH223289   4.969   5.202   4.662
 7783TIP3    H123290   4.887   5.171   4.618
 7783TIP3    H223291   4.949   5.298   4.668
 7784TIP3   OH223292   6.248   4.580   3.424
 7784TIP3    H123293   6.210   4.669   3.403
 7784TIP3    H223294   6.172   4.525   3.395
 7785TIP3   OH223295   6.461   4.888   3.491
 7785TIP3    H123296   6.512   4.828   3.544
 7785TIP3    H223297   6.506   4.972   3.512
 7786TIP3   OH223298   5.488   4.899   3.914
 7786TIP3    H123299   5.463   4.806   3.918
 7786TIP3    H223300   5.585   4.898   3.908
 7787TIP3   OH223301   5.201   4.082   3.699
 7787TIP3    H123302   5.156   4.166   3.686
 7787TIP3    H223303   5.138   4.021   3.655
 7788TIP3   OH223304   6.120   5.338   3.509
 7788TIP3    H123305   6.167   5.267   3.460
 7788TIP3    H223306   6.121   5.304   3.599
 7789TIP3   OH223307   7.042   4.120   3.856
 7789TIP3    H123308   7.072   4.202   3.899
 7789TIP3    H223309   7.069   4.136   3.764
 7790TIP3   OH223310   6.460   4.285   3.899
 7790TIP3    H123311   6.512   4.214   3.941
 7790TIP3    H223312   6.417   4.232   3.832
 7791TIP3   OH223313   5.760   3.970   3.853
 7791TIP3    H123314   5.715   4.036   3.799
 7791TIP3    H223315   5.726   3.889   3.809
 7792TIP3   OH223316   6.471   4.044   3.478
 7792TIP3    H123317   6.539   4.037   3.548
 7792TIP3    H223318   6.522   4.089   3.409
 7793TIP3   OH223319   7.117   4.324   4.031
 7793TIP3    H123320   7.036   4.373   4.005
 7793TIP3    H223321   7.130   4.357   4.121
 7794TIP3   OH223322   5.780   3.940   4.300
 7794TIP3    H123323   5.725   3.976   4.227
 7794TIP3    H223324   5.723   3.961   4.377
 7795TIP3   OH223325   6.118   4.791   3.304
 7795TIP3    H123326   6.083   4.779   3.215
 7795TIP3    H223327   6.081   4.879   3.327
 7796TIP3   OH223328   5.894   4.732   4.131
 7796TIP3    H123329   5.819   4.791   4.152
 7796TIP3    H223330   5.930   4.773   4.052
 7797TIP3   OH223331   6.680   4.061   3.653
 7797TIP3    H123332   6.679   3.999   3.727
 7797TIP3    H223333   6.747   4.126   3.679
 7798TIP3   OH223334   5.652   4.046   4.089
 7798TIP3    H123335   5.705   4.128   4.097
 7798TIP3    H223336   5.685   4.014   4.002
 7799TIP3   OH223337   5.693   4.908   4.171
 7799TIP3    H123338   5.679   5.001   4.143
 7799TIP3    H223339   5.622   4.900   4.238
 7800TIP3   OH223340   5.104   4.603   3.422
 7800TIP3    H123341   5.065   4.630   3.337
 7800TIP3    H223342   5.135   4.688   3.458
 7801TIP3   OH223343   6.544   5.098   3.674
 7801TIP3    H123344   6.450   5.112   3.698
 7801TIP3    H223345   6.560   5.170   3.610
 7802TIP3   OH223346   6.836   4.022   4.026
 7802TIP3    H123347   6.748   4.046   3.993
 7802TIP3    H223348   6.895   4.053   3.954
 7803TIP3   OH223349   6.138   3.664   4.010
 7803TIP3    H123350   6.119   3.570   4.023
 7803TIP3    H223351   6.059   3.704   4.052
 7804TIP3   OH223352   6.247   5.166   3.337
 7804TIP3    H123353   6.295   5.083   3.312
 7804TIP3    H223354   6.309   5.231   3.297
 7805TIP3   OH223355   6.382   4.951   3.233
 7805TIP3    H123356   6.361   4.869   3.187
 7805TIP3    H223357   6.419   4.918   3.318
 7806TIP3   OH223358   6.769   5.030   4.011
 7806TIP3    H123359   6.783   4.962   3.943
 7806TIP3    H223360   6.752   5.110   3.956
 7807TIP3   OH223361   6.067   4.433   3.262
 7807TIP3    H123362   5.985   4.481   3.238
 7807TIP3    H223363   6.111   4.424   3.176
 7808TIP3   OH223364   6.022   4.209   2.980
 7808TIP3    H123365   6.090   4.261   3.027
 7808TIP3    H223366   6.079   4.145   2.933
 7809TIP3   OH223367   6.966   4.661   3.857
 7809TIP3    H123368   6.888   4.719   3.852
 7809TIP3    H223369   7.006   4.680   3.769
 7810TIP3   OH223370   6.415   4.504   3.226
 7810TIP3    H123371   6.362   4.533   3.303
 7810TIP3    H223372   6.499   4.478   3.270
 7811TIP3   OH223373   6.661   4.554   4.151
 7811TIP3    H123374   6.654   4.636   4.204
 7811TIP3    H223375   6.567   4.548   4.119
 7812TIP3   OH223376   5.770   4.938   3.787
 7812TIP3    H123377   5.755   4.899   3.699
 7812TIP3    H223378   5.865   4.925   3.800
 7813TIP3   OH223379   6.293   5.114   3.783
 7813TIP3    H123380   6.288   5.199   3.830
 7813TIP3    H223381   6.287   5.049   3.854
 7814TIP3   OH223382   5.915   5.033   4.327
 7814TIP3    H123383   5.858   5.096   4.376
 7814TIP3    H223384   5.848   4.979   4.282
 7815TIP3   OH223385   6.249   4.365   3.059
 7815TIP3    H123386   6.310   4.424   3.109
 7815TIP3    H223387   6.276   4.388   2.966
 7816TIP3   OH223388   5.990   5.050   3.343
 7816TIP3    H123389   6.072   5.101   3.355
 7816TIP3    H223390   5.933   5.113   3.296
 7817TIP3   OH223391   5.712   5.199   4.415
 7817TIP3    H123392   5.673   5.205   4.326
 7817TIP3    H223393   5.634   5.181   4.471
 7818TIP3   OH223394   6.767   3.607   3.107
 7818TIP3    H123395   6.686   3.628   3.158
 7818TIP3    H223396   6.781   3.691   3.059
 7819TIP3   OH223397   5.521   4.347   3.430
 7819TIP3    H123398   5.440   4.383   3.389
 7819TIP3    H223399   5.487   4.276   3.486
 7820TIP3   OH223400   6.565   4.975   2.655
 7820TIP3    H123401   6.574   5.072   2.642
 7820TIP3    H223402   6.658   4.946   2.643
 7821TIP3   OH223403   5.143   4.945   3.974
 7821TIP3    H123404   5.235   4.921   3.991
 7821TIP3    H223405   5.128   5.011   4.043
 7822TIP3   OH223406   7.011   5.377   4.054
 7822TIP3    H123407   7.007   5.281   4.062
 7822TIP3    H223408   6.927   5.403   4.097
 7823TIP3   OH223409   6.114   5.163   4.184
 7823TIP3    H123410   6.115   5.256   4.218
 7823TIP3    H223411   6.043   5.125   4.241
 7824TIP3   OH223412   5.873   5.290   3.139
 7824TIP3    H123413   5.830   5.274   3.053
 7824TIP3    H223414   5.843   5.380   3.162
 7825TIP3   OH223415   5.312   5.142   3.519
 7825TIP3    H123416   5.360   5.134   3.604
 7825TIP3    H223417   5.250   5.068   3.527
 7826TIP3   OH223418   6.076   5.192   2.778
 7826TIP3    H123419   6.136   5.123   2.742
 7826TIP3    H223420   6.111   5.203   2.869
 7827TIP3   OH223421   6.125   5.240   3.048
 7827TIP3    H123422   6.038   5.250   3.092
 7827TIP3    H223423   6.180   5.204   3.119
 7828TIP3   OH223424   6.896   4.505   4.329
 7828TIP3    H123425   6.820   4.521   4.272
 7828TIP3    H223426   6.912   4.410   4.314
 7829TIP3   OH223427   5.498   4.909   4.356
 7829TIP3    H123428   5.558   4.908   4.434
 7829TIP3    H223429   5.426   4.854   4.389
 7830TIP3   OH223430   5.897   3.737   4.133
 7830TIP3    H123431   5.807   3.707   4.109
 7830TIP3    H223432   5.875   3.823   4.174
 7831TIP3   OH223433   6.427   3.857   4.329
 7831TIP3    H123434   6.494   3.826   4.394
 7831TIP3    H223435   6.342   3.836   4.374
 7832TIP3   OH223436   6.671   4.284   4.250
 7832TIP3    H123437   6.619   4.279   4.334
 7832TIP3    H223438   6.646   4.371   4.216
 7833TIP3   OH223439   6.327   4.413   2.805
 7833TIP3    H123440   6.294   4.388   2.717
 7833TIP3    H223441   6.407   4.464   2.780
 7834TIP3   OH223442   6.041   3.789   3.105
 7834TIP3    H123443   6.008   3.785   3.197
 7834TIP3    H223444   6.002   3.706   3.071
 7835TIP3   OH223445   5.826   4.266   4.147
 7835TIP3    H123446   5.775   4.282   4.229
 7835TIP3    H223447   5.801   4.340   4.090
 7836TIP3   OH223448   6.193   4.220   3.380
 7836TIP3    H123449   6.146   4.297   3.342
 7836TIP3    H223450   6.257   4.197   3.310
 7837TIP3   OH223451   6.376   4.507   4.484
 7837TIP3    H123452   6.353   4.434   4.545
 7837TIP3    H223453   6.470   4.520   4.506
 7838TIP3   OH223454   5.662   4.272   4.372
 7838TIP3    H123455   5.670   4.332   4.446
 7838TIP3    H223456   5.647   4.187   4.417
 7839TIP3   OH223457   5.694   3.760   3.072
 7839TIP3    H123458   5.689   3.759   3.170
 7839TIP3    H223459   5.616   3.814   3.050
 7840TIP3   OH223460   5.240   3.808   3.947
 7840TIP3    H123461   5.318   3.839   3.997
 7840TIP3    H223462   5.278   3.781   3.862
 7841TIP3   OH223463   5.212   3.786   3.462
 7841TIP3    H123464   5.261   3.823   3.386
 7841TIP3    H223465   5.153   3.861   3.482
 7842TIP3   OH223466   6.407   4.499   4.079
 7842TIP3    H123467   6.421   4.416   4.029
 7842TIP3    H223468   6.353   4.465   4.153
 7843TIP3   OH223469   5.485   4.020   3.746
 7843TIP3    H123470   5.390   4.034   3.732
 7843TIP3    H223471   5.502   3.932   3.709
 7844TIP3   OH223472   5.747   3.994   3.415
 7844TIP3    H123473   5.834   4.033   3.400
 7844TIP3    H223474   5.690   4.036   3.347
 7845TIP3   OH223475   6.531   4.024   3.936
 7845TIP3    H123476   6.491   4.037   4.025
 7845TIP3    H223477   6.463   3.968   3.894
 7846TIP3   OH223478   5.576   4.052   3.204
 7846TIP3    H123479   5.505   4.007   3.156
 7846TIP3    H223480   5.631   4.085   3.130
 7847TIP3   OH223481   6.698   5.726   4.149
 7847TIP3    H123482   6.696   5.749   4.054
 7847TIP3    H223483   6.776   5.777   4.179
 7848TIP3   OH223484   5.656   4.858   4.573
 7848TIP3    H123485   5.738   4.875   4.623
 7848TIP3    H223486   5.595   4.839   4.646
 7849TIP3   OH223487   5.648   3.774   3.701
 7849TIP3    H123488   5.615   3.695   3.747
 7849TIP3    H223489   5.694   3.739   3.624
 7850TIP3   OH223490   6.095   4.177   4.138
 7850TIP3    H123491   6.008   4.219   4.126
 7850TIP3    H223492   6.151   4.249   4.169
 7851TIP3   OH223493   5.833   4.580   3.208
 7851TIP3    H123494   5.764   4.510   3.198
 7851TIP3    H223495   5.818   4.610   3.300
 7852TIP3   OH223496   6.746   4.827   3.816
 7852TIP3    H123497   6.768   4.872   3.733
 7852TIP3    H223498   6.655   4.854   3.831
 7853TIP3   OH223499   6.293   3.892   3.070
 7853TIP3    H123500   6.196   3.875   3.080
 7853TIP3    H223501   6.302   3.986   3.097
 7854TIP3   OH223502   6.228   4.900   4.199
 7854TIP3    H123503   6.250   4.869   4.288
 7854TIP3    H223504   6.196   4.990   4.215
 7855TIP3   OH223505   6.365   4.138   3.173
 7855TIP3    H123506   6.461   4.145   3.192
 7855TIP3    H223507   6.347   4.219   3.121
 7856TIP3   OH223508   5.981   4.729   3.032
 7856TIP3    H123509   5.932   4.815   3.037
 7856TIP3    H223510   5.926   4.674   3.091
 7857TIP3   OH223511   6.133   4.633   4.519
 7857TIP3    H123512   6.079   4.575   4.463
 7857TIP3    H223513   6.223   4.603   4.494
 7858TIP3   OH223514   6.392   5.143   4.109
 7858TIP3    H123515   6.296   5.155   4.120
 7858TIP3    H223516   6.425   5.202   4.180
 7859TIP3   OH223517   6.803   4.228   3.014
 7859TIP3    H123518   6.741   4.183   2.951
 7859TIP3    H223519   6.801   4.317   2.974
 7860TIP3   OH223520   7.023   5.082   4.096
 7860TIP3    H123521   6.925   5.082   4.090
 7860TIP3    H223522   7.046   5.052   4.005
 7861TIP3   OH223523   6.494   5.049   2.916
 7861TIP3    H123524   6.485   4.980   2.983
 7861TIP3    H223525   6.515   4.999   2.835
 7862TIP3   OH223526   5.622   4.902   3.514
 7862TIP3    H123527   5.630   4.985   3.463
 7862TIP3    H223528   5.526   4.894   3.518
 7863TIP3   OH223529   5.189   4.208   3.214
 7863TIP3    H123530   5.237   4.290   3.235
 7863TIP3    H223531   5.113   4.213   3.276
 7864TIP3   OH223532   5.759   4.668   3.456
 7864TIP3    H123533   5.742   4.764   3.467
 7864TIP3    H223534   5.671   4.632   3.460
 7865TIP3   OH223535   5.896   5.246   3.981
 7865TIP3    H123536   5.934   5.321   3.931
 7865TIP3    H223537   5.973   5.218   4.034
 7866TIP3   OH223538   5.549   5.141   3.368
 7866TIP3    H123539   5.462   5.152   3.411
 7866TIP3    H223540   5.581   5.234   3.368
 7867TIP3   OH223541   6.342   4.843   3.949
 7867TIP3    H123542   6.272   4.857   4.015
 7867TIP3    H223543   6.417   4.874   4.004
 7868TIP3   OH223544   6.258   4.771   2.823
 7868TIP3    H123545   6.311   4.750   2.903
 7868TIP3    H223546   6.169   4.748   2.853
 7869TIP3   OH223547   6.531   5.418   3.989
 7869TIP3    H123548   6.449   5.366   3.975
 7869TIP3    H223549   6.521   5.485   3.918
 7870TIP3   OH223550   6.599   5.250   2.643
 7870TIP3    H123551   6.639   5.325   2.595
 7870TIP3    H223552   6.518   5.295   2.675
 7871TIP3   OH223553   5.617   4.028   4.512
 7871TIP3    H123554   5.520   4.030   4.528
 7871TIP3    H223555   5.646   3.964   4.580
 7872TIP3   OH223556   6.419   4.713   3.043
 7872TIP3    H123557   6.411   4.640   3.108
 7872TIP3    H223558   6.516   4.709   3.027
 7873TIP3   OH223559   5.334   5.110   4.142
 7873TIP3    H123560   5.395   5.042   4.174
 7873TIP3    H223561   5.357   5.185   4.199
 7874TIP3   OH223562   5.625   4.756   2.822
 7874TIP3    H123563   5.640   4.664   2.792
 7874TIP3    H223564   5.605   4.742   2.917
 7875TIP3   OH223565   5.570   4.761   3.096
 7875TIP3    H123566   5.647   4.734   3.148
 7875TIP3    H223567   5.575   4.859   3.100
 7876TIP3   OH223568   5.303   4.455   3.297
 7876TIP3    H123569   5.238   4.500   3.355
 7876TIP3    H223570   5.318   4.524   3.230
 7877TIP3   OH223571   6.455   4.092   4.191
 7877TIP3    H123572   6.535   4.126   4.234
 7877TIP3    H223573   6.436   4.012   4.243
 7878TIP3   OH223574   6.335   3.839   3.353
 7878TIP3    H123575   6.321   3.866   3.260
 7878TIP3    H223576   6.373   3.921   3.392
 7879TIP3   OH223577   5.836   4.957   3.045
 7879TIP3    H123578   5.749   4.987   3.079
 7879TIP3    H223579   5.855   5.027   2.981
 7880TIP3   OH223580   6.033   4.014   3.442
 7880TIP3    H123581   6.095   4.085   3.414
 7880TIP3    H223582   6.034   4.028   3.537
 7881TIP3   OH223583   6.294   4.344   4.266
 7881TIP3    H123584   6.311   4.394   4.348
 7881TIP3    H223585   6.343   4.261   4.281
 7882TIP3   OH223586   6.174   3.756   3.564
 7882TIP3    H123587   6.205   3.817   3.633
 7882TIP3    H223588   6.226   3.788   3.487
 7883TIP3   OH223589   5.579   5.033   3.110
 7883TIP3    H123590   5.548   5.102   3.047
 7883TIP3    H223591   5.563   5.078   3.196
 7884TIP3   OH223592   5.680   3.741   3.348
 7884TIP3    H123593   5.682   3.834   3.381
 7884TIP3    H223594   5.775   3.721   3.357
 7885TIP3   OH223595   6.938   4.239   4.248
 7885TIP3    H123596   6.840   4.237   4.254
 7885TIP3    H223597   6.949   4.202   4.159
 7886TIP3   OH223598   6.603   4.428   3.632
 7886TIP3    H123599   6.559   4.342   3.627
 7886TIP3    H223600   6.685   4.401   3.679
 7887TIP3   OH223601   5.296   4.665   3.104
 7887TIP3    H123602   5.360   4.738   3.112
 7887TIP3    H223603   5.344   4.611   3.036
 7888TIP3   OH223604   5.242   3.939   3.236
 7888TIP3    H123605   5.244   4.036   3.232
 7888TIP3    H223606   5.157   3.919   3.196
 7889TIP3   OH223607   6.556   5.388   3.588
 7889TIP3    H123608   6.512   5.433   3.512
 7889TIP3    H223609   6.649   5.406   3.562
 7890TIP3   OH223610   5.634   3.657   4.111
 7890TIP3    H123611   5.601   3.625   4.024
 7890TIP3    H223612   5.621   3.578   4.168
 7891TIP3   OH223613   5.172   4.875   3.492
 7891TIP3    H123614   5.099   4.908   3.548
 7891TIP3    H223615   5.148   4.915   3.406
 7892TIP3   OH223616   5.325   5.418   4.563
 7892TIP3    H123617   5.411   5.420   4.610
 7892TIP3    H223618   5.306   5.323   4.563
 7893TIP3   OH223619   5.804   5.380   4.614
 7893TIP3    H123620   5.901   5.378   4.615
 7893TIP3    H223621   5.785   5.325   4.536
 7894TIP3   OH223622   5.790   4.960   2.737
 7894TIP3    H123623   5.733   4.888   2.772
 7894TIP3    H223624   5.864   4.908   2.703
 7895TIP3   OH223625   6.450   5.286   4.337
 7895TIP3    H123626   6.439   5.220   4.410
 7895TIP3    H223627   6.524   5.341   4.369
 7896TIP3   OH223628   6.225   5.000   2.645
 7896TIP3    H123629   6.273   4.942   2.706
 7896TIP3    H223630   6.282   5.002   2.566
 7897TIP3   OH223631   5.458   4.822   4.766
 7897TIP3    H123632   5.479   4.727   4.766
 7897TIP3    H223633   5.369   4.823   4.725
 7898TIP3   OH223634   5.432   4.479   2.955
 7898TIP3    H123635   5.485   4.442   3.027
 7898TIP3    H223636   5.499   4.483   2.883
 7899TIP3   OH223637   6.065   4.909   4.535
 7899TIP3    H123638   6.022   4.924   4.449
 7899TIP3    H223639   6.095   4.816   4.529
 7900TIP3   OH223640   5.939   4.675   2.762
 7900TIP3    H123641   5.944   4.687   2.859
 7900TIP3    H223642   5.940   4.577   2.756
 7901TIP3   OH223643   6.549   4.911   4.122
 7901TIP3    H123644   6.630   4.960   4.093
 7901TIP3    H223645   6.487   4.987   4.134
 7902TIP3   OH223646   5.584   4.572   4.742
 7902TIP3    H123647   5.635   4.491   4.731
 7902TIP3    H223648   5.606   4.598   4.833
 7903TIP3   OH223649   5.647   4.380   3.182
 7903TIP3    H123650   5.610   4.344   3.265
 7903TIP3    H223651   5.677   4.299   3.135
 7904TIP3   OH223652   5.917   4.442   4.411
 7904TIP3    H123653   5.857   4.516   4.423
 7904TIP3    H223654   5.966   4.469   4.329
 7905TIP3   OH223655   5.740   4.171   3.019
 7905TIP3    H123656   5.714   4.176   2.925
 7905TIP3    H223657   5.837   4.177   3.013
 7906TIP3   OH223658   6.426   4.845   4.542
 7906TIP3    H123659   6.509   4.825   4.497
 7906TIP3    H223660   6.423   4.777   4.611
 7907TIP3   OH223661   6.564   4.505   2.680
 7907TIP3    H123662   6.542   4.459   2.597
 7907TIP3    H223663   6.532   4.595   2.658
 7908TIP3   OH223664   6.035   4.229   4.533
 7908TIP3    H123665   6.033   4.148   4.478
 7908TIP3    H223666   5.990   4.294   4.475
 7909TIP3   OH223667   6.036   4.014   4.348
 7909TIP3    H123668   6.062   4.060   4.265
 7909TIP3    H223669   5.942   3.991   4.328
 7910TIP3   OH223670   6.070   4.553   4.221
 7910TIP3    H123671   6.134   4.546   4.149
 7910TIP3    H223672   6.006   4.618   4.184
 7911TIP3   OH223673   6.646   4.522   4.595
 7911TIP3    H123674   6.694   4.438   4.603
 7911TIP3    H223675   6.714   4.581   4.561
 7912TIP3   OH223676   6.684   4.778   4.324
 7912TIP3    H123677   6.626   4.828   4.263
 7912TIP3    H223678   6.772   4.799   4.286
 7913TIP3   OH223679   5.912   4.345   4.761
 7913TIP3    H123680   5.842   4.278   4.776
 7913TIP3    H223681   5.946   4.317   4.674
 7914TIP3   OH223682   6.169   3.780   4.405
 7914TIP3    H123683   6.119   3.862   4.384
 7914TIP3    H223684   6.099   3.712   4.394
 7915TIP3   OH223685   6.294   4.288   4.623
 7915TIP3    H123686   6.281   4.275   4.718
 7915TIP3    H223687   6.204   4.262   4.591
 7916TIP3   OH223688   6.534   4.236   4.479
 7916TIP3    H123689   6.458   4.238   4.539
 7916TIP3    H223690   6.606   4.204   4.536
 7917TIP3   OH223691   6.770   4.177   4.629
 7917TIP3    H123692   6.776   4.081   4.647
 7917TIP3    H223693   6.761   4.216   4.718
 7918TIP3   OH223694   5.751   4.127   4.814
 7918TIP3    H123695   5.755   4.036   4.779
 7918TIP3    H223696   5.786   4.113   4.904
 7919TIP3   OH223697   6.264   3.792   4.662
 7919TIP3    H123698   6.330   3.720   4.656
 7919TIP3    H223699   6.223   3.786   4.574
 7920TIP3   OH223700   6.330   4.008   4.822
 7920TIP3    H123701   6.307   3.937   4.758
 7920TIP3    H223702   6.251   4.066   4.816
 7921TIP3   OH223703   5.548   5.235   2.923
 7921TIP3    H123704   5.643   5.232   2.904
 7921TIP3    H223705   5.517   5.283   2.844
 7922TIP3   OH223706   5.029   4.616   3.142
 7922TIP3    H123707   5.123   4.639   3.126
 7922TIP3    H223708   5.023   4.528   3.100
 7923TIP3   OH223709   4.944   5.229   3.552
 7923TIP3    H123710   4.876   5.168   3.516
 7923TIP3    H223711   4.987   5.172   3.619
 7924TIP3   OH223712   5.080   5.082   3.739
 7924TIP3    H123713   5.072   5.010   3.804
 7924TIP3    H223714   5.129   5.145   3.795
 7925TIP3   OH223715   6.794   5.519   3.536
 7925TIP3    H123716   6.840   5.520   3.621
 7925TIP3    H223717   6.867   5.510   3.474
 7926TIP3   OH223718   6.834   5.502   3.824
 7926TIP3    H123719   6.798   5.412   3.811
 7926TIP3    H223720   6.917   5.481   3.869
 7927TIP3   OH223721   6.882   5.176   4.396
 7927TIP3    H123722   6.808   5.187   4.459
 7927TIP3    H223723   6.923   5.265   4.397
 7928TIP3   OH223724   6.696   4.693   3.014
 7928TIP3    H123725   6.765   4.758   2.986
 7928TIP3    H223726   6.740   4.654   3.093
 7929TIP3   OH223727   6.823   4.558   3.213
 7929TIP3    H123728   6.761   4.519   3.278
 7929TIP3    H223729   6.893   4.597   3.271
 7930TIP3   OH223730   6.712   5.247   3.855
 7930TIP3    H123731   6.639   5.300   3.892
 7930TIP3    H223732   6.671   5.209   3.775
 7931TIP3   OH223733   6.764   4.466   2.866
 7931TIP3    H123734   6.693   4.470   2.798
 7931TIP3    H223735   6.738   4.542   2.921
 7932TIP3   OH223736   6.636   4.139   2.820
 7932TIP3    H123737   6.593   4.181   2.744
 7932TIP3    H223738   6.608   4.045   2.809
 7933TIP3   OH223739   6.639   4.414   3.362
 7933TIP3    H123740   6.650   4.318   3.351
 7933TIP3    H223741   6.639   4.424   3.459
 7934TIP3   OH223742   6.928   4.841   4.219
 7934TIP3    H123743   7.001   4.775   4.213
 7934TIP3    H223744   6.959   4.912   4.161
 7935TIP3   OH223745   7.111   4.647   4.246
 7935TIP3    H123746   7.038   4.594   4.285
 7935TIP3    H223747   7.186   4.584   4.258
 7936TIP3   OH223748   6.579   3.873   2.805
 7936TIP3    H123749   6.654   3.844   2.860
 7936TIP3    H223750   6.506   3.815   2.832
 7937TIP3   OH223751   6.639   4.134   3.261
 7937TIP3    H123752   6.676   4.044   3.277
 7937TIP3    H223753   6.697   4.162   3.188
 7938TIP3   OH223754   6.807   4.309   3.757
 7938TIP3    H123755   6.894   4.334   3.718
 7938TIP3    H223756   6.822   4.342   3.848
 7939TIP3   OH223757   6.868   4.446   3.990
 7939TIP3    H123758   6.793   4.485   4.039
 7939TIP3    H223759   6.904   4.525   3.943
 7940TIP3   OH223760   5.484   4.176   4.783
 7940TIP3    H123761   5.581   4.168   4.785
 7940TIP3    H223762   5.458   4.093   4.827
 7941TIP3   OH223763   7.342   4.051   4.547
 7941TIP3    H123764   7.388   3.978   4.500
 7941TIP3    H223765   7.297   4.095   4.471
 7942TIP3   OH223766   6.745   3.882   3.297
 7942TIP3    H123767   6.794   3.866   3.381
 7942TIP3    H223768   6.684   3.805   3.297
 7943TIP3   OH223769   5.449   3.859   4.126
 7943TIP3    H123770   5.514   3.787   4.129
 7943TIP3    H223771   5.508   3.935   4.108
 7944TIP3   OH223772   7.189   4.176   4.358
 7944TIP3    H123773   7.102   4.219   4.370
 7944TIP3    H223774   7.164   4.110   4.291
 7945TIP3   OH223775   6.827   3.817   2.930
 7945TIP3    H123776   6.868   3.745   2.878
 7945TIP3    H223777   6.894   3.888   2.925
 7946TIP3   OH223778   5.230   3.644   3.691
 7946TIP3    H123779   5.136   3.642   3.716
 7946TIP3    H223780   5.229   3.703   3.613
 7947TIP3   OH223781   6.387   5.349   3.196
 7947TIP3    H123782   6.441   5.334   3.115
 7947TIP3    H223783   6.445   5.409   3.246
 7948TIP3   OH223784   5.452   3.727   4.507
 7948TIP3    H123785   5.401   3.719   4.590
 7948TIP3    H223786   5.383   3.759   4.447
 7949TIP3   OH223787   5.490   5.150   4.579
 7949TIP3    H123788   5.396   5.125   4.568
 7949TIP3    H223789   5.504   5.136   4.674
 7950TIP3   OH223790   5.669   5.179   4.127
 7950TIP3    H123791   5.619   5.255   4.090
 7950TIP3    H223792   5.755   5.198   4.085
 7951TIP3   OH223793   6.117   5.427   4.267
 7951TIP3    H123794   6.157   5.433   4.357
 7951TIP3    H223795   6.182   5.480   4.216
 7952TIP3   OH223796   6.295   5.578   4.126
 7952TIP3    H123797   6.369   5.532   4.083
 7952TIP3    H223798   6.344   5.637   4.188
 7953TIP3   OH223799   7.087   3.942   4.228
 7953TIP3    H123800   6.997   3.937   4.192
 7953TIP3    H223801   7.117   3.849   4.216
 7954TIP3   OH223802   5.346   5.438   4.157
 7954TIP3    H123803   5.258   5.473   4.131
 7954TIP3    H223804   5.357   5.483   4.242
 7955TIP3   OH223805   5.582   5.416   4.011
 7955TIP3    H123806   5.496   5.431   4.056
 7955TIP3    H223807   5.563   5.452   3.922
 7956TIP3   OH223808   6.008   5.449   3.810
 7956TIP3    H123809   5.940   5.470   3.743
 7956TIP3    H223810   6.021   5.536   3.852
 7957TIP3   OH223811   6.277   5.384   3.859
 7957TIP3    H123812   6.184   5.407   3.840
 7957TIP3    H223813   6.324   5.459   3.818
 7958TIP3   OH223814   6.482   5.579   3.776
 7958TIP3    H123815   6.470   5.665   3.729
 7958TIP3    H223816   6.514   5.521   3.704
 7959TIP3   OH223817   5.258   5.240   3.898
 7959TIP3    H123818   5.281   5.211   3.989
 7959TIP3    H223819   5.328   5.192   3.847
 7960TIP3   OH223820   5.449   5.112   3.750
 7960TIP3    H123821   5.464   5.033   3.808
 7960TIP3    H223822   5.539   5.150   3.746
 7961TIP3   OH223823   5.714   5.210   3.756
 7961TIP3    H123824   5.743   5.117   3.746
 7961TIP3    H223825   5.756   5.231   3.841
 7962TIP3   OH223826   6.299   3.855   3.831
 7962TIP3    H123827   6.248   3.799   3.892
 7962TIP3    H223828   6.373   3.797   3.805
 7963TIP3   OH223829   6.819   3.740   3.754
 7963TIP3    H123830   6.855   3.789   3.677
 7963TIP3    H223831   6.723   3.753   3.745
 7964TIP3   OH223832   6.911   3.838   3.516
 7964TIP3    H123833   6.983   3.787   3.475
 7964TIP3    H223834   6.945   3.929   3.500
 7965TIP3   OH223835   5.542   3.565   3.864
 7965TIP3    H123836   5.449   3.534   3.865
 7965TIP3    H223837   5.590   3.479   3.859
 7966TIP3   OH223838   5.326   3.436   3.508
 7966TIP3    H123839   5.357   3.495   3.437
 7966TIP3    H223840   5.299   3.500   3.576
 7967TIP3   OH223841   5.989   3.594   3.743
 7967TIP3    H123842   6.045   3.648   3.685
 7967TIP3    H223843   5.996   3.642   3.826
 7968TIP3   OH223844   6.540   3.743   3.725
 7968TIP3    H123845   6.530   3.710   3.636
 7968TIP3    H223846   6.523   3.662   3.779
 7969TIP3   OH223847   6.561   3.667   3.288
 7969TIP3    H123848   6.475   3.710   3.299
 7969TIP3    H223849   6.546   3.583   3.335
 7970TIP3   OH223850   5.046   5.006   3.292
 7970TIP3    H123851   4.961   4.972   3.257
 7970TIP3    H223852   5.034   5.100   3.275
 7971TIP3   OH223853   5.444   3.596   3.274
 7971TIP3    H123854   5.494   3.535   3.217
 7971TIP3    H223855   5.515   3.651   3.311
 7972TIP3   OH223856   5.960   3.763   3.370
 7972TIP3    H123857   6.020   3.723   3.435
 7972TIP3    H223858   5.974   3.858   3.391
 7973TIP3   OH223859   5.817   5.198   2.872
 7973TIP3    H123860   5.906   5.219   2.837
 7973TIP3    H223861   5.795   5.123   2.812
 7974TIP3   OH223862   6.533   5.314   2.964
 7974TIP3    H123863   6.524   5.216   2.952
 7974TIP3    H223864   6.490   5.346   2.882
 7975TIP3   OH223865   5.750   3.850   4.754
 7975TIP3    H123866   5.714   3.779   4.810
 7975TIP3    H223867   5.844   3.848   4.781
 7976TIP3   OH223868   5.999   3.846   4.874
 7976TIP3    H123869   6.083   3.818   4.833
 7976TIP3    H223870   5.986   3.775   4.941
 7977TIP3   OH223871   5.122   5.035   2.929
 7977TIP3    H123872   5.120   5.061   3.022
 7977TIP3    H223873   5.210   4.993   2.919
 7978TIP3   OH223874   6.823   3.905   4.661
 7978TIP3    H123875   6.841   3.873   4.752
 7978TIP3    H223876   6.911   3.897   4.619
 7979TIP3   OH223877   6.762   5.458   4.155
 7979TIP3    H123878   6.685   5.427   4.102
 7979TIP3    H223879   6.746   5.554   4.154
 7980TIP3   OH223880   8.028   4.831   2.918
 7980TIP3    H123881   8.001   4.923   2.900
 7980TIP3    H223882   7.948   4.783   2.892
 7981TIP3   OH223883   8.004   4.827   3.310
 7981TIP3    H123884   8.073   4.781   3.363
 7981TIP3    H223885   7.985   4.759   3.244
 7982TIP3   OH223886   7.330   4.735   3.671
 7982TIP3    H123887   7.363   4.663   3.729
 7982TIP3    H223888   7.412   4.781   3.648
 7983TIP3   OH223889   8.273   5.127   2.981
 7983TIP3    H123890   8.257   5.058   3.048
 7983TIP3    H223891   8.293   5.204   3.037
 7984TIP3   OH223892   7.308   5.144   3.391
 7984TIP3    H123893   7.282   5.051   3.399
 7984TIP3    H223894   7.405   5.137   3.380
 7985TIP3   OH223895   7.005   4.333   3.176
 7985TIP3    H123896   6.965   4.420   3.193
 7985TIP3    H223897   6.929   4.287   3.135
 7986TIP3   OH223898   7.059   4.619   3.336
 7986TIP3    H123899   7.113   4.551   3.382
 7986TIP3    H223900   7.126   4.668   3.286
 7987TIP3   OH223901   7.918   5.596   2.996
 7987TIP3    H123902   7.966   5.525   2.949
 7987TIP3    H223903   7.912   5.560   3.085
 7988TIP3   OH223904   7.827   5.054   3.348
 7988TIP3    H123905   7.867   4.970   3.317
 7988TIP3    H223906   7.911   5.101   3.369
 7989TIP3   OH223907   7.569   4.216   3.349
 7989TIP3    H123908   7.557   4.290   3.285
 7989TIP3    H223909   7.524   4.144   3.299
 7990TIP3   OH223910   8.262   4.295   2.969
 7990TIP3    H123911   8.333   4.285   3.037
 7990TIP3    H223912   8.302   4.361   2.911
 7991TIP3   OH223913   7.210   4.418   3.453
 7991TIP3    H123914   7.294   4.400   3.499
 7991TIP3    H223915   7.224   4.365   3.372
 7992TIP3   OH223916   7.655   4.614   3.247
 7992TIP3    H123917   7.749   4.588   3.257
 7992TIP3    H223918   7.616   4.531   3.213
 7993TIP3   OH223919   7.570   4.200   3.781
 7993TIP3    H123920   7.513   4.239   3.712
 7993TIP3    H223921   7.520   4.224   3.861
 7994TIP3   OH223922   7.921   5.053   2.789
 7994TIP3    H123923   7.876   5.031   2.706
 7994TIP3    H223924   7.878   5.138   2.812
 7995TIP3   OH223925   7.679   4.975   3.575
 7995TIP3    H123926   7.617   5.041   3.614
 7995TIP3    H223927   7.722   5.026   3.504
 7996TIP3   OH223928   8.474   4.308   3.135
 7996TIP3    H123929   8.485   4.241   3.206
 7996TIP3    H223930   8.546   4.367   3.161
 7997TIP3   OH223931   7.442   4.314   3.566
 7997TIP3    H123932   7.504   4.387   3.589
 7997TIP3    H223933   7.490   4.275   3.490
 7998TIP3   OH223934   7.505   5.167   3.675
 7998TIP3    H123935   7.481   5.250   3.630
 7998TIP3    H223936   7.425   5.155   3.730
 7999TIP3   OH223937   6.903   4.858   2.909
 7999TIP3    H123938   6.863   4.893   2.828
 7999TIP3    H223939   6.937   4.941   2.950
 8000TIP3   OH223940   8.345   5.374   3.146
 8000TIP3    H123941   8.257   5.362   3.189
 8000TIP3    H223942   8.332   5.462   3.104
 8001TIP3   OH223943   7.928   3.917   3.494
 8001TIP3    H123944   7.910   3.823   3.511
 8001TIP3    H223945   7.852   3.959   3.538
 8002TIP3   OH223946   8.046   5.423   2.825
 8002TIP3    H123947   8.094   5.339   2.804
 8002TIP3    H223948   8.107   5.487   2.783
 8003TIP3   OH223949   8.186   5.207   2.731
 8003TIP3    H123950   8.148   5.129   2.688
 8003TIP3    H223951   8.222   5.169   2.814
 8004TIP3   OH223952   8.562   5.290   3.491
 8004TIP3    H123953   8.550   5.210   3.435
 8004TIP3    H223954   8.546   5.362   3.427
 8005TIP3   OH223955   7.856   4.680   2.747
 8005TIP3    H123956   7.778   4.735   2.726
 8005TIP3    H223957   7.905   4.682   2.663
 8006TIP3   OH223958   7.818   4.465   2.465
 8006TIP3    H123959   7.882   4.517   2.516
 8006TIP3    H223960   7.879   4.403   2.419
 8007TIP3   OH223961   8.206   4.766   2.721
 8007TIP3    H123962   8.151   4.790   2.799
 8007TIP3    H223963   8.286   4.733   2.765
 8008TIP3   OH223964   8.440   4.800   3.637
 8008TIP3    H123965   8.407   4.884   3.670
 8008TIP3    H223966   8.367   4.774   3.575
 8009TIP3   OH223967   7.442   4.762   3.138
 8009TIP3    H123968   7.401   4.705   3.070
 8009TIP3    H223969   7.518   4.709   3.167
 8010TIP3   OH223970   7.575   5.174   3.284
 8010TIP3    H123971   7.552   5.129   3.202
 8010TIP3    H223972   7.665   5.139   3.302
 8011TIP3   OH223973   7.572   4.735   3.492
 8011TIP3    H123974   7.610   4.711   3.405
 8011TIP3    H223975   7.619   4.819   3.512
 8012TIP3   OH223976   8.105   5.371   3.268
 8012TIP3    H123977   8.090   5.450   3.321
 8012TIP3    H223978   8.087   5.298   3.331
 8013TIP3   OH223979   7.713   5.291   3.817
 8013TIP3    H123980   7.652   5.353   3.862
 8013TIP3    H223981   7.649   5.238   3.766
 8014TIP3   OH223982   8.046   4.624   2.550
 8014TIP3    H123983   8.105   4.686   2.599
 8014TIP3    H223984   8.070   4.646   2.457
 8015TIP3   OH223985   7.470   4.846   3.923
 8015TIP3    H123986   7.471   4.935   3.964
 8015TIP3    H223987   7.374   4.830   3.918
 8016TIP3   OH223988   7.789   5.303   2.819
 8016TIP3    H123989   7.867   5.356   2.842
 8016TIP3    H223990   7.727   5.369   2.786
 8017TIP3   OH223991   7.508   5.460   3.903
 8017TIP3    H123992   7.475   5.460   3.811
 8017TIP3    H223993   7.428   5.436   3.954
 8018TIP3   OH223994   7.307   4.604   2.939
 8018TIP3    H123995   7.241   4.650   2.884
 8018TIP3    H223996   7.263   4.521   2.958
 8019TIP3   OH223997   8.366   5.233   2.142
 8019TIP3    H123998   8.362   5.332   2.139
 8019TIP3    H223999   8.456   5.219   2.108
 8020TIP3   OH224000   7.081   4.987   3.849
 8020TIP3    H124001   7.062   4.974   3.755
 8020TIP3    H224002   7.123   4.902   3.875
 8021TIP3   OH224003   8.796   5.630   3.515
 8021TIP3    H124004   8.808   5.537   3.543
 8021TIP3    H224005   8.718   5.654   3.570
 8022TIP3   OH224006   7.911   5.420   3.673
 8022TIP3    H124007   7.911   5.512   3.705
 8022TIP3    H224008   7.840   5.381   3.728
 8023TIP3   OH224009   7.669   5.549   2.624
 8023TIP3    H124010   7.624   5.533   2.539
 8023TIP3    H224011   7.638   5.638   2.648
 8024TIP3   OH224012   7.109   5.398   3.009
 8024TIP3    H124013   7.158   5.390   3.094
 8024TIP3    H224014   7.047   5.324   3.018
 8025TIP3   OH224015   7.871   5.450   2.265
 8025TIP3    H124016   7.931   5.381   2.229
 8025TIP3    H224017   7.906   5.460   2.356
 8026TIP3   OH224018   7.921   5.496   2.536
 8026TIP3    H124019   7.834   5.506   2.580
 8026TIP3    H224020   7.973   5.455   2.606
 8027TIP3   OH224021   8.661   4.783   3.815
 8027TIP3    H124022   8.589   4.776   3.750
 8027TIP3    H224023   8.691   4.693   3.827
 8028TIP3   OH224024   7.290   5.170   3.845
 8028TIP3    H124025   7.342   5.151   3.926
 8028TIP3    H224026   7.215   5.110   3.852
 8029TIP3   OH224027   7.691   3.992   3.622
 8029TIP3    H124028   7.600   3.966   3.598
 8029TIP3    H224029   7.673   4.079   3.661
 8030TIP3   OH224030   8.210   4.114   3.801
 8030TIP3    H124031   8.277   4.096   3.870
 8030TIP3    H224032   8.126   4.100   3.849
 8031TIP3   OH224033   8.495   4.531   3.741
 8031TIP3    H124034   8.436   4.526   3.819
 8031TIP3    H224035   8.454   4.604   3.692
 8032TIP3   OH224036   8.108   4.666   2.296
 8032TIP3    H124037   8.081   4.641   2.206
 8032TIP3    H224038   8.194   4.710   2.277
 8033TIP3   OH224039   7.837   4.048   2.594
 8033TIP3    H124040   7.805   4.044   2.686
 8033TIP3    H224041   7.801   3.964   2.560
 8034TIP3   OH224042   7.615   4.512   3.640
 8034TIP3    H124043   7.571   4.540   3.722
 8034TIP3    H224044   7.605   4.592   3.585
 8035TIP3   OH224045   7.507   4.396   3.155
 8035TIP3    H124046   7.414   4.371   3.172
 8035TIP3    H224047   7.521   4.355   3.067
 8036TIP3   OH224048   7.994   4.481   2.874
 8036TIP3    H124049   7.940   4.554   2.837
 8036TIP3    H224050   8.047   4.454   2.797
 8037TIP3   OH224051   8.173   4.776   3.981
 8037TIP3    H124052   8.153   4.691   4.026
 8037TIP3    H224053   8.270   4.773   3.981
 8038TIP3   OH224054   8.139   4.520   3.104
 8038TIP3    H124055   8.080   4.528   3.026
 8038TIP3    H224056   8.173   4.430   3.089
 8039TIP3   OH224057   7.437   4.543   3.852
 8039TIP3    H124058   7.478   4.607   3.913
 8039TIP3    H224059   7.434   4.462   3.906
 8040TIP3   OH224060   7.488   4.015   2.559
 8040TIP3    H124061   7.485   4.015   2.656
 8040TIP3    H224062   7.412   4.072   2.538
 8041TIP3   OH224063   7.035   4.061   3.433
 8041TIP3    H124064   7.110   4.096   3.484
 8041TIP3    H224065   7.075   4.035   3.349
 8042TIP3   OH224066   7.009   4.043   2.949
 8042TIP3    H124067   7.056   4.081   2.872
 8042TIP3    H224068   6.950   4.118   2.970
 8043TIP3   OH224069   7.820   4.220   3.212
 8043TIP3    H124070   7.748   4.222   3.277
 8043TIP3    H224071   7.899   4.224   3.268
 8044TIP3   OH224072   7.267   4.274   3.226
 8044TIP3    H124073   7.172   4.281   3.198
 8044TIP3    H224074   7.291   4.183   3.200
 8045TIP3   OH224075   7.538   4.269   2.913
 8045TIP3    H124076   7.633   4.286   2.897
 8045TIP3    H224077   7.495   4.295   2.829
 8046TIP3   OH224078   8.289   4.250   3.456
 8046TIP3    H124079   8.268   4.335   3.498
 8046TIP3    H224080   8.238   4.253   3.375
 8047TIP3   OH224081   7.377   4.303   2.691
 8047TIP3    H124082   7.304   4.262   2.642
 8047TIP3    H224083   7.429   4.341   2.617
 8048TIP3   OH224084   8.490   5.984   3.639
 8048TIP3    H124085   8.495   6.007   3.545
 8048TIP3    H224086   8.567   6.032   3.675
 8049TIP3   OH224087   7.452   5.092   4.062
 8049TIP3    H124088   7.534   5.123   4.105
 8049TIP3    H224089   7.389   5.098   4.136
 8050TIP3   OH224090   7.922   4.530   3.303
 8050TIP3    H124091   8.008   4.528   3.257
 8050TIP3    H224092   7.949   4.517   3.395
 8051TIP3   OH224093   7.439   4.038   3.188
 8051TIP3    H124094   7.410   3.956   3.233
 8051TIP3    H224095   7.498   4.003   3.119
 8052TIP3   OH224096   7.889   4.427   3.618
 8052TIP3    H124097   7.807   4.479   3.617
 8052TIP3    H224098   7.952   4.487   3.664
 8053TIP3   OH224099   7.630   4.836   2.698
 8053TIP3    H124100   7.557   4.770   2.688
 8053TIP3    H224101   7.612   4.870   2.789
 8054TIP3   OH224102   8.530   5.075   3.330
 8054TIP3    H124103   8.568   5.101   3.245
 8054TIP3    H224104   8.450   5.026   3.304
 8055TIP3   OH224105   8.091   4.152   2.556
 8055TIP3    H124106   7.995   4.130   2.566
 8055TIP3    H224107   8.095   4.246   2.584
 8056TIP3   OH224108   8.028   5.153   3.694
 8056TIP3    H124109   8.055   5.131   3.784
 8056TIP3    H224110   7.992   5.243   3.703
 8057TIP3   OH224111   8.155   4.397   2.660
 8057TIP3    H124112   8.252   4.402   2.674
 8057TIP3    H224113   8.136   4.479   2.610
 8058TIP3   OH224114   7.320   4.847   3.375
 8058TIP3    H124115   7.359   4.828   3.288
 8058TIP3    H224116   7.373   4.791   3.433
 8059TIP3   OH224117   7.773   4.983   2.515
 8059TIP3    H124118   7.727   5.070   2.522
 8059TIP3    H224119   7.720   4.929   2.578
 8060TIP3   OH224120   7.199   4.782   3.990
 8060TIP3    H124121   7.224   4.765   4.083
 8060TIP3    H224122   7.136   4.709   3.972
 8061TIP3   OH224123   7.926   4.887   4.012
 8061TIP3    H124124   7.875   4.836   3.947
 8061TIP3    H224125   8.017   4.857   3.990
 8062TIP3   OH224126   8.190   5.415   3.589
 8062TIP3    H124127   8.094   5.412   3.603
 8062TIP3    H224128   8.219   5.465   3.669
 8063TIP3   OH224129   8.818   5.349   3.549
 8063TIP3    H124130   8.720   5.344   3.554
 8063TIP3    H224131   8.836   5.272   3.494
 8064TIP3   OH224132   8.287   5.304   2.405
 8064TIP3    H124133   8.279   5.235   2.472
 8064TIP3    H224134   8.316   5.255   2.326
 8065TIP3   OH224135   8.297   4.938   3.233
 8065TIP3    H124136   8.216   4.907   3.278
 8065TIP3    H224137   8.334   4.851   3.209
 8066TIP3   OH224138   7.422   5.158   2.995
 8066TIP3    H124139   7.420   5.241   2.944
 8066TIP3    H224140   7.328   5.145   3.015
 8067TIP3   OH224141   6.986   4.465   2.700
 8067TIP3    H124142   7.032   4.548   2.721
 8067TIP3    H224143   6.910   4.470   2.762
 8068TIP3   OH224144   7.563   4.926   2.942
 8068TIP3    H124145   7.527   5.015   2.960
 8068TIP3    H224146   7.529   4.876   3.018
 8069TIP3   OH224147   7.691   5.506   3.470
 8069TIP3    H124148   7.734   5.577   3.418
 8069TIP3    H224149   7.768   5.469   3.517
 8070TIP3   OH224150   7.342   5.400   2.850
 8070TIP3    H124151   7.256   5.406   2.898
 8070TIP3    H224152   7.372   5.493   2.854
 8071TIP3   OH224153   8.082   5.140   3.426
 8071TIP3    H124154   8.072   5.136   3.523
 8071TIP3    H224155   8.161   5.087   3.412
 8072TIP3   OH224156   8.052   5.029   2.310
 8072TIP3    H124157   8.107   5.006   2.388
 8072TIP3    H224158   7.964   5.005   2.343
 8073TIP3   OH224159   8.331   5.671   3.477
 8073TIP3    H124160   8.251   5.615   3.470
 8073TIP3    H224161   8.314   5.737   3.406
 8074TIP3   OH224162   8.380   5.501   2.127
 8074TIP3    H124163   8.432   5.564   2.077
 8074TIP3    H224164   8.309   5.559   2.162
 8075TIP3   OH224165   7.414   4.285   4.001
 8075TIP3    H124166   7.317   4.287   4.007
 8075TIP3    H224167   7.437   4.215   4.063
 8076TIP3   OH224168   8.206   4.967   2.528
 8076TIP3    H124169   8.200   4.900   2.599
 8076TIP3    H224170   8.302   4.964   2.507
 8077TIP3   OH224171   7.131   5.392   3.634
 8077TIP3    H124172   7.145   5.298   3.620
 8077TIP3    H224173   7.191   5.410   3.707
 8078TIP3   OH224174   7.419   5.012   2.308
 8078TIP3    H124175   7.438   4.920   2.281
 8078TIP3    H224176   7.403   5.002   2.404
 8079TIP3   OH224177   7.368   5.017   2.581
 8079TIP3    H124178   7.437   4.989   2.642
 8079TIP3    H224179   7.372   5.115   2.588
 8080TIP3   OH224180   7.102   4.711   2.785
 8080TIP3    H124181   7.037   4.755   2.843
 8080TIP3    H224182   7.117   4.781   2.719
 8081TIP3   OH224183   8.232   4.378   3.705
 8081TIP3    H124184   8.328   4.390   3.696
 8081TIP3    H224185   8.225   4.282   3.724
 8082TIP3   OH224186   8.131   4.094   2.837
 8082TIP3    H124187   8.114   4.127   2.747
 8082TIP3    H224188   8.169   4.174   2.881
 8083TIP3   OH224189   7.631   5.213   2.527
 8083TIP3    H124190   7.546   5.240   2.566
 8083TIP3    H224191   7.651   5.291   2.472
 8084TIP3   OH224192   7.818   4.278   2.942
 8084TIP3    H124193   7.884   4.350   2.928
 8084TIP3    H224194   7.824   4.266   3.039
 8085TIP3   OH224195   8.056   4.575   3.777
 8085TIP3    H124196   8.110   4.648   3.810
 8085TIP3    H224197   8.125   4.511   3.750
 8086TIP3   OH224198   7.963   4.002   3.044
 8086TIP3    H124199   7.978   4.063   3.120
 8086TIP3    H224200   8.024   4.041   2.978
 8087TIP3   OH224201   7.374   5.290   2.597
 8087TIP3    H124202   7.343   5.360   2.535
 8087TIP3    H224203   7.358   5.331   2.684
 8088TIP3   OH224204   7.477   4.004   2.835
 8088TIP3    H124205   7.476   4.094   2.872
 8088TIP3    H224206   7.573   3.984   2.845
 8089TIP3   OH224207   8.380   4.668   3.137
 8089TIP3    H124208   8.288   4.634   3.132
 8089TIP3    H224209   8.398   4.647   3.230
 8090TIP3   OH224210   7.092   4.922   2.589
 8090TIP3    H124211   7.155   4.994   2.604
 8090TIP3    H224212   7.142   4.870   2.523
 8091TIP3   OH224213   7.038   4.196   2.723
 8091TIP3    H124214   7.040   4.293   2.719
 8091TIP3    H224215   6.952   4.176   2.684
 8092TIP3   OH224216   8.344   5.643   3.070
 8092TIP3    H124217   8.302   5.692   2.996
 8092TIP3    H224218   8.438   5.666   3.052
 8093TIP3   OH224219   7.423   3.917   3.599
 8093TIP3    H124220   7.395   3.884   3.511
 8093TIP3    H224221   7.414   3.837   3.655
 8094TIP3   OH224222   6.968   5.125   2.973
 8094TIP3    H124223   6.912   5.156   3.046
 8094TIP3    H224224   6.930   5.173   2.896
 8095TIP3   OH224225   7.119   5.673   4.053
 8095TIP3    H124226   7.207   5.672   4.096
 8095TIP3    H224227   7.100   5.578   4.047
 8096TIP3   OH224228   7.603   5.641   4.096
 8096TIP3    H124229   7.698   5.624   4.100
 8096TIP3    H224230   7.578   5.583   4.021
 8097TIP3   OH224231   7.583   5.216   2.220
 8097TIP3    H124232   7.527   5.146   2.260
 8097TIP3    H224233   7.661   5.164   2.194
 8098TIP3   OH224234   8.241   5.546   3.827
 8098TIP3    H124235   8.234   5.477   3.897
 8098TIP3    H224236   8.319   5.598   3.857
 8099TIP3   OH224237   8.016   5.257   2.138
 8099TIP3    H124238   8.066   5.197   2.196
 8099TIP3    H224239   8.069   5.258   2.056
 8100TIP3   OH224240   7.251   5.079   4.253
 8100TIP3    H124241   7.267   4.983   4.250
 8100TIP3    H224242   7.164   5.085   4.206
 8101TIP3   OH224243   7.229   4.733   2.442
 8101TIP3    H124244   7.283   4.701   2.516
 8101TIP3    H224245   7.297   4.738   2.371
 8102TIP3   OH224246   7.856   5.164   4.025
 8102TIP3    H124247   7.820   5.183   3.936
 8102TIP3    H224248   7.889   5.072   4.015
 8103TIP3   OH224249   7.732   4.931   2.247
 8103TIP3    H124250   7.740   4.943   2.344
 8103TIP3    H224251   7.735   4.833   2.242
 8104TIP3   OH224252   8.347   5.172   3.627
 8104TIP3    H124253   8.427   5.213   3.588
 8104TIP3    H224254   8.282   5.242   3.612
 8105TIP3   OH224255   7.368   4.810   4.235
 8105TIP3    H124256   7.449   4.770   4.201
 8105TIP3    H224257   7.398   4.848   4.320
 8106TIP3   OH224258   7.436   4.636   2.665
 8106TIP3    H124259   7.410   4.597   2.750
 8106TIP3    H224260   7.473   4.559   2.617
 8107TIP3   OH224261   7.700   4.695   3.892
 8107TIP3    H124262   7.628   4.762   3.893
 8107TIP3    H224263   7.758   4.731   3.821
 8108TIP3   OH224264   7.536   4.427   2.507
 8108TIP3    H124265   7.512   4.433   2.412
 8108TIP3    H224266   7.634   4.433   2.501
 8109TIP3   OH224267   8.228   5.105   4.027
 8109TIP3    H124268   8.303   5.081   3.970
 8109TIP3    H224269   8.223   5.029   4.087
 8110TIP3   OH224270   8.328   4.772   2.191
 8110TIP3    H124271   8.343   4.715   2.113
 8110TIP3    H224272   8.287   4.851   2.150
 8111TIP3   OH224273   7.825   4.486   4.024
 8111TIP3    H124274   7.835   4.408   3.965
 8111TIP3    H224275   7.791   4.553   3.961
 8112TIP3   OH224276   7.829   4.270   3.834
 8112TIP3    H124277   7.862   4.317   3.754
 8112TIP3    H224278   7.737   4.252   3.808
 8113TIP3   OH224279   7.857   4.813   3.710
 8113TIP3    H124280   7.936   4.798   3.656
 8113TIP3    H224281   7.808   4.878   3.657
 8114TIP3   OH224282   8.457   4.779   4.092
 8114TIP3    H124283   8.491   4.691   4.071
 8114TIP3    H224284   8.516   4.835   4.039
 8115TIP3   OH224285   8.456   5.041   3.839
 8115TIP3    H124286   8.408   5.085   3.765
 8115TIP3    H224287   8.548   5.047   3.802
 8116TIP3   OH224288   7.706   4.601   4.251
 8116TIP3    H124289   7.637   4.533   4.255
 8116TIP3    H224290   7.742   4.585   4.161
 8117TIP3   OH224291   7.961   4.038   3.897
 8117TIP3    H124292   7.913   4.121   3.874
 8117TIP3    H224293   7.892   3.971   3.881
 8118TIP3   OH224294   8.091   4.545   4.109
 8118TIP3    H124295   8.077   4.532   4.204
 8118TIP3    H224296   8.004   4.520   4.072
 8119TIP3   OH224297   8.329   4.515   3.959
 8119TIP3    H124298   8.249   4.499   4.012
 8119TIP3    H224299   8.400   4.480   4.019
 8120TIP3   OH224300   8.528   4.445   4.121
 8120TIP3    H124301   8.559   4.354   4.139
 8120TIP3    H224302   8.558   4.492   4.201
 8121TIP3   OH224303   7.540   4.383   4.289
 8121TIP3    H124304   7.550   4.301   4.237
 8121TIP3    H224305   7.583   4.356   4.371
 8122TIP3   OH224306   8.057   4.044   4.152
 8122TIP3    H124307   8.122   3.971   4.144
 8122TIP3    H224308   8.018   4.043   4.062
 8123TIP3   OH224309   8.120   4.258   4.313
 8123TIP3    H124310   8.102   4.188   4.246
 8123TIP3    H224311   8.045   4.319   4.300
 8124TIP3   OH224312   7.343   5.492   2.408
 8124TIP3    H124313   7.439   5.488   2.392
 8124TIP3    H224314   7.316   5.543   2.330
 8125TIP3   OH224315   6.823   4.876   2.623
 8125TIP3    H124316   6.919   4.898   2.612
 8125TIP3    H224317   6.820   4.785   2.585
 8126TIP3   OH224318   6.740   5.484   3.043
 8126TIP3    H124319   6.673   5.422   3.008
 8126TIP3    H224320   6.785   5.426   3.110
 8127TIP3   OH224321   6.877   5.330   3.224
 8127TIP3    H124322   6.857   5.254   3.285
 8127TIP3    H224323   6.926   5.386   3.287
 8128TIP3   OH224324   8.589   5.744   3.022
 8128TIP3    H124325   8.630   5.764   3.109
 8128TIP3    H224326   8.656   5.769   2.957
 8129TIP3   OH224327   8.646   5.753   3.299
 8129TIP3    H124328   8.594   5.670   3.296
 8129TIP3    H224329   8.704   5.731   3.375
 8130TIP3   OH224330   8.676   5.446   3.878
 8130TIP3    H124331   8.603   5.447   3.943
 8130TIP3    H224332   8.711   5.537   3.885
 8131TIP3   OH224333   8.482   4.977   2.511
 8131TIP3    H124334   8.525   5.063   2.530
 8131TIP3    H224335   8.503   4.927   2.590
 8132TIP3   OH224336   8.696   5.205   3.116
 8132TIP3    H124337   8.696   5.140   3.044
 8132TIP3    H224338   8.626   5.266   3.089
 8133TIP3   OH224339   8.507   5.511   3.329
 8133TIP3    H124340   8.439   5.551   3.387
 8133TIP3    H224341   8.452   5.463   3.263
 8134TIP3   OH224342   8.433   4.660   2.840
 8134TIP3    H124343   8.444   4.569   2.869
 8134TIP3    H224344   8.443   4.705   2.927
 8135TIP3   OH224345   7.063   4.722   3.616
 8135TIP3    H124346   7.046   4.736   3.521
 8135TIP3    H224347   7.161   4.735   3.620
 8136TIP3   OH224348   8.693   5.111   3.719
 8136TIP3    H124349   8.748   5.040   3.679
 8136TIP3    H224350   8.728   5.190   3.676
 8137TIP3   OH224351   8.429   4.370   2.726
 8137TIP3    H124352   8.473   4.308   2.787
 8137TIP3    H224353   8.502   4.424   2.694
 8138TIP3   OH224354   8.656   4.701   3.493
 8138TIP3    H124355   8.562   4.697   3.521
 8138TIP3    H224356   8.681   4.783   3.537
 8139TIP3   OH224357   7.273   4.431   4.277
 8139TIP3    H124358   7.371   4.426   4.268
 8139TIP3    H224359   7.253   4.344   4.316
 8140TIP3   OH224360   7.240   4.125   3.610
 8140TIP3    H124361   7.302   4.050   3.615
 8140TIP3    H224362   7.302   4.200   3.599
 8141TIP3   OH224363   7.048   4.401   3.678
 8141TIP3    H124364   7.096   4.391   3.593
 8141TIP3    H224365   7.071   4.493   3.699
 8142TIP3   OH224366   7.026   3.901   3.177
 8142TIP3    H124367   6.933   3.900   3.203
 8142TIP3    H224368   7.026   3.961   3.099
 8143TIP3   OH224369   8.185   5.606   2.683
 8143TIP3    H124370   8.234   5.588   2.599
 8143TIP3    H224371   8.243   5.670   2.726
 8144TIP3   OH224372   7.248   3.986   3.995
 8144TIP3    H124373   7.194   3.978   4.075
 8144TIP3    H224374   7.183   4.021   3.931
 8145TIP3   OH224375   7.288   5.407   4.071
 8145TIP3    H124376   7.197   5.380   4.052
 8145TIP3    H224377   7.294   5.394   4.166
 8146TIP3   OH224378   7.465   5.441   3.620
 8146TIP3    H124379   7.413   5.512   3.578
 8146TIP3    H224380   7.551   5.457   3.575
 8147TIP3   OH224381   7.912   5.687   3.755
 8147TIP3    H124382   7.954   5.689   3.844
 8147TIP3    H224383   7.978   5.737   3.703
 8148TIP3   OH224384   8.091   5.837   3.612
 8148TIP3    H124385   8.163   5.786   3.573
 8148TIP3    H224386   8.142   5.894   3.674
 8149TIP3   OH224387   7.147   5.715   3.635
 8149TIP3    H124388   7.056   5.742   3.612
 8149TIP3    H224389   7.145   5.724   3.730
 8150TIP3   OH224390   7.381   5.678   3.497
 8150TIP3    H124391   7.295   5.692   3.543
 8150TIP3    H224392   7.359   5.708   3.407
 8151TIP3   OH224393   7.805   5.707   3.294
 8151TIP3    H124394   7.734   5.727   3.230
 8151TIP3    H224395   7.817   5.794   3.338
 8152TIP3   OH224396   8.072   5.645   3.346
 8152TIP3    H124397   7.978   5.663   3.326
 8152TIP3    H224398   8.116   5.723   3.308
 8153TIP3   OH224399   8.279   5.837   3.263
 8153TIP3    H124400   8.268   5.923   3.216
 8153TIP3    H224401   8.304   5.777   3.190
 8154TIP3   OH224402   7.047   5.491   3.389
 8154TIP3    H124403   7.074   5.465   3.480
 8154TIP3    H224404   7.117   5.443   3.338
 8155TIP3   OH224405   7.244   5.364   3.242
 8155TIP3    H124406   7.257   5.281   3.295
 8155TIP3    H224407   7.336   5.398   3.239
 8156TIP3   OH224408   7.515   5.459   3.243
 8156TIP3    H124409   7.545   5.367   3.231
 8156TIP3    H224410   7.556   5.479   3.329
 8157TIP3   OH224411   8.066   4.109   3.303
 8157TIP3    H124412   8.042   4.051   3.377
 8157TIP3    H224413   8.157   4.078   3.283
 8158TIP3   OH224414   7.339   3.823   3.350
 8158TIP3    H124415   7.246   3.792   3.351
 8158TIP3    H224416   7.387   3.738   3.345
 8159TIP3   OH224417   7.123   3.692   2.995
 8159TIP3    H124418   7.154   3.751   2.924
 8159TIP3    H224419   7.095   3.757   3.063
 8160TIP3   OH224420   7.783   3.854   3.231
 8160TIP3    H124421   7.834   3.908   3.168
 8160TIP3    H224422   7.804   3.898   3.315
 8161TIP3   OH224423   8.288   3.986   3.210
 8161TIP3    H124424   8.335   3.977   3.127
 8161TIP3    H224425   8.302   3.899   3.252
 8162TIP3   OH224426   8.347   3.936   2.765
 8162TIP3    H124427   8.267   3.989   2.783
 8162TIP3    H224428   8.328   3.859   2.823
 8163TIP3   OH224429   6.843   5.262   2.775
 8163TIP3    H124430   6.758   5.230   2.741
 8163TIP3    H224431   6.830   5.357   2.767
 8164TIP3   OH224432   7.241   3.852   2.761
 8164TIP3    H124433   7.291   3.792   2.703
 8164TIP3    H224434   7.312   3.908   2.797
 8165TIP3   OH224435   7.755   4.027   2.860
 8165TIP3    H124436   7.818   3.985   2.921
 8165TIP3    H224437   7.773   4.120   2.884
 8166TIP3   OH224438   7.612   5.454   2.357
 8166TIP3    H124439   7.702   5.474   2.324
 8166TIP3    H224440   7.591   5.378   2.299
 8167TIP3   OH224441   8.327   5.568   2.450
 8167TIP3    H124442   8.320   5.470   2.437
 8167TIP3    H224443   8.286   5.599   2.367
 8168TIP3   OH224444   7.542   4.102   4.243
 8168TIP3    H124445   7.513   4.028   4.298
 8168TIP3    H224446   7.637   4.105   4.267
 8169TIP3   OH224447   7.791   4.097   4.350
 8169TIP3    H124448   7.880   4.082   4.313
 8169TIP3    H224449   7.790   4.037   4.426
 8170TIP3   OH224450   6.917   5.292   2.417
 8170TIP3    H124451   6.914   5.314   2.511
 8170TIP3    H224452   7.006   5.252   2.407
 8171TIP3   OH224453   8.604   4.188   4.177
 8171TIP3    H124454   8.631   4.156   4.265
 8171TIP3    H224455   8.671   4.150   4.119
 8172TIP3   OH224456   8.562   5.718   3.637
 8172TIP3    H124457   8.481   5.685   3.593
 8172TIP3    H224458   8.540   5.813   3.644
 8173TIP3   OH224459   8.517   5.743   2.545
 8173TIP3    H124460   8.457   5.678   2.501
 8173TIP3    H224461   8.598   5.692   2.554
 8174TIP3   OH224462   0.488   5.610   4.614
 8174TIP3    H124463   0.455   5.700   4.604
 8174TIP3    H224464   0.412   5.560   4.579
 8175TIP3   OH224465   0.490   5.606   4.984
 8175TIP3    H124466   0.517   5.582   5.074
 8175TIP3    H224467   0.441   5.526   4.957
 8176TIP3   OH224468   0.719   5.922   4.671
 8176TIP3    H124469   0.711   5.853   4.737
 8176TIP3    H224470   0.750   5.997   4.724
 8177TIP3   OH224471   0.390   6.387   4.678
 8177TIP3    H124472   0.425   6.309   4.630
 8177TIP3    H224473   0.376   6.352   4.767
 8178TIP3   OH224474   0.326   5.826   4.990
 8178TIP3    H124475   0.376   5.743   4.982
 8178TIP3    H224476   0.387   5.877   5.046
 8179TIP3   OH224477   1.289   5.165   5.035
 8179TIP3    H124478   1.320   5.247   5.078
 8179TIP3    H224479   1.313   5.183   4.942
 8180TIP3   OH224480   0.693   5.347   5.073
 8180TIP3    H124481   0.735   5.261   5.091
 8180TIP3    H224482   0.660   5.333   4.982
 8181TIP3   OH224483   0.722   5.095   4.658
 8181TIP3    H124484   0.792   5.078   4.725
 8181TIP3    H224485   0.776   5.131   4.585
 8182TIP3   OH224486   1.365   5.372   5.205
 8182TIP3    H124487   1.282   5.420   5.185
 8182TIP3    H224488   1.377   5.398   5.298
 8183TIP3   OH224489   0.357   5.831   4.485
 8183TIP3    H124490   0.353   5.816   4.389
 8183TIP3    H224491   0.412   5.910   4.494
 8184TIP3   OH224492   0.933   5.098   4.827
 8184TIP3    H124493   0.926   5.046   4.908
 8184TIP3    H224494   0.988   5.174   4.856
 8185TIP3   OH224495   0.789   6.160   4.836
 8185TIP3    H124496   0.700   6.157   4.879
 8185TIP3    H224497   0.785   6.250   4.795
 8186TIP3   OH224498   1.083   5.066   5.202
 8186TIP3    H124499   0.996   5.094   5.170
 8186TIP3    H224500   1.143   5.097   5.131
 8187TIP3   OH224501   0.388   4.717   5.176
 8187TIP3    H124502   0.389   4.621   5.199
 8187TIP3    H224503   0.307   4.743   5.224
 8188TIP3   OH224504   0.488   6.200   4.497
 8188TIP3    H124505   0.544   6.122   4.479
 8188TIP3    H224506   0.550   6.271   4.470
 8189TIP3   OH224507   0.624   5.979   4.421
 8189TIP3    H124508   0.633   5.900   4.366
 8189TIP3    H224509   0.674   5.954   4.503
 8190TIP3   OH224510   1.020   6.075   5.184
 8190TIP3    H124511   1.009   6.000   5.123
 8190TIP3    H224512   1.004   6.151   5.124
 8191TIP3   OH224513   0.321   5.470   4.440
 8191TIP3    H124514   0.237   5.517   4.423
 8191TIP3    H224515   0.363   5.468   4.352
 8192TIP3   OH224516   0.277   5.254   4.147
 8192TIP3    H124517   0.336   5.305   4.205
 8192TIP3    H224518   0.341   5.192   4.107
 8193TIP3   OH224519   1.216   5.712   5.026
 8193TIP3    H124520   1.133   5.764   5.032
 8193TIP3    H224521   1.245   5.737   4.936
 8194TIP3   OH224522   0.660   5.552   4.411
 8194TIP3    H124523   0.606   5.572   4.491
 8194TIP3    H224524   0.744   5.525   4.454
 8195TIP3   OH224525   0.894   5.593   5.322
 8195TIP3    H124526   0.893   5.677   5.372
 8195TIP3    H224527   0.809   5.600   5.274
 8196TIP3   OH224528   0.547   6.152   4.961
 8196TIP3    H124529   0.511   6.226   5.013
 8196TIP3    H224530   0.536   6.076   5.021
 8197TIP3   OH224531   0.503   5.410   4.235
 8197TIP3    H124532   0.561   5.469   4.288
 8197TIP3    H224533   0.532   5.434   4.143
 8198TIP3   OH224534   1.013   4.653   4.282
 8198TIP3    H124535   0.934   4.672   4.336
 8198TIP3    H224536   1.027   4.739   4.238
 8199TIP3   OH224537   0.814   6.019   3.833
 8199TIP3    H124538   0.822   6.116   3.818
 8199TIP3    H224539   0.907   5.991   3.821
 8200TIP3   OH224540   1.268   6.419   5.225
 8200TIP3    H124541   1.258   6.324   5.243
 8200TIP3    H224542   1.183   6.451   5.264
 8201TIP3   OH224543   0.338   6.246   3.948
 8201TIP3    H124544   0.391   6.170   3.917
 8201TIP3    H224545   0.346   6.241   4.044
 8202TIP3   OH224546   0.361   6.276   4.247
 8202TIP3    H124547   0.293   6.306   4.309
 8202TIP3    H224548   0.436   6.261   4.307
 8203TIP3   OH224549   1.148   5.552   5.504
 8203TIP3    H124550   1.068   5.567   5.450
 8203TIP3    H224551   1.163   5.456   5.489
 8204TIP3   OH224552   0.680   4.902   5.507
 8204TIP3    H124553   0.749   4.871   5.569
 8204TIP3    H224554   0.597   4.878   5.554
 8205TIP3   OH224555   0.917   5.328   5.423
 8205TIP3    H124556   0.868   5.324   5.508
 8205TIP3    H224557   0.894   5.417   5.389
 8206TIP3   OH224558   0.574   5.461   3.979
 8206TIP3    H124559   0.543   5.433   3.891
 8206TIP3    H224560   0.655   5.510   3.955
 8207TIP3   OH224561   0.284   4.839   4.274
 8207TIP3    H124562   0.260   4.837   4.369
 8207TIP3    H224563   0.244   4.753   4.248
 8208TIP3   OH224564   0.455   5.270   4.574
 8208TIP3    H124565   0.401   5.341   4.533
 8208TIP3    H224566   0.506   5.237   4.499
 8209TIP3   OH224567   0.661   5.542   5.657
 8209TIP3    H124568   0.638   5.468   5.716
 8209TIP3    H224569   0.754   5.557   5.683
 8210TIP3   OH224570   0.609   5.301   4.813
 8210TIP3    H124571   0.549   5.331   4.742
 8210TIP3    H224572   0.640   5.218   4.771
 8211TIP3   OH224573   0.613   5.547   5.234
 8211TIP3    H124574   0.649   5.478   5.174
 8211TIP3    H224575   0.595   5.492   5.313
 8212TIP3   OH224576   0.297   5.018   4.899
 8212TIP3    H124577   0.207   4.986   4.915
 8212TIP3    H224578   0.342   5.007   4.984
 8213TIP3   OH224579   0.776   5.084   5.109
 8213TIP3    H124580   0.740   5.095   5.199
 8213TIP3    H224581   0.712   5.020   5.072
 8214TIP3   OH224582   0.948   6.774   5.314
 8214TIP3    H124583   0.958   6.798   5.221
 8214TIP3    H224584   1.011   6.829   5.361
 8215TIP3   OH224585   0.382   5.338   5.013
 8215TIP3    H124586   0.436   5.293   4.947
 8215TIP3    H224587   0.401   5.288   5.094
 8216TIP3   OH224588   0.364   5.244   5.300
 8216TIP3    H124589   0.308   5.323   5.303
 8216TIP3    H224590   0.442   5.275   5.350
 8217TIP3   OH224591   0.984   5.858   5.019
 8217TIP3    H124592   1.008   5.909   4.938
 8217TIP3    H224593   0.899   5.817   4.993
 8218TIP3   OH224594   0.537   4.941   4.238
 8218TIP3    H124595   0.442   4.922   4.256
 8218TIP3    H224596   0.550   5.031   4.275
 8219TIP3   OH224597   0.468   5.932   5.391
 8219TIP3    H124598   0.509   5.930   5.478
 8219TIP3    H224599   0.420   6.016   5.393
 8220TIP3   OH224600   0.612   5.180   4.351
 8220TIP3    H124601   0.707   5.186   4.371
 8220TIP3    H224602   0.596   5.263   4.301
 8221TIP3   OH224603   0.215   5.770   4.221
 8221TIP3    H124604   0.162   5.850   4.229
 8221TIP3    H224605   0.165   5.707   4.276
 8222TIP3   OH224606   0.413   5.633   5.653
 8222TIP3    H124607   0.391   5.622   5.559
 8222TIP3    H224608   0.509   5.614   5.651
 8223TIP3   OH224609   0.646   6.189   5.298
 8223TIP3    H124610   0.558   6.221   5.274
 8223TIP3    H224611   0.674   6.252   5.366
 8224TIP3   OH224612   1.052   5.272   4.191
 8224TIP3    H124613   0.990   5.227   4.129
 8224TIP3    H224614   1.051   5.361   4.150
 8225TIP3   OH224615   1.272   6.125   5.273
 8225TIP3    H124616   1.174   6.125   5.265
 8225TIP3    H224617   1.296   6.098   5.182
 8226TIP3   OH224618   0.746   6.090   4.095
 8226TIP3    H124619   0.732   6.017   4.156
 8226TIP3    H224620   0.765   6.046   4.010
 8227TIP3   OH224621   0.749   5.720   4.938
 8227TIP3    H124622   0.655   5.694   4.950
 8227TIP3    H224623   0.783   5.641   4.892
 8228TIP3   OH224624   0.545   5.924   5.122
 8228TIP3    H124625   0.533   5.925   5.219
 8228TIP3    H224626   0.628   5.875   5.112
 8229TIP3   OH224627   0.512   5.814   3.999
 8229TIP3    H124628   0.560   5.791   4.082
 8229TIP3    H224629   0.421   5.789   4.022
 8230TIP3   OH224630   0.782   6.438   5.146
 8230TIP3    H124631   0.703   6.391   5.116
 8230TIP3    H224632   0.779   6.518   5.089
 8231TIP3   OH224633   0.848   6.294   3.818
 8231TIP3    H124634   0.888   6.368   3.769
 8231TIP3    H224635   0.768   6.339   3.851
 8232TIP3   OH224636   0.667   5.758   4.227
 8232TIP3    H124637   0.659   5.684   4.291
 8232TIP3    H224638   0.763   5.751   4.206
 8233TIP3   OH224639   0.699   5.140   5.371
 8233TIP3    H124640   0.785   5.172   5.404
 8233TIP3    H224641   0.688   5.057   5.422
 8234TIP3   OH224642   0.589   4.885   4.529
 8234TIP3    H124643   0.570   4.914   4.438
 8234TIP3    H224644   0.624   4.968   4.570
 8235TIP3   OH224645   0.277   5.065   4.633
 8235TIP3    H124646   0.339   5.139   4.620
 8235TIP3    H224647   0.276   5.058   4.731
 8236TIP3   OH224648   0.557   5.391   5.447
 8236TIP3    H124649   0.585   5.440   5.527
 8236TIP3    H224650   0.610   5.309   5.455
 8237TIP3   OH224651   0.421   4.798   4.743
 8237TIP3    H124652   0.411   4.879   4.796
 8237TIP3    H224653   0.476   4.831   4.669
 8238TIP3   OH224654   1.185   5.286   5.422
 8238TIP3    H124655   1.087   5.283   5.429
 8238TIP3    H224656   1.196   5.245   5.335
 8239TIP3   OH224657   0.834   5.480   4.809
 8239TIP3    H124658   0.759   5.420   4.823
 8239TIP3    H224659   0.906   5.433   4.857
 8240TIP3   OH224660   0.807   6.426   4.757
 8240TIP3    H124661   0.761   6.480   4.689
 8240TIP3    H224662   0.900   6.452   4.737
 8241TIP3   OH224663   0.474   6.041   3.822
 8241TIP3    H124664   0.524   5.982   3.882
 8241TIP3    H224665   0.534   6.049   3.746
 8242TIP3   OH224666   0.192   5.715   3.937
 8242TIP3    H124667   0.185   5.732   4.032
 8242TIP3    H224668   0.186   5.617   3.934
 8243TIP3   OH224669   0.803   5.958   5.317
 8243TIP3    H124670   0.880   6.003   5.276
 8243TIP3    H224671   0.736   6.030   5.310
 8244TIP3   OH224672   0.024   5.134   4.152
 8244TIP3    H124673  -0.008   5.147   4.061
 8244TIP3    H224674   0.115   5.170   4.149
 8245TIP3   OH224675   0.667   5.877   5.725
 8245TIP3    H124676   0.743   5.871   5.666
 8245TIP3    H224677   0.688   5.812   5.794
 8246TIP3   OH224678   0.811   5.548   3.857
 8246TIP3    H124679   0.791   5.504   3.773
 8246TIP3    H224680   0.780   5.639   3.835
 8247TIP3   OH224681   0.272   5.005   5.460
 8247TIP3    H124682   0.323   5.084   5.433
 8247TIP3    H224683   0.217   5.042   5.531
 8248TIP3   OH224684   0.331   5.646   5.387
 8248TIP3    H124685   0.415   5.615   5.349
 8248TIP3    H224686   0.331   5.739   5.355
 8249TIP3   OH224687   0.905   5.564   5.774
 8249TIP3    H124688   0.956   5.482   5.782
 8249TIP3    H224689   0.969   5.626   5.737
 8250TIP3   OH224690   0.934   5.817   5.506
 8250TIP3    H124691   0.877   5.871   5.446
 8250TIP3    H224692   1.022   5.839   5.468
 8251TIP3   OH224693   0.426   4.822   5.583
 8251TIP3    H124694   0.370   4.889   5.537
 8251TIP3    H224695   0.367   4.744   5.577
 8252TIP3   OH224696   0.558   5.332   5.797
 8252TIP3    H124697   0.560   5.343   5.894
 8252TIP3    H224698   0.479   5.277   5.785
 8253TIP3   OH224699   0.788   5.276   5.654
 8253TIP3    H124700   0.713   5.277   5.717
 8253TIP3    H224701   0.862   5.247   5.710
 8254TIP3   OH224702   1.012   5.221   5.806
 8254TIP3    H124703   1.023   5.125   5.825
 8254TIP3    H224704   1.007   5.260   5.896
 8255TIP3   OH224705   0.528   4.846   5.836
 8255TIP3    H124706   0.586   4.767   5.836
 8255TIP3    H224707   0.482   4.835   5.751
 8256TIP3   OH224708   0.563   5.062   5.997
 8256TIP3    H124709   0.557   4.982   5.939
 8256TIP3    H224710   0.473   5.097   5.992
 8257TIP3   OH224711   1.055   6.527   4.714
 8257TIP3    H124712   1.080   6.557   4.803
 8257TIP3    H224713   1.119   6.572   4.658
 8258TIP3   OH224714   1.090   6.547   4.992
 8258TIP3    H124715   1.043   6.462   4.989
 8258TIP3    H224716   1.152   6.529   5.064
 8259TIP3   OH224717   1.134   6.223   5.572
 8259TIP3    H124718   1.053   6.229   5.625
 8259TIP3    H224719   1.163   6.317   5.572
 8260TIP3   OH224720   0.945   5.737   4.192
 8260TIP3    H124721   1.013   5.801   4.162
 8260TIP3    H224722   0.989   5.698   4.271
 8261TIP3   OH224723   1.073   5.605   4.395
 8261TIP3    H124724   1.008   5.562   4.455
 8261TIP3    H224725   1.139   5.642   4.456
 8262TIP3   OH224726   1.126   5.994   4.827
 8262TIP3    H124727   1.180   5.932   4.775
 8262TIP3    H224728   1.119   6.071   4.767
 8263TIP3   OH224729   0.968   6.290   5.019
 8263TIP3    H124730   0.903   6.340   5.072
 8263TIP3    H224731   0.911   6.248   4.951
 8264TIP3   OH224732   1.012   5.511   4.042
 8264TIP3    H124733   0.941   5.515   3.974
 8264TIP3    H224734   0.986   5.587   4.098
 8265TIP3   OH224735   0.883   5.184   3.997
 8265TIP3    H124736   0.842   5.224   3.920
 8265TIP3    H224737   0.857   5.090   3.986
 8266TIP3   OH224738   0.888   5.460   4.542
 8266TIP3    H124739   0.897   5.363   4.538
 8266TIP3    H224740   0.874   5.474   4.639
 8267TIP3   OH224741   1.177   5.884   5.399
 8267TIP3    H124742   1.251   5.821   5.390
 8267TIP3    H224743   1.202   5.955   5.338
 8268TIP3   OH224744   1.364   5.691   5.417
 8268TIP3    H124745   1.289   5.641   5.458
 8268TIP3    H224746   1.436   5.626   5.431
 8269TIP3   OH224747   0.828   4.917   3.979
 8269TIP3    H124748   0.906   4.891   4.033
 8269TIP3    H224749   0.757   4.859   4.012
 8270TIP3   OH224750   0.883   5.174   4.437
 8270TIP3    H124751   0.923   5.085   4.453
 8270TIP3    H224752   0.945   5.207   4.369
 8271TIP3   OH224753   1.047   5.352   4.932
 8271TIP3    H124754   1.133   5.377   4.892
 8271TIP3    H224755   1.061   5.388   5.022
 8272TIP3   OH224756   1.115   5.494   5.165
 8272TIP3    H124757   1.036   5.529   5.212
 8272TIP3    H224758   1.148   5.574   5.119
 8273TIP3   OH224759   1.568   5.085   5.721
 8273TIP3    H124760   1.627   5.019   5.678
 8273TIP3    H224761   1.539   5.138   5.644
 8274TIP3   OH224762   0.993   4.925   4.474
 8274TIP3    H124763   1.043   4.911   4.557
 8274TIP3    H224764   0.933   4.848   4.475
 8275TIP3   OH224765   1.439   5.225   5.527
 8275TIP3    H124766   1.351   5.265   5.546
 8275TIP3    H224767   1.411   5.154   5.467
 8276TIP3   OH224768   1.074   4.866   4.102
 8276TIP3    H124769   1.119   4.789   4.061
 8276TIP3    H224770   1.145   4.933   4.103
 8277TIP3   OH224771   0.637   6.387   4.373
 8277TIP3    H124772   0.689   6.377   4.290
 8277TIP3    H224773   0.688   6.455   4.419
 8278TIP3   OH224774   0.615   6.602   5.290
 8278TIP3    H124775   0.679   6.538   5.256
 8278TIP3    H224776   0.647   6.609   5.382
 8279TIP3   OH224777   1.336   4.988   5.404
 8279TIP3    H124778   1.246   4.982   5.369
 8279TIP3    H224779   1.367   4.895   5.393
 8280TIP3   OH224780   0.553   6.460   4.964
 8280TIP3    H124781   0.463   6.435   4.993
 8280TIP3    H224782   0.557   6.553   4.985
 8281TIP3   OH224783   0.766   6.645   4.952
 8281TIP3    H124784   0.735   6.720   4.898
 8281TIP3    H224785   0.758   6.569   4.890
 8282TIP3   OH224786   0.547   4.904   5.029
 8282TIP3    H124787   0.498   4.834   5.076
 8282TIP3    H224788   0.612   4.854   4.977
 8283TIP3   OH224789   1.066   4.782   4.929
 8283TIP3    H124790   1.103   4.834   4.853
 8283TIP3    H224791   0.970   4.799   4.920
 8284TIP3   OH224792   1.159   4.885   4.691
 8284TIP3    H124793   1.232   4.832   4.652
 8284TIP3    H224794   1.194   4.976   4.676
 8285TIP3   OH224795   0.246   4.632   4.920
 8285TIP3    H124796   0.293   4.690   4.858
 8285TIP3    H224797   0.261   4.676   5.004
 8286TIP3   OH224798   0.784   4.791   4.902
 8286TIP3    H124799   0.777   4.753   4.814
 8286TIP3    H224800   0.769   4.711   4.959
 8287TIP3   OH224801   0.809   4.712   4.463
 8287TIP3    H124802   0.724   4.756   4.480
 8287TIP3    H224803   0.796   4.628   4.512
 8288TIP3   OH224804   0.224   4.817   4.536
 8288TIP3    H124805   0.263   4.773   4.613
 8288TIP3    H224806   0.228   4.910   4.566
 8289TIP3   OH224807   0.781   6.356   4.141
 8289TIP3    H124808   0.772   6.259   4.126
 8289TIP3    H224809   0.740   6.391   4.059
 8290TIP3   OH224810   1.072   4.950   5.837
 8290TIP3    H124811   1.090   4.918   5.928
 8290TIP3    H224812   1.161   4.944   5.795
 8291TIP3   OH224813   1.028   6.507   5.308
 8291TIP3    H124814   0.943   6.462   5.300
 8291TIP3    H224815   0.997   6.591   5.346
 8292TIP3   OH224816   2.277   5.875   4.096
 8292TIP3    H124817   2.249   5.967   4.077
 8292TIP3    H224818   2.200   5.826   4.064
 8293TIP3   OH224819   2.276   5.875   4.474
 8293TIP3    H124820   2.306   5.844   4.561
 8293TIP3    H224821   2.234   5.795   4.438
 8294TIP3   OH224822   1.577   5.772   4.840
 8294TIP3    H124823   1.608   5.703   4.903
 8294TIP3    H224824   1.654   5.830   4.836
 8295TIP3   OH224825   2.518   6.177   4.156
 8295TIP3    H124826   2.505   6.106   4.220
 8295TIP3    H224827   2.546   6.251   4.212
 8296TIP3   OH224828   1.546   6.179   4.569
 8296TIP3    H124829   1.538   6.081   4.571
 8296TIP3    H224830   1.643   6.189   4.563
 8297TIP3   OH224831   1.255   5.384   4.352
 8297TIP3    H124832   1.208   5.468   4.367
 8297TIP3    H224833   1.183   5.329   4.318
 8298TIP3   OH224834   1.312   5.670   4.520
 8298TIP3    H124835   1.361   5.593   4.558
 8298TIP3    H224836   1.374   5.700   4.452
 8299TIP3   OH224837   2.172   6.643   4.175
 8299TIP3    H124838   2.217   6.571   4.127
 8299TIP3    H224839   2.155   6.603   4.261
 8300TIP3   OH224840   2.076   6.101   4.524
 8300TIP3    H124841   2.112   6.024   4.478
 8300TIP3    H224842   2.160   6.145   4.547
 8301TIP3   OH224843   3.085   5.422   4.521
 8301TIP3    H124844   3.116   5.504   4.565
 8301TIP3    H224845   3.109   5.440   4.429
 8302TIP3   OH224846   2.487   5.604   4.558
 8302TIP3    H124847   2.529   5.518   4.579
 8302TIP3    H224848   2.457   5.588   4.467
 8303TIP3   OH224849   1.823   5.261   4.523
 8303TIP3    H124850   1.803   5.334   4.459
 8303TIP3    H224851   1.776   5.187   4.478
 8304TIP3   OH224852   2.518   5.353   4.145
 8304TIP3    H124853   2.589   5.336   4.211
 8304TIP3    H224854   2.571   5.388   4.071
 8305TIP3   OH224855   1.459   5.465   4.628
 8305TIP3    H124856   1.541   5.445   4.677
 8305TIP3    H224857   1.472   5.408   4.549
 8306TIP3   OH224858   1.900   5.661   4.420
 8306TIP3    H124859   1.994   5.636   4.434
 8306TIP3    H224860   1.861   5.577   4.389
 8307TIP3   OH224861   3.162   5.629   4.691
 8307TIP3    H124862   3.078   5.676   4.671
 8307TIP3    H224863   3.171   5.649   4.785
 8308TIP3   OH224864   1.822   5.246   4.956
 8308TIP3    H124865   1.761   5.282   4.890
 8308TIP3    H224866   1.771   5.263   5.038
 8309TIP3   OH224867   2.172   6.098   3.964
 8309TIP3    H124868   2.125   6.075   3.884
 8309TIP3    H224869   2.128   6.182   3.989
 8310TIP3   OH224870   1.929   6.020   4.754
 8310TIP3    H124871   1.865   6.084   4.792
 8310TIP3    H224872   1.968   6.072   4.681
 8311TIP3   OH224873   2.730   5.354   4.314
 8311TIP3    H124874   2.723   5.303   4.396
 8311TIP3    H224875   2.784   5.430   4.342
 8312TIP3   OH224876   1.691   5.360   4.741
 8312TIP3    H124877   1.755   5.431   4.765
 8312TIP3    H224878   1.740   5.319   4.666
 8313TIP3   OH224879   1.755   6.212   4.850
 8313TIP3    H124880   1.730   6.298   4.811
 8313TIP3    H224881   1.676   6.197   4.906
 8314TIP3   OH224882   1.150   5.903   4.086
 8314TIP3    H124883   1.111   5.935   4.003
 8314TIP3    H224884   1.182   5.987   4.125
 8315TIP3   OH224885   2.592   6.420   4.327
 8315TIP3    H124886   2.503   6.410   4.367
 8315TIP3    H224887   2.582   6.505   4.280
 8316TIP3   OH224888   2.879   5.323   4.689
 8316TIP3    H124889   2.792   5.351   4.657
 8316TIP3    H224890   2.939   5.354   4.618
 8317TIP3   OH224891   2.179   4.963   4.670
 8317TIP3    H124892   2.166   4.868   4.689
 8317TIP3    H224893   2.101   5.001   4.716
 8318TIP3   OH224894   2.295   6.465   4.003
 8318TIP3    H124895   2.345   6.383   3.980
 8318TIP3    H224896   2.355   6.531   3.961
 8319TIP3   OH224897   2.438   6.251   3.904
 8319TIP3    H124898   2.393   6.174   3.867
 8319TIP3    H224899   2.472   6.215   3.989
 8320TIP3   OH224900   2.817   6.334   4.669
 8320TIP3    H124901   2.805   6.256   4.611
 8320TIP3    H224902   2.800   6.408   4.606
 8321TIP3   OH224903   2.108   5.726   3.925
 8321TIP3    H124904   2.028   5.778   3.904
 8321TIP3    H224905   2.154   5.724   3.840
 8322TIP3   OH224906   2.066   5.510   3.643
 8322TIP3    H124907   2.133   5.561   3.692
 8322TIP3    H224908   2.124   5.447   3.596
 8323TIP3   OH224909   3.012   5.970   4.514
 8323TIP3    H124910   2.928   6.022   4.519
 8323TIP3    H224911   3.040   5.994   4.423
 8324TIP3   OH224912   2.455   5.809   3.898
 8324TIP3    H124913   2.401   5.833   3.977
 8324TIP3    H224914   2.539   5.784   3.942
 8325TIP3   OH224915   2.690   5.850   4.808
 8325TIP3    H124916   2.686   5.934   4.857
 8325TIP3    H224917   2.603   5.852   4.763
 8326TIP3   OH224918   1.688   5.808   4.315
 8326TIP3    H124919   1.646   5.750   4.247
 8326TIP3    H224920   1.765   5.754   4.343
 8327TIP3   OH224921   1.819   6.216   4.464
 8327TIP3    H124922   1.796   6.169   4.382
 8327TIP3    H224923   1.909   6.183   4.482
 8328TIP3   OH224924   1.827   5.777   4.669
 8328TIP3    H124925   1.858   5.757   4.579
 8328TIP3    H224926   1.868   5.864   4.688
 8329TIP3   OH224927   2.351   6.416   4.446
 8329TIP3    H124928   2.336   6.495   4.500
 8329TIP3    H224929   2.335   6.342   4.509
 8330TIP3   OH224930   1.961   6.336   4.993
 8330TIP3    H124931   1.900   6.398   5.039
 8330TIP3    H224932   1.896   6.282   4.942
 8331TIP3   OH224933   2.296   5.667   3.723
 8331TIP3    H124934   2.355   5.727   3.776
 8331TIP3    H224935   2.324   5.691   3.631
 8332TIP3   OH224936   1.715   5.892   5.092
 8332TIP3    H124937   1.719   5.979   5.138
 8332TIP3    H224938   1.620   5.872   5.102
 8333TIP3   OH224939   2.035   6.350   4.000
 8333TIP3    H124940   2.114   6.403   4.020
 8333TIP3    H224941   1.977   6.415   3.957
 8334TIP3   OH224942   1.756   6.506   5.080
 8334TIP3    H124943   1.721   6.504   4.990
 8334TIP3    H224944   1.677   6.481   5.134
 8335TIP3   OH224945   2.812   4.909   3.771
 8335TIP3    H124946   2.730   4.928   3.822
 8335TIP3    H224947   2.824   4.993   3.722
 8336TIP3   OH224948   1.554   5.650   4.119
 8336TIP3    H124949   1.488   5.694   4.062
 8336TIP3    H224950   1.513   5.565   4.134
 8337TIP3   OH224951   2.609   6.276   3.318
 8337TIP3    H124952   2.619   6.373   3.306
 8337TIP3    H224953   2.702   6.246   3.307
 8338TIP3   OH224954   1.335   6.034   5.027
 8338TIP3    H124955   1.269   6.012   4.958
 8338TIP3    H224956   1.372   5.946   5.051
 8339TIP3   OH224957   1.189   6.225   4.661
 8339TIP3    H124958   1.285   6.224   4.650
 8339TIP3    H224959   1.176   6.305   4.713
 8340TIP3   OH224960   3.052   6.677   4.712
 8340TIP3    H124961   3.052   6.580   4.725
 8340TIP3    H224962   2.970   6.701   4.760
 8341TIP3   OH224963   2.160   6.463   4.851
 8341TIP3    H124964   2.159   6.556   4.883
 8341TIP3    H224965   2.087   6.424   4.904
 8342TIP3   OH224966   1.925   6.593   3.803
 8342TIP3    H124967   1.866   6.583   3.727
 8342TIP3    H224968   1.889   6.674   3.844
 8343TIP3   OH224969   1.340   6.439   4.188
 8343TIP3    H124970   1.408   6.438   4.258
 8343TIP3    H224971   1.283   6.367   4.218
 8344TIP3   OH224972   2.123   6.495   3.440
 8344TIP3    H124973   2.183   6.425   3.406
 8344TIP3    H224974   2.154   6.505   3.532
 8345TIP3   OH224975   2.174   6.540   3.709
 8345TIP3    H124976   2.084   6.558   3.746
 8345TIP3    H224977   2.217   6.499   3.785
 8346TIP3   OH224978   2.943   5.810   4.988
 8346TIP3    H124979   2.862   5.821   4.936
 8346TIP3    H224980   2.960   5.714   4.977
 8347TIP3   OH224981   1.540   6.216   5.016
 8347TIP3    H124982   1.589   6.200   5.099
 8347TIP3    H224983   1.465   6.153   5.024
 8348TIP3   OH224984   1.940   5.041   4.796
 8348TIP3    H124985   1.851   5.009   4.770
 8348TIP3    H224986   1.913   5.122   4.844
 8349TIP3   OH224987   2.473   5.157   4.993
 8349TIP3    H124988   2.540   5.127   5.057
 8349TIP3    H224989   2.389   5.136   5.039
 8350TIP3   OH224990   2.714   5.585   4.912
 8350TIP3    H124991   2.663   5.581   4.996
 8350TIP3    H224992   2.688   5.672   4.876
 8351TIP3   OH224993   2.371   5.717   3.468
 8351TIP3    H124994   2.339   5.689   3.381
 8351TIP3    H224995   2.452   5.765   3.443
 8352TIP3   OH224996   2.084   5.092   3.770
 8352TIP3    H124997   2.052   5.087   3.862
 8352TIP3    H224998   2.047   5.008   3.736
 8353TIP3   OH224999   1.871   5.556   4.819
 8353TIP3    H125000   1.819   5.578   4.899
 8353TIP3    H225001   1.856   5.636   4.764
 8354TIP3   OH225002   1.755   5.442   4.332
 8354TIP3    H125003   1.662   5.416   4.349
 8354TIP3    H225004   1.768   5.401   4.243
 8355TIP3   OH225005   2.247   5.528   4.059
 8355TIP3    H125006   2.193   5.599   4.017
 8355TIP3    H225007   2.300   5.497   3.983
 8356TIP3   OH225008   2.420   5.809   5.148
 8356TIP3    H125009   2.398   5.735   5.209
 8356TIP3    H225010   2.515   5.820   5.167
 8357TIP3   OH225011   2.404   5.558   4.299
 8357TIP3    H125012   2.344   5.587   4.227
 8357TIP3    H225013   2.436   5.475   4.257
 8358TIP3   OH225014   1.690   5.585   5.026
 8358TIP3    H125015   1.714   5.649   5.095
 8358TIP3    H225016   1.680   5.503   5.078
 8359TIP3   OH225017   1.737   5.060   3.735
 8359TIP3    H125018   1.734   5.058   3.832
 8359TIP3    H225019   1.659   5.116   3.715
 8360TIP3   OH225020   1.284   5.108   4.605
 8360TIP3    H125021   1.359   5.139   4.660
 8360TIP3    H225022   1.327   5.072   4.526
 8361TIP3   OH225023   1.257   5.088   4.125
 8361TIP3    H125024   1.306   5.125   4.049
 8361TIP3    H225025   1.198   5.162   4.146
 8362TIP3   OH225026   2.415   5.804   4.723
 8362TIP3    H125027   2.447   5.731   4.664
 8362TIP3    H225028   2.384   5.751   4.800
 8363TIP3   OH225029   2.081   5.269   4.393
 8363TIP3    H125030   1.998   5.262   4.445
 8363TIP3    H225031   2.148   5.263   4.463
 8364TIP3   OH225032   1.517   5.319   4.402
 8364TIP3    H125033   1.423   5.326   4.374
 8364TIP3    H225034   1.540   5.227   4.379
 8365TIP3   OH225035   1.787   5.318   4.089
 8365TIP3    H125036   1.882   5.330   4.069
 8365TIP3    H225037   1.742   5.339   4.005
 8366TIP3   OH225038   2.573   5.341   4.595
 8366TIP3    H125039   2.538   5.352   4.686
 8366TIP3    H225040   2.509   5.277   4.558
 8367TIP3   OH225041   1.625   5.349   3.868
 8367TIP3    H125042   1.552   5.307   3.820
 8367TIP3    H225043   1.677   5.385   3.793
 8368TIP3   OH225044   2.742   7.029   4.813
 8368TIP3    H125045   2.741   7.050   4.717
 8368TIP3    H225046   2.822   7.077   4.842
 8369TIP3   OH225047   1.703   6.138   5.236
 8369TIP3    H125048   1.781   6.170   5.285
 8369TIP3    H225049   1.636   6.137   5.308
 8370TIP3   OH225050   2.165   5.592   4.491
 8370TIP3    H125051   2.237   5.551   4.440
 8370TIP3    H225052   2.174   5.549   4.578
 8371TIP3   OH225053   1.689   5.080   4.367
 8371TIP3    H125054   1.656   5.002   4.415
 8371TIP3    H225055   1.747   5.040   4.301
 8372TIP3   OH225056   2.143   5.487   4.780
 8372TIP3    H125057   2.053   5.524   4.793
 8372TIP3    H225058   2.199   5.548   4.831
 8373TIP3   OH225059   1.879   5.880   3.876
 8373TIP3    H125060   1.807   5.815   3.865
 8373TIP3    H225061   1.861   5.914   3.967
 8374TIP3   OH225062   2.780   6.117   4.506
 8374TIP3    H125063   2.802   6.166   4.424
 8374TIP3    H225064   2.695   6.073   4.481
 8375TIP3   OH225065   2.337   5.194   3.733
 8375TIP3    H125066   2.240   5.176   3.743
 8375TIP3    H225067   2.346   5.287   3.761
 8376TIP3   OH225068   2.284   6.201   4.871
 8376TIP3    H125069   2.297   6.173   4.962
 8376TIP3    H225070   2.239   6.287   4.881
 8377TIP3   OH225071   2.407   5.439   3.840
 8377TIP3    H125072   2.503   5.444   3.857
 8377TIP3    H225073   2.390   5.520   3.787
 8378TIP3   OH225074   1.571   5.900   4.552
 8378TIP3    H125075   1.608   5.871   4.466
 8378TIP3    H225076   1.610   5.836   4.614
 8379TIP3   OH225077   2.022   6.030   3.694
 8379TIP3    H125078   1.974   6.116   3.699
 8379TIP3    H225079   1.968   5.976   3.756
 8380TIP3   OH225080   1.452   5.821   5.163
 8380TIP3    H125081   1.471   5.809   5.259
 8380TIP3    H225082   1.381   5.756   5.148
 8381TIP3   OH225083   2.176   5.935   5.184
 8381TIP3    H125084   2.116   5.877   5.135
 8381TIP3    H225085   2.263   5.901   5.156
 8382TIP3   OH225086   2.440   6.462   4.765
 8382TIP3    H125087   2.344   6.454   4.779
 8382TIP3    H225088   2.466   6.511   4.846
 8383TIP3   OH225089   2.849   5.528   3.677
 8383TIP3    H125090   2.786   5.484   3.615
 8383TIP3    H225091   2.847   5.617   3.636
 8384TIP3   OH225092   3.068   6.388   4.757
 8384TIP3    H125093   2.970   6.382   4.749
 8384TIP3    H225094   3.093   6.356   4.667
 8385TIP3   OH225095   2.551   6.348   3.585
 8385TIP3    H125096   2.522   6.281   3.648
 8385TIP3    H225097   2.560   6.299   3.501
 8386TIP3   OH225098   2.545   5.977   4.426
 8386TIP3    H125099   2.452   5.952   4.438
 8386TIP3    H225100   2.579   5.898   4.380
 8387TIP3   OH225101   1.667   6.201   4.173
 8387TIP3    H125102   1.685   6.289   4.137
 8387TIP3    H225103   1.571   6.201   4.183
 8388TIP3   OH225104   1.234   5.510   3.876
 8388TIP3    H125105   1.281   5.593   3.897
 8388TIP3    H225106   1.158   5.515   3.939
 8389TIP3   OH225107   1.813   5.971   4.121
 8389TIP3    H125108   1.772   6.059   4.137
 8389TIP3    H225109   1.776   5.920   4.195
 8390TIP3   OH225110   1.940   6.550   4.647
 8390TIP3    H125111   1.980   6.622   4.594
 8390TIP3    H225112   2.018   6.515   4.693
 8391TIP3   OH225113   2.331   6.182   4.603
 8391TIP3    H125114   2.322   6.181   4.701
 8391TIP3    H225115   2.410   6.128   4.590
 8392TIP3   OH225116   2.303   6.075   3.486
 8392TIP3    H125117   2.356   6.050   3.565
 8392TIP3    H225118   2.214   6.050   3.515
 8393TIP3   OH225119   2.578   6.719   4.656
 8393TIP3    H125120   2.500   6.660   4.649
 8393TIP3    H225121   2.561   6.782   4.582
 8394TIP3   OH225122   2.644   6.552   3.306
 8394TIP3    H125123   2.682   6.625   3.256
 8394TIP3    H225124   2.563   6.596   3.340
 8395TIP3   OH225125   1.663   5.328   5.174
 8395TIP3    H125126   1.567   5.331   5.187
 8395TIP3    H225127   1.691   5.266   5.243
 8396TIP3   OH225128   2.463   6.009   3.702
 8396TIP3    H125129   2.452   5.944   3.774
 8396TIP3    H225130   2.560   6.007   3.691
 8397TIP3   OH225131   1.382   6.412   4.803
 8397TIP3    H125132   1.432   6.336   4.835
 8397TIP3    H225133   1.403   6.478   4.871
 8398TIP3   OH225134   1.671   6.056   3.484
 8398TIP3    H125135   1.685   5.963   3.458
 8398TIP3    H225136   1.652   6.047   3.580
 8399TIP3   OH225137   1.616   6.068   3.757
 8399TIP3    H125138   1.685   6.038   3.818
 8399TIP3    H225139   1.619   6.165   3.768
 8400TIP3   OH225140   1.351   5.756   3.961
 8400TIP3    H125141   1.286   5.801   4.019
 8400TIP3    H225142   1.365   5.825   3.894
 8401TIP3   OH225143   2.498   5.393   4.855
 8401TIP3    H125144   2.580   5.428   4.893
 8401TIP3    H225145   2.483   5.312   4.908
 8402TIP3   OH225146   2.379   5.145   4.017
 8402TIP3    H125147   2.367   5.168   3.923
 8402TIP3    H225148   2.417   5.228   4.054
 8403TIP3   OH225149   1.876   6.260   3.705
 8403TIP3    H125150   1.793   6.290   3.747
 8403TIP3    H225151   1.896   6.337   3.650
 8404TIP3   OH225152   2.070   5.323   4.121
 8404TIP3    H125153   2.135   5.394   4.104
 8404TIP3    H225154   2.074   5.315   4.218
 8405TIP3   OH225155   2.339   5.643   4.928
 8405TIP3    H125156   2.358   5.695   5.009
 8405TIP3    H225157   2.393   5.563   4.942
 8406TIP3   OH225158   2.215   5.053   4.224
 8406TIP3    H125159   2.210   5.130   4.284
 8406TIP3    H225160   2.274   5.088   4.154
 8407TIP3   OH225161   1.618   6.348   3.781
 8407TIP3    H125162   1.594   6.400   3.701
 8407TIP3    H225163   1.593   6.415   3.848
 8408TIP3   OH225164   1.725   5.049   4.011
 8408TIP3    H125165   1.725   5.138   4.050
 8408TIP3    H225166   1.820   5.026   4.021
 8409TIP3   OH225167   2.981   5.543   4.907
 8409TIP3    H125168   2.883   5.542   4.916
 8409TIP3    H225169   2.991   5.497   4.823
 8410TIP3   OH225170   2.630   5.737   4.297
 8410TIP3    H125171   2.555   5.677   4.309
 8410TIP3    H225172   2.702   5.690   4.344
 8411TIP3   OH225173   1.341   5.965   3.768
 8411TIP3    H125174   1.399   6.042   3.778
 8411TIP3    H225175   1.391   5.916   3.700
 8412TIP3   OH225176   1.288   5.241   3.899
 8412TIP3    H125177   1.289   5.339   3.894
 8412TIP3    H225178   1.201   5.221   3.864
 8413TIP3   OH225179   2.598   6.693   4.249
 8413TIP3    H125180   2.554   6.739   4.174
 8413TIP3    H225181   2.692   6.711   4.226
 8414TIP3   OH225182   1.673   4.961   4.775
 8414TIP3    H125183   1.644   4.925   4.689
 8414TIP3    H225184   1.665   4.882   4.833
 8415TIP3   OH225185   1.211   6.165   4.160
 8415TIP3    H125186   1.137   6.207   4.205
 8415TIP3    H225187   1.207   6.213   4.074
 8416TIP3   OH225188   1.367   6.717   5.223
 8416TIP3    H125189   1.453   6.713   5.269
 8416TIP3    H225190   1.341   6.623   5.223
 8417TIP3   OH225191   1.858   6.687   5.269
 8417TIP3    H125192   1.950   6.659   5.274
 8417TIP3    H225193   1.826   6.629   5.197
 8418TIP3   OH225194   1.833   6.260   3.396
 8418TIP3    H125195   1.775   6.191   3.436
 8418TIP3    H225196   1.909   6.204   3.369
 8419TIP3   OH225197   2.490   6.592   5.005
 8419TIP3    H125198   2.480   6.521   5.073
 8419TIP3    H225199   2.569   6.640   5.036
 8420TIP3   OH225200   2.271   6.301   3.310
 8420TIP3    H125201   2.313   6.237   3.369
 8420TIP3    H225202   2.329   6.300   3.231
 8421TIP3   OH225203   1.502   6.126   5.427
 8421TIP3    H125204   1.515   6.030   5.431
 8421TIP3    H225205   1.413   6.131   5.385
 8422TIP3   OH225206   1.477   5.778   3.618
 8422TIP3    H125207   1.531   5.745   3.692
 8422TIP3    H225208   1.546   5.783   3.547
 8423TIP3   OH225209   2.109   6.211   5.199
 8423TIP3    H125210   2.065   6.226   5.113
 8423TIP3    H225211   2.138   6.117   5.193
 8424TIP3   OH225212   1.986   5.977   3.425
 8424TIP3    H125213   1.988   5.989   3.522
 8424TIP3    H225214   1.985   5.879   3.419
 8425TIP3   OH225215   2.602   6.217   4.807
 8425TIP3    H125216   2.674   6.264   4.762
 8425TIP3    H225217   2.528   6.279   4.793
 8426TIP3   OH225218   1.620   5.858   5.408
 8426TIP3    H125219   1.694   5.801   5.388
 8426TIP3    H225220   1.644   5.893   5.496
 8427TIP3   OH225221   1.687   5.681   3.843
 8427TIP3    H125222   1.659   5.640   3.926
 8427TIP3    H225223   1.722   5.604   3.793
 8428TIP3   OH225224   1.955   5.746   5.072
 8428TIP3    H125225   1.876   5.804   5.072
 8428TIP3    H225226   2.004   5.779   4.993
 8429TIP3   OH225227   1.785   5.473   3.683
 8429TIP3    H125228   1.760   5.477   3.588
 8429TIP3    H225229   1.882   5.477   3.677
 8430TIP3   OH225230   2.474   6.149   5.206
 8430TIP3    H125231   2.551   6.123   5.155
 8430TIP3    H225232   2.469   6.079   5.273
 8431TIP3   OH225233   2.609   5.807   3.343
 8431TIP3    H125234   2.588   5.759   3.261
 8431TIP3    H225235   2.575   5.896   3.320
 8432TIP3   OH225236   2.078   5.533   5.197
 8432TIP3    H125237   2.078   5.452   5.141
 8432TIP3    H225238   2.034   5.598   5.139
 8433TIP3   OH225239   2.080   5.320   5.004
 8433TIP3    H125240   2.107   5.360   4.919
 8433TIP3    H225241   1.986   5.297   4.985
 8434TIP3   OH225242   2.110   5.857   4.877
 8434TIP3    H125243   2.191   5.863   4.825
 8434TIP3    H225244   2.052   5.923   4.833
 8435TIP3   OH225245   2.692   5.822   5.260
 8435TIP3    H125246   2.738   5.738   5.267
 8435TIP3    H225247   2.761   5.879   5.223
 8436TIP3   OH225248   2.732   6.076   4.997
 8436TIP3    H125249   2.674   6.128   4.936
 8436TIP3    H225250   2.819   6.095   4.956
 8437TIP3   OH225251   1.955   5.647   5.427
 8437TIP3    H125252   1.887   5.578   5.440
 8437TIP3    H225253   1.990   5.623   5.339
 8438TIP3   OH225254   2.213   5.084   5.069
 8438TIP3    H125255   2.162   5.165   5.047
 8438TIP3    H225256   2.145   5.015   5.058
 8439TIP3   OH225257   2.338   5.589   5.286
 8439TIP3    H125258   2.327   5.576   5.382
 8439TIP3    H225259   2.248   5.564   5.256
 8440TIP3   OH225260   2.579   5.540   5.142
 8440TIP3    H125261   2.503   5.538   5.204
 8440TIP3    H225262   2.652   5.507   5.198
 8441TIP3   OH225263   2.807   5.477   5.292
 8441TIP3    H125264   2.820   5.382   5.310
 8441TIP3    H225265   2.805   5.516   5.382
 8442TIP3   OH225266   1.795   5.428   5.478
 8442TIP3    H125267   1.800   5.337   5.442
 8442TIP3    H225268   1.831   5.414   5.568
 8443TIP3   OH225269   2.308   5.094   5.326
 8443TIP3    H125270   2.375   5.023   5.322
 8443TIP3    H225271   2.268   5.086   5.237
 8444TIP3   OH225272   2.374   5.309   5.486
 8444TIP3    H125273   2.352   5.237   5.422
 8444TIP3    H225274   2.296   5.367   5.479
 8445TIP3   OH225275   1.589   6.517   3.566
 8445TIP3    H125276   1.686   6.530   3.564
 8445TIP3    H225277   1.563   6.583   3.500
 8446TIP3   OH225278   1.073   5.918   3.803
 8446TIP3    H125279   1.167   5.942   3.790
 8446TIP3    H225280   1.070   5.829   3.762
 8447TIP3   OH225281   0.983   6.531   4.219
 8447TIP3    H125282   0.918   6.467   4.182
 8447TIP3    H225283   1.031   6.474   4.282
 8448TIP3   OH225284   1.124   6.381   4.401
 8448TIP3    H125285   1.113   6.310   4.466
 8448TIP3    H225286   1.174   6.446   4.455
 8449TIP3   OH225287   2.850   6.786   4.202
 8449TIP3    H125288   2.879   6.816   4.290
 8449TIP3    H225289   2.914   6.827   4.143
 8450TIP3   OH225290   2.882   6.804   4.485
 8450TIP3    H125291   2.835   6.718   4.479
 8450TIP3    H225292   2.956   6.778   4.542
 8451TIP3   OH225293   2.926   6.480   5.057
 8451TIP3    H125294   2.853   6.488   5.121
 8451TIP3    H225295   2.967   6.569   5.063
 8452TIP3   OH225296   2.742   5.994   3.679
 8452TIP3    H125297   2.812   6.056   3.651
 8452TIP3    H225298   2.785   5.954   3.759
 8453TIP3   OH225299   2.870   5.861   3.882
 8453TIP3    H125300   2.804   5.818   3.941
 8453TIP3    H225301   2.934   5.899   3.946
 8454TIP3   OH225302   2.925   6.252   4.315
 8454TIP3    H125303   2.976   6.186   4.265
 8454TIP3    H225304   2.914   6.324   4.250
 8455TIP3   OH225305   2.757   6.555   4.509
 8455TIP3    H125306   2.684   6.593   4.561
 8455TIP3    H225307   2.708   6.506   4.439
 8456TIP3   OH225308   2.809   5.769   3.529
 8456TIP3    H125309   2.738   5.771   3.461
 8456TIP3    H225310   2.780   5.844   3.584
 8457TIP3   OH225311   2.680   5.442   3.484
 8457TIP3    H125312   2.638   5.479   3.405
 8457TIP3    H225313   2.654   5.348   3.477
 8458TIP3   OH225314   2.685   5.717   4.029
 8458TIP3    H125315   2.693   5.620   4.023
 8458TIP3    H225316   2.672   5.729   4.126
 8459TIP3   OH225317   1.312   5.788   4.775
 8459TIP3    H125318   1.310   5.761   4.681
 8459TIP3    H225319   1.409   5.790   4.792
 8460TIP3   OH225320   2.975   6.142   4.886
 8460TIP3    H125321   3.047   6.075   4.877
 8460TIP3    H225322   3.001   6.209   4.821
 8461TIP3   OH225323   3.160   5.948   4.906
 8461TIP3    H125324   3.085   5.897   4.944
 8461TIP3    H225325   3.233   5.883   4.919
 8462TIP3   OH225326   2.622   5.177   3.472
 8462TIP3    H125327   2.699   5.145   3.523
 8462TIP3    H225328   2.552   5.115   3.496
 8463TIP3   OH225329   2.681   5.432   3.925
 8463TIP3    H125330   2.720   5.343   3.940
 8463TIP3    H225331   2.740   5.464   3.854
 8464TIP3   OH225332   2.843   5.609   4.418
 8464TIP3    H125333   2.929   5.634   4.378
 8464TIP3    H225334   2.857   5.644   4.509
 8465TIP3   OH225335   2.911   5.750   4.652
 8465TIP3    H125336   2.832   5.785   4.698
 8465TIP3    H225337   2.944   5.831   4.606
 8466TIP3   OH225338   1.529   5.477   5.451
 8466TIP3    H125339   1.626   5.469   5.450
 8466TIP3    H225340   1.504   5.392   5.491
 8467TIP3   OH225341   3.362   5.340   5.208
 8467TIP3    H125342   3.423   5.274   5.168
 8467TIP3    H225343   3.337   5.394   5.130
 8468TIP3   OH225344   2.789   5.182   3.961
 8468TIP3    H125345   2.838   5.167   4.044
 8468TIP3    H225346   2.729   5.105   3.961
 8469TIP3   OH225347   1.488   5.169   4.781
 8469TIP3    H125348   1.549   5.093   4.790
 8469TIP3    H225349   1.552   5.242   4.775
 8470TIP3   OH225350   1.294   5.443   4.854
 8470TIP3    H125351   1.343   5.437   4.770
 8470TIP3    H225352   1.321   5.530   4.886
 8471TIP3   OH225353   3.236   5.483   5.012
 8471TIP3    H125354   3.148   5.521   5.031
 8471TIP3    H225355   3.210   5.409   4.954
 8472TIP3   OH225356   2.872   5.119   3.592
 8472TIP3    H125357   2.911   5.045   3.541
 8472TIP3    H225358   2.941   5.187   3.586
 8473TIP3   OH225359   1.276   4.947   4.354
 8473TIP3    H125360   1.183   4.944   4.381
 8473TIP3    H225361   1.273   5.005   4.275
 8474TIP3   OH225362   2.440   6.645   3.862
 8474TIP3    H125363   2.487   6.633   3.777
 8474TIP3    H225364   2.490   6.716   3.903
 8475TIP3   OH225365   1.497   5.031   5.172
 8475TIP3    H125366   1.444   5.021   5.253
 8475TIP3    H225367   1.430   5.064   5.109
 8476TIP3   OH225368   1.540   6.452   5.249
 8476TIP3    H125369   1.448   6.427   5.226
 8476TIP3    H225370   1.541   6.432   5.344
 8477TIP3   OH225371   1.714   6.484   4.795
 8477TIP3    H125372   1.663   6.557   4.756
 8477TIP3    H225373   1.799   6.500   4.750
 8478TIP3   OH225374   2.161   6.730   4.933
 8478TIP3    H125375   2.204   6.732   5.022
 8478TIP3    H225376   2.226   6.781   4.880
 8479TIP3   OH225377   2.338   6.882   4.790
 8479TIP3    H125378   2.407   6.829   4.747
 8479TIP3    H225379   2.392   6.937   4.851
 8480TIP3   OH225380   3.133   5.244   4.891
 8480TIP3    H125381   3.042   5.235   4.857
 8480TIP3    H225382   3.165   5.151   4.881
 8481TIP3   OH225383   1.391   6.746   4.815
 8481TIP3    H125384   1.303   6.781   4.791
 8481TIP3    H225385   1.393   6.767   4.909
 8482TIP3   OH225386   1.630   6.722   4.675
 8482TIP3    H125387   1.543   6.736   4.719
 8482TIP3    H225388   1.612   6.753   4.585
 8483TIP3   OH225389   2.056   6.750   4.476
 8483TIP3    H125390   1.982   6.764   4.412
 8483TIP3    H225391   2.066   6.840   4.512
 8484TIP3   OH225392   2.323   6.692   4.526
 8484TIP3    H125393   2.228   6.705   4.505
 8484TIP3    H225394   2.363   6.766   4.479
 8485TIP3   OH225395   2.536   6.886   4.440
 8485TIP3    H125396   2.517   6.968   4.390
 8485TIP3    H225397   2.557   6.822   4.369
 8486TIP3   OH225398   1.302   6.537   4.562
 8486TIP3    H125399   1.330   6.511   4.652
 8486TIP3    H225400   1.372   6.492   4.509
 8487TIP3   OH225401   1.494   6.407   4.416
 8487TIP3    H125402   1.512   6.326   4.468
 8487TIP3    H225403   1.583   6.447   4.410
 8488TIP3   OH225404   1.757   6.494   4.423
 8488TIP3    H125405   1.793   6.404   4.417
 8488TIP3    H225406   1.801   6.526   4.503
 8489TIP3   OH225407   2.336   5.159   4.507
 8489TIP3    H125408   2.293   5.090   4.562
 8489TIP3    H225409   2.408   5.109   4.465
 8490TIP3   OH225410   2.862   5.040   4.414
 8490TIP3    H125411   2.898   5.092   4.339
 8490TIP3    H225412   2.766   5.057   4.407
 8491TIP3   OH225413   2.956   5.141   4.178
 8491TIP3    H125414   3.029   5.090   4.138
 8491TIP3    H225415   2.989   5.233   4.163
 8492TIP3   OH225416   1.587   4.868   4.526
 8492TIP3    H125417   1.495   4.834   4.529
 8492TIP3    H225418   1.637   4.783   4.524
 8493TIP3   OH225419   1.357   4.739   4.167
 8493TIP3    H125420   1.401   4.796   4.101
 8493TIP3    H225421   1.342   4.801   4.241
 8494TIP3   OH225422   2.025   4.908   4.406
 8494TIP3    H125423   2.089   4.954   4.349
 8494TIP3    H225424   2.052   4.938   4.494
 8495TIP3   OH225425   2.579   5.047   4.389
 8495TIP3    H125426   2.574   5.010   4.300
 8495TIP3    H225427   2.564   4.967   4.445
 8496TIP3   OH225428   2.606   4.968   3.952
 8496TIP3    H125429   2.518   5.009   3.962
 8496TIP3    H225430   2.592   4.883   4.000
 8497TIP3   OH225431   1.088   6.303   3.957
 8497TIP3    H125432   1.002   6.279   3.918
 8497TIP3    H225433   1.087   6.399   3.943
 8498TIP3   OH225434   1.489   4.900   3.933
 8498TIP3    H125435   1.539   4.834   3.882
 8498TIP3    H225436   1.562   4.953   3.972
 8499TIP3   OH225437   2.003   5.072   4.035
 8499TIP3    H125438   2.059   5.022   4.096
 8499TIP3    H225439   2.027   5.164   4.062
 8500TIP3   OH225440   1.862   6.497   3.533
 8500TIP3    H125441   1.951   6.519   3.499
 8500TIP3    H225442   1.840   6.423   3.473
 8501TIP3   OH225443   2.582   6.615   3.627
 8501TIP3    H125444   2.574   6.517   3.617
 8501TIP3    H225445   2.534   6.646   3.547
 8502TIP3   OH225446   1.794   5.152   5.418
 8502TIP3    H125447   1.759   5.079   5.473
 8502TIP3    H225448   1.889   5.150   5.445
 8503TIP3   OH225449   2.044   5.147   5.537
 8503TIP3    H125450   2.128   5.120   5.495
 8503TIP3    H225451   2.032   5.076   5.603
 8504TIP3   OH225452   1.165   6.335   3.593
 8504TIP3    H125453   1.164   6.366   3.685
 8504TIP3    H225454   1.255   6.296   3.584
 8505TIP3   OH225455   2.868   5.207   5.324
 8505TIP3    H125456   2.887   5.173   5.414
 8505TIP3    H225457   2.956   5.201   5.282
 8506TIP3   OH225458   2.807   6.760   4.817
 8506TIP3    H125459   2.730   6.726   4.768
 8506TIP3    H225460   2.785   6.856   4.819
 8507TIP3   OH225461   4.074   6.131   3.583
 8507TIP3    H125462   4.046   6.223   3.565
 8507TIP3    H225463   3.996   6.083   3.550
 8508TIP3   OH225464   4.070   6.132   3.962
 8508TIP3    H125465   4.102   6.102   4.049
 8508TIP3    H225466   4.030   6.051   3.927
 8509TIP3   OH225467   3.372   6.029   4.329
 8509TIP3    H125468   3.402   5.960   4.390
 8509TIP3    H225469   3.452   6.082   4.320
 8510TIP3   OH225470   4.313   6.434   3.644
 8510TIP3    H125471   4.303   6.363   3.708
 8510TIP3    H225472   4.345   6.507   3.699
 8511TIP3   OH225473   3.342   6.437   4.055
 8511TIP3    H125474   3.334   6.339   4.057
 8511TIP3    H225475   3.438   6.446   4.049
 8512TIP3   OH225476   3.050   5.642   3.839
 8512TIP3    H125477   3.001   5.724   3.853
 8512TIP3    H225478   2.980   5.584   3.804
 8513TIP3   OH225479   3.110   5.928   4.009
 8513TIP3    H125480   3.157   5.850   4.046
 8513TIP3    H225481   3.168   5.952   3.935
 8514TIP3   OH225482   3.963   6.896   3.661
 8514TIP3    H125483   4.010   6.826   3.611
 8514TIP3    H225484   3.961   6.858   3.749
 8515TIP3   OH225485   3.871   6.358   4.011
 8515TIP3    H125486   3.908   6.280   3.966
 8515TIP3    H225487   3.956   6.402   4.034
 8516TIP3   OH225488   4.883   5.678   4.008
 8516TIP3    H125489   4.912   5.760   4.053
 8516TIP3    H225490   4.905   5.699   3.916
 8517TIP3   OH225491   4.283   5.861   4.045
 8517TIP3    H125492   4.325   5.775   4.066
 8517TIP3    H225493   4.253   5.844   3.954
 8518TIP3   OH225494   3.619   5.518   4.009
 8518TIP3    H125495   3.599   5.591   3.946
 8518TIP3    H225496   3.573   5.444   3.965
 8519TIP3   OH225497   4.315   5.610   3.632
 8519TIP3    H125498   4.386   5.592   3.698
 8519TIP3    H225499   4.368   5.645   3.558
 8520TIP3   OH225500   3.255   5.721   4.114
 8520TIP3    H125501   3.337   5.701   4.163
 8520TIP3    H225502   3.267   5.664   4.036
 8521TIP3   OH225503   3.696   5.918   3.908
 8521TIP3    H125504   3.790   5.893   3.921
 8521TIP3    H225505   3.657   5.834   3.876
 8522TIP3   OH225506   4.957   5.884   4.179
 8522TIP3    H125507   4.874   5.932   4.160
 8522TIP3    H225508   4.971   5.909   4.272
 8523TIP3   OH225509   3.618   5.502   4.442
 8523TIP3    H125510   3.556   5.539   4.376
 8523TIP3    H225511   3.568   5.518   4.525
 8524TIP3   OH225512   3.967   6.353   3.452
 8524TIP3    H125513   3.922   6.330   3.370
 8524TIP3    H225514   3.923   6.437   3.476
 8525TIP3   OH225515   3.725   6.277   4.240
 8525TIP3    H125516   3.662   6.341   4.279
 8525TIP3    H225517   3.766   6.329   4.168
 8526TIP3   OH225518   4.527   5.610   3.801
 8526TIP3    H125519   4.516   5.562   3.884
 8526TIP3    H225520   4.580   5.687   3.829
 8527TIP3   OH225521   3.487   5.617   4.228
 8527TIP3    H125522   3.551   5.688   4.252
 8527TIP3    H225523   3.536   5.576   4.153
 8528TIP3   OH225524   3.550   6.469   4.338
 8528TIP3    H125525   3.525   6.555   4.298
 8528TIP3    H225526   3.471   6.454   4.394
 8529TIP3   OH225527   2.948   6.160   3.572
 8529TIP3    H125528   2.905   6.188   3.489
 8529TIP3    H225529   2.979   6.244   3.610
 8530TIP3   OH225530   4.386   6.676   3.813
 8530TIP3    H125531   4.295   6.668   3.852
 8530TIP3    H225532   4.379   6.762   3.767
 8531TIP3   OH225533   4.675   5.580   4.174
 8531TIP3    H125534   4.588   5.610   4.143
 8531TIP3    H225535   4.735   5.612   4.103
 8532TIP3   OH225536   3.975   5.221   4.156
 8532TIP3    H125537   3.963   5.126   4.177
 8532TIP3    H225538   3.897   5.259   4.203
 8533TIP3   OH225539   4.089   6.724   3.486
 8533TIP3    H125540   4.138   6.641   3.467
 8533TIP3    H225541   4.152   6.788   3.446
 8534TIP3   OH225542   4.231   6.509   3.392
 8534TIP3    H125543   4.193   6.430   3.352
 8534TIP3    H225544   4.266   6.473   3.477
 8535TIP3   OH225545   4.614   6.590   4.157
 8535TIP3    H125546   4.603   6.512   4.098
 8535TIP3    H225547   4.597   6.664   4.095
 8536TIP3   OH225548   3.904   5.983   3.412
 8536TIP3    H125549   3.824   6.035   3.389
 8536TIP3    H225550   3.950   5.980   3.326
 8537TIP3   OH225551   3.862   5.767   3.130
 8537TIP3    H125552   3.930   5.818   3.178
 8537TIP3    H225553   3.919   5.703   3.083
 8538TIP3   OH225554   4.807   6.225   3.999
 8538TIP3    H125555   4.725   6.278   4.005
 8538TIP3    H225556   4.838   6.250   3.910
 8539TIP3   OH225557   4.252   6.066   3.385
 8539TIP3    H125558   4.197   6.090   3.464
 8539TIP3    H225559   4.336   6.040   3.429
 8540TIP3   OH225560   4.487   6.107   4.295
 8540TIP3    H125561   4.483   6.190   4.345
 8540TIP3    H225562   4.400   6.110   4.250
 8541TIP3   OH225563   3.484   6.065   3.801
 8541TIP3    H125564   3.442   6.007   3.735
 8541TIP3    H225565   3.560   6.011   3.830
 8542TIP3   OH225566   3.614   6.476   3.951
 8542TIP3    H125567   3.592   6.431   3.868
 8542TIP3    H225568   3.704   6.442   3.969
 8543TIP3   OH225569   3.621   6.035   4.157
 8543TIP3    H125570   3.653   6.012   4.067
 8543TIP3    H225571   3.664   6.120   4.175
 8544TIP3   OH225572   4.142   6.673   3.932
 8544TIP3    H125573   4.133   6.752   3.988
 8544TIP3    H225574   4.130   6.599   3.994
 8545TIP3   OH225575   3.757   6.594   4.479
 8545TIP3    H125576   3.697   6.654   4.526
 8545TIP3    H225577   3.693   6.539   4.430
 8546TIP3   OH225578   4.092   5.924   3.210
 8546TIP3    H125579   4.151   5.984   3.263
 8546TIP3    H225580   4.120   5.948   3.118
 8547TIP3   OH225581   3.512   6.151   4.579
 8547TIP3    H125582   3.514   6.236   4.626
 8547TIP3    H225583   3.417   6.129   4.588
 8548TIP3   OH225584   3.833   6.605   3.487
 8548TIP3    H125585   3.913   6.657   3.505
 8548TIP3    H225586   3.773   6.670   3.447
 8549TIP3   OH225587   3.551   6.762   4.566
 8549TIP3    H125588   3.517   6.760   4.475
 8549TIP3    H225589   3.472   6.740   4.620
 8550TIP3   OH225590   4.608   5.166   3.258
 8550TIP3    H125591   4.526   5.185   3.309
 8550TIP3    H225592   4.621   5.250   3.210
 8551TIP3   OH225593   3.349   5.907   3.608
 8551TIP3    H125594   3.283   5.950   3.549
 8551TIP3    H225595   3.311   5.820   3.620
 8552TIP3   OH225596   4.406   6.533   2.804
 8552TIP3    H125597   4.416   6.630   2.793
 8552TIP3    H225598   4.499   6.503   2.794
 8553TIP3   OH225599   3.132   6.291   4.513
 8553TIP3    H125600   3.066   6.267   4.444
 8553TIP3    H225601   3.168   6.203   4.539
 8554TIP3   OH225602   2.985   6.484   4.144
 8554TIP3    H125603   3.080   6.475   4.136
 8554TIP3    H225604   2.977   6.562   4.201
 8555TIP3   OH225605   4.851   6.934   4.203
 8555TIP3    H125606   4.848   6.837   4.213
 8555TIP3    H225607   4.767   6.959   4.247
 8556TIP3   OH225608   3.955   6.721   4.336
 8556TIP3    H125609   3.955   6.814   4.369
 8556TIP3    H225610   3.884   6.682   4.390
 8557TIP3   OH225611   3.714   6.850   3.288
 8557TIP3    H125612   3.670   6.832   3.203
 8557TIP3    H225613   3.683   6.939   3.310
 8558TIP3   OH225614   3.154   6.700   3.672
 8558TIP3    H125615   3.202   6.690   3.757
 8558TIP3    H225616   3.097   6.621   3.675
 8559TIP3   OH225617   3.917   6.750   2.928
 8559TIP3    H125618   3.977   6.681   2.892
 8559TIP3    H225619   3.951   6.760   3.020
 8560TIP3   OH225620   3.966   6.798   3.199
 8560TIP3    H125621   3.879   6.807   3.243
 8560TIP3    H225622   4.019   6.758   3.270
 8561TIP3   OH225623   4.740   6.066   4.474
 8561TIP3    H125624   4.659   6.077   4.423
 8561TIP3    H225625   4.756   5.970   4.466
 8562TIP3   OH225626   3.334   6.475   4.505
 8562TIP3    H125627   3.386   6.455   4.586
 8562TIP3    H225628   3.262   6.410   4.510
 8563TIP3   OH225629   3.735   5.298   4.281
 8563TIP3    H125630   3.645   5.267   4.256
 8563TIP3    H225631   3.710   5.379   4.330
 8564TIP3   OH225632   4.269   5.413   4.480
 8564TIP3    H125633   4.336   5.383   4.544
 8564TIP3    H225634   4.185   5.392   4.525
 8565TIP3   OH225635   4.509   5.841   4.398
 8565TIP3    H125636   4.459   5.837   4.483
 8565TIP3    H225637   4.484   5.929   4.363
 8566TIP3   OH225638   4.168   5.973   2.955
 8566TIP3    H125639   4.135   5.946   2.868
 8566TIP3    H225640   4.248   6.022   2.930
 8567TIP3   OH225641   3.882   5.347   3.257
 8567TIP3    H125642   3.848   5.343   3.349
 8567TIP3    H225643   3.843   5.265   3.222
 8568TIP3   OH225644   3.667   5.812   4.305
 8568TIP3    H125645   3.616   5.835   4.386
 8568TIP3    H225646   3.652   5.893   4.251
 8569TIP3   OH225647   3.551   5.699   3.818
 8569TIP3    H125648   3.458   5.672   3.836
 8569TIP3    H225649   3.564   5.658   3.730
 8570TIP3   OH225650   4.043   5.785   3.545
 8570TIP3    H125651   3.989   5.856   3.504
 8570TIP3    H225652   4.096   5.754   3.470
 8571TIP3   OH225653   4.216   6.066   4.635
 8571TIP3    H125654   4.195   5.991   4.696
 8571TIP3    H225655   4.311   6.077   4.654
 8572TIP3   OH225656   4.199   5.814   3.785
 8572TIP3    H125657   4.140   5.843   3.714
 8572TIP3    H225658   4.232   5.732   3.743
 8573TIP3   OH225659   3.485   5.842   4.513
 8573TIP3    H125660   3.515   5.903   4.582
 8573TIP3    H225661   3.475   5.758   4.563
 8574TIP3   OH225662   3.536   5.319   3.222
 8574TIP3    H125663   3.530   5.316   3.319
 8574TIP3    H225664   3.455   5.369   3.200
 8575TIP3   OH225665   3.079   5.365   4.093
 8575TIP3    H125666   3.156   5.395   4.146
 8575TIP3    H225667   3.119   5.330   4.012
 8576TIP3   OH225668   3.055   5.345   3.614
 8576TIP3    H125669   3.102   5.382   3.536
 8576TIP3    H225670   2.994   5.418   3.633
 8577TIP3   OH225671   4.209   6.060   4.209
 8577TIP3    H125672   4.242   5.988   4.151
 8577TIP3    H225673   4.180   6.007   4.286
 8578TIP3   OH225674   3.877   5.524   3.880
 8578TIP3    H125675   3.794   5.519   3.932
 8578TIP3    H225676   3.944   5.520   3.950
 8579TIP3   OH225677   3.313   5.575   3.889
 8579TIP3    H125678   3.218   5.582   3.861
 8579TIP3    H225679   3.336   5.483   3.866
 8580TIP3   OH225680   3.583   5.575   3.576
 8580TIP3    H125681   3.678   5.587   3.555
 8580TIP3    H225682   3.537   5.595   3.491
 8581TIP3   OH225683   4.369   5.597   4.080
 8581TIP3    H125684   4.335   5.609   4.172
 8581TIP3    H225685   4.304   5.534   4.045
 8582TIP3   OH225686   3.421   5.607   3.356
 8582TIP3    H125687   3.348   5.563   3.309
 8582TIP3    H225688   3.473   5.642   3.280
 8583TIP3   OH225689   4.538   7.286   4.300
 8583TIP3    H125690   4.537   7.306   4.204
 8583TIP3    H225691   4.618   7.334   4.329
 8584TIP3   OH225692   3.497   6.398   4.722
 8584TIP3    H125693   3.578   6.425   4.771
 8584TIP3    H225694   3.433   6.393   4.796
 8585TIP3   OH225695   3.961   5.849   3.978
 8585TIP3    H125696   4.033   5.808   3.928
 8585TIP3    H225697   3.970   5.806   4.065
 8586TIP3   OH225698   3.486   5.338   3.853
 8586TIP3    H125699   3.452   5.259   3.901
 8586TIP3    H225700   3.541   5.298   3.784
 8587TIP3   OH225701   3.939   5.745   4.265
 8587TIP3    H125702   3.849   5.780   4.280
 8587TIP3    H225703   3.996   5.804   4.317
 8588TIP3   OH225704   3.674   6.138   3.361
 8588TIP3    H125705   3.603   6.071   3.351
 8588TIP3    H225706   3.656   6.171   3.453
 8589TIP3   OH225707   4.576   6.373   3.993
 8589TIP3    H125708   4.600   6.423   3.911
 8589TIP3    H225709   4.492   6.330   3.967
 8590TIP3   OH225710   4.133   5.450   3.221
 8590TIP3    H125711   4.037   5.432   3.230
 8590TIP3    H225712   4.142   5.544   3.248
 8591TIP3   OH225713   4.076   6.455   4.358
 8591TIP3    H125714   4.096   6.429   4.448
 8591TIP3    H225715   4.036   6.543   4.369
 8592TIP3   OH225716   4.203   5.696   3.327
 8592TIP3    H125717   4.299   5.701   3.344
 8592TIP3    H225718   4.186   5.777   3.274
 8593TIP3   OH225719   3.368   6.160   4.038
 8593TIP3    H125720   3.404   6.129   3.953
 8593TIP3    H225721   3.405   6.095   4.100
 8594TIP3   OH225722   3.819   6.285   3.181
 8594TIP3    H125723   3.772   6.372   3.187
 8594TIP3    H225724   3.766   6.231   3.242
 8595TIP3   OH225725   3.246   6.081   4.652
 8595TIP3    H125726   3.267   6.065   4.746
 8595TIP3    H225727   3.179   6.012   4.635
 8596TIP3   OH225728   3.973   6.192   4.670
 8596TIP3    H125729   3.914   6.132   4.621
 8596TIP3    H225730   4.061   6.158   4.643
 8597TIP3   OH225731   4.235   6.716   4.253
 8597TIP3    H125732   4.139   6.712   4.266
 8597TIP3    H225733   4.262   6.767   4.332
 8598TIP3   OH225734   4.645   5.785   3.164
 8598TIP3    H125735   4.583   5.741   3.102
 8598TIP3    H225736   4.643   5.874   3.124
 8599TIP3   OH225737   4.865   6.643   4.246
 8599TIP3    H125738   4.767   6.638   4.238
 8599TIP3    H225739   4.890   6.612   4.155
 8600TIP3   OH225740   4.339   6.605   3.069
 8600TIP3    H125741   4.322   6.535   3.133
 8600TIP3    H225742   4.357   6.555   2.987
 8601TIP3   OH225743   4.341   6.234   3.913
 8601TIP3    H125744   4.247   6.209   3.925
 8601TIP3    H225745   4.375   6.155   3.867
 8602TIP3   OH225746   3.467   6.462   3.663
 8602TIP3    H125747   3.468   6.543   3.609
 8602TIP3    H225748   3.373   6.444   3.671
 8603TIP3   OH225749   3.030   5.766   3.363
 8603TIP3    H125750   3.076   5.849   3.385
 8603TIP3    H225751   2.954   5.770   3.426
 8604TIP3   OH225752   3.608   6.228   3.607
 8604TIP3    H125753   3.573   6.317   3.627
 8604TIP3    H225754   3.573   6.176   3.681
 8605TIP3   OH225755   3.736   6.807   4.133
 8605TIP3    H125756   3.779   6.878   4.081
 8605TIP3    H225757   3.812   6.770   4.180
 8606TIP3   OH225758   3.387   6.701   3.514
 8606TIP3    H125759   3.302   6.709   3.561
 8606TIP3    H225760   3.418   6.794   3.517
 8607TIP3   OH225761   4.127   6.440   4.089
 8607TIP3    H125762   4.118   6.437   4.187
 8607TIP3    H225763   4.207   6.386   4.076
 8608TIP3   OH225764   4.099   6.331   2.973
 8608TIP3    H125765   4.152   6.307   3.052
 8608TIP3    H225766   4.010   6.305   3.003
 8609TIP3   OH225767   4.373   6.976   4.143
 8609TIP3    H125768   4.295   6.918   4.134
 8609TIP3    H225769   4.358   7.040   4.069
 8610TIP3   OH225770   4.440   6.809   2.793
 8610TIP3    H125771   4.482   6.885   2.748
 8610TIP3    H225772   4.358   6.853   2.824
 8611TIP3   OH225773   3.460   5.585   4.660
 8611TIP3    H125774   3.363   5.587   4.674
 8611TIP3    H225775   3.489   5.523   4.729
 8612TIP3   OH225776   4.260   6.267   3.190
 8612TIP3    H125777   4.249   6.201   3.262
 8612TIP3    H225778   4.357   6.263   3.178
 8613TIP3   OH225779   3.175   6.670   4.292
 8613TIP3    H125780   3.225   6.591   4.318
 8613TIP3    H225781   3.208   6.733   4.357
 8614TIP3   OH225782   3.465   6.314   2.972
 8614TIP3    H125783   3.481   6.222   2.943
 8614TIP3    H225784   3.447   6.301   3.067
 8615TIP3   OH225785   3.411   6.318   3.246
 8615TIP3    H125786   3.484   6.289   3.303
 8615TIP3    H225787   3.418   6.416   3.253
 8616TIP3   OH225788   3.148   6.012   3.447
 8616TIP3    H125789   3.082   6.056   3.505
 8616TIP3    H225790   3.163   6.082   3.381
 8617TIP3   OH225791   4.295   5.649   4.340
 8617TIP3    H125792   4.375   5.685   4.380
 8617TIP3    H225793   4.280   5.568   4.394
 8618TIP3   OH225794   4.176   5.401   3.504
 8618TIP3    H125795   4.162   5.424   3.410
 8618TIP3    H225796   4.213   5.484   3.540
 8619TIP3   OH225797   3.677   6.515   3.193
 8619TIP3    H125798   3.591   6.543   3.230
 8619TIP3    H225799   3.694   6.587   3.131
 8620TIP3   OH225800   3.867   5.579   3.607
 8620TIP3    H125801   3.931   5.651   3.591
 8620TIP3    H225802   3.871   5.572   3.705
 8621TIP3   OH225803   4.136   5.900   4.416
 8621TIP3    H125804   4.155   5.952   4.497
 8621TIP3    H225805   4.189   5.820   4.429
 8622TIP3   OH225806   4.011   5.309   3.711
 8622TIP3    H125807   4.006   5.386   3.771
 8622TIP3    H225808   4.070   5.344   3.641
 8623TIP3   OH225809   3.420   6.592   3.260
 8623TIP3    H125810   3.389   6.661   3.198
 8623TIP3    H225811   3.404   6.634   3.347
 8624TIP3   OH225812   3.521   5.305   3.498
 8624TIP3    H125813   3.520   5.394   3.537
 8624TIP3    H225814   3.616   5.284   3.508
 8625TIP3   OH225815   4.777   5.799   4.395
 8625TIP3    H125816   4.679   5.797   4.403
 8625TIP3    H225817   4.787   5.757   4.309
 8626TIP3   OH225818   4.426   5.994   3.784
 8626TIP3    H125819   4.351   5.933   3.797
 8626TIP3    H225820   4.499   5.947   3.831
 8627TIP3   OH225821   3.138   6.224   3.253
 8627TIP3    H125822   3.204   6.294   3.264
 8627TIP3    H225823   3.185   6.169   3.186
 8628TIP3   OH225824   3.084   5.498   3.389
 8628TIP3    H125825   3.081   5.596   3.382
 8628TIP3    H225826   3.002   5.472   3.345
 8629TIP3   OH225827   4.393   6.948   3.734
 8629TIP3    H125828   4.351   6.994   3.659
 8629TIP3    H225829   4.487   6.971   3.715
 8630TIP3   OH225830   3.469   5.219   4.262
 8630TIP3    H125831   3.439   5.183   4.176
 8630TIP3    H225832   3.459   5.141   4.321
 8631TIP3   OH225833   3.013   6.439   3.644
 8631TIP3    H125834   2.936   6.467   3.695
 8631TIP3    H225835   2.990   6.475   3.555
 8632TIP3   OH225836   3.163   6.975   4.715
 8632TIP3    H125837   3.251   6.971   4.759
 8632TIP3    H225838   3.142   6.880   4.711
 8633TIP3   OH225839   3.650   6.944   4.756
 8633TIP3    H125840   3.743   6.921   4.764
 8633TIP3    H225841   3.623   6.886   4.683
 8634TIP3   OH225842   3.630   6.517   2.886
 8634TIP3    H125843   3.573   6.446   2.924
 8634TIP3    H225844   3.705   6.464   2.856
 8635TIP3   OH225845   4.284   6.849   4.492
 8635TIP3    H125846   4.276   6.778   4.560
 8635TIP3    H225847   4.364   6.897   4.521
 8636TIP3   OH225848   4.066   6.559   2.796
 8636TIP3    H125849   4.111   6.497   2.857
 8636TIP3    H225850   4.126   6.559   2.718
 8637TIP3   OH225851   3.297   6.383   4.914
 8637TIP3    H125852   3.314   6.287   4.920
 8637TIP3    H225853   3.209   6.384   4.869
 8638TIP3   OH225854   3.273   6.036   3.105
 8638TIP3    H125855   3.326   6.000   3.178
 8638TIP3    H225856   3.341   6.040   3.035
 8639TIP3   OH225857   3.903   6.467   4.687
 8639TIP3    H125858   3.864   6.481   4.599
 8639TIP3    H225859   3.935   6.374   4.681
 8640TIP3   OH225860   3.779   6.233   2.912
 8640TIP3    H125861   3.785   6.245   3.009
 8640TIP3    H225862   3.781   6.135   2.906
 8641TIP3   OH225863   4.397   6.474   4.293
 8641TIP3    H125864   4.472   6.519   4.249
 8641TIP3    H225865   4.326   6.539   4.278
 8642TIP3   OH225866   3.416   6.117   4.893
 8642TIP3    H125867   3.489   6.057   4.874
 8642TIP3    H225868   3.441   6.150   4.982
 8643TIP3   OH225869   3.484   5.937   3.330
 8643TIP3    H125870   3.456   5.894   3.412
 8643TIP3    H225871   3.519   5.862   3.279
 8644TIP3   OH225872   3.750   6.002   4.557
 8644TIP3    H125873   3.672   6.062   4.558
 8644TIP3    H225874   3.801   6.035   4.480
 8645TIP3   OH225875   3.581   5.731   3.170
 8645TIP3    H125876   3.556   5.732   3.075
 8645TIP3    H225877   3.679   5.734   3.163
 8646TIP3   OH225878   4.269   6.405   4.693
 8646TIP3    H125879   4.348   6.380   4.642
 8646TIP3    H225880   4.265   6.336   4.760
 8647TIP3   OH225881   4.406   6.063   2.830
 8647TIP3    H125882   4.383   6.016   2.747
 8647TIP3    H225883   4.372   6.153   2.807
 8648TIP3   OH225884   3.873   5.789   4.685
 8648TIP3    H125885   3.874   5.708   4.630
 8648TIP3    H225886   3.830   5.854   4.625
 8649TIP3   OH225887   3.876   5.579   4.491
 8649TIP3    H125888   3.904   5.616   4.406
 8649TIP3    H225889   3.783   5.553   4.473
 8650TIP3   OH225890   3.906   6.112   4.364
 8650TIP3    H125891   3.988   6.118   4.314
 8650TIP3    H225892   3.850   6.179   4.319
 8651TIP3   OH225893   4.487   6.079   4.745
 8651TIP3    H125894   4.534   5.995   4.758
 8651TIP3    H225895   4.558   6.136   4.712
 8652TIP3   OH225896   4.528   6.333   4.483
 8652TIP3    H125897   4.470   6.385   4.422
 8652TIP3    H225898   4.615   6.352   4.442
 8653TIP3   OH225899   3.748   5.905   4.912
 8653TIP3    H125900   3.682   5.834   4.927
 8653TIP3    H225901   3.785   5.879   4.826
 8654TIP3   OH225902   4.010   5.341   4.552
 8654TIP3    H125903   3.958   5.422   4.534
 8654TIP3    H225904   3.941   5.272   4.546
 8655TIP3   OH225905   4.134   5.847   4.773
 8655TIP3    H125906   4.125   5.832   4.869
 8655TIP3    H225907   4.044   5.820   4.744
 8656TIP3   OH225908   4.374   5.795   4.628
 8656TIP3    H125909   4.299   5.794   4.691
 8656TIP3    H225910   4.448   5.763   4.684
 8657TIP3   OH225911   4.600   5.733   4.778
 8657TIP3    H125912   4.614   5.638   4.798
 8657TIP3    H225913   4.599   5.773   4.868
 8658TIP3   OH225914   3.592   5.684   4.965
 8658TIP3    H125915   3.597   5.593   4.930
 8658TIP3    H225916   3.629   5.670   5.055
 8659TIP3   OH225917   4.106   5.354   4.810
 8659TIP3    H125918   4.169   5.279   4.809
 8659TIP3    H225919   4.065   5.343   4.722
 8660TIP3   OH225920   4.171   5.566   4.972
 8660TIP3    H125921   4.150   5.494   4.908
 8660TIP3    H225922   4.092   5.623   4.965
 8661TIP3   OH225923   3.389   6.796   3.073
 8661TIP3    H125924   3.484   6.790   3.055
 8661TIP3    H225925   3.360   6.843   2.993
 8662TIP3   OH225926   2.869   6.176   3.290
 8662TIP3    H125927   2.964   6.197   3.276
 8662TIP3    H225928   2.864   6.086   3.250
 8663TIP3   OH225929   2.784   6.789   3.702
 8663TIP3    H125930   2.717   6.727   3.667
 8663TIP3    H225931   2.828   6.732   3.769
 8664TIP3   OH225932   2.919   6.643   3.890
 8664TIP3    H125933   2.908   6.566   3.948
 8664TIP3    H225934   2.971   6.701   3.949
 8665TIP3   OH225935   4.640   7.052   3.688
 8665TIP3    H125936   4.681   7.082   3.771
 8665TIP3    H225937   4.714   7.062   3.625
 8666TIP3   OH225938   4.673   7.062   3.975
 8666TIP3    H125939   4.634   6.973   3.968
 8666TIP3    H225940   4.757   7.040   4.018
 8667TIP3   OH225941   4.722   6.737   4.545
 8667TIP3    H125942   4.649   6.745   4.608
 8667TIP3    H225943   4.763   6.826   4.549
 8668TIP3   OH225944   4.539   6.251   3.165
 8668TIP3    H125945   4.608   6.314   3.137
 8668TIP3    H225946   4.581   6.211   3.245
 8669TIP3   OH225947   4.666   6.117   3.368
 8669TIP3    H125948   4.600   6.075   3.428
 8669TIP3    H225949   4.731   6.155   3.430
 8670TIP3   OH225950   4.718   6.507   3.800
 8670TIP3    H125951   4.772   6.444   3.749
 8670TIP3    H225952   4.717   6.585   3.741
 8671TIP3   OH225953   4.553   6.808   3.997
 8671TIP3    H125954   4.480   6.850   4.046
 8671TIP3    H225955   4.505   6.760   3.926
 8672TIP3   OH225956   4.605   6.025   3.016
 8672TIP3    H125957   4.534   6.028   2.948
 8672TIP3    H225958   4.578   6.100   3.072
 8673TIP3   OH225959   4.477   5.698   2.970
 8673TIP3    H125960   4.433   5.736   2.893
 8673TIP3    H225961   4.451   5.603   2.962
 8674TIP3   OH225962   4.481   5.973   3.516
 8674TIP3    H125963   4.489   5.876   3.510
 8674TIP3    H225964   4.468   5.987   3.613
 8675TIP3   OH225965   3.107   6.048   4.261
 8675TIP3    H125966   3.106   6.017   4.168
 8675TIP3    H225967   3.204   6.049   4.279
 8676TIP3   OH225968   4.770   6.398   4.372
 8676TIP3    H125969   4.843   6.332   4.364
 8676TIP3    H225970   4.797   6.465   4.308
 8677TIP3   OH225971   4.957   6.205   4.394
 8677TIP3    H125972   4.882   6.153   4.430
 8677TIP3    H225973   5.030   6.141   4.405
 8678TIP3   OH225974   4.419   5.432   2.957
 8678TIP3    H125975   4.494   5.401   3.011
 8678TIP3    H225976   4.346   5.373   2.981
 8679TIP3   OH225977   4.477   5.688   3.411
 8679TIP3    H125978   4.516   5.599   3.427
 8679TIP3    H225979   4.536   5.721   3.342
 8680TIP3   OH225980   4.639   5.865   3.905
 8680TIP3    H125981   4.725   5.891   3.865
 8680TIP3    H225982   4.653   5.901   3.995
 8681TIP3   OH225983   4.707   6.006   4.138
 8681TIP3    H125984   4.629   6.041   4.185
 8681TIP3    H225985   4.740   6.087   4.092
 8682TIP3   OH225986   3.326   5.737   4.940
 8682TIP3    H125987   3.424   5.726   4.939
 8682TIP3    H225988   3.301   5.650   4.978
 8683TIP3   OH225989   5.157   5.592   4.693
 8683TIP3    H125990   5.218   5.531   4.648
 8683TIP3    H225991   5.130   5.652   4.620
 8684TIP3   OH225992   4.586   5.439   3.447
 8684TIP3    H125993   4.635   5.424   3.531
 8684TIP3    H225994   4.525   5.362   3.448
 8685TIP3   OH225995   3.285   5.426   4.269
 8685TIP3    H125996   3.346   5.350   4.278
 8685TIP3    H225997   3.349   5.499   4.261
 8686TIP3   OH225998   3.089   5.700   4.340
 8686TIP3    H125999   3.138   5.692   4.256
 8686TIP3    H226000   3.122   5.785   4.372
 8687TIP3   OH226001   5.032   5.739   4.500
 8687TIP3    H126002   4.946   5.779   4.524
 8687TIP3    H226003   5.001   5.667   4.441
 8688TIP3   OH226004   4.668   5.375   3.079
 8688TIP3    H126005   4.708   5.302   3.028
 8688TIP3    H226006   4.737   5.445   3.073
 8689TIP3   OH226007   3.072   5.206   3.844
 8689TIP3    H126008   2.978   5.201   3.867
 8689TIP3    H226009   3.070   5.263   3.764
 8690TIP3   OH226010   4.230   6.908   3.346
 8690TIP3    H126011   4.280   6.892   3.264
 8690TIP3    H226012   4.288   6.970   3.393
 8691TIP3   OH226013   3.293   5.288   4.658
 8691TIP3    H126014   3.241   5.277   4.739
 8691TIP3    H226015   3.225   5.321   4.596
 8692TIP3   OH226016   3.331   6.716   4.736
 8692TIP3    H126017   3.242   6.681   4.715
 8692TIP3    H226018   3.342   6.687   4.827
 8693TIP3   OH226019   3.509   6.742   4.281
 8693TIP3    H126020   3.462   6.817   4.240
 8693TIP3    H226021   3.596   6.754   4.238
 8694TIP3   OH226022   3.956   6.989   4.421
 8694TIP3    H126023   4.000   6.989   4.508
 8694TIP3    H226024   4.023   7.038   4.367
 8695TIP3   OH226025   4.135   7.138   4.276
 8695TIP3    H126026   4.205   7.087   4.233
 8695TIP3    H226027   4.188   7.194   4.337
 8696TIP3   OH226028   4.929   5.502   4.377
 8696TIP3    H126029   4.837   5.496   4.345
 8696TIP3    H226030   4.958   5.409   4.366
 8697TIP3   OH226031   3.187   7.003   4.301
 8697TIP3    H126032   3.098   7.038   4.279
 8697TIP3    H226033   3.192   7.025   4.394
 8698TIP3   OH226034   3.424   6.979   4.161
 8698TIP3    H126035   3.337   6.992   4.205
 8698TIP3    H226036   3.405   7.009   4.071
 8699TIP3   OH226037   3.849   7.008   3.959
 8699TIP3    H126038   3.780   7.028   3.893
 8699TIP3    H226039   3.862   7.096   4.002
 8700TIP3   OH226040   4.118   6.947   4.012
 8700TIP3    H126041   4.024   6.965   3.989
 8700TIP3    H226042   4.163   7.021   3.968
 8701TIP3   OH226043   4.324   7.138   3.926
 8701TIP3    H126044   4.312   7.223   3.878
 8701TIP3    H226045   4.353   7.078   3.855
 8702TIP3   OH226046   3.099   6.794   4.051
 8702TIP3    H126047   3.126   6.768   4.141
 8702TIP3    H226048   3.169   6.748   3.999
 8703TIP3   OH226049   3.291   6.664   3.905
 8703TIP3    H126050   3.307   6.580   3.954
 8703TIP3    H226051   3.381   6.701   3.899
 8704TIP3   OH226052   3.558   6.760   3.907
 8704TIP3    H126053   3.589   6.669   3.893
 8704TIP3    H226054   3.601   6.780   3.992
 8705TIP3   OH226055   4.131   5.416   3.994
 8705TIP3    H126056   4.088   5.348   4.049
 8705TIP3    H226057   4.204   5.366   3.952
 8706TIP3   OH226058   4.659   5.292   3.900
 8706TIP3    H126059   4.695   5.347   3.826
 8706TIP3    H226060   4.564   5.312   3.895
 8707TIP3   OH226061   4.752   5.397   3.664
 8707TIP3    H126062   4.826   5.347   3.624
 8707TIP3    H226063   4.785   5.489   3.650
 8708TIP3   OH226064   3.383   5.126   4.013
 8708TIP3    H126065   3.290   5.093   4.015
 8708TIP3    H226066   3.432   5.041   4.008
 8709TIP3   OH226067   3.167   4.994   3.659
 8709TIP3    H126068   3.199   5.051   3.587
 8709TIP3    H226069   3.141   5.058   3.727
 8710TIP3   OH226070   3.823   5.162   3.894
 8710TIP3    H126071   3.885   5.210   3.836
 8710TIP3    H226072   3.848   5.196   3.981
 8711TIP3   OH226073   4.376   5.304   3.876
 8711TIP3    H126074   4.368   5.268   3.787
 8711TIP3    H226075   4.360   5.224   3.931
 8712TIP3   OH226076   4.402   5.225   3.439
 8712TIP3    H126077   4.315   5.267   3.449
 8712TIP3    H226078   4.388   5.140   3.486
 8713TIP3   OH226079   2.887   6.562   3.440
 8713TIP3    H126080   2.802   6.528   3.407
 8713TIP3    H226081   2.873   6.657   3.426
 8714TIP3   OH226082   3.285   5.154   3.424
 8714TIP3    H126083   3.333   5.090   3.367
 8714TIP3    H226084   3.359   5.207   3.460
 8715TIP3   OH226085   3.799   5.329   3.522
 8715TIP3    H126086   3.856   5.279   3.583
 8715TIP3    H226087   3.823   5.421   3.549
 8716TIP3   OH226088   3.657   6.756   3.021
 8716TIP3    H126089   3.747   6.776   2.987
 8716TIP3    H226090   3.636   6.681   2.962
 8717TIP3   OH226091   4.374   6.870   3.114
 8717TIP3    H126092   4.366   6.773   3.102
 8717TIP3    H226093   4.331   6.902   3.032
 8718TIP3   OH226094   3.591   5.409   4.906
 8718TIP3    H126095   3.557   5.335   4.959
 8718TIP3    H226096   3.686   5.406   4.932
 8719TIP3   OH226097   3.842   5.405   5.023
 8719TIP3    H126098   3.924   5.372   4.982
 8719TIP3    H226099   3.826   5.335   5.091
 8720TIP3   OH226100   2.963   6.595   3.079
 8720TIP3    H126101   2.961   6.615   3.174
 8720TIP3    H226102   3.051   6.552   3.069
 8721TIP3   OH226103   4.665   5.463   4.811
 8721TIP3    H126104   4.683   5.431   4.902
 8721TIP3    H226105   4.754   5.458   4.770
 8722TIP3   OH226106   4.603   7.017   4.306
 8722TIP3    H126107   4.526   6.985   4.254
 8722TIP3    H226108   4.585   7.113   4.305
 8723TIP3   OH226109   5.870   6.387   3.070
 8723TIP3    H126110   5.843   6.480   3.052
 8723TIP3    H226111   5.791   6.340   3.039
 8724TIP3   OH226112   5.868   6.387   3.447
 8724TIP3    H126113   5.899   6.360   3.535
 8724TIP3    H226114   5.826   6.306   3.414
 8725TIP3   OH226115   5.169   6.285   3.815
 8725TIP3    H126116   5.200   6.217   3.878
 8725TIP3    H226117   5.246   6.342   3.809
 8726TIP3   OH226118   6.110   6.691   3.130
 8726TIP3    H126119   6.098   6.621   3.196
 8726TIP3    H226120   6.140   6.766   3.185
 8727TIP3   OH226121   5.142   6.692   3.551
 8727TIP3    H126122   5.132   6.595   3.550
 8727TIP3    H226123   5.237   6.701   3.534
 8728TIP3   OH226124   4.847   5.896   3.326
 8728TIP3    H126125   4.800   5.980   3.341
 8728TIP3    H226126   4.775   5.842   3.290
 8729TIP3   OH226127   4.904   6.183   3.494
 8729TIP3    H126128   4.953   6.107   3.532
 8729TIP3    H226129   4.966   6.215   3.427
 8730TIP3   OH226130   5.761   7.155   3.146
 8730TIP3    H126131   5.808   7.082   3.101
 8730TIP3    H226132   5.748   7.119   3.234
 8731TIP3   OH226133   5.668   6.613   3.498
 8731TIP3    H126134   5.707   6.537   3.452
 8731TIP3    H226135   5.752   6.659   3.522
 8732TIP3   OH226136   6.674   5.936   3.495
 8732TIP3    H126137   6.708   6.016   3.539
 8732TIP3    H226138   6.701   5.952   3.403
 8733TIP3   OH226139   6.078   6.116   3.532
 8733TIP3    H126140   6.122   6.032   3.552
 8733TIP3    H226141   6.050   6.100   3.440
 8734TIP3   OH226142   5.416   5.774   3.497
 8734TIP3    H126143   5.396   5.848   3.434
 8734TIP3    H226144   5.368   5.702   3.452
 8735TIP3   OH226145   6.110   5.866   3.118
 8735TIP3    H126146   6.181   5.849   3.185
 8735TIP3    H226147   6.164   5.901   3.045
 8736TIP3   OH226148   5.051   5.978   3.601
 8736TIP3    H126149   5.133   5.959   3.650
 8736TIP3    H226150   5.065   5.921   3.523
 8737TIP3   OH226151   5.493   6.175   3.394
 8737TIP3    H126152   5.586   6.149   3.408
 8737TIP3    H226153   5.454   6.090   3.362
 8738TIP3   OH226154   6.753   6.141   3.666
 8738TIP3    H126155   6.670   6.189   3.646
 8738TIP3    H226156   6.768   6.169   3.757
 8739TIP3   OH226157   5.414   5.758   3.930
 8739TIP3    H126158   5.353   5.796   3.863
 8739TIP3    H226159   5.363   5.775   4.012
 8740TIP3   OH226160   5.765   6.611   2.938
 8740TIP3    H126161   5.716   6.588   2.858
 8740TIP3    H226162   5.722   6.695   2.962
 8741TIP3   OH226163   5.521   6.533   3.727
 8741TIP3    H126164   5.458   6.598   3.766
 8741TIP3    H226165   5.561   6.585   3.655
 8742TIP3   OH226166   6.322   5.868   3.288
 8742TIP3    H126167   6.317   5.817   3.370
 8742TIP3    H226168   6.377   5.943   3.314
 8743TIP3   OH226169   5.283   5.874   3.715
 8743TIP3    H126170   5.346   5.946   3.740
 8743TIP3    H226171   5.333   5.833   3.640
 8744TIP3   OH226172   5.349   6.725   3.826
 8744TIP3    H126173   5.323   6.809   3.783
 8744TIP3    H226174   5.268   6.710   3.880
 8745TIP3   OH226175   4.744   6.416   3.059
 8745TIP3    H126176   4.702   6.449   2.978
 8745TIP3    H226177   4.775   6.500   3.100
 8746TIP3   OH226178   6.182   6.932   3.298
 8746TIP3    H126179   6.093   6.923   3.338
 8746TIP3    H226180   6.175   7.019   3.254
 8747TIP3   OH226181   6.473   5.834   3.664
 8747TIP3    H126182   6.386   5.864   3.631
 8747TIP3    H226183   6.534   5.865   3.593
 8748TIP3   OH226184   5.772   5.480   3.643
 8748TIP3    H126185   5.757   5.385   3.659
 8748TIP3    H226186   5.694   5.518   3.690
 8749TIP3   OH226187   5.888   6.979   2.975
 8749TIP3    H126188   5.937   6.897   2.953
 8749TIP3    H226189   5.949   7.045   2.934
 8750TIP3   OH226190   6.030   6.764   2.878
 8750TIP3    H126191   5.986   6.686   2.842
 8750TIP3    H226192   6.064   6.729   2.963
 8751TIP3   OH226193   6.408   6.847   3.643
 8751TIP3    H126194   6.397   6.770   3.582
 8751TIP3    H226195   6.392   6.922   3.583
 8752TIP3   OH226196   5.699   6.238   2.898
 8752TIP3    H126197   5.620   6.292   2.877
 8752TIP3    H226198   5.747   6.238   2.813
 8753TIP3   OH226199   5.658   6.024   2.615
 8753TIP3    H126200   5.724   6.075   2.666
 8753TIP3    H226201   5.717   5.960   2.570
 8754TIP3   OH226202   6.604   6.482   3.486
 8754TIP3    H126203   6.521   6.534   3.493
 8754TIP3    H226204   6.633   6.507   3.396
 8755TIP3   OH226205   6.048   6.321   2.872
 8755TIP3    H126206   5.993   6.346   2.950
 8755TIP3    H226207   6.132   6.297   2.915
 8756TIP3   OH226208   6.283   6.363   3.782
 8756TIP3    H126209   6.280   6.446   3.832
 8756TIP3    H226210   6.196   6.367   3.737
 8757TIP3   OH226211   5.280   6.321   3.288
 8757TIP3    H126212   5.239   6.263   3.220
 8757TIP3    H226213   5.357   6.267   3.317
 8758TIP3   OH226214   5.408   6.727   3.441
 8758TIP3    H126215   5.388   6.688   3.354
 8758TIP3    H226216   5.499   6.696   3.457
 8759TIP3   OH226217   5.418   6.291   3.643
 8759TIP3    H126218   5.450   6.271   3.553
 8759TIP3    H226219   5.460   6.377   3.663
 8760TIP3   OH226220   5.942   6.928   3.418
 8760TIP3    H126221   5.927   7.010   3.470
 8760TIP3    H226222   5.926   6.857   3.484
 8761TIP3   OH226223   5.554   6.850   3.969
 8761TIP3    H126224   5.491   6.911   4.012
 8761TIP3    H226225   5.491   6.795   3.917
 8762TIP3   OH226226   5.889   6.181   2.697
 8762TIP3    H126227   5.947   6.240   2.750
 8762TIP3    H226228   5.916   6.205   2.605
 8763TIP3   OH226229   5.308   6.406   4.064
 8763TIP3    H126230   5.312   6.492   4.111
 8763TIP3    H226231   5.213   6.385   4.074
 8764TIP3   OH226232   5.631   6.860   2.968
 8764TIP3    H126233   5.707   6.914   2.994
 8764TIP3    H226234   5.566   6.925   2.940
 8765TIP3   OH226235   5.348   7.019   4.054
 8765TIP3    H126236   5.314   7.018   3.962
 8765TIP3    H226237   5.269   6.994   4.106
 8766TIP3   OH226238   6.403   5.422   2.743
 8766TIP3    H126239   6.323   5.442   2.796
 8766TIP3    H226240   6.416   5.507   2.696
 8767TIP3   OH226241   5.147   6.162   3.091
 8767TIP3    H126242   5.081   6.207   3.035
 8767TIP3    H226243   5.104   6.078   3.108
 8768TIP3   OH226244   6.202   6.789   2.291
 8768TIP3    H126245   6.211   6.886   2.279
 8768TIP3    H226246   6.295   6.759   2.281
 8769TIP3   OH226247   4.927   6.547   4.001
 8769TIP3    H126248   4.864   6.525   3.930
 8769TIP3    H226249   4.964   6.460   4.025
 8770TIP3   OH226250   4.782   6.738   3.639
 8770TIP3    H126251   4.876   6.733   3.617
 8770TIP3    H226252   4.779   6.822   3.687
 8771TIP3   OH226253   6.641   7.194   3.691
 8771TIP3    H126254   6.638   7.098   3.701
 8771TIP3    H226255   6.595   7.223   3.773
 8772TIP3   OH226256   5.753   6.977   3.824
 8772TIP3    H126257   5.751   7.070   3.855
 8772TIP3    H226258   5.680   6.938   3.877
 8773TIP3   OH226259   5.513   7.109   2.773
 8773TIP3    H126260   5.464   7.092   2.690
 8773TIP3    H226261   5.478   7.195   2.802
 8774TIP3   OH226262   4.946   6.958   3.154
 8774TIP3    H126263   5.005   6.949   3.232
 8774TIP3    H226264   4.878   6.895   3.179
 8775TIP3   OH226265   5.713   7.006   2.415
 8775TIP3    H126266   5.773   6.938   2.380
 8775TIP3    H226267   5.747   7.017   2.507
 8776TIP3   OH226268   5.764   7.054   2.685
 8776TIP3    H126269   5.675   7.066   2.727
 8776TIP3    H226270   5.814   7.014   2.758
 8777TIP3   OH226271   6.536   6.321   3.964
 8777TIP3    H126272   6.456   6.336   3.910
 8777TIP3    H226273   6.551   6.226   3.951
 8778TIP3   OH226274   5.131   6.731   3.991
 8778TIP3    H126275   5.182   6.710   4.072
 8778TIP3    H226276   5.057   6.666   3.997
 8779TIP3   OH226277   5.533   5.552   3.772
 8779TIP3    H126278   5.443   5.523   3.746
 8779TIP3    H226279   5.509   5.636   3.817
 8780TIP3   OH226280   6.065   5.668   3.966
 8780TIP3    H126281   6.133   5.643   4.032
 8780TIP3    H226282   5.981   5.650   4.012
 8781TIP3   OH226283   6.305   6.097   3.885
 8781TIP3    H126284   6.255   6.094   3.970
 8781TIP3    H226285   6.282   6.185   3.850
 8782TIP3   OH226286   5.963   6.229   2.441
 8782TIP3    H126287   5.932   6.202   2.353
 8782TIP3    H226288   6.043   6.279   2.418
 8783TIP3   OH226289   5.676   5.604   2.744
 8783TIP3    H126290   5.645   5.600   2.836
 8783TIP3    H226291   5.639   5.521   2.710
 8784TIP3   OH226292   5.462   6.069   3.791
 8784TIP3    H126293   5.414   6.093   3.873
 8784TIP3    H226294   5.448   6.150   3.737
 8785TIP3   OH226295   5.348   5.954   3.305
 8785TIP3    H126296   5.255   5.929   3.323
 8785TIP3    H226297   5.360   5.914   3.217
 8786TIP3   OH226298   5.838   6.040   3.032
 8786TIP3    H126299   5.785   6.112   2.991
 8786TIP3    H226300   5.893   6.011   2.956
 8787TIP3   OH226301   6.013   6.324   4.119
 8787TIP3    H126302   5.990   6.250   4.181
 8787TIP3    H226303   6.108   6.335   4.139
 8788TIP3   OH226304   5.995   6.070   3.273
 8788TIP3    H126305   5.936   6.101   3.201
 8788TIP3    H226306   6.028   5.988   3.230
 8789TIP3   OH226307   5.282   6.098   4.001
 8789TIP3    H126308   5.314   6.160   4.068
 8789TIP3    H226309   5.272   6.016   4.053
 8790TIP3   OH226310   5.331   5.574   2.709
 8790TIP3    H126311   5.326   5.572   2.807
 8790TIP3    H226312   5.252   5.627   2.688
 8791TIP3   OH226313   4.875   5.621   3.580
 8791TIP3    H126314   4.951   5.652   3.633
 8791TIP3    H226315   4.917   5.588   3.499
 8792TIP3   OH226316   4.852   5.602   3.100
 8792TIP3    H126317   4.898   5.640   3.022
 8792TIP3    H226318   4.790   5.675   3.120
 8793TIP3   OH226319   6.004   6.317   3.695
 8793TIP3    H126320   6.038   6.244   3.638
 8793TIP3    H226321   5.976   6.264   3.773
 8794TIP3   OH226322   5.672   5.778   3.366
 8794TIP3    H126323   5.590   5.776   3.420
 8794TIP3    H226324   5.740   5.778   3.435
 8795TIP3   OH226325   5.109   5.832   3.375
 8795TIP3    H126326   5.014   5.840   3.348
 8795TIP3    H226327   5.131   5.740   3.352
 8796TIP3   OH226328   5.379   5.829   3.063
 8796TIP3    H126329   5.474   5.844   3.043
 8796TIP3    H226330   5.334   5.852   2.979
 8797TIP3   OH226331   6.166   5.854   3.568
 8797TIP3    H126332   6.131   5.866   3.659
 8797TIP3    H226333   6.101   5.791   3.531
 8798TIP3   OH226334   5.218   5.862   2.842
 8798TIP3    H126335   5.144   5.820   2.795
 8798TIP3    H226336   5.269   5.898   2.767
 8799TIP3   OH226337   6.316   7.577   3.790
 8799TIP3    H126338   6.337   7.557   3.698
 8799TIP3    H226339   6.400   7.557   3.836
 8800TIP3   OH226340   5.294   6.653   4.209
 8800TIP3    H126341   5.374   6.680   4.259
 8800TIP3    H226342   5.229   6.649   4.282
 8801TIP3   OH226343   5.757   6.103   3.463
 8801TIP3    H126344   5.832   6.067   3.413
 8801TIP3    H226345   5.769   6.063   3.551
 8802TIP3   OH226346   5.282   5.594   3.340
 8802TIP3    H126347   5.249   5.515   3.386
 8802TIP3    H226348   5.335   5.556   3.269
 8803TIP3   OH226349   5.734   5.999   3.757
 8803TIP3    H126350   5.645   6.038   3.768
 8803TIP3    H226351   5.792   6.061   3.805
 8804TIP3   OH226352   5.471   6.393   2.848
 8804TIP3    H126353   5.399   6.328   2.839
 8804TIP3    H226354   5.454   6.427   2.940
 8805TIP3   OH226355   6.373   6.629   3.479
 8805TIP3    H126356   6.396   6.679   3.398
 8805TIP3    H226357   6.288   6.587   3.454
 8806TIP3   OH226358   5.929   5.707   2.706
 8806TIP3    H126359   5.833   5.690   2.717
 8806TIP3    H226360   5.940   5.800   2.734
 8807TIP3   OH226361   5.867   6.709   3.846
 8807TIP3    H126362   5.894   6.688   3.936
 8807TIP3    H226363   5.835   6.800   3.852
 8808TIP3   OH226364   6.000   5.952   2.812
 8808TIP3    H126365   6.096   5.957   2.831
 8808TIP3    H226366   5.983   6.033   2.761
 8809TIP3   OH226367   5.161   6.412   3.525
 8809TIP3    H126368   5.200   6.385   3.439
 8809TIP3    H226369   5.204   6.350   3.587
 8810TIP3   OH226370   5.614   6.541   2.665
 8810TIP3    H126371   5.567   6.628   2.672
 8810TIP3    H226372   5.562   6.487   2.728
 8811TIP3   OH226373   5.042   6.337   4.139
 8811TIP3    H126374   5.066   6.321   4.232
 8811TIP3    H226375   4.975   6.268   4.123
 8812TIP3   OH226376   5.768   6.449   4.156
 8812TIP3    H126377   5.709   6.388   4.109
 8812TIP3    H226378   5.856   6.415   4.128
 8813TIP3   OH226379   6.030   6.963   3.747
 8813TIP3    H126380   5.934   6.968   3.757
 8813TIP3    H226381   6.059   7.024   3.818
 8814TIP3   OH226382   6.441   6.041   2.651
 8814TIP3    H126383   6.379   5.997   2.589
 8814TIP3    H226384   6.439   6.131   2.611
 8815TIP3   OH226385   6.658   6.896   3.732
 8815TIP3    H126386   6.560   6.895   3.723
 8815TIP3    H226387   6.684   6.868   3.642
 8816TIP3   OH226388   6.138   6.862   2.556
 8816TIP3    H126389   6.117   6.793   2.621
 8816TIP3    H226390   6.153   6.812   2.474
 8817TIP3   OH226391   6.137   6.491   3.399
 8817TIP3    H126392   6.043   6.466   3.411
 8817TIP3    H226393   6.171   6.412   3.353
 8818TIP3   OH226394   5.262   6.714   3.142
 8818TIP3    H126395   5.265   6.800   3.097
 8818TIP3    H226396   5.171   6.713   3.174
 8819TIP3   OH226397   4.826   6.023   2.850
 8819TIP3    H126398   4.872   6.106   2.872
 8819TIP3    H226399   4.750   6.027   2.913
 8820TIP3   OH226400   5.405   6.483   3.093
 8820TIP3    H126401   5.367   6.572   3.108
 8820TIP3    H226402   5.369   6.434   3.169
 8821TIP3   OH226403   5.529   7.069   3.629
 8821TIP3    H126404   5.569   7.131   3.566
 8821TIP3    H226405   5.608   7.030   3.670
 8822TIP3   OH226406   5.183   6.957   2.999
 8822TIP3    H126407   5.098   6.964   3.047
 8822TIP3    H226408   5.214   7.050   3.005
 8823TIP3   OH226409   5.922   6.695   3.577
 8823TIP3    H126410   5.913   6.693   3.675
 8823TIP3    H226411   6.004   6.645   3.564
 8824TIP3   OH226412   5.894   6.586   2.460
 8824TIP3    H126413   5.949   6.562   2.538
 8824TIP3    H226414   5.806   6.563   2.493
 8825TIP3   OH226415   6.161   7.229   3.622
 8825TIP3    H126416   6.080   7.177   3.606
 8825TIP3    H226417   6.153   7.299   3.553
 8826TIP3   OH226418   6.236   7.064   2.280
 8826TIP3    H126419   6.275   7.137   2.229
 8826TIP3    H226420   6.156   7.110   2.313
 8827TIP3   OH226421   5.257   5.839   4.147
 8827TIP3    H126422   5.161   5.845   4.163
 8827TIP3    H226423   5.286   5.783   4.220
 8828TIP3   OH226424   6.056   6.521   2.675
 8828TIP3    H126425   6.045   6.457   2.748
 8828TIP3    H226426   6.153   6.519   2.665
 8829TIP3   OH226427   4.968   6.923   3.789
 8829TIP3    H126428   5.025   6.852   3.822
 8829TIP3    H226429   5.002   7.000   3.837
 8830TIP3   OH226430   5.259   6.569   2.457
 8830TIP3    H126431   5.280   6.477   2.433
 8830TIP3    H226432   5.244   6.560   2.554
 8831TIP3   OH226433   5.209   6.575   2.729
 8831TIP3    H126434   5.277   6.548   2.793
 8831TIP3    H226435   5.212   6.673   2.739
 8832TIP3   OH226436   4.943   6.269   2.935
 8832TIP3    H126437   4.878   6.313   2.993
 8832TIP3    H226438   4.958   6.339   2.869
 8833TIP3   OH226439   6.091   5.905   3.827
 8833TIP3    H126440   6.171   5.944   3.865
 8833TIP3    H226441   6.078   5.825   3.882
 8834TIP3   OH226442   5.971   5.658   2.991
 8834TIP3    H126443   5.960   5.682   2.897
 8834TIP3    H226444   6.010   5.740   3.028
 8835TIP3   OH226445   5.472   6.771   2.676
 8835TIP3    H126446   5.387   6.797   2.717
 8835TIP3    H226447   5.491   6.851   2.625
 8836TIP3   OH226448   5.662   5.835   3.094
 8836TIP3    H126449   5.727   5.907   3.077
 8836TIP3    H226450   5.667   5.828   3.191
 8837TIP3   OH226451   5.932   6.156   3.902
 8837TIP3    H126452   5.948   6.209   3.982
 8837TIP3    H226453   5.986   6.077   3.917
 8838TIP3   OH226454   5.806   5.565   3.197
 8838TIP3    H126455   5.803   5.640   3.259
 8838TIP3    H226456   5.866   5.601   3.128
 8839TIP3   OH226457   5.215   6.847   2.747
 8839TIP3    H126458   5.184   6.919   2.687
 8839TIP3    H226459   5.199   6.889   2.835
 8840TIP3   OH226460   5.318   5.561   2.986
 8840TIP3    H126461   5.316   5.652   3.023
 8840TIP3    H226462   5.413   5.542   2.995
 8841TIP3   OH226463   6.573   6.055   3.883
 8841TIP3    H126464   6.475   6.052   3.889
 8841TIP3    H226465   6.586   6.016   3.796
 8842TIP3   OH226466   6.222   6.250   3.270
 8842TIP3    H126467   6.148   6.189   3.284
 8842TIP3    H226468   6.295   6.204   3.317
 8843TIP3   OH226469   4.933   6.480   2.740
 8843TIP3    H126470   4.995   6.553   2.754
 8843TIP3    H226471   4.984   6.428   2.674
 8844TIP3   OH226472   4.880   5.754   2.873
 8844TIP3    H126473   4.878   5.852   2.869
 8844TIP3    H226474   4.795   5.731   2.835
 8845TIP3   OH226475   6.190   7.203   3.220
 8845TIP3    H126476   6.148   7.250   3.145
 8845TIP3    H226477   6.285   7.222   3.200
 8846TIP3   OH226478   5.267   5.475   3.748
 8846TIP3    H126479   5.236   5.441   3.661
 8846TIP3    H226480   5.257   5.397   3.806
 8847TIP3   OH226481   4.801   6.676   3.132
 8847TIP3    H126482   4.733   6.721   3.183
 8847TIP3    H226483   4.796   6.725   3.047
 8848TIP3   OH226484   4.959   7.231   4.205
 8848TIP3    H126485   5.048   7.227   4.247
 8848TIP3    H226486   4.939   7.137   4.196
 8849TIP3   OH226487   5.445   7.200   4.246
 8849TIP3    H126488   5.540   7.183   4.247
 8849TIP3    H226489   5.417   7.143   4.171
 8850TIP3   OH226490   5.423   6.773   2.369
 8850TIP3    H126491   5.367   6.704   2.411
 8850TIP3    H226492   5.501   6.721   2.345
 8851TIP3   OH226493   6.079   7.106   3.985
 8851TIP3    H126494   6.070   7.033   4.050
 8851TIP3    H226495   6.173   7.129   3.993
 8852TIP3   OH226496   5.861   6.814   2.282
 8852TIP3    H126497   5.908   6.754   2.343
 8852TIP3    H226498   5.920   6.816   2.204
 8853TIP3   OH226499   5.094   6.633   4.402
 8853TIP3    H126500   5.110   6.537   4.401
 8853TIP3    H226501   5.007   6.638   4.356
 8854TIP3   OH226502   5.070   6.292   2.591
 8854TIP3    H126503   5.122   6.258   2.666
 8854TIP3    H226504   5.140   6.296   2.522
 8855TIP3   OH226505   5.697   6.723   4.176
 8855TIP3    H126506   5.659   6.741   4.087
 8855TIP3    H226507   5.730   6.631   4.167
 8856TIP3   OH226508   5.573   6.489   2.398
 8856TIP3    H126509   5.580   6.502   2.495
 8856TIP3    H226510   5.576   6.391   2.393
 8857TIP3   OH226511   6.193   6.731   3.779
 8857TIP3    H126512   6.269   6.774   3.736
 8857TIP3    H226513   6.124   6.799   3.766
 8858TIP3   OH226514   5.215   6.370   4.375
 8858TIP3    H126515   5.290   6.313   4.355
 8858TIP3    H226516   5.234   6.395   4.467
 8859TIP3   OH226517   5.278   6.194   2.815
 8859TIP3    H126518   5.251   6.154   2.900
 8859TIP3    H226519   5.314   6.117   2.767
 8860TIP3   OH226520   5.548   6.256   4.042
 8860TIP3    H126521   5.471   6.316   4.046
 8860TIP3    H226522   5.597   6.292   3.965
 8861TIP3   OH226523   5.377   5.986   2.657
 8861TIP3    H126524   5.353   5.989   2.562
 8861TIP3    H226525   5.475   5.991   2.651
 8862TIP3   OH226526   6.066   6.662   4.181
 8862TIP3    H126527   6.143   6.640   4.129
 8862TIP3    H226528   6.064   6.590   4.247
 8863TIP3   OH226529   6.201   6.319   2.317
 8863TIP3    H126530   6.179   6.273   2.234
 8863TIP3    H226531   6.168   6.409   2.294
 8864TIP3   OH226532   5.674   6.045   4.174
 8864TIP3    H126533   5.671   5.966   4.118
 8864TIP3    H226534   5.627   6.112   4.119
 8865TIP3   OH226535   5.673   5.830   3.976
 8865TIP3    H126536   5.700   5.874   3.893
 8865TIP3    H226537   5.579   5.810   3.958
 8866TIP3   OH226538   5.702   6.368   3.848
 8866TIP3    H126539   5.785   6.378   3.800
 8866TIP3    H226540   5.646   6.436   3.805
 8867TIP3   OH226541   6.284   6.336   4.233
 8867TIP3    H126542   6.333   6.253   4.240
 8867TIP3    H226543   6.351   6.396   4.197
 8868TIP3   OH226544   6.323   6.588   3.968
 8868TIP3    H126545   6.266   6.641   3.908
 8868TIP3    H226546   6.411   6.609   3.928
 8869TIP3   OH226547   5.520   6.179   4.383
 8869TIP3    H126548   5.473   6.100   4.416
 8869TIP3    H226549   5.581   6.139   4.319
 8870TIP3   OH226550   5.805   5.596   4.044
 8870TIP3    H126551   5.757   5.679   4.022
 8870TIP3    H226552   5.735   5.529   4.033
 8871TIP3   OH226553   5.931   6.109   4.262
 8871TIP3    H126554   5.935   6.081   4.355
 8871TIP3    H226555   5.841   6.078   4.237
 8872TIP3   OH226556   6.170   6.050   4.116
 8872TIP3    H126557   6.095   6.050   4.178
 8872TIP3    H226558   6.244   6.019   4.172
 8873TIP3   OH226559   6.401   5.990   4.266
 8873TIP3    H126560   6.411   5.895   4.286
 8873TIP3    H226561   6.396   6.031   4.355
 8874TIP3   OH226562   5.388   5.942   4.454
 8874TIP3    H126563   5.399   5.852   4.419
 8874TIP3    H226564   5.426   5.931   4.544
 8875TIP3   OH226565   5.898   5.603   4.304
 8875TIP3    H126566   5.967   5.534   4.296
 8875TIP3    H226567   5.859   5.600   4.215
 8876TIP3   OH226568   5.965   5.850   4.428
 8876TIP3    H126569   5.940   5.763   4.390
 8876TIP3    H226570   5.897   5.863   4.497
 8877TIP3   OH226571   5.184   7.049   2.557
 8877TIP3    H126572   5.280   7.044   2.542
 8877TIP3    H226573   5.157   7.101   2.478
 8878TIP3   OH226574   4.664   6.433   2.773
 8878TIP3    H126575   4.760   6.455   2.763
 8878TIP3    H226576   4.661   6.343   2.736
 8879TIP3   OH226577   4.576   7.045   3.191
 8879TIP3    H126578   4.511   6.980   3.156
 8879TIP3    H226579   4.623   6.989   3.257
 8880TIP3   OH226580   4.717   6.893   3.369
 8880TIP3    H126581   4.707   6.821   3.434
 8880TIP3    H226582   4.775   6.954   3.421
 8881TIP3   OH226583   6.441   7.299   3.176
 8881TIP3    H126584   6.469   7.325   3.265
 8881TIP3    H226585   6.506   7.344   3.120
 8882TIP3   OH226586   6.477   7.314   3.455
 8882TIP3    H126587   6.431   7.227   3.456
 8882TIP3    H226588   6.546   7.295   3.521
 8883TIP3   OH226589   6.523   6.997   4.041
 8883TIP3    H126590   6.446   7.013   4.098
 8883TIP3    H226591   6.544   7.089   4.015
 8884TIP3   OH226592   6.334   6.507   2.652
 8884TIP3    H126593   6.403   6.570   2.623
 8884TIP3    H226594   6.377   6.468   2.732
 8885TIP3   OH226595   6.462   6.374   2.855
 8885TIP3    H126596   6.397   6.332   2.915
 8885TIP3    H226597   6.527   6.412   2.917
 8886TIP3   OH226598   6.516   6.764   3.287
 8886TIP3    H126599   6.569   6.700   3.236
 8886TIP3    H226600   6.506   6.839   3.225
 8887TIP3   OH226601   6.349   7.068   3.486
 8887TIP3    H126602   6.281   7.111   3.542
 8887TIP3    H226603   6.294   7.022   3.419
 8888TIP3   OH226604   6.401   6.281   2.503
 8888TIP3    H126605   6.330   6.284   2.435
 8888TIP3    H226606   6.374   6.356   2.559
 8889TIP3   OH226607   6.272   5.954   2.457
 8889TIP3    H126608   6.230   5.993   2.380
 8889TIP3    H226609   6.246   5.860   2.448
 8890TIP3   OH226610   6.277   6.230   3.003
 8890TIP3    H126611   6.286   6.133   2.998
 8890TIP3    H226612   6.264   6.244   3.100
 8891TIP3   OH226613   4.904   6.303   3.749
 8891TIP3    H126614   4.902   6.275   3.655
 8891TIP3    H226615   5.001   6.304   3.766
 8892TIP3   OH226616   6.565   6.655   3.859
 8892TIP3    H126617   6.639   6.590   3.851
 8892TIP3    H226618   6.593   6.726   3.798
 8893TIP3   OH226619   6.751   6.460   3.878
 8893TIP3    H126620   6.677   6.410   3.918
 8893TIP3    H226621   6.825   6.397   3.892
 8894TIP3   OH226622   6.216   5.688   2.442
 8894TIP3    H126623   6.293   5.660   2.495
 8894TIP3    H226624   6.144   5.629   2.470
 8895TIP3   OH226625   6.272   5.944   2.898
 8895TIP3    H126626   6.312   5.855   2.913
 8895TIP3    H226627   6.332   5.977   2.829
 8896TIP3   OH226628   6.435   6.123   3.392
 8896TIP3    H126629   6.522   6.148   3.352
 8896TIP3    H226630   6.449   6.157   3.482
 8897TIP3   OH226631   6.503   6.263   3.626
 8897TIP3    H126632   6.424   6.299   3.672
 8897TIP3    H226633   6.536   6.344   3.580
 8898TIP3   OH226634   5.121   5.991   4.422
 8898TIP3    H126635   5.219   5.985   4.425
 8898TIP3    H226636   5.098   5.906   4.464
 8899TIP3   OH226637   6.956   5.854   4.182
 8899TIP3    H126638   7.016   5.789   4.138
 8899TIP3    H226639   6.927   5.908   4.106
 8900TIP3   OH226640   6.382   5.695   2.934
 8900TIP3    H126641   6.432   5.681   3.017
 8900TIP3    H226642   6.322   5.618   2.935
 8901TIP3   OH226643   5.082   5.682   3.754
 8901TIP3    H126644   5.144   5.607   3.764
 8901TIP3    H226645   5.144   5.757   3.748
 8902TIP3   OH226646   4.886   5.956   3.827
 8902TIP3    H126647   4.935   5.951   3.743
 8902TIP3    H226648   4.915   6.042   3.860
 8903TIP3   OH226649   6.827   5.995   3.989
 8903TIP3    H126650   6.739   6.035   4.006
 8903TIP3    H226651   6.801   5.924   3.926
 8904TIP3   OH226652   6.463   5.634   2.564
 8904TIP3    H126653   6.506   5.559   2.518
 8904TIP3    H226654   6.533   5.702   2.562
 8905TIP3   OH226655   4.868   5.460   3.328
 8905TIP3    H126656   4.775   5.457   3.354
 8905TIP3    H226657   4.866   5.519   3.250
 8906TIP3   OH226658   6.026   7.163   2.833
 8906TIP3    H126659   6.078   7.149   2.751
 8906TIP3    H226660   6.081   7.228   2.880
 8907TIP3   OH226661   5.088   5.536   4.141
 8907TIP3    H126662   5.039   5.535   4.225
 8907TIP3    H226663   5.021   5.577   4.082
 8908TIP3   OH226664   5.128   6.966   4.224
 8908TIP3    H126665   5.040   6.938   4.194
 8908TIP3    H226666   5.121   6.949   4.319
 8909TIP3   OH226667   5.301   6.997   3.771
 8909TIP3    H126668   5.238   7.055   3.727
 8909TIP3    H226669   5.384   7.021   3.725
 8910TIP3   OH226670   5.754   7.245   3.906
 8910TIP3    H126671   5.797   7.248   3.994
 8910TIP3    H226672   5.820   7.294   3.852
 8911TIP3   OH226673   5.935   7.392   3.762
 8911TIP3    H126674   6.009   7.342   3.723
 8911TIP3    H226675   5.984   7.450   3.824
 8912TIP3   OH226676   6.724   5.756   3.866
 8912TIP3    H126677   6.635   5.753   3.826
 8912TIP3    H226678   6.754   5.664   3.852
 8913TIP3   OH226679   4.979   7.225   3.820
 8913TIP3    H126680   4.929   7.272   3.752
 8913TIP3    H226681   4.979   7.292   3.890
 8914TIP3   OH226682   5.645   7.265   3.444
 8914TIP3    H126683   5.570   7.280   3.384
 8914TIP3    H226684   5.655   7.353   3.485
 8915TIP3   OH226685   5.912   7.200   3.495
 8915TIP3    H126686   5.818   7.220   3.474
 8915TIP3    H226687   5.957   7.278   3.458
 8916TIP3   OH226688   6.121   7.398   3.411
 8916TIP3    H126689   6.109   7.482   3.363
 8916TIP3    H226690   6.147   7.336   3.340
 8917TIP3   OH226691   4.878   7.043   3.542
 8917TIP3    H126692   4.925   7.020   3.624
 8917TIP3    H226693   4.950   7.085   3.491
 8918TIP3   OH226694   5.096   6.901   3.366
 8918TIP3    H126695   5.113   6.841   3.441
 8918TIP3    H226696   5.157   6.976   3.381
 8919TIP3   OH226697   5.384   7.009   3.373
 8919TIP3    H126698   5.393   6.913   3.383
 8919TIP3    H226699   5.390   7.039   3.464
 8920TIP3   OH226700   5.928   5.673   3.479
 8920TIP3    H126701   5.886   5.603   3.533
 8920TIP3    H226702   6.003   5.625   3.438
 8921TIP3   OH226703   6.452   5.549   3.389
 8921TIP3    H126704   6.493   5.601   3.317
 8921TIP3    H226705   6.358   5.572   3.380
 8922TIP3   OH226706   6.548   5.654   3.152
 8922TIP3    H126707   6.622   5.601   3.115
 8922TIP3    H226708   6.582   5.745   3.137
 8923TIP3   OH226709   5.179   5.382   3.499
 8923TIP3    H126710   5.086   5.350   3.501
 8923TIP3    H226711   5.227   5.296   3.495
 8924TIP3   OH226712   4.965   5.250   3.146
 8924TIP3    H126713   4.995   5.309   3.074
 8924TIP3    H226714   4.936   5.314   3.214
 8925TIP3   OH226715   5.622   5.412   3.380
 8925TIP3    H126716   5.679   5.463   3.320
 8925TIP3    H226717   5.641   5.454   3.465
 8926TIP3   OH226718   6.166   5.560   3.363
 8926TIP3    H126719   6.170   5.523   3.274
 8926TIP3    H226720   6.153   5.479   3.417
 8927TIP3   OH226721   6.198   5.481   2.924
 8927TIP3    H126722   6.111   5.523   2.936
 8927TIP3    H226723   6.185   5.397   2.973
 8928TIP3   OH226724   4.685   6.818   2.926
 8928TIP3    H126725   4.598   6.790   2.892
 8928TIP3    H226726   4.675   6.914   2.922
 8929TIP3   OH226727   5.081   5.411   2.910
 8929TIP3    H126728   5.130   5.348   2.854
 8929TIP3    H226729   5.154   5.465   2.947
 8930TIP3   OH226730   5.595   5.585   3.010
 8930TIP3    H126731   5.656   5.538   3.069
 8930TIP3    H226732   5.617   5.677   3.035
 8931TIP3   OH226733   5.453   7.012   2.507
 8931TIP3    H126734   5.543   7.033   2.474
 8931TIP3    H226735   5.432   6.936   2.448
 8932TIP3   OH226736   6.173   7.128   2.601
 8932TIP3    H126737   6.164   7.030   2.590
 8932TIP3    H226738   6.128   7.160   2.520
 8933TIP3   OH226739   5.385   5.659   4.384
 8933TIP3    H126740   5.349   5.593   4.445
 8933TIP3    H226741   5.479   5.660   4.413
 8934TIP3   OH226742   5.632   5.652   4.503
 8934TIP3    H126743   5.722   5.634   4.471
 8934TIP3    H226744   5.623   5.586   4.574
 8935TIP3   OH226745   4.758   6.850   2.567
 8935TIP3    H126746   4.755   6.873   2.661
 8935TIP3    H226747   4.847   6.810   2.558
 8936TIP3   OH226748   6.460   5.718   4.296
 8936TIP3    H126749   6.481   5.689   4.388
 8936TIP3    H226750   6.549   5.716   4.254
 8937TIP3   OH226751   7.663   6.644   2.556
 8937TIP3    H126752   7.641   6.737   2.532
 8937TIP3    H226753   7.578   6.603   2.540
 8938TIP3   OH226754   7.669   6.646   2.935
 8938TIP3    H126755   7.695   6.611   3.022
 8938TIP3    H226756   7.624   6.569   2.896
 8939TIP3   OH226757   6.965   6.541   3.301
 8939TIP3    H126758   6.995   6.473   3.364
 8939TIP3    H226759   7.042   6.599   3.297
 8940TIP3   OH226760   7.917   6.939   2.615
 8940TIP3    H126761   7.886   6.876   2.681
 8940TIP3    H226762   7.938   7.018   2.669
 8941TIP3   OH226763   6.934   6.949   3.026
 8941TIP3    H126764   6.926   6.852   3.030
 8941TIP3    H226765   7.030   6.959   3.023
 8942TIP3   OH226766   6.643   6.153   2.813
 8942TIP3    H126767   6.596   6.237   2.827
 8942TIP3    H226768   6.571   6.098   2.778
 8943TIP3   OH226769   6.702   6.440   2.981
 8943TIP3    H126770   6.750   6.363   3.019
 8943TIP3    H226771   6.762   6.468   2.911
 8944TIP3   OH226772   7.585   7.434   2.642
 8944TIP3    H126773   7.620   7.361   2.586
 8944TIP3    H226774   7.541   7.384   2.712
 8945TIP3   OH226775   7.463   6.872   2.985
 8945TIP3    H126776   7.495   6.796   2.935
 8945TIP3    H226777   7.549   6.913   3.008
 8946TIP3   OH226778   8.464   6.196   2.982
 8946TIP3    H126779   8.505   6.267   3.036
 8946TIP3    H226780   8.464   6.235   2.894
 8947TIP3   OH226781   7.877   6.375   3.017
 8947TIP3    H126782   7.917   6.289   3.039
 8947TIP3    H226783   7.845   6.357   2.927
 8948TIP3   OH226784   7.212   6.031   2.983
 8948TIP3    H126785   7.192   6.104   2.920
 8948TIP3    H226786   7.164   5.958   2.939
 8949TIP3   OH226787   7.906   6.124   2.604
 8949TIP3    H126788   7.978   6.105   2.669
 8949TIP3    H226789   7.960   6.155   2.529
 8950TIP3   OH226790   6.847   6.235   3.088
 8950TIP3    H126791   6.929   6.215   3.137
 8950TIP3    H226792   6.861   6.178   3.009
 8951TIP3   OH226793   7.289   6.432   2.881
 8951TIP3    H126794   7.382   6.405   2.895
 8951TIP3    H226795   7.249   6.348   2.849
 8952TIP3   OH226796   8.545   6.406   3.142
 8952TIP3    H126797   8.457   6.449   3.136
 8952TIP3    H226798   8.544   6.379   3.235
 8953TIP3   OH226799   7.211   6.016   3.416
 8953TIP3    H126800   7.149   6.052   3.350
 8953TIP3    H226801   7.161   6.031   3.498
 8954TIP3   OH226802   7.555   6.863   2.431
 8954TIP3    H126803   7.522   6.838   2.344
 8954TIP3    H226804   7.509   6.948   2.445
 8955TIP3   OH226805   7.319   6.790   3.214
 8955TIP3    H126806   7.254   6.853   3.253
 8955TIP3    H226807   7.356   6.843   3.141
 8956TIP3   OH226808   8.117   6.126   2.776
 8956TIP3    H126809   8.108   6.070   2.855
 8956TIP3    H226810   8.170   6.200   2.809
 8957TIP3   OH226811   7.080   6.130   3.201
 8957TIP3    H126812   7.143   6.201   3.226
 8957TIP3    H226813   7.129   6.089   3.127
 8958TIP3   OH226814   7.144   6.982   3.310
 8958TIP3    H126815   7.117   7.068   3.272
 8958TIP3    H226816   7.065   6.965   3.366
 8959TIP3   OH226817   6.539   6.674   2.546
 8959TIP3    H126818   6.500   6.703   2.462
 8959TIP3    H226819   6.572   6.758   2.584
 8960TIP3   OH226820   7.969   7.156   2.776
 8960TIP3    H126821   7.881   7.162   2.821
 8960TIP3    H226822   7.993   7.250   2.775
 8961TIP3   OH226823   8.268   6.096   3.153
 8961TIP3    H126824   8.180   6.120   3.119
 8961TIP3    H226825   8.328   6.122   3.080
 8962TIP3   OH226826   7.567   5.735   3.130
 8962TIP3    H126827   7.555   5.640   3.148
 8962TIP3    H226828   7.490   5.772   3.177
 8963TIP3   OH226829   7.690   7.248   2.462
 8963TIP3    H126830   7.730   7.159   2.454
 8963TIP3    H226831   7.750   7.293   2.400
 8964TIP3   OH226832   7.816   7.018   2.371
 8964TIP3    H126833   7.795   6.942   2.315
 8964TIP3    H226834   7.851   6.975   2.452
 8965TIP3   OH226835   8.205   7.105   3.126
 8965TIP3    H126836   8.183   7.015   3.096
 8965TIP3    H226837   8.128   7.157   3.101
 8966TIP3   OH226838   8.400   6.734   2.980
 8966TIP3    H126839   8.319   6.787   2.997
 8966TIP3    H226840   8.430   6.776   2.897
 8967TIP3   OH226841   7.855   6.588   2.364
 8967TIP3    H126842   7.788   6.604   2.435
 8967TIP3    H226843   7.927   6.546   2.414
 8968TIP3   OH226844   8.079   6.621   3.268
 8968TIP3    H126845   8.073   6.701   3.324
 8968TIP3    H226846   7.991   6.622   3.225
 8969TIP3   OH226847   7.072   6.576   2.778
 8969TIP3    H126848   7.031   6.519   2.709
 8969TIP3    H226849   7.151   6.524   2.803
 8970TIP3   OH226850   7.207   6.991   2.922
 8970TIP3    H126851   7.183   6.947   2.839
 8970TIP3    H226852   7.296   6.954   2.940
 8971TIP3   OH226853   7.215   6.547   3.130
 8971TIP3    H126854   7.245   6.527   3.039
 8971TIP3    H226855   7.257   6.634   3.148
 8972TIP3   OH226856   7.739   7.188   2.914
 8972TIP3    H126857   7.715   7.259   2.974
 8972TIP3    H226858   7.724   7.108   2.969
 8973TIP3   OH226859   7.351   7.105   3.451
 8973TIP3    H126860   7.291   7.167   3.500
 8973TIP3    H226861   7.284   7.052   3.403
 8974TIP3   OH226862   7.104   6.663   3.552
 8974TIP3    H126863   7.108   6.749   3.598
 8974TIP3    H226864   7.009   6.643   3.563
 8975TIP3   OH226865   7.430   7.119   2.456
 8975TIP3    H126866   7.497   7.181   2.487
 8975TIP3    H226867   7.366   7.176   2.411
 8976TIP3   OH226868   7.144   7.273   3.541
 8976TIP3    H126869   7.107   7.271   3.451
 8976TIP3    H226870   7.066   7.250   3.596
 8977TIP3   OH226871   8.199   5.682   2.232
 8977TIP3    H126872   8.118   5.699   2.284
 8977TIP3    H226873   8.211   5.767   2.186
 8978TIP3   OH226874   6.940   6.420   2.584
 8978TIP3    H126875   6.880   6.464   2.521
 8978TIP3    H226876   6.900   6.333   2.592
 8979TIP3   OH226877   6.724   6.803   3.487
 8979TIP3    H126878   6.658   6.780   3.418
 8979TIP3    H226879   6.761   6.716   3.512
 8980TIP3   OH226880   6.577   6.997   3.118
 8980TIP3    H126881   6.674   6.990   3.112
 8980TIP3    H226882   6.567   7.075   3.176
 8981TIP3   OH226883   7.544   7.232   3.305
 8981TIP3    H126884   7.548   7.322   3.344
 8981TIP3    H226885   7.474   7.192   3.361
 8982TIP3   OH226886   7.320   7.367   2.254
 8982TIP3    H126887   7.271   7.339   2.174
 8982TIP3    H226888   7.278   7.451   2.276
 8983TIP3   OH226889   6.745   7.213   2.646
 8983TIP3    H126890   6.795   7.203   2.731
 8983TIP3    H226891   6.687   7.135   2.651
 8984TIP3   OH226892   7.494   7.231   1.918
 8984TIP3    H126893   7.540   7.152   1.884
 8984TIP3    H226894   7.536   7.246   2.004
 8985TIP3   OH226895   7.574   7.277   2.180
 8985TIP3    H126896   7.491   7.325   2.201
 8985TIP3    H226897   7.578   7.216   2.256
 8986TIP3   OH226898   8.337   6.583   3.445
 8986TIP3    H126899   8.251   6.593   3.402
 8986TIP3    H226900   8.353   6.487   3.435
 8987TIP3   OH226901   6.928   6.986   3.476
 8987TIP3    H126902   6.977   6.972   3.559
 8987TIP3    H226903   6.854   6.922   3.485
 8988TIP3   OH226904   7.328   5.811   3.256
 8988TIP3    H126905   7.239   5.779   3.232
 8988TIP3    H226906   7.302   5.892   3.305
 8989TIP3   OH226907   7.861   5.926   3.453
 8989TIP3    H126908   7.930   5.898   3.517
 8989TIP3    H226909   7.778   5.905   3.500
 8990TIP3   OH226910   8.104   6.357   3.375
 8990TIP3    H126911   8.052   6.348   3.459
 8990TIP3    H226912   8.073   6.442   3.340
 8991TIP3   OH226913   7.763   6.458   1.915
 8991TIP3    H126914   7.734   6.443   1.824
 8991TIP3    H226915   7.841   6.516   1.903
 8992TIP3   OH226916   7.475   5.858   2.228
 8992TIP3    H126917   7.443   5.859   2.320
 8992TIP3    H226918   7.435   5.774   2.198
 8993TIP3   OH226919   7.260   6.325   3.279
 8993TIP3    H126920   7.208   6.347   3.360
 8993TIP3    H226921   7.244   6.406   3.224
 8994TIP3   OH226922   7.144   6.212   2.792
 8994TIP3    H126923   7.051   6.187   2.809
 8994TIP3    H226924   7.157   6.171   2.703
 8995TIP3   OH226925   7.627   6.307   2.502
 8995TIP3    H126926   7.567   6.361   2.447
 8995TIP3    H226927   7.686   6.273   2.432
 8996TIP3   OH226928   7.809   6.578   3.607
 8996TIP3    H126929   7.788   6.504   3.668
 8996TIP3    H226930   7.904   6.591   3.628
 8997TIP3   OH226931   7.791   6.329   2.756
 8997TIP3    H126932   7.732   6.360   2.684
 8997TIP3    H226933   7.825   6.247   2.714
 8998TIP3   OH226934   7.078   6.354   3.487
 8998TIP3    H126935   7.104   6.418   3.555
 8998TIP3    H226936   7.068   6.272   3.538
 8999TIP3   OH226937   7.122   5.827   2.196
 8999TIP3    H126938   7.122   5.827   2.293
 8999TIP3    H226939   7.049   5.888   2.178
 9000TIP3   OH226940   6.672   5.877   3.066
 9000TIP3    H126941   6.747   5.909   3.121
 9000TIP3    H226942   6.715   5.843   2.986
 9001TIP3   OH226943   6.647   5.858   2.586
 9001TIP3    H126944   6.694   5.895   2.509
 9001TIP3    H226945   6.587   5.932   2.606
 9002TIP3   OH226946   7.807   6.574   3.184
 9002TIP3    H126947   7.838   6.501   3.125
 9002TIP3    H226948   7.775   6.521   3.261
 9003TIP3   OH226949   7.470   6.038   2.854
 9003TIP3    H126950   7.387   6.033   2.905
 9003TIP3    H226951   7.537   6.032   2.925
 9004TIP3   OH226952   6.905   6.089   2.863
 9004TIP3    H126953   6.811   6.096   2.835
 9004TIP3    H226954   6.928   5.997   2.840
 9005TIP3   OH226955   7.177   6.087   2.549
 9005TIP3    H126956   7.271   6.102   2.527
 9005TIP3    H226957   7.130   6.108   2.465
 9006TIP3   OH226958   7.961   6.111   3.053
 9006TIP3    H126959   7.929   6.122   3.146
 9006TIP3    H226960   7.897   6.047   3.019
 9007TIP3   OH226961   7.017   6.113   2.328
 9007TIP3    H126962   6.941   6.078   2.278
 9007TIP3    H226963   7.069   6.155   2.256
 9008TIP3   OH226964   7.092   6.908   3.695
 9008TIP3    H126965   7.170   6.939   3.745
 9008TIP3    H226966   7.025   6.909   3.767
 9009TIP3   OH226967   7.554   6.363   2.953
 9009TIP3    H126968   7.625   6.320   2.902
 9009TIP3    H226969   7.562   6.319   3.040
 9010TIP3   OH226970   7.078   5.851   2.828
 9010TIP3    H126971   7.044   5.772   2.875
 9010TIP3    H226972   7.133   5.811   2.759
 9011TIP3   OH226973   7.531   6.259   3.238
 9011TIP3    H126974   7.441   6.293   3.254
 9011TIP3    H226975   7.588   6.318   3.291
 9012TIP3   OH226976   7.226   6.697   2.326
 9012TIP3    H126977   7.216   6.601   2.311
 9012TIP3    H226978   7.238   6.701   2.423
 9013TIP3   OH226979   8.161   6.880   2.968
 9013TIP3    H126980   8.146   6.946   2.898
 9013TIP3    H226981   8.081   6.823   2.955
 9014TIP3   OH226982   7.723   5.975   2.183
 9014TIP3    H126983   7.628   5.954   2.199
 9014TIP3    H226984   7.732   6.066   2.218
 9015TIP3   OH226985   7.679   6.975   3.331
 9015TIP3    H126986   7.687   6.939   3.420
 9015TIP3    H226987   7.625   7.055   3.344
 9016TIP3   OH226988   7.795   6.223   2.290
 9016TIP3    H126989   7.891   6.227   2.310
 9016TIP3    H226990   7.781   6.302   2.235
 9017TIP3   OH226991   6.960   6.672   3.013
 9017TIP3    H126992   6.995   6.641   2.927
 9017TIP3    H226993   6.997   6.607   3.075
 9018TIP3   OH226994   7.419   6.806   2.146
 9018TIP3    H126995   7.362   6.884   2.165
 9018TIP3    H226996   7.375   6.738   2.199
 9019TIP3   OH226997   6.840   6.592   3.624
 9019TIP3    H126998   6.861   6.580   3.719
 9019TIP3    H226999   6.771   6.525   3.610
 9020TIP3   OH227000   7.565   6.705   3.643
 9020TIP3    H127001   7.506   6.645   3.595
 9020TIP3    H227002   7.653   6.671   3.617
 9021TIP3   OH227003   7.816   7.220   3.212
 9021TIP3    H127004   7.722   7.210   3.234
 9021TIP3    H227005   7.846   7.270   3.291
 9022TIP3   OH227006   8.234   6.288   2.142
 9022TIP3    H127007   8.184   6.244   2.070
 9022TIP3    H227008   8.237   6.378   2.103
 9023TIP3   OH227009   7.933   6.743   2.893
 9023TIP3    H127010   7.839   6.720   2.903
 9023TIP3    H227011   7.965   6.666   2.842
 9024TIP3   OH227012   7.059   6.975   2.638
 9024TIP3    H127013   7.060   7.053   2.581
 9024TIP3    H227014   6.965   6.955   2.642
 9025TIP3   OH227015   6.621   6.279   2.336
 9025TIP3    H127016   6.670   6.361   2.357
 9025TIP3    H227017   6.547   6.285   2.400
 9026TIP3   OH227018   7.216   6.743   2.603
 9026TIP3    H127019   7.172   6.830   2.608
 9026TIP3    H227020   7.164   6.692   2.669
 9027TIP3   OH227021   7.326   7.318   3.108
 9027TIP3    H127022   7.366   7.392   3.058
 9027TIP3    H227023   7.402   7.284   3.159
 9028TIP3   OH227024   6.980   7.214   2.489
 9028TIP3    H127025   6.894   7.221   2.535
 9028TIP3    H227026   7.010   7.308   2.491
 9029TIP3   OH227027   7.720   6.951   3.062
 9029TIP3    H127028   7.710   6.953   3.160
 9029TIP3    H227029   7.795   6.892   3.051
 9030TIP3   OH227030   7.696   6.824   1.954
 9030TIP3    H127031   7.749   6.810   2.036
 9030TIP3    H227032   7.609   6.795   1.987
 9031TIP3   OH227033   7.946   7.460   3.155
 9031TIP3    H127034   7.869   7.404   3.135
 9031TIP3    H227035   7.943   7.532   3.092
 9032TIP3   OH227036   7.052   6.099   3.635
 9032TIP3    H127037   6.956   6.098   3.646
 9032TIP3    H227038   7.080   6.034   3.701
 9033TIP3   OH227039   7.847   6.790   2.181
 9033TIP3    H127040   7.831   6.714   2.242
 9033TIP3    H227041   7.937   6.768   2.150
 9034TIP3   OH227042   6.769   7.182   3.264
 9034TIP3    H127043   6.821   7.106   3.296
 9034TIP3    H227044   6.790   7.248   3.332
 9035TIP3   OH227045   7.057   6.826   1.948
 9035TIP3    H127046   7.078   6.734   1.921
 9035TIP3    H227047   7.038   6.814   2.043
 9036TIP3   OH227048   7.003   6.828   2.220
 9036TIP3    H127049   7.084   6.789   2.261
 9036TIP3    H227050   7.017   6.924   2.235
 9037TIP3   OH227051   6.739   6.523   2.422
 9037TIP3    H127052   6.674   6.571   2.478
 9037TIP3    H227053   6.760   6.591   2.356
 9038TIP3   OH227054   7.889   6.161   3.313
 9038TIP3    H127055   7.967   6.198   3.356
 9038TIP3    H227056   7.872   6.081   3.367
 9039TIP3   OH227057   7.768   5.915   2.475
 9039TIP3    H127058   7.754   5.941   2.382
 9039TIP3    H227059   7.806   5.997   2.514
 9040TIP3   OH227060   7.269   7.035   2.174
 9040TIP3    H127061   7.179   7.061   2.203
 9040TIP3    H227062   7.284   7.098   2.102
 9041TIP3   OH227063   7.462   6.091   2.580
 9041TIP3    H127064   7.522   6.166   2.560
 9041TIP3    H227065   7.465   6.087   2.678
 9042TIP3   OH227066   7.729   6.413   3.389
 9042TIP3    H127067   7.746   6.466   3.469
 9042TIP3    H227068   7.782   6.333   3.405
 9043TIP3   OH227069   7.603   5.822   2.684
 9043TIP3    H127070   7.598   5.899   2.744
 9043TIP3    H227071   7.662   5.858   2.614
 9044TIP3   OH227072   7.010   7.105   2.234
 9044TIP3    H127073   6.979   7.175   2.172
 9044TIP3    H227074   6.994   7.148   2.321
 9045TIP3   OH227075   7.114   5.818   2.472
 9045TIP3    H127076   7.112   5.908   2.509
 9045TIP3    H227077   7.210   5.799   2.482
 9046TIP3   OH227078   8.369   6.314   3.351
 9046TIP3    H127079   8.273   6.318   3.371
 9046TIP3    H227080   8.367   6.244   3.284
 9047TIP3   OH227081   8.017   6.506   2.761
 9047TIP3    H127082   7.939   6.449   2.772
 9047TIP3    H227083   8.087   6.456   2.809
 9048TIP3   OH227084   6.730   6.739   2.225
 9048TIP3    H127085   6.800   6.805   2.240
 9048TIP3    H227086   6.777   6.682   2.160
 9049TIP3   OH227087   6.675   6.010   2.359
 9049TIP3    H127088   6.677   6.108   2.354
 9049TIP3    H227089   6.588   5.990   2.324
 9050TIP3   OH227090   7.063   5.731   3.236
 9050TIP3    H127091   7.032   5.694   3.150
 9050TIP3    H227092   7.052   5.653   3.296
 9051TIP3   OH227093   6.605   6.949   2.618
 9051TIP3    H127094   6.529   6.980   2.668
 9051TIP3    H227095   6.584   6.986   2.529
 9052TIP3   OH227096   6.757   7.491   3.680
 9052TIP3    H127097   6.839   7.492   3.732
 9052TIP3    H227098   6.727   7.400   3.693
 9053TIP3   OH227099   7.246   7.458   3.727
 9053TIP3    H127100   7.339   7.432   3.736
 9053TIP3    H227101   7.216   7.397   3.656
 9054TIP3   OH227102   7.218   7.032   1.867
 9054TIP3    H127103   7.163   6.958   1.901
 9054TIP3    H227104   7.296   6.983   1.837
 9055TIP3   OH227105   7.845   7.344   3.452
 9055TIP3    H127106   7.834   7.278   3.525
 9055TIP3    H227107   7.926   7.391   3.482
 9056TIP3   OH227108   7.616   7.024   1.781
 9056TIP3    H127109   7.660   6.967   1.848
 9056TIP3    H227110   7.687   7.084   1.752
 9057TIP3   OH227111   6.891   6.894   3.883
 9057TIP3    H127112   6.903   6.798   3.889
 9057TIP3    H227113   6.801   6.901   3.845
 9058TIP3   OH227114   6.866   6.547   2.082
 9058TIP3    H127115   6.922   6.515   2.156
 9058TIP3    H227116   6.934   6.552   2.012
 9059TIP3   OH227117   7.499   6.981   3.659
 9059TIP3    H127118   7.453   6.994   3.574
 9059TIP3    H227119   7.528   6.887   3.654
 9060TIP3   OH227120   7.365   6.737   1.886
 9060TIP3    H127121   7.381   6.755   1.981
 9060TIP3    H227122   7.365   6.639   1.886
 9061TIP3   OH227123   7.990   6.982   3.265
 9061TIP3    H127124   8.054   7.051   3.246
 9061TIP3    H227125   7.906   7.031   3.257
 9062TIP3   OH227126   7.008   6.626   3.868
 9062TIP3    H127127   7.085   6.571   3.850
 9062TIP3    H227128   7.032   6.663   3.956
 9063TIP3   OH227129   7.055   6.443   2.293
 9063TIP3    H127130   7.053   6.409   2.384
 9063TIP3    H227131   7.113   6.378   2.249
 9064TIP3   OH227132   7.343   6.515   3.532
 9064TIP3    H127133   7.264   6.574   3.533
 9064TIP3    H227134   7.392   6.549   3.454
 9065TIP3   OH227135   7.173   6.237   2.143
 9065TIP3    H127136   7.156   6.250   2.048
 9065TIP3    H227137   7.262   6.281   2.152
 9066TIP3   OH227138   7.861   6.916   3.666
 9066TIP3    H127139   7.945   6.895   3.624
 9066TIP3    H227140   7.856   6.848   3.735
 9067TIP3   OH227141   7.991   6.577   1.802
 9067TIP3    H127142   7.979   6.530   1.717
 9067TIP3    H227143   7.982   6.669   1.773
 9068TIP3   OH227144   7.466   6.302   3.658
 9068TIP3    H127145   7.466   6.222   3.602
 9068TIP3    H227146   7.422   6.368   3.599
 9069TIP3   OH227147   7.469   6.090   3.464
 9069TIP3    H127148   7.496   6.129   3.379
 9069TIP3    H227149   7.375   6.067   3.446
 9070TIP3   OH227150   7.498   6.627   3.338
 9070TIP3    H127151   7.579   6.631   3.285
 9070TIP3    H227152   7.440   6.692   3.293
 9071TIP3   OH227153   8.077   6.592   3.716
 9071TIP3    H127154   8.123   6.510   3.742
 9071TIP3    H227155   8.151   6.648   3.690
 9072TIP3   OH227156   8.124   6.844   3.454
 9072TIP3    H127157   8.064   6.893   3.392
 9072TIP3    H227158   8.211   6.861   3.413
 9073TIP3   OH227159   7.342   6.418   3.886
 9073TIP3    H127160   7.275   6.348   3.900
 9073TIP3    H227161   7.378   6.392   3.799
 9074TIP3   OH227162   7.601   5.853   3.529
 9074TIP3    H127163   7.551   5.935   3.508
 9074TIP3    H227164   7.532   5.784   3.518
 9075TIP3   OH227165   7.727   6.360   3.747
 9075TIP3    H127166   7.720   6.346   3.843
 9075TIP3    H227167   7.636   6.334   3.720
 9076TIP3   OH227168   7.965   6.305   3.600
 9076TIP3    H127169   7.892   6.307   3.665
 9076TIP3    H227170   8.040   6.276   3.656
 9077TIP3   OH227171   8.189   6.246   3.750
 9077TIP3    H127172   8.208   6.151   3.770
 9077TIP3    H227173   8.191   6.287   3.838
 9078TIP3   OH227174   7.183   6.198   3.939
 9078TIP3    H127175   7.187   6.107   3.903
 9078TIP3    H227176   7.219   6.184   4.029
 9079TIP3   OH227177   7.695   5.862   3.787
 9079TIP3    H127178   7.764   5.793   3.782
 9079TIP3    H227179   7.656   5.855   3.697
 9080TIP3   OH227180   7.761   6.077   3.949
 9080TIP3    H127181   7.739   6.006   3.884
 9080TIP3    H227182   7.683   6.136   3.940
 9081TIP3   OH227183   6.978   7.307   2.051
 9081TIP3    H127184   7.074   7.302   2.033
 9081TIP3    H227185   6.950   7.354   1.970
 9082TIP3   OH227186   6.462   6.689   2.264
 9082TIP3    H127187   6.557   6.713   2.250
 9082TIP3    H227188   6.459   6.600   2.224
 9083TIP3   OH227189   6.376   7.301   2.676
 9083TIP3    H127190   6.309   7.239   2.641
 9083TIP3    H227191   6.420   7.245   2.743
 9084TIP3   OH227192   6.512   7.155   2.864
 9084TIP3    H127193   6.502   7.079   2.923
 9084TIP3    H227194   6.562   7.215   2.921
 9085TIP3   OH227195   8.331   7.282   3.517
 9085TIP3    H127196   8.248   7.241   3.548
 9085TIP3    H227197   8.336   7.354   3.581
 9086TIP3   OH227198   8.114   6.758   2.131
 9086TIP3    H127199   8.178   6.830   2.123
 9086TIP3    H227200   8.140   6.717   2.215
 9087TIP3   OH227201   8.234   6.644   2.363
 9087TIP3    H127202   8.161   6.581   2.376
 9087TIP3    H227203   8.274   6.636   2.449
 9088TIP3   OH227204   8.189   6.521   2.004
 9088TIP3    H127205   8.140   6.525   1.920
 9088TIP3    H227206   8.167   6.609   2.038
 9089TIP3   OH227207   8.077   6.202   1.933
 9089TIP3    H127208   8.012   6.257   1.888
 9089TIP3    H227209   8.038   6.113   1.924
 9090TIP3   OH227210   8.073   6.471   2.495
 9090TIP3    H127211   8.074   6.375   2.483
 9090TIP3    H227212   8.057   6.482   2.591
 9091TIP3   OH227213   6.700   6.560   3.235
 9091TIP3    H127214   6.699   6.531   3.141
 9091TIP3    H227215   6.797   6.561   3.252
 9092TIP3   OH227216   8.370   6.906   3.339
 9092TIP3    H127217   8.450   6.852   3.325
 9092TIP3    H227218   8.379   6.973   3.269
 9093TIP3   OH227219   8.571   6.697   3.363
 9093TIP3    H127220   8.481   6.665   3.386
 9093TIP3    H227221   8.622   6.656   3.433
 9094TIP3   OH227222   8.010   5.937   1.924
 9094TIP3    H127223   8.087   5.916   1.981
 9094TIP3    H227224   7.939   5.885   1.963
 9095TIP3   OH227225   8.071   6.206   2.385
 9095TIP3    H127226   8.106   6.115   2.400
 9095TIP3    H227227   8.130   6.234   2.312
 9096TIP3   OH227228   8.233   6.378   2.877
 9096TIP3    H127229   8.314   6.413   2.835
 9096TIP3    H227230   8.244   6.412   2.968
 9097TIP3   OH227231   8.292   6.516   3.110
 9097TIP3    H127232   8.217   6.551   3.161
 9097TIP3    H227233   8.331   6.599   3.073
 9098TIP3   OH227234   6.916   6.247   3.912
 9098TIP3    H127235   7.014   6.240   3.910
 9098TIP3    H227236   6.893   6.161   3.952
 9099TIP3   OH227237   8.749   6.090   3.658
 9099TIP3    H127238   8.801   6.044   3.592
 9099TIP3    H227239   8.725   6.173   3.612
 9100TIP3   OH227240   8.160   5.955   2.435
 9100TIP3    H127241   8.218   5.936   2.511
 9100TIP3    H227242   8.109   5.871   2.427
 9101TIP3   OH227243   6.877   5.939   3.241
 9101TIP3    H127244   6.937   5.863   3.252
 9101TIP3    H227245   6.941   6.012   3.235
 9102TIP3   OH227246   6.682   6.213   3.314
 9102TIP3    H127247   6.731   6.206   3.230
 9102TIP3    H227248   6.711   6.299   3.347
 9103TIP3   OH227249   8.634   6.254   3.466
 9103TIP3    H127250   8.557   6.296   3.507
 9103TIP3    H227251   8.593   6.179   3.419
 9104TIP3   OH227252   8.250   5.885   2.052
 9104TIP3    H127253   8.291   5.813   1.999
 9104TIP3    H227254   8.315   5.956   2.045
 9105TIP3   OH227255   6.664   5.715   2.814
 9105TIP3    H127256   6.571   5.714   2.841
 9105TIP3    H227257   6.662   5.775   2.736
 9106TIP3   OH227258   6.889   5.811   3.637
 9106TIP3    H127259   6.833   5.791   3.714
 9106TIP3    H227260   6.821   5.830   3.569
 9107TIP3   OH227261   6.924   7.218   3.708
 9107TIP3    H127262   6.831   7.195   3.688
 9107TIP3    H227263   6.925   7.211   3.804
 9108TIP3   OH227264   7.100   7.252   3.254
 9108TIP3    H127265   7.051   7.327   3.216
 9108TIP3    H227266   7.187   7.267   3.210
 9109TIP3   OH227267   7.539   7.493   3.399
 9109TIP3    H127268   7.580   7.494   3.488
 9109TIP3    H227269   7.609   7.539   3.347
 9110TIP3   OH227270   7.726   7.625   3.255
 9110TIP3    H127271   7.799   7.561   3.245
 9110TIP3    H227272   7.771   7.699   3.299
 9111TIP3   OH227273   8.518   6.018   3.361
 9111TIP3    H127274   8.432   6.011   3.317
 9111TIP3    H227275   8.560   5.934   3.334
 9112TIP3   OH227276   6.781   7.516   3.275
 9112TIP3    H127277   6.691   7.550   3.255
 9112TIP3    H227278   6.787   7.538   3.369
 9113TIP3   OH227279   7.018   7.493   3.136
 9113TIP3    H127280   6.932   7.505   3.182
 9113TIP3    H227281   6.997   7.524   3.046
 9114TIP3   OH227282   7.430   7.520   2.931
 9114TIP3    H127283   7.362   7.539   2.864
 9114TIP3    H227284   7.438   7.608   2.974
 9115TIP3   OH227285   7.702   7.471   2.979
 9115TIP3    H127286   7.605   7.461   2.981
 9115TIP3    H227287   7.708   7.553   2.929
 9116TIP3   OH227288   6.692   7.308   3.023
 9116TIP3    H127289   6.718   7.282   3.114
 9116TIP3    H227290   6.762   7.261   2.973
 9117TIP3   OH227291   6.883   7.177   2.878
 9117TIP3    H127292   6.899   7.093   2.927
 9117TIP3    H227293   6.974   7.213   2.872
 9118TIP3   OH227294   7.152   7.274   2.879
 9118TIP3    H127295   7.181   7.182   2.866
 9118TIP3    H227296   7.192   7.292   2.966
 9119TIP3   OH227297   7.725   5.929   2.967
 9119TIP3    H127298   7.681   5.861   3.022
 9119TIP3    H227299   7.797   5.879   2.926
 9120TIP3   OH227300   8.250   5.810   2.878
 9120TIP3    H127301   8.284   5.863   2.803
 9120TIP3    H227302   8.154   5.824   2.871
 9121TIP3   OH227303   8.337   5.920   2.644
 9121TIP3    H127304   8.409   5.860   2.611
 9121TIP3    H227305   8.376   6.008   2.627
 9122TIP3   OH227306   6.975   5.637   2.985
 9122TIP3    H127307   6.884   5.603   2.991
 9122TIP3    H227308   7.025   5.552   2.983
 9123TIP3   OH227309   6.753   5.508   2.629
 9123TIP3    H127310   6.789   5.567   2.561
 9123TIP3    H227311   6.731   5.571   2.701
 9124TIP3   OH227312   7.416   5.672   2.866
 9124TIP3    H127313   7.477   5.721   2.809
 9124TIP3    H227314   7.437   5.707   2.953
 9125TIP3   OH227315   7.968   5.817   2.850
 9125TIP3    H127316   7.965   5.779   2.761
 9125TIP3    H227317   7.953   5.737   2.906
 9126TIP3   OH227318   7.992   5.735   2.410
 9126TIP3    H127319   7.906   5.778   2.424
 9126TIP3    H227320   7.979   5.651   2.459
 9127TIP3   OH227321   6.478   7.076   2.416
 9127TIP3    H127322   6.394   7.043   2.380
 9127TIP3    H227323   6.466   7.171   2.400
 9128TIP3   OH227324   6.878   5.669   2.396
 9128TIP3    H127325   6.928   5.606   2.341
 9128TIP3    H227326   6.949   5.724   2.433
 9129TIP3   OH227327   7.392   5.842   2.495
 9129TIP3    H127328   7.451   5.795   2.557
 9129TIP3    H227329   7.414   5.934   2.521
 9130TIP3   OH227330   7.242   7.274   1.996
 9130TIP3    H127331   7.332   7.294   1.963
 9130TIP3    H227332   7.223   7.197   1.938
 9131TIP3   OH227333   7.182   5.924   3.881
 9131TIP3    H127334   7.148   5.850   3.932
 9131TIP3    H227335   7.277   5.921   3.905
 9132TIP3   OH227336   7.433   5.916   3.998
 9132TIP3    H127337   7.517   5.893   3.955
 9132TIP3    H227338   7.423   5.843   4.062
 9133TIP3   OH227339   6.554   7.104   2.053
 9133TIP3    H127340   6.555   7.130   2.147
 9133TIP3    H227341   6.643   7.064   2.041
 9134TIP3   OH227342   8.255   5.975   3.784
 9134TIP3    H127343   8.274   5.946   3.876
 9134TIP3    H227344   8.345   5.973   3.745
 9135TIP3   OH227345   8.482   6.141   2.560
 9135TIP3    H127346   8.574   6.153   2.585
 9135TIP3    H227347   8.487   6.113   2.468
 9136TIP3   OH227348   8.478   6.476   2.779
 9136TIP3    H127349   8.552   6.457   2.720
 9136TIP3    H227350   8.519   6.537   2.842
 9137TIP3   OH227351   0.925   6.980   4.670
 9137TIP3    H127352   0.956   7.062   4.714
 9137TIP3    H227353   0.954   6.997   4.578
 9138TIP3   OH227354   0.363   6.868   4.286
 9138TIP3    H127355   0.420   6.887   4.363
 9138TIP3    H227356   0.398   6.933   4.222
 9139TIP3   OH227357   1.003   7.189   4.842
 9139TIP3    H127358   0.916   7.232   4.825
 9139TIP3    H227359   1.011   7.204   4.937
 9140TIP3   OH227360   0.559   6.916   4.482
 9140TIP3    H127361   0.607   6.839   4.513
 9140TIP3    H227362   0.624   6.988   4.494
 9141TIP3   OH227363   0.716   6.901   4.846
 9141TIP3    H127364   0.627   6.910   4.808
 9141TIP3    H227365   0.775   6.920   4.770
 9142TIP3   OH227366   0.667   7.905   4.810
 9142TIP3    H127367   0.646   7.813   4.783
 9142TIP3    H227368   0.611   7.955   4.750
 9143TIP3   OH227369   0.856   7.529   4.667
 9143TIP3    H127370   0.772   7.580   4.673
 9143TIP3    H227371   0.882   7.547   4.574
 9144TIP3   OH227372   0.659   6.463   3.918
 9144TIP3    H127373   0.578   6.483   3.968
 9144TIP3    H227374   0.673   6.548   3.870
 9145TIP3   OH227375   0.823   8.183   4.867
 9145TIP3    H127376   0.842   8.091   4.891
 9145TIP3    H227377   0.768   8.213   4.941
 9146TIP3   OH227378   0.790   7.374   5.133
 9146TIP3    H127379   0.693   7.370   5.143
 9146TIP3    H227380   0.809   7.278   5.128
 9147TIP3   OH227381   0.625   7.678   4.657
 9147TIP3    H127382   0.656   7.726   4.576
 9147TIP3    H227383   0.533   7.658   4.636
 9148TIP3   OH227384   0.694   7.084   3.822
 9148TIP3    H127385   0.629   7.041   3.762
 9148TIP3    H227386   0.688   7.175   3.784
 9149TIP3   OH227387   0.908   7.922   4.917
 9149TIP3    H127388   0.812   7.913   4.893
 9149TIP3    H227389   0.947   7.902   4.829
 9150TIP3   OH227390   0.809   7.105   5.055
 9150TIP3    H127391   0.720   7.082   5.086
 9150TIP3    H227392   0.814   7.051   4.974
 9151TIP3   OH227393   0.469   7.284   4.440
 9151TIP3    H127394   0.397   7.237   4.482
 9151TIP3    H227395   0.548   7.244   4.482
 9152TIP3   OH227396   0.465   7.367   3.487
 9152TIP3    H127397   0.420   7.311   3.420
 9152TIP3    H227398   0.438   7.455   3.458
 9153TIP3   OH227399   0.713   7.054   5.500
 9153TIP3    H127400   0.709   6.958   5.488
 9153TIP3    H227401   0.625   7.070   5.537
 9154TIP3   OH227402   0.595   7.551   3.822
 9154TIP3    H127403   0.669   7.612   3.802
 9154TIP3    H227404   0.626   7.510   3.906
 9155TIP3   OH227405   0.714   7.425   4.033
 9155TIP3    H127406   0.648   7.373   4.086
 9155TIP3    H227407   0.775   7.455   4.102
 9156TIP3   OH227408   0.754   7.806   4.454
 9156TIP3    H127409   0.814   7.739   4.416
 9156TIP3    H227410   0.769   7.883   4.395
 9157TIP3   OH227411   0.653   7.324   3.679
 9157TIP3    H127412   0.582   7.324   3.611
 9157TIP3    H227413   0.623   7.400   3.733
 9158TIP3   OH227414   0.525   7.003   3.627
 9158TIP3    H127415   0.481   7.032   3.546
 9158TIP3    H227416   0.504   6.906   3.625
 9159TIP3   OH227417   0.547   7.269   4.178
 9159TIP3    H127418   0.538   7.173   4.159
 9159TIP3    H227419   0.527   7.272   4.274
 9160TIP3   OH227420   0.806   7.693   5.037
 9160TIP3    H127421   0.875   7.624   5.035
 9160TIP3    H227422   0.845   7.762   4.981
 9161TIP3   OH227423   1.008   7.511   5.049
 9161TIP3    H127424   0.931   7.461   5.086
 9161TIP3    H227425   1.078   7.445   5.066
 9162TIP3   OH227426   0.483   6.738   3.636
 9162TIP3    H127427   0.554   6.700   3.691
 9162TIP3    H227428   0.405   6.683   3.661
 9163TIP3   OH227429   0.533   6.998   4.095
 9163TIP3    H127430   0.565   6.906   4.104
 9163TIP3    H227431   0.561   7.019   4.005
 9164TIP3   OH227432   0.684   7.174   4.566
 9164TIP3    H127433   0.772   7.196   4.527
 9164TIP3    H227434   0.700   7.204   4.658
 9165TIP3   OH227435   0.750   7.308   4.798
 9165TIP3    H127436   0.682   7.344   4.857
 9165TIP3    H227437   0.788   7.388   4.758
 9166TIP3   OH227438   1.221   6.911   5.358
 9166TIP3    H127439   1.265   6.835   5.315
 9166TIP3    H227440   1.181   6.956   5.281
 9167TIP3   OH227441   0.634   6.737   4.108
 9167TIP3    H127442   0.681   6.725   4.193
 9167TIP3    H227443   0.573   6.660   4.110
 9168TIP3   OH227444   1.077   7.040   5.161
 9168TIP3    H127445   0.995   7.077   5.199
 9168TIP3    H227446   1.041   6.969   5.104
 9169TIP3   OH227447   0.724   6.672   3.752
 9169TIP3    H127448   0.761   6.602   3.695
 9169TIP3    H227449   0.787   6.746   3.739
 9170TIP3   OH227450   0.979   6.804   5.036
 9170TIP3    H127451   0.886   6.785   5.011
 9170TIP3    H227452   1.014   6.712   5.032
 9171TIP3   OH227453   0.716   6.600   4.569
 9171TIP3    H127454   0.748   6.647   4.489
 9171TIP3    H227455   0.618   6.609   4.561
 9172TIP3   OH227456   0.796   6.703   4.330
 9172TIP3    H127457   0.867   6.648   4.290
 9172TIP3    H227458   0.832   6.792   4.311
 9173TIP3   OH227459   0.447   6.619   4.550
 9173TIP3    H127460   0.396   6.605   4.470
 9173TIP3    H227461   0.422   6.538   4.602
 9174TIP3   OH227462   0.460   6.509   4.098
 9174TIP3    H127463   0.369   6.531   4.070
 9174TIP3    H227464   0.445   6.425   4.145
 9175TIP3   OH227465   1.918   7.689   3.737
 9175TIP3    H127466   1.887   7.778   3.712
 9175TIP3    H227467   1.844   7.635   3.706
 9176TIP3   OH227468   1.914   7.690   4.113
 9176TIP3    H127469   1.943   7.656   4.199
 9176TIP3    H227470   1.875   7.610   4.074
 9177TIP3   OH227471   1.211   7.586   4.479
 9177TIP3    H127472   1.241   7.516   4.539
 9177TIP3    H227473   1.291   7.640   4.472
 9178TIP3   OH227474   2.154   7.988   3.790
 9178TIP3    H127475   2.135   7.913   3.848
 9178TIP3    H227476   2.182   8.056   3.853
 9179TIP3   OH227477   1.215   7.968   4.263
 9179TIP3    H127478   1.197   7.875   4.240
 9179TIP3    H227479   1.285   7.988   4.198
 9180TIP3   OH227480   0.891   7.203   3.990
 9180TIP3    H127481   0.836   7.283   4.001
 9180TIP3    H227482   0.823   7.140   3.961
 9181TIP3   OH227483   0.953   7.487   4.165
 9181TIP3    H127484   0.998   7.407   4.200
 9181TIP3    H227485   1.002   7.501   4.082
 9182TIP3   OH227486   1.721   7.914   4.157
 9182TIP3    H127487   1.753   7.832   4.116
 9182TIP3    H227488   1.807   7.951   4.186
 9183TIP3   OH227489   2.724   7.237   4.158
 9183TIP3    H127490   2.755   7.320   4.199
 9183TIP3    H227491   2.748   7.251   4.065
 9184TIP3   OH227492   2.130   7.421   4.194
 9184TIP3    H127493   2.166   7.332   4.214
 9184TIP3    H227494   2.092   7.404   4.105
 9185TIP3   OH227495   1.456   7.075   4.160
 9185TIP3    H127496   1.438   7.144   4.094
 9185TIP3    H227497   1.416   6.997   4.115
 9186TIP3   OH227498   2.155   7.171   3.781
 9186TIP3    H127499   2.224   7.149   3.847
 9186TIP3    H227500   2.212   7.202   3.708
 9187TIP3   OH227501   1.096   7.278   4.265
 9187TIP3    H127502   1.178   7.256   4.312
 9187TIP3    H227503   1.106   7.221   4.186
 9188TIP3   OH227504   1.536   7.476   4.058
 9188TIP3    H127505   1.629   7.448   4.072
 9188TIP3    H227506   1.495   7.392   4.028
 9189TIP3   OH227507   2.801   7.446   4.327
 9189TIP3    H127508   2.715   7.489   4.307
 9189TIP3    H227509   2.803   7.456   4.423
 9190TIP3   OH227510   1.460   7.063   4.595
 9190TIP3    H127511   1.397   7.095   4.528
 9190TIP3    H227512   1.407   7.078   4.676
 9191TIP3   OH227513   1.824   7.907   3.600
 9191TIP3    H127514   1.770   7.869   3.529
 9191TIP3    H227515   1.791   7.997   3.607
 9192TIP3   OH227516   1.564   7.838   4.392
 9192TIP3    H127517   1.500   7.900   4.434
 9192TIP3    H227518   1.600   7.892   4.320
 9193TIP3   OH227519   2.367   7.169   3.949
 9193TIP3    H127520   2.357   7.110   4.025
 9193TIP3    H227521   2.422   7.241   3.984
 9194TIP3   OH227522   1.329   7.175   4.378
 9194TIP3    H127523   1.395   7.243   4.401
 9194TIP3    H227524   1.374   7.132   4.302
 9195TIP3   OH227525   1.381   8.042   4.485
 9195TIP3    H127526   1.331   8.044   4.402
 9195TIP3    H227527   1.307   8.033   4.548
 9196TIP3   OH227528   0.791   7.719   3.713
 9196TIP3    H127529   0.737   7.726   3.632
 9196TIP3    H227530   0.798   7.813   3.733
 9197TIP3   OH227531   2.239   8.196   3.952
 9197TIP3    H127532   2.162   8.199   4.013
 9197TIP3    H227533   2.238   8.287   3.918
 9198TIP3   OH227534   2.515   7.143   4.329
 9198TIP3    H127535   2.427   7.162   4.294
 9198TIP3    H227536   2.574   7.169   4.255
 9199TIP3   OH227537   1.828   6.787   4.319
 9199TIP3    H127538   1.803   6.696   4.299
 9199TIP3    H227539   1.742   6.822   4.350
 9200TIP3   OH227540   2.120   8.040   3.523
 9200TIP3    H127541   2.088   7.960   3.477
 9200TIP3    H227542   2.146   8.003   3.611
 9201TIP3   OH227543   2.450   8.153   4.305
 9201TIP3    H127544   2.442   8.075   4.245
 9201TIP3    H227545   2.421   8.225   4.248
 9202TIP3   OH227546   1.749   7.547   3.563
 9202TIP3    H127547   1.663   7.586   3.537
 9202TIP3    H227548   1.792   7.533   3.476
 9203TIP3   OH227549   1.703   7.327   3.279
 9203TIP3    H127550   1.774   7.374   3.326
 9203TIP3    H227551   1.756   7.258   3.234
 9204TIP3   OH227552   2.647   7.785   4.155
 9204TIP3    H127553   2.567   7.841   4.158
 9204TIP3    H227554   2.677   7.803   4.064
 9205TIP3   OH227555   2.094   7.624   3.536
 9205TIP3    H127556   2.039   7.644   3.616
 9205TIP3    H227557   2.177   7.595   3.579
 9206TIP3   OH227558   2.328   7.668   4.442
 9206TIP3    H127559   2.319   7.751   4.492
 9206TIP3    H227560   2.239   7.662   4.401
 9207TIP3   OH227561   1.331   7.624   3.945
 9207TIP3    H127562   1.283   7.565   3.883
 9207TIP3    H227563   1.402   7.565   3.978
 9208TIP3   OH227564   1.454   7.994   4.115
 9208TIP3    H127565   1.455   7.945   4.032
 9208TIP3    H227566   1.550   7.993   4.136
 9209TIP3   OH227567   1.463   7.592   4.308
 9209TIP3    H127568   1.494   7.569   4.218
 9209TIP3    H227569   1.504   7.679   4.324
 9210TIP3   OH227570   2.005   8.220   4.100
 9210TIP3    H127571   1.959   8.271   4.167
 9210TIP3    H227572   1.994   8.129   4.137
 9211TIP3   OH227573   1.601   8.104   4.644
 9211TIP3    H127574   1.555   8.173   4.694
 9211TIP3    H227575   1.528   8.070   4.587
 9212TIP3   OH227576   1.932   7.483   3.361
 9212TIP3    H127577   1.992   7.541   3.413
 9212TIP3    H227578   1.960   7.503   3.269
 9213TIP3   OH227579   1.352   7.709   4.725
 9213TIP3    H127580   1.357   7.792   4.778
 9213TIP3    H227581   1.259   7.684   4.739
 9214TIP3   OH227582   2.448   6.724   3.408
 9214TIP3    H127583   2.366   6.740   3.460
 9214TIP3    H227584   2.459   6.808   3.361
 9215TIP3   OH227585   1.189   7.469   3.760
 9215TIP3    H127586   1.120   7.505   3.700
 9215TIP3    H227587   1.158   7.378   3.772
 9216TIP3   OH227588   0.980   7.847   4.665
 9216TIP3    H127589   0.917   7.822   4.595
 9216TIP3    H227590   1.015   7.759   4.693
 9217TIP3   OH227591   0.828   8.044   4.320
 9217TIP3    H127592   0.920   8.034   4.291
 9217TIP3    H227593   0.836   8.105   4.394
 9218TIP3   OH227594   2.617   8.434   4.352
 9218TIP3    H127595   2.638   8.348   4.392
 9218TIP3    H227596   2.561   8.475   4.419
 9219TIP3   OH227597   2.578   7.625   4.623
 9219TIP3    H127598   2.497   7.633   4.570
 9219TIP3    H227599   2.596   7.529   4.615
 9220TIP3   OH227600   1.177   8.037   4.673
 9220TIP3    H127601   1.235   7.994   4.740
 9220TIP3    H227602   1.105   7.972   4.663
 9221TIP3   OH227603   1.577   6.857   4.438
 9221TIP3    H127604   1.491   6.822   4.405
 9221TIP3    H227605   1.546   6.937   4.483
 9222TIP3   OH227606   2.109   6.975   4.632
 9222TIP3    H127607   2.175   6.940   4.694
 9222TIP3    H227608   2.024   6.951   4.674
 9223TIP3   OH227609   2.357   7.404   4.555
 9223TIP3    H127610   2.301   7.396   4.636
 9223TIP3    H227611   2.320   7.483   4.512
 9224TIP3   OH227612   2.011   7.527   3.108
 9224TIP3    H127613   1.975   7.499   3.022
 9224TIP3    H227614   2.089   7.578   3.080
 9225TIP3   OH227615   1.725   6.907   3.404
 9225TIP3    H127616   1.699   6.900   3.499
 9225TIP3    H227617   1.684   6.824   3.372
 9226TIP3   OH227618   1.510   7.371   4.458
 9226TIP3    H127619   1.455   7.390   4.537
 9226TIP3    H227620   1.492   7.450   4.403
 9227TIP3   OH227621   1.389   7.261   3.970
 9227TIP3    H127622   1.298   7.228   3.988
 9227TIP3    H227623   1.405   7.220   3.882
 9228TIP3   OH227624   1.887   7.348   3.698
 9228TIP3    H127625   1.831   7.415   3.654
 9228TIP3    H227626   1.938   7.311   3.623
 9229TIP3   OH227627   2.059   7.626   4.790
 9229TIP3    H127628   2.034   7.550   4.848
 9229TIP3    H227629   2.155   7.628   4.805
 9230TIP3   OH227630   2.045   7.376   3.932
 9230TIP3    H127631   1.980   7.397   3.861
 9230TIP3    H227632   2.078   7.291   3.895
 9231TIP3   OH227633   1.328   7.399   4.663
 9231TIP3    H127634   1.349   7.459   4.736
 9231TIP3    H227635   1.315   7.314   4.711
 9232TIP3   OH227636   1.377   6.877   3.369
 9232TIP3    H127637   1.378   6.875   3.467
 9232TIP3    H227638   1.294   6.925   3.353
 9233TIP3   OH227639   0.922   6.923   4.245
 9233TIP3    H127640   1.001   6.951   4.295
 9233TIP3    H227641   0.959   6.887   4.162
 9234TIP3   OH227642   0.898   6.903   3.762
 9234TIP3    H127643   0.945   6.942   3.686
 9234TIP3    H227644   0.835   6.975   3.782
 9235TIP3   OH227645   2.060   7.620   4.359
 9235TIP3    H127646   2.088   7.546   4.300
 9235TIP3    H227647   2.024   7.567   4.435
 9236TIP3   OH227648   1.722   7.097   4.032
 9236TIP3    H127649   1.638   7.071   4.074
 9236TIP3    H227650   1.787   7.068   4.098
 9237TIP3   OH227651   1.155   7.132   4.039
 9237TIP3    H127652   1.061   7.136   4.010
 9237TIP3    H227653   1.182   7.041   4.015
 9238TIP3   OH227654   1.425   7.146   3.728
 9238TIP3    H127655   1.520   7.139   3.704
 9238TIP3    H227656   1.379   7.151   3.641
 9239TIP3   OH227657   2.208   7.154   4.234
 9239TIP3    H127658   2.169   7.165   4.323
 9239TIP3    H227659   2.146   7.088   4.196
 9240TIP3   OH227660   1.260   7.171   3.507
 9240TIP3    H127661   1.186   7.123   3.466
 9240TIP3    H227662   1.310   7.199   3.428
 9241TIP3   OH227663   1.344   7.953   4.872
 9241TIP3    H127664   1.422   7.983   4.923
 9241TIP3    H227665   1.281   7.937   4.945
 9242TIP3   OH227666   1.806   7.413   4.134
 9242TIP3    H127667   1.860   7.354   4.079
 9242TIP3    H227668   1.806   7.365   4.219
 9243TIP3   OH227669   1.327   6.895   4.001
 9243TIP3    H127670   1.288   6.821   4.051
 9243TIP3    H227671   1.402   6.846   3.958
 9244TIP3   OH227672   1.780   7.307   4.410
 9244TIP3    H127673   1.688   7.336   4.429
 9244TIP3    H227674   1.834   7.365   4.467
 9245TIP3   OH227675   1.514   7.696   3.511
 9245TIP3    H127676   1.445   7.626   3.501
 9245TIP3    H227677   1.502   7.720   3.606
 9246TIP3   OH227678   2.416   7.938   4.130
 9246TIP3    H127679   2.411   7.946   4.034
 9246TIP3    H227680   2.335   7.885   4.144
 9247TIP3   OH227681   1.970   7.015   3.359
 9247TIP3    H127682   1.877   6.989   3.380
 9247TIP3    H227683   1.978   7.104   3.399
 9248TIP3   OH227684   1.898   7.982   4.515
 9248TIP3    H127685   1.925   7.946   4.600
 9248TIP3    H227686   1.881   8.075   4.536
 9249TIP3   OH227687   2.043   7.254   3.478
 9249TIP3    H127688   2.140   7.256   3.496
 9249TIP3    H227689   2.029   7.333   3.424
 9250TIP3   OH227690   1.209   7.705   4.183
 9250TIP3    H127691   1.247   7.673   4.099
 9250TIP3    H227692   1.242   7.639   4.247
 9251TIP3   OH227693   1.643   7.861   3.334
 9251TIP3    H127694   1.595   7.932   3.378
 9251TIP3    H227695   1.603   7.784   3.381
 9252TIP3   OH227696   1.090   7.635   4.802
 9252TIP3    H127697   1.103   7.621   4.898
 9252TIP3    H227698   1.020   7.570   4.783
 9253TIP3   OH227699   1.812   7.748   4.820
 9253TIP3    H127700   1.749   7.689   4.774
 9253TIP3    H227701   1.898   7.710   4.791
 9254TIP3   OH227702   2.054   8.212   4.446
 9254TIP3    H127703   1.998   8.271   4.397
 9254TIP3    H227704   2.096   8.272   4.511
 9255TIP3   OH227705   2.487   7.342   3.314
 9255TIP3    H127706   2.424   7.297   3.253
 9255TIP3    H227707   2.484   7.431   3.273
 9256TIP3   OH227708   2.702   8.173   4.400
 9256TIP3    H127709   2.605   8.171   4.384
 9256TIP3    H227710   2.733   8.157   4.308
 9257TIP3   OH227711   2.192   8.103   3.210
 9257TIP3    H127712   2.184   8.020   3.259
 9257TIP3    H227713   2.198   8.075   3.119
 9258TIP3   OH227714   2.183   7.791   4.064
 9258TIP3    H127715   2.090   7.764   4.077
 9258TIP3    H227716   2.217   7.711   4.018
 9259TIP3   OH227717   1.305   7.995   3.763
 9259TIP3    H127718   1.316   8.087   3.732
 9259TIP3    H227719   1.216   7.977   3.732
 9260TIP3   OH227720   0.870   7.324   3.514
 9260TIP3    H127721   0.917   7.407   3.539
 9260TIP3    H227722   0.794   7.326   3.576
 9261TIP3   OH227723   1.472   7.779   3.764
 9261TIP3    H127724   1.415   7.858   3.769
 9261TIP3    H227725   1.433   7.723   3.833
 9262TIP3   OH227726   1.974   7.989   4.245
 9262TIP3    H127727   1.955   7.986   4.341
 9262TIP3    H227728   2.044   7.923   4.238
 9263TIP3   OH227729   1.961   7.857   3.108
 9263TIP3    H127730   1.996   7.832   3.195
 9263TIP3    H227731   1.869   7.878   3.129
 9264TIP3   OH227732   1.299   7.144   4.811
 9264TIP3    H127733   1.203   7.145   4.825
 9264TIP3    H227734   1.327   7.080   4.879
 9265TIP3   OH227735   2.103   7.819   3.345
 9265TIP3    H127736   2.090   7.749   3.412
 9265TIP3    H227737   2.200   7.811   3.330
 9266TIP3   OH227738   1.317   7.842   3.135
 9266TIP3    H127739   1.330   7.746   3.120
 9266TIP3    H227740   1.292   7.846   3.229
 9267TIP3   OH227741   1.265   7.882   3.407
 9267TIP3    H127742   1.319   7.835   3.472
 9267TIP3    H227743   1.256   7.970   3.446
 9268TIP3   OH227744   0.991   7.571   3.597
 9268TIP3    H127745   0.925   7.613   3.656
 9268TIP3    H227746   0.999   7.641   3.529
 9269TIP3   OH227747   2.133   7.213   4.497
 9269TIP3    H127748   2.220   7.237   4.532
 9269TIP3    H227749   2.115   7.128   4.544
 9270TIP3   OH227750   2.026   6.963   3.643
 9270TIP3    H127751   2.006   6.991   3.553
 9270TIP3    H227752   2.055   7.045   3.687
 9271TIP3   OH227753   1.711   7.136   3.762
 9271TIP3    H127754   1.776   7.208   3.747
 9271TIP3    H227755   1.710   7.131   3.860
 9272TIP3   OH227756   1.978   7.461   4.563
 9272TIP3    H127757   1.995   7.506   4.648
 9272TIP3    H227758   2.027   7.377   4.573
 9273TIP3   OH227759   1.906   6.875   3.881
 9273TIP3    H127760   1.831   6.928   3.910
 9273TIP3    H227761   1.922   6.908   3.791
 9274TIP3   OH227762   1.361   6.862   3.642
 9274TIP3    H127763   1.360   6.940   3.700
 9274TIP3    H227764   1.441   6.817   3.676
 9275TIP3   OH227765   2.621   7.357   4.542
 9275TIP3    H127766   2.524   7.359   4.555
 9275TIP3    H227767   2.624   7.304   4.461
 9276TIP3   OH227768   2.267   7.554   3.935
 9276TIP3    H127769   2.191   7.494   3.944
 9276TIP3    H227770   2.338   7.504   3.981
 9277TIP3   OH227771   0.981   7.776   3.408
 9277TIP3    H127772   1.023   7.863   3.407
 9277TIP3    H227773   1.034   7.728   3.340
 9278TIP3   OH227774   0.926   7.056   3.533
 9278TIP3    H127775   0.919   7.153   3.531
 9278TIP3    H227776   0.839   7.028   3.503
 9279TIP3   OH227777   1.309   6.778   4.415
 9279TIP3    H127778   1.283   6.744   4.327
 9279TIP3    H227779   1.301   6.699   4.471
 9280TIP3   OH227780   2.151   8.386   4.631
 9280TIP3    H127781   2.095   8.339   4.697
 9280TIP3    H227782   2.230   8.395   4.685
 9281TIP3   OH227783   1.146   7.925   5.056
 9281TIP3    H127784   1.164   7.830   5.068
 9281TIP3    H227785   1.054   7.923   5.023
 9282TIP3   OH227786   1.116   7.596   3.253
 9282TIP3    H127787   1.162   7.553   3.327
 9282TIP3    H227788   1.187   7.593   3.185
 9283TIP3   OH227789   1.757   8.017   4.845
 9283TIP3    H127790   1.711   8.036   4.760
 9283TIP3    H227791   1.779   7.922   4.834
 9284TIP3   OH227792   1.621   7.786   3.054
 9284TIP3    H127793   1.615   7.799   3.150
 9284TIP3    H227794   1.623   7.688   3.049
 9285TIP3   OH227795   2.245   8.017   4.439
 9285TIP3    H127796   2.314   8.074   4.401
 9285TIP3    H227797   2.167   8.076   4.437
 9286TIP3   OH227798   1.266   7.677   5.042
 9286TIP3    H127799   1.326   7.603   5.030
 9286TIP3    H227800   1.286   7.705   5.134
 9287TIP3   OH227801   1.331   7.495   3.484
 9287TIP3    H127802   1.296   7.450   3.563
 9287TIP3    H227803   1.362   7.418   3.431
 9288TIP3   OH227804   1.593   7.564   4.712
 9288TIP3    H127805   1.512   7.619   4.711
 9288TIP3    H227806   1.639   7.594   4.631
 9289TIP3   OH227807   1.422   7.291   3.318
 9289TIP3    H127808   1.396   7.289   3.224
 9289TIP3    H227809   1.519   7.292   3.312
 9290TIP3   OH227810   2.116   7.963   4.844
 9290TIP3    H127811   2.188   7.930   4.789
 9290TIP3    H227812   2.103   7.890   4.907
 9291TIP3   OH227813   2.240   7.628   2.980
 9291TIP3    H127814   2.223   7.572   2.902
 9291TIP3    H227815   2.218   7.715   2.943
 9292TIP3   OH227816   1.718   7.347   4.832
 9292TIP3    H127817   1.714   7.266   4.778
 9292TIP3    H227818   1.671   7.412   4.776
 9293TIP3   OH227819   1.718   7.137   4.640
 9293TIP3    H127820   1.744   7.169   4.552
 9293TIP3    H227821   1.624   7.111   4.624
 9294TIP3   OH227822   1.746   7.673   4.514
 9294TIP3    H127823   1.825   7.674   4.459
 9294TIP3    H227824   1.691   7.742   4.473
 9295TIP3   OH227825   2.333   7.639   4.899
 9295TIP3    H127826   2.373   7.550   4.905
 9295TIP3    H227827   2.404   7.688   4.855
 9296TIP3   OH227828   2.368   7.894   4.643
 9296TIP3    H127829   2.311   7.939   4.577
 9296TIP3    H227830   2.455   7.907   4.600
 9297TIP3   OH227831   1.595   7.462   5.062
 9297TIP3    H127832   1.525   7.395   5.079
 9297TIP3    H227833   1.627   7.435   4.974
 9298TIP3   OH227834   1.850   6.899   4.707
 9298TIP3    H127835   1.799   6.979   4.683
 9298TIP3    H227836   1.783   6.829   4.693
 9299TIP3   OH227837   1.974   7.406   4.924
 9299TIP3    H127838   1.960   7.389   5.019
 9299TIP3    H227839   1.885   7.379   4.891
 9300TIP3   OH227840   2.218   7.360   4.783
 9300TIP3    H127841   2.140   7.352   4.841
 9300TIP3    H227842   2.289   7.320   4.837
 9301TIP3   OH227843   2.452   7.293   4.929
 9301TIP3    H127844   2.461   7.197   4.946
 9301TIP3    H227845   2.446   7.331   5.019
 9302TIP3   OH227846   1.435   7.242   5.114
 9302TIP3    H127847   1.435   7.150   5.080
 9302TIP3    H227848   1.469   7.228   5.204
 9303TIP3   OH227849   1.947   6.909   4.963
 9303TIP3    H127850   2.012   6.836   4.957
 9303TIP3    H227851   1.905   6.903   4.875
 9304TIP3   OH227852   2.014   7.125   5.121
 9304TIP3    H127853   1.991   7.052   5.058
 9304TIP3    H227854   1.934   7.181   5.116
 9305TIP3   OH227855   0.713   7.724   3.410
 9305TIP3    H127856   0.809   7.744   3.419
 9305TIP3    H227857   0.713   7.630   3.382
 9306TIP3   OH227858   2.570   8.312   4.673
 9306TIP3    H127859   2.498   8.298   4.739
 9306TIP3    H227860   2.620   8.383   4.714
 9307TIP3   OH227861   2.375   7.809   3.317
 9307TIP3    H127862   2.443   7.872   3.284
 9307TIP3    H227863   2.422   7.770   3.394
 9308TIP3   OH227864   2.504   7.679   3.520
 9308TIP3    H127865   2.442   7.632   3.579
 9308TIP3    H227866   2.574   7.709   3.582
 9309TIP3   OH227867   2.444   7.583   3.166
 9309TIP3    H127868   2.372   7.585   3.099
 9309TIP3    H227869   2.417   7.659   3.222
 9310TIP3   OH227870   2.317   7.256   3.120
 9310TIP3    H127871   2.273   7.291   3.042
 9310TIP3    H227872   2.292   7.161   3.115
 9311TIP3   OH227873   2.322   7.529   3.666
 9311TIP3    H127874   2.329   7.432   3.657
 9311TIP3    H227875   2.309   7.539   3.763
 9312TIP3   OH227876   0.946   7.614   4.412
 9312TIP3    H127877   0.945   7.579   4.320
 9312TIP3    H227878   1.043   7.611   4.430
 9313TIP3   OH227879   2.609   7.950   4.527
 9313TIP3    H127880   2.680   7.882   4.520
 9313TIP3    H227881   2.643   8.019   4.467
 9314TIP3   OH227882   2.798   7.762   4.549
 9314TIP3    H127883   2.722   7.709   4.582
 9314TIP3    H227884   2.870   7.697   4.559
 9315TIP3   OH227885   2.260   6.991   3.106
 9315TIP3    H127886   2.335   6.959   3.161
 9315TIP3    H227887   2.187   6.932   3.132
 9316TIP3   OH227888   2.319   7.247   3.560
 9316TIP3    H127889   2.356   7.157   3.578
 9316TIP3    H227890   2.380   7.275   3.489
 9317TIP3   OH227891   2.480   7.426   4.055
 9317TIP3    H127892   2.567   7.451   4.016
 9317TIP3    H227893   2.495   7.456   4.147
 9318TIP3   OH227894   2.550   7.563   4.291
 9318TIP3    H127895   2.470   7.596   4.337
 9318TIP3    H227896   2.582   7.643   4.245
 9319TIP3   OH227897   1.169   7.295   5.090
 9319TIP3    H127898   1.266   7.282   5.089
 9319TIP3    H227899   1.140   7.210   5.127
 9320TIP3   OH227900   3.001   7.157   4.844
 9320TIP3    H127901   3.060   7.090   4.804
 9320TIP3    H227902   2.974   7.209   4.766
 9321TIP3   OH227903   2.425   6.997   3.598
 9321TIP3    H127904   2.473   6.981   3.682
 9321TIP3    H227905   2.363   6.921   3.598
 9322TIP3   OH227906   1.126   6.985   4.423
 9322TIP3    H127907   1.184   6.907   4.429
 9322TIP3    H227908   1.191   7.056   4.413
 9323TIP3   OH227909   0.931   7.259   4.490
 9323TIP3    H127910   0.977   7.245   4.405
 9323TIP3    H227911   0.970   7.342   4.520
 9324TIP3   OH227912   2.872   7.298   4.648
 9324TIP3    H127913   2.782   7.335   4.661
 9324TIP3    H227914   2.849   7.222   4.590
 9325TIP3   OH227915   2.509   6.935   3.228
 9325TIP3    H127916   2.549   6.859   3.180
 9325TIP3    H227917   2.579   7.002   3.223
 9326TIP3   OH227918   0.912   6.767   3.996
 9326TIP3    H127919   0.817   6.759   4.015
 9326TIP3    H227920   0.911   6.821   3.914
 9327TIP3   OH227921   1.136   6.847   4.806
 9327TIP3    H127922   1.084   6.835   4.888
 9327TIP3    H227923   1.066   6.879   4.745
 9328TIP3   OH227924   1.218   8.251   4.898
 9328TIP3    H127925   1.203   8.169   4.848
 9328TIP3    H227926   1.209   8.222   4.991
 9329TIP3   OH227927   2.770   7.057   4.528
 9329TIP3    H127928   2.679   7.048   4.495
 9329TIP3    H227929   2.801   6.965   4.518
 9330TIP3   OH227930   1.980   6.978   4.160
 9330TIP3    H127931   1.929   6.910   4.208
 9330TIP3    H227932   2.015   6.926   4.085
 9331TIP3   OH227933   2.504   6.859   4.055
 9331TIP3    H127934   2.536   6.908   3.976
 9331TIP3    H227935   2.407   6.864   4.044
 9332TIP3   OH227936   2.594   6.956   3.814
 9332TIP3    H127937   2.667   6.905   3.775
 9332TIP3    H227938   2.626   7.048   3.799
 9333TIP3   OH227939   1.225   6.688   4.167
 9333TIP3    H127940   1.136   6.649   4.166
 9333TIP3    H227941   1.280   6.608   4.151
 9334TIP3   OH227942   1.006   6.549   3.807
 9334TIP3    H127943   1.040   6.610   3.739
 9334TIP3    H227944   0.979   6.611   3.877
 9335TIP3   OH227945   2.233   6.859   4.021
 9335TIP3    H127946   2.192   6.830   3.938
 9335TIP3    H227947   2.206   6.786   4.082
 9336TIP3   OH227948   2.243   6.783   3.588
 9336TIP3    H127949   2.156   6.826   3.603
 9336TIP3    H227950   2.229   6.699   3.636
 9337TIP3   OH227951   1.127   6.713   3.572
 9337TIP3    H127952   1.178   6.649   3.519
 9337TIP3    H227953   1.198   6.768   3.611
 9338TIP3   OH227954   1.659   6.881   3.665
 9338TIP3    H127955   1.642   6.821   3.741
 9338TIP3    H227956   1.676   6.966   3.710
 9339TIP3   OH227957   1.432   6.969   5.056
 9339TIP3    H127958   1.394   6.897   5.109
 9339TIP3    H227959   1.526   6.965   5.084
 9340TIP3   OH227960   1.683   6.962   5.175
 9340TIP3    H127961   1.764   6.929   5.134
 9340TIP3    H227962   1.666   6.893   5.242
 9341TIP3   OH227963   2.505   7.022   4.961
 9341TIP3    H127964   2.523   6.989   5.052
 9341TIP3    H227965   2.594   7.015   4.919
 9342TIP3   OH227966   3.711   7.941   3.225
 9342TIP3    H127967   3.685   8.032   3.203
 9342TIP3    H227968   3.635   7.892   3.189
 9343TIP3   OH227969   3.706   7.946   3.599
 9343TIP3    H127970   3.739   7.916   3.686
 9343TIP3    H227971   3.668   7.864   3.563
 9344TIP3   OH227972   3.006   7.848   3.973
 9344TIP3    H127973   3.038   7.776   4.030
 9344TIP3    H227974   3.088   7.894   3.951
 9345TIP3   OH227975   3.941   8.247   3.271
 9345TIP3    H127976   3.937   8.176   3.337
 9345TIP3    H227977   3.977   8.320   3.326
 9346TIP3   OH227978   3.014   8.218   3.751
 9346TIP3    H127979   2.993   8.126   3.724
 9346TIP3    H227980   3.082   8.241   3.685
 9347TIP3   OH227981   2.687   7.456   3.477
 9347TIP3    H127982   2.636   7.539   3.486
 9347TIP3    H227983   2.617   7.397   3.443
 9348TIP3   OH227984   2.742   7.741   3.648
 9348TIP3    H127985   2.792   7.665   3.686
 9348TIP3    H227986   2.803   7.772   3.580
 9349TIP3   OH227987   3.516   8.168   3.648
 9349TIP3    H127988   3.553   8.089   3.605
 9349TIP3    H227989   3.600   8.211   3.675
 9350TIP3   OH227990   4.513   7.493   3.643
 9350TIP3    H127991   4.548   7.573   3.688
 9350TIP3    H227992   4.545   7.508   3.552
 9351TIP3   OH227993   3.918   7.675   3.682
 9351TIP3    H127994   3.963   7.591   3.703
 9351TIP3    H227995   3.890   7.658   3.590
 9352TIP3   OH227996   3.256   7.333   3.647
 9352TIP3    H127997   3.237   7.405   3.584
 9352TIP3    H227998   3.209   7.259   3.602
 9353TIP3   OH227999   3.951   7.425   3.268
 9353TIP3    H128000   4.021   7.407   3.335
 9353TIP3    H228001   4.006   7.459   3.195
 9354TIP3   OH228002   2.892   7.536   3.752
 9354TIP3    H128003   2.975   7.515   3.799
 9354TIP3    H228004   2.904   7.480   3.672
 9355TIP3   OH228005   3.332   7.732   3.548
 9355TIP3    H128006   3.426   7.708   3.559
 9355TIP3    H228007   3.294   7.648   3.514
 9356TIP3   OH228008   4.593   7.697   3.817
 9356TIP3    H128009   4.510   7.746   3.796
 9356TIP3    H228010   4.608   7.725   3.908
 9357TIP3   OH228011   3.255   7.317   4.080
 9357TIP3    H128012   3.193   7.353   4.013
 9357TIP3    H228013   3.204   7.334   4.162
 9358TIP3   OH228014   3.614   8.159   3.086
 9358TIP3    H128015   3.566   8.135   3.006
 9358TIP3    H228016   3.599   8.254   3.092
 9359TIP3   OH228017   3.356   8.094   3.878
 9359TIP3    H128018   3.299   8.161   3.919
 9359TIP3    H228019   3.401   8.145   3.808
 9360TIP3   OH228020   4.161   7.426   3.439
 9360TIP3    H128021   4.161   7.372   3.518
 9360TIP3    H228022   4.219   7.500   3.464
 9361TIP3   OH228023   3.124   7.432   3.865
 9361TIP3    H128024   3.188   7.502   3.889
 9361TIP3    H228025   3.172   7.390   3.790
 9362TIP3   OH228026   3.177   8.300   3.973
 9362TIP3    H128027   3.130   8.305   3.887
 9362TIP3    H228028   3.099   8.292   4.033
 9363TIP3   OH228029   2.573   7.970   3.203
 9363TIP3    H128030   2.537   7.979   3.112
 9363TIP3    H228031   2.593   8.064   3.219
 9364TIP3   OH228032   4.017   8.450   3.432
 9364TIP3    H128033   3.944   8.471   3.493
 9364TIP3    H228034   4.044   8.538   3.399
 9365TIP3   OH228035   4.313   7.394   3.813
 9365TIP3    H128036   4.226   7.423   3.780
 9365TIP3    H228037   4.374   7.425   3.743
 9366TIP3   OH228038   3.612   7.036   3.792
 9366TIP3    H128039   3.600   6.941   3.811
 9366TIP3    H228040   3.534   7.073   3.840
 9367TIP3   OH228041   3.917   8.297   3.005
 9367TIP3    H128042   3.878   8.215   2.969
 9367TIP3    H228043   3.944   8.267   3.095
 9368TIP3   OH228044   4.244   8.410   3.788
 9368TIP3    H128045   4.239   8.328   3.733
 9368TIP3    H228046   4.224   8.478   3.722
 9369TIP3   OH228047   3.543   7.799   3.050
 9369TIP3    H128048   3.461   7.847   3.026
 9369TIP3    H228049   3.588   7.792   2.964
 9370TIP3   OH228050   3.501   7.582   2.767
 9370TIP3    H128051   3.568   7.632   2.815
 9370TIP3    H228052   3.557   7.517   2.721
 9371TIP3   OH228053   4.444   8.041   3.638
 9371TIP3    H128054   4.362   8.094   3.642
 9371TIP3    H228055   4.475   8.063   3.547
 9372TIP3   OH228056   3.889   7.879   3.024
 9372TIP3    H128057   3.835   7.901   3.104
 9372TIP3    H228058   3.973   7.852   3.067
 9373TIP3   OH228059   4.123   7.921   3.932
 9373TIP3    H128060   4.120   8.004   3.982
 9373TIP3    H228061   4.037   7.924   3.886
 9374TIP3   OH228062   3.125   7.880   3.436
 9374TIP3    H128063   3.080   7.821   3.372
 9374TIP3    H228064   3.199   7.824   3.467
 9375TIP3   OH228065   3.246   8.248   3.599
 9375TIP3    H128066   3.257   8.205   3.514
 9375TIP3    H228067   3.339   8.254   3.628
 9376TIP3   OH228068   3.250   7.852   3.793
 9376TIP3    H128069   3.288   7.827   3.706
 9376TIP3    H228070   3.297   7.936   3.813
 9377TIP3   OH228071   3.792   8.482   3.591
 9377TIP3    H128072   3.747   8.529   3.662
 9377TIP3    H228073   3.783   8.389   3.622
 9378TIP3   OH228074   3.392   8.358   4.137
 9378TIP3    H128075   3.353   8.436   4.179
 9378TIP3    H228076   3.321   8.329   4.076
 9379TIP3   OH228077   3.728   7.739   2.848
 9379TIP3    H128078   3.788   7.798   2.900
 9379TIP3    H228079   3.757   7.760   2.756
 9380TIP3   OH228080   3.151   7.963   4.219
 9380TIP3    H128081   3.155   8.050   4.264
 9380TIP3    H228082   3.056   7.944   4.223
 9381TIP3   OH228083   4.244   6.980   2.894
 9381TIP3    H128084   4.164   6.999   2.946
 9381TIP3    H228085   4.257   7.065   2.847
 9382TIP3   OH228086   2.990   7.718   3.251
 9382TIP3    H128087   2.921   7.760   3.194
 9382TIP3    H228088   2.955   7.629   3.260
 9383TIP3   OH228089   2.771   8.093   4.146
 9383TIP3    H128090   2.753   8.054   4.059
 9383TIP3    H228091   2.811   8.016   4.193
 9384TIP3   OH228092   4.416   8.693   3.851
 9384TIP3    H128093   4.437   8.602   3.879
 9384TIP3    H228094   4.353   8.719   3.920
 9385TIP3   OH228095   4.376   7.880   4.113
 9385TIP3    H128096   4.297   7.891   4.058
 9385TIP3    H228097   4.394   7.784   4.102
 9386TIP3   OH228098   2.969   8.293   4.163
 9386TIP3    H128099   3.031   8.252   4.226
 9386TIP3    H228100   2.900   8.224   4.152
 9387TIP3   OH228101   3.372   7.111   3.921
 9387TIP3    H128102   3.283   7.080   3.895
 9387TIP3    H228103   3.348   7.193   3.967
 9388TIP3   OH228104   3.907   7.228   4.117
 9388TIP3    H128105   3.975   7.198   4.180
 9388TIP3    H228106   3.823   7.206   4.163
 9389TIP3   OH228107   4.145   7.654   4.034
 9389TIP3    H128108   4.095   7.651   4.119
 9389TIP3    H228109   4.123   7.743   4.000
 9390TIP3   OH228110   3.805   7.782   2.594
 9390TIP3    H128111   3.772   7.755   2.506
 9390TIP3    H228112   3.882   7.836   2.569
 9391TIP3   OH228113   3.518   7.162   2.894
 9391TIP3    H128114   3.485   7.158   2.986
 9391TIP3    H228115   3.481   7.079   2.860
 9392TIP3   OH228116   3.303   7.628   3.941
 9392TIP3    H128117   3.254   7.651   4.023
 9392TIP3    H228118   3.288   7.709   3.887
 9393TIP3   OH228119   3.188   7.513   3.456
 9393TIP3    H128120   3.095   7.486   3.473
 9393TIP3    H228121   3.202   7.473   3.367
 9394TIP3   OH228122   3.680   7.599   3.182
 9394TIP3    H128123   3.627   7.670   3.140
 9394TIP3    H228124   3.734   7.568   3.107
 9395TIP3   OH228125   3.854   7.879   4.271
 9395TIP3    H128126   3.833   7.805   4.332
 9395TIP3    H228127   3.949   7.891   4.290
 9396TIP3   OH228128   3.836   7.628   3.423
 9396TIP3    H128129   3.777   7.656   3.350
 9396TIP3    H228130   3.870   7.546   3.381
 9397TIP3   OH228131   3.120   7.657   4.151
 9397TIP3    H128132   3.159   7.716   4.216
 9397TIP3    H228133   3.111   7.574   4.201
 9398TIP3   OH228134   3.171   7.132   2.859
 9398TIP3    H128135   3.167   7.129   2.957
 9398TIP3    H228136   3.093   7.186   2.839
 9399TIP3   OH228137   2.717   7.182   3.729
 9399TIP3    H128138   2.795   7.209   3.782
 9399TIP3    H228139   2.755   7.143   3.649
 9400TIP3   OH228140   2.693   7.159   3.251
 9400TIP3    H128141   2.739   7.196   3.173
 9400TIP3    H228142   2.631   7.232   3.270
 9401TIP3   OH228143   3.845   7.875   3.846
 9401TIP3    H128144   3.878   7.803   3.788
 9401TIP3    H228145   3.817   7.822   3.923
 9402TIP3   OH228146   3.514   7.340   3.517
 9402TIP3    H128147   3.432   7.334   3.571
 9402TIP3    H228148   3.583   7.333   3.585
 9403TIP3   OH228149   2.950   7.389   3.527
 9403TIP3    H128150   2.855   7.396   3.499
 9403TIP3    H228151   2.973   7.298   3.504
 9404TIP3   OH228152   3.220   7.389   3.213
 9404TIP3    H128153   3.315   7.401   3.193
 9404TIP3    H228154   3.175   7.409   3.128
 9405TIP3   OH228155   4.006   7.414   3.720
 9405TIP3    H128156   3.969   7.423   3.811
 9405TIP3    H228157   3.945   7.349   3.682
 9406TIP3   OH228158   3.059   7.420   2.993
 9406TIP3    H128159   2.985   7.379   2.945
 9406TIP3    H228160   3.110   7.457   2.918
 9407TIP3   OH228161   3.138   8.209   4.360
 9407TIP3    H128162   3.220   8.237   4.405
 9407TIP3    H228163   3.079   8.199   4.437
 9408TIP3   OH228164   3.599   7.663   3.614
 9408TIP3    H128165   3.670   7.624   3.562
 9408TIP3    H228166   3.610   7.620   3.700
 9409TIP3   OH228167   3.123   7.152   3.490
 9409TIP3    H128168   3.089   7.073   3.537
 9409TIP3    H228169   3.178   7.113   3.421
 9410TIP3   OH228170   3.576   7.557   3.906
 9410TIP3    H128171   3.487   7.596   3.917
 9410TIP3    H228172   3.634   7.618   3.955
 9411TIP3   OH228173   3.314   7.949   2.999
 9411TIP3    H128174   3.240   7.885   2.986
 9411TIP3    H228175   3.300   7.974   3.094
 9412TIP3   OH228176   4.211   8.190   3.632
 9412TIP3    H128177   4.238   8.237   3.549
 9412TIP3    H228178   4.128   8.146   3.604
 9413TIP3   OH228179   3.770   7.265   2.857
 9413TIP3    H128180   3.674   7.247   2.867
 9413TIP3    H228181   3.780   7.358   2.885
 9414TIP3   OH228182   3.689   8.238   4.009
 9414TIP3    H128183   3.728   8.214   4.093
 9414TIP3    H228184   3.708   8.333   4.005
 9415TIP3   OH228185   3.841   7.510   2.964
 9415TIP3    H128186   3.937   7.514   2.981
 9415TIP3    H228187   3.825   7.591   2.911
 9416TIP3   OH228188   2.996   7.951   3.670
 9416TIP3    H128189   3.039   7.931   3.584
 9416TIP3    H228190   3.049   7.898   3.731
 9417TIP3   OH228191   3.449   8.122   2.833
 9417TIP3    H128192   3.385   8.189   2.859
 9417TIP3    H228193   3.405   8.042   2.870
 9418TIP3   OH228194   2.882   7.898   4.295
 9418TIP3    H128195   2.906   7.876   4.387
 9418TIP3    H228196   2.820   7.826   4.274
 9419TIP3   OH228197   3.610   8.001   4.309
 9419TIP3    H128198   3.553   7.946   4.253
 9419TIP3    H228199   3.699   7.969   4.282
 9420TIP3   OH228200   3.829   8.469   3.942
 9420TIP3    H128201   3.821   8.529   3.868
 9420TIP3    H228202   3.888   8.522   4.000
 9421TIP3   OH228203   4.281   7.599   2.802
 9421TIP3    H128204   4.219   7.554   2.740
 9421TIP3    H228205   4.280   7.688   2.761
 9422TIP3   OH228206   4.495   8.429   3.887
 9422TIP3    H128207   4.399   8.427   3.866
 9422TIP3    H228208   4.532   8.413   3.797
 9423TIP3   OH228209   3.997   8.362   2.695
 9423TIP3    H128210   3.983   8.286   2.752
 9423TIP3    H228211   3.981   8.327   2.607
 9424TIP3   OH228212   3.977   8.048   3.551
 9424TIP3    H128213   3.883   8.021   3.560
 9424TIP3    H228214   4.013   7.970   3.505
 9425TIP3   OH228215   3.104   8.252   3.248
 9425TIP3    H128216   3.122   8.340   3.210
 9425TIP3    H228217   3.015   8.236   3.215
 9426TIP3   OH228218   2.665   7.577   2.998
 9426TIP3    H128219   2.716   7.658   3.020
 9426TIP3    H228220   2.591   7.585   3.063
 9427TIP3   OH228221   3.265   8.033   3.250
 9427TIP3    H128222   3.211   8.115   3.255
 9427TIP3    H228223   3.225   7.980   3.322
 9428TIP3   OH228224   3.768   8.246   3.731
 9428TIP3    H128225   3.753   8.237   3.828
 9428TIP3    H228226   3.845   8.189   3.718
 9429TIP3   OH228227   3.756   8.115   2.595
 9429TIP3    H128228   3.791   8.089   2.683
 9429TIP3    H228229   3.661   8.126   2.614
 9430TIP3   OH228230   3.097   7.401   4.298
 9430TIP3    H128231   3.000   7.401   4.309
 9430TIP3    H228232   3.124   7.336   4.365
 9431TIP3   OH228233   3.899   8.071   2.829
 9431TIP3    H128234   3.888   8.002   2.899
 9431TIP3    H228235   3.996   8.067   2.817
 9432TIP3   OH228236   3.163   8.101   2.636
 9432TIP3    H128237   3.142   8.011   2.604
 9432TIP3    H228238   3.092   8.112   2.702
 9433TIP3   OH228239   3.065   8.131   2.906
 9433TIP3    H128240   3.129   8.103   2.972
 9433TIP3    H228241   3.051   8.225   2.925
 9434TIP3   OH228242   2.781   7.814   3.102
 9434TIP3    H128243   2.712   7.860   3.153
 9434TIP3    H228244   2.799   7.882   3.033
 9435TIP3   OH228245   3.929   7.466   3.980
 9435TIP3    H128246   4.013   7.501   4.013
 9435TIP3    H228247   3.917   7.384   4.033
 9436TIP3   OH228248   3.811   7.217   3.141
 9436TIP3    H128249   3.800   7.239   3.047
 9436TIP3    H228250   3.850   7.299   3.178
 9437TIP3   OH228251   3.503   7.394   3.244
 9437TIP3    H128252   3.568   7.465   3.227
 9437TIP3    H228253   3.508   7.386   3.342
 9438TIP3   OH228254   3.772   7.714   4.053
 9438TIP3    H128255   3.794   7.765   4.134
 9438TIP3    H228256   3.826   7.634   4.063
 9439TIP3   OH228257   3.647   7.123   3.347
 9439TIP3    H128258   3.647   7.198   3.410
 9439TIP3    H228259   3.707   7.158   3.277
 9440TIP3   OH228260   3.158   7.119   3.136
 9440TIP3    H128261   3.157   7.209   3.173
 9440TIP3    H228262   3.254   7.099   3.145
 9441TIP3   OH228263   4.414   7.615   4.034
 9441TIP3    H128264   4.316   7.611   4.039
 9441TIP3    H228265   4.428   7.572   3.949
 9442TIP3   OH228266   4.062   7.809   3.421
 9442TIP3    H128267   3.989   7.747   3.433
 9442TIP3    H228268   4.136   7.764   3.467
 9443TIP3   OH228269   2.778   8.030   2.930
 9443TIP3    H128270   2.803   8.123   2.933
 9443TIP3    H228271   2.814   8.011   2.841
 9444TIP3   OH228272   2.721   7.311   3.025
 9444TIP3    H128273   2.721   7.408   3.018
 9444TIP3    H228274   2.637   7.288   2.983
 9445TIP3   OH228275   3.106   7.033   3.899
 9445TIP3    H128276   3.077   6.998   3.813
 9445TIP3    H228277   3.098   6.954   3.957
 9446TIP3   OH228278   3.951   8.640   4.117
 9446TIP3    H128279   3.892   8.595   4.183
 9446TIP3    H228280   4.027   8.652   4.176
 9447TIP3   OH228281   2.939   8.173   4.545
 9447TIP3    H128282   2.960   8.077   4.540
 9447TIP3    H228283   2.850   8.176   4.505
 9448TIP3   OH228284   2.921   7.789   2.760
 9448TIP3    H128285   2.991   7.788   2.827
 9448TIP3    H228286   2.950   7.862   2.703
 9449TIP3   OH228287   3.552   8.271   4.335
 9449TIP3    H128288   3.511   8.295   4.248
 9449TIP3    H228289   3.578   8.178   4.320
 9450TIP3   OH228290   3.434   8.038   2.538
 9450TIP3    H128291   3.386   8.059   2.620
 9450TIP3    H228292   3.423   7.941   2.534
 9451TIP3   OH228293   4.037   8.278   3.927
 9451TIP3    H128294   4.107   8.328   3.881
 9451TIP3    H228295   3.963   8.340   3.924
 9452TIP3   OH228296   3.055   7.926   4.533
 9452TIP3    H128297   3.132   7.873   4.508
 9452TIP3    H228298   3.081   7.957   4.623
 9453TIP3   OH228299   3.127   7.750   2.970
 9453TIP3    H128300   3.093   7.704   3.049
 9453TIP3    H228301   3.158   7.675   2.915
 9454TIP3   OH228302   3.385   7.813   4.191
 9454TIP3    H128303   3.310   7.876   4.193
 9454TIP3    H228304   3.438   7.847   4.116
 9455TIP3   OH228305   3.218   7.544   2.808
 9455TIP3    H128306   3.190   7.550   2.714
 9455TIP3    H228307   3.316   7.549   2.799
 9456TIP3   OH228308   3.906   8.216   4.328
 9456TIP3    H128309   3.988   8.196   4.281
 9456TIP3    H228310   3.904   8.148   4.397
 9457TIP3   OH228311   4.037   7.884   2.466
 9457TIP3    H128312   4.019   7.830   2.387
 9457TIP3    H228313   4.012   7.972   2.431
 9458TIP3   OH228314   3.509   7.604   4.323
 9458TIP3    H128315   3.512   7.523   4.267
 9458TIP3    H228316   3.467   7.668   4.262
 9459TIP3   OH228317   3.513   7.392   4.129
 9459TIP3    H128318   3.542   7.431   4.045
 9459TIP3    H228319   3.420   7.368   4.109
 9460TIP3   OH228320   3.539   7.924   3.999
 9460TIP3    H128321   3.624   7.933   3.955
 9460TIP3    H228322   3.488   7.998   3.960
 9461TIP3   OH228323   4.125   7.894   4.384
 9461TIP3    H128324   4.173   7.810   4.389
 9461TIP3    H228325   4.193   7.953   4.349
 9462TIP3   OH228326   4.164   8.146   4.123
 9462TIP3    H128327   4.107   8.196   4.059
 9462TIP3    H228328   4.252   8.162   4.082
 9463TIP3   OH228329   3.383   7.720   4.550
 9463TIP3    H128330   3.319   7.647   4.562
 9463TIP3    H228331   3.422   7.697   4.463
 9464TIP3   OH228332   3.646   7.155   4.193
 9464TIP3    H128333   3.596   7.236   4.172
 9464TIP3    H228334   3.578   7.086   4.182
 9465TIP3   OH228335   3.771   7.661   4.411
 9465TIP3    H128336   3.762   7.647   4.506
 9465TIP3    H228337   3.681   7.635   4.382
 9466TIP3   OH228338   4.012   7.612   4.266
 9466TIP3    H128339   3.937   7.609   4.329
 9466TIP3    H228340   4.086   7.579   4.321
 9467TIP3   OH228341   4.238   7.548   4.417
 9467TIP3    H128342   4.252   7.453   4.434
 9467TIP3    H228343   4.238   7.587   4.507
 9468TIP3   OH228344   3.230   7.498   4.603
 9468TIP3    H128345   3.233   7.408   4.566
 9468TIP3    H228346   3.267   7.482   4.692
 9469TIP3   OH228347   3.741   7.165   4.450
 9469TIP3    H128348   3.808   7.094   4.446
 9469TIP3    H228349   3.701   7.157   4.361
 9470TIP3   OH228350   3.807   7.379   4.611
 9470TIP3    H128351   3.786   7.307   4.546
 9470TIP3    H228352   3.729   7.438   4.602
 9471TIP3   OH228353   2.508   7.966   2.929
 9471TIP3    H128354   2.599   8.001   2.918
 9471TIP3    H228355   2.511   7.885   2.875
 9472TIP3   OH228356   4.364   8.569   4.161
 9472TIP3    H128357   4.293   8.554   4.228
 9472TIP3    H228358   4.417   8.637   4.203
 9473TIP3   OH228359   4.173   8.065   2.803
 9473TIP3    H128360   4.241   8.128   2.772
 9473TIP3    H228361   4.218   8.026   2.882
 9474TIP3   OH228362   4.301   7.934   3.006
 9474TIP3    H128363   4.238   7.890   3.067
 9474TIP3    H228364   4.370   7.969   3.066
 9475TIP3   OH228365   4.352   8.315   3.438
 9475TIP3    H128366   4.410   8.253   3.389
 9475TIP3    H228367   4.361   8.396   3.383
 9476TIP3   OH228368   4.241   7.839   2.652
 9476TIP3    H128369   4.169   7.843   2.585
 9476TIP3    H228370   4.215   7.914   2.709
 9477TIP3   OH228371   4.112   7.513   2.607
 9477TIP3    H128372   4.070   7.549   2.529
 9477TIP3    H228373   4.088   7.418   2.600
 9478TIP3   OH228374   4.117   7.787   3.153
 9478TIP3    H128375   4.127   7.691   3.147
 9478TIP3    H228376   4.105   7.800   3.250
 9479TIP3   OH228377   2.741   7.871   3.908
 9479TIP3    H128378   2.735   7.843   3.815
 9479TIP3    H228379   2.839   7.869   3.920
 9480TIP3   OH228380   4.404   8.205   4.012
 9480TIP3    H128381   4.477   8.139   4.005
 9480TIP3    H228382   4.437   8.276   3.953
 9481TIP3   OH228383   4.593   8.018   4.033
 9481TIP3    H128384   4.519   7.966   4.070
 9481TIP3    H228385   4.667   7.954   4.045
 9482TIP3   OH228386   4.056   7.247   2.593
 9482TIP3    H128387   4.134   7.218   2.645
 9482TIP3    H228388   3.986   7.186   2.621
 9483TIP3   OH228389   4.114   7.503   3.048
 9483TIP3    H128390   4.152   7.414   3.064
 9483TIP3    H228391   4.174   7.534   2.978
 9484TIP3   OH228392   4.275   7.683   3.541
 9484TIP3    H128393   4.362   7.707   3.501
 9484TIP3    H228394   4.291   7.715   3.632
 9485TIP3   OH228395   4.345   7.822   3.776
 9485TIP3    H128396   4.266   7.857   3.822
 9485TIP3    H228397   4.378   7.901   3.729
 9486TIP3   OH228398   2.964   7.553   4.583
 9486TIP3    H128399   3.061   7.540   4.577
 9486TIP3    H228400   2.937   7.465   4.616
 9487TIP3   OH228401   4.796   7.412   4.332
 9487TIP3    H128402   4.856   7.346   4.290
 9487TIP3    H228403   4.769   7.466   4.255
 9488TIP3   OH228404   4.221   7.254   3.086
 9488TIP3    H128405   4.273   7.239   3.167
 9488TIP3    H228406   4.163   7.175   3.086
 9489TIP3   OH228407   2.922   7.241   3.907
 9489TIP3    H128408   2.982   7.164   3.915
 9489TIP3    H228409   2.987   7.313   3.898
 9490TIP3   OH228410   2.727   7.517   3.978
 9490TIP3    H128411   2.773   7.503   3.892
 9490TIP3    H228412   2.770   7.598   4.008
 9491TIP3   OH228413   4.668   7.554   4.137
 9491TIP3    H128414   4.579   7.591   4.152
 9491TIP3    H228415   4.645   7.481   4.077
 9492TIP3   OH228416   4.304   7.192   2.713
 9492TIP3    H128417   4.348   7.116   2.670
 9492TIP3    H228418   4.374   7.260   2.714
 9493TIP3   OH228419   2.709   7.023   3.483
 9493TIP3    H128420   2.615   7.014   3.505
 9493TIP3    H228421   2.706   7.078   3.402
 9494TIP3   OH228422   2.930   7.104   4.296
 9494TIP3    H128423   2.877   7.091   4.376
 9494TIP3    H228424   2.863   7.135   4.234
 9495TIP3   OH228425   3.009   8.510   4.381
 9495TIP3    H128426   2.999   8.426   4.334
 9495TIP3    H228427   3.013   8.484   4.474
 9496TIP3   OH228428   4.564   7.314   4.017
 9496TIP3    H128429   4.474   7.306   3.980
 9496TIP3    H228430   4.597   7.222   4.006
 9497TIP3   OH228431   3.767   7.229   3.627
 9497TIP3    H128432   3.726   7.160   3.683
 9497TIP3    H228433   3.843   7.183   3.588
 9498TIP3   OH228434   4.294   7.110   3.539
 9498TIP3    H128435   4.333   7.162   3.465
 9498TIP3    H228436   4.199   7.129   3.529
 9499TIP3   OH228437   4.389   7.214   3.302
 9499TIP3    H128438   4.462   7.160   3.264
 9499TIP3    H228439   4.425   7.304   3.287
 9500TIP3   OH228440   3.020   6.940   3.650
 9500TIP3    H128441   2.928   6.907   3.653
 9500TIP3    H228442   3.069   6.854   3.647
 9501TIP3   OH228443   2.802   6.808   3.295
 9501TIP3    H128444   2.835   6.867   3.224
 9501TIP3    H228445   2.777   6.872   3.364
 9502TIP3   OH228446   3.461   6.974   3.530
 9502TIP3    H128447   3.520   7.022   3.471
 9502TIP3    H228448   3.486   7.009   3.617
 9503TIP3   OH228449   4.008   7.118   3.514
 9503TIP3    H128450   4.011   7.079   3.425
 9503TIP3    H228451   3.995   7.038   3.570
 9504TIP3   OH228452   4.039   7.039   3.075
 9504TIP3    H128453   3.951   7.079   3.086
 9504TIP3    H228454   4.027   6.954   3.124
 9505TIP3   OH228455   2.922   6.970   3.059
 9505TIP3    H128456   2.971   6.906   3.004
 9505TIP3    H228457   2.995   7.023   3.096
 9506TIP3   OH228458   3.436   7.144   3.160
 9506TIP3    H128459   3.495   7.095   3.219
 9506TIP3    H228460   3.459   7.235   3.186
 9507TIP3   OH228461   3.227   7.223   4.544
 9507TIP3    H128462   3.193   7.150   4.597
 9507TIP3    H228463   3.322   7.221   4.569
 9508TIP3   OH228464   3.477   7.219   4.661
 9508TIP3    H128465   3.561   7.192   4.620
 9508TIP3    H228466   3.465   7.148   4.728
 9509TIP3   OH228467   4.302   7.278   4.448
 9509TIP3    H128468   4.321   7.245   4.538
 9509TIP3    H228469   4.390   7.273   4.405
 9510TIP3   OH228470   5.509   8.198   2.711
 9510TIP3    H128471   5.482   8.289   2.691
 9510TIP3    H228472   5.432   8.149   2.678
 9511TIP3   OH228473   5.502   8.202   3.087
 9511TIP3    H128474   5.535   8.172   3.173
 9511TIP3    H228475   5.464   8.120   3.052
 9512TIP3   OH228476   4.805   8.101   3.455
 9512TIP3    H128477   4.836   8.030   3.515
 9512TIP3    H228478   4.887   8.152   3.443
 9513TIP3   OH228479   5.738   8.503   2.759
 9513TIP3    H128480   5.732   8.432   2.824
 9513TIP3    H228481   5.773   8.576   2.814
 9514TIP3   OH228482   4.810   8.479   3.236
 9514TIP3    H128483   4.787   8.387   3.212
 9514TIP3    H228484   4.880   8.498   3.171
 9515TIP3   OH228485   4.483   7.712   2.962
 9515TIP3    H128486   4.435   7.795   2.977
 9515TIP3    H228487   4.411   7.655   2.929
 9516TIP3   OH228488   4.540   7.995   3.130
 9516TIP3    H128489   4.588   7.919   3.170
 9516TIP3    H228490   4.605   8.027   3.066
 9517TIP3   OH228491   5.313   8.426   3.132
 9517TIP3    H128492   5.349   8.345   3.091
 9517TIP3    H228493   5.397   8.467   3.160
 9518TIP3   OH228494   6.315   7.751   3.132
 9518TIP3    H128495   6.346   7.833   3.176
 9518TIP3    H228496   6.338   7.769   3.039
 9519TIP3   OH228497   5.719   7.934   3.168
 9519TIP3    H128498   5.759   7.847   3.190
 9519TIP3    H228499   5.686   7.915   3.078
 9520TIP3   OH228500   5.057   7.592   3.130
 9520TIP3    H128501   5.030   7.660   3.066
 9520TIP3    H228502   5.010   7.514   3.093
 9521TIP3   OH228503   5.748   7.681   2.755
 9521TIP3    H128504   5.818   7.662   2.822
 9521TIP3    H228505   5.802   7.715   2.682
 9522TIP3   OH228506   4.688   7.792   3.238
 9522TIP3    H128507   4.771   7.772   3.286
 9522TIP3    H228508   4.702   7.736   3.159
 9523TIP3   OH228509   5.129   7.990   3.032
 9523TIP3    H128510   5.222   7.964   3.047
 9523TIP3    H228511   5.089   7.905   3.002
 9524TIP3   OH228512   6.393   7.959   3.301
 9524TIP3    H128513   6.308   8.004   3.282
 9524TIP3    H228514   6.394   7.964   3.397
 9525TIP3   OH228515   5.057   7.603   3.587
 9525TIP3    H128516   5.010   7.574   3.508
 9525TIP3    H228517   4.987   7.610   3.654
 9526TIP3   OH228518   5.412   8.418   2.576
 9526TIP3    H128519   5.363   8.389   2.498
 9526TIP3    H228520   5.395   8.513   2.580
 9527TIP3   OH228521   5.154   8.351   3.365
 9527TIP3    H128522   5.093   8.415   3.406
 9527TIP3    H228523   5.196   8.404   3.295
 9528TIP3   OH228524   5.959   7.682   2.925
 9528TIP3    H128525   5.950   7.630   3.006
 9528TIP3    H228526   6.014   7.757   2.954
 9529TIP3   OH228527   4.920   7.685   3.347
 9529TIP3    H128528   4.985   7.748   3.383
 9529TIP3    H228529   4.974   7.643   3.276
 9530TIP3   OH228530   4.972   8.556   3.459
 9530TIP3    H128531   4.922   8.558   3.375
 9530TIP3    H228532   4.897   8.548   3.522
 9531TIP3   OH228533   4.372   8.226   2.686
 9531TIP3    H128534   4.331   8.251   2.601
 9531TIP3    H228535   4.389   8.315   2.720
 9532TIP3   OH228536   5.815   8.706   2.920
 9532TIP3    H128537   5.740   8.727   2.979
 9532TIP3    H228538   5.840   8.795   2.886
 9533TIP3   OH228539   6.108   7.653   3.300
 9533TIP3    H128540   6.021   7.680   3.267
 9533TIP3    H228541   6.168   7.683   3.228
 9534TIP3   OH228542   5.412   7.290   3.286
 9534TIP3    H128543   5.402   7.193   3.291
 9534TIP3    H228544   5.324   7.313   3.326
 9535TIP3   OH228545   5.713   8.553   2.492
 9535TIP3    H128546   5.677   8.471   2.455
 9535TIP3    H228547   5.739   8.523   2.582
 9536TIP3   OH228548   6.042   8.668   3.273
 9536TIP3    H128549   6.034   8.585   3.221
 9536TIP3    H228550   6.018   8.734   3.207
 9537TIP3   OH228551   5.339   8.057   2.535
 9537TIP3    H128552   5.257   8.102   2.510
 9537TIP3    H228553   5.385   8.048   2.450
 9538TIP3   OH228554   5.296   7.838   2.255
 9538TIP3    H128555   5.365   7.888   2.301
 9538TIP3    H228556   5.352   7.773   2.207
 9539TIP3   OH228557   6.244   8.303   3.126
 9539TIP3    H128558   6.158   8.351   3.129
 9539TIP3    H228559   6.271   8.322   3.034
 9540TIP3   OH228560   5.685   8.135   2.510
 9540TIP3    H128561   5.631   8.156   2.590
 9540TIP3    H228562   5.769   8.108   2.553
 9541TIP3   OH228563   5.920   8.178   3.418
 9541TIP3    H128564   5.915   8.261   3.468
 9541TIP3    H228565   5.833   8.178   3.374
 9542TIP3   OH228566   4.923   8.137   2.920
 9542TIP3    H128567   4.877   8.077   2.857
 9542TIP3    H228568   4.996   8.080   2.954
 9543TIP3   OH228569   5.046   8.506   3.087
 9543TIP3    H128570   5.051   8.459   3.003
 9543TIP3    H228571   5.140   8.507   3.112
 9544TIP3   OH228572   5.048   8.109   3.279
 9544TIP3    H128573   5.086   8.083   3.192
 9544TIP3    H228574   5.095   8.193   3.299
 9545TIP3   OH228575   5.588   8.739   3.077
 9545TIP3    H128576   5.544   8.784   3.150
 9545TIP3    H228577   5.580   8.646   3.107
 9546TIP3   OH228578   5.191   8.618   3.619
 9546TIP3    H128579   5.146   8.686   3.670
 9546TIP3    H228580   5.119   8.585   3.561
 9547TIP3   OH228581   5.524   7.997   2.331
 9547TIP3    H128582   5.585   8.054   2.383
 9547TIP3    H228583   5.552   8.018   2.238
 9548TIP3   OH228584   4.946   8.222   3.702
 9548TIP3    H128585   4.949   8.306   3.751
 9548TIP3    H228586   4.851   8.200   3.709
 9549TIP3   OH228587   6.041   7.236   2.382
 9549TIP3    H128588   5.960   7.256   2.433
 9549TIP3    H228589   6.054   7.321   2.334
 9550TIP3   OH228590   4.783   7.980   2.730
 9550TIP3    H128591   4.714   8.019   2.672
 9550TIP3    H228592   4.748   7.892   2.747
 9551TIP3   OH228593   4.568   8.361   3.637
 9551TIP3    H128594   4.507   8.343   3.563
 9551TIP3    H228595   4.603   8.273   3.659
 9552TIP3   OH228596   4.431   8.533   3.297
 9552TIP3    H128597   4.523   8.553   3.273
 9552TIP3    H228598   4.397   8.621   3.323
 9553TIP3   OH228599   6.216   8.952   3.340
 9553TIP3    H128600   6.237   8.859   3.364
 9553TIP3    H228601   6.149   8.974   3.406
 9554TIP3   OH228602   6.174   8.140   3.597
 9554TIP3    H128603   6.092   8.147   3.546
 9554TIP3    H228604   6.193   8.044   3.588
 9555TIP3   OH228605   4.770   8.551   3.650
 9555TIP3    H128606   4.826   8.504   3.715
 9555TIP3    H228607   4.696   8.488   3.636
 9556TIP3   OH228608   5.701   7.485   3.604
 9556TIP3    H128609   5.770   7.454   3.666
 9556TIP3    H228610   5.617   7.463   3.651
 9557TIP3   OH228611   5.942   7.912   3.523
 9557TIP3    H128612   5.891   7.907   3.607
 9557TIP3    H228613   5.916   7.999   3.487
 9558TIP3   OH228614   5.598   8.038   2.069
 9558TIP3    H128615   5.584   8.010   1.978
 9558TIP3    H228616   5.679   8.092   2.057
 9559TIP3   OH228617   5.313   7.420   2.381
 9559TIP3    H128618   5.283   7.415   2.474
 9559TIP3    H228619   5.277   7.336   2.347
 9560TIP3   OH228620   5.102   7.885   3.428
 9560TIP3    H128621   5.049   7.901   3.509
 9560TIP3    H228622   5.082   7.965   3.375
 9561TIP3   OH228623   4.981   7.773   2.940
 9561TIP3    H128624   4.890   7.743   2.959
 9561TIP3    H228625   4.996   7.729   2.853
 9562TIP3   OH228626   5.476   7.856   2.669
 9562TIP3    H128627   5.423   7.927   2.627
 9562TIP3    H228628   5.530   7.824   2.594
 9563TIP3   OH228629   5.651   8.137   3.760
 9563TIP3    H128630   5.628   8.063   3.820
 9563TIP3    H228631   5.746   8.146   3.778
 9564TIP3   OH228632   5.634   7.885   2.908
 9564TIP3    H128633   5.573   7.913   2.837
 9564TIP3    H228634   5.667   7.802   2.868
 9565TIP3   OH228635   4.917   7.913   3.637
 9565TIP3    H128636   4.952   7.971   3.706
 9565TIP3    H228637   4.910   7.828   3.684
 9566TIP3   OH228638   4.967   7.388   2.345
 9566TIP3    H128639   4.964   7.386   2.443
 9566TIP3    H228640   4.888   7.442   2.325
 9567TIP3   OH228641   4.517   7.436   3.216
 9567TIP3    H128642   4.593   7.463   3.271
 9567TIP3    H228643   4.559   7.396   3.138
 9568TIP3   OH228644   4.486   7.415   2.735
 9568TIP3    H128645   4.536   7.452   2.660
 9568TIP3    H228646   4.428   7.490   2.756
 9569TIP3   OH228647   5.645   8.132   3.332
 9569TIP3    H128648   5.677   8.059   3.274
 9569TIP3    H228649   5.614   8.079   3.409
 9570TIP3   OH228650   5.310   7.597   3.004
 9570TIP3    H128651   5.227   7.592   3.055
 9570TIP3    H228652   5.377   7.587   3.075
 9571TIP3   OH228653   4.747   7.646   3.012
 9571TIP3    H128654   4.653   7.649   2.985
 9571TIP3    H228655   4.774   7.555   2.992
 9572TIP3   OH228656   5.016   7.646   2.700
 9572TIP3    H128657   5.112   7.657   2.681
 9572TIP3    H228658   4.972   7.666   2.614
 9573TIP3   OH228659   5.801   7.669   3.205
 9573TIP3    H128660   5.767   7.680   3.296
 9573TIP3    H228661   5.737   7.605   3.169
 9574TIP3   OH228662   4.853   7.681   2.479
 9574TIP3    H128663   4.781   7.635   2.432
 9574TIP3    H228664   4.905   7.714   2.403
 9575TIP3   OH228665   4.936   8.464   3.848
 9575TIP3    H128666   5.016   8.494   3.897
 9575TIP3    H228667   4.873   8.454   3.923
 9576TIP3   OH228668   5.395   7.923   3.103
 9576TIP3    H128669   5.464   7.875   3.055
 9576TIP3    H228670   5.398   7.879   3.191
 9577TIP3   OH228671   4.916   7.412   2.975
 9577TIP3    H128672   4.875   7.338   3.025
 9577TIP3    H228673   4.980   7.364   2.920
 9578TIP3   OH228674   5.374   7.823   3.379
 9578TIP3    H128675   5.282   7.849   3.401
 9578TIP3    H228676   5.427   7.877   3.440
 9579TIP3   OH228677   5.106   8.208   2.484
 9579TIP3    H128678   5.036   8.140   2.475
 9579TIP3    H228679   5.095   8.233   2.579
 9580TIP3   OH228680   6.008   8.445   3.119
 9580TIP3    H128681   6.034   8.492   3.036
 9580TIP3    H228682   5.924   8.401   3.092
 9581TIP3   OH228683   5.566   7.521   2.345
 9581TIP3    H128684   5.470   7.504   2.354
 9581TIP3    H228685   5.576   7.615   2.371
 9582TIP3   OH228686   5.485   8.493   3.493
 9582TIP3    H128687   5.522   8.464   3.577
 9582TIP3    H228688   5.497   8.589   3.499
 9583TIP3   OH228689   5.636   7.768   2.451
 9583TIP3    H128690   5.732   7.770   2.468
 9583TIP3    H228691   5.622   7.846   2.395
 9584TIP3   OH228692   4.794   8.210   3.156
 9584TIP3    H128693   4.839   8.187   3.073
 9584TIP3    H228694   4.843   8.157   3.221
 9585TIP3   OH228695   5.237   8.372   2.308
 9585TIP3    H128696   5.193   8.446   2.352
 9585TIP3    H228697   5.194   8.297   2.356
 9586TIP3   OH228698   4.680   8.150   3.777
 9586TIP3    H128699   4.701   8.133   3.871
 9586TIP3    H228700   4.614   8.082   3.758
 9587TIP3   OH228701   5.406   8.259   3.795
 9587TIP3    H128702   5.346   8.203   3.744
 9587TIP3    H228703   5.493   8.225   3.767
 9588TIP3   OH228704   5.630   8.725   3.429
 9588TIP3    H128705   5.611   8.786   3.358
 9588TIP3    H228706   5.686   8.780   3.487
 9589TIP3   OH228707   6.077   7.856   2.286
 9589TIP3    H128708   6.012   7.812   2.226
 9589TIP3    H228709   6.075   7.945   2.246
 9590TIP3   OH228710   6.292   8.686   3.373
 9590TIP3    H128711   6.196   8.684   3.352
 9590TIP3    H228712   6.328   8.673   3.282
 9591TIP3   OH228713   5.791   8.619   2.181
 9591TIP3    H128714   5.779   8.542   2.237
 9591TIP3    H228715   5.781   8.585   2.092
 9592TIP3   OH228716   5.773   8.305   3.037
 9592TIP3    H128717   5.680   8.277   3.048
 9592TIP3    H228718   5.809   8.226   2.991
 9593TIP3   OH228719   4.898   8.508   2.736
 9593TIP3    H128720   4.916   8.597   2.703
 9593TIP3    H228721   4.807   8.496   2.706
 9594TIP3   OH228722   4.463   7.837   2.488
 9594TIP3    H128723   4.511   7.920   2.510
 9594TIP3    H228724   4.388   7.842   2.550
 9595TIP3   OH228725   5.061   8.290   2.736
 9595TIP3    H128726   5.006   8.371   2.742
 9595TIP3    H228727   5.023   8.236   2.808
 9596TIP3   OH228728   5.565   8.503   3.218
 9596TIP3    H128729   5.549   8.494   3.314
 9596TIP3    H228730   5.640   8.443   3.206
 9597TIP3   OH228731   5.552   8.368   2.082
 9597TIP3    H128732   5.587   8.344   2.170
 9597TIP3    H228733   5.463   8.399   2.104
 9598TIP3   OH228734   4.884   7.662   3.794
 9598TIP3    H128735   4.787   7.655   3.801
 9598TIP3    H228736   4.914   7.593   3.855
 9599TIP3   OH228737   5.695   8.328   2.317
 9599TIP3    H128738   5.685   8.259   2.386
 9599TIP3    H228739   5.792   8.324   2.304
 9600TIP3   OH228740   4.904   8.355   2.110
 9600TIP3    H128741   4.922   8.261   2.093
 9600TIP3    H228742   4.881   8.356   2.205
 9601TIP3   OH228743   4.853   8.391   2.385
 9601TIP3    H128744   4.916   8.351   2.446
 9601TIP3    H228745   4.849   8.483   2.416
 9602TIP3   OH228746   4.580   8.083   2.571
 9602TIP3    H128747   4.513   8.127   2.628
 9602TIP3    H228748   4.592   8.152   2.503
 9603TIP3   OH228749   5.727   7.721   3.465
 9603TIP3    H128750   5.810   7.756   3.503
 9603TIP3    H228751   5.712   7.640   3.518
 9604TIP3   OH228752   5.610   7.473   2.627
 9604TIP3    H128753   5.597   7.496   2.533
 9604TIP3    H228754   5.648   7.555   2.665
 9605TIP3   OH228755   5.299   7.651   2.732
 9605TIP3    H128756   5.365   7.721   2.716
 9605TIP3    H228757   5.303   7.641   2.829
 9606TIP3   OH228758   5.571   7.973   3.539
 9606TIP3    H128759   5.590   8.022   3.622
 9606TIP3    H228760   5.622   7.891   3.551
 9607TIP3   OH228761   5.446   7.381   2.835
 9607TIP3    H128762   5.443   7.456   2.897
 9607TIP3    H228763   5.505   7.417   2.765
 9608TIP3   OH228764   4.955   7.376   2.620
 9608TIP3    H128765   4.952   7.462   2.665
 9608TIP3    H228766   5.050   7.354   2.632
 9609TIP3   OH228767   6.209   7.876   3.512
 9609TIP3    H128768   6.112   7.872   3.525
 9609TIP3    H228769   6.217   7.818   3.435
 9610TIP3   OH228770   5.860   8.066   2.908
 9610TIP3    H128771   5.784   8.005   2.920
 9610TIP3    H228772   5.932   8.019   2.955
 9611TIP3   OH228773   4.568   8.289   2.379
 9611TIP3    H128774   4.615   8.373   2.385
 9611TIP3    H228775   4.624   8.242   2.313
 9612TIP3   OH228776   4.518   7.569   2.510
 9612TIP3    H128777   4.516   7.667   2.505
 9612TIP3    H228778   4.432   7.545   2.474
 9613TIP3   OH228779   5.745   8.898   3.604
 9613TIP3    H128780   5.688   8.851   3.669
 9613TIP3    H228781   5.822   8.910   3.660
 9614TIP3   OH228782   4.734   8.436   4.030
 9614TIP3    H128783   4.754   8.340   4.034
 9614TIP3    H228784   4.644   8.435   3.990
 9615TIP3   OH228785   4.707   8.107   2.228
 9615TIP3    H128786   4.759   8.069   2.301
 9615TIP3    H228787   4.775   8.106   2.157
 9616TIP3   OH228788   5.347   8.529   3.820
 9616TIP3    H128789   5.306   8.550   3.732
 9616TIP3    H228790   5.373   8.435   3.808
 9617TIP3   OH228791   5.210   8.301   2.028
 9617TIP3    H128792   5.211   8.315   2.124
 9617TIP3    H228793   5.209   8.203   2.023
 9618TIP3   OH228794   5.835   8.534   3.414
 9618TIP3    H128795   5.904   8.586   3.368
 9618TIP3    H228796   5.759   8.595   3.411
 9619TIP3   OH228797   4.850   8.185   4.019
 9619TIP3    H128798   4.924   8.127   3.996
 9619TIP3    H228799   4.877   8.218   4.107
 9620TIP3   OH228800   4.920   8.008   2.456
 9620TIP3    H128801   4.890   7.964   2.537
 9620TIP3    H228802   4.953   7.933   2.403
 9621TIP3   OH228803   5.183   8.074   3.683
 9621TIP3    H128804   5.105   8.133   3.681
 9621TIP3    H228805   5.233   8.104   3.604
 9622TIP3   OH228806   5.014   7.802   2.293
 9622TIP3    H128807   4.989   7.804   2.199
 9622TIP3    H228808   5.112   7.805   2.287
 9623TIP3   OH228809   5.704   8.474   3.816
 9623TIP3    H128810   5.784   8.449   3.768
 9623TIP3    H228811   5.698   8.404   3.883
 9624TIP3   OH228812   5.832   8.135   1.944
 9624TIP3    H128813   5.845   8.073   1.871
 9624TIP3    H228814   5.805   8.216   1.898
 9625TIP3   OH228815   5.306   7.859   3.808
 9625TIP3    H128816   5.307   7.779   3.752
 9625TIP3    H228817   5.262   7.924   3.749
 9626TIP3   OH228818   5.319   7.653   3.612
 9626TIP3    H128819   5.340   7.682   3.522
 9626TIP3    H228820   5.223   7.629   3.602
 9627TIP3   OH228821   5.336   8.182   3.487
 9627TIP3    H128822   5.420   8.188   3.439
 9627TIP3    H228823   5.284   8.254   3.447
 9628TIP3   OH228824   5.921   8.150   3.871
 9628TIP3    H128825   5.967   8.065   3.880
 9628TIP3    H228826   5.992   8.206   3.836
 9629TIP3   OH228827   5.960   8.403   3.611
 9629TIP3    H128828   5.903   8.452   3.547
 9629TIP3    H228829   6.048   8.418   3.569
 9630TIP3   OH228830   5.183   7.976   4.036
 9630TIP3    H128831   5.116   7.905   4.050
 9630TIP3    H228832   5.218   7.951   3.949
 9631TIP3   OH228833   5.437   7.415   3.679
 9631TIP3    H128834   5.396   7.502   3.659
 9631TIP3    H228835   5.371   7.355   3.641
 9632TIP3   OH228836   5.567   7.918   3.897
 9632TIP3    H128837   5.556   7.903   3.993
 9632TIP3    H228838   5.477   7.891   3.867
 9633TIP3   OH228839   5.807   7.869   3.753
 9633TIP3    H128840   5.733   7.865   3.816
 9633TIP3    H228841   5.882   7.836   3.807
 9634TIP3   OH228842   6.030   7.805   3.902
 9634TIP3    H128843   6.048   7.710   3.918
 9634TIP3    H228844   6.034   7.843   3.992
 9635TIP3   OH228845   5.024   7.757   4.090
 9635TIP3    H128846   5.027   7.667   4.051
 9635TIP3    H228847   5.060   7.739   4.179
 9636TIP3   OH228848   5.536   7.420   3.937
 9636TIP3    H128849   5.605   7.351   3.929
 9636TIP3    H228850   5.494   7.414   3.848
 9637TIP3   OH228851   5.602   7.634   4.099
 9637TIP3    H128852   5.581   7.564   4.034
 9637TIP3    H228853   5.525   7.694   4.090
 9638TIP3   OH228854   4.300   8.230   2.394
 9638TIP3    H128855   4.394   8.259   2.395
 9638TIP3    H228856   4.305   8.140   2.357
 9639TIP3   OH228857   6.160   8.825   3.647
 9639TIP3    H128858   6.089   8.811   3.715
 9639TIP3    H228859   6.213   8.894   3.689
 9640TIP3   OH228860   5.969   8.322   2.290
 9640TIP3    H128861   6.038   8.384   2.259
 9640TIP3    H228862   6.014   8.282   2.368
 9641TIP3   OH228863   6.096   8.190   2.491
 9641TIP3    H128864   6.035   8.146   2.554
 9641TIP3    H228865   6.167   8.223   2.550
 9642TIP3   OH228866   6.152   8.570   2.927
 9642TIP3    H128867   6.206   8.509   2.873
 9642TIP3    H228868   6.151   8.650   2.870
 9643TIP3   OH228869   6.036   8.096   2.137
 9643TIP3    H128870   5.963   8.097   2.071
 9643TIP3    H228871   6.008   8.172   2.193
 9644TIP3   OH228872   5.904   7.776   2.092
 9644TIP3    H128873   5.897   7.804   2.000
 9644TIP3    H228874   5.879   7.681   2.086
 9645TIP3   OH228875   5.913   8.043   2.640
 9645TIP3    H128876   5.923   7.947   2.634
 9645TIP3    H228877   5.901   8.056   2.737
 9646TIP3   OH228878   4.541   8.116   3.386
 9646TIP3    H128879   4.540   8.090   3.292
 9646TIP3    H228880   4.638   8.120   3.403
 9647TIP3   OH228881   6.201   8.462   3.499
 9647TIP3    H128882   6.273   8.396   3.492
 9647TIP3    H228883   6.233   8.532   3.440
 9648TIP3   OH228884   6.393   8.276   3.515
 9648TIP3    H128885   6.317   8.225   3.552
 9648TIP3    H228886   6.464   8.211   3.529
 9649TIP3   OH228887   5.853   7.509   2.088
 9649TIP3    H128888   5.930   7.474   2.136
 9649TIP3    H228889   5.783   7.444   2.105
 9650TIP3   OH228890   5.910   7.759   2.535
 9650TIP3    H128891   5.949   7.670   2.551
 9650TIP3    H228892   5.970   7.790   2.464
 9651TIP3   OH228893   6.072   7.937   3.028
 9651TIP3    H128894   6.159   7.962   2.989
 9651TIP3    H228895   6.086   7.971   3.119
 9652TIP3   OH228896   6.141   8.078   3.260
 9652TIP3    H128897   6.062   8.111   3.309
 9652TIP3    H228898   6.173   8.160   3.217
 9653TIP3   OH228899   4.757   7.807   4.066
 9653TIP3    H128900   4.855   7.798   4.059
 9653TIP3    H228901   4.734   7.720   4.104
 9654TIP3   OH228902   6.603   7.683   3.821
 9654TIP3    H128903   6.651   7.603   3.793
 9654TIP3    H228904   6.569   7.719   3.737
 9655TIP3   OH228905   6.018   7.510   2.572
 9655TIP3    H128906   6.068   7.495   2.655
 9655TIP3    H228907   5.958   7.433   2.572
 9656TIP3   OH228908   4.725   7.490   3.393
 9656TIP3    H128909   4.785   7.415   3.400
 9656TIP3    H228910   4.788   7.564   3.383
 9657TIP3   OH228911   4.522   7.772   3.463
 9657TIP3    H128912   4.572   7.762   3.380
 9657TIP3    H228913   4.557   7.856   3.495
 9658TIP3   OH228914   6.467   7.812   3.614
 9658TIP3    H128915   6.382   7.842   3.651
 9658TIP3    H228916   6.438   7.733   3.566
 9659TIP3   OH228917   6.102   7.446   2.204
 9659TIP3    H128918   6.142   7.372   2.153
 9659TIP3    H228919   6.171   7.515   2.198
 9660TIP3   OH228920   4.501   7.273   2.964
 9660TIP3    H128921   4.407   7.273   2.989
 9660TIP3    H228922   4.502   7.332   2.886
 9661TIP3   OH228923   4.727   7.374   3.788
 9661TIP3    H128924   4.674   7.351   3.865
 9661TIP3    H228925   4.658   7.392   3.721
 9662TIP3   OH228926   4.808   8.767   3.867
 9662TIP3    H128927   4.798   8.686   3.815
 9662TIP3    H228928   4.804   8.736   3.959
 9663TIP3   OH228929   6.367   7.570   3.498
 9663TIP3    H128930   6.273   7.562   3.475
 9663TIP3    H228931   6.396   7.476   3.489
 9664TIP3   OH228932   5.563   7.485   3.117
 9664TIP3    H128933   5.519   7.420   3.175
 9664TIP3    H228934   5.636   7.433   3.079
 9665TIP3   OH228935   6.092   7.366   3.025
 9665TIP3    H128936   6.128   7.418   2.950
 9665TIP3    H228937   5.997   7.382   3.019
 9666TIP3   OH228938   6.185   7.469   2.788
 9666TIP3    H128939   6.259   7.417   2.749
 9666TIP3    H228940   6.219   7.560   2.774
 9667TIP3   OH228941   4.808   7.204   3.109
 9667TIP3    H128942   4.724   7.159   3.131
 9667TIP3    H228943   4.873   7.136   3.137
 9668TIP3   OH228944   4.589   7.066   2.777
 9668TIP3    H128945   4.630   7.125   2.712
 9668TIP3    H228946   4.574   7.127   2.852
 9669TIP3   OH228947   5.253   7.227   3.012
 9669TIP3    H128948   5.322   7.283   2.974
 9669TIP3    H228949   5.248   7.258   3.103
 9670TIP3   OH228950   5.810   7.375   3.000
 9670TIP3    H128951   5.803   7.336   2.912
 9670TIP3    H228952   5.795   7.296   3.057
 9671TIP3   OH228953   5.835   7.296   2.562
 9671TIP3    H128954   5.748   7.337   2.574
 9671TIP3    H228955   5.822   7.211   2.611
 9672TIP3   OH228956   4.719   7.228   2.544
 9672TIP3    H128957   4.769   7.164   2.492
 9672TIP3    H228958   4.791   7.282   2.583
 9673TIP3   OH228959   5.233   7.399   2.646
 9673TIP3    H128960   5.289   7.350   2.710
 9673TIP3    H228961   5.257   7.491   2.673
 9674TIP3   OH228962   5.021   7.479   4.031
 9674TIP3    H128963   4.990   7.405   4.085
 9674TIP3    H228964   5.117   7.478   4.054
 9675TIP3   OH228965   5.273   7.475   4.149
 9675TIP3    H128966   5.356   7.451   4.104
 9675TIP3    H228967   5.263   7.402   4.212
 9676TIP3   OH228968   6.092   7.536   3.939
 9676TIP3    H128969   6.121   7.498   4.024
 9676TIP3    H228970   6.177   7.543   3.890
 9677TIP3   OH228971   6.619   8.350   2.926
 9677TIP3    H128972   6.641   8.291   3.001
 9677TIP3    H228973   6.672   8.428   2.944
 9678TIP3   OH228974   6.279   7.965   2.450
 9678TIP3    H128975   6.236   8.051   2.464
 9678TIP3    H228976   6.205   7.913   2.414
 9679TIP3   OH228977   6.335   8.251   2.613
 9679TIP3    H128978   6.387   8.178   2.653
 9679TIP3    H228979   6.403   8.296   2.560
 9680TIP3   OH228980   6.853   7.840   2.620
 9680TIP3    H128981   6.827   7.914   2.561
 9680TIP3    H228982   6.803   7.767   2.577
 9681TIP3   OH228983   6.484   8.049   2.726
 9681TIP3    H128984   6.567   8.028   2.773
 9681TIP3    H228985   6.496   7.994   2.646
 9682TIP3   OH228986   0.301   1.647   5.750
 9682TIP3    H128987   0.330   1.641   5.842
 9682TIP3    H228988   0.240   1.571   5.742
 9683TIP3   OH228989   6.843   7.828   3.053
 9683TIP3    H128990   6.782   7.864   2.987
 9683TIP3    H228991   6.791   7.842   3.135
 9684TIP3   OH228992   6.720   7.945   2.836
 9684TIP3    H128993   6.786   8.013   2.860
 9684TIP3    H228994   6.766   7.901   2.762
 9685TIP3   OH228995   6.171   8.483   2.174
 9685TIP3    H128996   6.121   8.523   2.101
 9685TIP3    H228997   6.201   8.566   2.215
 9686TIP3   OH228998   7.198   7.549   2.764
 9686TIP3    H128999   7.185   7.454   2.783
 9686TIP3    H229000   7.121   7.587   2.812
 9687TIP3   OH229001   6.682   8.399   2.418
 9687TIP3    H129002   6.637   8.349   2.348
 9687TIP3    H229003   6.775   8.380   2.395
 9688TIP3   OH229004   6.745   8.482   3.180
 9688TIP3    H129005   6.743   8.560   3.240
 9688TIP3    H229006   6.654   8.449   3.194
 9689TIP3   OH229007   6.555   8.230   2.233
 9689TIP3    H129008   6.512   8.271   2.156
 9689TIP3    H229009   6.528   8.139   2.224
 9690TIP3   OH229010   6.366   8.613   3.122
 9690TIP3    H129011   6.298   8.597   3.053
 9690TIP3    H229012   6.396   8.523   3.144
 9691TIP3   OH229013   6.215   8.789   2.780
 9691TIP3    H129014   6.311   8.800   2.774
 9691TIP3    H229015   6.186   8.875   2.816
 9692TIP3   OH229016   6.554   8.816   3.147
 9692TIP3    H129017   6.630   8.768   3.184
 9692TIP3    H229018   6.493   8.744   3.119
 9693TIP3   OH229019   6.965   7.627   2.894
 9693TIP3    H129020   6.876   7.594   2.869
 9693TIP3    H229021   6.939   7.707   2.942
 9694TIP3   OH229022   7.510   7.733   3.092
 9694TIP3    H129023   7.558   7.695   3.169
 9694TIP3    H229024   7.417   7.729   3.123
 9695TIP3   OH229025   7.075   7.677   1.824
 9695TIP3    H129026   7.128   7.693   1.904
 9695TIP3    H229027   7.048   7.584   1.835
 9696TIP3   OH229028   6.890   8.147   2.922
 9696TIP3    H129029   6.826   8.168   2.994
 9696TIP3    H229030   6.869   8.210   2.852
 9697TIP3   OH229031   6.783   8.022   2.433
 9697TIP3    H129032   6.688   8.000   2.447
 9697TIP3    H229033   6.797   7.986   2.343
 9698TIP3   OH229034   6.713   8.171   3.130
 9698TIP3    H129035   6.719   8.222   3.212
 9698TIP3    H229036   6.702   8.081   3.167
 9699TIP3   OH229037   6.750   7.630   1.832
 9699TIP3    H129038   6.762   7.638   1.929
 9699TIP3    H229039   6.674   7.688   1.817
 9700TIP3   OH229040   6.309   7.693   2.704
 9700TIP3    H129041   6.385   7.723   2.757
 9700TIP3    H229042   6.350   7.659   2.623
 9701TIP3   OH229043   6.285   7.673   2.222
 9701TIP3    H129044   6.332   7.710   2.145
 9701TIP3    H229045   6.224   7.747   2.242
 9702TIP3   OH229046   7.123   7.846   2.506
 9702TIP3    H129047   7.029   7.835   2.528
 9702TIP3    H229048   7.161   7.858   2.595
 9703TIP3   OH229049   6.541   7.901   2.502
 9703TIP3    H129050   6.446   7.911   2.474
 9703TIP3    H229051   6.562   7.810   2.477
 9704TIP3   OH229052   6.828   7.910   2.178
 9704TIP3    H129053   6.900   7.956   2.133
 9704TIP3    H229054   6.755   7.921   2.113
 9705TIP3   OH229055   6.623   7.931   1.992
 9705TIP3    H129056   6.562   7.886   1.931
 9705TIP3    H229057   6.691   7.963   1.929
 9706TIP3   OH229058   6.738   8.709   3.333
 9706TIP3    H129059   6.796   8.758   3.393
 9706TIP3    H229060   6.659   8.701   3.390
 9707TIP3   OH229061   6.717   7.664   2.463
 9707TIP3    H129062   6.682   7.585   2.510
 9707TIP3    H229063   6.768   7.624   2.391
 9708TIP3   OH229064   7.160   8.069   2.928
 9708TIP3    H129065   7.066   8.084   2.902
 9708TIP3    H229066   7.207   8.088   2.846
 9709TIP3   OH229067   6.558   8.459   2.654
 9709TIP3    H129068   6.601   8.452   2.566
 9709TIP3    H229069   6.628   8.425   2.711
 9710TIP3   OH229070   6.486   8.397   3.259
 9710TIP3    H129071   6.495   8.386   3.355
 9710TIP3    H229072   6.410   8.339   3.240
 9711TIP3   OH229073   6.258   8.092   1.975
 9711TIP3    H129074   6.303   8.177   1.995
 9711TIP3    H229075   6.182   8.096   2.037
 9712TIP3   OH229076   6.688   7.913   3.269
 9712TIP3    H129077   6.591   7.915   3.286
 9712TIP3    H229078   6.718   7.854   3.340
 9713TIP3   OH229079   6.377   8.342   2.045
 9713TIP3    H129080   6.312   8.383   2.106
 9713TIP3    H229081   6.432   8.419   2.021
 9714TIP3   OH229082   7.237   7.644   2.329
 9714TIP3    H129083   7.206   7.723   2.377
 9714TIP3    H229084   7.321   7.675   2.290
 9715TIP3   OH229085   6.747   7.631   2.108
 9715TIP3    H129086   6.752   7.721   2.144
 9715TIP3    H229087   6.841   7.605   2.120
 9716TIP3   OH229088   6.311   7.824   1.991
 9716TIP3    H129089   6.311   7.921   1.992
 9716TIP3    H229090   6.222   7.804   1.960
 9717TIP3   OH229091   6.700   7.546   2.872
 9717TIP3    H129092   6.669   7.511   2.786
 9717TIP3    H229093   6.691   7.468   2.931
 9718TIP3   OH229094   6.532   8.690   3.511
 9718TIP3    H129095   6.549   8.594   3.521
 9718TIP3    H229096   6.441   8.691   3.476
 9719TIP3   OH229097   6.652   8.441   3.503
 9719TIP3    H129098   6.713   8.367   3.497
 9719TIP3    H229099   6.673   8.475   3.593
 9720TIP3   OH229100   6.987   8.302   3.167
 9720TIP3    H129101   6.909   8.347   3.201
 9720TIP3    H229102   6.982   8.320   3.072
 9721TIP3   OH229103   7.098   8.100   3.306
 9721TIP3    H129104   7.097   8.017   3.254
 9721TIP3    H229105   7.059   8.164   3.243
 9722TIP3   OH229106   7.098   7.888   3.128
 9722TIP3    H129107   7.125   7.949   3.055
 9722TIP3    H229108   7.006   7.866   3.103
 9723TIP3   OH229109   6.977   8.239   3.515
 9723TIP3    H129110   6.911   8.170   3.540
 9723TIP3    H229111   7.019   8.196   3.438
 9724TIP3   OH229112   7.247   7.660   3.153
 9724TIP3    H129113   7.191   7.740   3.149
 9724TIP3    H229114   7.178   7.590   3.150
 9725TIP3   OH229115   7.348   8.198   3.383
 9725TIP3    H129116   7.380   8.159   3.467
 9725TIP3    H229117   7.264   8.148   3.370
 9726TIP3   OH229118   6.826   8.014   3.572
 9726TIP3    H129119   6.827   7.922   3.540
 9726TIP3    H229120   6.861   8.000   3.663
 9727TIP3   OH229121   7.334   7.678   3.413
 9727TIP3    H129122   7.397   7.603   3.419
 9727TIP3    H229123   7.296   7.664   3.325
 9728TIP3   OH229124   7.386   7.881   3.589
 9728TIP3    H129125   7.366   7.813   3.521
 9728TIP3    H229126   7.312   7.944   3.579
 9729TIP3   OH229127   6.088   8.487   1.862
 9729TIP3    H129128   6.174   8.510   1.899
 9729TIP3    H229129   6.096   8.393   1.838
 9730TIP3   OH229130   6.343   8.369   2.872
 9730TIP3    H129131   6.335   8.347   2.777
 9730TIP3    H229132   6.441   8.373   2.879
 9731TIP3   OH229133   6.560   8.068   3.553
 9731TIP3    H129134   6.657   8.054   3.553
 9731TIP3    H229135   6.530   7.980   3.585
 9732TIP3   OH229136   6.515   7.754   2.878
 9732TIP3    H129137   6.576   7.678   2.888
 9732TIP3    H229138   6.579   7.828   2.872
 9733TIP3   OH229139   6.319   8.029   2.951
 9733TIP3    H129140   6.367   8.019   2.866
 9733TIP3    H229141   6.349   8.116   2.979
 9734TIP3   OH229142   6.302   7.533   2.452
 9734TIP3    H129143   6.208   7.528   2.478
 9734TIP3    H229144   6.299   7.590   2.373
 9735TIP3   OH229145   6.524   7.614   3.265
 9735TIP3    H129146   6.475   7.604   3.349
 9735TIP3    H229147   6.453   7.648   3.207
 9736TIP3   OH229148   6.610   9.004   3.364
 9736TIP3    H129149   6.574   8.933   3.308
 9736TIP3    H229150   6.568   8.990   3.451
 9737TIP3   OH229151   7.383   7.719   2.617
 9737TIP3    H129152   7.322   7.663   2.667
 9737TIP3    H229153   7.396   7.668   2.536
 9738TIP3   OH229154   6.612   7.453   2.623
 9738TIP3    H129155   6.520   7.420   2.626
 9738TIP3    H229156   6.661   7.368   2.620
 9739TIP3   OH229157   6.395   7.321   2.269
 9739TIP3    H129158   6.428   7.379   2.198
 9739TIP3    H229159   6.369   7.386   2.338
 9740TIP3   OH229160   7.052   7.483   2.505
 9740TIP3    H129161   7.108   7.532   2.443
 9740TIP3    H229162   7.075   7.524   2.590
 9741TIP3   OH229163   6.515   7.483   2.033
 9741TIP3    H129164   6.564   7.419   1.977
 9741TIP3    H229165   6.588   7.536   2.069
 9742TIP3   OH229166   7.014   7.645   2.156
 9742TIP3    H129167   7.096   7.611   2.196
 9742TIP3    H229168   7.034   7.739   2.149
 9743TIP3   OH229169   6.820   7.737   3.514
 9743TIP3    H129170   6.782   7.666   3.568
 9743TIP3    H229171   6.913   7.734   3.544
 9744TIP3   OH229172   7.069   7.730   3.633
 9744TIP3    H129173   7.155   7.702   3.600
 9744TIP3    H229174   7.052   7.662   3.702
 9745TIP3   OH229175   2.256   0.923   7.528
 9745TIP3    H129176   2.246   0.858   7.598
 9745TIP3    H229177   2.285   1.002   7.579
 9746TIP3   OH229178   1.904   1.384   7.553
 9746TIP3    H129179   1.952   1.317   7.500
 9746TIP3    H229180   1.886   1.335   7.634
 9747TIP3   OH229181   1.920   0.870   7.313
 9747TIP3    H129182   1.863   0.792   7.313
 9747TIP3    H229183   1.861   0.933   7.356
 9748TIP3   OH229184   2.298   1.139   7.684
 9748TIP3    H129185   2.257   1.149   7.770
 9748TIP3    H229186   2.318   1.231   7.657
 9749TIP3   OH229187   2.031   1.212   7.382
 9749TIP3    H129188   2.081   1.128   7.366
 9749TIP3    H229189   2.096   1.275   7.341
 9750TIP3   OH229190   2.178   1.001   7.280
 9750TIP3    H129191   2.109   0.935   7.260
 9750TIP3    H229192   2.215   0.965   7.363
 9751TIP3   OH229193   2.225   0.596   7.275
 9751TIP3    H129194   2.164   0.558   7.341
 9751TIP3    H229195   2.304   0.542   7.291
 9752TIP3   OH229196   1.759   1.128   7.380
 9752TIP3    H129197   1.852   1.154   7.390
 9752TIP3    H229198   1.724   1.195   7.319
 9753TIP3   OH229199   2.346   1.020   6.696
 9753TIP3    H129200   2.355   1.118   6.686
 9753TIP3    H229201   2.439   0.992   6.687
 9754TIP3   OH229202   1.660   1.339   7.187
 9754TIP3    H129203   1.603   1.322   7.109
 9754TIP3    H229204   1.632   1.430   7.211
 9755TIP3   OH229205   1.852   1.228   6.823
 9755TIP3    H129206   1.919   1.167   6.786
 9755TIP3    H229207   1.889   1.246   6.912
 9756TIP3   OH229208   1.908   1.285   7.090
 9756TIP3    H129209   1.821   1.301   7.132
 9756TIP3    H229210   1.956   1.239   7.160
 9757TIP3   OH229211   2.100   0.509   6.831
 9757TIP3    H129212   2.069   0.450   6.761
 9757TIP3    H229213   2.195   0.515   6.813
 9758TIP3   OH229214   2.602   0.275   7.045
 9758TIP3    H129215   2.540   0.221   6.992
 9758TIP3    H229216   2.585   0.362   7.003
 9759TIP3   OH229217   2.281   1.092   6.963
 9759TIP3    H129218   2.259   1.026   7.030
 9759TIP3    H229219   2.297   1.039   6.883
 9760TIP3   OH229220   2.037   0.823   6.862
 9760TIP3    H129221   2.103   0.803   6.933
 9760TIP3    H229222   1.965   0.768   6.893
 9761TIP3   OH229223   2.380   1.296   6.687
 9761TIP3    H129224   2.421   1.370   6.637
 9761TIP3    H229225   2.299   1.342   6.718
 9762TIP3   OH229226   2.210   0.767   7.062
 9762TIP3    H129227   2.205   0.709   7.140
 9762TIP3    H229228   2.307   0.766   7.050
 9763TIP3   OH229229   1.609   1.016   7.064
 9763TIP3    H129230   1.565   1.016   7.150
 9763TIP3    H229231   1.629   1.109   7.052
 9764TIP3   OH229232   2.340   1.403   7.601
 9764TIP3    H129233   2.293   1.453   7.532
 9764TIP3    H229234   2.432   1.431   7.582
 9765TIP3   OH229235   1.624   1.029   6.754
 9765TIP3    H129236   1.682   1.042   6.831
 9765TIP3    H229237   1.684   0.982   6.693
 9766TIP3   OH229238   2.007   1.045   6.686
 9766TIP3    H129239   2.052   0.986   6.749
 9766TIP3    H229240   2.069   1.047   6.611
 9767TIP3   OH229241   2.352   0.548   6.710
 9767TIP3    H129242   2.315   0.503   6.631
 9767TIP3    H229243   2.315   0.638   6.696
 9768TIP3   OH229244   1.330   1.352   6.983
 9768TIP3    H129245   1.413   1.305   6.969
 9768TIP3    H229246   1.304   1.370   6.891
 9769TIP3   OH229247   2.580   1.539   7.582
 9769TIP3    H129248   2.630   1.561   7.661
 9769TIP3    H229249   2.647   1.548   7.512
 9770TIP3   OH229250   2.483   0.741   7.053
 9770TIP3    H129251   2.555   0.803   7.030
 9770TIP3    H229252   2.518   0.701   7.136
 9771TIP3   OH229253   2.607   0.607   7.257
 9771TIP3    H129254   2.543   0.560   7.314
 9771TIP3    H229255   2.669   0.647   7.321
 9772TIP3   OH229256   2.649   1.001   7.691
 9772TIP3    H129257   2.710   0.930   7.665
 9772TIP3    H229258   2.650   1.060   7.614
 9773TIP3   OH229259   2.545   0.514   6.905
 9773TIP3    H129260   2.475   0.521   6.836
 9773TIP3    H229261   2.518   0.588   6.964
 9774TIP3   OH229262   2.427   0.171   6.847
 9774TIP3    H129263   2.371   0.241   6.813
 9774TIP3    H229264   2.363   0.103   6.870
 9775TIP3   OH229265   2.431   0.452   7.407
 9775TIP3    H129266   2.432   0.356   7.405
 9775TIP3    H229267   2.431   0.472   7.501
 9776TIP3   OH229268   2.176   1.395   7.243
 9776TIP3    H129269   2.216   1.373   7.156
 9776TIP3    H229270   2.235   1.467   7.270
 9777TIP3   OH229271   2.285   1.629   7.747
 9777TIP3    H129272   2.258   1.662   7.660
 9777TIP3    H229273   2.324   1.544   7.718
 9778TIP3   OH229274   1.591   1.263   6.919
 9778TIP3    H129275   1.681   1.274   6.881
 9778TIP3    H229276   1.551   1.206   6.851
 9779TIP3   OH229277   2.312   1.358   7.007
 9779TIP3    H129278   2.306   1.260   6.994
 9779TIP3    H229279   2.271   1.391   6.925
 9780TIP3   OH229280   3.808   0.875   6.971
 9780TIP3    H129281   3.784   0.966   6.942
 9780TIP3    H229282   3.734   0.826   6.931
 9781TIP3   OH229283   3.111   0.782   7.701
 9781TIP3    H129284   3.126   0.726   7.778
 9781TIP3    H229285   3.199   0.813   7.678
 9782TIP3   OH229286   4.047   1.182   7.020
 9782TIP3    H129287   4.048   1.114   7.088
 9782TIP3    H229288   4.078   1.261   7.068
 9783TIP3   OH229289   3.081   1.181   7.452
 9783TIP3    H129290   3.073   1.083   7.447
 9783TIP3    H229291   3.174   1.188   7.423
 9784TIP3   OH229292   2.783   0.387   7.225
 9784TIP3    H129293   2.731   0.468   7.236
 9784TIP3    H229294   2.720   0.332   7.174
 9785TIP3   OH229295   2.845   0.675   7.383
 9785TIP3    H129296   2.888   0.596   7.422
 9785TIP3    H229297   2.904   0.695   7.309
 9786TIP3   OH229298   3.720   1.642   7.047
 9786TIP3    H129299   3.747   1.567   6.990
 9786TIP3    H229300   3.645   1.603   7.093
 9787TIP3   OH229301   3.617   1.081   7.404
 9787TIP3    H129302   3.622   1.058   7.311
 9787TIP3    H229303   3.706   1.120   7.420
 9788TIP3   OH229304   3.962   0.625   7.436
 9788TIP3    H129305   4.028   0.552   7.447
 9788TIP3    H229306   3.953   0.623   7.337
 9789TIP3   OH229307   3.298   0.269   7.430
 9789TIP3    H129308   3.301   0.341   7.364
 9789TIP3    H229309   3.337   0.197   7.379
 9790TIP3   OH229310   4.023   0.369   7.046
 9790TIP3    H129311   4.095   0.314   7.080
 9790TIP3    H229312   4.056   0.393   6.958
 9791TIP3   OH229313   2.980   0.467   7.487
 9791TIP3    H129314   3.056   0.457   7.550
 9791TIP3    H229315   3.006   0.403   7.418
 9792TIP3   OH229316   3.425   0.658   7.280
 9792TIP3    H129317   3.509   0.621   7.306
 9792TIP3    H229318   3.377   0.577   7.252
 9793TIP3   OH229319   4.680   0.631   7.508
 9793TIP3    H129320   4.593   0.674   7.509
 9793TIP3    H229321   4.693   0.613   7.602
 9794TIP3   OH229322   3.713   1.090   6.826
 9794TIP3    H129323   3.659   1.075   6.747
 9794TIP3    H229324   3.683   1.177   6.856
 9795TIP3   OH229325   3.463   1.025   7.634
 9795TIP3    H129326   3.397   1.094   7.661
 9795TIP3    H229327   3.499   1.063   7.551
 9796TIP3   OH229328   3.195   0.414   7.636
 9796TIP3    H129329   3.283   0.455   7.646
 9796TIP3    H229330   3.222   0.334   7.585
 9797TIP3   OH229331   3.281   1.210   7.735
 9797TIP3    H129332   3.255   1.286   7.679
 9797TIP3    H229333   3.197   1.189   7.779
 9798TIP3   OH229334   2.689   0.905   6.951
 9798TIP3    H129335   2.643   0.935   6.871
 9798TIP3    H229336   2.718   0.990   6.991
 9799TIP3   OH229337   4.125   1.417   7.185
 9799TIP3    H129338   4.038   1.412   7.230
 9799TIP3    H229339   4.118   1.506   7.143
 9800TIP3   OH229340   3.830   1.460   6.858
 9800TIP3    H129341   3.883   1.382   6.834
 9800TIP3    H229342   3.888   1.532   6.826
 9801TIP3   OH229343   3.978   1.245   6.761
 9801TIP3    H129344   3.924   1.169   6.734
 9801TIP3    H229345   4.008   1.216   6.850
 9802TIP3   OH229346   4.346   1.336   7.539
 9802TIP3    H129347   4.342   1.260   7.477
 9802TIP3    H229348   4.330   1.411   7.477
 9803TIP3   OH229349   3.643   0.732   6.792
 9803TIP3    H129350   3.561   0.782   6.774
 9803TIP3    H229351   3.685   0.729   6.704
 9804TIP3   OH229352   3.598   0.511   6.519
 9804TIP3    H129353   3.667   0.565   6.563
 9804TIP3    H229354   3.654   0.457   6.460
 9805TIP3   OH229355   4.541   0.969   7.380
 9805TIP3    H129356   4.463   1.027   7.382
 9805TIP3    H229357   4.576   0.989   7.290
 9806TIP3   OH229358   3.985   0.811   6.767
 9806TIP3    H129359   3.933   0.836   6.847
 9806TIP3    H229360   4.071   0.790   6.809
 9807TIP3   OH229361   4.213   0.861   7.660
 9807TIP3    H129362   4.219   0.930   7.729
 9807TIP3    H229363   4.157   0.905   7.595
 9808TIP3   OH229364   3.216   0.808   7.179
 9808TIP3    H129365   3.174   0.752   7.111
 9808TIP3    H229366   3.296   0.757   7.203
 9809TIP3   OH229367   3.333   1.173   7.341
 9809TIP3    H129368   3.309   1.191   7.249
 9809TIP3    H229369   3.425   1.202   7.345
 9810TIP3   OH229370   3.362   0.790   7.537
 9810TIP3    H129371   3.375   0.777   7.442
 9810TIP3    H229372   3.397   0.880   7.552
 9811TIP3   OH229373   3.895   1.414   7.322
 9811TIP3    H129374   3.861   1.500   7.352
 9811TIP3    H229375   3.858   1.350   7.385
 9812TIP3   OH229376   3.504   1.347   7.844
 9812TIP3    H129377   3.443   1.413   7.882
 9812TIP3    H229378   3.440   1.282   7.810
 9813TIP3   OH229379   3.832   0.664   6.590
 9813TIP3    H129380   3.887   0.727   6.643
 9813TIP3    H229381   3.858   0.689   6.498
 9814TIP3   OH229382   3.298   1.513   7.909
 9814TIP3    H129383   3.283   1.526   7.813
 9814TIP3    H229384   3.219   1.465   7.934
 9815TIP3   OH229385   3.088   0.646   6.984
 9815TIP3    H129386   3.025   0.697   6.929
 9815TIP3    H229387   3.037   0.565   7.000
 9816TIP3   OH229388   4.135   1.281   6.181
 9816TIP3    H129389   4.139   1.379   6.168
 9816TIP3    H229390   4.218   1.251   6.142
 9817TIP3   OH229391   2.723   1.237   7.513
 9817TIP3    H129392   2.815   1.210   7.508
 9817TIP3    H229393   2.725   1.305   7.582
 9818TIP3   OH229394   4.588   1.677   7.583
 9818TIP3    H129395   4.586   1.581   7.594
 9818TIP3    H229396   4.504   1.703   7.627
 9819TIP3   OH229397   3.705   1.464   7.713
 9819TIP3    H129398   3.695   1.558   7.742
 9819TIP3    H229399   3.629   1.423   7.760
 9820TIP3   OH229400   3.465   1.615   6.644
 9820TIP3    H129401   3.398   1.590   6.578
 9820TIP3    H229402   3.424   1.690   6.691
 9821TIP3   OH229403   2.884   1.445   7.055
 9821TIP3    H129404   2.937   1.434   7.137
 9821TIP3    H229405   2.828   1.366   7.061
 9822TIP3   OH229406   3.652   1.496   6.309
 9822TIP3    H129407   3.713   1.427   6.274
 9822TIP3    H229408   3.684   1.506   6.401
 9823TIP3   OH229409   3.711   1.535   6.579
 9823TIP3    H129410   3.620   1.557   6.610
 9823TIP3    H229411   3.752   1.509   6.663
 9824TIP3   OH229412   4.480   0.791   7.863
 9824TIP3    H129413   4.413   0.843   7.816
 9824TIP3    H229414   4.475   0.704   7.818
 9825TIP3   OH229415   4.262   0.621   7.782
 9825TIP3    H129416   4.257   0.658   7.870
 9825TIP3    H229417   4.253   0.700   7.725
 9826TIP3   OH229418   3.908   0.712   6.335
 9826TIP3    H129419   3.870   0.689   6.248
 9826TIP3    H229420   3.983   0.769   6.309
 9827TIP3   OH229421   3.428   0.555   7.655
 9827TIP3    H129422   3.416   0.550   7.752
 9827TIP3    H229423   3.393   0.646   7.630
 9828TIP3   OH229424   3.291   0.435   7.196
 9828TIP3    H129425   3.197   0.416   7.214
 9828TIP3    H229426   3.295   0.414   7.100
 9829TIP3   OH229427   3.775   0.532   6.923
 9829TIP3    H129428   3.724   0.604   6.880
 9829TIP3    H229429   3.833   0.503   6.849
 9830TIP3   OH229430   3.934   0.593   7.165
 9830TIP3    H129431   3.868   0.616   7.097
 9830TIP3    H229432   3.960   0.504   7.131
 9831TIP3   OH229433   2.850   0.140   7.034
 9831TIP3    H129434   2.860   0.152   6.937
 9831TIP3    H229435   2.760   0.178   7.043
 9832TIP3   OH229436   3.042   0.322   7.246
 9832TIP3    H129437   2.949   0.353   7.235
 9832TIP3    H229438   3.027   0.228   7.232
 9833TIP3   OH229439   3.335   0.322   6.947
 9833TIP3    H129440   3.424   0.339   6.911
 9833TIP3    H229441   3.275   0.338   6.870
 9834TIP3   OH229442   3.162   0.342   6.736
 9834TIP3    H129443   3.084   0.305   6.692
 9834TIP3    H229444   3.209   0.380   6.659
 9835TIP3   OH229445   4.277   2.028   7.678
 9835TIP3    H129446   4.273   2.056   7.585
 9835TIP3    H229447   4.350   2.084   7.711
 9836TIP3   OH229448   3.691   0.495   7.629
 9836TIP3    H129449   3.605   0.553   7.613
 9836TIP3    H229450   3.690   0.523   7.737
 9837TIP3   OH229451   3.414   0.880   6.745
 9837TIP3    H129452   3.341   0.816   6.732
 9837TIP3    H229453   3.393   0.914   6.835
 9838TIP3   OH229454   4.313   1.122   7.373
 9838TIP3    H129455   4.341   1.170   7.291
 9838TIP3    H229456   4.230   1.078   7.344
 9839TIP3   OH229457   3.849   0.232   6.549
 9839TIP3    H129458   3.778   0.191   6.599
 9839TIP3    H229459   3.887   0.296   6.613
 9840TIP3   OH229460   3.810   1.196   7.734
 9840TIP3    H129461   3.803   1.168   7.825
 9840TIP3    H229462   3.771   1.285   7.736
 9841TIP3   OH229463   3.944   0.438   6.709
 9841TIP3    H129464   4.037   0.457   6.734
 9841TIP3    H229465   3.921   0.517   6.656
 9842TIP3   OH229466   3.108   0.909   7.418
 9842TIP3    H129467   3.142   0.878   7.332
 9842TIP3    H229468   3.123   0.833   7.476
 9843TIP3   OH229469   3.557   1.030   6.563
 9843TIP3    H129470   3.509   1.116   6.565
 9843TIP3    H229471   3.501   0.977   6.624
 9844TIP3   OH229472   3.975   1.446   7.655
 9844TIP3    H129473   3.878   1.448   7.652
 9844TIP3    H229474   3.994   1.531   7.696
 9845TIP3   OH229475   4.398   0.545   6.528
 9845TIP3    H129476   4.333   0.489   6.482
 9845TIP3    H229477   4.385   0.630   6.481
 9846TIP3   OH229478   4.598   1.389   7.624
 9846TIP3    H129479   4.500   1.385   7.612
 9846TIP3    H229480   4.626   1.358   7.534
 9847TIP3   OH229481   4.112   1.337   6.456
 9847TIP3    H129482   4.055   1.293   6.520
 9847TIP3    H229483   4.087   1.296   6.372
 9848TIP3   OH229484   4.085   0.971   7.305
 9848TIP3    H129485   3.993   0.957   7.284
 9848TIP3    H229486   4.127   0.897   7.256
 9849TIP3   OH229487   3.212   1.200   7.045
 9849TIP3    H129488   3.254   1.286   7.023
 9849TIP3    H229489   3.119   1.220   7.029
 9850TIP3   OH229490   2.765   0.510   6.739
 9850TIP3    H129491   2.812   0.593   6.763
 9850TIP3    H229492   2.691   0.512   6.804
 9851TIP3   OH229493   3.350   0.972   6.991
 9851TIP3    H129494   3.312   1.062   7.004
 9851TIP3    H229495   3.307   0.925   7.064
 9852TIP3   OH229496   3.477   1.549   7.511
 9852TIP3    H129497   3.510   1.625   7.458
 9852TIP3    H229498   3.558   1.526   7.559
 9853TIP3   OH229499   3.105   1.432   6.875
 9853TIP3    H129500   3.031   1.465   6.930
 9853TIP3    H229501   3.181   1.480   6.913
 9854TIP3   OH229502   3.870   1.168   7.470
 9854TIP3    H129503   3.860   1.178   7.567
 9854TIP3    H229504   3.966   1.160   7.461
 9855TIP3   OH229505   3.836   1.075   6.351
 9855TIP3    H129506   3.886   1.048   6.431
 9855TIP3    H229507   3.746   1.054   6.379
 9856TIP3   OH229508   4.105   1.716   7.517
 9856TIP3    H129509   4.021   1.673   7.492
 9856TIP3    H229510   4.107   1.788   7.451
 9857TIP3   OH229511   4.190   1.549   6.177
 9857TIP3    H129512   4.234   1.627   6.138
 9857TIP3    H229513   4.108   1.594   6.206
 9858TIP3   OH229514   3.993   1.004   6.566
 9858TIP3    H129515   3.983   0.943   6.642
 9858TIP3    H229516   4.090   1.007   6.558
 9859TIP3   OH229517   2.896   1.418   7.670
 9859TIP3    H129518   2.951   1.340   7.680
 9859TIP3    H229519   2.933   1.479   7.735
 9860TIP3   OH229520   3.206   1.056   6.351
 9860TIP3    H129521   3.217   0.962   6.325
 9860TIP3    H229522   3.186   1.048   6.446
 9861TIP3   OH229523   3.152   1.061   6.622
 9861TIP3    H129524   3.215   1.040   6.691
 9861TIP3    H229525   3.152   1.160   6.625
 9862TIP3   OH229526   2.888   0.758   6.829
 9862TIP3    H129527   2.821   0.801   6.886
 9862TIP3    H229528   2.899   0.828   6.761
 9863TIP3   OH229529   3.418   1.261   6.573
 9863TIP3    H129530   3.333   1.284   6.613
 9863TIP3    H229531   3.433   1.341   6.520
 9864TIP3   OH229532   3.624   0.310   6.972
 9864TIP3    H129533   3.677   0.391   6.950
 9864TIP3    H229534   3.633   0.309   7.068
 9865TIP3   OH229535   3.896   0.646   7.781
 9865TIP3    H129536   3.870   0.725   7.832
 9865TIP3    H229537   3.907   0.583   7.854
 9866TIP3   OH229538   3.156   1.330   6.632
 9866TIP3    H129539   3.126   1.403   6.573
 9866TIP3    H229540   3.133   1.369   6.720
 9867TIP3   OH229541   4.168   0.746   7.168
 9867TIP3    H129542   4.093   0.682   7.169
 9867TIP3    H229543   4.241   0.695   7.211
 9868TIP3   OH229544   2.874   0.967   6.635
 9868TIP3    H129545   2.932   1.044   6.646
 9868TIP3    H229546   2.924   0.918   6.566
 9869TIP3   OH229547   2.822   0.240   6.775
 9869TIP3    H129548   2.814   0.335   6.761
 9869TIP3    H229549   2.741   0.206   6.731
 9870TIP3   OH229550   4.134   1.688   7.114
 9870TIP3    H129551   4.087   1.732   7.040
 9870TIP3    H229552   4.227   1.711   7.091
 9871TIP3   OH229553   2.747   1.177   7.025
 9871TIP3    H129554   2.670   1.211   7.071
 9871TIP3    H229555   2.733   1.217   6.936
 9872TIP3   OH229556   3.366   1.260   6.261
 9872TIP3    H129557   3.307   1.192   6.302
 9872TIP3    H229558   3.441   1.204   6.235
 9873TIP3   OH229559   4.024   1.582   7.924
 9873TIP3    H129560   4.074   1.507   7.890
 9873TIP3    H229561   4.090   1.654   7.918
 9874TIP3   OH229562   3.803   1.304   6.177
 9874TIP3    H129563   3.846   1.235   6.231
 9874TIP3    H229564   3.856   1.304   6.095
 9875TIP3   OH229565   3.010   0.780   6.482
 9875TIP3    H129566   3.062   0.747   6.557
 9875TIP3    H229567   3.080   0.784   6.413
 9876TIP3   OH229568   3.522   0.980   6.292
 9876TIP3    H129569   3.521   0.991   6.389
 9876TIP3    H229570   3.519   0.882   6.286
 9877TIP3   OH229571   4.128   1.217   7.661
 9877TIP3    H129572   4.207   1.259   7.621
 9877TIP3    H229573   4.065   1.292   7.657
 9878TIP3   OH229574   3.223   0.682   6.712
 9878TIP3    H129575   3.188   0.640   6.791
 9878TIP3    H229576   3.255   0.605   6.659
 9879TIP3   OH229577   3.317   0.474   6.550
 9879TIP3    H129578   3.292   0.475   6.456
 9879TIP3    H229579   3.414   0.479   6.544
 9880TIP3   OH229580   4.142   0.806   6.206
 9880TIP3    H129581   4.119   0.763   6.122
 9880TIP3    H229582   4.107   0.897   6.186
 9881TIP3   OH229583   3.662   0.866   7.738
 9881TIP3    H129584   3.721   0.927   7.692
 9881TIP3    H229585   3.577   0.910   7.719
 9882TIP3   OH229586   4.265   1.061   7.835
 9882TIP3    H129587   4.202   1.119   7.787
 9882TIP3    H229588   4.350   1.097   7.800
 9883TIP3   OH229589   3.122   1.534   6.447
 9883TIP3    H129590   3.219   1.531   6.432
 9883TIP3    H229591   3.096   1.590   6.372
 9884TIP3   OH229592   2.605   0.922   6.668
 9884TIP3    H129593   2.700   0.944   6.657
 9884TIP3    H229594   2.602   0.832   6.628
 9885TIP3   OH229595   2.517   1.529   7.083
 9885TIP3    H129596   2.451   1.466   7.046
 9885TIP3    H229597   2.563   1.472   7.149
 9886TIP3   OH229598   2.653   1.384   7.270
 9886TIP3    H129599   2.648   1.307   7.330
 9886TIP3    H229600   2.711   1.442   7.322
 9887TIP3   OH229601   4.385   1.782   7.069
 9887TIP3    H129602   4.407   1.821   7.155
 9887TIP3    H229603   4.438   1.836   7.009
 9888TIP3   OH229604   4.409   1.803   7.352
 9888TIP3    H129605   4.376   1.711   7.345
 9888TIP3    H229606   4.490   1.789   7.402
 9889TIP3   OH229607   4.456   1.486   7.922
 9889TIP3    H129608   4.380   1.507   7.979
 9889TIP3    H229609   4.501   1.573   7.915
 9890TIP3   OH229610   4.274   0.993   6.544
 9890TIP3    H129611   4.327   1.073   6.546
 9890TIP3    H229612   4.308   0.948   6.625
 9891TIP3   OH229613   4.399   0.881   6.753
 9891TIP3    H129614   4.341   0.829   6.812
 9891TIP3    H229615   4.477   0.897   6.810
 9892TIP3   OH229616   4.452   1.249   7.177
 9892TIP3    H129617   4.510   1.186   7.129
 9892TIP3    H229618   4.450   1.326   7.117
 9893TIP3   OH229619   4.288   1.551   7.378
 9893TIP3    H129620   4.216   1.600   7.421
 9893TIP3    H229621   4.241   1.507   7.304
 9894TIP3   OH229622   4.338   0.774   6.388
 9894TIP3    H129623   4.268   0.781   6.319
 9894TIP3    H229624   4.309   0.847   6.448
 9895TIP3   OH229625   4.203   0.422   6.354
 9895TIP3    H129626   4.194   0.504   6.305
 9895TIP3    H229627   4.157   0.360   6.296
 9896TIP3   OH229628   4.214   0.731   6.896
 9896TIP3    H129629   4.220   0.634   6.883
 9896TIP3    H229630   4.211   0.739   6.994
 9897TIP3   OH229631   2.846   0.819   7.622
 9897TIP3    H129632   2.845   0.777   7.534
 9897TIP3    H229633   2.938   0.804   7.651
 9898TIP3   OH229634   4.496   1.152   7.736
 9898TIP3    H129635   4.569   1.085   7.733
 9898TIP3    H229636   4.532   1.224   7.681
 9899TIP3   OH229637   4.677   0.965   7.772
 9899TIP3    H129638   4.621   0.894   7.808
 9899TIP3    H229639   4.765   0.929   7.795
 9900TIP3   OH229640   4.203   0.455   6.821
 9900TIP3    H129641   4.236   0.374   6.865
 9900TIP3    H229642   4.266   0.458   6.747
 9901TIP3   OH229643   4.380   0.623   7.291
 9901TIP3    H129644   4.463   0.642   7.241
 9901TIP3    H229645   4.402   0.666   7.376
 9902TIP3   OH229646   4.435   0.761   7.520
 9902TIP3    H129647   4.358   0.802   7.564
 9902TIP3    H229648   4.477   0.838   7.476
 9903TIP3   OH229649   2.831   0.450   7.728
 9903TIP3    H129650   2.878   0.446   7.643
 9903TIP3    H229651   2.839   0.543   7.751
 9904TIP3   OH229652   3.971   1.646   6.727
 9904TIP3    H129653   4.023   1.641   6.645
 9904TIP3    H229654   4.013   1.719   6.775
 9905TIP3   OH229655   3.243   1.480   7.644
 9905TIP3    H129656   3.197   1.555   7.601
 9905TIP3    H229657   3.329   1.490   7.597
 9906TIP3   OH229658   3.687   1.729   7.787
 9906TIP3    H129659   3.722   1.736   7.878
 9906TIP3    H229660   3.753   1.783   7.737
 9907TIP3   OH229661   3.874   1.877   7.660
 9907TIP3    H129662   3.944   1.844   7.602
 9907TIP3    H229663   3.924   1.938   7.718
 9908TIP3   OH229664   2.925   1.731   7.690
 9908TIP3    H129665   2.867   1.784   7.635
 9908TIP3    H229666   2.929   1.782   7.772
 9909TIP3   OH229667   3.167   1.724   7.543
 9909TIP3    H129668   3.078   1.733   7.583
 9909TIP3    H229669   3.150   1.750   7.450
 9910TIP3   OH229670   3.585   1.747   7.347
 9910TIP3    H129671   3.517   1.765   7.278
 9910TIP3    H229672   3.599   1.838   7.381
 9911TIP3   OH229673   3.855   1.686   7.393
 9911TIP3    H129674   3.761   1.702   7.370
 9911TIP3    H229675   3.898   1.758   7.344
 9912TIP3   OH229676   4.063   1.881   7.308
 9912TIP3    H129677   4.048   1.967   7.263
 9912TIP3    H229678   4.088   1.824   7.232
 9913TIP3   OH229679   2.829   1.537   7.431
 9913TIP3    H129680   2.862   1.510   7.520
 9913TIP3    H229681   2.898   1.494   7.376
 9914TIP3   OH229682   3.016   1.403   7.289
 9914TIP3    H129683   3.035   1.319   7.335
 9914TIP3    H229684   3.105   1.445   7.294
 9915TIP3   OH229685   3.264   1.498   7.329
 9915TIP3    H129686   3.302   1.492   7.239
 9915TIP3    H229687   3.345   1.513   7.382
 9916TIP3   OH229688   2.622   1.307   6.822
 9916TIP3    H129689   2.536   1.278   6.787
 9916TIP3    H229690   2.614   1.403   6.808
 9917TIP3   OH229691   3.389   1.498   6.394
 9917TIP3    H129692   3.479   1.522   6.365
 9917TIP3    H229693   3.372   1.421   6.336
 9918TIP3   OH229694   4.117   1.615   6.493
 9918TIP3    H129695   4.111   1.518   6.482
 9918TIP3    H229696   4.068   1.648   6.415
 9919TIP3   OH229697   2.697   1.335   6.459
 9919TIP3    H129698   2.697   1.367   6.550
 9919TIP3    H229699   2.787   1.297   6.450
 9920TIP3   OH229700   4.338   1.761   7.682
 9920TIP3    H129701   4.262   1.734   7.626
 9920TIP3    H229702   4.326   1.858   7.682
 9921TIP3   OH229703   5.607   1.131   6.449
 9921TIP3    H129704   5.581   1.224   6.433
 9921TIP3    H229705   5.526   1.085   6.420
 9922TIP3   OH229706   5.603   1.132   6.825
 9922TIP3    H129707   5.630   1.105   6.914
 9922TIP3    H229708   5.559   1.052   6.792
 9923TIP3   OH229709   4.903   1.040   7.203
 9923TIP3    H129710   4.935   0.966   7.257
 9923TIP3    H229711   4.986   1.070   7.163
 9924TIP3   OH229712   5.845   1.436   6.510
 9924TIP3    H129713   5.836   1.365   6.575
 9924TIP3    H229714   5.877   1.510   6.565
 9925TIP3   OH229715   4.874   1.434   6.916
 9925TIP3    H129716   4.869   1.336   6.922
 9925TIP3    H229717   4.970   1.446   6.917
 9926TIP3   OH229718   4.554   0.644   6.735
 9926TIP3    H129719   4.516   0.731   6.717
 9926TIP3    H229720   4.520   0.591   6.661
 9927TIP3   OH229721   4.658   0.917   6.868
 9927TIP3    H129722   4.711   0.839   6.893
 9927TIP3    H229723   4.721   0.951   6.803
 9928TIP3   OH229724   5.493   1.895   6.525
 9928TIP3    H129725   5.542   1.824   6.479
 9928TIP3    H229726   5.493   1.863   6.616
 9929TIP3   OH229727   5.404   1.360   6.877
 9929TIP3    H129728   5.441   1.282   6.832
 9929TIP3    H229729   5.489   1.404   6.900
 9930TIP3   OH229730   5.811   0.886   6.907
 9930TIP3    H129731   5.851   0.798   6.924
 9930TIP3    H229732   5.774   0.874   6.817
 9931TIP3   OH229733   5.815   0.626   6.533
 9931TIP3    H129734   5.885   0.565   6.562
 9931TIP3    H229735   5.846   0.647   6.444
 9932TIP3   OH229736   5.225   0.925   6.775
 9932TIP3    H129737   5.312   0.882   6.792
 9932TIP3    H229738   5.160   0.857   6.803
 9933TIP3   OH229739   6.482   0.895   6.997
 9933TIP3    H129740   6.392   0.931   6.995
 9933TIP3    H229741   6.491   0.871   7.091
 9934TIP3   OH229742   5.501   1.355   6.318
 9934TIP3    H129743   5.455   1.334   6.236
 9934TIP3    H229744   5.457   1.439   6.343
 9935TIP3   OH229745   5.265   1.279   7.112
 9935TIP3    H129746   5.198   1.342   7.148
 9935TIP3    H229747   5.303   1.331   7.038
 9936TIP3   OH229748   5.083   1.471   7.202
 9936TIP3    H129749   5.059   1.558   7.165
 9936TIP3    H229750   5.004   1.455   7.257
 9937TIP3   OH229751   5.919   1.677   6.678
 9937TIP3    H129752   5.829   1.668   6.718
 9937TIP3    H229753   5.911   1.763   6.634
 9938TIP3   OH229754   5.623   1.723   6.353
 9938TIP3    H129755   5.673   1.641   6.332
 9938TIP3    H229756   5.684   1.789   6.313
 9939TIP3   OH229757   5.766   1.508   6.257
 9939TIP3    H129758   5.724   1.430   6.221
 9939TIP3    H229759   5.801   1.474   6.343
 9940TIP3   OH229760   6.144   1.592   7.022
 9940TIP3    H129761   6.134   1.514   6.963
 9940TIP3    H229762   6.128   1.666   6.960
 9941TIP3   OH229763   5.434   0.985   6.275
 9941TIP3    H129764   5.355   1.039   6.253
 9941TIP3    H229765   5.483   0.985   6.191
 9942TIP3   OH229766   5.393   0.770   6.003
 9942TIP3    H129767   5.460   0.820   6.052
 9942TIP3    H229768   5.450   0.714   5.946
 9943TIP3   OH229769   6.340   1.230   6.868
 9943TIP3    H129770   6.257   1.282   6.872
 9943TIP3    H229771   6.370   1.252   6.777
 9944TIP3   OH229772   5.784   1.066   6.251
 9944TIP3    H129773   5.730   1.090   6.330
 9944TIP3    H229774   5.870   1.046   6.295
 9945TIP3   OH229775   6.014   1.121   7.155
 9945TIP3    H129776   6.011   1.203   7.207
 9945TIP3    H229777   5.926   1.124   7.113
 9946TIP3   OH229778   5.022   1.073   6.660
 9946TIP3    H129779   4.973   1.007   6.607
 9946TIP3    H229780   5.090   1.015   6.701
 9947TIP3   OH229781   5.149   1.477   6.816
 9947TIP3    H129782   5.128   1.424   6.737
 9947TIP3    H229783   5.239   1.445   6.837
 9948TIP3   OH229784   5.146   1.043   7.028
 9948TIP3    H129785   5.175   1.019   6.937
 9948TIP3    H229786   5.198   1.124   7.046
 9949TIP3   OH229787   5.677   1.674   6.798
 9949TIP3    H129788   5.665   1.754   6.851
 9949TIP3    H229789   5.663   1.601   6.862
 9950TIP3   OH229790   5.291   1.594   7.346
 9950TIP3    H129791   5.230   1.655   7.392
 9950TIP3    H229792   5.227   1.539   7.297
 9951TIP3   OH229793   5.627   0.923   6.078
 9951TIP3    H129794   5.684   0.983   6.130
 9951TIP3    H229795   5.654   0.947   5.986
 9952TIP3   OH229796   5.050   1.152   7.452
 9952TIP3    H129797   5.047   1.238   7.499
 9952TIP3    H229798   4.955   1.133   7.443
 9953TIP3   OH229799   5.364   1.608   6.351
 9953TIP3    H129800   5.445   1.657   6.372
 9953TIP3    H229801   5.306   1.676   6.315
 9954TIP3   OH229802   5.085   1.762   7.432
 9954TIP3    H129803   5.049   1.762   7.341
 9954TIP3    H229804   5.006   1.740   7.485
 9955TIP3   OH229805   4.882   0.910   6.467
 9955TIP3    H129806   4.810   0.921   6.403
 9955TIP3    H229807   4.862   0.825   6.510
 9956TIP3   OH229808   5.939   1.534   5.671
 9956TIP3    H129809   5.947   1.631   5.659
 9956TIP3    H229810   6.032   1.505   5.660
 9957TIP3   OH229811   4.662   1.292   7.381
 9957TIP3    H129812   4.606   1.266   7.306
 9957TIP3    H229813   4.703   1.207   7.408
 9958TIP3   OH229814   4.518   1.483   7.015
 9958TIP3    H129815   4.614   1.479   7.008
 9958TIP3    H229816   4.506   1.565   7.065
 9959TIP3   OH229817   6.383   1.934   7.068
 9959TIP3    H129818   6.382   1.838   7.082
 9959TIP3    H229819   6.300   1.960   7.113
 9960TIP3   OH229820   5.489   1.722   7.202
 9960TIP3    H129821   5.489   1.815   7.235
 9960TIP3    H229822   5.417   1.683   7.257
 9961TIP3   OH229823   5.246   1.850   6.155
 9961TIP3    H129824   5.205   1.837   6.068
 9961TIP3    H229825   5.218   1.940   6.179
 9962TIP3   OH229826   4.674   1.686   6.540
 9962TIP3    H129827   4.735   1.680   6.617
 9962TIP3    H229828   4.591   1.658   6.584
 9963TIP3   OH229829   5.449   1.750   5.795
 9963TIP3    H129830   5.510   1.682   5.759
 9963TIP3    H229831   5.484   1.762   5.886
 9964TIP3   OH229832   5.499   1.799   6.066
 9964TIP3    H129833   5.411   1.808   6.110
 9964TIP3    H229834   5.553   1.762   6.138
 9965TIP3   OH229835   6.280   1.049   7.345
 9965TIP3    H129836   6.210   1.101   7.303
 9965TIP3    H229837   6.260   0.960   7.309
 9966TIP3   OH229838   4.867   1.475   7.370
 9966TIP3    H129839   4.920   1.458   7.451
 9966TIP3    H229840   4.795   1.409   7.377
 9967TIP3   OH229841   6.063   0.873   7.271
 9967TIP3    H129842   6.056   0.893   7.366
 9967TIP3    H229843   6.044   0.957   7.227
 9968TIP3   OH229844   5.703   0.970   5.822
 9968TIP3    H129845   5.667   0.947   5.734
 9968TIP3    H229846   5.779   1.025   5.797
 9969TIP3   OH229847   5.223   0.818   7.184
 9969TIP3    H129848   5.145   0.816   7.241
 9969TIP3    H229849   5.191   0.874   7.111
 9970TIP3   OH229850   5.572   0.790   6.408
 9970TIP3    H129851   5.519   0.861   6.366
 9970TIP3    H229852   5.629   0.761   6.334
 9971TIP3   OH229853   5.756   1.086   7.488
 9971TIP3    H129854   5.730   1.011   7.547
 9971TIP3    H229855   5.849   1.099   7.515
 9972TIP3   OH229856   5.716   0.842   6.659
 9972TIP3    H129857   5.661   0.873   6.585
 9972TIP3    H229858   5.750   0.758   6.618
 9973TIP3   OH229859   5.010   0.847   7.374
 9973TIP3    H129860   5.050   0.906   7.440
 9973TIP3    H229861   4.989   0.768   7.426
 9974TIP3   OH229862   4.632   0.380   6.511
 9974TIP3    H129863   4.651   0.411   6.420
 9974TIP3    H229864   4.553   0.433   6.530
 9975TIP3   OH229865   5.734   1.072   7.080
 9975TIP3    H129866   5.771   1.007   7.016
 9975TIP3    H229867   5.716   1.013   7.156
 9976TIP3   OH229868   5.138   0.545   6.417
 9976TIP3    H129869   5.223   0.592   6.411
 9976TIP3    H229870   5.076   0.599   6.365
 9977TIP3   OH229871   4.939   0.617   6.217
 9977TIP3    H129872   4.876   0.565   6.165
 9977TIP3    H229873   5.001   0.646   6.147
 9978TIP3   OH229874   6.072   2.286   7.166
 9978TIP3    H129875   6.070   2.310   7.071
 9978TIP3    H229876   6.149   2.336   7.197
 9979TIP3   OH229877   5.028   1.400   7.590
 9979TIP3    H129878   5.111   1.426   7.635
 9979TIP3    H229879   4.967   1.399   7.666
 9980TIP3   OH229880   5.486   0.844   6.846
 9980TIP3    H129881   5.568   0.817   6.803
 9980TIP3    H229882   5.494   0.807   6.937
 9981TIP3   OH229883   5.487   0.760   7.114
 9981TIP3    H129884   5.392   0.766   7.139
 9981TIP3    H229885   5.530   0.812   7.184
 9982TIP3   OH229886   5.204   1.139   6.225
 9982TIP3    H129887   5.133   1.072   6.218
 9982TIP3    H229888   5.190   1.173   6.317
 9983TIP3   OH229889   6.108   1.375   6.859
 9983TIP3    H129890   6.132   1.424   6.777
 9983TIP3    H229891   6.024   1.332   6.833
 9984TIP3   OH229892   5.642   0.490   6.034
 9984TIP3    H129893   5.576   0.446   6.091
 9984TIP3    H229894   5.684   0.552   6.097
 9985TIP3   OH229895   5.610   1.457   7.224
 9985TIP3    H129896   5.628   1.431   7.315
 9985TIP3    H229897   5.570   1.545   7.234
 9986TIP3   OH229898   5.741   0.695   6.193
 9986TIP3    H129899   5.833   0.711   6.221
 9986TIP3    H229900   5.720   0.775   6.142
 9987TIP3   OH229901   4.899   1.154   6.901
 9987TIP3    H129902   4.936   1.126   6.815
 9987TIP3    H229903   4.936   1.084   6.958
 9988TIP3   OH229904   5.352   1.286   6.046
 9988TIP3    H129905   5.304   1.372   6.052
 9988TIP3    H229906   5.299   1.232   6.108
 9989TIP3   OH229907   4.776   1.087   7.519
 9989TIP3    H129908   4.807   1.073   7.611
 9989TIP3    H229909   4.718   1.011   7.505
 9990TIP3   OH229910   5.506   1.194   7.537
 9990TIP3    H129911   5.445   1.137   7.488
 9990TIP3    H229912   5.593   1.164   7.503
 9991TIP3   OH229913   5.768   1.714   7.120
 9991TIP3    H129914   5.672   1.713   7.133
 9991TIP3    H229915   5.797   1.766   7.198
 9992TIP3   OH229916   6.197   0.802   6.015
 9992TIP3    H129917   6.130   0.745   5.975
 9992TIP3    H229918   6.181   0.887   5.968
 9993TIP3   OH229919   6.395   1.645   7.110
 9993TIP3    H129920   6.297   1.642   7.099
 9993TIP3    H229921   6.421   1.614   7.020
 9994TIP3   OH229922   5.875   1.606   5.936
 9994TIP3    H129923   5.854   1.538   6.001
 9994TIP3    H229924   5.890   1.557   5.854
 9995TIP3   OH229925   5.873   1.236   6.779
 9995TIP3    H129926   5.780   1.210   6.790
 9995TIP3    H229927   5.909   1.157   6.733
 9996TIP3   OH229928   5.000   1.460   6.523
 9996TIP3    H129929   5.012   1.543   6.472
 9996TIP3    H229930   4.908   1.466   6.547
 9997TIP3   OH229931   4.560   0.763   6.225
 9997TIP3    H129932   4.610   0.844   6.247
 9997TIP3    H229933   4.488   0.767   6.292
 9998TIP3   OH229934   5.144   1.229   6.469
 9998TIP3    H129935   5.104   1.316   6.491
 9998TIP3    H229936   5.112   1.174   6.543
 9999TIP3   OH229937   5.269   1.808   6.999
 9999TIP3    H129938   5.311   1.880   6.949
 9999TIP3    H229939   5.345   1.772   7.047
10000TIP3   OH229940   4.920   1.703   6.380
10000TIP3    H129941   4.835   1.713   6.426
10000TIP3    H229942   4.955   1.796   6.384
10001TIP3   OH229943   5.659   1.440   6.956
10001TIP3    H129944   5.650   1.438   7.054
10001TIP3    H229945   5.740   1.388   6.943
10002TIP3   OH229946   5.632   1.329   5.840
10002TIP3    H129947   5.686   1.306   5.919
10002TIP3    H229948   5.543   1.308   5.873
10003TIP3   OH229949   5.907   1.975   7.007
10003TIP3    H129950   5.828   1.919   6.998
10003TIP3    H229951   5.892   2.041   6.935
10004TIP3   OH229952   5.973   1.809   5.660
10004TIP3    H129953   6.011   1.883   5.609
10004TIP3    H229954   5.892   1.854   5.693
10005TIP3   OH229955   5.792   1.265   6.055
10005TIP3    H129956   5.782   1.201   6.129
10005TIP3    H229957   5.890   1.264   6.045
10006TIP3   OH229958   4.708   1.667   7.159
10006TIP3    H129959   4.765   1.597   7.195
10006TIP3    H229960   4.736   1.742   7.213
10007TIP3   OH229961   4.997   1.315   5.841
10007TIP3    H129962   5.016   1.225   5.810
10007TIP3    H229963   4.981   1.299   5.936
10008TIP3   OH229964   4.941   1.320   6.120
10008TIP3    H129965   5.021   1.293   6.167
10008TIP3    H229966   4.950   1.419   6.122
10009TIP3   OH229967   4.671   1.007   6.303
10009TIP3    H129968   4.651   1.060   6.381
10009TIP3    H229969   4.721   1.070   6.248
10010TIP3   OH229970   5.206   1.514   6.058
10010TIP3    H129971   5.123   1.547   6.097
10010TIP3    H229972   5.230   1.588   6.001
10011TIP3   OH229973   5.428   0.565   6.462
10011TIP3    H129974   5.480   0.647   6.444
10011TIP3    H229975   5.422   0.568   6.558
10012TIP3   OH229976   5.684   0.897   7.291
10012TIP3    H129977   5.673   0.977   7.345
10012TIP3    H229978   5.714   0.835   7.358
10013TIP3   OH229979   4.947   1.592   6.127
10013TIP3    H129980   4.921   1.663   6.064
10013TIP3    H229981   4.937   1.638   6.213
10014TIP3   OH229982   5.962   0.998   6.651
10014TIP3    H129983   5.885   0.941   6.666
10014TIP3    H229984   6.033   0.952   6.700
10015TIP3   OH229985   4.678   1.245   6.124
10015TIP3    H129986   4.760   1.299   6.132
10015TIP3    H229987   4.713   1.181   6.059
10016TIP3   OH229988   4.615   0.493   6.263
10016TIP3    H129989   4.621   0.588   6.245
10016TIP3    H229990   4.534   0.467   6.215
10017TIP3   OH229991   5.928   1.947   6.600
10017TIP3    H129992   5.885   1.994   6.524
10017TIP3    H229993   6.022   1.967   6.579
10018TIP3   OH229994   4.698   1.973   7.582
10018TIP3    H129995   4.786   1.975   7.626
10018TIP3    H229996   4.683   1.878   7.576
10019TIP3   OH229997   5.181   1.944   7.626
10019TIP3    H129998   5.276   1.926   7.632
10019TIP3    H229999   5.157   1.887   7.550
10020TIP3   OH230000   5.162   1.519   5.752
10020TIP3    H130001   5.107   1.447   5.791
10020TIP3    H230002   5.238   1.467   5.720
10021TIP3   OH230003   5.820   1.848   7.357
10021TIP3    H130004   5.811   1.780   7.427
10021TIP3    H230005   5.897   1.899   7.388
10022TIP3   OH230006   5.599   1.559   5.662
10022TIP3    H130007   5.647   1.500   5.722
10022TIP3    H230008   5.656   1.561   5.583
10023TIP3   OH230009   4.828   1.382   7.782
10023TIP3    H130010   4.849   1.286   7.784
10023TIP3    H230011   4.744   1.382   7.732
10024TIP3   OH230012   4.802   1.041   5.980
10024TIP3    H130013   4.861   1.000   6.046
10024TIP3    H230014   4.866   1.046   5.905
10025TIP3   OH230015   5.436   1.468   7.554
10025TIP3    H130016   5.397   1.483   7.466
10025TIP3    H230017   5.468   1.375   7.548
10026TIP3   OH230018   5.309   1.233   5.779
10026TIP3    H130019   5.318   1.246   5.875
10026TIP3    H230020   5.314   1.135   5.774
10027TIP3   OH230021   5.930   1.474   7.161
10027TIP3    H130022   6.005   1.519   7.116
10027TIP3    H230023   5.859   1.540   7.146
10028TIP3   OH230024   4.946   1.113   7.761
10028TIP3    H130025   5.025   1.061   7.739
10028TIP3    H230026   4.973   1.144   7.851
10029TIP3   OH230027   5.008   0.939   6.194
10029TIP3    H130028   4.993   0.897   6.281
10029TIP3    H230029   5.048   0.864   6.143
10030TIP3   OH230030   5.284   1.014   7.429
10030TIP3    H130031   5.203   1.070   7.429
10030TIP3    H230032   5.320   1.030   7.340
10031TIP3   OH230033   5.114   0.733   6.038
10031TIP3    H130034   5.091   0.732   5.943
10031TIP3    H230035   5.212   0.735   6.033
10032TIP3   OH230036   5.804   1.409   7.561
10032TIP3    H130037   5.879   1.380   7.507
10032TIP3    H230038   5.796   1.336   7.625
10033TIP3   OH230039   5.937   1.064   5.693
10033TIP3    H130040   5.914   1.021   5.609
10033TIP3    H230041   5.905   1.155   5.674
10034TIP3   OH230042   5.396   0.798   7.541
10034TIP3    H130043   5.391   0.744   7.461
10034TIP3    H230044   5.352   0.880   7.507
10035TIP3   OH230045   5.452   1.115   7.228
10035TIP3    H130046   5.526   1.126   7.167
10035TIP3    H230047   5.388   1.180   7.192
10036TIP3   OH230048   6.008   1.106   7.601
10036TIP3    H130049   6.041   1.021   7.635
10036TIP3    H230050   6.090   1.153   7.580
10037TIP3   OH230051   6.061   1.334   7.349
10037TIP3    H130052   5.999   1.385   7.292
10037TIP3    H230053   6.146   1.361   7.307
10038TIP3   OH230054   5.262   0.918   7.769
10038TIP3    H130055   5.212   0.838   7.796
10038TIP3    H230056   5.318   0.883   7.698
10039TIP3   OH230057   5.652   0.874   7.615
10039TIP3    H130058   5.667   0.821   7.696
10039TIP3    H230059   5.559   0.850   7.597
10040TIP3   OH230060   4.920   1.790   5.937
10040TIP3    H130061   5.016   1.789   5.922
10040TIP3    H230062   4.893   1.843   5.859
10041TIP3   OH230063   4.415   1.196   6.161
10041TIP3    H130064   4.511   1.187   6.135
10041TIP3    H230065   4.386   1.104   6.140
10042TIP3   OH230066   4.322   1.786   6.569
10042TIP3    H130067   4.251   1.729   6.533
10042TIP3    H230068   4.360   1.728   6.638
10043TIP3   OH230069   4.465   1.640   6.751
10043TIP3    H130070   4.441   1.572   6.815
10043TIP3    H230071   4.513   1.702   6.809
10044TIP3   OH230072   6.179   2.041   6.556
10044TIP3    H130073   6.205   2.075   6.643
10044TIP3    H230074   6.239   2.089   6.497
10045TIP3   OH230075   6.208   2.061   6.837
10045TIP3    H130076   6.168   1.972   6.833
10045TIP3    H230077   6.285   2.041   6.893
10046TIP3   OH230078   6.256   1.737   7.413
10046TIP3    H130079   6.181   1.748   7.474
10046TIP3    H230080   6.297   1.826   7.414
10047TIP3   OH230081   6.071   1.252   6.032
10047TIP3    H130082   6.141   1.315   6.004
10047TIP3    H230083   6.114   1.212   6.111
10048TIP3   OH230084   6.199   1.122   6.233
10048TIP3    H130085   6.135   1.080   6.294
10048TIP3    H230086   6.266   1.159   6.296
10049TIP3   OH230087   6.251   1.509   6.666
10049TIP3    H130088   6.306   1.444   6.617
10049TIP3    H230089   6.245   1.583   6.604
10050TIP3   OH230090   6.086   1.810   6.863
10050TIP3    H130091   6.014   1.853   6.914
10050TIP3    H230092   6.036   1.763   6.793
10051TIP3   OH230093   6.135   1.031   5.875
10051TIP3    H130094   6.063   1.040   5.808
10051TIP3    H230095   6.109   1.104   5.936
10052TIP3   OH230096   6.000   0.680   5.840
10052TIP3    H130097   5.990   0.761   5.790
10052TIP3    H230098   5.954   0.616   5.785
10053TIP3   OH230099   6.013   0.987   6.382
10053TIP3    H130100   6.013   0.890   6.369
10053TIP3    H230101   6.003   0.995   6.480
10054TIP3   OH230102   4.641   1.050   7.124
10054TIP3    H130103   4.648   1.018   7.032
10054TIP3    H230104   4.737   1.055   7.147
10055TIP3   OH230105   6.292   1.410   7.234
10055TIP3    H130106   6.364   1.344   7.225
10055TIP3    H230107   6.322   1.481   7.174
10056TIP3   OH230108   6.475   1.222   7.257
10056TIP3    H130109   6.415   1.151   7.286
10056TIP3    H230110   6.561   1.181   7.282
10057TIP3   OH230111   5.997   0.715   6.309
10057TIP3    H130112   6.021   0.633   6.358
10057TIP3    H230113   6.056   0.702   6.232
10058TIP3   OH230114   6.173   0.878   6.782
10058TIP3    H130115   6.257   0.897   6.735
10058TIP3    H230116   6.191   0.922   6.867
10059TIP3   OH230117   6.231   1.019   7.008
10059TIP3    H130118   6.152   1.057   7.050
10059TIP3    H230119   6.271   1.097   6.965
10060TIP3   OH230120   4.868   0.787   7.837
10060TIP3    H130121   4.959   0.819   7.822
10060TIP3    H230122   4.886   0.722   7.905
10061TIP3   OH230123   4.623   0.711   7.186
10061TIP3    H130124   4.678   0.688   7.110
10061TIP3    H230125   4.670   0.788   7.222
10062TIP3   OH230126   5.763   1.906   6.212
10062TIP3    H130127   5.816   1.894   6.131
10062TIP3    H230128   5.814   1.973   6.260
10063TIP3   OH230129   4.865   1.712   7.599
10063TIP3    H130130   4.774   1.681   7.583
10063TIP3    H230131   4.878   1.693   7.693
10064TIP3   OH230132   5.041   1.742   7.145
10064TIP3    H130133   4.995   1.819   7.106
10064TIP3    H230134   5.128   1.755   7.103
10065TIP3   OH230135   5.490   1.988   7.285
10065TIP3    H130136   5.532   1.991   7.374
10065TIP3    H230137   5.556   2.039   7.233
10066TIP3   OH230138   5.669   2.138   7.143
10066TIP3    H130139   5.741   2.089   7.101
10066TIP3    H230140   5.720   2.196   7.204
10067TIP3   OH230141   4.718   1.996   7.173
10067TIP3    H130142   4.630   2.031   7.147
10067TIP3    H230143   4.731   2.042   7.256
10068TIP3   OH230144   4.955   1.976   7.027
10068TIP3    H130145   4.868   1.991   7.072
10068TIP3    H230146   4.937   2.014   6.938
10069TIP3   OH230147   5.382   2.009   6.825
10069TIP3    H130148   5.314   2.031   6.759
10069TIP3    H230149   5.395   2.096   6.869
10070TIP3   OH230150   5.650   1.947   6.876
10070TIP3    H130151   5.557   1.966   6.856
10070TIP3    H230152   5.695   2.024   6.837
10071TIP3   OH230153   5.857   2.139   6.793
10071TIP3    H130154   5.845   2.224   6.746
10071TIP3    H230155   5.885   2.080   6.720
10072TIP3   OH230156   4.633   1.793   6.912
10072TIP3    H130157   4.655   1.772   7.005
10072TIP3    H230158   4.707   1.749   6.866
10073TIP3   OH230159   4.825   1.661   6.765
10073TIP3    H130160   4.842   1.581   6.819
10073TIP3    H230161   4.914   1.702   6.763
10074TIP3   OH230162   5.088   1.759   6.775
10074TIP3    H130163   5.123   1.668   6.765
10074TIP3    H230164   5.131   1.784   6.858
10075TIP3   OH230165   5.190   1.757   5.889
10075TIP3    H130166   5.280   1.779   5.854
10075TIP3    H230167   5.169   1.682   5.829
10076TIP3   OH230168   5.909   1.873   5.981
10076TIP3    H130169   5.900   1.775   5.969
10076TIP3    H230170   5.864   1.905   5.900
10077TIP3   OH230171   4.491   1.569   5.968
10077TIP3    H130172   4.498   1.651   6.020
10077TIP3    H230173   4.585   1.550   5.942
10078TIP3   OH230174   6.137   2.018   7.170
10078TIP3    H130175   6.058   1.987   7.120
10078TIP3    H230176   6.119   2.114   7.171
10079TIP3   OH230177   7.402   1.387   5.936
10079TIP3    H130178   7.378   1.480   5.920
10079TIP3    H230179   7.322   1.342   5.905
10080TIP3   OH230180   7.398   1.388   6.312
10080TIP3    H130181   7.427   1.359   6.400
10080TIP3    H230182   7.359   1.307   6.276
10081TIP3   OH230183   6.701   1.289   6.680
10081TIP3    H130184   6.733   1.218   6.738
10081TIP3    H230185   6.780   1.345   6.676
10082TIP3   OH230186   7.643   1.691   5.998
10082TIP3    H130187   7.632   1.622   6.064
10082TIP3    H230188   7.671   1.767   6.051
10083TIP3   OH230189   6.670   1.694   6.405
10083TIP3    H130190   6.663   1.596   6.410
10083TIP3    H230191   6.767   1.704   6.404
10084TIP3   OH230192   6.374   0.900   6.201
10084TIP3    H130193   6.323   0.981   6.214
10084TIP3    H230194   6.313   0.850   6.143
10085TIP3   OH230195   6.436   1.190   6.359
10085TIP3    H130196   6.479   1.109   6.395
10085TIP3    H230197   6.500   1.217   6.292
10086TIP3   OH230198   7.290   2.153   6.012
10086TIP3    H130199   7.339   2.081   5.966
10086TIP3    H230200   7.288   2.121   6.103
10087TIP3   OH230201   7.200   1.614   6.364
10087TIP3    H130202   7.240   1.537   6.319
10087TIP3    H230203   7.284   1.659   6.389
10088TIP3   OH230204   7.609   1.145   6.391
10088TIP3    H130205   7.641   1.056   6.419
10088TIP3    H230206   7.572   1.126   6.303
10089TIP3   OH230207   6.881   0.785   6.398
10089TIP3    H130208   6.896   0.857   6.335
10089TIP3    H230209   6.942   0.718   6.364
10090TIP3   OH230210   7.610   0.883   6.020
10090TIP3    H130211   7.678   0.821   6.052
10090TIP3    H230212   7.645   0.902   5.932
10091TIP3   OH230213   6.574   0.981   6.458
10091TIP3    H130214   6.651   0.972   6.519
10091TIP3    H230215   6.601   0.919   6.387
10092TIP3   OH230216   7.025   1.177   6.258
10092TIP3    H130217   7.118   1.153   6.277
10092TIP3    H230218   6.988   1.090   6.231
10093TIP3   OH230219   7.297   1.611   5.805
10093TIP3    H130220   7.249   1.590   5.724
10093TIP3    H230221   7.255   1.696   5.830
10094TIP3   OH230222   7.057   1.532   6.597
10094TIP3    H130223   6.993   1.596   6.635
10094TIP3    H230224   7.097   1.584   6.525
10095TIP3   OH230225   6.785   0.924   6.612
10095TIP3    H130226   6.871   0.965   6.631
10095TIP3    H230227   6.815   0.846   6.560
10096TIP3   OH230228   6.880   1.726   6.689
10096TIP3    H130229   6.855   1.813   6.651
10096TIP3    H230230   6.801   1.711   6.745
10097TIP3   OH230231   6.278   1.418   5.925
10097TIP3    H130232   6.235   1.449   5.843
10097TIP3    H230233   6.309   1.502   5.965
10098TIP3   OH230234   7.716   1.932   6.163
10098TIP3    H130235   7.627   1.924   6.204
10098TIP3    H230236   7.708   2.019   6.120
10099TIP3   OH230237   7.420   1.980   5.840
10099TIP3    H130238   7.470   1.898   5.819
10099TIP3    H230239   7.481   2.046   5.800
10100TIP3   OH230240   7.563   1.765   5.745
10100TIP3    H130241   7.520   1.687   5.708
10100TIP3    H230242   7.598   1.730   5.830
10101TIP3   OH230243   7.940   1.843   6.513
10101TIP3    H130244   7.934   1.769   6.449
10101TIP3    H230245   7.932   1.922   6.455
10102TIP3   OH230246   7.231   1.241   5.763
10102TIP3    H130247   7.152   1.295   5.742
10102TIP3    H230248   7.279   1.242   5.678
10103TIP3   OH230249   7.188   1.027   5.488
10103TIP3    H130250   7.256   1.077   5.538
10103TIP3    H230251   7.246   0.971   5.433
10104TIP3   OH230252   8.148   1.495   6.354
10104TIP3    H130253   8.059   1.536   6.361
10104TIP3    H230254   8.169   1.511   6.260
10105TIP3   OH230255   7.580   1.322   5.738
10105TIP3    H130256   7.526   1.347   5.817
10105TIP3    H230257   7.666   1.303   5.782
10106TIP3   OH230258   7.807   1.416   6.580
10106TIP3    H130259   7.802   1.490   6.641
10106TIP3    H230260   7.714   1.408   6.552
10107TIP3   OH230261   6.814   1.323   6.153
10107TIP3    H130262   6.773   1.264   6.087
10107TIP3    H230263   6.891   1.270   6.183
10108TIP3   OH230264   6.944   1.734   6.303
10108TIP3    H130265   6.923   1.687   6.222
10108TIP3    H230266   7.034   1.700   6.323
10109TIP3   OH230267   6.951   1.292   6.509
10109TIP3    H130268   6.983   1.273   6.419
10109TIP3    H230269   6.993   1.378   6.530
10110TIP3   OH230270   7.476   1.929   6.285
10110TIP3    H130271   7.462   2.010   6.337
10110TIP3    H230272   7.457   1.858   6.350
10111TIP3   OH230273   7.087   1.848   6.834
10111TIP3    H130274   7.026   1.911   6.880
10111TIP3    H230275   7.022   1.795   6.784
10112TIP3   OH230276   7.423   1.180   5.564
10112TIP3    H130277   7.481   1.240   5.617
10112TIP3    H230278   7.450   1.205   5.472
10113TIP3   OH230279   6.842   1.410   6.931
10113TIP3    H130280   6.845   1.494   6.980
10113TIP3    H230281   6.747   1.387   6.941
10114TIP3   OH230282   7.163   1.862   5.836
10114TIP3    H130283   7.241   1.915   5.859
10114TIP3    H230284   7.101   1.929   5.804
10115TIP3   OH230285   6.882   2.016   6.919
10115TIP3    H130286   6.845   2.017   6.829
10115TIP3    H230287   6.803   1.997   6.973
10116TIP3   OH230288   6.681   1.160   5.957
10116TIP3    H130289   6.615   1.208   5.902
10116TIP3    H230290   6.634   1.078   5.976
10117TIP3   OH230291   7.733   1.790   5.159
10117TIP3    H130292   7.743   1.887   5.146
10117TIP3    H230293   7.826   1.761   5.149
10118TIP3   OH230294   6.460   1.548   6.867
10118TIP3    H130295   6.396   1.524   6.797
10118TIP3    H230296   6.499   1.461   6.892
10119TIP3   OH230297   6.314   1.742   6.499
10119TIP3    H130298   6.410   1.735   6.492
10119TIP3    H230299   6.304   1.821   6.554
10120TIP3   OH230300   8.172   2.224   6.537
10120TIP3    H130301   8.193   2.128   6.543
10120TIP3    H230302   8.094   2.228   6.596
10121TIP3   OH230303   7.284   1.978   6.690
10121TIP3    H130304   7.285   2.071   6.721
10121TIP3    H230305   7.213   1.940   6.746
10122TIP3   OH230306   7.044   2.107   5.641
10122TIP3    H130307   6.999   2.093   5.556
10122TIP3    H230308   7.013   2.197   5.667
10123TIP3   OH230309   6.483   1.957   6.025
10123TIP3    H130310   6.533   1.948   6.109
10123TIP3    H230311   6.421   1.883   6.035
10124TIP3   OH230312   7.246   2.007   5.282
10124TIP3    H130313   7.307   1.939   5.246
10124TIP3    H230314   7.280   2.019   5.373
10125TIP3   OH230315   7.295   2.055   5.552
10125TIP3    H130316   7.208   2.066   5.596
10125TIP3    H230317   7.348   2.018   5.625
10126TIP3   OH230318   6.665   1.731   6.856
10126TIP3    H130319   6.715   1.714   6.938
10126TIP3    H230320   6.591   1.666   6.864
10127TIP3   OH230321   7.497   1.227   5.307
10127TIP3    H130322   7.464   1.203   5.219
10127TIP3    H230323   7.575   1.281   5.284
10128TIP3   OH230324   7.014   1.078   6.670
10128TIP3    H130325   6.952   1.096   6.744
10128TIP3    H230326   6.992   1.152   6.609
10129TIP3   OH230327   6.887   0.949   6.168
10129TIP3    H130328   6.793   0.930   6.188
10129TIP3    H230329   6.889   0.927   6.073
10130TIP3   OH230330   7.366   1.043   5.893
10130TIP3    H130331   7.315   1.116   5.852
10130TIP3    H230332   7.426   1.017   5.822
10131TIP3   OH230333   7.510   1.098   6.145
10131TIP3    H130334   7.456   1.128   6.070
10131TIP3    H230335   7.545   1.014   6.106
10132TIP3   OH230336   6.818   1.111   6.862
10132TIP3    H130337   6.833   1.164   6.941
10132TIP3    H230338   6.777   1.030   6.896
10133TIP3   OH230339   6.439   0.651   6.006
10133TIP3    H130340   6.451   0.669   5.911
10133TIP3    H230341   6.352   0.692   6.019
10134TIP3   OH230342   7.530   1.326   6.568
10134TIP3    H130343   7.571   1.264   6.503
10134TIP3    H230344   7.514   1.263   6.641
10135TIP3   OH230345   6.634   0.841   6.217
10135TIP3    H130346   6.539   0.866   6.205
10135TIP3    H230347   6.625   0.745   6.217
10136TIP3   OH230348   6.926   0.832   5.920
10136TIP3    H130349   7.017   0.851   5.890
10136TIP3    H230350   6.871   0.852   5.841
10137TIP3   OH230351   6.752   0.859   5.708
10137TIP3    H130352   6.676   0.818   5.662
10137TIP3    H230353   6.801   0.896   5.631
10138TIP3   OH230354   7.867   2.541   6.653
10138TIP3    H130355   7.868   2.570   6.559
10138TIP3    H230356   7.940   2.595   6.689
10139TIP3   OH230357   6.825   1.653   7.075
10139TIP3    H130358   6.905   1.684   7.122
10139TIP3    H230359   6.761   1.652   7.149
10140TIP3   OH230360   7.281   1.100   6.328
10140TIP3    H130361   7.365   1.074   6.289
10140TIP3    H230362   7.288   1.064   6.420
10141TIP3   OH230363   7.280   1.021   6.593
10141TIP3    H130364   7.188   1.025   6.625
10141TIP3    H230365   7.330   1.060   6.667
10142TIP3   OH230366   7.004   1.395   5.714
10142TIP3    H130367   6.932   1.329   5.705
10142TIP3    H230368   6.986   1.429   5.805
10143TIP3   OH230369   7.909   1.629   6.344
10143TIP3    H130370   7.926   1.678   6.261
10143TIP3    H230371   7.823   1.585   6.326
10144TIP3   OH230372   7.434   0.750   5.520
10144TIP3    H130373   7.375   0.698   5.577
10144TIP3    H230374   7.479   0.809   5.584
10145TIP3   OH230375   7.401   1.713   6.713
10145TIP3    H130376   7.420   1.693   6.806
10145TIP3    H230377   7.363   1.803   6.718
10146TIP3   OH230378   7.537   0.952   5.681
10146TIP3    H130379   7.630   0.968   5.709
10146TIP3    H230380   7.516   1.032   5.629
10147TIP3   OH230381   6.696   1.416   6.392
10147TIP3    H130382   6.734   1.385   6.307
10147TIP3    H230383   6.734   1.353   6.455
10148TIP3   OH230384   7.146   1.542   5.530
10148TIP3    H130385   7.100   1.629   5.537
10148TIP3    H230386   7.095   1.489   5.594
10149TIP3   OH230387   6.578   1.337   7.001
10149TIP3    H130388   6.600   1.327   7.096
10149TIP3    H230389   6.509   1.270   6.990
10150TIP3   OH230390   7.292   1.460   7.023
10150TIP3    H130391   7.230   1.395   6.985
10150TIP3    H230392   7.377   1.433   6.988
10151TIP3   OH230393   7.557   1.975   6.605
10151TIP3    H130394   7.461   1.974   6.621
10151TIP3    H230395   7.588   2.023   6.684
10152TIP3   OH230396   8.000   1.060   5.504
10152TIP3    H130397   7.932   1.002   5.465
10152TIP3    H230398   7.981   1.144   5.457
10153TIP3   OH230399   8.201   1.948   6.550
10153TIP3    H130400   8.119   1.912   6.589
10153TIP3    H230401   8.219   1.879   6.483
10154TIP3   OH230402   7.669   1.863   5.422
10154TIP3    H130403   7.651   1.793   5.487
10154TIP3    H230404   7.687   1.814   5.340
10155TIP3   OH230405   7.670   1.494   6.263
10155TIP3    H130406   7.576   1.469   6.276
10155TIP3    H230407   7.704   1.414   6.220
10156TIP3   OH230408   6.796   1.717   6.011
10156TIP3    H130409   6.797   1.801   5.961
10156TIP3    H230410   6.702   1.706   6.029
10157TIP3   OH230411   6.360   1.023   5.716
10157TIP3    H130412   6.407   1.106   5.739
10157TIP3    H230413   6.284   1.027   5.778
10158TIP3   OH230414   6.938   1.485   5.958
10158TIP3    H130415   6.901   1.574   5.977
10158TIP3    H230416   6.903   1.435   6.034
10159TIP3   OH230417   7.065   2.064   6.485
10159TIP3    H130418   7.107   2.137   6.436
10159TIP3    H230419   7.141   2.030   6.535
10160TIP3   OH230420   6.717   1.959   5.867
10160TIP3    H130421   6.632   1.967   5.914
10160TIP3    H230422   6.749   2.051   5.870
10161TIP3   OH230423   7.452   1.695   6.444
10161TIP3    H130424   7.445   1.694   6.542
10161TIP3    H230425   7.539   1.655   6.432
10162TIP3   OH230426   7.426   1.584   5.328
10162TIP3    H130427   7.483   1.561   5.405
10162TIP3    H230428   7.339   1.565   5.364
10163TIP3   OH230429   7.703   2.230   6.491
10163TIP3    H130430   7.622   2.176   6.483
10163TIP3    H230431   7.689   2.297   6.421
10164TIP3   OH230432   7.769   2.065   5.147
10164TIP3    H130433   7.807   2.135   5.092
10164TIP3    H230434   7.689   2.112   5.179
10165TIP3   OH230435   7.588   1.521   5.542
10165TIP3    H130436   7.579   1.457   5.615
10165TIP3    H230437   7.686   1.521   5.531
10166TIP3   OH230438   6.505   1.925   6.645
10166TIP3    H130439   6.558   1.851   6.678
10166TIP3    H230440   6.532   1.996   6.705
10167TIP3   OH230441   6.794   1.565   5.321
10167TIP3    H130442   6.819   1.473   5.305
10167TIP3    H230443   6.776   1.563   5.417
10168TIP3   OH230444   6.744   1.576   5.593
10168TIP3    H130445   6.810   1.548   5.658
10168TIP3    H230446   6.746   1.674   5.604
10169TIP3   OH230447   6.478   1.271   5.802
10169TIP3    H130448   6.412   1.314   5.860
10169TIP3    H230449   6.491   1.341   5.735
10170TIP3   OH230450   7.005   1.772   5.541
10170TIP3    H130451   6.921   1.799   5.583
10170TIP3    H230452   7.026   1.853   5.492
10171TIP3   OH230453   7.211   0.827   5.948
10171TIP3    H130454   7.265   0.904   5.923
10171TIP3    H230455   7.228   0.822   6.043
10172TIP3   OH230456   7.479   1.143   6.770
10172TIP3    H130457   7.466   1.212   6.835
10172TIP3    H230458   7.544   1.084   6.812
10173TIP3   OH230459   6.747   1.848   5.614
10173TIP3    H130460   6.718   1.918   5.552
10173TIP3    H230461   6.732   1.891   5.701
10174TIP3   OH230462   7.758   1.254   6.137
10174TIP3    H130463   7.681   1.197   6.155
10174TIP3    H230464   7.829   1.209   6.187
10175TIP3   OH230465   6.466   1.481   5.607
10175TIP3    H130466   6.527   1.556   5.619
10175TIP3    H230467   6.517   1.430   5.540
10176TIP3   OH230468   6.413   0.751   5.748
10176TIP3    H130469   6.409   0.847   5.736
10176TIP3    H230470   6.334   0.720   5.701
10177TIP3   OH230471   7.724   2.203   6.086
10177TIP3    H130472   7.682   2.251   6.011
10177TIP3    H230473   7.818   2.224   6.066
10178TIP3   OH230474   6.339   1.689   5.996
10178TIP3    H130475   6.267   1.724   6.050
10178TIP3    H230476   6.318   1.730   5.909
10179TIP3   OH230477   6.494   2.232   7.068
10179TIP3    H130478   6.581   2.232   7.113
10179TIP3    H230479   6.475   2.137   7.065
10180TIP3   OH230480   6.975   2.203   7.109
10180TIP3    H130481   7.070   2.188   7.122
10180TIP3    H230482   6.956   2.143   7.035
10181TIP3   OH230483   6.955   1.775   5.236
10181TIP3    H130484   6.902   1.704   5.278
10181TIP3    H230485   7.035   1.726   5.212
10182TIP3   OH230486   7.612   2.099   6.842
10182TIP3    H130487   7.607   2.034   6.916
10182TIP3    H230488   7.688   2.154   6.870
10183TIP3   OH230489   7.393   1.814   5.148
10183TIP3    H130490   7.445   1.759   5.208
10183TIP3    H230491   7.450   1.818   5.068
10184TIP3   OH230492   6.624   1.644   7.265
10184TIP3    H130493   6.642   1.549   7.279
10184TIP3    H230494   6.538   1.642   7.219
10185TIP3   OH230495   6.604   1.293   5.459
10185TIP3    H130496   6.654   1.258   5.535
10185TIP3    H230497   6.675   1.298   5.392
10186TIP3   OH230498   7.237   1.731   7.038
10186TIP3    H130499   7.191   1.747   6.954
10186TIP3    H230500   7.259   1.635   7.033
10187TIP3   OH230501   7.103   1.488   5.263
10187TIP3    H130502   7.112   1.503   5.360
10187TIP3    H230503   7.108   1.390   5.260
10188TIP3   OH230504   7.704   1.740   6.603
10188TIP3    H130505   7.782   1.785   6.566
10188TIP3    H230506   7.639   1.814   6.603
10189TIP3   OH230507   6.745   1.365   7.242
10189TIP3    H130508   6.825   1.312   7.236
10189TIP3    H230509   6.758   1.401   7.333
10190TIP3   OH230510   6.811   1.196   5.682
10190TIP3    H130511   6.782   1.156   5.766
10190TIP3    H230512   6.847   1.119   5.633
10191TIP3   OH230513   7.086   1.275   6.917
10191TIP3    H130514   7.001   1.323   6.916
10191TIP3    H230515   7.123   1.296   6.829
10192TIP3   OH230516   6.910   0.989   5.524
10192TIP3    H130517   6.887   0.986   5.429
10192TIP3    H230518   7.008   0.992   5.519
10193TIP3   OH230519   7.583   1.645   7.031
10193TIP3    H130520   7.660   1.701   7.013
10193TIP3    H230521   7.600   1.615   7.121
10194TIP3   OH230522   7.731   1.319   5.181
10194TIP3    H130523   7.711   1.277   5.095
10194TIP3    H230524   7.701   1.411   5.161
10195TIP3   OH230525   7.193   1.048   7.025
10195TIP3    H130526   7.209   1.003   6.941
10195TIP3    H230527   7.152   1.131   6.993
10196TIP3   OH230528   7.251   1.374   6.714
10196TIP3    H130529   7.323   1.382   6.650
10196TIP3    H230530   7.187   1.439   6.678
10197TIP3   OH230531   7.854   1.643   6.805
10197TIP3    H130532   7.792   1.680   6.739
10197TIP3    H230533   7.939   1.667   6.768
10198TIP3   OH230534   7.074   1.157   7.259
10198TIP3    H130535   7.005   1.089   7.276
10198TIP3    H230536   7.114   1.125   7.176
10199TIP3   OH230537   6.717   2.048   5.424
10199TIP3    H130538   6.813   2.047   5.408
10199TIP3    H230539   6.688   2.100   5.347
10200TIP3   OH230540   6.198   1.434   5.642
10200TIP3    H130541   6.293   1.456   5.630
10200TIP3    H230542   6.194   1.344   5.602
10201TIP3   OH230543   6.115   2.045   6.055
10201TIP3    H130544   6.046   1.983   6.020
10201TIP3    H230545   6.157   1.988   6.123
10202TIP3   OH230546   6.250   1.898   6.242
10202TIP3    H130547   6.239   1.824   6.304
10202TIP3    H230548   6.301   1.959   6.298
10203TIP3   OH230549   7.976   2.296   6.043
10203TIP3    H130550   8.002   2.331   6.131
10203TIP3    H230551   8.037   2.343   5.984
10204TIP3   OH230552   8.006   2.316   6.324
10204TIP3    H130553   7.967   2.227   6.321
10204TIP3    H230554   8.079   2.299   6.387
10205TIP3   OH230555   7.866   1.510   5.517
10205TIP3    H130556   7.936   1.573   5.489
10205TIP3    H230557   7.908   1.471   5.596
10206TIP3   OH230558   7.993   1.383   5.721
10206TIP3    H130559   7.927   1.337   5.779
10206TIP3    H230560   8.057   1.418   5.786
10207TIP3   OH230561   8.054   1.767   6.152
10207TIP3    H130562   8.095   1.708   6.086
10207TIP3    H230563   8.039   1.848   6.099
10208TIP3   OH230564   7.883   2.063   6.351
10208TIP3    H130565   7.814   2.109   6.403
10208TIP3    H230566   7.830   2.017   6.282
10209TIP3   OH230567   7.930   1.287   5.363
10209TIP3    H130568   7.859   1.296   5.295
10209TIP3    H230569   7.905   1.361   5.421
10210TIP3   OH230570   7.797   0.937   5.327
10210TIP3    H130571   7.787   1.018   5.277
10210TIP3    H230572   7.750   0.873   5.272
10211TIP3   OH230573   7.810   1.243   5.869
10211TIP3    H130574   7.809   1.146   5.855
10211TIP3    H230575   7.798   1.250   5.966
10212TIP3   OH230576   6.436   1.307   6.614
10212TIP3    H130577   6.436   1.277   6.521
10212TIP3    H230578   6.533   1.307   6.632
10213TIP3   OH230579   7.794   0.971   5.796
10213TIP3    H130580   7.817   0.889   5.844
10213TIP3    H230581   7.853   0.958   5.719
10214TIP3   OH230582   7.971   1.135   6.268
10214TIP3    H130583   8.058   1.154   6.226
10214TIP3    H230584   7.988   1.176   6.356
10215TIP3   OH230585   8.028   1.278   6.490
10215TIP3    H130586   7.950   1.327   6.523
10215TIP3    H230587   8.082   1.348   6.450
10216TIP3   OH230588   6.664   1.047   7.336
10216TIP3    H130589   6.755   1.079   7.322
10216TIP3    H230590   6.685   0.967   7.387
10217TIP3   OH230591   6.414   0.966   6.685
10217TIP3    H130592   6.462   0.968   6.600
10217TIP3    H230593   6.452   1.043   6.730
10218TIP3   OH230594   7.559   2.163   5.699
10218TIP3    H130595   7.612   2.151   5.617
10218TIP3    H230596   7.612   2.229   5.747
10219TIP3   OH230597   6.661   1.969   7.086
10219TIP3    H130598   6.570   1.938   7.070
10219TIP3    H230599   6.675   1.948   7.179
10220TIP3   OH230600   6.838   1.997   6.632
10220TIP3    H130601   6.791   2.074   6.593
10220TIP3    H230602   6.925   2.012   6.589
10221TIP3   OH230603   7.284   2.245   6.767
10221TIP3    H130604   7.324   2.246   6.857
10221TIP3    H230605   7.351   2.296   6.717
10222TIP3   OH230606   7.465   2.395   6.628
10222TIP3    H130607   7.539   2.346   6.590
10222TIP3    H230608   7.514   2.455   6.689
10223TIP3   OH230609   6.515   2.256   6.657
10223TIP3    H130610   6.427   2.291   6.633
10223TIP3    H230611   6.525   2.293   6.745
10224TIP3   OH230612   6.752   2.234   6.514
10224TIP3    H130613   6.666   2.248   6.559
10224TIP3    H230614   6.733   2.269   6.425
10225TIP3   OH230615   7.179   2.266   6.311
10225TIP3    H130616   7.109   2.288   6.247
10225TIP3    H230617   7.191   2.352   6.356
10226TIP3   OH230618   7.447   2.202   6.361
10226TIP3    H130619   7.353   2.222   6.343
10226TIP3    H230620   7.491   2.280   6.325
10227TIP3   OH230621   7.654   2.396   6.280
10227TIP3    H130622   7.641   2.481   6.233
10227TIP3    H230623   7.681   2.336   6.207
10228TIP3   OH230624   6.428   2.051   6.402
10228TIP3    H130625   6.453   2.027   6.493
10228TIP3    H230626   6.500   2.005   6.352
10229TIP3   OH230627   6.621   1.921   6.257
10229TIP3    H130628   6.637   1.838   6.308
10229TIP3    H230629   6.711   1.959   6.253
10230TIP3   OH230630   6.886   2.017   6.261
10230TIP3    H130631   6.919   1.926   6.250
10230TIP3    H230632   6.928   2.040   6.345
10231TIP3   OH230633   6.217   1.821   5.794
10231TIP3    H130634   6.131   1.789   5.759
10231TIP3    H230635   6.205   1.916   5.782
10232TIP3   OH230636   6.987   2.013   5.375
10232TIP3    H130637   7.076   2.034   5.341
10232TIP3    H230638   6.965   1.939   5.315
10233TIP3   OH230639   7.705   2.129   5.468
10233TIP3    H130640   7.695   2.031   5.455
10233TIP3    H230641   7.661   2.162   5.386
10234TIP3   OH230642   6.290   1.849   5.433
10234TIP3    H130643   6.287   1.878   5.525
10234TIP3    H230644   6.380   1.810   5.425
10235TIP3   OH230645   7.924   2.274   6.661
10235TIP3    H130646   7.849   2.246   6.605
10235TIP3    H230647   7.912   2.371   6.660
10236TIP3   OH230648   8.473   1.946   5.897
10236TIP3    H130649   8.453   1.850   5.902
10236TIP3    H230650   8.569   1.944   5.892
10237TIP3   OH230651   8.175   1.166   5.708
10237TIP3    H130652   8.116   1.243   5.701
10237TIP3    H230653   8.131   1.106   5.645
10238TIP3   OH230654   8.235   1.445   5.850
10238TIP3    H130655   8.283   1.365   5.880
10238TIP3    H230656   8.281   1.466   5.768
10239TIP3   OH230657   8.381   1.232   5.950
10239TIP3    H130658   8.467   1.197   5.977
10239TIP3    H230659   8.355   1.172   5.878
10240TIP3   OH230660   8.660   1.999   6.182
10240TIP3    H130661   8.661   2.087   6.140
10240TIP3    H230662   8.567   1.998   6.212
10241TIP3   OH230663   8.074   1.675   5.415
10241TIP3    H130664   8.032   1.704   5.333
10241TIP3    H230665   8.103   1.760   5.454
10242TIP3   OH230666   8.663   2.236   6.412
10242TIP3    H130667   8.668   2.258   6.317
10242TIP3    H230668   8.579   2.276   6.437
10243TIP3   OH230669   8.253   1.772   6.344
10243TIP3    H130670   8.182   1.779   6.277
10243TIP3    H230671   8.250   1.677   6.362
10244TIP3   OH230672   8.113   1.997   5.990
10244TIP3    H130673   8.209   2.002   5.978
10244TIP3    H230674   8.097   2.079   6.040
10245TIP3   OH230675   8.275   2.210   5.513
10245TIP3    H130676   8.334   2.206   5.591
10245TIP3    H230677   8.215   2.137   5.533
10246TIP3   OH230678   8.408   2.012   6.316
10246TIP3    H130679   8.445   2.012   6.405
10246TIP3    H230680   8.341   1.942   6.326
10247TIP3   OH230681   8.230   0.896   5.479
10247TIP3    H130682   8.242   0.930   5.388
10247TIP3    H230683   8.148   0.943   5.502
10248TIP3   OH230684   8.488   1.659   5.897
10248TIP3    H130685   8.514   1.677   5.805
10248TIP3    H230686   8.549   1.589   5.922
10249TIP3   OH230687   8.156   1.278   5.204
10249TIP3    H130688   8.206   1.360   5.227
10249TIP3    H230689   8.081   1.285   5.265
10250TIP3   OH230690   8.506   2.186   5.344
10250TIP3    H130691   8.418   2.184   5.386
10250TIP3    H230692   8.543   2.264   5.389
10251TIP3   OH230693   8.297   2.185   6.131
10251TIP3    H130694   8.342   2.116   6.183
10251TIP3    H230695   8.313   2.263   6.185
10252TIP3   OH230696   8.266   1.524   5.280
10252TIP3    H130697   8.207   1.564   5.346
10252TIP3    H230698   8.277   1.598   5.218
10253TIP3   OH230699   8.256   1.740   5.096
10253TIP3    H130700   8.288   1.831   5.113
10253TIP3    H230701   8.317   1.715   5.025
10254TIP3   OH230702   8.211   1.010   5.233
10254TIP3    H130703   8.202   1.107   5.223
10254TIP3    H230704   8.134   0.977   5.183
10255TIP3   OH230705   8.127   1.939   5.485
10255TIP3    H130706   8.055   1.981   5.534
10255TIP3    H230707   8.121   1.985   5.399
10256TIP3   OH230708   8.297   2.469   6.535
10256TIP3    H130709   8.373   2.459   6.595
10256TIP3    H230710   8.256   2.380   6.539
10257TIP3   OH230711   7.990   1.689   5.131
10257TIP3    H130712   8.086   1.709   5.119
10257TIP3    H230713   7.985   1.600   5.090
10258TIP3   OH230714   7.909   2.302   5.542
10258TIP3    H130715   7.842   2.240   5.507
10258TIP3    H230716   7.953   2.246   5.609
10259TIP3   OH230717   8.046   2.155   5.728
10259TIP3    H130718   8.035   2.082   5.790
10259TIP3    H230719   8.099   2.217   5.783
10260TIP3   OH230720   8.248   1.552   6.100
10260TIP3    H130721   8.229   1.518   6.010
10260TIP3    H230722   8.331   1.599   6.083
10261TIP3   OH230723   8.216   1.226   6.177
10261TIP3    H130724   8.268   1.215   6.095
10261TIP3    H230725   8.236   1.317   6.201
10262TIP3   OH230726   8.644   2.263   6.117
10262TIP3    H130727   8.584   2.332   6.081
10262TIP3    H230728   8.724   2.289   6.070
10263TIP3   OH230729   8.307   2.511   6.146
10263TIP3    H130730   8.218   2.546   6.122
10263TIP3    H230731   8.322   2.560   6.228
10264TIP3   OH230732   8.544   2.484   6.000
10264TIP3    H130733   8.456   2.503   6.040
10264TIP3    H230734   8.532   2.521   5.910
10265TIP3   OH230735   8.224   2.307   5.886
10265TIP3    H130736   8.251   2.284   5.978
10265TIP3    H230737   8.298   2.264   5.837
10266TIP3   OH230738   8.420   2.178   5.745
10266TIP3    H130739   8.435   2.090   5.787
10266TIP3    H230740   8.512   2.204   5.726
10267TIP3   OH230741   8.014   2.078   5.279
10267TIP3    H130742   7.928   2.047   5.245
10267TIP3    H230743   8.003   2.173   5.266
10268TIP3   OH230744   8.077   2.091   4.923
10268TIP3    H130745   8.078   2.136   5.009
10268TIP3    H230746   8.167   2.054   4.916
10269TIP3   OH230747   1.651   2.432   7.114
10269TIP3    H130748   1.625   2.525   7.097
10269TIP3    H230749   1.572   2.386   7.082
10270TIP3   OH230750   1.651   2.435   7.485
10270TIP3    H130751   1.680   2.415   7.575
10270TIP3    H230752   1.605   2.354   7.458
10271TIP3   OH230753   1.888   2.738   7.174
10271TIP3    H130754   1.881   2.665   7.237
10271TIP3    H230755   1.922   2.810   7.229
10272TIP3   OH230756   0.916   2.749   7.586
10272TIP3    H130757   0.914   2.650   7.586
10272TIP3    H230758   1.012   2.762   7.583
10273TIP3   OH230759   0.720   2.284   7.513
10273TIP3    H130760   0.753   2.208   7.565
10273TIP3    H230761   0.776   2.280   7.435
10274TIP3   OH230762   1.540   3.199   7.189
10274TIP3    H130763   1.588   3.128   7.142
10274TIP3    H230764   1.534   3.164   7.279
10275TIP3   OH230765   1.446   2.658   7.542
10275TIP3    H130766   1.482   2.583   7.492
10275TIP3    H230767   1.530   2.701   7.566
10276TIP3   OH230768   1.847   2.146   7.586
10276TIP3    H130769   1.906   2.069   7.592
10276TIP3    H230770   1.828   2.148   7.490
10277TIP3   OH230771   1.220   1.814   7.520
10277TIP3    H130772   1.176   1.891   7.477
10277TIP3    H230773   1.144   1.765   7.555
10278TIP3   OH230774   1.892   1.912   7.160
10278TIP3    H130775   1.964   1.897   7.225
10278TIP3    H230776   1.944   1.948   7.085
10279TIP3   OH230777   1.276   2.222   7.426
10279TIP3    H130778   1.367   2.194   7.446
10279TIP3    H230779   1.232   2.136   7.406
10280TIP3   OH230780   1.545   2.655   6.982
10280TIP3    H130781   1.499   2.634   6.900
10280TIP3    H230782   1.502   2.740   7.006
10281TIP3   OH230783   1.287   2.596   7.797
10281TIP3    H130784   1.201   2.638   7.790
10281TIP3    H230785   1.334   2.626   7.717
10282TIP3   OH230786   2.101   1.914   7.332
10282TIP3    H130787   2.103   1.860   7.412
10282TIP3    H230788   2.156   1.991   7.357
10283TIP3   OH230789   0.541   2.460   7.096
10283TIP3    H130790   0.487   2.490   7.021
10283TIP3    H230791   0.558   2.542   7.145
10284TIP3   OH230792   1.966   2.979   7.343
10284TIP3    H130793   1.876   2.969   7.382
10284TIP3    H230794   1.956   3.064   7.297
10285TIP3   OH230795   1.669   3.026   7.018
10285TIP3    H130796   1.717   2.943   6.998
10285TIP3    H230797   1.730   3.090   6.976
10286TIP3   OH230798   1.810   2.811   6.921
10286TIP3    H130799   1.772   2.732   6.881
10286TIP3    H230800   1.845   2.776   7.006
10287TIP3   OH230801   2.187   2.894   7.685
10287TIP3    H130802   2.181   2.814   7.628
10287TIP3    H230803   2.173   2.966   7.621
10288TIP3   OH230804   1.481   2.283   6.942
10288TIP3    H130805   1.402   2.337   6.921
10288TIP3    H230806   1.529   2.285   6.857
10289TIP3   OH230807   1.441   2.071   6.655
10289TIP3    H130808   1.505   2.121   6.708
10289TIP3    H230809   1.500   2.005   6.613
10290TIP3   OH230810   2.386   2.522   7.534
10290TIP3    H130811   2.303   2.573   7.542
10290TIP3    H230812   2.414   2.549   7.444
10291TIP3   OH230813   1.827   2.367   6.913
10291TIP3    H130814   1.775   2.392   6.994
10291TIP3    H230815   1.913   2.343   6.955
10292TIP3   OH230816   2.072   2.405   7.816
10292TIP3    H130817   2.071   2.487   7.871
10292TIP3    H230818   1.984   2.411   7.775
10293TIP3   OH230819   1.062   2.369   7.327
10293TIP3    H130820   1.022   2.308   7.262
10293TIP3    H230821   1.139   2.316   7.359
10294TIP3   OH230822   1.193   2.781   7.480
10294TIP3    H130823   1.168   2.730   7.402
10294TIP3    H230824   1.283   2.746   7.498
10295TIP3   OH230825   1.194   2.335   7.684
10295TIP3    H130826   1.236   2.320   7.598
10295TIP3    H230827   1.241   2.411   7.722
10296TIP3   OH230828   1.723   2.974   7.461
10296TIP3    H130829   1.709   3.054   7.514
10296TIP3    H230830   1.706   2.902   7.524
10297TIP3   OH230831   1.670   2.225   6.740
10297TIP3    H130832   1.728   2.285   6.793
10297TIP3    H230833   1.698   2.250   6.648
10298TIP3   OH230834   1.412   2.907   7.014
10298TIP3    H130835   1.489   2.961   7.036
10298TIP3    H230836   1.350   2.972   6.978
10299TIP3   OH230837   2.184   1.468   6.786
10299TIP3    H130838   2.105   1.490   6.839
10299TIP3    H230839   2.200   1.552   6.739
10300TIP3   OH230840   0.927   2.207   7.135
10300TIP3    H130841   0.865   2.256   7.078
10300TIP3    H230842   0.882   2.122   7.142
10301TIP3   OH230843   1.984   2.834   6.335
10301TIP3    H130844   1.994   2.931   6.324
10301TIP3    H230845   2.077   2.803   6.323
10302TIP3   OH230846   0.572   2.819   7.655
10302TIP3    H130847   0.642   2.752   7.653
10302TIP3    H230848   0.562   2.837   7.749
10303TIP3   OH230849   2.430   3.233   7.726
10303TIP3    H130850   2.431   3.136   7.743
10303TIP3    H230851   2.346   3.258   7.770
10304TIP3   OH230852   1.526   3.029   7.845
10304TIP3    H130853   1.533   3.109   7.902
10304TIP3    H230854   1.472   2.968   7.899
10305TIP3   OH230855   1.294   3.153   6.817
10305TIP3    H130856   1.247   3.136   6.733
10305TIP3    H230857   1.261   3.242   6.842
10306TIP3   OH230858   0.732   3.003   7.202
10306TIP3    H130859   0.781   2.993   7.286
10306TIP3    H230860   0.677   2.922   7.204
10307TIP3   OH230861   1.496   3.054   6.458
10307TIP3    H130862   1.556   2.984   6.423
10307TIP3    H230863   1.528   3.063   6.550
10308TIP3   OH230864   1.545   3.100   6.729
10308TIP3    H130865   1.456   3.111   6.770
10308TIP3    H230866   1.594   3.059   6.801
10309TIP3   OH230867   2.328   2.357   7.963
10309TIP3    H130868   2.247   2.399   7.931
10309TIP3    H230869   2.293   2.301   8.034
10310TIP3   OH230870   1.742   2.274   6.483
10310TIP3    H130871   1.714   2.247   6.394
10310TIP3    H230872   1.824   2.323   6.462
10311TIP3   OH230873   1.463   1.654   6.782
10311TIP3    H130874   1.433   1.649   6.875
10311TIP3    H230875   1.422   1.572   6.748
10312TIP3   OH230876   1.118   2.002   7.348
10312TIP3    H130877   1.022   1.994   7.343
10312TIP3    H230878   1.144   1.963   7.261
10313TIP3   OH230879   1.621   2.087   7.075
10313TIP3    H130880   1.567   2.159   7.035
10313TIP3    H230881   1.676   2.059   6.999
10314TIP3   OH230882   1.780   2.118   7.316
10314TIP3    H130883   1.721   2.152   7.246
10314TIP3    H230884   1.809   2.036   7.271
10315TIP3   OH230885   1.112   1.622   6.762
10315TIP3    H130886   1.108   1.600   6.857
10315TIP3    H230887   1.020   1.650   6.751
10316TIP3   OH230888   1.801   2.381   7.726
10316TIP3    H130889   1.817   2.289   7.696
10316TIP3    H230890   1.762   2.370   7.815
10317TIP3   OH230891   1.467   1.824   7.404
10317TIP3    H130892   1.376   1.812   7.439
10317TIP3    H230893   1.516   1.836   7.486
10318TIP3   OH230894   1.164   1.886   7.105
10318TIP3    H130895   1.258   1.894   7.080
10318TIP3    H230896   1.116   1.902   7.021
10319TIP3   OH230897   1.944   1.887   7.626
10319TIP3    H130898   1.893   1.893   7.707
10319TIP3    H230899   1.885   1.829   7.573
10320TIP3   OH230900   0.998   1.916   6.891
10320TIP3    H130901   0.924   1.867   6.852
10320TIP3    H230902   1.047   1.942   6.810
10321TIP3   OH230903   2.126   3.590   7.824
10321TIP3    H130904   2.121   3.612   7.729
10321TIP3    H230905   2.205   3.640   7.852
10322TIP3   OH230906   1.541   2.152   7.496
10322TIP3    H130907   1.613   2.116   7.442
10322TIP3    H230908   1.566   2.126   7.585
10323TIP3   OH230909   1.253   2.439   6.891
10323TIP3    H130910   1.180   2.373   6.882
10323TIP3    H230911   1.235   2.473   6.982
10324TIP3   OH230912   2.156   2.674   7.522
10324TIP3    H130913   2.180   2.724   7.441
10324TIP3    H230914   2.071   2.633   7.498
10325TIP3   OH230915   1.712   1.755   6.744
10325TIP3    H130916   1.617   1.736   6.759
10325TIP3    H230917   1.723   1.846   6.778
10326TIP3   OH230918   1.784   1.997   6.856
10326TIP3    H130919   1.880   2.003   6.872
10326TIP3    H230920   1.766   2.079   6.805
10327TIP3   OH230921   0.967   2.485   7.568
10327TIP3    H130922   0.990   2.444   7.482
10327TIP3    H230923   0.988   2.413   7.629
10328TIP3   OH230924   1.396   2.587   6.709
10328TIP3    H130925   1.349   2.674   6.716
10328TIP3    H230926   1.343   2.534   6.773
10329TIP3   OH230927   1.795   2.987   7.771
10329TIP3    H130928   1.699   2.994   7.787
10329TIP3    H230929   1.827   3.059   7.829
10330TIP3   OH230930   2.215   2.074   6.697
10330TIP3    H130931   2.152   2.047   6.626
10330TIP3    H230932   2.230   2.167   6.672
10331TIP3   OH230933   2.437   2.947   7.772
10331TIP3    H130934   2.339   2.940   7.763
10331TIP3    H230935   2.465   2.915   7.684
10332TIP3   OH230936   1.921   2.908   6.600
10332TIP3    H130937   1.900   2.840   6.665
10332TIP3    H230938   1.935   2.857   6.518
10333TIP3   OH230939   1.918   2.540   7.439
10333TIP3    H130940   1.826   2.511   7.455
10333TIP3    H230941   1.954   2.460   7.396
10334TIP3   OH230942   1.045   2.763   7.189
10334TIP3    H130943   1.044   2.846   7.137
10334TIP3    H230944   0.951   2.747   7.203
10335TIP3   OH230945   0.595   2.075   6.889
10335TIP3    H130946   0.659   2.147   6.908
10335TIP3    H230947   0.530   2.092   6.959
10336TIP3   OH230948   1.187   2.531   7.135
10336TIP3    H130949   1.151   2.620   7.155
10336TIP3    H230950   1.152   2.479   7.210
10337TIP3   OH230951   1.311   3.111   7.658
10337TIP3    H130952   1.356   3.182   7.609
10337TIP3    H230953   1.386   3.072   7.707
10338TIP3   OH230954   0.965   3.004   7.044
10338TIP3    H130955   0.880   3.013   7.091
10338TIP3    H230956   0.998   3.096   7.047
10339TIP3   OH230957   1.704   2.735   7.619
10339TIP3    H130958   1.726   2.750   7.711
10339TIP3    H230959   1.782   2.686   7.588
10340TIP3   OH230960   1.677   2.633   6.503
10340TIP3    H130961   1.731   2.609   6.582
10340TIP3    H230962   1.589   2.609   6.535
10341TIP3   OH230963   1.951   3.276   7.668
10341TIP3    H130964   1.867   3.227   7.657
10341TIP3    H230965   1.940   3.345   7.598
10342TIP3   OH230966   2.018   3.113   6.325
10342TIP3    H130967   2.033   3.166   6.246
10342TIP3    H230968   1.938   3.156   6.362
10343TIP3   OH230969   1.837   2.568   6.719
10343TIP3    H130970   1.828   2.503   6.792
10343TIP3    H230971   1.934   2.566   6.707
10344TIP3   OH230972   1.044   2.616   6.502
10344TIP3    H130973   1.060   2.524   6.474
10344TIP3    H230974   1.027   2.605   6.598
10345TIP3   OH230975   0.991   2.620   6.774
10345TIP3    H130976   1.061   2.594   6.836
10345TIP3    H230977   0.994   2.718   6.781
10346TIP3   OH230978   0.729   2.310   6.972
10346TIP3    H130979   0.664   2.355   7.031
10346TIP3    H230980   0.745   2.382   6.908
10347TIP3   OH230981   1.757   1.702   7.033
10347TIP3    H130982   1.739   1.727   6.941
10347TIP3    H230983   1.792   1.785   7.070
10348TIP3   OH230984   1.254   2.817   6.722
10348TIP3    H130985   1.169   2.845   6.760
10348TIP3    H230986   1.271   2.892   6.663
10349TIP3   OH230987   1.448   1.884   7.140
10349TIP3    H130988   1.511   1.958   7.122
10349TIP3    H230989   1.450   1.880   7.238
10350TIP3   OH230990   1.600   1.615   7.252
10350TIP3    H130991   1.568   1.697   7.295
10350TIP3    H230992   1.652   1.651   7.177
10351TIP3   OH230993   0.997   2.893   6.790
10351TIP3    H130994   0.967   2.962   6.728
10351TIP3    H230995   0.981   2.936   6.877
10352TIP3   OH230996   1.113   1.614   7.057
10352TIP3    H130997   1.125   1.706   7.086
10352TIP3    H230998   1.206   1.585   7.057
10353TIP3   OH230999   2.336   2.088   7.853
10353TIP3    H131000   2.273   2.084   7.927
10353TIP3    H231001   2.326   2.183   7.831
10354TIP3   OH231002   2.008   2.293   7.318
10354TIP3    H131003   1.931   2.234   7.324
10354TIP3    H231004   2.078   2.242   7.363
10355TIP3   OH231005   0.718   2.526   6.781
10355TIP3    H131006   0.780   2.600   6.793
10355TIP3    H231007   0.766   2.475   6.714
10356TIP3   OH231008   0.662   1.806   6.920
10356TIP3    H131009   0.651   1.899   6.893
10356TIP3    H231010   0.644   1.754   6.841
10357TIP3   OH231011   1.972   3.251   7.264
10357TIP3    H131012   1.929   3.297   7.189
10357TIP3    H231013   2.066   3.269   7.243
10358TIP3   OH231014   0.593   2.748   7.177
10358TIP3    H131015   0.512   2.777   7.219
10358TIP3    H231016   0.577   2.778   7.086
10359TIP3   OH231017   1.208   2.820   6.415
10359TIP3    H131018   1.150   2.750   6.454
10359TIP3    H231019   1.283   2.767   6.384
10360TIP3   OH231020   1.851   3.179   7.954
10360TIP3    H131021   1.848   3.136   8.041
10360TIP3    H231022   1.911   3.251   7.973
10361TIP3   OH231023   1.645   2.861   6.326
10361TIP3    H131024   1.689   2.798   6.385
10361TIP3    H231025   1.700   2.859   6.246
10362TIP3   OH231026   0.851   2.335   6.635
10362TIP3    H131027   0.905   2.305   6.709
10362TIP3    H231028   0.920   2.342   6.565
10363TIP3   OH231029   1.358   2.533   6.441
10363TIP3    H131030   1.363   2.547   6.538
10363TIP3    H231031   1.356   2.435   6.437
10364TIP3   OH231032   1.967   2.778   7.812
10364TIP3    H131033   2.050   2.814   7.774
10364TIP3    H231034   1.907   2.854   7.798
10365TIP3   OH231035   1.059   2.239   6.859
10365TIP3    H131036   1.034   2.198   6.943
10365TIP3    H231037   1.095   2.162   6.810
10366TIP3   OH231038   1.159   2.032   6.699
10366TIP3    H131039   1.134   2.038   6.605
10366TIP3    H231040   1.257   2.037   6.693
10367TIP3   OH231041   1.979   2.366   6.360
10367TIP3    H131042   1.959   2.320   6.276
10367TIP3    H231043   1.947   2.456   6.337
10368TIP3   OH231044   2.111   2.615   7.982
10368TIP3    H131045   2.042   2.676   7.947
10368TIP3    H231046   2.191   2.653   7.938
10369TIP3   OH231047   0.966   3.095   6.602
10369TIP3    H131048   1.062   3.093   6.584
10369TIP3    H231049   0.935   3.144   6.524
10370TIP3   OH231050   0.455   2.468   6.825
10370TIP3    H131051   0.548   2.494   6.811
10370TIP3    H231052   0.450   2.382   6.780
10371TIP3   OH231053   0.359   3.092   7.234
10371TIP3    H131054   0.287   3.037   7.200
10371TIP3    H231055   0.399   3.034   7.302
10372TIP3   OH231056   0.486   2.948   7.427
10372TIP3    H131057   0.503   2.872   7.486
10372TIP3    H231058   0.543   3.012   7.473
10373TIP3   OH231059   2.222   3.347   7.219
10373TIP3    H131060   2.253   3.375   7.307
10373TIP3    H231061   2.288   3.386   7.160
10374TIP3   OH231062   2.255   3.363   7.501
10374TIP3    H131063   2.211   3.275   7.495
10374TIP3    H231064   2.331   3.338   7.557
10375TIP3   OH231065   2.296   3.049   8.035
10375TIP3    H131066   2.215   3.041   8.087
10375TIP3    H231067   2.326   3.140   8.054
10376TIP3   OH231068   2.113   2.557   6.690
10376TIP3    H131069   2.187   2.614   6.663
10376TIP3    H231070   2.149   2.521   6.774
10377TIP3   OH231071   2.229   2.440   6.901
10377TIP3    H131072   2.181   2.375   6.955
10377TIP3    H231073   2.316   2.445   6.945
10378TIP3   OH231074   2.298   2.812   7.330
10378TIP3    H131075   2.348   2.744   7.280
10378TIP3    H231076   2.289   2.883   7.265
10379TIP3   OH231077   2.131   3.114   7.524
10379TIP3    H131078   2.058   3.153   7.575
10379TIP3    H231079   2.083   3.064   7.455
10380TIP3   OH231080   2.182   2.326   6.543
10380TIP3    H131081   2.109   2.334   6.478
10380TIP3    H231082   2.159   2.400   6.604
10381TIP3   OH231083   2.046   2.000   6.496
10381TIP3    H131084   2.008   2.040   6.418
10381TIP3    H231085   2.022   1.905   6.484
10382TIP3   OH231086   2.053   2.271   7.046
10382TIP3    H131087   2.069   2.176   7.040
10382TIP3    H231088   2.046   2.287   7.142
10383TIP3   OH231089   2.347   2.685   7.868
10383TIP3    H131090   2.430   2.636   7.888
10383TIP3    H231091   2.382   2.772   7.842
10384TIP3   OH231092   2.550   2.512   7.930
10384TIP3    H131093   2.469   2.462   7.952
10384TIP3    H231094   2.614   2.440   7.920
10385TIP3   OH231095   2.000   1.729   6.478
10385TIP3    H131096   2.077   1.708   6.536
10385TIP3    H231097   1.928   1.676   6.516
10386TIP3   OH231098   2.057   1.991   6.939
10386TIP3    H131099   2.098   1.902   6.952
10386TIP3    H231100   2.117   2.026   6.870
10387TIP3   OH231101   2.224   2.155   7.438
10387TIP3    H131102   2.308   2.186   7.397
10387TIP3    H231103   2.230   2.203   7.523
10388TIP3   OH231104   2.278   2.293   7.670
10388TIP3    H131105   2.204   2.338   7.716
10388TIP3    H231106   2.326   2.369   7.632
10389TIP3   OH231107   2.163   1.740   6.981
10389TIP3    H131108   2.214   1.724   7.063
10389TIP3    H231109   2.103   1.663   6.980
10390TIP3   OH231110   2.243   1.680   6.608
10390TIP3    H131111   2.293   1.610   6.562
10390TIP3    H231112   2.309   1.753   6.611
10391TIP3   OH231113   1.809   3.208   6.876
10391TIP3    H131114   1.862   3.194   6.795
10391TIP3    H231115   1.862   3.274   6.923
10392TIP3   OH231116   1.057   3.060   7.823
10392TIP3    H131117   1.045   3.139   7.767
10392TIP3    H231118   1.148   3.036   7.801
10393TIP3   OH231119   1.561   3.281   7.964
10393TIP3    H131120   1.596   3.347   8.028
10393TIP3    H231121   1.604   3.317   7.884
10394TIP3   OH231122   1.711   3.444   7.799
10394TIP3    H131123   1.783   3.387   7.769
10394TIP3    H231124   1.757   3.499   7.866
10395TIP3   OH231125   2.488   1.848   7.815
10395TIP3    H131126   2.425   1.852   7.890
10395TIP3    H231127   2.537   1.767   7.841
10396TIP3   OH231128   0.986   3.286   7.686
10396TIP3    H131129   0.907   3.326   7.724
10396TIP3    H231130   0.976   3.308   7.591
10397TIP3   OH231131   1.430   3.310   7.487
10397TIP3    H131132   1.358   3.330   7.424
10397TIP3    H231133   1.440   3.396   7.533
10398TIP3   OH231134   1.697   3.249   7.541
10398TIP3    H131135   1.602   3.265   7.522
10398TIP3    H231136   1.737   3.327   7.501
10399TIP3   OH231137   1.909   3.444   7.458
10399TIP3    H131138   1.891   3.527   7.408
10399TIP3    H231139   1.931   3.381   7.385
10400TIP3   OH231140   0.679   3.100   7.569
10400TIP3    H131141   0.701   3.079   7.660
10400TIP3    H231142   0.747   3.047   7.521
10401TIP3   OH231143   0.870   2.966   7.431
10401TIP3    H131144   0.884   2.883   7.483
10401TIP3    H231145   0.961   3.003   7.428
10402TIP3   OH231146   1.136   3.061   7.439
10402TIP3    H131147   1.166   2.969   7.426
10402TIP3    H231148   1.182   3.081   7.523
10403TIP3   OH231149   1.733   1.729   7.535
10403TIP3    H131150   1.679   1.659   7.575
10403TIP3    H231151   1.781   1.681   7.466
10404TIP3   OH231152   2.238   1.619   7.449
10404TIP3    H131153   2.274   1.654   7.365
10404TIP3    H231154   2.142   1.617   7.429
10405TIP3   OH231155   2.330   1.692   7.200
10405TIP3    H131156   2.402   1.642   7.156
10405TIP3    H231157   2.364   1.784   7.183
10406TIP3   OH231158   1.380   1.508   7.420
10406TIP3    H131159   1.457   1.530   7.366
10406TIP3    H231160   1.417   1.452   7.489
10407TIP3   OH231161   1.962   1.604   7.403
10407TIP3    H131162   1.946   1.572   7.313
10407TIP3    H231163   1.941   1.525   7.458
10408TIP3   OH231164   1.979   1.527   6.968
10408TIP3    H131165   1.894   1.572   6.981
10408TIP3    H231166   1.964   1.443   7.016
10409TIP3   OH231167   0.453   2.871   6.976
10409TIP3    H131168   0.387   2.824   6.924
10409TIP3    H231169   0.442   2.962   6.942
10410TIP3   OH231170   1.389   1.640   7.042
10410TIP3    H131171   1.422   1.576   7.107
10410TIP3    H231172   1.418   1.725   7.081
10411TIP3   OH231173   1.236   3.058   6.552
10411TIP3    H131174   1.325   3.080   6.516
10411TIP3    H231175   1.214   2.983   6.492
10412TIP3   OH231176   1.956   3.174   6.644
10412TIP3    H131177   1.947   3.076   6.634
10412TIP3    H231178   1.906   3.204   6.565
10413TIP3   OH231179   0.539   2.889   6.612
10413TIP3    H131180   0.540   2.932   6.698
10413TIP3    H231181   0.630   2.854   6.603
10414TIP3   OH231182   2.185   3.322   7.822
10414TIP3    H131183   2.109   3.288   7.770
10414TIP3    H231184   2.167   3.418   7.820
10415TIP3   OH231185   3.448   2.688   6.599
10415TIP3    H131186   3.423   2.782   6.584
10415TIP3    H231187   3.366   2.644   6.571
10416TIP3   OH231188   3.443   2.689   6.977
10416TIP3    H131189   3.476   2.665   7.066
10416TIP3    H231190   3.402   2.606   6.948
10417TIP3   OH231191   2.746   2.592   7.344
10417TIP3    H131192   2.779   2.523   7.405
10417TIP3    H231193   2.827   2.643   7.328
10418TIP3   OH231194   3.683   2.994   6.662
10418TIP3    H131195   3.681   2.922   6.726
10418TIP3    H231196   3.724   3.066   6.714
10419TIP3   OH231197   2.715   2.998   7.071
10419TIP3    H131198   2.709   2.900   7.073
10419TIP3    H231199   2.812   3.008   7.067
10420TIP3   OH231200   2.489   2.489   7.026
10420TIP3    H131201   2.529   2.412   7.070
10420TIP3    H231202   2.522   2.470   6.935
10421TIP3   OH231203   3.336   3.454   6.677
10421TIP3    H131204   3.383   3.384   6.627
10421TIP3    H231205   3.335   3.417   6.766
10422TIP3   OH231206   3.246   2.917   7.028
10422TIP3    H131207   3.283   2.840   6.983
10422TIP3    H231208   3.330   2.962   7.052
10423TIP3   OH231209   4.258   2.236   7.026
10423TIP3    H131210   4.284   2.317   7.074
10423TIP3    H231211   4.273   2.265   6.934
10424TIP3   OH231212   3.657   2.418   7.063
10424TIP3    H131213   3.700   2.333   7.082
10424TIP3    H231214   3.626   2.403   6.971
10425TIP3   OH231215   2.992   2.080   7.026
10425TIP3    H131216   2.965   2.149   6.961
10425TIP3    H231217   2.952   2.002   6.981
10426TIP3   OH231218   3.689   2.167   6.649
10426TIP3    H131219   3.760   2.150   6.715
10426TIP3    H231220   3.742   2.205   6.577
10427TIP3   OH231221   2.615   2.266   7.137
10427TIP3    H131222   2.708   2.247   7.159
10427TIP3    H231223   2.616   2.253   7.039
10428TIP3   OH231224   3.066   2.474   6.924
10428TIP3    H131225   3.160   2.448   6.936
10428TIP3    H231226   3.027   2.389   6.893
10429TIP3   OH231227   4.326   2.438   7.203
10429TIP3    H131228   4.250   2.494   7.178
10429TIP3    H231229   4.359   2.485   7.282
10430TIP3   OH231230   2.988   2.061   7.463
10430TIP3    H131231   2.936   2.096   7.388
10430TIP3    H231232   2.928   2.081   7.537
10431TIP3   OH231233   3.342   2.913   6.467
10431TIP3    H131234   3.293   2.891   6.387
10431TIP3    H231235   3.298   2.996   6.493
10432TIP3   OH231236   3.099   2.836   7.258
10432TIP3    H131237   3.036   2.901   7.295
10432TIP3    H231238   3.141   2.887   7.186
10433TIP3   OH231239   3.903   2.169   6.818
10433TIP3    H131240   3.885   2.125   6.902
10433TIP3    H231241   3.953   2.248   6.846
10434TIP3   OH231242   2.863   2.172   7.245
10434TIP3    H131243   2.923   2.248   7.266
10434TIP3    H231244   2.910   2.135   7.167
10435TIP3   OH231245   2.923   3.028   7.354
10435TIP3    H131246   2.898   3.114   7.314
10435TIP3    H231247   2.845   3.013   7.411
10436TIP3   OH231248   2.321   2.719   6.588
10436TIP3    H131249   2.281   2.750   6.505
10436TIP3    H231250   2.355   2.801   6.628
10437TIP3   OH231251   3.757   3.237   6.830
10437TIP3    H131252   3.667   3.226   6.867
10437TIP3    H231253   3.749   3.323   6.786
10438TIP3   OH231254   4.051   2.129   7.189
10438TIP3    H131255   3.965   2.167   7.164
10438TIP3    H231256   4.111   2.167   7.122
10439TIP3   OH231257   3.367   1.785   7.174
10439TIP3    H131258   3.358   1.692   7.145
10439TIP3    H231259   3.280   1.803   7.216
10440TIP3   OH231260   3.462   3.283   6.502
10440TIP3    H131261   3.512   3.200   6.484
10440TIP3    H231262   3.525   3.347   6.462
10441TIP3   OH231263   3.606   3.067   6.409
10441TIP3    H131264   3.563   2.988   6.373
10441TIP3    H231265   3.640   3.033   6.495
10442TIP3   OH231266   3.985   3.153   7.174
10442TIP3    H131267   3.980   3.073   7.117
10442TIP3    H231268   3.979   3.224   7.108
10443TIP3   OH231269   3.275   2.539   6.427
10443TIP3    H131270   3.196   2.593   6.408
10443TIP3    H231271   3.324   2.544   6.343
10444TIP3   OH231272   3.237   2.328   6.141
10444TIP3    H131273   3.299   2.377   6.197
10444TIP3    H231274   3.297   2.263   6.100
10445TIP3   OH231275   4.167   2.758   6.993
10445TIP3    H131276   4.113   2.832   7.027
10445TIP3    H231277   4.222   2.809   6.930
10446TIP3   OH231278   3.625   2.623   6.402
10446TIP3    H131279   3.571   2.648   6.480
10446TIP3    H231280   3.710   2.599   6.446
10447TIP3   OH231281   3.860   2.663   7.313
10447TIP3    H131282   3.863   2.745   7.366
10447TIP3    H231283   3.776   2.676   7.265
10448TIP3   OH231284   2.859   2.625   6.813
10448TIP3    H131285   2.814   2.565   6.750
10448TIP3    H231286   2.932   2.568   6.846
10449TIP3   OH231287   2.989   3.037   6.966
10449TIP3    H131288   2.966   2.988   6.886
10449TIP3    H231289   3.079   3.002   6.986
10450TIP3   OH231290   3.001   2.591   7.176
10450TIP3    H131291   3.025   2.573   7.083
10450TIP3    H231292   3.039   2.679   7.192
10451TIP3   OH231293   3.513   3.232   6.948
10451TIP3    H131294   3.508   3.310   7.006
10451TIP3    H231295   3.504   3.158   7.011
10452TIP3   OH231296   3.132   3.154   7.494
10452TIP3    H131297   3.072   3.213   7.544
10452TIP3    H231298   3.067   3.098   7.447
10453TIP3   OH231299   3.469   2.482   6.226
10453TIP3    H131300   3.525   2.542   6.280
10453TIP3    H231301   3.496   2.507   6.135
10454TIP3   OH231302   2.888   2.705   7.601
10454TIP3    H131303   2.892   2.794   7.643
10454TIP3    H231304   2.791   2.689   7.605
10455TIP3   OH231305   3.206   3.164   6.503
10455TIP3    H131306   3.287   3.215   6.521
10455TIP3    H231307   3.148   3.231   6.464
10456TIP3   OH231308   2.925   3.322   7.583
10456TIP3    H131309   2.890   3.318   7.492
10456TIP3    H231310   2.846   3.299   7.638
10457TIP3   OH231311   3.983   1.721   6.275
10457TIP3    H131312   3.902   1.742   6.326
10457TIP3    H231313   3.997   1.806   6.228
10458TIP3   OH231314   2.733   2.463   6.610
10458TIP3    H131315   2.652   2.491   6.563
10458TIP3    H231316   2.696   2.398   6.674
10459TIP3   OH231317   3.779   3.091   5.823
10459TIP3    H131318   3.788   3.188   5.809
10459TIP3    H231319   3.873   3.062   5.811
10460TIP3   OH231320   2.506   2.849   7.530
10460TIP3    H131321   2.441   2.826   7.460
10460TIP3    H231322   2.544   2.761   7.553
10461TIP3   OH231323   2.358   3.045   7.160
10461TIP3    H131324   2.454   3.031   7.153
10461TIP3    H231325   2.354   3.121   7.220
10462TIP3   OH231326   4.221   3.495   7.211
10462TIP3    H131327   4.227   3.398   7.225
10462TIP3    H231328   4.140   3.515   7.263
10463TIP3   OH231329   3.329   3.281   7.352
10463TIP3    H131330   3.328   3.373   7.386
10463TIP3    H231331   3.258   3.240   7.406
10464TIP3   OH231332   3.086   3.408   6.306
10464TIP3    H131333   3.046   3.392   6.219
10464TIP3    H231334   3.059   3.500   6.325
10465TIP3   OH231335   2.527   3.260   6.690
10465TIP3    H131336   2.577   3.250   6.775
10465TIP3    H231337   2.475   3.177   6.692
10466TIP3   OH231338   3.290   3.308   5.946
10466TIP3    H131339   3.350   3.240   5.909
10466TIP3    H231340   3.325   3.319   6.037
10467TIP3   OH231341   3.339   3.357   6.218
10467TIP3    H131342   3.252   3.365   6.261
10467TIP3    H231343   3.392   3.317   6.289
10468TIP3   OH231344   4.115   2.618   7.494
10468TIP3    H131345   4.038   2.640   7.439
10468TIP3    H231346   4.125   2.522   7.479
10469TIP3   OH231347   2.708   3.035   7.523
10469TIP3    H131348   2.761   3.015   7.603
10469TIP3    H231349   2.636   2.969   7.529
10470TIP3   OH231350   3.112   1.848   7.303
10470TIP3    H131351   3.023   1.822   7.273
10470TIP3    H231352   3.092   1.937   7.337
10471TIP3   OH231353   3.642   1.973   7.496
10471TIP3    H131354   3.708   1.948   7.563
10471TIP3    H231355   3.557   1.954   7.540
10472TIP3   OH231356   3.881   2.398   7.412
10472TIP3    H131357   3.834   2.397   7.498
10472TIP3    H231358   3.863   2.489   7.379
10473TIP3   OH231359   3.538   2.527   5.967
10473TIP3    H131360   3.511   2.503   5.877
10473TIP3    H231361   3.617   2.582   5.949
10474TIP3   OH231362   3.255   1.907   6.272
10474TIP3    H131363   3.225   1.905   6.366
10474TIP3    H231364   3.217   1.823   6.241
10475TIP3   OH231365   3.041   2.369   7.322
10475TIP3    H131366   2.990   2.397   7.401
10475TIP3    H231367   3.030   2.448   7.265
10476TIP3   OH231368   2.921   2.254   6.832
10476TIP3    H131369   2.822   2.265   6.833
10476TIP3    H231370   2.929   2.204   6.748
10477TIP3   OH231371   3.417   2.344   6.562
10477TIP3    H131372   3.362   2.415   6.522
10477TIP3    H231373   3.470   2.316   6.485
10478TIP3   OH231374   3.590   2.623   7.645
10478TIP3    H131375   3.572   2.551   7.710
10478TIP3    H231376   3.682   2.644   7.667
10479TIP3   OH231377   3.573   2.371   6.804
10479TIP3    H131378   3.515   2.405   6.733
10479TIP3    H231379   3.604   2.289   6.760
10480TIP3   OH231380   2.860   2.406   7.527
10480TIP3    H131381   2.889   2.473   7.591
10480TIP3    H231382   2.850   2.326   7.580
10481TIP3   OH231383   2.905   1.875   6.238
10481TIP3    H131384   2.905   1.874   6.336
10481TIP3    H231385   2.831   1.935   6.222
10482TIP3   OH231386   2.458   1.914   7.116
10482TIP3    H131387   2.526   1.961   7.169
10482TIP3    H231388   2.495   1.916   7.027
10483TIP3   OH231389   2.425   1.901   6.624
10483TIP3    H131390   2.488   1.946   6.564
10483TIP3    H231391   2.371   1.977   6.655
10484TIP3   OH231392   3.574   2.618   7.224
10484TIP3    H131393   3.612   2.547   7.167
10484TIP3    H231394   3.552   2.567   7.304
10485TIP3   OH231395   3.253   2.086   6.894
10485TIP3    H131396   3.168   2.075   6.940
10485TIP3    H231397   3.316   2.081   6.968
10486TIP3   OH231398   2.961   2.125   6.592
10486TIP3    H131399   3.052   2.151   6.569
10486TIP3    H231400   2.908   2.153   6.514
10487TIP3   OH231401   3.743   2.154   7.094
10487TIP3    H131402   3.710   2.168   7.186
10487TIP3    H231403   3.675   2.092   7.061
10488TIP3   OH231404   2.801   2.155   6.371
10488TIP3    H131405   2.719   2.125   6.328
10488TIP3    H231406   2.848   2.196   6.295
10489TIP3   OH231407   3.911   3.847   7.316
10489TIP3    H131408   3.913   3.868   7.220
10489TIP3    H231409   3.992   3.893   7.347
10490TIP3   OH231410   2.878   2.956   7.734
10490TIP3    H131411   2.956   2.985   7.786
10490TIP3    H231412   2.811   2.952   7.806
10491TIP3   OH231413   3.336   2.408   6.993
10491TIP3    H131414   3.407   2.368   6.940
10491TIP3    H231415   3.349   2.366   7.080
10492TIP3   OH231416   2.881   1.889   6.875
10492TIP3    H131417   2.837   1.811   6.914
10492TIP3    H231418   2.929   1.852   6.800
10493TIP3   OH231419   3.313   2.299   7.293
10493TIP3    H131420   3.225   2.340   7.297
10493TIP3    H231421   3.371   2.364   7.337
10494TIP3   OH231422   3.049   2.696   6.379
10494TIP3    H131423   2.977   2.629   6.370
10494TIP3    H231424   3.031   2.730   6.470
10495TIP3   OH231425   3.945   2.939   7.013
10495TIP3    H131426   3.978   2.980   6.929
10495TIP3    H231427   3.865   2.892   6.983
10496TIP3   OH231428   3.504   2.014   6.224
10496TIP3    H131429   3.410   1.994   6.245
10496TIP3    H231430   3.518   2.103   6.263
10497TIP3   OH231431   3.444   3.011   7.377
10497TIP3    H131432   3.478   2.992   7.465
10497TIP3    H231433   3.410   3.101   7.385
10498TIP3   OH231434   3.578   2.252   6.340
10498TIP3    H131435   3.674   2.260   6.362
10498TIP3    H231436   3.561   2.336   6.293
10499TIP3   OH231437   2.750   2.726   7.056
10499TIP3    H131438   2.774   2.691   6.968
10499TIP3    H231439   2.768   2.650   7.113
10500TIP3   OH231440   3.192   2.843   6.196
10500TIP3    H131441   3.146   2.930   6.202
10500TIP3    H231442   3.138   2.790   6.259
10501TIP3   OH231443   2.621   2.636   7.668
10501TIP3    H131444   2.635   2.628   7.764
10501TIP3    H231445   2.546   2.576   7.653
10502TIP3   OH231446   3.348   2.749   7.689
10502TIP3    H131447   3.293   2.696   7.630
10502TIP3    H231448   3.438   2.719   7.662
10503TIP3   OH231449   3.607   3.277   7.269
10503TIP3    H131450   3.511   3.273   7.284
10503TIP3    H231451   3.636   3.326   7.349
10504TIP3   OH231452   4.019   2.343   6.181
10504TIP3    H131453   3.956   2.300   6.118
10504TIP3    H231454   4.017   2.433   6.142
10505TIP3   OH231455   4.236   3.219   7.263
10505TIP3    H131456   4.141   3.202   7.250
10505TIP3    H231457   4.275   3.160   7.194
10506TIP3   OH231458   3.715   3.165   6.087
10506TIP3    H131459   3.696   3.095   6.150
10506TIP3    H231460   3.732   3.116   6.004
10507TIP3   OH231461   3.712   2.794   6.928
10507TIP3    H131462   3.619   2.766   6.938
10507TIP3    H231463   3.750   2.716   6.882
10508TIP3   OH231464   2.842   3.020   6.679
10508TIP3    H131465   2.841   3.101   6.624
10508TIP3    H231466   2.748   3.002   6.688
10509TIP3   OH231467   2.401   2.326   6.378
10509TIP3    H131468   2.452   2.405   6.405
10509TIP3    H231469   2.329   2.328   6.445
10510TIP3   OH231470   2.984   2.788   6.623
10510TIP3    H131471   2.947   2.876   6.644
10510TIP3    H231472   2.947   2.733   6.694
10511TIP3   OH231473   3.110   3.366   7.150
10511TIP3    H131474   3.154   3.436   7.098
10511TIP3    H231475   3.185   3.328   7.198
10512TIP3   OH231476   2.760   3.261   6.530
10512TIP3    H131477   2.675   3.268   6.579
10512TIP3    H231478   2.792   3.354   6.535
10513TIP3   OH231479   3.501   2.999   7.107
10513TIP3    H131480   3.492   2.993   7.205
10513TIP3    H231481   3.583   2.950   7.092
10514TIP3   OH231482   3.472   2.885   5.990
10514TIP3    H131483   3.526   2.863   6.069
10514TIP3    H231484   3.383   2.867   6.024
10515TIP3   OH231485   3.745   3.537   7.163
10515TIP3    H131486   3.670   3.476   7.154
10515TIP3    H231487   3.731   3.598   7.087
10516TIP3   OH231488   3.813   3.366   5.811
10516TIP3    H131489   3.849   3.435   5.753
10516TIP3    H231490   3.734   3.413   5.843
10517TIP3   OH231491   2.822   2.129   7.692
10517TIP3    H131492   2.768   2.185   7.750
10517TIP3    H231493   2.887   2.092   7.754
10518TIP3   OH231494   3.633   2.822   6.205
10518TIP3    H131495   3.624   2.759   6.280
10518TIP3    H231496   3.731   2.822   6.195
10519TIP3   OH231497   2.548   3.229   7.310
10519TIP3    H131498   2.600   3.150   7.333
10519TIP3    H231499   2.582   3.292   7.374
10520TIP3   OH231500   2.841   2.872   5.989
10520TIP3    H131501   2.855   2.780   5.961
10520TIP3    H231502   2.821   2.861   6.084
10521TIP3   OH231503   2.785   2.877   6.262
10521TIP3    H131504   2.855   2.848   6.322
10521TIP3    H231505   2.792   2.975   6.269
10522TIP3   OH231506   2.519   2.569   6.462
10522TIP3    H131507   2.456   2.611   6.524
10522TIP3    H231508   2.536   2.643   6.401
10523TIP3   OH231509   3.671   2.207   7.353
10523TIP3    H131510   3.747   2.250   7.394
10523TIP3    H231511   3.657   2.129   7.410
10524TIP3   OH231512   3.557   1.959   6.518
10524TIP3    H131513   3.538   1.989   6.427
10524TIP3    H231514   3.591   2.041   6.560
10525TIP3   OH231515   3.051   3.074   6.209
10525TIP3    H131516   2.966   3.102   6.246
10525TIP3    H231517   3.069   3.147   6.149
10526TIP3   OH231518   3.246   2.136   6.622
10526TIP3    H131519   3.307   2.211   6.609
10526TIP3    H231520   3.243   2.130   6.720
10527TIP3   OH231521   3.508   2.457   7.435
10527TIP3    H131522   3.529   2.514   7.512
10527TIP3    H231523   3.566   2.381   7.448
10528TIP3   OH231524   3.386   1.870   6.730
10528TIP3    H131525   3.373   1.948   6.787
10528TIP3    H231526   3.445   1.906   6.660
10529TIP3   OH231527   2.794   3.150   6.277
10529TIP3    H131528   2.763   3.219   6.214
10529TIP3    H231529   2.778   3.193   6.363
10530TIP3   OH231530   2.896   1.863   6.514
10530TIP3    H131531   2.890   1.952   6.553
10530TIP3    H231532   2.992   1.846   6.527
10531TIP3   OH231533   4.149   2.348   7.418
10531TIP3    H131534   4.051   2.347   7.417
10531TIP3    H231535   4.169   2.342   7.323
10532TIP3   OH231536   3.801   2.551   6.799
10532TIP3    H131537   3.727   2.491   6.816
10532TIP3    H231538   3.875   2.508   6.848
10533TIP3   OH231539   2.511   2.786   6.268
10533TIP3    H131540   2.580   2.854   6.280
10533TIP3    H231541   2.557   2.729   6.203
10534TIP3   OH231542   2.462   2.057   6.384
10534TIP3    H131543   2.462   2.154   6.393
10534TIP3    H231544   2.368   2.037   6.392
10535TIP3   OH231545   3.766   3.510   6.751
10535TIP3    H131546   3.725   3.558   6.676
10535TIP3    H231547   3.861   3.527   6.731
10536TIP3   OH231548   2.845   1.775   7.280
10536TIP3    H131549   2.815   1.748   7.190
10536TIP3    H231550   2.833   1.693   7.331
10537TIP3   OH231551   2.390   3.004   6.661
10537TIP3    H131552   2.311   3.027   6.712
10537TIP3    H231553   2.364   3.034   6.572
10538TIP3   OH231554   2.537   3.534   7.735
10538TIP3    H131555   2.625   3.530   7.777
10538TIP3    H231556   2.517   3.438   7.727
10539TIP3   OH231557   3.024   3.506   7.770
10539TIP3    H131558   3.116   3.479   7.783
10539TIP3    H231559   2.998   3.445   7.697
10540TIP3   OH231560   3.003   3.077   5.903
10540TIP3    H131561   2.947   3.005   5.940
10540TIP3    H231562   3.079   3.026   5.870
10541TIP3   OH231563   3.658   3.408   7.509
10541TIP3    H131564   3.650   3.336   7.576
10541TIP3    H231565   3.740   3.454   7.538
10542TIP3   OH231566   3.438   3.117   5.813
10542TIP3    H131567   3.490   3.059   5.871
10542TIP3    H231568   3.493   3.120   5.731
10543TIP3   OH231569   2.680   2.944   7.919
10543TIP3    H131570   2.698   2.849   7.933
10543TIP3    H231571   2.585   2.942   7.896
10544TIP3   OH231572   2.646   2.595   6.122
10544TIP3    H131573   2.698   2.561   6.197
10544TIP3    H231574   2.717   2.600   6.054
10545TIP3   OH231575   3.279   3.026   7.703
10545TIP3    H131576   3.240   3.040   7.615
10545TIP3    H231577   3.312   2.933   7.698
10546TIP3   OH231578   3.155   2.788   5.928
10546TIP3    H131579   3.159   2.803   6.025
10546TIP3    H231580   3.149   2.691   5.924
10547TIP3   OH231581   3.769   3.035   7.309
10547TIP3    H131582   3.846   3.073   7.263
10547TIP3    H231583   3.703   3.104   7.293
10548TIP3   OH231584   2.798   2.681   7.922
10548TIP3    H131585   2.877   2.634   7.894
10548TIP3    H231586   2.792   2.658   8.016
10549TIP3   OH231587   2.857   2.497   6.348
10549TIP3    H131588   2.823   2.465   6.434
10549TIP3    H231589   2.889   2.415   6.307
10550TIP3   OH231590   3.124   2.557   7.573
10550TIP3    H131591   3.048   2.620   7.575
10550TIP3    H231592   3.175   2.591   7.496
10551TIP3   OH231593   2.955   2.286   6.185
10551TIP3    H131594   2.929   2.296   6.091
10551TIP3    H231595   3.052   2.296   6.180
10552TIP3   OH231596   3.641   2.962   7.707
10552TIP3    H131597   3.728   2.949   7.667
10552TIP3    H231598   3.641   2.895   7.778
10553TIP3   OH231599   3.778   2.620   5.847
10553TIP3    H131600   3.758   2.577   5.762
10553TIP3    H231601   3.747   2.711   5.827
10554TIP3   OH231602   3.242   2.345   7.701
10554TIP3    H131603   3.250   2.269   7.641
10554TIP3    H231604   3.204   2.414   7.643
10555TIP3   OH231605   3.249   2.133   7.509
10555TIP3    H131606   3.279   2.178   7.427
10555TIP3    H231607   3.156   2.112   7.486
10556TIP3   OH231608   3.279   2.670   7.382
10556TIP3    H131609   3.362   2.678   7.333
10556TIP3    H231610   3.223   2.736   7.337
10557TIP3   OH231611   3.860   2.642   7.760
10557TIP3    H131612   3.915   2.564   7.777
10557TIP3    H231613   3.925   2.705   7.726
10558TIP3   OH231614   3.906   2.885   7.488
10558TIP3    H131615   3.847   2.941   7.432
10558TIP3    H231616   3.994   2.909   7.450
10559TIP3   OH231617   3.108   2.469   7.913
10559TIP3    H131618   3.049   2.393   7.922
10559TIP3    H231619   3.159   2.443   7.833
10560TIP3   OH231620   3.384   1.901   7.577
10560TIP3    H131621   3.335   1.982   7.550
10560TIP3    H231622   3.317   1.832   7.559
10561TIP3   OH231623   3.510   2.405   7.789
10561TIP3    H131624   3.503   2.394   7.885
10561TIP3    H231625   3.420   2.379   7.762
10562TIP3   OH231626   3.746   2.347   7.642
10562TIP3    H131627   3.673   2.355   7.706
10562TIP3    H231628   3.821   2.321   7.699
10563TIP3   OH231629   3.972   2.287   7.794
10563TIP3    H131630   3.984   2.195   7.821
10563TIP3    H231631   3.968   2.336   7.879
10564TIP3   OH231632   2.962   2.246   7.971
10564TIP3    H131633   2.996   2.157   7.952
10564TIP3    H231634   3.004   2.267   8.057
10565TIP3   OH231635   3.475   1.905   7.835
10565TIP3    H131636   3.542   1.835   7.821
10565TIP3    H231637   3.433   1.905   7.745
10566TIP3   OH231638   3.557   2.131   7.979
10566TIP3    H131639   3.529   2.054   7.925
10566TIP3    H231640   3.476   2.186   7.980
10567TIP3   OH231641   2.760   3.353   6.090
10567TIP3    H131642   2.857   3.349   6.076
10567TIP3    H231643   2.735   3.401   6.009
10568TIP3   OH231644   2.243   2.737   6.303
10568TIP3    H131645   2.338   2.759   6.292
10568TIP3    H231646   2.239   2.647   6.266
10569TIP3   OH231647   2.160   3.347   6.716
10569TIP3    H131648   2.091   3.285   6.685
10569TIP3    H231649   2.203   3.293   6.786
10570TIP3   OH231650   2.291   3.204   6.908
10570TIP3    H131651   2.283   3.125   6.965
10570TIP3    H231652   2.345   3.261   6.966
10571TIP3   OH231653   4.015   3.612   6.705
10571TIP3    H131654   4.050   3.628   6.794
10571TIP3    H231655   4.090   3.638   6.648
10572TIP3   OH231656   4.054   3.618   6.987
10572TIP3    H131657   4.007   3.532   6.983
10572TIP3    H231658   4.126   3.594   7.046
10573TIP3   OH231659   4.092   3.297   7.561
10573TIP3    H131660   4.023   3.304   7.630
10573TIP3    H231661   4.135   3.385   7.567
10574TIP3   OH231662   3.913   2.808   6.182
10574TIP3    H131663   3.981   2.872   6.154
10574TIP3    H231664   3.955   2.770   6.262
10575TIP3   OH231665   4.039   2.675   6.384
10575TIP3    H131666   3.975   2.636   6.447
10575TIP3    H231667   4.106   2.714   6.443
10576TIP3   OH231668   4.063   3.052   6.797
10576TIP3    H131669   4.146   3.001   6.790
10576TIP3    H231670   4.082   3.131   6.743
10577TIP3   OH231671   3.928   3.373   7.008
10577TIP3    H131672   3.856   3.400   7.067
10577TIP3    H231673   3.881   3.317   6.941
10578TIP3   OH231674   3.979   2.582   6.032
10578TIP3    H131675   3.907   2.588   5.965
10578TIP3    H231676   3.953   2.657   6.089
10579TIP3   OH231677   3.851   2.254   5.986
10579TIP3    H131678   3.808   2.299   5.914
10579TIP3    H231679   3.822   2.161   5.972
10580TIP3   OH231680   3.854   2.532   6.533
10580TIP3    H131681   3.865   2.436   6.532
10580TIP3    H231682   3.841   2.550   6.629
10581TIP3   OH231683   2.480   2.604   7.281
10581TIP3    H131684   2.480   2.578   7.186
10581TIP3    H231685   2.578   2.607   7.298
10582TIP3   OH231686   4.147   2.954   7.380
10582TIP3    H131687   4.225   2.892   7.381
10582TIP3    H231688   4.172   3.013   7.308
10583TIP3   OH231689   4.334   2.769   7.442
10583TIP3    H131690   4.259   2.712   7.469
10583TIP3    H231691   4.403   2.702   7.424
10584TIP3   OH231692   3.796   1.986   5.967
10584TIP3    H131693   3.871   1.963   6.026
10584TIP3    H231694   3.722   1.933   6.003
10585TIP3   OH231695   3.849   2.245   6.428
10585TIP3    H131696   3.891   2.157   6.442
10585TIP3    H231697   3.910   2.282   6.360
10586TIP3   OH231698   4.013   2.422   6.922
10586TIP3    H131699   4.099   2.448   6.882
10586TIP3    H231700   4.025   2.462   7.011
10587TIP3   OH231701   4.078   2.561   7.157
10587TIP3    H131702   4.002   2.601   7.203
10587TIP3    H231703   4.110   2.637   7.102
10588TIP3   OH231704   2.698   2.262   7.921
10588TIP3    H131705   2.793   2.273   7.942
10588TIP3    H231706   2.659   2.261   8.010
10589TIP3   OH231707   4.536   2.153   7.713
10589TIP3    H131708   4.594   2.090   7.665
10589TIP3    H231709   4.502   2.209   7.640
10590TIP3   OH231710   3.961   1.996   6.463
10590TIP3    H131711   4.008   1.984   6.548
10590TIP3    H231712   3.898   1.921   6.466
10591TIP3   OH231713   2.663   1.983   7.307
10591TIP3    H131714   2.728   1.911   7.296
10591TIP3    H231715   2.718   2.061   7.285
10592TIP3   OH231716   2.465   2.260   7.367
10592TIP3    H131717   2.514   2.247   7.283
10592TIP3    H231718   2.487   2.352   7.386
10593TIP3   OH231719   4.406   2.295   7.524
10593TIP3    H131720   4.323   2.339   7.553
10593TIP3    H231721   4.369   2.233   7.459
10594TIP3   OH231722   4.041   1.935   6.095
10594TIP3    H131723   4.086   1.863   6.047
10594TIP3    H231724   4.108   2.006   6.095
10595TIP3   OH231725   2.442   1.750   6.847
10595TIP3    H131726   2.352   1.763   6.881
10595TIP3    H231727   2.447   1.819   6.777
10596TIP3   OH231728   3.606   3.467   6.365
10596TIP3    H131729   3.653   3.449   6.280
10596TIP3    H231730   3.665   3.531   6.406
10597TIP3   OH231731   2.705   3.276   7.755
10597TIP3    H131732   2.618   3.239   7.735
10597TIP3    H231733   2.720   3.242   7.845
10598TIP3   OH231734   2.882   3.300   7.297
10598TIP3    H131735   2.837   3.377   7.256
10598TIP3    H231736   2.970   3.312   7.255
10599TIP3   OH231737   3.331   3.548   7.438
10599TIP3    H131738   3.375   3.548   7.526
10599TIP3    H231739   3.398   3.597   7.385
10600TIP3   OH231740   3.510   3.697   7.292
10600TIP3    H131741   3.580   3.645   7.251
10600TIP3    H231742   3.562   3.753   7.354
10601TIP3   OH231743   4.303   2.062   7.395
10601TIP3    H131744   4.214   2.068   7.356
10601TIP3    H231745   4.327   1.968   7.378
10602TIP3   OH231746   2.560   3.562   7.317
10602TIP3    H131747   2.471   3.597   7.296
10602TIP3    H231748   2.566   3.583   7.410
10603TIP3   OH231749   2.798   3.538   7.178
10603TIP3    H131750   2.711   3.551   7.222
10603TIP3    H231751   2.779   3.569   7.088
10604TIP3   OH231752   3.223   3.568   6.976
10604TIP3    H131753   3.155   3.589   6.909
10604TIP3    H231754   3.236   3.655   7.019
10605TIP3   OH231755   3.491   3.507   7.028
10605TIP3    H131756   3.397   3.523   7.006
10605TIP3    H231757   3.535   3.582   6.986
10606TIP3   OH231758   3.702   3.700   6.944
10606TIP3    H131759   3.686   3.782   6.893
10606TIP3    H231760   3.727   3.637   6.873
10607TIP3   OH231761   2.473   3.353   7.067
10607TIP3    H131762   2.500   3.327   7.158
10607TIP3    H231763   2.544   3.307   7.016
10608TIP3   OH231764   2.665   3.223   6.922
10608TIP3    H131765   2.681   3.139   6.970
10608TIP3    H231766   2.756   3.259   6.916
10609TIP3   OH231767   2.932   3.319   6.924
10609TIP3    H131768   2.963   3.227   6.911
10609TIP3    H231769   2.976   3.339   7.009
10610TIP3   OH231770   3.509   1.977   7.014
10610TIP3    H131771   3.463   1.910   7.068
10610TIP3    H231772   3.576   1.923   6.968
10611TIP3   OH231773   4.035   1.846   6.915
10611TIP3    H131774   4.071   1.904   6.845
10611TIP3    H231775   3.940   1.871   6.914
10612TIP3   OH231776   4.127   1.954   6.680
10612TIP3    H131777   4.203   1.907   6.639
10612TIP3    H231778   4.157   2.047   6.669
10613TIP3   OH231779   2.755   1.684   7.036
10613TIP3    H131780   2.662   1.655   7.032
10613TIP3    H231781   2.802   1.599   7.029
10614TIP3   OH231782   2.537   1.552   6.673
10614TIP3    H131783   2.571   1.613   6.605
10614TIP3    H231784   2.509   1.616   6.743
10615TIP3   OH231785   3.185   1.748   6.899
10615TIP3    H131786   3.262   1.777   6.849
10615TIP3    H231787   3.225   1.721   6.983
10616TIP3   OH231788   3.756   1.865   6.893
10616TIP3    H131789   3.735   1.826   6.808
10616TIP3    H231790   3.749   1.787   6.953
10617TIP3   OH231791   3.775   1.782   6.454
10617TIP3    H131792   3.691   1.829   6.470
10617TIP3    H231793   3.760   1.699   6.504
10618TIP3   OH231794   2.264   3.119   6.453
10618TIP3    H131795   2.176   3.090   6.421
10618TIP3    H231796   2.252   3.215   6.453
10619TIP3   OH231797   2.659   1.712   6.440
10619TIP3    H131798   2.713   1.654   6.384
10619TIP3    H231799   2.728   1.770   6.478
10620TIP3   OH231800   3.176   1.886   6.537
10620TIP3    H131801   3.229   1.840   6.604
10620TIP3    H231802   3.193   1.979   6.564
10621TIP3   OH231803   3.031   3.315   6.040
10621TIP3    H131804   3.119   3.337   6.005
10621TIP3    H231805   3.009   3.241   5.980
10622TIP3   OH231806   3.749   3.431   6.132
10622TIP3    H131807   3.741   3.333   6.119
10622TIP3    H231808   3.705   3.463   6.051
10623TIP3   OH231809   2.984   1.974   7.892
10623TIP3    H131810   2.968   1.909   7.962
10623TIP3    H231811   3.082   1.972   7.896
10624TIP3   OH231812   3.222   1.923   8.009
10624TIP3    H131813   3.313   1.936   7.977
10624TIP3    H231814   3.233   1.932   8.105
10625TIP3   OH231815   2.340   3.154   6.107
10625TIP3    H131816   2.347   3.160   6.203
10625TIP3    H231817   2.425   3.112   6.082
10626TIP3   OH231818   4.039   2.016   7.827
10626TIP3    H131819   4.064   1.995   7.920
10626TIP3    H231820   4.127   2.022   7.784
10627TIP3   OH231821   3.977   3.578   7.322
10627TIP3    H131822   3.899   3.543   7.273
10627TIP3    H231823   3.955   3.673   7.323
10628TIP3   OH231824   5.244   2.944   6.086
10628TIP3    H131825   5.219   3.038   6.071
10628TIP3    H231826   5.163   2.900   6.055
10629TIP3   OH231827   5.240   2.944   6.464
10629TIP3    H131828   5.272   2.920   6.552
10629TIP3    H231829   5.197   2.863   6.433
10630TIP3   OH231830   4.550   2.838   6.811
10630TIP3    H131831   4.567   2.777   6.885
10630TIP3    H231832   4.599   2.916   6.840
10631TIP3   OH231833   5.481   3.251   6.147
10631TIP3    H131834   5.477   3.182   6.214
10631TIP3    H231835   5.517   3.326   6.199
10632TIP3   OH231836   4.510   3.253   6.555
10632TIP3    H131837   4.502   3.155   6.560
10632TIP3    H231838   4.607   3.261   6.555
10633TIP3   OH231839   4.222   2.452   6.341
10633TIP3    H131840   4.181   2.538   6.361
10633TIP3    H231841   4.146   2.404   6.306
10634TIP3   OH231842   4.280   2.739   6.502
10634TIP3    H131843   4.328   2.666   6.548
10634TIP3    H231844   4.349   2.774   6.444
10635TIP3   OH231845   5.121   3.730   6.155
10635TIP3    H131846   5.172   3.663   6.106
10635TIP3    H231847   5.126   3.695   6.244
10636TIP3   OH231848   5.042   3.173   6.513
10636TIP3    H131849   5.081   3.096   6.468
10636TIP3    H231850   5.125   3.219   6.538
10637TIP3   OH231851   6.053   2.493   6.512
10637TIP3    H131852   6.081   2.574   6.559
10637TIP3    H231853   6.072   2.517   6.420
10638TIP3   OH231854   5.452   2.675   6.549
10638TIP3    H131855   5.496   2.590   6.569
10638TIP3    H231856   5.423   2.659   6.457
10639TIP3   OH231857   4.791   2.333   6.513
10639TIP3    H131858   4.771   2.408   6.452
10639TIP3    H231859   4.740   2.262   6.468
10640TIP3   OH231860   5.485   2.424   6.136
10640TIP3    H131861   5.557   2.408   6.201
10640TIP3    H231862   5.537   2.461   6.063
10641TIP3   OH231863   4.424   2.538   6.618
10641TIP3    H131864   4.506   2.522   6.668
10641TIP3    H231865   4.441   2.481   6.540
10642TIP3   OH231866   4.869   2.734   6.402
10642TIP3    H131867   4.961   2.707   6.422
10642TIP3    H231868   4.829   2.649   6.376
10643TIP3   OH231869   6.124   2.696   6.687
10643TIP3    H131870   6.046   2.750   6.662
10643TIP3    H231871   6.148   2.737   6.772
10644TIP3   OH231872   4.787   2.316   6.947
10644TIP3    H131873   4.728   2.357   6.880
10644TIP3    H231874   4.736   2.336   7.028
10645TIP3   OH231875   5.138   3.168   5.953
10645TIP3    H131876   5.091   3.147   5.872
10645TIP3    H231877   5.096   3.253   5.978
10646TIP3   OH231878   4.895   3.093   6.746
10646TIP3    H131879   4.830   3.156   6.785
10646TIP3    H231880   4.934   3.146   6.674
10647TIP3   OH231881   5.698   2.425   6.306
10647TIP3    H131882   5.685   2.382   6.391
10647TIP3    H231883   5.750   2.504   6.331
10648TIP3   OH231884   4.657   2.433   6.732
10648TIP3    H131885   4.717   2.507   6.757
10648TIP3    H231886   4.708   2.394   6.658
10649TIP3   OH231887   4.719   3.284   6.841
10649TIP3    H131888   4.694   3.371   6.804
10649TIP3    H231889   4.641   3.267   6.898
10650TIP3   OH231890   4.118   2.975   6.075
10650TIP3    H131891   4.077   3.005   5.992
10650TIP3    H231892   4.150   3.059   6.114
10651TIP3   OH231893   5.550   3.485   6.306
10651TIP3    H131894   5.462   3.479   6.349
10651TIP3    H231895   5.549   3.578   6.276
10652TIP3   OH231896   5.846   2.390   6.676
10652TIP3    H131897   5.760   2.425   6.648
10652TIP3    H231898   5.907   2.425   6.608
10653TIP3   OH231899   5.145   2.038   6.659
10653TIP3    H131900   5.132   1.944   6.677
10653TIP3    H231901   5.069   2.077   6.707
10654TIP3   OH231902   5.258   3.545   5.989
10654TIP3    H131903   5.308   3.462   5.974
10654TIP3    H231904   5.321   3.609   5.949
10655TIP3   OH231905   5.402   3.326   5.896
10655TIP3    H131906   5.360   3.247   5.860
10655TIP3    H231907   5.437   3.292   5.981
10656TIP3   OH231908   5.072   2.796   5.915
10656TIP3    H131909   4.993   2.851   5.894
10656TIP3    H231910   5.120   2.798   5.830
10657TIP3   OH231911   5.034   2.581   5.634
10657TIP3    H131912   5.098   2.634   5.684
10657TIP3    H231913   5.094   2.519   5.587
10658TIP3   OH231914   5.981   3.038   6.502
10658TIP3    H131915   5.900   3.093   6.514
10658TIP3    H231916   6.012   3.074   6.417
10659TIP3   OH231917   5.422   2.880   5.888
10659TIP3    H131918   5.367   2.905   5.967
10659TIP3    H231919   5.506   2.856   5.932
10660TIP3   OH231920   5.656   2.920   6.800
10660TIP3    H131921   5.658   3.006   6.846
10660TIP3    H231922   5.571   2.927   6.753
10661TIP3   OH231923   4.655   2.879   6.304
10661TIP3    H131924   4.614   2.821   6.236
10661TIP3    H231925   4.733   2.826   6.332
10662TIP3   OH231926   4.786   3.294   6.452
10662TIP3    H131927   4.764   3.244   6.372
10662TIP3    H231928   4.876   3.260   6.472
10663TIP3   OH231929   4.809   2.846   6.656
10663TIP3    H131930   4.833   2.836   6.562
10663TIP3    H231931   4.839   2.936   6.678
10664TIP3   OH231932   5.312   3.487   6.434
10664TIP3    H131933   5.301   3.570   6.484
10664TIP3    H231934   5.299   3.417   6.501
10665TIP3   OH231935   4.926   3.409   6.985
10665TIP3    H131936   4.865   3.470   7.030
10665TIP3    H231937   4.862   3.353   6.936
10666TIP3   OH231938   5.264   2.738   5.714
10666TIP3    H131939   5.321   2.799   5.766
10666TIP3    H231940   5.291   2.762   5.622
10667TIP3   OH231941   4.672   2.959   7.079
10667TIP3    H131942   4.687   3.039   7.133
10667TIP3    H231943   4.574   2.966   7.072
10668TIP3   OH231944   5.007   3.417   5.989
10668TIP3    H131945   5.084   3.472   6.011
10668TIP3    H231946   4.941   3.482   5.963
10669TIP3   OH231947   4.721   3.581   7.072
10669TIP3    H131948   4.687   3.577   6.980
10669TIP3    H231949   4.642   3.555   7.124
10670TIP3   OH231950   5.778   1.981   5.761
10670TIP3    H131951   5.697   2.001   5.813
10670TIP3    H231952   5.792   2.065   5.714
10671TIP3   OH231953   4.522   2.720   6.106
10671TIP3    H131954   4.456   2.767   6.050
10671TIP3    H231955   4.475   2.639   6.127
10672TIP3   OH231956   5.576   3.348   5.310
10672TIP3    H131957   5.585   3.445   5.296
10672TIP3    H231958   5.669   3.319   5.298
10673TIP3   OH231959   4.156   3.306   6.642
10673TIP3    H131960   4.250   3.283   6.642
10673TIP3    H231961   4.152   3.374   6.711
10674TIP3   OH231962   6.016   3.757   6.689
10674TIP3    H131963   6.022   3.659   6.682
10674TIP3    H231964   5.938   3.765   6.748
10675TIP3   OH231965   5.127   3.534   6.841
10675TIP3    H131966   5.127   3.628   6.871
10675TIP3    H231967   5.054   3.497   6.894
10676TIP3   OH231968   4.882   3.681   5.777
10676TIP3    H131969   4.852   3.627   5.701
10676TIP3    H231970   4.809   3.742   5.786
10677TIP3   OH231971   4.325   3.515   6.176
10677TIP3    H131972   4.373   3.505   6.261
10677TIP3    H231973   4.266   3.438   6.179
10678TIP3   OH231974   5.093   3.571   5.434
10678TIP3    H131975   5.149   3.500   5.395
10678TIP3    H231976   5.123   3.570   5.527
10679TIP3   OH231977   5.139   3.612   5.705
10679TIP3    H131978   5.052   3.625   5.748
10679TIP3    H231979   5.189   3.569   5.777
10680TIP3   OH231980   5.909   2.879   6.981
10680TIP3    H131981   5.832   2.897   6.926
10680TIP3    H231982   5.923   2.783   6.967
10681TIP3   OH231983   4.506   3.297   7.011
10681TIP3    H131984   4.562   3.282   7.090
10681TIP3    H231985   4.450   3.216   7.016
10682TIP3   OH231986   4.908   2.112   6.789
10682TIP3    H131987   4.817   2.083   6.764
10682TIP3    H231988   4.885   2.196   6.833
10683TIP3   OH231989   5.440   2.227   6.983
10683TIP3    H131990   5.507   2.200   7.048
10683TIP3    H231991   5.355   2.208   7.029
10684TIP3   OH231992   5.678   2.655   6.900
10684TIP3    H131993   5.629   2.654   6.985
10684TIP3    H231994   5.658   2.744   6.865
10685TIP3   OH231995   5.338   2.786   5.459
10685TIP3    H131996   5.305   2.761   5.371
10685TIP3    H231997   5.417   2.839   5.434
10686TIP3   OH231998   5.050   2.163   5.760
10686TIP3    H131999   5.019   2.160   5.853
10686TIP3    H232000   5.013   2.079   5.728
10687TIP3   OH232001   4.836   2.627   6.810
10687TIP3    H132002   4.784   2.651   6.889
10687TIP3    H232003   4.823   2.708   6.754
10688TIP3   OH232004   4.722   2.512   6.322
10688TIP3    H132005   4.629   2.489   6.340
10688TIP3    H232006   4.734   2.472   6.233
10689TIP3   OH232007   5.211   2.598   6.047
10689TIP3    H132008   5.158   2.671   6.008
10689TIP3    H232009   5.266   2.571   5.971
10690TIP3   OH232010   5.386   2.880   7.137
10690TIP3    H132011   5.365   2.806   7.199
10690TIP3    H232012   5.481   2.893   7.156
10691TIP3   OH232013   5.368   2.628   6.291
10691TIP3    H132014   5.311   2.662   6.220
10691TIP3    H232015   5.400   2.546   6.246
10692TIP3   OH232016   4.660   2.657   7.018
10692TIP3    H132017   4.664   2.731   7.081
10692TIP3    H232018   4.646   2.580   7.076
10693TIP3   OH232019   4.702   2.130   5.726
10693TIP3    H132020   4.698   2.133   5.824
10693TIP3    H232021   4.628   2.190   5.703
10694TIP3   OH232022   4.249   2.177   6.596
10694TIP3    H132023   4.321   2.213   6.653
10694TIP3    H232024   4.296   2.152   6.515
10695TIP3   OH232025   4.224   2.160   6.116
10695TIP3    H132026   4.271   2.199   6.039
10695TIP3    H232027   4.164   2.234   6.139
10696TIP3   OH232028   5.375   2.876   6.711
10696TIP3    H132029   5.410   2.803   6.654
10696TIP3    H232030   5.348   2.824   6.790
10697TIP3   OH232031   5.046   2.332   6.383
10697TIP3    H132032   4.963   2.335   6.436
10697TIP3    H232033   5.113   2.340   6.452
10698TIP3   OH232034   4.483   2.392   6.391
10698TIP3    H132035   4.388   2.402   6.365
10698TIP3    H232036   4.504   2.300   6.367
10699TIP3   OH232037   4.754   2.385   6.079
10699TIP3    H132038   4.848   2.405   6.060
10699TIP3    H232039   4.707   2.411   5.996
10700TIP3   OH232040   5.540   2.411   6.582
10700TIP3    H132041   5.508   2.425   6.674
10700TIP3    H232042   5.472   2.350   6.548
10701TIP3   OH232043   4.594   2.417   5.859
10701TIP3    H132044   4.520   2.378   5.809
10701TIP3    H232045   4.645   2.457   5.785
10702TIP3   OH232046   5.708   4.102   6.803
10702TIP3    H132047   5.706   4.123   6.708
10702TIP3    H232048   5.787   4.151   6.833
10703TIP3   OH232049   4.674   3.219   7.223
10703TIP3    H132050   4.748   3.245   7.281
10703TIP3    H232051   4.605   3.199   7.289
10704TIP3   OH232052   5.131   2.660   6.478
10704TIP3    H132053   5.208   2.627   6.431
10704TIP3    H232054   5.143   2.623   6.568
10705TIP3   OH232055   4.654   2.154   6.356
10705TIP3    H132056   4.625   2.074   6.402
10705TIP3    H232057   4.710   2.119   6.285
10706TIP3   OH232058   5.108   2.558   6.775
10706TIP3    H132059   5.019   2.597   6.784
10706TIP3    H232060   5.165   2.621   6.822
10707TIP3   OH232061   4.846   2.952   5.866
10707TIP3    H132062   4.773   2.887   5.855
10707TIP3    H232063   4.827   2.986   5.957
10708TIP3   OH232064   5.746   3.178   6.502
10708TIP3    H132065   5.774   3.239   6.430
10708TIP3    H232066   5.659   3.147   6.470
10709TIP3   OH232067   5.304   2.265   5.723
10709TIP3    H132068   5.207   2.251   5.732
10709TIP3    H232069   5.315   2.359   5.750
10710TIP3   OH232070   5.246   3.270   6.862
10710TIP3    H132071   5.263   3.248   6.954
10710TIP3    H232072   5.207   3.359   6.867
10711TIP3   OH232073   5.374   2.510   5.828
10711TIP3    H132074   5.470   2.518   5.847
10711TIP3    H232075   5.356   2.592   5.778
10712TIP3   OH232076   4.538   2.974   6.544
10712TIP3    H132077   4.579   2.939   6.463
10712TIP3    H232078   4.567   2.911   6.612
10713TIP3   OH232079   4.989   3.102   5.687
10713TIP3    H132080   4.944   3.189   5.694
10713TIP3    H232081   4.935   3.048   5.747
10714TIP3   OH232082   5.142   3.007   7.175
10714TIP3    H132083   5.079   2.949   7.129
10714TIP3    H232084   5.228   2.972   7.144
10715TIP3   OH232085   5.408   3.529   6.760
10715TIP3    H132086   5.311   3.527   6.769
10715TIP3    H232087   5.432   3.584   6.837
10716TIP3   OH232088   5.816   2.600   5.667
10716TIP3    H132089   5.753   2.557   5.604
10716TIP3    H232090   5.813   2.690   5.628
10717TIP3   OH232091   5.514   3.421   5.575
10717TIP3    H132092   5.490   3.351   5.637
10717TIP3    H232093   5.526   3.372   5.491
10718TIP3   OH232094   5.504   3.051   6.414
10718TIP3    H132095   5.411   3.022   6.423
10718TIP3    H232096   5.543   2.974   6.369
10719TIP3   OH232097   4.637   3.275   6.162
10719TIP3    H132098   4.635   3.358   6.111
10719TIP3    H232099   4.543   3.260   6.178
10720TIP3   OH232100   4.202   2.581   5.868
10720TIP3    H132101   4.248   2.665   5.887
10720TIP3    H232102   4.125   2.587   5.929
10721TIP3   OH232103   4.779   3.043   6.110
10721TIP3    H132104   4.742   3.132   6.128
10721TIP3    H232105   4.744   2.992   6.185
10722TIP3   OH232106   4.905   3.622   6.634
10722TIP3    H132107   4.945   3.699   6.589
10722TIP3    H232108   4.982   3.588   6.683
10723TIP3   OH232109   4.557   3.517   6.018
10723TIP3    H132110   4.472   3.523   6.064
10723TIP3    H232111   4.588   3.610   6.021
10724TIP3   OH232112   5.296   3.254   6.593
10724TIP3    H132113   5.290   3.251   6.691
10724TIP3    H232114   5.377   3.203   6.577
10725TIP3   OH232115   5.269   3.147   5.475
10725TIP3    H132116   5.321   3.122   5.555
10725TIP3    H232117   5.180   3.122   5.503
10726TIP3   OH232118   5.538   3.798   6.657
10726TIP3    H132119   5.467   3.733   6.639
10726TIP3    H232120   5.533   3.854   6.576
10727TIP3   OH232121   5.610   3.624   5.297
10727TIP3    H132122   5.647   3.695   5.243
10727TIP3    H232123   5.529   3.669   5.329
10728TIP3   OH232124   4.630   2.394   7.166
10728TIP3    H132125   4.536   2.406   7.184
10728TIP3    H232126   4.658   2.338   7.240
10729TIP3   OH232127   5.429   3.080   5.692
10729TIP3    H132128   5.419   3.016   5.765
10729TIP3    H232129   5.527   3.078   5.682
10730TIP3   OH232130   4.345   3.485   6.797
10730TIP3    H132131   4.392   3.404   6.824
10730TIP3    H232132   4.377   3.546   6.864
10731TIP3   OH232133   4.639   3.132   5.478
10731TIP3    H132134   4.648   3.041   5.443
10731TIP3    H232135   4.618   3.114   5.572
10732TIP3   OH232136   4.582   3.133   5.751
10732TIP3    H132137   4.653   3.107   5.812
10732TIP3    H232138   4.587   3.231   5.755
10733TIP3   OH232139   4.318   2.827   5.951
10733TIP3    H132140   4.252   2.872   6.009
10733TIP3    H232141   4.332   2.897   5.884
10734TIP3   OH232142   5.467   2.462   6.841
10734TIP3    H132143   5.545   2.504   6.881
10734TIP3    H232144   5.453   2.383   6.898
10735TIP3   OH232145   5.348   2.215   6.007
10735TIP3    H132146   5.334   2.241   5.914
10735TIP3    H232147   5.385   2.298   6.045
10736TIP3   OH232148   4.850   3.333   5.700
10736TIP3    H132149   4.761   3.358   5.733
10736TIP3    H232150   4.857   3.389   5.622
10737TIP3   OH232151   5.036   2.393   6.110
10737TIP3    H132152   5.100   2.466   6.092
10737TIP3    H232153   5.041   2.386   6.208
10738TIP3   OH232154   5.306   2.714   6.919
10738TIP3    H132155   5.321   2.770   6.998
10738TIP3    H232156   5.362   2.637   6.936
10739TIP3   OH232157   5.180   2.123   6.213
10739TIP3    H132158   5.174   2.198   6.275
10739TIP3    H232159   5.241   2.161   6.145
10740TIP3   OH232160   4.592   3.407   5.763
10740TIP3    H132161   4.560   3.475   5.701
10740TIP3    H232162   4.573   3.448   5.850
10741TIP3   OH232163   4.692   2.120   6.003
10741TIP3    H132164   4.689   2.211   6.038
10741TIP3    H232165   4.788   2.102   6.012
10742TIP3   OH232166   5.946   2.612   6.904
10742TIP3    H132167   5.848   2.608   6.906
10742TIP3    H232168   5.964   2.587   6.813
10743TIP3   OH232169   5.597   2.807   6.286
10743TIP3    H132170   5.522   2.748   6.302
10743TIP3    H232171   5.670   2.764   6.334
10744TIP3   OH232172   4.307   3.038   5.758
10744TIP3    H132173   4.370   3.111   5.767
10744TIP3    H232174   4.354   2.985   5.690
10745TIP3   OH232175   4.253   2.312   5.890
10745TIP3    H132176   4.257   2.410   5.886
10745TIP3    H232177   4.166   2.295   5.853
10746TIP3   OH232178   5.562   3.762   6.238
10746TIP3    H132179   5.526   3.812   6.161
10746TIP3    H232180   5.658   3.778   6.223
10747TIP3   OH232181   4.643   2.033   6.766
10747TIP3    H132182   4.610   2.001   6.679
10747TIP3    H232183   4.631   1.954   6.823
10748TIP3   OH232184   4.183   3.252   6.146
10748TIP3    H132185   4.109   3.282   6.201
10748TIP3    H232186   4.157   3.290   6.059
10749TIP3   OH232187   4.333   3.788   7.218
10749TIP3    H132188   4.421   3.782   7.261
10749TIP3    H232189   4.310   3.693   7.214
10750TIP3   OH232190   4.828   3.754   7.266
10750TIP3    H132191   4.920   3.725   7.258
10750TIP3    H232192   4.789   3.704   7.191
10751TIP3   OH232193   4.804   3.333   5.396
10751TIP3    H132194   4.745   3.261   5.426
10751TIP3    H232195   4.875   3.282   5.353
10752TIP3   OH232196   5.453   3.666   6.999
10752TIP3    H132197   5.447   3.594   7.066
10752TIP3    H232198   5.534   3.713   7.025
10753TIP3   OH232199   5.237   3.377   5.301
10753TIP3    H132200   5.282   3.312   5.358
10753TIP3    H232201   5.291   3.375   5.220
10754TIP3   OH232202   4.468   3.199   7.414
10754TIP3    H132203   4.487   3.102   7.411
10754TIP3    H232204   4.381   3.202   7.370
10755TIP3   OH232205   4.442   2.851   5.609
10755TIP3    H132206   4.499   2.820   5.681
10755TIP3    H232207   4.509   2.856   5.537
10756TIP3   OH232208   5.074   3.283   7.190
10756TIP3    H132209   5.031   3.298   7.104
10756TIP3    H232210   5.103   3.189   7.183
10757TIP3   OH232211   4.955   3.047   5.417
10757TIP3    H132212   4.955   3.059   5.514
10757TIP3    H232213   4.950   2.949   5.411
10758TIP3   OH232214   5.570   3.291   6.795
10758TIP3    H132215   5.634   3.315   6.727
10758TIP3    H232216   5.502   3.360   6.784
10759TIP3   OH232217   4.597   2.953   7.399
10759TIP3    H132218   4.640   2.869   7.381
10759TIP3    H232219   4.621   2.971   7.491
10760TIP3   OH232220   4.654   2.753   5.834
10760TIP3    H132221   4.625   2.713   5.917
10760TIP3    H232222   4.689   2.676   5.784
10761TIP3   OH232223   4.926   2.823   7.066
10761TIP3    H132224   4.841   2.872   7.065
10761TIP3    H232225   4.968   2.853   6.984
10762TIP3   OH232226   4.751   2.543   5.674
10762TIP3    H132227   4.726   2.551   5.580
10762TIP3    H232228   4.849   2.550   5.667
10763TIP3   OH232229   5.440   3.221   7.198
10763TIP3    H132230   5.516   3.197   7.143
10763TIP3    H232231   5.437   3.149   7.263
10764TIP3   OH232232   5.577   2.878   5.334
10764TIP3    H132233   5.554   2.833   5.250
10764TIP3    H232234   5.544   2.968   5.312
10765TIP3   OH232235   5.047   2.605   7.184
10765TIP3    H132236   5.043   2.526   7.127
10765TIP3    H232237   5.002   2.673   7.129
10766TIP3   OH232238   5.046   2.388   6.993
10766TIP3    H132239   5.073   2.434   6.911
10766TIP3    H232240   4.951   2.369   6.974
10767TIP3   OH232241   5.079   2.929   6.864
10767TIP3    H132242   5.160   2.940   6.812
10767TIP3    H232243   5.019   2.994   6.823
10768TIP3   OH232244   5.659   2.895   7.251
10768TIP3    H132245   5.709   2.812   7.254
10768TIP3    H232246   5.724   2.955   7.212
10769TIP3   OH232247   5.703   3.149   6.984
10769TIP3    H132248   5.644   3.202   6.924
10769TIP3    H232249   5.790   3.172   6.944
10770TIP3   OH232250   4.930   2.716   7.420
10770TIP3    H132251   4.854   2.656   7.433
10770TIP3    H232252   4.957   2.694   7.329
10771TIP3   OH232253   5.179   2.155   7.060
10771TIP3    H132254   5.130   2.237   7.037
10771TIP3    H232255   5.109   2.087   7.048
10772TIP3   OH232256   5.305   2.660   7.277
10772TIP3    H132257   5.292   2.649   7.373
10772TIP3    H232258   5.216   2.637   7.245
10773TIP3   OH232259   5.544   2.609   7.131
10773TIP3    H132260   5.469   2.612   7.194
10773TIP3    H232261   5.618   2.579   7.188
10774TIP3   OH232262   5.772   2.549   7.284
10774TIP3    H132263   5.785   2.454   7.302
10774TIP3    H232264   5.771   2.589   7.373
10775TIP3   OH232265   4.758   2.500   7.468
10775TIP3    H132266   4.769   2.410   7.433
10775TIP3    H232267   4.792   2.490   7.558
10776TIP3   OH232268   5.273   2.164   7.317
10776TIP3    H132269   5.341   2.094   7.311
10776TIP3    H232270   5.234   2.159   7.228
10777TIP3   OH232271   5.339   2.379   7.478
10777TIP3    H132272   5.317   2.310   7.413
10777TIP3    H232273   5.262   2.440   7.471
10778TIP3   OH232274   4.562   3.615   5.581
10778TIP3    H132275   4.655   3.609   5.555
10778TIP3    H232276   4.525   3.657   5.501
10779TIP3   OH232277   4.039   2.991   5.795
10779TIP3    H132278   4.134   3.014   5.780
10779TIP3    H232279   4.035   2.902   5.754
10780TIP3   OH232280   3.953   3.604   6.207
10780TIP3    H132281   3.887   3.541   6.170
10780TIP3    H232282   3.998   3.546   6.274
10781TIP3   OH232283   4.090   3.456   6.395
10781TIP3    H132284   4.082   3.380   6.455
10781TIP3    H232285   4.142   3.516   6.452
10782TIP3   OH232286   5.812   3.865   6.192
10782TIP3    H132287   5.842   3.885   6.282
10782TIP3    H232288   5.884   3.900   6.137
10783TIP3   OH232289   5.854   3.880   6.472
10783TIP3    H132290   5.800   3.798   6.465
10783TIP3    H232291   5.922   3.849   6.534
10784TIP3   OH232292   5.895   3.552   7.056
10784TIP3    H132293   5.819   3.563   7.115
10784TIP3    H232294   5.933   3.641   7.052
10785TIP3   OH232295   5.709   3.065   5.669
10785TIP3    H132296   5.778   3.128   5.641
10785TIP3    H232297   5.751   3.026   5.749
10786TIP3   OH232298   5.836   2.932   5.871
10786TIP3    H132299   5.771   2.892   5.932
10786TIP3    H232300   5.901   2.972   5.933
10787TIP3   OH232301   5.859   3.309   6.289
10787TIP3    H132302   5.940   3.259   6.268
10787TIP3    H232303   5.868   3.389   6.235
10788TIP3   OH232304   5.722   3.646   6.483
10788TIP3    H132305   5.665   3.643   6.561
10788TIP3    H232306   5.694   3.567   6.434
10789TIP3   OH232307   5.775   2.839   5.519
10789TIP3    H132308   5.704   2.843   5.451
10789TIP3    H232309   5.748   2.915   5.575
10790TIP3   OH232310   5.648   2.512   5.472
10790TIP3    H132311   5.603   2.555   5.399
10790TIP3    H232312   5.620   2.419   5.461
10791TIP3   OH232313   5.651   2.789   6.019
10791TIP3    H132314   5.660   2.693   6.016
10791TIP3    H232315   5.638   2.805   6.116
10792TIP3   OH232316   4.277   2.866   6.759
10792TIP3    H132317   4.282   2.839   6.666
10792TIP3    H232318   4.371   2.870   6.784
10793TIP3   OH232319   5.938   3.221   6.865
10793TIP3    H132320   6.016   3.161   6.859
10793TIP3    H232321   5.961   3.289   6.798
10794TIP3   OH232322   6.125   3.027   6.911
10794TIP3    H132323   6.050   2.973   6.941
10794TIP3    H232324   6.196   2.959   6.909
10795TIP3   OH232325   5.591   2.246   5.458
10795TIP3    H132326   5.666   2.218   5.514
10795TIP3    H232327   5.518   2.188   5.487
10796TIP3   OH232328   5.646   2.503   5.915
10796TIP3    H132329   5.687   2.414   5.929
10796TIP3    H232330   5.706   2.538   5.846
10797TIP3   OH232331   5.809   2.679   6.409
10797TIP3    H132332   5.896   2.705   6.369
10797TIP3    H232333   5.822   2.719   6.498
10798TIP3   OH232334   5.876   2.823   6.640
10798TIP3    H132335   5.799   2.860   6.687
10798TIP3    H232336   5.911   2.903   6.595
10799TIP3   OH232337   4.490   2.541   7.420
10799TIP3    H132338   4.587   2.542   7.432
10799TIP3    H232339   4.466   2.465   7.477
10800TIP3   OH232340   6.330   2.412   7.199
10800TIP3    H132341   6.389   2.348   7.155
10800TIP3    H232342   6.300   2.467   7.123
10801TIP3   OH232343   5.757   2.254   5.950
10801TIP3    H132344   5.806   2.240   6.034
10801TIP3    H232345   5.696   2.177   5.952
10802TIP3   OH232346   4.456   2.238   6.766
10802TIP3    H132347   4.523   2.168   6.780
10802TIP3    H232348   4.513   2.318   6.764
10803TIP3   OH232349   4.263   2.507   6.848
10803TIP3    H132350   4.313   2.520   6.765
10803TIP3    H232351   4.261   2.597   6.884
10804TIP3   OH232352   6.201   2.553   7.006
10804TIP3    H132353   6.114   2.595   7.024
10804TIP3    H232354   6.172   2.484   6.944
10805TIP3   OH232355   5.838   2.191   5.583
10805TIP3    H132356   5.880   2.119   5.533
10805TIP3    H232357   5.906   2.262   5.579
10806TIP3   OH232358   4.242   2.011   6.340
10806TIP3    H132359   4.151   2.016   6.373
10806TIP3    H232360   4.241   2.074   6.265
10807TIP3   OH232361   5.399   3.731   5.848
10807TIP3    H132362   5.449   3.709   5.767
10807TIP3    H232363   5.466   3.777   5.901
10808TIP3   OH232364   4.459   2.089   7.156
10808TIP3    H132365   4.413   2.097   7.241
10808TIP3    H232366   4.397   2.136   7.097
10809TIP3   OH232367   4.501   3.533   7.243
10809TIP3    H132368   4.417   3.494   7.213
10809TIP3    H232369   4.509   3.496   7.331
10810TIP3   OH232370   4.681   3.556   6.786
10810TIP3    H132371   4.633   3.631   6.744
10810TIP3    H232372   4.768   3.570   6.741
10811TIP3   OH232373   5.128   3.800   6.925
10811TIP3    H132374   5.176   3.810   7.010
10811TIP3    H232375   5.189   3.849   6.865
10812TIP3   OH232376   5.320   3.935   6.788
10812TIP3    H132377   5.396   3.894   6.745
10812TIP3    H232378   5.362   4.005   6.841
10813TIP3   OH232379   6.100   2.317   6.881
10813TIP3    H132380   6.009   2.315   6.846
10813TIP3    H232381   6.127   2.223   6.869
10814TIP3   OH232382   4.357   3.824   6.802
10814TIP3    H132383   4.265   3.855   6.788
10814TIP3    H232384   4.369   3.844   6.895
10815TIP3   OH232385   4.589   3.783   6.658
10815TIP3    H132386   4.505   3.802   6.705
10815TIP3    H232387   4.570   3.820   6.569
10816TIP3   OH232388   5.014   3.829   6.472
10816TIP3    H132389   4.954   3.841   6.396
10816TIP3    H232390   5.017   3.922   6.500
10817TIP3   OH232391   5.284   3.760   6.507
10817TIP3    H132392   5.189   3.781   6.500
10817TIP3    H232393   5.325   3.844   6.484
10818TIP3   OH232394   5.505   3.956   6.433
10818TIP3    H132395   5.487   4.036   6.381
10818TIP3    H232396   5.524   3.889   6.364
10819TIP3   OH232397   4.269   3.611   6.555
10819TIP3    H132398   4.298   3.583   6.645
10819TIP3    H232399   4.339   3.564   6.503
10820TIP3   OH232400   4.461   3.480   6.409
10820TIP3    H132401   4.475   3.396   6.458
10820TIP3    H232402   4.552   3.516   6.405
10821TIP3   OH232403   4.728   3.574   6.411
10821TIP3    H132404   4.760   3.482   6.402
10821TIP3    H232405   4.771   3.598   6.495
10822TIP3   OH232406   5.304   2.232   6.496
10822TIP3    H132407   5.260   2.164   6.550
10822TIP3    H232408   5.379   2.182   6.457
10823TIP3   OH232409   5.828   2.106   6.403
10823TIP3    H132410   5.865   2.162   6.331
10823TIP3    H232411   5.734   2.130   6.400
10824TIP3   OH232412   5.923   2.212   6.168
10824TIP3    H132413   5.997   2.162   6.128
10824TIP3    H232414   5.955   2.304   6.154
10825TIP3   OH232415   4.557   1.937   6.515
10825TIP3    H132416   4.463   1.908   6.518
10825TIP3    H232417   4.602   1.851   6.506
10826TIP3   OH232418   4.335   1.805   6.145
10826TIP3    H132419   4.367   1.874   6.083
10826TIP3    H232420   4.314   1.860   6.224
10827TIP3   OH232421   4.996   1.971   6.399
10827TIP3    H132422   5.051   2.022   6.338
10827TIP3    H232423   5.016   2.013   6.483
10828TIP3   OH232424   5.544   2.118   6.381
10828TIP3    H132425   5.542   2.083   6.292
10828TIP3    H232426   5.529   2.037   6.435
10829TIP3   OH232427   5.572   2.040   5.941
10829TIP3    H132428   5.486   2.085   5.954
10829TIP3    H232429   5.557   1.956   5.990
10830TIP3   OH232430   4.056   3.380   5.946
10830TIP3    H132431   3.972   3.347   5.910
10830TIP3    H232432   4.045   3.475   5.925
10831TIP3   OH232433   4.457   1.967   5.929
10831TIP3    H132434   4.509   1.911   5.868
10831TIP3    H232435   4.526   2.026   5.965
10832TIP3   OH232436   4.970   2.142   6.027
10832TIP3    H132437   5.032   2.099   6.088
10832TIP3    H232438   4.989   2.236   6.051
10833TIP3   OH232439   4.831   3.571   5.525
10833TIP3    H132440   4.918   3.592   5.487
10833TIP3    H232441   4.807   3.496   5.466
10834TIP3   OH232442   5.546   3.686   5.619
10834TIP3    H132443   5.539   3.588   5.608
10834TIP3    H232444   5.504   3.717   5.537
10835TIP3   OH232445   4.762   2.217   7.402
10835TIP3    H132446   4.725   2.152   7.464
10835TIP3    H232447   4.856   2.220   7.432
10836TIP3   OH232448   5.009   2.217   7.526
10836TIP3    H132449   5.095   2.196   7.485
10836TIP3    H232450   5.000   2.144   7.591
10837TIP3   OH232451   4.132   3.406   5.582
10837TIP3    H132452   4.132   3.435   5.674
10837TIP3    H232453   4.221   3.365   5.573
10838TIP3   OH232454   5.834   2.278   7.314
10838TIP3    H132455   5.854   2.247   7.405
10838TIP3    H232456   5.923   2.274   7.272
10839TIP3   OH232457   5.769   3.833   6.813
10839TIP3    H132458   5.693   3.800   6.761
10839TIP3    H232459   5.752   3.929   6.811
10840TIP3   OH232460   7.040   3.204   5.573
10840TIP3    H132461   7.013   3.296   5.554
10840TIP3    H232462   6.962   3.155   5.542
10841TIP3   OH232463   7.039   3.203   5.952
10841TIP3    H132464   7.070   3.175   6.039
10841TIP3    H232465   6.996   3.123   5.918
10842TIP3   OH232466   6.343   3.099   6.308
10842TIP3    H132467   6.364   3.034   6.377
10842TIP3    H232468   6.410   3.166   6.326
10843TIP3   OH232469   7.281   3.506   5.634
10843TIP3    H132470   7.268   3.435   5.697
10843TIP3    H232471   7.310   3.579   5.691
10844TIP3   OH232472   6.308   3.509   6.041
10844TIP3    H132473   6.298   3.412   6.046
10844TIP3    H232474   6.404   3.517   6.043
10845TIP3   OH232475   6.018   2.711   5.828
10845TIP3    H132476   5.973   2.796   5.846
10845TIP3    H232477   5.944   2.659   5.793
10846TIP3   OH232478   6.076   2.998   5.995
10846TIP3    H132479   6.124   2.923   6.036
10846TIP3    H232480   6.140   3.028   5.929
10847TIP3   OH232481   6.930   3.970   5.651
10847TIP3    H132482   6.978   3.898   5.603
10847TIP3    H232483   6.921   3.932   5.739
10848TIP3   OH232484   6.838   3.431   6.000
10848TIP3    H132485   6.875   3.353   5.955
10848TIP3    H232486   6.923   3.474   6.024
10849TIP3   OH232487   7.847   2.752   5.999
10849TIP3    H132488   7.878   2.833   6.043
10849TIP3    H232489   7.872   2.770   5.907
10850TIP3   OH232490   7.250   2.933   6.035
10850TIP3    H132491   7.292   2.848   6.057
10850TIP3    H232492   7.220   2.916   5.944
10851TIP3   OH232493   6.587   2.590   5.999
10851TIP3    H132494   6.566   2.664   5.938
10851TIP3    H232495   6.537   2.518   5.955
10852TIP3   OH232496   7.281   2.681   5.622
10852TIP3    H132497   7.352   2.664   5.688
10852TIP3    H232498   7.334   2.717   5.549
10853TIP3   OH232499   6.221   2.794   6.105
10853TIP3    H132500   6.303   2.776   6.155
10853TIP3    H232501   6.235   2.737   6.027
10854TIP3   OH232502   6.664   2.991   5.892
10854TIP3    H132503   6.757   2.964   5.910
10854TIP3    H232504   6.624   2.906   5.864
10855TIP3   OH232505   7.924   2.958   6.167
10855TIP3    H132506   7.840   3.005   6.151
10855TIP3    H232507   7.935   2.975   6.262
10856TIP3   OH232508   6.584   2.574   6.433
10856TIP3    H132509   6.524   2.613   6.367
10856TIP3    H232510   6.534   2.592   6.516
10857TIP3   OH232511   6.936   3.427   5.441
10857TIP3    H132512   6.887   3.402   5.361
10857TIP3    H232513   6.890   3.511   5.465
10858TIP3   OH232514   6.692   3.349   6.231
10858TIP3    H132515   6.627   3.411   6.272
10858TIP3    H232516   6.730   3.403   6.160
10859TIP3   OH232517   7.493   2.682   5.792
10859TIP3    H132518   7.482   2.635   5.876
10859TIP3    H232519   7.547   2.759   5.819
10860TIP3   OH232520   6.454   2.690   6.219
10860TIP3    H132521   6.515   2.762   6.244
10860TIP3    H232522   6.504   2.650   6.144
10861TIP3   OH232523   6.515   3.540   6.329
10861TIP3    H132524   6.488   3.626   6.293
10861TIP3    H232525   6.436   3.518   6.382
10862TIP3   OH232526   5.915   3.232   5.562
10862TIP3    H132527   5.872   3.261   5.480
10862TIP3    H232528   5.946   3.316   5.601
10863TIP3   OH232529   7.354   3.749   5.804
10863TIP3    H132530   7.265   3.738   5.844
10863TIP3    H232531   7.343   3.835   5.758
10864TIP3   OH232532   7.642   2.649   6.164
10864TIP3    H132533   7.555   2.681   6.135
10864TIP3    H232534   7.702   2.682   6.095
10865TIP3   OH232535   6.942   2.295   6.146
10865TIP3    H132536   6.928   2.200   6.164
10865TIP3    H232537   6.864   2.333   6.193
10866TIP3   OH232538   7.058   3.796   5.479
10866TIP3    H132539   7.106   3.713   5.459
10866TIP3    H232540   7.120   3.860   5.436
10867TIP3   OH232541   7.200   3.581   5.381
10867TIP3    H132542   7.156   3.504   5.344
10867TIP3    H232543   7.234   3.545   5.466
10868TIP3   OH232544   7.579   3.664   6.145
10868TIP3    H132545   7.568   3.584   6.089
10868TIP3    H232546   7.563   3.736   6.081
10869TIP3   OH232547   6.870   3.054   5.402
10869TIP3    H132548   6.790   3.107   5.381
10869TIP3    H232549   6.916   3.053   5.316
10870TIP3   OH232550   6.829   2.839   5.120
10870TIP3    H132551   6.895   2.890   5.169
10870TIP3    H232552   6.888   2.776   5.073
10871TIP3   OH232553   7.774   3.299   5.990
10871TIP3    H132554   7.691   3.351   5.997
10871TIP3    H232555   7.802   3.323   5.899
10872TIP3   OH232556   7.218   3.138   5.375
10872TIP3    H132557   7.163   3.162   5.453
10872TIP3    H232558   7.302   3.112   5.419
10873TIP3   OH232559   7.453   3.178   6.286
10873TIP3    H132560   7.451   3.261   6.338
10873TIP3    H232561   7.366   3.183   6.241
10874TIP3   OH232562   6.451   3.136   5.790
10874TIP3    H132563   6.410   3.078   5.723
10874TIP3    H232564   6.528   3.083   5.819
10875TIP3   OH232565   6.584   3.552   5.938
10875TIP3    H132566   6.558   3.503   5.859
10875TIP3    H232567   6.673   3.515   5.957
10876TIP3   OH232568   6.598   3.104   6.144
10876TIP3    H132569   6.626   3.090   6.051
10876TIP3    H232570   6.633   3.193   6.165
10877TIP3   OH232571   7.112   3.745   5.923
10877TIP3    H132572   7.099   3.823   5.978
10877TIP3    H232573   7.097   3.670   5.985
10878TIP3   OH232574   6.723   3.666   6.468
10878TIP3    H132575   6.662   3.726   6.516
10878TIP3    H232576   6.658   3.610   6.420
10879TIP3   OH232577   7.059   2.996   5.200
10879TIP3    H132578   7.117   3.056   5.253
10879TIP3    H232579   7.087   3.020   5.108
10880TIP3   OH232580   6.478   3.224   6.561
10880TIP3    H132581   6.476   3.310   6.608
10880TIP3    H232582   6.388   3.192   6.581
10881TIP3   OH232583   6.801   3.676   5.475
10881TIP3    H132584   6.877   3.731   5.498
10881TIP3    H232585   6.738   3.739   5.437
10882TIP3   OH232586   6.518   3.835   6.558
10882TIP3    H132587   6.483   3.831   6.467
10882TIP3    H232588   6.439   3.811   6.612
10883TIP3   OH232589   7.574   2.238   5.248
10883TIP3    H132590   7.493   2.259   5.299
10883TIP3    H232591   7.588   2.322   5.199
10884TIP3   OH232592   6.318   2.978   5.594
10884TIP3    H132593   6.251   3.023   5.538
10884TIP3    H232594   6.274   2.894   5.613
10885TIP3   OH232595   7.373   3.605   4.797
10885TIP3    H132596   7.383   3.701   4.784
10885TIP3    H232597   7.465   3.573   4.784
10886TIP3   OH232598   5.952   3.563   6.126
10886TIP3    H132599   6.047   3.546   6.130
10886TIP3    H232600   5.940   3.628   6.196
10887TIP3   OH232601   7.815   4.005   6.188
10887TIP3    H132602   7.816   3.909   6.204
10887TIP3    H232603   7.733   4.029   6.237
10888TIP3   OH232604   6.921   3.793   6.326
10888TIP3    H132605   6.921   3.885   6.360
10888TIP3    H232606   6.849   3.753   6.380
10889TIP3   OH232607   6.683   3.924   5.277
10889TIP3    H132608   6.635   3.904   5.194
10889TIP3    H232609   6.649   4.012   5.301
10890TIP3   OH232610   6.120   3.772   5.663
10890TIP3    H132611   6.168   3.762   5.748
10890TIP3    H232612   6.063   3.694   5.667
10891TIP3   OH232613   6.885   3.824   4.919
10891TIP3    H132614   6.944   3.754   4.883
10891TIP3    H232615   6.917   3.832   5.011
10892TIP3   OH232616   6.934   3.870   5.190
10892TIP3    H132617   6.845   3.881   5.230
10892TIP3    H232618   6.981   3.826   5.262
10893TIP3   OH232619   7.709   3.137   6.466
10893TIP3    H132620   7.627   3.147   6.415
10893TIP3    H232621   7.726   3.041   6.455
10894TIP3   OH232622   6.297   3.535   6.496
10894TIP3    H132623   6.357   3.522   6.573
10894TIP3    H232624   6.214   3.502   6.537
10895TIP3   OH232625   6.703   2.369   6.275
10895TIP3    H132626   6.613   2.339   6.250
10895TIP3    H232627   6.679   2.452   6.321
10896TIP3   OH232628   7.236   2.484   6.470
10896TIP3    H132629   7.304   2.458   6.535
10896TIP3    H232630   7.152   2.465   6.517
10897TIP3   OH232631   7.473   2.912   6.388
10897TIP3    H132632   7.424   2.908   6.473
10897TIP3    H232633   7.450   3.001   6.355
10898TIP3   OH232634   7.134   3.045   4.945
10898TIP3    H132635   7.101   3.018   4.858
10898TIP3    H232636   7.215   3.094   4.920
10899TIP3   OH232637   6.847   2.420   5.247
10899TIP3    H132638   6.815   2.417   5.340
10899TIP3    H232639   6.809   2.336   5.214
10900TIP3   OH232640   6.634   2.883   6.296
10900TIP3    H132641   6.582   2.906   6.377
10900TIP3    H232642   6.619   2.964   6.242
10901TIP3   OH232643   6.518   2.770   5.808
10901TIP3    H132644   6.425   2.745   5.827
10901TIP3    H232645   6.530   2.729   5.720
10902TIP3   OH232646   7.009   2.856   5.535
10902TIP3    H132647   6.955   2.928   5.495
10902TIP3    H232648   7.063   2.827   5.459
10903TIP3   OH232649   7.183   3.137   6.624
10903TIP3    H132650   7.162   3.064   6.685
10903TIP3    H232651   7.278   3.150   6.644
10904TIP3   OH232652   7.166   2.886   5.776
10904TIP3    H132653   7.106   2.916   5.705
10904TIP3    H232654   7.198   2.803   5.733
10905TIP3   OH232655   6.458   2.913   6.504
10905TIP3    H132656   6.446   2.983   6.569
10905TIP3    H232657   6.442   2.833   6.558
10906TIP3   OH232658   6.501   2.389   5.213
10906TIP3    H132659   6.495   2.388   5.310
10906TIP3    H232660   6.424   2.444   5.190
10907TIP3   OH232661   6.046   2.435   6.082
10907TIP3    H132662   6.119   2.469   6.138
10907TIP3    H232663   6.091   2.405   6.002
10908TIP3   OH232664   6.021   2.417   5.603
10908TIP3    H132665   6.068   2.456   5.526
10908TIP3    H232666   5.960   2.491   5.624
10909TIP3   OH232667   7.176   3.133   6.199
10909TIP3    H132668   7.209   3.060   6.142
10909TIP3    H232669   7.147   3.081   6.277
10910TIP3   OH232670   6.842   2.593   5.870
10910TIP3    H132671   6.760   2.592   5.922
10910TIP3    H232672   6.910   2.593   5.940
10911TIP3   OH232673   6.279   2.648   5.878
10911TIP3    H132674   6.185   2.657   5.851
10911TIP3    H232675   6.301   2.556   5.855
10912TIP3   OH232676   6.550   2.644   5.566
10912TIP3    H132677   6.644   2.661   5.546
10912TIP3    H232678   6.503   2.667   5.483
10913TIP3   OH232679   7.335   2.669   6.069
10913TIP3    H132680   7.304   2.681   6.161
10913TIP3    H232681   7.269   2.607   6.035
10914TIP3   OH232682   6.389   2.676   5.346
10914TIP3    H132683   6.315   2.635   5.299
10914TIP3    H232684   6.440   2.713   5.271
10915TIP3   OH232685   7.504   4.359   6.290
10915TIP3    H132686   7.503   4.379   6.195
10915TIP3    H232687   7.583   4.407   6.320
10916TIP3   OH232688   6.467   3.472   6.713
10916TIP3    H132689   6.543   3.499   6.768
10916TIP3    H232690   6.398   3.463   6.781
10917TIP3   OH232691   6.927   2.920   5.968
10917TIP3    H132692   7.002   2.881   5.919
10917TIP3    H232693   6.937   2.880   6.056
10918TIP3   OH232694   6.452   2.410   5.844
10918TIP3    H132695   6.418   2.331   5.891
10918TIP3    H232696   6.506   2.371   5.774
10919TIP3   OH232697   6.905   2.816   6.258
10919TIP3    H132698   6.815   2.853   6.271
10919TIP3    H232699   6.962   2.877   6.309
10920TIP3   OH232700   6.642   3.209   5.352
10920TIP3    H132701   6.570   3.143   5.342
10920TIP3    H232702   6.623   3.243   5.444
10921TIP3   OH232703   7.542   3.446   5.983
10921TIP3    H132704   7.565   3.495   5.901
10921TIP3    H232705   7.458   3.402   5.959
10922TIP3   OH232706   7.100   2.522   5.209
10922TIP3    H132707   7.003   2.506   5.220
10922TIP3    H232708   7.111   2.616   5.237
10923TIP3   OH232709   7.048   3.531   6.347
10923TIP3    H132710   7.060   3.499   6.437
10923TIP3    H232711   7.000   3.615   6.360
10924TIP3   OH232712   7.170   2.767   5.316
10924TIP3    H132713   7.266   2.773   5.334
10924TIP3    H232714   7.153   2.848   5.264
10925TIP3   OH232715   6.335   3.232   6.030
10925TIP3    H132716   6.374   3.197   5.947
10925TIP3    H232717   6.366   3.168   6.097
10926TIP3   OH232718   6.785   3.358   5.172
10926TIP3    H132719   6.738   3.444   5.178
10926TIP3    H232720   6.731   3.303   5.233
10927TIP3   OH232721   6.245   3.102   6.636
10927TIP3    H132722   6.235   3.132   6.728
10927TIP3    H232723   6.153   3.102   6.605
10928TIP3   OH232724   6.939   3.265   6.661
10928TIP3    H132725   6.877   3.205   6.616
10928TIP3    H232726   7.025   3.229   6.632
10929TIP3   OH232727   7.202   3.795   6.240
10929TIP3    H132728   7.107   3.783   6.256
10929TIP3    H232729   7.229   3.841   6.322
10930TIP3   OH232730   7.611   2.857   5.155
10930TIP3    H132731   7.549   2.813   5.093
10930TIP3    H232732   7.609   2.946   5.114
10931TIP3   OH232733   7.830   3.717   6.233
10931TIP3    H132734   7.732   3.710   6.227
10931TIP3    H232735   7.855   3.684   6.144
10932TIP3   OH232736   7.313   3.678   5.062
10932TIP3    H132737   7.285   3.610   5.125
10932TIP3    H232738   7.322   3.628   4.979
10933TIP3   OH232739   7.308   3.307   5.902
10933TIP3    H132740   7.214   3.281   5.915
10933TIP3    H232741   7.342   3.227   5.857
10934TIP3   OH232742   6.433   3.532   5.649
10934TIP3    H132743   6.431   3.615   5.598
10934TIP3    H232744   6.340   3.517   5.665
10935TIP3   OH232745   5.997   2.838   5.355
10935TIP3    H132746   6.043   2.922   5.376
10935TIP3    H232747   5.921   2.843   5.416
10936TIP3   OH232748   6.576   3.300   5.597
10936TIP3    H132749   6.539   3.389   5.615
10936TIP3    H232750   6.540   3.249   5.671
10937TIP3   OH232751   6.702   3.880   6.123
10937TIP3    H132752   6.746   3.950   6.072
10937TIP3    H232753   6.777   3.842   6.171
10938TIP3   OH232754   6.353   3.773   5.505
10938TIP3    H132755   6.268   3.780   5.552
10938TIP3    H232756   6.384   3.866   5.507
10939TIP3   OH232757   7.094   3.511   6.080
10939TIP3    H132758   7.084   3.511   6.178
10939TIP3    H232759   7.173   3.457   6.068
10940TIP3   OH232760   7.065   3.405   4.963
10940TIP3    H132761   7.118   3.379   5.042
10940TIP3    H232762   6.976   3.378   4.992
10941TIP3   OH232763   7.341   4.048   6.134
10941TIP3    H132764   7.264   3.987   6.129
10941TIP3    H232765   7.322   4.109   6.059
10942TIP3   OH232766   7.408   3.885   4.784
10942TIP3    H132767   7.416   3.934   4.701
10942TIP3    H232768   7.328   3.927   4.822
10943TIP3   OH232769   6.426   2.652   6.652
10943TIP3    H132770   6.331   2.660   6.667
10943TIP3    H232771   6.454   2.593   6.724
10944TIP3   OH232772   7.226   3.338   5.179
10944TIP3    H132773   7.214   3.273   5.252
10944TIP3    H232774   7.323   3.335   5.168
10945TIP3   OH232775   6.145   3.741   6.282
10945TIP3    H132776   6.188   3.661   6.313
10945TIP3    H232777   6.166   3.802   6.353
10946TIP3   OH232778   6.434   3.386   4.962
10946TIP3    H132779   6.447   3.294   4.934
10946TIP3    H232780   6.415   3.374   5.058
10947TIP3   OH232781   6.379   3.390   5.235
10947TIP3    H132782   6.448   3.363   5.297
10947TIP3    H232783   6.384   3.488   5.242
10948TIP3   OH232784   6.115   3.085   5.438
10948TIP3    H132785   6.049   3.128   5.496
10948TIP3    H232786   6.128   3.155   5.371
10949TIP3   OH232787   7.263   2.718   6.328
10949TIP3    H132788   7.340   2.760   6.370
10949TIP3    H232789   7.248   2.639   6.384
10950TIP3   OH232790   7.143   2.472   5.494
10950TIP3    H132791   7.130   2.497   5.400
10950TIP3    H232792   7.181   2.555   5.532
10951TIP3   OH232793   6.644   3.588   5.184
10951TIP3    H132794   6.558   3.614   5.221
10951TIP3    H232795   6.658   3.659   5.120
10952TIP3   OH232796   6.833   2.651   5.597
10952TIP3    H132797   6.897   2.723   5.581
10952TIP3    H232798   6.837   2.643   5.695
10953TIP3   OH232799   7.103   2.972   6.405
10953TIP3    H132800   7.118   3.026   6.486
10953TIP3    H232801   7.157   2.893   6.423
10954TIP3   OH232802   6.977   2.380   5.700
10954TIP3    H132803   6.973   2.455   5.762
10954TIP3    H232804   7.037   2.417   5.631
10955TIP3   OH232805   6.387   3.663   5.251
10955TIP3    H132806   6.356   3.732   5.188
10955TIP3    H232807   6.370   3.706   5.337
10956TIP3   OH232808   6.488   2.377   5.489
10956TIP3    H132809   6.485   2.467   5.526
10956TIP3    H232810   6.584   2.358   5.499
10957TIP3   OH232811   7.740   2.873   6.378
10957TIP3    H132812   7.643   2.869   6.390
10957TIP3    H232813   7.750   2.827   6.295
10958TIP3   OH232814   7.393   3.066   5.774
10958TIP3    H132815   7.317   3.006   5.787
10958TIP3    H232816   7.465   3.020   5.821
10959TIP3   OH232817   6.104   3.295   5.244
10959TIP3    H132818   6.167   3.368   5.254
10959TIP3    H232819   6.152   3.242   5.177
10960TIP3   OH232820   6.050   2.569   5.376
10960TIP3    H132821   6.050   2.667   5.372
10960TIP3    H232822   5.963   2.549   5.340
10961TIP3   OH232823   7.360   4.021   5.725
10961TIP3    H132824   7.317   4.068   5.650
10961TIP3    H232825   7.454   4.039   5.703
10962TIP3   OH232826   6.438   2.289   6.252
10962TIP3    H132827   6.406   2.256   6.166
10962TIP3    H232828   6.427   2.211   6.310
10963TIP3   OH232829   5.980   3.508   5.632
10963TIP3    H132830   5.907   3.538   5.689
10963TIP3    H232831   5.953   3.547   5.546
10964TIP3   OH232832   6.128   4.044   6.703
10964TIP3    H132833   6.216   4.037   6.747
10964TIP3    H232834   6.102   3.950   6.699
10965TIP3   OH232835   6.620   4.017   6.745
10965TIP3    H132836   6.712   3.988   6.752
10965TIP3    H232837   6.588   3.958   6.673
10966TIP3   OH232838   6.597   3.590   4.877
10966TIP3    H132839   6.539   3.519   4.914
10966TIP3    H232840   6.671   3.536   4.844
10967TIP3   OH232841   7.253   3.920   6.482
10967TIP3    H132842   7.242   3.850   6.550
10967TIP3    H232843   7.332   3.968   6.514
10968TIP3   OH232844   7.034   3.632   4.788
10968TIP3    H132845   7.076   3.566   4.845
10968TIP3    H232846   7.088   3.628   4.706
10969TIP3   OH232847   6.273   3.455   6.912
10969TIP3    H132848   6.286   3.358   6.912
10969TIP3    H232849   6.198   3.460   6.848
10970TIP3   OH232850   6.240   3.108   5.095
10970TIP3    H132851   6.294   3.074   5.169
10970TIP3    H232852   6.308   3.112   5.025
10971TIP3   OH232853   6.871   3.540   6.676
10971TIP3    H132854   6.827   3.552   6.590
10971TIP3    H232855   6.901   3.446   6.672
10972TIP3   OH232856   6.749   3.305   4.902
10972TIP3    H132857   6.751   3.317   4.999
10972TIP3    H232858   6.747   3.207   4.897
10973TIP3   OH232859   7.364   3.545   6.282
10973TIP3    H132860   7.437   3.593   6.239
10973TIP3    H232861   7.290   3.607   6.270
10974TIP3   OH232862   6.383   3.196   6.887
10974TIP3    H132863   6.450   3.131   6.865
10974TIP3    H232864   6.411   3.224   6.976
10975TIP3   OH232865   6.450   3.010   5.320
10975TIP3    H132866   6.421   2.969   5.404
10975TIP3    H232867   6.485   2.932   5.271
10976TIP3   OH232868   6.722   3.080   6.553
10976TIP3    H132869   6.638   3.131   6.551
10976TIP3    H232870   6.766   3.110   6.471
10977TIP3   OH232871   6.547   2.801   5.160
10977TIP3    H132872   6.522   2.806   5.066
10977TIP3    H232873   6.645   2.807   5.153
10978TIP3   OH232874   7.236   3.478   6.683
10978TIP3    H132875   7.316   3.453   6.635
10978TIP3    H232876   7.231   3.409   6.750
10979TIP3   OH232877   7.372   3.135   4.821
10979TIP3    H132878   7.351   3.088   4.738
10979TIP3    H232879   7.338   3.225   4.797
10980TIP3   OH232880   6.841   2.862   6.674
10980TIP3    H132881   6.839   2.782   6.617
10980TIP3    H232882   6.796   2.928   6.617
10981TIP3   OH232883   6.842   2.647   6.480
10981TIP3    H132884   6.869   2.690   6.396
10981TIP3    H232885   6.748   2.626   6.462
10982TIP3   OH232886   6.875   3.185   6.352
10982TIP3    H132887   6.955   3.193   6.299
10982TIP3    H232888   6.815   3.250   6.309
10983TIP3   OH232889   7.455   3.151   6.736
10983TIP3    H132890   7.501   3.067   6.752
10983TIP3    H232891   7.527   3.208   6.706
10984TIP3   OH232892   7.494   3.403   6.472
10984TIP3    H132893   7.437   3.455   6.412
10984TIP3    H232894   7.582   3.423   6.432
10985TIP3   OH232895   6.720   2.975   6.906
10985TIP3    H132896   6.649   2.908   6.918
10985TIP3    H232897   6.752   2.952   6.816
10986TIP3   OH232898   6.975   2.411   6.545
10986TIP3    H132899   6.926   2.494   6.524
10986TIP3    H232900   6.905   2.344   6.535
10987TIP3   OH232901   7.101   2.919   6.763
10987TIP3    H132902   7.093   2.905   6.859
10987TIP3    H232903   7.010   2.893   6.736
10988TIP3   OH232904   7.338   2.865   6.616
10988TIP3    H132905   7.265   2.867   6.681
10988TIP3    H232906   7.413   2.836   6.673
10989TIP3   OH232907   7.560   2.807   6.768
10989TIP3    H132908   7.578   2.713   6.786
10989TIP3    H232909   7.563   2.846   6.859
10990TIP3   OH232910   6.555   2.756   6.956
10990TIP3    H132911   6.564   2.667   6.919
10990TIP3    H232912   6.592   2.744   7.045
10991TIP3   OH232913   7.069   2.421   6.803
10991TIP3    H132914   7.138   2.352   6.798
10991TIP3    H232915   7.030   2.414   6.713
10992TIP3   OH232916   7.135   2.637   6.964
10992TIP3    H132917   7.113   2.566   6.899
10992TIP3    H232918   7.058   2.696   6.957
10993TIP3   OH232919   6.355   3.867   5.064
10993TIP3    H132920   6.450   3.863   5.044
10993TIP3    H232921   6.324   3.914   4.984
10994TIP3   OH232922   5.835   3.248   5.280
10994TIP3    H132923   5.930   3.270   5.266
10994TIP3    H232924   5.830   3.159   5.240
10995TIP3   OH232925   5.748   3.860   5.696
10995TIP3    H132926   5.683   3.796   5.659
10995TIP3    H232927   5.794   3.803   5.762
10996TIP3   OH232928   5.886   3.713   5.882
10996TIP3    H132929   5.879   3.637   5.943
10996TIP3    H232930   5.936   3.774   5.939
10997TIP3   OH232931   7.611   4.115   5.679
10997TIP3    H132932   7.640   4.143   5.768
10997TIP3    H232933   7.676   4.158   5.622
10998TIP3   OH232934   7.645   4.132   5.960
10998TIP3    H132935   7.598   4.046   5.956
10998TIP3    H232936   7.717   4.107   6.020
10999TIP3   OH232937   7.685   3.813   6.529
10999TIP3    H132938   7.615   3.816   6.598
10999TIP3    H232939   7.728   3.900   6.540
11000TIP3   OH232940   7.505   3.323   5.156
11000TIP3    H132941   7.575   3.384   5.128
11000TIP3    H232942   7.547   3.283   5.236
11001TIP3   OH232943   7.632   3.191   5.360
11001TIP3    H132944   7.567   3.147   5.418
11001TIP3    H232945   7.697   3.227   5.423
11002TIP3   OH232946   7.687   3.581   5.791
11002TIP3    H132947   7.740   3.515   5.742
11002TIP3    H232948   7.676   3.652   5.725
11003TIP3   OH232949   7.519   3.884   5.985
11003TIP3    H132950   7.447   3.921   6.039
11003TIP3    H232951   7.470   3.834   5.916
11004TIP3   OH232952   7.572   3.097   5.006
11004TIP3    H132953   7.500   3.099   4.938
11004TIP3    H232954   7.542   3.172   5.062
11005TIP3   OH232955   7.442   2.771   4.961
11005TIP3    H132956   7.401   2.808   4.882
11005TIP3    H232957   7.416   2.677   4.953
11006TIP3   OH232958   7.448   3.045   5.506
11006TIP3    H132959   7.456   2.949   5.500
11006TIP3    H232960   7.434   3.059   5.603
11007TIP3   OH232961   6.075   3.120   6.253
11007TIP3    H132962   6.071   3.093   6.159
11007TIP3    H232963   6.172   3.119   6.269
11008TIP3   OH232964   7.736   3.471   6.361
11008TIP3    H132965   7.809   3.404   6.355
11008TIP3    H232966   7.767   3.539   6.300
11009TIP3   OH232967   7.922   3.278   6.375
11009TIP3    H132968   7.849   3.225   6.413
11009TIP3    H232969   7.998   3.218   6.394
11010TIP3   OH232970   7.385   2.506   4.950
11010TIP3    H132971   7.463   2.475   5.000
11010TIP3    H232972   7.315   2.444   4.974
11011TIP3   OH232973   7.443   2.761   5.402
11011TIP3    H132974   7.483   2.672   5.417
11011TIP3    H232975   7.503   2.793   5.332
11012TIP3   OH232976   7.605   2.937   5.895
11012TIP3    H132977   7.691   2.963   5.855
11012TIP3    H232978   7.619   2.972   5.985
11013TIP3   OH232979   7.672   3.078   6.127
11013TIP3    H132980   7.595   3.113   6.176
11013TIP3    H232981   7.706   3.159   6.084
11014TIP3   OH232982   6.287   2.804   6.921
11014TIP3    H132983   6.385   2.799   6.924
11014TIP3    H232984   6.265   2.721   6.967
11015TIP3   OH232985   8.134   2.659   6.657
11015TIP3    H132986   8.184   2.589   6.611
11015TIP3    H232987   8.100   2.713   6.582
11016TIP3   OH232988   7.552   2.511   5.438
11016TIP3    H132989   7.602   2.497   5.521
11016TIP3    H232990   7.492   2.434   5.439
11017TIP3   OH232991   6.252   2.496   6.255
11017TIP3    H132992   6.316   2.423   6.267
11017TIP3    H232993   6.312   2.573   6.252
11018TIP3   OH232994   6.057   2.769   6.333
11018TIP3    H132995   6.108   2.773   6.249
11018TIP3    H232996   6.072   2.857   6.369
11019TIP3   OH232997   8.001   2.817   6.485
11019TIP3    H132998   7.929   2.850   6.544
11019TIP3    H232999   7.952   2.751   6.431
11020TIP3   OH233000   7.634   2.448   5.069
11020TIP3    H133001   7.674   2.374   5.018
11020TIP3    H233002   7.703   2.516   5.064
11021TIP3   OH233003   6.038   2.271   5.828
11021TIP3    H133004   5.946   2.273   5.858
11021TIP3    H233005   6.036   2.333   5.752
11022TIP3   OH233006   7.199   3.978   5.337
11022TIP3    H133007   7.250   3.963   5.255
11022TIP3    H233008   7.253   4.044   5.383
11023TIP3   OH233009   6.258   2.353   6.645
11023TIP3    H133010   6.208   2.351   6.729
11023TIP3    H233011   6.192   2.393   6.585
11024TIP3   OH233012   6.298   3.785   6.725
11024TIP3    H133013   6.211   3.748   6.700
11024TIP3    H233014   6.306   3.754   6.816
11025TIP3   OH233015   6.476   3.813   6.273
11025TIP3    H133016   6.425   3.886   6.233
11025TIP3    H233017   6.562   3.828   6.228
11026TIP3   OH233018   6.924   4.060   6.411
11026TIP3    H133019   6.966   4.061   6.499
11026TIP3    H233020   6.989   4.110   6.358
11027TIP3   OH233021   7.102   4.211   6.266
11027TIP3    H133022   7.171   4.158   6.225
11027TIP3    H233023   7.154   4.267   6.328
11028TIP3   OH233024   7.895   2.574   6.368
11028TIP3    H133025   7.804   2.567   6.334
11028TIP3    H233026   7.927   2.482   6.357
11029TIP3   OH233027   6.155   4.078   6.290
11029TIP3    H133028   6.065   4.112   6.269
11029TIP3    H233029   6.157   4.093   6.385
11030TIP3   OH233030   6.392   4.053   6.152
11030TIP3    H133031   6.305   4.065   6.197
11030TIP3    H233032   6.370   4.083   6.061
11031TIP3   OH233033   6.817   4.081   5.948
11031TIP3    H133034   6.745   4.100   5.884
11031TIP3    H233035   6.827   4.169   5.991
11032TIP3   OH233036   7.084   4.021   6.001
11032TIP3    H133037   6.989   4.035   5.980
11032TIP3    H233038   7.125   4.098   5.959
11033TIP3   OH233039   7.296   4.214   5.918
11033TIP3    H133040   7.280   4.296   5.867
11033TIP3    H233041   7.319   4.150   5.846
11034TIP3   OH233042   6.066   3.867   6.042
11034TIP3    H133043   6.092   3.839   6.132
11034TIP3    H233044   6.135   3.820   5.990
11035TIP3   OH233045   6.257   3.736   5.895
11035TIP3    H133046   6.272   3.653   5.945
11035TIP3    H233047   6.348   3.772   5.890
11036TIP3   OH233048   6.525   3.832   5.897
11036TIP3    H133049   6.556   3.740   5.885
11036TIP3    H233050   6.567   3.852   5.983
11037TIP3   OH233051   7.098   2.487   5.982
11037TIP3    H133052   7.056   2.420   6.038
11037TIP3    H233053   7.173   2.439   5.943
11038TIP3   OH233054   7.625   2.364   5.890
11038TIP3    H133055   7.662   2.419   5.817
11038TIP3    H233056   7.530   2.386   5.886
11039TIP3   OH233057   7.719   2.470   5.655
11039TIP3    H133058   7.792   2.419   5.615
11039TIP3    H233059   7.752   2.562   5.640
11040TIP3   OH233060   6.350   2.197   6.002
11040TIP3    H133061   6.257   2.165   6.005
11040TIP3    H233062   6.398   2.111   5.999
11041TIP3   OH233063   6.132   2.066   5.648
11041TIP3    H133064   6.164   2.126   5.578
11041TIP3    H233065   6.105   2.129   5.717
11042TIP3   OH233066   6.792   2.228   5.884
11042TIP3    H133067   6.850   2.280   5.825
11042TIP3    H233068   6.810   2.268   5.970
11043TIP3   OH233069   7.340   2.375   5.868
11043TIP3    H133070   7.338   2.339   5.779
11043TIP3    H233071   7.325   2.295   5.922
11044TIP3   OH233072   7.368   2.297   5.428
11044TIP3    H133073   7.282   2.340   5.441
11044TIP3    H233074   7.354   2.213   5.477
11045TIP3   OH233075   5.853   3.636   5.432
11045TIP3    H133076   5.769   3.602   5.397
11045TIP3    H233077   5.841   3.731   5.413
11046TIP3   OH233078   6.251   2.226   5.414
11046TIP3    H133079   6.302   2.165   5.357
11046TIP3    H233080   6.323   2.281   5.451
11047TIP3   OH233081   6.766   2.400   5.513
11047TIP3    H133082   6.826   2.355   5.575
11047TIP3    H233083   6.787   2.493   5.538
11048TIP3   OH233084   6.624   3.828   5.011
11048TIP3    H133085   6.713   3.850   4.976
11048TIP3    H233086   6.602   3.753   4.952
11049TIP3   OH233087   7.346   3.944   5.104
11049TIP3    H133088   7.338   3.846   5.095
11049TIP3    H233089   7.295   3.974   5.026
11050TIP3   OH233090   6.557   2.476   6.892
11050TIP3    H133091   6.522   2.407   6.951
11050TIP3    H233092   6.651   2.477   6.921
11051TIP3   OH233093   6.805   2.474   7.013
11051TIP3    H133094   6.891   2.452   6.974
11051TIP3    H233095   6.795   2.404   7.080
11052TIP3   OH233096   5.929   3.665   5.070
11052TIP3    H133097   5.927   3.690   5.163
11052TIP3    H233098   6.018   3.624   5.060
11053TIP3   OH233099   7.628   2.537   6.795
11053TIP3    H133100   7.645   2.507   6.888
11053TIP3    H233101   7.719   2.535   6.758
11054TIP3   OH233102   7.571   4.090   6.293
11054TIP3    H133103   7.493   4.055   6.246
11054TIP3    H233104   7.548   4.185   6.297
11055TIP3   OH233105   8.833   3.472   5.406
11055TIP3    H133106   8.858   3.398   5.464
11055TIP3    H233107   8.777   3.425   5.342
11056TIP3   OH233108   8.135   3.355   5.803
11056TIP3    H133109   8.163   3.289   5.869
11056TIP3    H233110   8.211   3.415   5.805
11057TIP3   OH233111   8.103   3.766   5.531
11057TIP3    H133112   8.096   3.668   5.534
11057TIP3    H233113   8.200   3.775   5.527
11058TIP3   OH233114   7.812   2.970   5.316
11058TIP3    H133115   7.763   3.053   5.330
11058TIP3    H233116   7.742   2.913   5.281
11059TIP3   OH233117   7.873   3.256   5.485
11059TIP3    H133118   7.920   3.178   5.523
11059TIP3    H233119   7.931   3.279   5.412
11060TIP3   OH233120   8.736   4.188   5.120
11060TIP3    H133121   8.819   4.139   5.115
11060TIP3    H233122   8.720   4.188   5.215
11061TIP3   OH233123   8.626   3.682   5.489
11061TIP3    H133124   8.666   3.609   5.439
11061TIP3    H233125   8.701   3.744   5.494
11062TIP3   OH233126   8.375   2.847   5.490
11062TIP3    H133127   8.363   2.918   5.423
11062TIP3    H233128   8.332   2.773   5.443
11063TIP3   OH233129   8.018   3.050   5.591
11063TIP3    H133130   8.099   3.030   5.640
11063TIP3    H233131   8.031   2.993   5.512
11064TIP3   OH233132   8.441   3.256   5.375
11064TIP3    H133133   8.532   3.241   5.406
11064TIP3    H233134   8.414   3.165   5.346
11065TIP3   OH233135   8.379   2.839   5.924
11065TIP3    H133136   8.315   2.870   5.857
11065TIP3    H233137   8.328   2.852   6.006
11066TIP3   OH233138   8.747   3.708   4.950
11066TIP3    H133139   8.716   3.650   4.880
11066TIP3    H233140   8.686   3.784   4.943
11067TIP3   OH233141   8.487   3.605   5.723
11067TIP3    H133142   8.423   3.669   5.760
11067TIP3    H233143   8.527   3.655   5.649
11068TIP3   OH233144   8.248   2.947   5.707
11068TIP3    H133145   8.314   3.016   5.731
11068TIP3    H233146   8.295   2.905   5.631
11069TIP3   OH233147   8.313   3.798   5.815
11069TIP3    H133148   8.287   3.883   5.776
11069TIP3    H233149   8.235   3.781   5.871
11070TIP3   OH233150   7.710   3.488   5.049
11070TIP3    H133151   7.668   3.515   4.965
11070TIP3    H233152   7.742   3.572   5.086
11071TIP3   OH233153   8.661   3.285   4.872
11071TIP3    H133154   8.590   3.351   4.864
11071TIP3    H233155   8.721   3.312   4.801
11072TIP3   OH233156   8.237   3.400   5.274
11072TIP3    H133157   8.197   3.339   5.208
11072TIP3    H233158   8.313   3.346   5.306
11073TIP3   OH233159   8.375   3.808   5.426
11073TIP3    H133160   8.352   3.760   5.345
11073TIP3    H233161   8.464   3.772   5.446
11074TIP3   OH233162   8.387   3.362   5.634
11074TIP3    H133163   8.414   3.343   5.542
11074TIP3    H233164   8.426   3.451   5.651
11075TIP3   OH233165   8.794   3.971   5.442
11075TIP3    H133166   8.820   4.065   5.453
11075TIP3    H233167   8.881   3.928   5.446
11076TIP3   OH233168   8.519   3.921   5.959
11076TIP3    H133169   8.457   3.983   6.004
11076TIP3    H233170   8.455   3.867   5.909
11077TIP3   OH233171   8.272   3.483   6.050
11077TIP3    H133172   8.277   3.565   6.103
11077TIP3    H233173   8.180   3.456   6.067
11078TIP3   OH233174   8.612   3.959   4.952
11078TIP3    H133175   8.630   4.024   5.021
11078TIP3    H233176   8.534   3.995   4.907
11079TIP3   OH233177   8.314   4.092   6.044
11079TIP3    H133178   8.278   4.088   5.953
11079TIP3    H233179   8.235   4.069   6.098
11080TIP3   OH233180   8.111   3.235   5.083
11080TIP3    H133181   8.045   3.277   5.024
11080TIP3    H233182   8.072   3.148   5.098
11081TIP3   OH233183   7.895   3.619   5.990
11081TIP3    H133184   7.829   3.594   5.922
11081TIP3    H233185   7.932   3.532   6.017
11082TIP3   OH233186   7.747   3.815   5.618
11082TIP3    H133187   7.843   3.803   5.615
11082TIP3    H233188   7.739   3.890   5.679
11083TIP3   OH233189   8.717   4.047   5.820
11083TIP3    H133190   8.710   4.140   5.852
11083TIP3    H233191   8.643   4.005   5.869
11084TIP3   OH233192   8.473   4.176   4.768
11084TIP3    H133193   8.434   4.157   4.681
11084TIP3    H233194   8.449   4.269   4.782
11085TIP3   OH233195   7.915   4.032   5.151
11085TIP3    H133196   7.964   4.021   5.235
11085TIP3    H233197   7.862   3.949   5.151
11086TIP3   OH233198   8.666   4.113   4.463
11086TIP3    H133199   8.704   4.035   4.416
11086TIP3    H233200   8.716   4.114   4.546
11087TIP3   OH233201   8.743   4.141   4.728
11087TIP3    H133202   8.651   4.147   4.760
11087TIP3    H233203   8.774   4.062   4.776
11088TIP3   OH233204   8.097   3.804   5.982
11088TIP3    H133205   8.149   3.784   6.063
11088TIP3    H233206   8.025   3.738   5.988
11089TIP3   OH233207   8.485   2.624   5.777
11089TIP3    H133208   8.399   2.596   5.743
11089TIP3    H233209   8.463   2.711   5.813
11090TIP3   OH233210   8.424   3.144   5.789
11090TIP3    H133211   8.368   3.165   5.867
11090TIP3    H233212   8.407   3.223   5.732
11091TIP3   OH233213   8.313   3.024   5.293
11091TIP3    H133214   8.221   2.996   5.310
11091TIP3    H233215   8.329   2.981   5.206
11092TIP3   OH233216   8.248   3.172   5.996
11092TIP3    H133217   8.273   3.230   6.069
11092TIP3    H233218   8.237   3.087   6.042
11093TIP3   OH233219   8.289   2.644   4.698
11093TIP3    H133220   8.287   2.645   4.795
11093TIP3    H233221   8.209   2.696   4.677
11094TIP3   OH233222   7.842   2.693   5.569
11094TIP3    H133223   7.917   2.725   5.624
11094TIP3    H233224   7.885   2.659   5.489
11095TIP3   OH233225   7.817   2.673   5.091
11095TIP3    H133226   7.864   2.710   5.014
11095TIP3    H233227   7.756   2.748   5.110
11096TIP3   OH233228   8.638   2.857   5.375
11096TIP3    H133229   8.553   2.845   5.420
11096TIP3    H233230   8.699   2.863   5.451
11097TIP3   OH233231   8.075   2.904   5.365
11097TIP3    H133232   7.980   2.910   5.338
11097TIP3    H233233   8.099   2.812   5.343
11098TIP3   OH233234   8.353   2.902   5.046
11098TIP3    H133235   8.440   2.923   5.010
11098TIP3    H233236   8.294   2.921   4.970
11099TIP3   OH233237   8.184   2.935   4.836
11099TIP3    H133238   8.110   2.892   4.789
11099TIP3    H233239   8.236   2.969   4.760
11100TIP3   OH233240   8.261   3.728   6.199
11100TIP3    H133241   8.340   3.754   6.250
11100TIP3    H233242   8.196   3.718   6.272
11101TIP3   OH233243   0.588   4.730   7.048
11101TIP3    H133244   0.602   4.668   6.975
11101TIP3    H233245   0.580   4.666   7.122
11102TIP3   OH233246   8.246   2.666   5.328
11102TIP3    H133247   8.214   2.588   5.377
11102TIP3    H233248   8.319   2.629   5.277
11103TIP3   OH233249   8.687   3.097   5.736
11103TIP3    H133250   8.596   3.112   5.770
11103TIP3    H233251   8.745   3.130   5.804
11104TIP3   OH233252   8.438   3.466   4.844
11104TIP3    H133253   8.368   3.399   4.833
11104TIP3    H233254   8.421   3.498   4.936
11105TIP3   OH233255   8.821   3.779   5.831
11105TIP3    H133256   8.845   3.755   5.921
11105TIP3    H233257   8.786   3.869   5.840
11106TIP3   OH233258   8.132   3.490   5.517
11106TIP3    H133259   8.165   3.458   5.431
11106TIP3    H233260   8.165   3.423   5.578
11107TIP3   OH233261   8.560   3.611   4.646
11107TIP3    H133262   8.527   3.701   4.665
11107TIP3    H233263   8.521   3.559   4.720
11108TIP3   OH233264   8.011   3.410   6.128
11108TIP3    H133265   8.036   3.395   6.222
11108TIP3    H233266   7.944   3.341   6.116
11109TIP3   OH233267   8.736   3.514   6.146
11109TIP3    H133268   8.668   3.457   6.105
11109TIP3    H233269   8.817   3.475   6.110
11110TIP3   OH233270   8.979   4.067   5.726
11110TIP3    H133271   8.884   4.063   5.745
11110TIP3    H233272   9.017   4.096   5.809
11111TIP3   OH233273   8.230   3.792   5.140
11111TIP3    H133274   8.227   3.872   5.085
11111TIP3    H233275   8.136   3.770   5.148
11112TIP3   OH233276   7.792   3.095   4.840
11112TIP3    H133277   7.839   3.178   4.862
11112TIP3    H233278   7.717   3.099   4.903
11113TIP3   OH233279   8.372   3.559   5.088
11113TIP3    H133280   8.333   3.647   5.107
11113TIP3    H233281   8.333   3.505   5.159
11114TIP3   OH233282   8.496   4.137   5.612
11114TIP3    H133283   8.539   4.207   5.558
11114TIP3    H233284   8.574   4.093   5.650
11115TIP3   OH233285   8.149   4.031   4.993
11115TIP3    H133286   8.064   4.037   5.040
11115TIP3    H233287   8.179   4.124   4.995
11116TIP3   OH233288   8.221   2.909   6.141
11116TIP3    H133289   8.125   2.920   6.155
11116TIP3    H233290   8.243   2.843   6.210
11117TIP3   OH233291   7.938   3.998   5.769
11117TIP3    H133292   7.988   3.920   5.796
11117TIP3    H233293   7.968   4.062   5.836
11118TIP3   OH233294   8.229   3.644   4.451
11118TIP3    H133295   8.242   3.553   4.419
11118TIP3    H233296   8.210   3.629   4.546
11119TIP3   OH233297   8.174   3.646   4.725
11119TIP3    H133298   8.249   3.617   4.777
11119TIP3    H233299   8.181   3.744   4.730
11120TIP3   OH233300   7.911   3.340   4.924
11120TIP3    H133301   7.845   3.385   4.982
11120TIP3    H233302   7.926   3.410   4.858
11121TIP3   OH233303   8.440   3.851   4.679
11121TIP3    H133304   8.350   3.878   4.707
11121TIP3    H233305   8.456   3.915   4.608
11122TIP3   OH233306   8.180   3.920   4.737
11122TIP3    H133307   8.150   3.989   4.673
11122TIP3    H233308   8.166   3.964   4.823
11123TIP3   OH233309   8.279   2.636   4.974
11123TIP3    H133310   8.280   2.724   5.017
11123TIP3    H233311   8.372   2.612   4.981
11124TIP3   OH233312   7.901   3.552   4.730
11124TIP3    H133313   7.969   3.622   4.740
11124TIP3    H233314   7.946   3.497   4.662
11125TIP3   OH233315   7.847   2.827   4.867
11125TIP3    H133316   7.844   2.925   4.859
11125TIP3    H233317   7.766   2.801   4.822
11126TIP3   OH233318   8.222   2.548   5.740
11126TIP3    H133319   8.200   2.511   5.652
11126TIP3    H233320   8.220   2.468   5.797
11127TIP3   OH233321   7.778   3.773   5.121
11127TIP3    H133322   7.700   3.796   5.173
11127TIP3    H233323   7.752   3.804   5.032
11128TIP3   OH233324   7.926   4.303   6.192
11128TIP3    H133325   8.013   4.299   6.235
11128TIP3    H233326   7.904   4.208   6.188
11129TIP3   OH233327   8.414   4.274   6.232
11129TIP3    H133328   8.506   4.246   6.241
11129TIP3    H233329   8.385   4.215   6.159
11130TIP3   OH233330   8.400   3.842   4.368
11130TIP3    H133331   8.335   3.775   4.400
11130TIP3    H233332   8.480   3.787   4.364
11131TIP3   OH233333   8.060   3.713   6.390
11131TIP3    H133334   8.077   3.617   6.403
11131TIP3    H233335   7.973   3.711   6.346
11132TIP3   OH233336   8.038   3.365   4.581
11132TIP3    H133337   8.090   3.329   4.655
11132TIP3    H233338   8.107   3.369   4.512
11133TIP3   OH233339   8.675   3.794   6.160
11133TIP3    H133340   8.626   3.811   6.077
11133TIP3    H233341   8.693   3.698   6.155
11134TIP3   OH233342   8.556   3.546   4.382
11134TIP3    H133343   8.569   3.580   4.473
11134TIP3    H233344   8.508   3.465   4.402
11135TIP3   OH233345   8.186   3.444   6.364
11135TIP3    H133346   8.265   3.387   6.347
11135TIP3    H233347   8.205   3.471   6.456
11136TIP3   OH233348   8.243   3.267   4.806
11136TIP3    H133349   8.219   3.225   4.890
11136TIP3    H233350   8.282   3.192   4.756
11137TIP3   OH233351   8.515   3.337   6.037
11137TIP3    H133352   8.432   3.388   6.046
11137TIP3    H233353   8.552   3.371   5.954
11138TIP3   OH233354   8.342   3.057   4.647
11138TIP3    H133355   8.312   3.050   4.554
11138TIP3    H233356   8.438   3.050   4.636
11139TIP3   OH233357   8.625   3.100   6.149
11139TIP3    H133358   8.627   3.030   6.080
11139TIP3    H233359   8.578   3.173   6.105
11140TIP3   OH233360   8.639   2.907   5.949
11140TIP3    H133361   8.660   2.928   5.856
11140TIP3    H233362   8.545   2.879   5.942
11141TIP3   OH233363   8.670   3.441   5.836
11141TIP3    H133364   8.694   3.398   5.753
11141TIP3    H233365   8.612   3.514   5.804
11142TIP3   OH233366   8.407   3.282   6.344
11142TIP3    H133367   8.381   3.199   6.389
11142TIP3    H233368   8.503   3.272   6.343
11143TIP3   OH233369   8.760   2.666   6.032
11143TIP3    H133370   8.714   2.750   6.012
11143TIP3    H233371   8.688   2.601   6.019
11144TIP3   OH233372   8.897   3.173   6.231
11144TIP3    H133373   8.927   3.189   6.322
11144TIP3    H233374   8.800   3.166   6.243
11145TIP3   OH233375   8.359   3.018   6.430
11145TIP3    H133376   8.405   2.958   6.371
11145TIP3    H233377   8.399   2.995   6.517
11146TIP3   OH233378   0.626   4.402   8.085
11146TIP3    H133379   0.666   4.344   8.017
11146TIP3    H233380   0.702   4.454   8.113
11147TIP3   OH233381   8.141   4.125   4.555
11147TIP3    H133382   8.237   4.117   4.540
11147TIP3    H233383   8.118   4.172   4.472
11148TIP3   OH233384   7.632   3.505   4.767
11148TIP3    H133385   7.727   3.526   4.753
11148TIP3    H233386   7.626   3.415   4.727
11149TIP3   OH233387   7.550   4.118   5.176
11149TIP3    H133388   7.480   4.056   5.145
11149TIP3    H233389   7.592   4.063   5.246
11150TIP3   OH233390   7.680   3.974   5.369
11150TIP3    H133391   7.671   3.895   5.425
11150TIP3    H233392   7.733   4.031   5.428
11151TIP3   OH233393   7.870   3.379   5.737
11151TIP3    H133394   7.869   3.346   5.644
11151TIP3    H233395   7.967   3.377   5.755
11152TIP3   OH233396   8.087   3.066   6.413
11152TIP3    H133397   8.184   3.057   6.414
11152TIP3    H233398   8.061   2.979   6.449
11153TIP3   OH233399   8.045   2.758   5.745
11153TIP3    H133400   8.104   2.680   5.754
11153TIP3    H233401   8.111   2.829   5.739
11154TIP3   OH233402   7.851   3.029   5.816
11154TIP3    H133403   7.901   3.022   5.733
11154TIP3    H233404   7.884   3.112   5.852
11155TIP3   OH233405   7.834   2.532   5.319
11155TIP3    H133406   7.740   2.530   5.344
11155TIP3    H233407   7.833   2.590   5.240
11156TIP3   OH233408   8.052   2.610   6.129
11156TIP3    H133409   8.010   2.610   6.216
11156TIP3    H233410   7.983   2.650   6.073
11157TIP3   OH233411   8.093   4.045   6.213
11157TIP3    H133412   8.005   4.009   6.192
11157TIP3    H233413   8.106   4.013   6.303
11158TIP3   OH233414   8.271   4.070   5.759
11158TIP3    H133415   8.223   4.145   5.718
11158TIP3    H233416   8.358   4.084   5.716
11159TIP3   OH233417   8.712   4.309   5.907
11159TIP3    H133418   8.762   4.313   5.991
11159TIP3    H233419   8.763   4.370   5.850
11160TIP3   OH233420   8.853   4.472   5.741
11160TIP3    H133421   8.907   4.421   5.680
11160TIP3    H233422   8.923   4.518   5.791
11161TIP3   OH233423   7.950   4.332   5.777
11161TIP3    H133424   7.860   4.367   5.757
11161TIP3    H233425   7.955   4.354   5.871
11162TIP3   OH233426   8.186   4.307   5.638
11162TIP3    H133427   8.100   4.321   5.683
11162TIP3    H233428   8.167   4.339   5.548
11163TIP3   OH233429   8.601   4.342   5.434
11163TIP3    H133430   8.531   4.361   5.370
11163TIP3    H233431   8.613   4.430   5.477
11164TIP3   OH233432   8.856   4.236   5.444
11164TIP3    H133433   8.767   4.277   5.443
11164TIP3    H233434   8.914   4.310   5.468
11165TIP3   OH233435   7.863   4.124   5.527
11165TIP3    H133436   7.889   4.097   5.618
11165TIP3    H233437   7.933   4.076   5.477
11166TIP3   OH233438   8.054   3.993   5.382
11166TIP3    H133439   8.069   3.908   5.431
11166TIP3    H233440   8.145   4.028   5.377
11167TIP3   OH233441   8.321   4.089   5.384
11167TIP3    H133442   8.352   3.997   5.371
11167TIP3    H233443   8.363   4.109   5.469
11168TIP3   OH233444   8.147   2.453   5.488
11168TIP3    H133445   8.055   2.420   5.491
11168TIP3    H233446   8.197   2.368   5.484
11169TIP3   OH233447   7.930   2.323   5.134
11169TIP3    H133448   7.961   2.382   5.063
11169TIP3    H233449   7.904   2.387   5.203
11170TIP3   OH233450   8.562   2.561   5.309
11170TIP3    H133451   8.644   2.612   5.320
11170TIP3    H233452   8.555   2.519   5.397
11171TIP3   OH233453   7.653   3.890   4.915
11171TIP3    H133454   7.566   3.860   4.881
11171TIP3    H233455   7.640   3.985   4.915
11172TIP3   OH233456   8.045   2.484   4.906
11172TIP3    H133457   8.096   2.421   4.850
11172TIP3    H233458   8.118   2.539   4.940
11173TIP3   OH233459   8.405   4.085   4.506
11173TIP3    H133460   8.496   4.117   4.484
11173TIP3    H233461   8.396   4.015   4.438
11174TIP3   OH233462   8.299   2.719   6.379
11174TIP3    H133463   8.317   2.632   6.419
11174TIP3    H233464   8.329   2.777   6.449
11175TIP3   OH233465   8.615   2.707   6.430
11175TIP3    H133466   8.708   2.721   6.425
11175TIP3    H233467   8.605   2.667   6.519
11176TIP3   OH233468   7.729   3.924   4.566
11176TIP3    H133469   7.737   3.929   4.662
11176TIP3    H233470   7.813   3.881   4.541
11177TIP3   OH233471   1.288   4.248   6.750
11177TIP3    H133472   1.261   4.340   6.731
11177TIP3    H233473   1.210   4.200   6.717
11178TIP3   OH233474   1.291   4.246   7.126
11178TIP3    H133475   1.317   4.218   7.215
11178TIP3    H233476   1.244   4.168   7.092
11179TIP3   OH233477   0.605   4.126   7.471
11179TIP3    H133478   0.625   4.071   7.548
11179TIP3    H233479   0.647   4.209   7.493
11180TIP3   OH233480   1.531   4.549   6.810
11180TIP3    H133481   1.514   4.481   6.877
11180TIP3    H233482   1.557   4.625   6.864
11181TIP3   OH233483   0.569   4.525   7.224
11181TIP3    H133484   0.560   4.427   7.230
11181TIP3    H233485   0.666   4.533   7.218
11182TIP3   OH233486   0.343   4.033   7.170
11182TIP3    H133487   0.368   3.980   7.248
11182TIP3    H233488   0.430   4.062   7.142
11183TIP3   OH233489   1.179   5.016   6.827
11183TIP3    H133490   1.227   4.943   6.780
11183TIP3    H233491   1.170   4.979   6.916
11184TIP3   OH233492   1.092   4.472   7.179
11184TIP3    H133493   1.130   4.397   7.130
11184TIP3    H233494   1.176   4.517   7.203
11185TIP3   OH233495   2.099   3.795   7.175
11185TIP3    H133496   2.128   3.878   7.219
11185TIP3    H233497   2.117   3.816   7.082
11186TIP3   OH233498   1.499   3.977   7.212
11186TIP3    H133499   1.540   3.890   7.232
11186TIP3    H233500   1.468   3.962   7.121
11187TIP3   OH233501   0.837   3.634   7.176
11187TIP3    H133502   0.816   3.707   7.114
11187TIP3    H233503   0.789   3.561   7.131
11188TIP3   OH233504   1.529   3.726   6.800
11188TIP3    H133505   1.602   3.709   6.865
11188TIP3    H233506   1.581   3.762   6.726
11189TIP3   OH233507   0.459   3.824   7.301
11189TIP3    H133508   0.542   3.813   7.350
11189TIP3    H233509   0.480   3.775   7.219
11190TIP3   OH233510   0.913   4.035   7.067
11190TIP3    H133511   1.005   4.009   7.086
11190TIP3    H233512   0.872   3.950   7.040
11191TIP3   OH233513   2.173   4.003   7.346
11191TIP3    H133514   2.090   4.050   7.322
11191TIP3    H233515   2.176   4.022   7.440
11192TIP3   OH233516   0.844   3.609   7.593
11192TIP3    H133517   0.790   3.653   7.525
11192TIP3    H233518   0.784   3.620   7.670
11193TIP3   OH233519   1.183   4.471   6.618
11193TIP3    H133520   1.136   4.449   6.536
11193TIP3    H233521   1.140   4.555   6.642
11194TIP3   OH233522   0.940   4.396   7.409
11194TIP3    H133523   0.876   4.460   7.447
11194TIP3    H233524   0.978   4.447   7.335
11195TIP3   OH233525   1.744   3.726   6.968
11195TIP3    H133526   1.729   3.679   7.051
11195TIP3    H233527   1.794   3.804   6.997
11196TIP3   OH233528   0.704   3.732   7.395
11196TIP3    H133529   0.761   3.809   7.417
11196TIP3    H233530   0.753   3.696   7.317
11197TIP3   OH233531   0.762   4.582   7.515
11197TIP3    H133532   0.722   4.659   7.471
11197TIP3    H233533   0.692   4.556   7.578
11198TIP3   OH233534   1.604   4.793   6.980
11198TIP3    H133535   1.515   4.783   7.020
11198TIP3    H233536   1.594   4.879   6.934
11199TIP3   OH233537   1.891   3.698   7.344
11199TIP3    H133538   1.803   3.724   7.312
11199TIP3    H233539   1.949   3.727   7.271
11200TIP3   OH233540   1.193   3.338   7.322
11200TIP3    H133541   1.180   3.243   7.339
11200TIP3    H233542   1.115   3.375   7.368
11201TIP3   OH233543   1.308   4.840   6.657
11201TIP3    H133544   1.356   4.757   6.634
11201TIP3    H233545   1.368   4.905   6.614
11202TIP3   OH233546   1.448   4.625   6.559
11202TIP3    H133547   1.404   4.548   6.520
11202TIP3    H233548   1.483   4.587   6.643
11203TIP3   OH233549   1.830   4.707   7.323
11203TIP3    H133550   1.816   4.629   7.264
11203TIP3    H233551   1.809   4.781   7.263
11204TIP3   OH233552   1.119   4.099   6.579
11204TIP3    H133553   1.038   4.151   6.560
11204TIP3    H233554   1.163   4.098   6.493
11205TIP3   OH233555   1.079   3.882   6.298
11205TIP3    H133556   1.145   3.936   6.345
11205TIP3    H233557   1.137   3.820   6.250
11206TIP3   OH233558   2.023   4.343   7.167
11206TIP3    H133559   1.940   4.395   7.172
11206TIP3    H233560   2.053   4.368   7.077
11207TIP3   OH233561   1.467   4.182   6.553
11207TIP3    H133562   1.411   4.207   6.630
11207TIP3    H233563   1.550   4.158   6.597
11208TIP3   OH233564   1.702   4.225   7.461
11208TIP3    H133565   1.696   4.309   7.509
11208TIP3    H233566   1.615   4.224   7.416
11209TIP3   OH233567   0.699   4.178   6.967
11209TIP3    H133568   0.658   4.120   6.899
11209TIP3    H233569   0.778   4.125   6.993
11210TIP3   OH233570   0.830   4.558   7.134
11210TIP3    H133571   0.821   4.535   7.040
11210TIP3    H233572   0.926   4.547   7.147
11211TIP3   OH233573   0.859   4.147   7.321
11211TIP3    H133574   0.877   4.137   7.225
11211TIP3    H233575   0.885   4.239   7.340
11212TIP3   OH233576   1.363   4.787   7.098
11212TIP3    H133577   1.346   4.871   7.145
11212TIP3    H233578   1.345   4.719   7.165
11213TIP3   OH233579   0.980   4.699   7.646
11213TIP3    H133580   0.927   4.774   7.681
11213TIP3    H233581   0.909   4.647   7.602
11214TIP3   OH233582   1.310   4.038   6.377
11214TIP3    H133583   1.366   4.101   6.429
11214TIP3    H233584   1.336   4.063   6.285
11215TIP3   OH233585   0.741   4.263   7.750
11215TIP3    H133586   0.757   4.358   7.771
11215TIP3    H233587   0.645   4.270   7.731
11216TIP3   OH233588   1.049   4.720   6.654
11216TIP3    H133589   1.125   4.777   6.675
11216TIP3    H233590   0.987   4.783   6.614
11217TIP3   OH233591   0.801   4.902   7.701
11217TIP3    H133592   0.754   4.893   7.616
11217TIP3    H233593   0.733   4.871   7.766
11218TIP3   OH233594   1.822   3.281   6.425
11218TIP3    H133595   1.740   3.298   6.477
11218TIP3    H233596   1.836   3.368   6.383
11219TIP3   OH233597   0.568   4.019   6.774
11219TIP3    H133598   0.507   4.069   6.715
11219TIP3    H233599   0.516   3.939   6.790
11220TIP3   OH233600   1.621   4.649   5.974
11220TIP3    H133601   1.629   4.746   5.959
11220TIP3    H233602   1.713   4.620   5.962
11221TIP3   OH233603   2.065   5.052   7.369
11221TIP3    H133604   2.062   4.955   7.379
11221TIP3    H233605   1.981   5.076   7.414
11222TIP3   OH233606   1.173   4.836   7.503
11222TIP3    H133607   1.173   4.928   7.536
11222TIP3    H233608   1.103   4.796   7.559
11223TIP3   OH233609   0.931   4.968   6.453
11223TIP3    H133610   0.884   4.951   6.370
11223TIP3    H233611   0.898   5.056   6.479
11224TIP3   OH233612   1.132   4.868   6.096
11224TIP3    H133613   1.192   4.799   6.059
11224TIP3    H233614   1.165   4.877   6.187
11225TIP3   OH233615   1.183   4.915   6.366
11225TIP3    H133616   1.093   4.926   6.406
11225TIP3    H233617   1.230   4.873   6.439
11226TIP3   OH233618   1.955   4.183   7.642
11226TIP3    H133619   1.872   4.198   7.594
11226TIP3    H233620   1.967   4.087   7.630
11227TIP3   OH233621   0.954   3.406   7.444
11227TIP3    H133622   0.864   3.378   7.419
11227TIP3    H233623   0.931   3.490   7.489
11228TIP3   OH233624   1.485   3.530   7.641
11228TIP3    H133625   1.552   3.510   7.710
11228TIP3    H233626   1.402   3.519   7.691
11229TIP3   OH233627   1.729   3.962   7.569
11229TIP3    H133628   1.675   3.955   7.651
11229TIP3    H233629   1.699   4.046   7.531
11230TIP3   OH233630   1.385   4.086   6.122
11230TIP3    H133631   1.350   4.062   6.034
11230TIP3    H233632   1.462   4.141   6.097
11231TIP3   OH233633   1.098   3.462   6.424
11231TIP3    H133634   1.063   3.460   6.516
11231TIP3    H233635   1.057   3.381   6.389
11232TIP3   OH233636   0.879   3.927   7.474
11232TIP3    H133637   0.828   3.954   7.553
11232TIP3    H233638   0.868   4.008   7.418
11233TIP3   OH233639   0.766   3.813   6.986
11233TIP3    H133640   0.672   3.794   7.001
11233TIP3    H233641   0.779   3.775   6.896
11234TIP3   OH233642   1.257   3.901   6.712
11234TIP3    H133643   1.203   3.973   6.672
11234TIP3    H233644   1.310   3.872   6.635
11235TIP3   OH233645   1.433   4.182   7.797
11235TIP3    H133646   1.411   4.110   7.859
11235TIP3    H233647   1.527   4.196   7.819
11236TIP3   OH233648   1.415   3.931   6.953
11236TIP3    H133649   1.355   3.963   6.883
11236TIP3    H233650   1.445   3.849   6.910
11237TIP3   OH233651   0.697   3.963   7.686
11237TIP3    H133652   0.719   4.032   7.751
11237TIP3    H233653   0.682   3.889   7.747
11238TIP3   OH233654   0.752   3.434   6.390
11238TIP3    H133655   0.741   3.434   6.487
11238TIP3    H233656   0.675   3.489   6.363
11239TIP3   OH233657   0.294   3.480   7.258
11239TIP3    H133658   0.369   3.511   7.313
11239TIP3    H233659   0.335   3.428   7.189
11240TIP3   OH233660   0.266   3.491   6.796
11240TIP3    H133661   0.317   3.501   6.712
11240TIP3    H233662   0.258   3.583   6.821
11241TIP3   OH233663   1.429   4.177   7.378
11241TIP3    H133664   1.459   4.104   7.318
11241TIP3    H233665   1.396   4.124   7.453
11242TIP3   OH233666   1.093   3.637   7.047
11242TIP3    H133667   1.009   3.636   7.098
11242TIP3    H233668   1.158   3.639   7.118
11243TIP3   OH233669   0.523   3.691   7.058
11243TIP3    H133670   0.430   3.687   7.029
11243TIP3    H233671   0.557   3.602   7.037
11244TIP3   OH233672   0.799   3.689   6.743
11244TIP3    H133673   0.892   3.706   6.720
11244TIP3    H233674   0.750   3.713   6.660
11245TIP3   OH233675   1.585   3.712   7.246
11245TIP3    H133676   1.552   3.725   7.338
11245TIP3    H233677   1.518   3.650   7.212
11246TIP3   OH233678   0.638   3.723   6.525
11246TIP3    H133679   0.566   3.678   6.477
11246TIP3    H233680   0.690   3.759   6.449
11247TIP3   OH233681   1.755   5.398   7.466
11247TIP3    H133682   1.749   5.423   7.371
11247TIP3    H233683   1.828   5.454   7.496
11248TIP3   OH233684   0.722   4.529   7.820
11248TIP3    H133685   0.784   4.581   7.876
11248TIP3    H233686   0.637   4.566   7.849
11249TIP3   OH233687   1.176   3.964   7.144
11249TIP3    H133688   1.249   3.925   7.095
11249TIP3    H233689   1.185   3.923   7.232
11250TIP3   OH233690   0.700   3.457   7.020
11250TIP3    H133691   0.667   3.376   7.065
11250TIP3    H233692   0.750   3.420   6.947
11251TIP3   OH233693   1.153   3.862   7.435
11251TIP3    H133694   1.064   3.899   7.445
11251TIP3    H233695   1.210   3.925   7.483
11252TIP3   OH233696   0.893   4.253   6.530
11252TIP3    H133697   0.820   4.187   6.518
11252TIP3    H233698   0.874   4.285   6.622
11253TIP3   OH233699   1.791   4.489   7.160
11253TIP3    H133700   1.814   4.539   7.079
11253TIP3    H233701   1.706   4.447   7.136
11254TIP3   OH233702   1.349   3.566   6.388
11254TIP3    H133703   1.252   3.549   6.396
11254TIP3    H233704   1.357   3.660   6.413
11255TIP3   OH233705   1.295   4.574   7.526
11255TIP3    H133706   1.302   4.549   7.618
11255TIP3    H233707   1.251   4.661   7.530
11256TIP3   OH233708   1.418   3.812   6.493
11256TIP3    H133709   1.514   3.821   6.510
11256TIP3    H233710   1.398   3.893   6.442
11257TIP3   OH233711   0.575   4.256   7.204
11257TIP3    H133712   0.629   4.225   7.129
11257TIP3    H233713   0.597   4.196   7.277
11258TIP3   OH233714   1.035   4.403   6.350
11258TIP3    H133715   0.988   4.489   6.355
11258TIP3    H233716   0.980   4.349   6.410
11259TIP3   OH233717   1.187   4.310   7.829
11259TIP3    H133718   1.126   4.249   7.785
11259TIP3    H233719   1.274   4.272   7.803
11260TIP3   OH233720   1.452   4.828   7.422
11260TIP3    H133721   1.356   4.828   7.432
11260TIP3    H233722   1.478   4.882   7.500
11261TIP3   OH233723   1.872   3.890   6.325
11261TIP3    H133724   1.805   3.852   6.263
11261TIP3    H233725   1.869   3.982   6.289
11262TIP3   OH233726   2.080   4.761   7.411
11262TIP3    H133727   1.982   4.755   7.403
11262TIP3    H233728   2.106   4.729   7.321
11263TIP3   OH233729   1.562   4.721   6.239
11263TIP3    H133730   1.533   4.652   6.299
11263TIP3    H233731   1.572   4.675   6.154
11264TIP3   OH233732   1.557   4.350   7.081
11264TIP3    H133733   1.463   4.326   7.093
11264TIP3    H233734   1.589   4.271   7.033
11265TIP3   OH233735   0.668   4.574   6.821
11265TIP3    H133736   0.676   4.656   6.768
11265TIP3    H233737   0.578   4.547   6.801
11266TIP3   OH233738   0.240   3.873   6.549
11266TIP3    H133739   0.298   3.951   6.537
11266TIP3    H233740   0.156   3.919   6.564
11267TIP3   OH233741   0.827   4.343   6.776
11267TIP3    H133742   0.788   4.431   6.791
11267TIP3    H233743   0.790   4.292   6.851
11268TIP3   OH233744   0.952   4.920   7.307
11268TIP3    H133745   0.987   4.999   7.262
11268TIP3    H233746   1.030   4.892   7.358
11269TIP3   OH233747   0.601   4.816   6.689
11269TIP3    H133748   0.509   4.846   6.682
11269TIP3    H233749   0.646   4.904   6.692
11270TIP3   OH233750   1.342   4.554   7.258
11270TIP3    H133751   1.333   4.554   7.356
11270TIP3    H233752   1.423   4.503   7.246
11271TIP3   OH233753   1.313   4.447   6.140
11271TIP3    H133754   1.365   4.423   6.220
11271TIP3    H233755   1.224   4.423   6.168
11272TIP3   OH233756   1.592   5.090   7.306
11272TIP3    H133757   1.511   5.036   7.302
11272TIP3    H233758   1.577   5.154   7.232
11273TIP3   OH233759   1.655   4.924   5.961
11273TIP3    H133760   1.692   4.995   5.905
11273TIP3    H233761   1.575   4.970   5.993
11274TIP3   OH233762   0.668   3.645   7.794
11274TIP3    H133763   0.574   3.631   7.813
11274TIP3    H233764   0.713   3.615   7.875
11275TIP3   OH233765   1.474   4.382   6.357
11275TIP3    H133766   1.464   4.317   6.429
11275TIP3    H233767   1.571   4.380   6.344
11276TIP3   OH233768   0.684   4.429   6.138
11276TIP3    H133769   0.695   4.336   6.110
11276TIP3    H233770   0.664   4.418   6.233
11277TIP3   OH233771   0.632   4.438   6.409
11277TIP3    H133772   0.698   4.409   6.474
11277TIP3    H233773   0.637   4.535   6.417
11278TIP3   OH233774   0.376   4.133   6.615
11278TIP3    H133775   0.324   4.179   6.682
11278TIP3    H233776   0.371   4.196   6.540
11279TIP3   OH233777   1.513   3.765   7.505
11279TIP3    H133778   1.590   3.802   7.551
11279TIP3    H233779   1.495   3.684   7.557
11280TIP3   OH233780   1.394   3.516   6.670
11280TIP3    H133781   1.376   3.541   6.577
11280TIP3    H233782   1.428   3.600   6.708
11281TIP3   OH233783   0.894   4.633   6.361
11281TIP3    H133784   0.808   4.659   6.398
11281TIP3    H233785   0.908   4.704   6.297
11282TIP3   OH233786   1.084   3.694   6.774
11282TIP3    H133787   1.146   3.768   6.757
11282TIP3    H233788   1.086   3.689   6.872
11283TIP3   OH233789   1.350   4.016   7.582
11283TIP3    H133790   1.367   4.072   7.661
11283TIP3    H233791   1.405   3.938   7.600
11284TIP3   OH233792   1.226   3.426   6.878
11284TIP3    H133793   1.218   3.503   6.937
11284TIP3    H233794   1.286   3.462   6.808
11285TIP3   OH233795   0.638   4.709   6.429
11285TIP3    H133796   0.603   4.773   6.363
11285TIP3    H233797   0.616   4.754   6.513
11286TIP3   OH233798   0.736   3.422   6.667
11286TIP3    H133799   0.735   3.513   6.701
11286TIP3    H233800   0.832   3.402   6.675
11287TIP3   OH233801   1.994   3.915   7.561
11287TIP3    H133802   1.896   3.915   7.573
11287TIP3    H233803   1.999   3.871   7.475
11288TIP3   OH233804   1.642   4.109   6.950
11288TIP3    H133805   1.565   4.051   6.963
11288TIP3    H233806   1.713   4.062   6.998
11289TIP3   OH233807   0.360   4.347   6.437
11289TIP3    H133808   0.428   4.414   6.425
11289TIP3    H233809   0.382   4.286   6.363
11290TIP3   OH233810   0.324   3.612   6.561
11290TIP3    H133811   0.321   3.709   6.566
11290TIP3    H233812   0.230   3.594   6.541
11291TIP3   OH233813   1.610   5.063   6.901
11291TIP3    H133814   1.566   5.110   6.827
11291TIP3    H233815   1.704   5.083   6.878
11292TIP3   OH233816   0.686   3.335   7.428
11292TIP3    H133817   0.655   3.304   7.340
11292TIP3    H233818   0.674   3.254   7.482
11293TIP3   OH233819   0.871   5.050   7.926
11293TIP3    H133820   0.967   5.044   7.928
11293TIP3    H233821   0.853   5.016   7.836
11294TIP3   OH233822   0.846   4.634   6.054
11294TIP3    H133823   0.788   4.563   6.090
11294TIP3    H233824   0.920   4.581   6.020
11295TIP3   OH233825   1.505   4.964   7.656
11295TIP3    H133826   1.493   4.895   7.725
11295TIP3    H233827   1.579   5.017   7.692
11296TIP3   OH233828   1.281   4.677   5.964
11296TIP3    H133829   1.328   4.613   6.021
11296TIP3    H233830   1.335   4.676   5.882
11297TIP3   OH233831   0.489   4.159   6.267
11297TIP3    H133832   0.537   4.121   6.343
11297TIP3    H233833   0.560   4.160   6.200
11298TIP3   OH233834   1.127   4.584   7.851
11298TIP3    H133835   1.081   4.600   7.765
11298TIP3    H233836   1.151   4.489   7.843
11299TIP3   OH233837   0.999   4.350   6.080
11299TIP3    H133838   0.999   4.362   6.177
11299TIP3    H233839   0.995   4.252   6.073
11300TIP3   OH233840   1.614   4.590   7.462
11300TIP3    H133841   1.685   4.638   7.416
11300TIP3    H233842   1.540   4.652   7.450
11301TIP3   OH233843   0.705   4.053   6.501
11301TIP3    H133844   0.669   4.010   6.580
11301TIP3    H233845   0.735   3.977   6.447
11302TIP3   OH233846   0.975   4.114   7.723
11302TIP3    H133847   0.893   4.167   7.731
11302TIP3    H233848   1.016   4.152   7.642
11303TIP3   OH233849   0.796   3.845   6.337
11303TIP3    H133850   0.768   3.850   6.243
11303TIP3    H233851   0.893   3.852   6.329
11304TIP3   OH233852   1.489   4.522   7.865
11304TIP3    H133853   1.557   4.491   7.804
11304TIP3    H233854   1.478   4.446   7.925
11305TIP3   OH233855   1.623   4.178   5.998
11305TIP3    H133856   1.601   4.134   5.914
11305TIP3    H233857   1.590   4.269   5.976
11306TIP3   OH233858   1.084   3.895   7.846
11306TIP3    H133859   1.098   3.824   7.780
11306TIP3    H233860   1.052   3.969   7.789
11307TIP3   OH233861   1.094   3.697   7.654
11307TIP3    H133862   1.123   3.740   7.571
11307TIP3    H233863   1.001   3.674   7.633
11308TIP3   OH233864   1.123   4.231   7.527
11308TIP3    H133865   1.203   4.241   7.475
11308TIP3    H233866   1.063   4.296   7.486
11309TIP3   OH233867   1.697   4.203   7.901
11309TIP3    H133868   1.735   4.129   7.953
11309TIP3    H233869   1.776   4.244   7.863
11310TIP3   OH233870   1.743   4.452   7.654
11310TIP3    H133871   1.684   4.502   7.593
11310TIP3    H233872   1.830   4.472   7.611
11311TIP3   OH233873   0.981   4.036   8.065
11311TIP3    H133874   0.892   4.001   8.066
11311TIP3    H233875   1.020   3.993   7.987
11312TIP3   OH233876   1.212   3.451   7.695
11312TIP3    H133877   1.165   3.536   7.680
11312TIP3    H233878   1.140   3.386   7.691
11313TIP3   OH233879   1.347   3.965   7.936
11313TIP3    H133880   1.333   3.993   8.029
11313TIP3    H233881   1.258   3.934   7.912
11314TIP3   OH233882   1.588   3.907   7.793
11314TIP3    H133883   1.513   3.910   7.856
11314TIP3    H233884   1.661   3.878   7.850
11315TIP3   OH233885   1.841   3.850   7.939
11315TIP3    H133886   1.838   3.755   7.962
11315TIP3    H233887   1.806   3.894   8.019
11316TIP3   OH233888   1.380   3.479   7.908
11316TIP3    H133889   1.413   3.388   7.910
11316TIP3    H233890   1.302   3.472   7.850
11317TIP3   OH233891   0.602   4.915   6.247
11317TIP3    H133892   0.697   4.912   6.225
11317TIP3    H233893   0.567   4.959   6.167
11318TIP3   OH233894   1.862   5.156   6.856
11318TIP3    H133895   1.889   5.190   6.943
11318TIP3    H233896   1.922   5.202   6.796
11319TIP3   OH233897   1.892   5.177   7.138
11319TIP3    H133898   1.847   5.090   7.132
11319TIP3    H233899   1.967   5.153   7.194
11320TIP3   OH233900   1.942   4.852   7.714
11320TIP3    H133901   1.863   4.860   7.772
11320TIP3    H233902   1.978   4.942   7.716
11321TIP3   OH233903   1.754   4.365   6.332
11321TIP3    H133904   1.821   4.430   6.303
11321TIP3    H233905   1.798   4.327   6.411
11322TIP3   OH233906   1.883   4.231   6.535
11322TIP3    H133907   1.815   4.192   6.594
11322TIP3    H233908   1.945   4.273   6.598
11323TIP3   OH233909   1.937   4.625   6.970
11323TIP3    H133910   1.987   4.561   6.916
11323TIP3    H233911   1.926   4.700   6.909
11324TIP3   OH233912   1.768   4.926   7.164
11324TIP3    H133913   1.696   4.970   7.213
11324TIP3    H233914   1.719   4.879   7.094
11325TIP3   OH233915   1.821   4.138   6.183
11325TIP3    H133916   1.750   4.142   6.114
11325TIP3    H233917   1.793   4.215   6.238
11326TIP3   OH233918   1.695   3.810   6.136
11326TIP3    H133919   1.651   3.859   6.065
11326TIP3    H233920   1.663   3.719   6.120
11327TIP3   OH233921   1.698   4.090   6.684
11327TIP3    H133922   1.702   3.993   6.679
11327TIP3    H233923   1.683   4.105   6.780
11328TIP3   OH233924   1.986   4.516   7.541
11328TIP3    H133925   2.059   4.451   7.530
11328TIP3    H233926   2.008   4.583   7.474
11329TIP3   OH233927   2.172   4.322   7.561
11329TIP3    H133928   2.096   4.271   7.597
11329TIP3    H233929   2.244   4.256   7.575
11330TIP3   OH233930   1.635   3.543   6.125
11330TIP3    H133931   1.699   3.514   6.192
11330TIP3    H233932   1.555   3.491   6.144
11331TIP3   OH233933   1.692   3.804   6.581
11331TIP3    H133934   1.732   3.715   6.595
11331TIP3    H233935   1.750   3.838   6.511
11332TIP3   OH233936   1.855   3.980   7.073
11332TIP3    H133937   1.941   4.007   7.033
11332TIP3    H233938   1.867   4.017   7.162
11333TIP3   OH233939   1.923   4.124   7.305
11333TIP3    H133940   1.844   4.157   7.352
11333TIP3    H233941   1.954   4.205   7.259
11334TIP3   OH233942   2.376   3.723   7.861
11334TIP3    H133943   2.435   3.653   7.825
11334TIP3    H233944   2.349   3.771   7.780
11335TIP3   OH233945   1.805   3.553   6.612
11335TIP3    H133946   1.850   3.540   6.698
11335TIP3    H233947   1.741   3.480   6.613
11336TIP3   OH233948   0.497   3.538   7.440
11336TIP3    H133949   0.565   3.468   7.447
11336TIP3    H233950   0.554   3.617   7.431
11337TIP3   OH233951   2.245   3.857   7.665
11337TIP3    H133952   2.156   3.896   7.681
11337TIP3    H233953   2.219   3.785   7.605
11338TIP3   OH233954   1.888   3.489   6.253
11338TIP3    H133955   1.909   3.420   6.187
11338TIP3    H233956   1.936   3.566   6.219
11339TIP3   OH233957   0.297   3.319   6.999
11339TIP3    H133958   0.208   3.321   7.037
11339TIP3    H233959   0.288   3.380   6.923
11340TIP3   OH233960   1.448   5.022   6.515
11340TIP3    H133961   1.495   5.008   6.430
11340TIP3    H233962   1.502   5.089   6.557
11341TIP3   OH233963   0.714   4.855   7.439
11341TIP3    H133964   0.675   4.932   7.394
11341TIP3    H233965   0.803   4.859   7.400
11342TIP3   OH233966   1.173   5.097   7.590
11342TIP3    H133967   1.217   5.111   7.675
11342TIP3    H233968   1.235   5.145   7.529
11343TIP3   OH233969   1.369   5.225   7.452
11343TIP3    H133970   1.451   5.198   7.409
11343TIP3    H233971   1.398   5.305   7.501
11344TIP3   OH233972   2.144   3.618   7.543
11344TIP3    H133973   2.053   3.612   7.509
11344TIP3    H233974   2.174   3.524   7.532
11345TIP3   OH233975   0.630   5.102   7.334
11345TIP3    H133976   0.602   5.147   7.415
11345TIP3    H233977   0.607   5.167   7.266
11346TIP3   OH233978   1.065   5.144   7.144
11346TIP3    H133979   1.002   5.159   7.071
11346TIP3    H233980   1.064   5.231   7.189
11347TIP3   OH233981   1.331   5.061   7.169
11347TIP3    H133982   1.236   5.083   7.164
11347TIP3    H233983   1.371   5.146   7.145
11348TIP3   OH233984   1.549   5.258   7.096
11348TIP3    H133985   1.530   5.341   7.048
11348TIP3    H233986   1.567   5.196   7.022
11349TIP3   OH233987   8.679   3.238   5.506
11349TIP3    H133988   8.677   3.184   5.588
11349TIP3    H233989   8.744   3.185   5.454
11350TIP3   OH233990   0.805   4.918   7.067
11350TIP3    H133991   0.753   4.838   7.047
11350TIP3    H233992   0.848   4.894   7.151
11351TIP3   OH233993   1.350   3.534   7.163
11351TIP3    H133994   1.305   3.465   7.216
11351TIP3    H233995   1.420   3.482   7.119
11352TIP3   OH233996   1.874   3.411   7.068
11352TIP3    H133997   1.909   3.465   6.994
11352TIP3    H233998   1.778   3.428   7.062
11353TIP3   OH233999   1.968   3.514   6.832
11353TIP3    H134000   2.042   3.463   6.793
11353TIP3    H234001   2.000   3.606   6.818
11354TIP3   OH234002   0.597   3.242   7.181
11354TIP3    H134003   0.504   3.211   7.179
11354TIP3    H234004   0.644   3.157   7.177
11355TIP3   OH234005   0.401   3.106   6.836
11355TIP3    H134006   0.417   3.161   6.758
11355TIP3    H234007   0.360   3.171   6.897
11356TIP3   OH234008   1.041   3.273   7.061
11356TIP3    H134009   1.098   3.325   7.001
11356TIP3    H234010   1.062   3.313   7.147
11357TIP3   OH234011   1.592   3.420   7.043
11357TIP3    H134012   1.584   3.383   6.954
11357TIP3    H234013   1.576   3.340   7.099
11358TIP3   OH234014   1.618   3.342   6.605
11358TIP3    H134015   1.531   3.385   6.616
11358TIP3    H234016   1.603   3.258   6.654
11359TIP3   OH234017   0.503   3.267   6.597
11359TIP3    H134018   0.550   3.207   6.537
11359TIP3    H234019   0.576   3.323   6.631
11360TIP3   OH234020   1.014   3.445   6.690
11360TIP3    H134021   1.073   3.398   6.750
11360TIP3    H234022   1.036   3.537   6.715
11361TIP3   OH234023   0.871   4.873   6.187
11361TIP3    H134024   0.960   4.894   6.153
11361TIP3    H234025   0.849   4.797   6.129
11362TIP3   OH234026   1.591   4.988   6.282
11362TIP3    H134027   1.584   4.891   6.270
11362TIP3    H234028   1.546   5.020   6.201
11363TIP3   OH234029   1.893   3.573   7.972
11363TIP3    H134030   1.915   3.529   8.057
11363TIP3    H234031   1.979   3.575   7.926
11364TIP3   OH234032   1.819   5.131   7.472
11364TIP3    H134033   1.742   5.099   7.421
11364TIP3    H234034   1.799   5.227   7.472
11365TIP3   OH234035   3.077   4.501   6.250
11365TIP3    H134036   3.053   4.593   6.225
11365TIP3    H234037   3.010   4.453   6.198
11366TIP3   OH234038   3.084   4.509   6.615
11366TIP3    H134039   3.110   4.469   6.700
11366TIP3    H234040   3.045   4.434   6.568
11367TIP3   OH234041   2.384   4.403   6.983
11367TIP3    H134042   2.416   4.335   7.045
11367TIP3    H234043   2.464   4.456   6.970
11368TIP3   OH234044   3.330   4.809   6.297
11368TIP3    H134045   3.309   4.737   6.356
11368TIP3    H234046   3.354   4.881   6.357
11369TIP3   OH234047   2.354   4.809   6.710
11369TIP3    H134048   2.346   4.711   6.712
11369TIP3    H234049   2.450   4.819   6.699
11370TIP3   OH234050   2.063   4.011   6.493
11370TIP3    H134051   2.019   4.096   6.509
11370TIP3    H234052   1.989   3.959   6.457
11371TIP3   OH234053   2.121   4.301   6.661
11371TIP3    H134054   2.171   4.225   6.699
11371TIP3    H234055   2.181   4.333   6.593
11372TIP3   OH234056   2.976   5.271   6.316
11372TIP3    H134057   3.020   5.201   6.263
11372TIP3    H234058   2.970   5.229   6.402
11373TIP3   OH234059   2.882   4.731   6.667
11373TIP3    H134060   2.918   4.656   6.617
11373TIP3    H234061   2.966   4.775   6.689
11374TIP3   OH234062   3.908   4.085   6.668
11374TIP3    H134063   3.828   4.140   6.663
11374TIP3    H234064   3.919   4.058   6.575
11375TIP3   OH234065   3.293   4.232   6.698
11375TIP3    H134066   3.335   4.146   6.718
11375TIP3    H234067   3.264   4.218   6.606
11376TIP3   OH234068   2.625   3.886   6.661
11376TIP3    H134069   2.612   3.962   6.601
11376TIP3    H234070   2.569   3.820   6.619
11377TIP3   OH234071   3.324   3.982   6.288
11377TIP3    H134072   3.399   3.966   6.349
11377TIP3    H234073   3.373   4.019   6.212
11378TIP3   OH234074   2.266   4.095   6.769
11378TIP3    H134075   2.348   4.076   6.818
11378TIP3    H234076   2.280   4.038   6.690
11379TIP3   OH234077   2.707   4.292   6.565
11379TIP3    H134078   2.802   4.268   6.574
11379TIP3    H234079   2.670   4.208   6.531
11380TIP3   OH234080   2.628   3.876   7.097
11380TIP3    H134081   2.568   3.914   7.031
11380TIP3    H234082   2.578   3.894   7.179
11381TIP3   OH234083   2.973   4.722   6.116
11381TIP3    H134084   2.948   4.700   6.026
11381TIP3    H234085   2.930   4.808   6.129
11382TIP3   OH234086   2.736   4.650   6.895
11382TIP3    H134087   2.674   4.716   6.932
11382TIP3    H234088   2.777   4.700   6.821
11383TIP3   OH234089   3.538   3.980   6.457
11383TIP3    H134090   3.528   3.930   6.538
11383TIP3    H234091   3.590   4.057   6.484
11384TIP3   OH234092   2.499   3.991   6.882
11384TIP3    H134093   2.561   4.063   6.907
11384TIP3    H234094   2.549   3.950   6.807
11385TIP3   OH234095   2.562   4.843   6.992
11385TIP3    H134096   2.537   4.927   6.949
11385TIP3    H234097   2.482   4.829   7.047
11386TIP3   OH234098   1.959   4.533   6.226
11386TIP3    H134099   1.918   4.560   6.142
11386TIP3    H234100   1.989   4.618   6.263
11387TIP3   OH234101   3.399   5.050   6.470
11387TIP3    H134102   3.309   5.041   6.508
11387TIP3    H234103   3.390   5.133   6.421
11388TIP3   OH234104   3.682   3.958   6.832
11388TIP3    H134105   3.591   3.978   6.803
11388TIP3    H234106   3.734   3.969   6.751
11389TIP3   OH234107   2.984   3.594   6.806
11389TIP3    H134108   2.975   3.499   6.829
11389TIP3    H234109   2.908   3.631   6.856
11390TIP3   OH234110   3.100   5.097   6.142
11390TIP3    H134111   3.146   5.013   6.122
11390TIP3    H234112   3.163   5.160   6.100
11391TIP3   OH234113   3.237   4.881   6.046
11391TIP3    H134114   3.222   4.802   5.992
11391TIP3    H234115   3.275   4.842   6.128
11392TIP3   OH234116   3.623   4.963   6.809
11392TIP3    H134117   3.612   4.886   6.749
11392TIP3    H234118   3.606   5.039   6.748
11393TIP3   OH234119   2.915   4.365   6.076
11393TIP3    H134120   2.844   4.417   6.035
11393TIP3    H234121   2.957   4.322   5.998
11394TIP3   OH234122   3.821   4.596   6.651
11394TIP3    H134123   3.737   4.647   6.659
11394TIP3    H234124   3.852   4.630   6.564
11395TIP3   OH234125   3.272   4.477   6.050
11395TIP3    H134126   3.210   4.476   6.126
11395TIP3    H234127   3.333   4.405   6.073
11396TIP3   OH234128   3.500   4.479   6.948
11396TIP3    H134129   3.497   4.562   6.998
11396TIP3    H234130   3.413   4.482   6.903
11397TIP3   OH234131   2.492   4.436   6.459
11397TIP3    H134132   2.453   4.381   6.388
11397TIP3    H234133   2.572   4.385   6.484
11398TIP3   OH234134   2.622   4.845   6.607
11398TIP3    H134135   2.603   4.809   6.519
11398TIP3    H234136   2.713   4.812   6.622
11399TIP3   OH234137   2.631   4.408   6.811
11399TIP3    H134138   2.663   4.386   6.721
11399TIP3    H234139   2.675   4.494   6.829
11400TIP3   OH234140   3.156   5.046   6.586
11400TIP3    H134141   3.142   5.126   6.640
11400TIP3    H234142   3.141   4.973   6.649
11401TIP3   OH234143   2.769   4.966   7.134
11401TIP3    H134144   2.708   5.028   7.180
11401TIP3    H234145   2.705   4.912   7.084
11402TIP3   OH234146   2.524   4.521   7.237
11402TIP3    H134147   2.526   4.609   7.279
11402TIP3    H234148   2.428   4.502   7.241
11403TIP3   OH234149   2.841   4.982   6.145
11403TIP3    H134150   2.923   5.032   6.158
11403TIP3    H234151   2.785   5.044   6.097
11404TIP3   OH234152   2.563   5.135   7.220
11404TIP3    H134153   2.529   5.134   7.128
11404TIP3    H234154   2.483   5.111   7.272
11405TIP3   OH234155   3.619   3.538   5.912
11405TIP3    H134156   3.538   3.560   5.962
11405TIP3    H234157   3.634   3.621   5.863
11406TIP3   OH234158   2.361   4.278   6.261
11406TIP3    H134159   2.300   4.328   6.201
11406TIP3    H234160   2.311   4.197   6.273
11407TIP3   OH234161   3.417   4.906   5.462
11407TIP3    H134162   3.427   5.003   5.445
11407TIP3    H234163   3.509   4.875   5.449
11408TIP3   OH234164   2.143   4.664   7.167
11408TIP3    H134165   2.076   4.644   7.098
11408TIP3    H234166   2.178   4.576   7.190
11409TIP3   OH234167   1.996   4.855   6.802
11409TIP3    H134168   2.092   4.852   6.790
11409TIP3    H234169   1.985   4.937   6.853
11410TIP3   OH234170   3.870   5.304   6.851
11410TIP3    H134171   3.863   5.210   6.872
11410TIP3    H234172   3.783   5.336   6.887
11411TIP3   OH234173   2.967   5.094   6.991
11411TIP3    H134174   2.967   5.187   7.023
11411TIP3    H234175   2.896   5.055   7.045
11412TIP3   OH234176   2.725   5.222   5.942
11412TIP3    H134177   2.682   5.203   5.857
11412TIP3    H234178   2.694   5.312   5.962
11413TIP3   OH234179   2.164   5.074   6.326
11413TIP3    H134180   2.213   5.063   6.411
11413TIP3    H234181   2.106   4.996   6.330
11414TIP3   OH234182   2.928   5.124   5.583
11414TIP3    H134183   2.988   5.055   5.545
11414TIP3    H234184   2.963   5.132   5.674
11415TIP3   OH234185   2.978   5.173   5.854
11415TIP3    H134186   2.890   5.181   5.896
11415TIP3    H234187   3.028   5.126   5.922
11416TIP3   OH234188   3.751   4.440   7.130
11416TIP3    H134189   3.669   4.452   7.082
11416TIP3    H234190   3.771   4.346   7.113
11417TIP3   OH234191   2.346   4.848   7.158
11417TIP3    H134192   2.396   4.828   7.240
11417TIP3    H234193   2.272   4.783   7.164
11418TIP3   OH234194   2.746   3.671   6.938
11418TIP3    H134195   2.657   3.639   6.914
11418TIP3    H234196   2.723   3.753   6.985
11419TIP3   OH234197   3.281   3.787   7.134
11419TIP3    H134198   3.349   3.756   7.196
11419TIP3    H234199   3.197   3.765   7.180
11420TIP3   OH234200   3.522   4.216   7.053
11420TIP3    H134201   3.471   4.210   7.137
11420TIP3    H234202   3.496   4.303   7.018
11421TIP3   OH234203   3.156   4.392   5.571
11421TIP3    H134204   3.145   4.324   5.502
11421TIP3    H234205   3.252   4.401   5.576
11422TIP3   OH234206   2.890   3.718   5.908
11422TIP3    H134207   2.866   3.715   6.002
11422TIP3    H234208   2.858   3.631   5.878
11423TIP3   OH234209   2.677   4.186   6.958
11423TIP3    H134210   2.627   4.209   7.039
11423TIP3    H234211   2.664   4.266   6.904
11424TIP3   OH234212   2.564   4.072   6.477
11424TIP3    H134213   2.469   4.052   6.488
11424TIP3    H234214   2.579   4.038   6.385
11425TIP3   OH234215   3.053   4.162   6.199
11425TIP3    H134216   2.994   4.237   6.177
11425TIP3    H234217   3.081   4.142   6.107
11426TIP3   OH234218   3.228   4.438   7.287
11426TIP3    H134219   3.207   4.364   7.349
11426TIP3    H234220   3.322   4.452   7.307
11427TIP3   OH234221   3.210   4.189   6.437
11427TIP3    H134222   3.152   4.220   6.364
11427TIP3    H234223   3.242   4.107   6.393
11428TIP3   OH234224   2.497   4.215   7.167
11428TIP3    H134225   2.524   4.280   7.233
11428TIP3    H234226   2.487   4.134   7.220
11429TIP3   OH234227   2.529   3.685   5.904
11429TIP3    H134228   2.583   3.748   5.951
11429TIP3    H234229   2.468   3.742   5.854
11430TIP3   OH234230   2.092   3.737   6.746
11430TIP3    H134231   2.165   3.770   6.803
11430TIP3    H234232   2.137   3.702   6.668
11431TIP3   OH234233   2.101   3.727   6.261
11431TIP3    H134234   2.107   3.774   6.174
11431TIP3    H234235   2.026   3.779   6.297
11432TIP3   OH234236   3.224   4.432   6.866
11432TIP3    H134237   3.255   4.360   6.806
11432TIP3    H234238   3.192   4.379   6.941
11433TIP3   OH234239   2.888   3.894   6.536
11433TIP3    H134240   2.808   3.893   6.591
11433TIP3    H234241   2.959   3.894   6.603
11434TIP3   OH234242   2.323   3.945   6.543
11434TIP3    H134243   2.228   3.961   6.518
11434TIP3    H234244   2.337   3.854   6.516
11435TIP3   OH234245   2.595   3.958   6.234
11435TIP3    H134246   2.691   3.960   6.217
11435TIP3    H234247   2.556   3.967   6.145
11436TIP3   OH234248   3.385   3.970   6.737
11436TIP3    H134249   3.347   3.982   6.827
11436TIP3    H234250   3.321   3.908   6.698
11437TIP3   OH234251   2.436   3.959   6.004
11437TIP3    H134252   2.366   3.929   5.942
11437TIP3    H234253   2.489   4.013   5.941
11438TIP3   OH234254   3.538   5.674   6.957
11438TIP3    H134255   3.554   5.675   6.861
11438TIP3    H234256   3.626   5.696   6.993
11439TIP3   OH234257   2.508   4.768   7.377
11439TIP3    H134258   2.589   4.799   7.423
11439TIP3    H234259   2.444   4.769   7.451
11440TIP3   OH234260   2.972   4.218   6.630
11440TIP3    H134261   3.045   4.186   6.576
11440TIP3    H234262   2.988   4.176   6.716
11441TIP3   OH234263   2.484   3.686   6.463
11441TIP3    H134264   2.464   3.627   6.539
11441TIP3    H234265   2.581   3.680   6.460
11442TIP3   OH234266   2.950   4.114   6.926
11442TIP3    H134267   2.861   4.154   6.934
11442TIP3    H234268   3.008   4.177   6.972
11443TIP3   OH234269   2.677   4.518   6.012
11443TIP3    H134270   2.608   4.449   6.004
11443TIP3    H234271   2.666   4.547   6.105
11444TIP3   OH234272   3.591   4.742   6.646
11444TIP3    H134273   3.611   4.793   6.566
11444TIP3    H234274   3.504   4.701   6.624
11445TIP3   OH234275   3.139   3.849   5.882
11445TIP3    H134276   3.044   3.828   5.880
11445TIP3    H234277   3.133   3.948   5.879
11446TIP3   OH234278   3.084   4.826   7.013
11446TIP3    H134279   3.110   4.807   7.104
11446TIP3    H234280   3.048   4.917   7.019
11447TIP3   OH234281   2.376   4.529   6.693
11447TIP3    H134282   2.413   4.503   6.606
11447TIP3    H234283   2.421   4.467   6.753
11448TIP3   OH234284   2.828   4.661   5.832
11448TIP3    H134285   2.782   4.747   5.842
11448TIP3    H234286   2.776   4.606   5.894
11449TIP3   OH234287   2.257   4.452   7.306
11449TIP3    H134288   2.275   4.436   7.400
11449TIP3    H234289   2.188   4.386   7.287
11450TIP3   OH234290   2.984   4.563   7.328
11450TIP3    H134291   2.926   4.508   7.273
11450TIP3    H234292   3.072   4.531   7.299
11451TIP3   OH234293   3.247   5.085   6.911
11451TIP3    H134294   3.150   5.086   6.923
11451TIP3    H234295   3.275   5.140   6.987
11452TIP3   OH234296   3.663   4.160   5.812
11452TIP3    H134297   3.600   4.114   5.752
11452TIP3    H234298   3.655   4.249   5.774
11453TIP3   OH234299   3.873   5.010   6.901
11453TIP3    H134300   3.775   5.010   6.891
11453TIP3    H234301   3.899   4.983   6.810
11454TIP3   OH234302   3.358   4.976   5.727
11454TIP3    H134303   3.328   4.903   5.783
11454TIP3    H234304   3.368   4.933   5.640
11455TIP3   OH234305   3.354   4.606   6.572
11455TIP3    H134306   3.259   4.584   6.581
11455TIP3    H234307   3.385   4.528   6.522
11456TIP3   OH234308   2.479   4.836   6.321
11456TIP3    H134309   2.482   4.915   6.264
11456TIP3    H234310   2.384   4.818   6.321
11457TIP3   OH234311   2.048   4.136   6.022
11457TIP3    H134312   2.090   4.223   6.038
11457TIP3    H234313   1.968   4.143   6.079
11458TIP3   OH234314   2.617   4.600   6.263
11458TIP3    H134315   2.585   4.691   6.280
11458TIP3    H234316   2.581   4.552   6.339
11459TIP3   OH234317   2.747   5.180   6.787
11459TIP3    H134318   2.789   5.252   6.735
11459TIP3    H234319   2.824   5.144   6.834
11460TIP3   OH234320   2.399   5.074   6.169
11460TIP3    H134321   2.313   5.083   6.215
11460TIP3    H234322   2.430   5.167   6.170
11461TIP3   OH234323   3.138   4.813   6.744
11461TIP3    H134324   3.129   4.809   6.842
11461TIP3    H234325   3.216   4.758   6.729
11462TIP3   OH234326   3.109   4.714   5.627
11462TIP3    H134327   3.166   4.686   5.703
11462TIP3    H234328   3.027   4.670   5.651
11463TIP3   OH234329   3.376   5.348   6.796
11463TIP3    H134330   3.298   5.293   6.781
11463TIP3    H234331   3.366   5.414   6.724
11464TIP3   OH234332   3.451   5.181   5.448
11464TIP3    H134333   3.489   5.250   5.392
11464TIP3    H234334   3.371   5.228   5.479
11465TIP3   OH234335   2.470   3.959   7.316
11465TIP3    H134336   2.373   3.961   7.326
11465TIP3    H234337   2.496   3.893   7.382
11466TIP3   OH234338   3.271   4.657   5.845
11466TIP3    H134339   3.254   4.586   5.912
11466TIP3    H234340   3.367   4.640   5.830
11467TIP3   OH234341   2.187   5.043   6.946
11467TIP3    H134342   2.238   4.966   6.972
11467TIP3    H234343   2.218   5.109   7.008
11468TIP3   OH234344   2.475   4.690   5.628
11468TIP3    H134345   2.494   4.600   5.595
11468TIP3    H234346   2.457   4.672   5.722
11469TIP3   OH234347   2.423   4.690   5.904
11469TIP3    H134348   2.503   4.664   5.951
11469TIP3    H234349   2.428   4.788   5.907
11470TIP3   OH234350   2.160   4.385   6.102
11470TIP3    H134351   2.093   4.431   6.157
11470TIP3    H234352   2.175   4.453   6.033
11471TIP3   OH234353   3.306   4.023   6.995
11471TIP3    H134354   3.387   4.059   7.034
11471TIP3    H234355   3.291   3.942   7.049
11472TIP3   OH234356   3.186   3.776   6.154
11472TIP3    H134357   3.170   3.805   6.061
11472TIP3    H234358   3.224   3.857   6.193
11473TIP3   OH234359   2.687   4.891   5.852
11473TIP3    H134360   2.600   4.921   5.884
11473TIP3    H234361   2.704   4.955   5.781
11474TIP3   OH234362   2.875   3.954   6.259
11474TIP3    H134363   2.942   4.021   6.233
11474TIP3    H234364   2.888   3.951   6.356
11475TIP3   OH234365   3.145   4.272   7.070
11475TIP3    H134366   3.166   4.325   7.149
11475TIP3    H234367   3.201   4.193   7.083
11476TIP3   OH234368   3.022   3.682   6.363
11476TIP3    H134369   3.015   3.760   6.422
11476TIP3    H234370   3.081   3.718   6.293
11477TIP3   OH234371   2.430   4.965   5.913
11477TIP3    H134372   2.399   5.034   5.850
11477TIP3    H234373   2.414   5.008   6.000
11478TIP3   OH234374   3.790   4.175   7.038
11478TIP3    H134375   3.693   4.176   7.055
11478TIP3    H234376   3.792   4.121   6.958
11479TIP3   OH234377   3.439   4.363   6.442
11479TIP3    H134378   3.358   4.309   6.445
11479TIP3    H234379   3.504   4.306   6.487
11480TIP3   OH234380   2.149   4.596   5.908
11480TIP3    H134381   2.215   4.667   5.918
11480TIP3    H234382   2.195   4.542   5.840
11481TIP3   OH234383   2.088   3.867   6.037
11481TIP3    H134384   2.097   3.965   6.035
11481TIP3    H234385   2.010   3.856   5.982
11482TIP3   OH234386   3.405   5.322   6.388
11482TIP3    H134387   3.362   5.369   6.314
11482TIP3    H234388   3.499   5.340   6.366
11483TIP3   OH234389   2.480   3.590   6.916
11483TIP3    H134390   2.450   3.554   6.830
11483TIP3    H234391   2.473   3.513   6.975
11484TIP3   OH234392   2.023   4.809   6.298
11484TIP3    H134393   1.946   4.841   6.347
11484TIP3    H234394   2.004   4.846   6.209
11485TIP3   OH234395   2.175   5.347   7.369
11485TIP3    H134396   2.262   5.345   7.412
11485TIP3    H234397   2.154   5.253   7.364
11486TIP3   OH234398   2.661   5.316   7.412
11486TIP3    H134399   2.756   5.294   7.417
11486TIP3    H234400   2.634   5.259   7.337
11487TIP3   OH234401   2.643   4.890   5.543
11487TIP3    H134402   2.584   4.819   5.578
11487TIP3    H234403   2.717   4.837   5.510
11488TIP3   OH234404   3.301   5.220   7.151
11488TIP3    H134405   3.285   5.149   7.217
11488TIP3    H234406   3.388   5.251   7.177
11489TIP3   OH234407   3.077   4.934   5.452
11489TIP3    H134408   3.116   4.866   5.511
11489TIP3    H234409   3.135   4.929   5.374
11490TIP3   OH234410   2.307   4.754   7.569
11490TIP3    H134411   2.324   4.658   7.568
11490TIP3    H234412   2.220   4.759   7.523
11491TIP3   OH234413   2.283   4.408   5.761
11491TIP3    H134414   2.343   4.379   5.832
11491TIP3    H234415   2.348   4.412   5.686
11492TIP3   OH234416   2.913   4.839   7.342
11492TIP3    H134417   2.875   4.857   7.254
11492TIP3    H234418   2.946   4.747   7.333
11493TIP3   OH234419   2.787   4.605   5.565
11493TIP3    H134420   2.799   4.617   5.662
11493TIP3    H234421   2.792   4.507   5.560
11494TIP3   OH234422   3.408   4.848   6.946
11494TIP3    H134423   3.483   4.893   6.903
11494TIP3    H234424   3.337   4.914   6.933
11495TIP3   OH234425   2.426   4.490   7.551
11495TIP3    H134426   2.502   4.438   7.523
11495TIP3    H234427   2.455   4.524   7.638
11496TIP3   OH234428   2.491   4.310   5.983
11496TIP3    H134429   2.472   4.268   6.069
11496TIP3    H234430   2.528   4.236   5.931
11497TIP3   OH234431   2.761   4.375   7.211
11497TIP3    H134432   2.684   4.435   7.212
11497TIP3    H234433   2.812   4.408   7.134
11498TIP3   OH234434   2.585   4.099   5.826
11498TIP3    H134435   2.557   4.102   5.731
11498TIP3    H234436   2.681   4.108   5.816
11499TIP3   OH234437   3.278   4.777   7.346
11499TIP3    H134438   3.359   4.760   7.297
11499TIP3    H234439   3.279   4.708   7.414
11500TIP3   OH234440   3.424   4.435   5.480
11500TIP3    H134441   3.395   4.389   5.399
11500TIP3    H234442   3.386   4.524   5.461
11501TIP3   OH234443   2.884   4.163   7.340
11501TIP3    H134444   2.885   4.083   7.284
11501TIP3    H234445   2.841   4.228   7.280
11502TIP3   OH234446   2.886   3.950   7.147
11502TIP3    H134447   2.916   3.991   7.063
11502TIP3    H234448   2.793   3.927   7.126
11503TIP3   OH234449   2.916   4.486   7.018
11503TIP3    H134450   2.999   4.494   6.969
11503TIP3    H234451   2.860   4.553   6.974
11504TIP3   OH234452   3.498   4.453   7.401
11504TIP3    H134453   3.548   4.370   7.405
11504TIP3    H234454   3.564   4.515   7.368
11505TIP3   OH234455   3.538   4.704   7.134
11505TIP3    H134456   3.480   4.757   7.075
11505TIP3    H234457   3.625   4.725   7.094
11506TIP3   OH234458   2.760   4.277   7.570
11506TIP3    H134459   2.694   4.205   7.579
11506TIP3    H234460   2.797   4.259   7.482
11507TIP3   OH234461   3.020   3.713   7.209
11507TIP3    H134462   2.970   3.795   7.188
11507TIP3    H234463   2.952   3.644   7.198
11508TIP3   OH234464   3.146   4.219   7.427
11508TIP3    H134465   3.136   4.206   7.523
11508TIP3    H234466   3.056   4.193   7.398
11509TIP3   OH234467   3.386   4.168   7.282
11509TIP3    H134468   3.311   4.168   7.345
11509TIP3    H234469   3.460   4.137   7.338
11510TIP3   OH234470   3.612   4.107   7.433
11510TIP3    H134471   3.627   4.012   7.451
11510TIP3    H234472   3.612   4.146   7.523
11511TIP3   OH234473   2.603   4.056   7.619
11511TIP3    H134474   2.608   3.967   7.580
11511TIP3    H234475   2.643   4.039   7.707
11512TIP3   OH234476   3.115   3.724   7.466
11512TIP3    H134477   3.183   3.653   7.463
11512TIP3    H234478   3.076   3.716   7.377
11513TIP3   OH234479   3.181   3.938   7.626
11513TIP3    H134480   3.160   3.866   7.562
11513TIP3    H234481   3.103   3.997   7.617
11514TIP3   OH234482   2.400   5.169   5.728
11514TIP3    H134483   2.496   5.164   5.708
11514TIP3    H234484   2.370   5.215   5.648
11515TIP3   OH234485   1.881   4.547   5.947
11515TIP3    H134486   1.975   4.570   5.930
11515TIP3    H234487   1.875   4.459   5.905
11516TIP3   OH234488   1.794   5.162   6.356
11516TIP3    H134489   1.728   5.100   6.320
11516TIP3    H234490   1.838   5.105   6.423
11517TIP3   OH234491   1.930   5.016   6.544
11517TIP3    H134492   1.919   4.940   6.602
11517TIP3    H234493   1.982   5.075   6.601
11518TIP3   OH234494   3.656   5.414   6.342
11518TIP3    H134495   3.686   5.443   6.430
11518TIP3    H234496   3.720   5.457   6.283
11519TIP3   OH234497   3.690   5.434   6.620
11519TIP3    H134498   3.646   5.347   6.619
11519TIP3    H234499   3.758   5.416   6.687
11520TIP3   OH234500   3.736   5.124   7.209
11520TIP3    H134501   3.658   5.124   7.268
11520TIP3    H234502   3.752   5.219   7.203
11521TIP3   OH234503   3.550   4.624   5.818
11521TIP3    H134504   3.620   4.686   5.789
11521TIP3    H234505   3.590   4.584   5.897
11522TIP3   OH234506   3.680   4.491   6.020
11522TIP3    H134507   3.612   4.445   6.073
11522TIP3    H234508   3.735   4.534   6.088
11523TIP3   OH234509   3.737   4.881   6.458
11523TIP3    H134510   3.779   4.821   6.395
11523TIP3    H234511   3.721   4.959   6.401
11524TIP3   OH234512   3.564   5.184   6.652
11524TIP3    H134513   3.494   5.226   6.705
11524TIP3    H234514   3.513   5.138   6.582
11525TIP3   OH234515   3.618   4.399   5.669
11525TIP3    H134516   3.548   4.400   5.599
11525TIP3    H234517   3.586   4.473   5.724
11526TIP3   OH234518   3.500   4.065   5.617
11526TIP3    H134519   3.441   4.113   5.558
11526TIP3    H234520   3.467   3.974   5.606
11527TIP3   OH234521   3.510   4.340   6.173
11527TIP3    H134522   3.503   4.243   6.160
11527TIP3    H234523   3.482   4.352   6.265
11528TIP3   OH234524   2.119   4.416   6.916
11528TIP3    H134525   2.117   4.391   6.822
11528TIP3    H234526   2.216   4.421   6.932
11529TIP3   OH234527   3.780   4.771   7.026
11529TIP3    H134528   3.854   4.707   7.019
11529TIP3    H234529   3.809   4.844   6.968
11530TIP3   OH234530   3.965   4.575   7.036
11530TIP3    H134531   3.893   4.526   7.080
11530TIP3    H234532   4.040   4.514   7.053
11531TIP3   OH234533   3.434   3.799   5.607
11531TIP3    H134534   3.504   3.773   5.669
11531TIP3    H234535   3.355   3.750   5.636
11532TIP3   OH234536   3.497   4.067   6.094
11532TIP3    H134537   3.537   3.977   6.091
11532TIP3    H234538   3.510   4.094   6.002
11533TIP3   OH234539   3.668   4.223   6.564
11533TIP3    H134540   3.731   4.276   6.512
11533TIP3    H234541   3.662   4.276   6.647
11534TIP3   OH234542   3.710   4.377   6.780
11534TIP3    H134543   3.638   4.406   6.840
11534TIP3    H234544   3.746   4.463   6.750
11535TIP3   OH234545   2.337   4.111   7.599
11535TIP3    H134546   2.434   4.098   7.592
11535TIP3    H234547   2.310   4.022   7.631
11536TIP3   OH234548   4.171   3.971   7.348
11536TIP3    H134549   4.230   3.904   7.306
11536TIP3    H234550   4.145   4.026   7.272
11537TIP3   OH234551   3.601   3.808   6.099
11537TIP3    H134552   3.646   3.793   6.185
11537TIP3    H234553   3.537   3.734   6.098
11538TIP3   OH234554   2.297   3.799   6.918
11538TIP3    H134555   2.358   3.724   6.931
11538TIP3    H234556   2.359   3.874   6.915
11539TIP3   OH234557   2.103   4.072   6.996
11539TIP3    H134558   2.150   4.068   6.911
11539TIP3    H234559   2.127   4.161   7.026
11540TIP3   OH234560   4.044   4.116   7.154
11540TIP3    H134561   3.956   4.156   7.171
11540TIP3    H234562   4.018   4.044   7.093
11541TIP3   OH234563   3.683   3.746   5.739
11541TIP3    H134564   3.718   3.676   5.681
11541TIP3    H234565   3.745   3.820   5.724
11542TIP3   OH234566   2.078   3.576   6.496
11542TIP3    H134567   1.986   3.571   6.526
11542TIP3    H234568   2.072   3.635   6.419
11543TIP3   OH234569   3.243   5.280   6.002
11543TIP3    H134570   3.289   5.262   5.917
11543TIP3    H234571   3.303   5.345   6.042
11544TIP3   OH234572   2.305   3.662   7.312
11544TIP3    H134573   2.252   3.650   7.392
11544TIP3    H234574   2.237   3.695   7.250
11545TIP3   OH234575   2.343   5.084   7.388
11545TIP3    H134576   2.253   5.054   7.368
11545TIP3    H234577   2.350   5.065   7.482
11546TIP3   OH234578   2.520   5.115   6.935
11546TIP3    H134579   2.472   5.190   6.894
11546TIP3    H234580   2.607   5.129   6.892
11547TIP3   OH234581   2.969   5.362   7.073
11547TIP3    H134582   3.011   5.363   7.162
11547TIP3    H234583   3.035   5.412   7.021
11548TIP3   OH234584   3.148   5.512   6.930
11548TIP3    H134585   3.219   5.461   6.888
11548TIP3    H234586   3.200   5.568   6.992
11549TIP3   OH234587   3.941   3.872   7.030
11549TIP3    H134588   3.849   3.862   7.000
11549TIP3    H234589   3.974   3.779   7.021
11550TIP3   OH234590   2.198   5.374   6.956
11550TIP3    H134591   2.109   5.409   6.932
11550TIP3    H234592   2.202   5.403   7.048
11551TIP3   OH234593   2.435   5.352   6.816
11551TIP3    H134594   2.348   5.365   6.859
11551TIP3    H234595   2.416   5.383   6.725
11552TIP3   OH234596   2.859   5.381   6.614
11552TIP3    H134597   2.792   5.400   6.547
11552TIP3    H234598   2.872   5.470   6.655
11553TIP3   OH234599   3.127   5.319   6.665
11553TIP3    H134600   3.033   5.337   6.643
11553TIP3    H234601   3.172   5.394   6.622
11554TIP3   OH234602   3.338   5.514   6.580
11554TIP3    H134603   3.324   5.598   6.531
11554TIP3    H234604   3.364   5.452   6.508
11555TIP3   OH234605   2.110   5.168   6.704
11555TIP3    H134606   2.137   5.142   6.794
11555TIP3    H234607   2.181   5.122   6.652
11556TIP3   OH234608   2.302   5.038   6.559
11556TIP3    H134609   2.320   4.953   6.607
11556TIP3    H234610   2.392   5.075   6.552
11557TIP3   OH234611   2.568   5.135   6.561
11557TIP3    H134612   2.601   5.045   6.544
11557TIP3    H234613   2.612   5.153   6.646
11558TIP3   OH234614   3.145   3.790   6.650
11558TIP3    H134615   3.101   3.720   6.701
11558TIP3    H234616   3.217   3.742   6.605
11559TIP3   OH234617   3.669   3.680   6.561
11559TIP3    H134618   3.704   3.722   6.480
11559TIP3    H234619   3.572   3.686   6.547
11560TIP3   OH234620   3.764   3.769   6.322
11560TIP3    H134621   3.836   3.718   6.279
11560TIP3    H234622   3.796   3.861   6.303
11561TIP3   OH234623   2.396   3.500   6.663
11561TIP3    H134624   2.304   3.466   6.669
11561TIP3    H234625   2.445   3.415   6.663
11562TIP3   OH234626   2.205   3.409   6.306
11562TIP3    H134627   2.133   3.377   6.251
11562TIP3    H234628   2.158   3.436   6.388
11563TIP3   OH234629   2.826   3.542   6.549
11563TIP3    H134630   2.890   3.581   6.486
11563TIP3    H234631   2.864   3.569   6.634
11564TIP3   OH234632   3.387   3.677   6.531
11564TIP3    H134633   3.382   3.641   6.441
11564TIP3    H234634   3.371   3.595   6.585
11565TIP3   OH234635   3.413   3.599   6.093
11565TIP3    H134636   3.327   3.643   6.101
11565TIP3    H234637   3.396   3.515   6.140
11566TIP3   OH234638   1.897   4.937   6.097
11566TIP3    H134639   1.813   4.903   6.062
11566TIP3    H234640   1.885   5.032   6.077
11567TIP3   OH234641   2.809   3.705   6.173
11567TIP3    H134642   2.868   3.656   6.232
11567TIP3    H234643   2.831   3.797   6.199
11568TIP3   OH234644   2.669   5.131   5.675
11568TIP3    H134645   2.759   5.150   5.640
11568TIP3    H234646   2.647   5.055   5.616
11569TIP3   OH234647   3.386   5.243   5.770
11569TIP3    H134648   3.380   5.145   5.758
11569TIP3    H234649   3.343   5.274   5.687
11570TIP3   OH234650   2.600   3.781   7.561
11570TIP3    H134651   2.568   3.707   7.614
11570TIP3    H234652   2.696   3.779   7.586
11571TIP3   OH234653   2.850   3.780   7.680
11571TIP3    H134654   2.934   3.753   7.638
11571TIP3    H234655   2.840   3.710   7.748
11572TIP3   OH234656   1.974   4.965   5.733
11572TIP3    H134657   1.974   4.991   5.826
11572TIP3    H234658   2.063   4.924   5.722
11573TIP3   OH234659   3.675   3.837   7.465
11573TIP3    H134660   3.695   3.803   7.555
11573TIP3    H234661   3.763   3.831   7.422
11574TIP3   OH234662   3.627   5.392   6.927
11574TIP3    H134663   3.536   5.370   6.899
11574TIP3    H234664   3.610   5.456   6.998
11575TIP3   OH234665   4.879   4.759   5.725
11575TIP3    H134666   4.853   4.852   5.705
11575TIP3    H234667   4.803   4.712   5.686
11576TIP3   OH234668   4.884   4.759   6.101
11576TIP3    H134669   4.909   4.732   6.191
11576TIP3    H234670   4.835   4.682   6.068
11577TIP3   OH234671   4.189   4.656   6.484
11577TIP3    H134672   4.236   4.669   6.568
11577TIP3    H234673   4.246   4.708   6.426
11578TIP3   OH234674   5.123   5.061   5.784
11578TIP3    H134675   5.108   4.993   5.851
11578TIP3    H234676   5.150   5.137   5.838
11579TIP3   OH234677   4.150   5.065   6.196
11579TIP3    H134678   4.144   4.967   6.200
11579TIP3    H234679   4.246   5.076   6.187
11580TIP3   OH234680   3.856   4.271   5.985
11580TIP3    H134681   3.805   4.353   5.993
11580TIP3    H234682   3.789   4.214   5.944
11581TIP3   OH234683   3.922   4.562   6.152
11581TIP3    H134684   3.968   4.480   6.180
11581TIP3    H234685   3.965   4.582   6.068
11582TIP3   OH234686   4.770   5.525   5.801
11582TIP3    H134687   4.817   5.455   5.751
11582TIP3    H234688   4.765   5.486   5.890
11583TIP3   OH234689   4.679   4.987   6.153
11583TIP3    H134690   4.714   4.913   6.103
11583TIP3    H234691   4.763   5.031   6.176
11584TIP3   OH234692   5.687   4.312   6.148
11584TIP3    H134693   5.720   4.392   6.193
11584TIP3    H234694   5.713   4.330   6.056
11585TIP3   OH234695   5.095   4.492   6.188
11585TIP3    H134696   5.128   4.403   6.213
11585TIP3    H234697   5.062   4.476   6.098
11586TIP3   OH234698   4.422   4.149   6.153
11586TIP3    H134699   4.403   4.220   6.089
11586TIP3    H234700   4.379   4.074   6.106
11587TIP3   OH234701   4.056   4.345   6.259
11587TIP3    H134702   4.146   4.331   6.293
11587TIP3    H234703   4.062   4.292   6.176
11588TIP3   OH234704   4.502   4.547   6.051
11588TIP3    H134705   4.596   4.523   6.063
11588TIP3    H234706   4.464   4.464   6.016
11589TIP3   OH234707   5.765   4.517   6.317
11589TIP3    H134708   5.682   4.564   6.297
11589TIP3    H234709   5.770   4.531   6.413
11590TIP3   OH234710   4.434   4.123   6.580
11590TIP3    H134711   4.367   4.162   6.521
11590TIP3    H234712   4.383   4.093   6.656
11591TIP3   OH234713   4.775   4.982   5.592
11591TIP3    H134714   4.731   4.960   5.509
11591TIP3    H234715   4.730   5.066   5.616
11592TIP3   OH234716   4.533   4.907   6.381
11592TIP3    H134717   4.470   4.972   6.419
11592TIP3    H234718   4.573   4.958   6.308
11593TIP3   OH234719   5.297   4.197   5.957
11593TIP3    H134720   5.334   4.195   6.048
11593TIP3    H234721   5.347   4.277   5.927
11594TIP3   OH234722   4.292   4.246   6.372
11594TIP3    H134723   4.355   4.318   6.398
11594TIP3    H234724   4.342   4.207   6.296
11595TIP3   OH234725   4.358   5.099   6.477
11595TIP3    H134726   4.333   5.184   6.437
11595TIP3    H234727   4.279   5.085   6.534
11596TIP3   OH234728   3.756   4.789   5.712
11596TIP3    H134729   3.715   4.812   5.627
11596TIP3    H234730   3.785   4.876   5.746
11597TIP3   OH234731   5.196   5.307   5.955
11597TIP3    H134732   5.106   5.297   5.994
11597TIP3    H234733   5.185   5.392   5.907
11598TIP3   OH234734   5.483   4.206   6.311
11598TIP3    H134735   5.398   4.248   6.294
11598TIP3    H234736   5.542   4.244   6.243
11599TIP3   OH234737   4.773   3.841   6.282
11599TIP3    H134738   4.767   3.750   6.316
11599TIP3    H234739   4.708   3.887   6.339
11600TIP3   OH234740   4.899   5.354   5.630
11600TIP3    H134741   4.946   5.270   5.608
11600TIP3    H234742   4.961   5.418   5.588
11601TIP3   OH234743   5.039   5.138   5.533
11601TIP3    H134744   4.999   5.061   5.491
11601TIP3    H234745   5.073   5.100   5.617
11602TIP3   OH234746   5.421   5.220   6.296
11602TIP3    H134747   5.409   5.142   6.238
11602TIP3    H234748   5.402   5.294   6.235
11603TIP3   OH234749   4.713   4.612   5.556
11603TIP3    H134750   4.632   4.663   5.535
11603TIP3    H234751   4.755   4.606   5.468
11604TIP3   OH234752   4.672   4.392   5.278
11604TIP3    H134753   4.741   4.449   5.317
11604TIP3    H234754   4.728   4.331   5.226
11605TIP3   OH234755   5.616   4.858   6.141
11605TIP3    H134756   5.532   4.908   6.147
11605TIP3    H234757   5.644   4.882   6.050
11606TIP3   OH234758   5.059   4.697   5.526
11606TIP3    H134759   5.004   4.721   5.604
11606TIP3    H234760   5.143   4.672   5.570
11607TIP3   OH234761   5.293   4.742   6.430
11607TIP3    H134762   5.289   4.823   6.483
11607TIP3    H234763   5.205   4.744   6.388
11608TIP3   OH234764   4.288   4.695   5.944
11608TIP3    H134765   4.245   4.639   5.876
11608TIP3    H234766   4.366   4.642   5.969
11609TIP3   OH234767   4.418   5.102   6.093
11609TIP3    H134768   4.398   5.066   6.006
11609TIP3    H234769   4.509   5.068   6.108
11610TIP3   OH234770   4.426   4.666   6.295
11610TIP3    H134771   4.462   4.644   6.206
11610TIP3    H234772   4.472   4.751   6.315
11611TIP3   OH234773   4.954   5.303   6.073
11611TIP3    H134774   4.939   5.382   6.127
11611TIP3    H234775   4.938   5.229   6.136
11612TIP3   OH234776   4.565   5.222   6.620
11612TIP3    H134777   4.504   5.284   6.667
11612TIP3    H234778   4.500   5.169   6.570
11613TIP3   OH234779   4.901   4.551   5.351
11613TIP3    H134780   4.958   4.613   5.402
11613TIP3    H234781   4.926   4.575   5.259
11614TIP3   OH234782   4.310   4.781   6.712
11614TIP3    H134783   4.324   4.867   6.756
11614TIP3    H234784   4.219   4.761   6.742
11615TIP3   OH234785   4.641   5.235   5.631
11615TIP3    H134786   4.719   5.291   5.647
11615TIP3    H234787   4.580   5.295   5.585
11616TIP3   OH234788   4.360   5.391   6.707
11616TIP3    H134789   4.324   5.390   6.617
11616TIP3    H234790   4.281   5.367   6.762
11617TIP3   OH234791   5.415   3.797   5.402
11617TIP3    H134792   5.333   3.820   5.448
11617TIP3    H234793   5.430   3.879   5.349
11618TIP3   OH234794   4.153   4.536   5.754
11618TIP3    H134795   4.095   4.585   5.692
11618TIP3    H234796   4.110   4.450   5.755
11619TIP3   OH234797   5.213   5.163   4.945
11619TIP3    H134798   5.221   5.260   4.933
11619TIP3    H234799   5.306   5.135   4.936
11620TIP3   OH234800   3.939   4.916   6.656
11620TIP3    H134801   3.872   4.902   6.586
11620TIP3    H234802   3.976   4.827   6.669
11621TIP3   OH234803   3.793   5.111   6.292
11621TIP3    H134804   3.888   5.110   6.276
11621TIP3    H234805   3.783   5.194   6.341
11622TIP3   OH234806   5.658   5.564   6.341
11622TIP3    H134807   5.656   5.468   6.354
11622TIP3    H234808   5.575   5.589   6.387
11623TIP3   OH234809   4.764   5.350   6.477
11623TIP3    H134810   4.763   5.443   6.510
11623TIP3    H234811   4.691   5.311   6.531
11624TIP3   OH234812   4.523   5.480   5.428
11624TIP3    H134813   4.477   5.460   5.345
11624TIP3    H234814   4.491   5.569   5.450
11625TIP3   OH234815   3.961   5.331   5.813
11625TIP3    H134816   4.008   5.319   5.898
11625TIP3    H234817   3.905   5.251   5.812
11626TIP3   OH234818   4.724   5.381   5.069
11626TIP3    H134819   4.784   5.312   5.032
11626TIP3    H234820   4.759   5.390   5.160
11627TIP3   OH234821   4.774   5.427   5.340
11627TIP3    H134822   4.685   5.438   5.382
11627TIP3    H234823   4.823   5.385   5.412
11628TIP3   OH234824   5.548   4.698   6.614
11628TIP3    H134825   5.463   4.707   6.567
11628TIP3    H234826   5.562   4.602   6.608
11629TIP3   OH234827   4.143   5.102   6.644
11629TIP3    H134828   4.193   5.088   6.727
11629TIP3    H234829   4.069   5.039   6.654
11630TIP3   OH234830   4.542   3.924   6.422
11630TIP3    H134831   4.451   3.896   6.398
11630TIP3    H234832   4.522   4.009   6.467
11631TIP3   OH234833   5.330   4.484   6.544
11631TIP3    H134834   5.269   4.460   6.617
11631TIP3    H234835   5.288   4.562   6.505
11632TIP3   OH234836   4.979   4.601   5.098
11632TIP3    H134837   4.941   4.575   5.011
11632TIP3    H234838   5.056   4.654   5.070
11633TIP3   OH234839   4.695   3.970   5.398
11633TIP3    H134840   4.652   3.970   5.486
11633TIP3    H234841   4.651   3.893   5.358
11634TIP3   OH234842   4.459   4.446   6.456
11634TIP3    H134843   4.486   4.497   6.535
11634TIP3    H234844   4.451   4.519   6.390
11635TIP3   OH234845   4.359   4.326   5.959
11635TIP3    H134846   4.265   4.304   5.973
11635TIP3    H234847   4.373   4.288   5.869
11636TIP3   OH234848   4.854   4.411   5.686
11636TIP3    H134849   4.799   4.483   5.648
11636TIP3    H234850   4.902   4.381   5.607
11637TIP3   OH234851   5.022   4.697   6.778
11637TIP3    H134852   5.002   4.621   6.837
11637TIP3    H234853   5.118   4.706   6.793
11638TIP3   OH234854   5.010   4.449   5.927
11638TIP3    H134855   4.947   4.493   5.866
11638TIP3    H234856   5.037   4.377   5.869
11639TIP3   OH234857   4.345   3.950   5.365
11639TIP3    H134858   4.329   3.947   5.460
11639TIP3    H234859   4.268   4.002   5.334
11640TIP3   OH234860   3.889   3.993   6.242
11640TIP3    H134861   3.973   4.023   6.281
11640TIP3    H234862   3.914   3.964   6.152
11641TIP3   OH234863   3.866   3.977   5.757
11641TIP3    H134864   3.908   4.014   5.676
11641TIP3    H234865   3.801   4.047   5.775
11642TIP3   OH234866   5.017   4.690   6.351
11642TIP3    H134867   5.051   4.619   6.292
11642TIP3    H234868   4.990   4.636   6.428
11643TIP3   OH234869   4.676   4.153   6.027
11643TIP3    H134870   4.590   4.150   6.073
11643TIP3    H234871   4.735   4.163   6.103
11644TIP3   OH234872   4.117   4.204   6.032
11644TIP3    H134873   4.024   4.214   6.001
11644TIP3    H234874   4.139   4.114   6.003
11645TIP3   OH234875   4.394   4.207   5.714
11645TIP3    H134876   4.485   4.222   5.682
11645TIP3    H234877   4.340   4.225   5.634
11646TIP3   OH234878   5.169   4.224   6.226
11646TIP3    H134879   5.142   4.218   6.321
11646TIP3    H234880   5.102   4.163   6.193
11647TIP3   OH234881   4.232   4.233   5.500
11647TIP3    H134882   4.159   4.190   5.451
11647TIP3    H234883   4.283   4.270   5.425
11648TIP3   OH234884   5.346   5.914   6.440
11648TIP3    H134885   5.343   5.937   6.345
11648TIP3    H234886   5.422   5.967   6.471
11649TIP3   OH234887   4.308   5.023   6.862
11649TIP3    H134888   4.386   5.054   6.911
11649TIP3    H234889   4.242   5.024   6.934
11650TIP3   OH234890   4.765   4.480   6.113
11650TIP3    H134891   4.845   4.437   6.080
11650TIP3    H234892   4.762   4.450   6.207
11651TIP3   OH234893   4.297   3.966   5.995
11651TIP3    H134894   4.261   3.887   6.040
11651TIP3    H234895   4.334   3.928   5.914
11652TIP3   OH234896   4.742   4.413   6.373
11652TIP3    H134897   4.660   4.405   6.423
11652TIP3    H234898   4.810   4.414   6.443
11653TIP3   OH234899   4.485   4.767   5.506
11653TIP3    H134900   4.414   4.701   5.492
11653TIP3    H234901   4.462   4.800   5.596
11654TIP3   OH234902   5.383   5.003   6.134
11654TIP3    H134903   5.406   5.052   6.052
11654TIP3    H234904   5.298   4.960   6.109
11655TIP3   OH234905   4.949   4.072   5.365
11655TIP3    H134906   4.854   4.053   5.380
11655TIP3    H234907   4.960   4.161   5.404
11656TIP3   OH234908   4.884   5.086   6.499
11656TIP3    H134909   4.904   5.062   6.591
11656TIP3    H234910   4.843   5.173   6.508
11657TIP3   OH234911   5.012   4.325   5.475
11657TIP3    H134912   5.109   4.333   5.488
11657TIP3    H234913   4.992   4.400   5.415
11658TIP3   OH234914   4.178   4.783   6.185
11658TIP3    H134915   4.204   4.767   6.092
11658TIP3    H234916   4.227   4.713   6.229
11659TIP3   OH234917   4.632   4.918   5.331
11659TIP3    H134918   4.582   5.003   5.332
11659TIP3    H234919   4.575   4.862   5.387
11660TIP3   OH234920   4.058   4.693   6.790
11660TIP3    H134921   4.082   4.693   6.885
11660TIP3    H234922   3.970   4.653   6.793
11661TIP3   OH234923   4.781   4.821   6.810
11661TIP3    H134924   4.731   4.769   6.745
11661TIP3    H234925   4.872   4.790   6.790
11662TIP3   OH234926   5.043   5.345   6.394
11662TIP3    H134927   4.947   5.341   6.407
11662TIP3    H234928   5.070   5.396   6.474
11663TIP3   OH234929   5.453   4.415   5.304
11663TIP3    H134930   5.391   4.371   5.242
11663TIP3    H234931   5.450   4.504   5.264
11664TIP3   OH234932   5.672   5.274   6.384
11664TIP3    H134933   5.574   5.268   6.377
11664TIP3    H234934   5.696   5.242   6.294
11665TIP3   OH234935   5.155   5.233   5.212
11665TIP3    H134936   5.125   5.164   5.272
11665TIP3    H234937   5.164   5.187   5.127
11666TIP3   OH234938   5.148   4.865   6.055
11666TIP3    H134939   5.055   4.839   6.066
11666TIP3    H234940   5.183   4.787   6.007
11667TIP3   OH234941   4.275   5.093   5.808
11667TIP3    H134942   4.276   5.172   5.750
11667TIP3    H234943   4.181   5.070   5.805
11668TIP3   OH234944   3.839   4.395   5.503
11668TIP3    H134945   3.884   4.480   5.521
11668TIP3    H234946   3.762   4.401   5.565
11669TIP3   OH234947   4.418   4.859   5.753
11669TIP3    H134948   4.381   4.948   5.767
11669TIP3    H234949   4.376   4.809   5.825
11670TIP3   OH234950   4.543   5.437   6.274
11670TIP3    H134951   4.585   5.508   6.222
11670TIP3    H234952   4.620   5.401   6.321
11671TIP3   OH234953   4.196   5.331   5.657
11671TIP3    H134954   4.109   5.339   5.702
11671TIP3    H234955   4.226   5.424   5.658
11672TIP3   OH234956   4.934   5.069   6.231
11672TIP3    H134957   4.925   5.066   6.329
11672TIP3    H234958   5.014   5.015   6.218
11673TIP3   OH234959   4.908   4.961   5.111
11673TIP3    H134960   4.955   4.937   5.193
11673TIP3    H234961   4.817   4.933   5.134
11674TIP3   OH234962   5.182   5.605   6.281
11674TIP3    H134963   5.103   5.548   6.274
11674TIP3    H234964   5.166   5.669   6.209
11675TIP3   OH234965   5.248   5.438   4.935
11675TIP3    H134966   5.287   5.511   4.884
11675TIP3    H234967   5.167   5.484   4.966
11676TIP3   OH234968   5.067   4.899   5.332
11676TIP3    H134969   5.055   4.831   5.402
11676TIP3    H234970   5.164   4.894   5.319
11677TIP3   OH234971   3.984   5.300   6.432
11677TIP3    H134972   4.036   5.223   6.460
11677TIP3    H234973   4.010   5.365   6.498
11678TIP3   OH234974   4.203   4.954   5.415
11678TIP3    H134975   4.291   4.921   5.433
11678TIP3    H234976   4.220   5.049   5.396
11679TIP3   OH234977   3.959   4.643   5.589
11679TIP3    H134978   3.892   4.690   5.642
11679TIP3    H234979   3.974   4.708   5.518
11680TIP3   OH234980   4.485   5.146   5.334
11680TIP3    H134981   4.398   5.174   5.370
11680TIP3    H234982   4.501   5.218   5.272
11681TIP3   OH234983   4.690   4.197   5.752
11681TIP3    H134984   4.742   4.278   5.733
11681TIP3    H234985   4.683   4.198   5.850
11682TIP3   OH234986   4.955   4.528   6.560
11682TIP3    H134987   4.966   4.584   6.639
11682TIP3    H234988   4.997   4.446   6.587
11683TIP3   OH234989   4.233   5.227   5.398
11683TIP3    H134990   4.199   5.296   5.337
11683TIP3    H234991   4.212   5.266   5.486
11684TIP3   OH234992   4.325   3.934   5.644
11684TIP3    H134993   4.325   4.027   5.673
11684TIP3    H234994   4.421   3.917   5.643
11685TIP3   OH234995   5.592   4.428   6.535
11685TIP3    H134996   5.494   4.432   6.548
11685TIP3    H234997   5.594   4.381   6.450
11686TIP3   OH234998   5.236   4.625   5.923
11686TIP3    H134999   5.159   4.570   5.943
11686TIP3    H235000   5.308   4.580   5.973
11687TIP3   OH235001   3.944   4.853   5.394
11687TIP3    H135002   4.019   4.914   5.406
11687TIP3    H235003   3.984   4.795   5.325
11688TIP3   OH235004   3.889   4.127   5.530
11688TIP3    H135005   3.890   4.224   5.524
11688TIP3    H235006   3.806   4.105   5.486
11689TIP3   OH235007   5.201   5.580   5.874
11689TIP3    H135008   5.158   5.625   5.798
11689TIP3    H235009   5.295   5.595   5.852
11690TIP3   OH235010   4.271   3.851   6.405
11690TIP3    H135011   4.246   3.814   6.317
11690TIP3    H235012   4.267   3.772   6.462
11691TIP3   OH235013   3.822   5.072   5.787
11691TIP3    H135014   3.741   5.099   5.832
11691TIP3    H235015   3.803   5.104   5.696
11692TIP3   OH235016   3.971   5.607   6.852
11692TIP3    H135017   4.057   5.605   6.900
11692TIP3    H235018   3.947   5.513   6.853
11693TIP3   OH235019   4.460   5.575   6.896
11693TIP3    H135020   4.553   5.549   6.904
11693TIP3    H235021   4.431   5.515   6.824
11694TIP3   OH235022   4.437   5.142   5.030
11694TIP3    H135023   4.385   5.071   5.069
11694TIP3    H235024   4.510   5.091   4.990
11695TIP3   OH235025   5.095   5.477   6.631
11695TIP3    H135026   5.084   5.408   6.701
11695TIP3    H235027   5.172   5.528   6.664
11696TIP3   OH235028   4.875   5.190   4.938
11696TIP3    H135029   4.918   5.125   4.996
11696TIP3    H235030   4.932   5.190   4.859
11697TIP3   OH235031   4.106   5.014   7.051
11697TIP3    H135032   4.119   4.918   7.062
11697TIP3    H235033   4.016   5.017   7.013
11698TIP3   OH235034   4.078   4.669   5.245
11698TIP3    H135035   4.151   4.634   5.298
11698TIP3    H235036   4.127   4.714   5.174
11699TIP3   OH235037   4.713   5.098   6.827
11699TIP3    H135038   4.671   5.113   6.740
11699TIP3    H235039   4.743   5.005   6.820
11700TIP3   OH235040   4.591   4.869   5.056
11700TIP3    H135041   4.593   4.871   5.153
11700TIP3    H235042   4.578   4.773   5.041
11701TIP3   OH235043   5.205   5.104   6.434
11701TIP3    H135044   5.279   5.150   6.389
11701TIP3    H235045   5.133   5.168   6.420
11702TIP3   OH235046   4.222   4.743   7.033
11702TIP3    H135047   4.299   4.688   7.016
11702TIP3    H235048   4.245   4.779   7.121
11703TIP3   OH235049   4.301   4.565   5.476
11703TIP3    H135050   4.261   4.518   5.550
11703TIP3    H235051   4.330   4.492   5.418
11704TIP3   OH235052   4.540   4.609   6.668
11704TIP3    H135053   4.474   4.677   6.692
11704TIP3    H235054   4.604   4.661   6.614
11705TIP3   OH235055   4.387   4.358   5.313
11705TIP3    H135056   4.359   4.360   5.219
11705TIP3    H235057   4.484   4.365   5.303
11706TIP3   OH235058   5.076   5.035   6.833
11706TIP3    H135059   5.155   5.010   6.783
11706TIP3    H235060   5.072   4.965   6.901
11707TIP3   OH235061   5.215   4.693   4.971
11707TIP3    H135062   5.192   4.644   4.890
11707TIP3    H235063   5.179   4.782   4.946
11708TIP3   OH235064   4.678   4.423   6.826
11708TIP3    H135065   4.686   4.342   6.771
11708TIP3    H235066   4.633   4.482   6.762
11709TIP3   OH235067   4.685   4.239   6.624
11709TIP3    H135068   4.743   4.213   6.551
11709TIP3    H235069   4.602   4.191   6.606
11710TIP3   OH235070   4.712   4.748   6.516
11710TIP3    H135071   4.791   4.740   6.462
11710TIP3    H235072   4.657   4.810   6.464
11711TIP3   OH235073   5.295   4.711   6.889
11711TIP3    H135074   5.336   4.622   6.888
11711TIP3    H235075   5.366   4.766   6.853
11712TIP3   OH235076   5.335   4.963   6.623
11712TIP3    H135077   5.277   5.015   6.563
11712TIP3    H235078   5.422   4.982   6.582
11713TIP3   OH235079   4.555   4.534   7.052
11713TIP3    H135080   4.488   4.464   7.067
11713TIP3    H235081   4.593   4.505   6.966
11714TIP3   OH235082   4.804   3.968   6.718
11714TIP3    H135083   4.815   4.035   6.650
11714TIP3    H235084   4.738   3.906   6.681
11715TIP3   OH235085   4.939   4.477   6.914
11715TIP3    H135086   4.929   4.464   7.010
11715TIP3    H235087   4.849   4.450   6.885
11716TIP3   OH235088   5.184   4.435   6.769
11716TIP3    H135089   5.108   4.422   6.829
11716TIP3    H235090   5.258   4.395   6.820
11717TIP3   OH235091   5.419   4.367   6.920
11717TIP3    H135092   5.428   4.271   6.936
11717TIP3    H235093   5.411   4.404   7.010
11718TIP3   OH235094   4.400   4.310   7.103
11718TIP3    H135095   4.400   4.217   7.072
11718TIP3    H235096   4.436   4.299   7.193
11719TIP3   OH235097   4.914   3.978   6.964
11719TIP3    H135098   4.982   3.909   6.948
11719TIP3    H235099   4.871   3.979   6.875
11720TIP3   OH235100   4.977   4.195   7.118
11720TIP3    H135101   4.959   4.122   7.054
11720TIP3    H235102   4.899   4.252   7.107
11721TIP3   OH235103   4.196   5.429   5.216
11721TIP3    H135104   4.291   5.423   5.194
11721TIP3    H235105   4.164   5.471   5.134
11722TIP3   OH235106   3.678   4.804   5.438
11722TIP3    H135107   3.771   4.829   5.417
11722TIP3    H235108   3.671   4.716   5.394
11723TIP3   OH235109   3.588   5.420   5.843
11723TIP3    H135110   3.523   5.356   5.806
11723TIP3    H235111   3.634   5.363   5.909
11724TIP3   OH235112   3.724   5.276   6.032
11724TIP3    H135113   3.715   5.196   6.086
11724TIP3    H235114   3.778   5.332   6.090
11725TIP3   OH235115   5.456   5.664   5.830
11725TIP3    H135116   5.481   5.704   5.916
11725TIP3    H235117   5.506   5.718   5.767
11726TIP3   OH235118   5.485   5.691   6.113
11726TIP3    H135119   5.439   5.604   6.105
11726TIP3    H235120   5.557   5.665   6.172
11727TIP3   OH235121   5.530   5.366   6.685
11727TIP3    H135122   5.456   5.374   6.749
11727TIP3    H235123   5.570   5.455   6.690
11728TIP3   OH235124   5.346   4.880   5.306
11728TIP3    H135125   5.414   4.944   5.277
11728TIP3    H235126   5.390   4.841   5.385
11729TIP3   OH235127   5.475   4.747   5.509
11729TIP3    H135128   5.407   4.705   5.566
11729TIP3    H235129   5.536   4.787   5.574
11730TIP3   OH235130   5.529   5.138   5.944
11730TIP3    H135131   5.579   5.073   5.891
11730TIP3    H235132   5.520   5.213   5.881
11731TIP3   OH235133   5.361   5.441   6.137
11731TIP3    H135134   5.288   5.482   6.188
11731TIP3    H235135   5.312   5.392   6.067
11732TIP3   OH235136   5.412   4.654   5.157
11732TIP3    H135137   5.342   4.656   5.088
11732TIP3    H235138   5.382   4.730   5.211
11733TIP3   OH235139   5.287   4.327   5.110
11733TIP3    H135140   5.245   4.368   5.034
11733TIP3    H235141   5.257   4.234   5.100
11734TIP3   OH235142   5.290   4.604   5.655
11734TIP3    H135143   5.293   4.507   5.643
11734TIP3    H235144   5.277   4.614   5.752
11735TIP3   OH235145   3.921   4.660   6.407
11735TIP3    H135146   3.915   4.641   6.310
11735TIP3    H235147   4.018   4.670   6.418
11736TIP3   OH235148   5.578   5.028   6.513
11736TIP3    H135149   5.650   4.962   6.504
11736TIP3    H235150   5.604   5.096   6.449
11737TIP3   OH235151   5.765   4.835   6.531
11737TIP3    H135152   5.689   4.785   6.569
11737TIP3    H235153   5.837   4.769   6.546
11738TIP3   OH235154   5.228   4.062   5.097
11738TIP3    H135155   5.299   4.028   5.154
11738TIP3    H235156   5.151   4.005   5.118
11739TIP3   OH235157   5.291   4.328   5.547
11739TIP3    H135158   5.324   4.237   5.565
11739TIP3    H235159   5.348   4.353   5.472
11740TIP3   OH235160   5.444   4.496   6.045
11740TIP3    H135161   5.531   4.519   6.005
11740TIP3    H235162   5.458   4.530   6.135
11741TIP3   OH235163   5.514   4.636   6.277
11741TIP3    H135164   5.436   4.669   6.327
11741TIP3    H235165   5.546   4.717   6.234
11742TIP3   OH235166   4.138   4.367   7.064
11742TIP3    H135167   4.234   4.355   7.076
11742TIP3    H235168   4.105   4.283   7.101
11743TIP3   OH235169   5.971   4.229   6.835
11743TIP3    H135170   6.027   4.161   6.792
11743TIP3    H235171   5.940   4.281   6.758
11744TIP3   OH235172   5.390   4.071   5.593
11744TIP3    H135173   5.448   4.052   5.669
11744TIP3    H235174   5.333   3.991   5.592
11745TIP3   OH235175   4.094   4.063   6.424
11745TIP3    H135176   4.146   3.980   6.427
11745TIP3    H235177   4.162   4.125   6.394
11746TIP3   OH235178   3.947   4.350   6.520
11746TIP3    H135179   3.982   4.320   6.427
11746TIP3    H235180   3.913   4.442   6.487
11747TIP3   OH235181   5.841   4.368   6.641
11747TIP3    H135182   5.753   4.408   6.659
11747TIP3    H235183   5.812   4.295   6.581
11748TIP3   OH235184   5.477   4.002   5.225
11748TIP3    H135185   5.514   3.932   5.168
11748TIP3    H235186   5.542   4.075   5.213
11749TIP3   OH235187   3.878   3.846   5.992
11749TIP3    H135188   3.783   3.832   6.007
11749TIP3    H235189   3.878   3.897   5.908
11750TIP3   OH235190   5.041   5.535   5.489
11750TIP3    H135191   5.087   5.520   5.404
11750TIP3    H235192   5.094   5.605   5.529
11751TIP3   OH235193   4.103   3.920   6.798
11751TIP3    H135194   4.056   3.906   6.882
11751TIP3    H235195   4.033   3.959   6.743
11752TIP3   OH235196   4.142   5.338   6.876
11752TIP3    H135197   4.050   5.313   6.856
11752TIP3    H235198   4.146   5.322   6.971
11753TIP3   OH235199   4.317   5.371   6.421
11753TIP3    H135200   4.268   5.446   6.381
11753TIP3    H235201   4.403   5.385   6.378
11754TIP3   OH235202   4.764   5.617   6.560
11754TIP3    H135203   4.806   5.619   6.649
11754TIP3    H235204   4.829   5.668   6.507
11755TIP3   OH235205   4.942   5.768   6.417
11755TIP3    H135206   5.012   5.717   6.374
11755TIP3    H235207   4.994   5.824   6.478
11756TIP3   OH235208   5.737   4.129   6.518
11756TIP3    H135209   5.645   4.118   6.487
11756TIP3    H235210   5.771   4.037   6.508
11757TIP3   OH235211   3.995   5.632   6.443
11757TIP3    H135212   3.906   5.667   6.420
11757TIP3    H235213   3.999   5.655   6.536
11758TIP3   OH235214   4.232   5.609   6.302
11758TIP3    H135215   4.145   5.622   6.347
11758TIP3    H235216   4.213   5.639   6.212
11759TIP3   OH235217   4.657   5.637   6.100
11759TIP3    H135218   4.588   5.656   6.034
11759TIP3    H235219   4.669   5.726   6.141
11760TIP3   OH235220   4.925   5.578   6.152
11760TIP3    H135221   4.831   5.593   6.131
11760TIP3    H235222   4.967   5.653   6.108
11761TIP3   OH235223   5.136   5.771   6.067
11761TIP3    H135224   5.119   5.854   6.019
11761TIP3    H235225   5.159   5.709   5.994
11762TIP3   OH235226   3.906   5.424   6.192
11762TIP3    H135227   3.934   5.398   6.282
11762TIP3    H235228   3.976   5.379   6.139
11763TIP3   OH235229   4.097   5.295   6.047
11763TIP3    H135230   4.116   5.210   6.094
11763TIP3    H235231   4.187   5.332   6.038
11764TIP3   OH235232   4.364   5.391   6.048
11764TIP3    H135233   4.396   5.301   6.031
11764TIP3    H235234   4.408   5.410   6.133
11765TIP3   OH235235   4.998   4.006   6.091
11765TIP3    H135236   4.935   4.040   6.157
11765TIP3    H235237   5.005   3.914   6.127
11766TIP3   OH235238   5.476   3.925   6.041
11766TIP3    H135239   5.515   3.974   5.965
11766TIP3    H235240   5.383   3.944   6.034
11767TIP3   OH235241   5.559   4.030   5.805
11767TIP3    H135242   5.631   3.974   5.768
11767TIP3    H235243   5.597   4.119   5.789
11768TIP3   OH235244   4.190   3.755   6.155
11768TIP3    H135245   4.098   3.724   6.155
11768TIP3    H235246   4.238   3.669   6.150
11769TIP3   OH235247   3.981   3.623   5.801
11769TIP3    H135248   4.007   3.680   5.726
11769TIP3    H235249   3.946   3.688   5.864
11770TIP3   OH235250   4.634   3.795   6.035
11770TIP3    H135251   4.689   3.868   6.008
11770TIP3    H235252   4.644   3.802   6.132
11771TIP3   OH235253   5.201   3.861   5.592
11771TIP3    H135254   5.122   3.855   5.535
11771TIP3    H235255   5.195   3.775   5.640
11772TIP3   OH235256   3.693   5.195   5.585
11772TIP3    H135257   3.610   5.158   5.549
11772TIP3    H235258   3.679   5.288   5.561
11773TIP3   OH235259   4.091   3.780   5.567
11773TIP3    H135260   4.140   3.720   5.507
11773TIP3    H235261   4.164   3.835   5.602
11774TIP3   OH235262   4.601   3.958   5.660
11774TIP3    H135263   4.626   3.902   5.734
11774TIP3    H235264   4.636   4.046   5.688
11775TIP3   OH235265   4.465   5.385   5.162
11775TIP3    H135266   4.554   5.406   5.126
11775TIP3    H235267   4.442   5.310   5.102
11776TIP3   OH235268   5.182   5.502   5.256
11776TIP3    H135269   5.175   5.404   5.242
11776TIP3    H235270   5.139   5.535   5.174
11777TIP3   OH235271   4.401   4.035   7.055
11777TIP3    H135272   4.368   3.960   7.108
11777TIP3    H235273   4.496   4.034   7.079
11778TIP3   OH235274   4.653   4.037   7.165
11778TIP3    H135275   4.733   4.007   7.118
11778TIP3    H235276   4.640   3.965   7.231
11779TIP3   OH235277   3.772   5.232   5.220
11779TIP3    H135278   3.774   5.241   5.316
11779TIP3    H235279   3.852   5.177   5.202
11780TIP3   OH235280   5.473   4.098   6.954
11780TIP3    H135281   5.492   4.061   7.042
11780TIP3    H235282   5.560   4.089   6.909
11781TIP3   OH235283   5.413   5.647   6.443
11781TIP3    H135284   5.334   5.613   6.395
11781TIP3    H235285   5.390   5.742   6.446
11782TIP3   OH235286   6.676   5.018   5.211
11782TIP3    H135287   6.648   5.110   5.190
11782TIP3    H235288   6.600   4.969   5.177
11783TIP3   OH235289   6.678   5.019   5.588
11783TIP3    H135290   6.705   4.985   5.675
11783TIP3    H235291   6.634   4.941   5.550
11784TIP3   OH235292   5.977   4.915   5.954
11784TIP3    H135293   6.007   4.846   6.017
11784TIP3    H235294   6.055   4.971   5.949
11785TIP3   OH235295   6.919   5.318   5.271
11785TIP3    H135296   6.904   5.249   5.337
11785TIP3    H235297   6.948   5.393   5.326
11786TIP3   OH235298   5.948   5.324   5.686
11786TIP3    H135299   5.938   5.226   5.687
11786TIP3    H235300   6.044   5.331   5.673
11787TIP3   OH235301   5.654   4.527   5.468
11787TIP3    H135302   5.605   4.610   5.481
11787TIP3    H235303   5.584   4.472   5.429
11788TIP3   OH235304   5.715   4.816   5.637
11788TIP3    H135305   5.762   4.737   5.673
11788TIP3    H235306   5.769   4.838   5.561
11789TIP3   OH235307   6.572   5.780   5.300
11789TIP3    H135308   6.611   5.721   5.233
11789TIP3    H235309   6.572   5.722   5.377
11790TIP3   OH235310   6.475   5.245   5.639
11790TIP3    H135311   6.509   5.168   5.590
11790TIP3    H235312   6.561   5.287   5.661
11791TIP3   OH235313   7.487   4.566   5.636
11791TIP3    H135314   7.517   4.648   5.680
11791TIP3    H235315   7.504   4.587   5.543
11792TIP3   OH235316   6.889   4.748   5.672
11792TIP3    H135317   6.929   4.661   5.692
11792TIP3    H235318   6.856   4.732   5.581
11793TIP3   OH235319   6.224   4.405   5.636
11793TIP3    H135320   6.203   4.477   5.574
11793TIP3    H235321   6.177   4.331   5.593
11794TIP3   OH235322   6.918   4.496   5.260
11794TIP3    H135323   6.990   4.479   5.325
11794TIP3    H235324   6.970   4.532   5.186
11795TIP3   OH235325   5.858   4.607   5.742
11795TIP3    H135326   5.941   4.587   5.790
11795TIP3    H235327   5.871   4.551   5.663
11796TIP3   OH235328   6.299   4.805   5.535
11796TIP3    H135329   6.393   4.778   5.549
11796TIP3    H235330   6.260   4.721   5.503
11797TIP3   OH235331   7.562   4.773   5.805
11797TIP3    H135332   7.478   4.820   5.784
11797TIP3    H235333   7.567   4.790   5.900
11798TIP3   OH235334   6.222   4.389   6.070
11798TIP3    H135335   6.160   4.425   6.005
11798TIP3    H235336   6.171   4.404   6.153
11799TIP3   OH235337   6.569   5.239   5.080
11799TIP3    H135338   6.525   5.218   4.996
11799TIP3    H235339   6.525   5.323   5.104
11800TIP3   OH235340   6.330   5.164   5.869
11800TIP3    H135341   6.265   5.227   5.907
11800TIP3    H235342   6.367   5.215   5.794
11801TIP3   OH235343   7.132   4.496   5.428
11801TIP3    H135344   7.119   4.446   5.509
11801TIP3    H235345   7.183   4.574   5.459
11802TIP3   OH235346   6.091   4.504   5.855
11802TIP3    H135347   6.155   4.574   5.879
11802TIP3    H235348   6.140   4.462   5.780
11803TIP3   OH235349   6.156   5.355   5.967
11803TIP3    H135350   6.128   5.438   5.924
11803TIP3    H235351   6.076   5.338   6.022
11804TIP3   OH235352   5.552   5.046   5.200
11804TIP3    H135353   5.509   5.074   5.117
11804TIP3    H235354   5.581   5.132   5.237
11805TIP3   OH235355   6.990   5.563   5.444
11805TIP3    H135356   6.899   5.555   5.480
11805TIP3    H235357   6.982   5.647   5.394
11806TIP3   OH235358   7.279   4.469   5.804
11806TIP3    H135359   7.190   4.493   5.772
11806TIP3    H235360   7.337   4.498   5.731
11807TIP3   OH235361   6.579   4.108   5.785
11807TIP3    H135362   6.566   4.013   5.802
11807TIP3    H235363   6.501   4.146   5.831
11808TIP3   OH235364   6.691   5.614   5.116
11808TIP3    H135365   6.738   5.530   5.096
11808TIP3    H235366   6.754   5.677   5.075
11809TIP3   OH235367   6.832   5.397   5.022
11809TIP3    H135368   6.796   5.319   4.977
11809TIP3    H235369   6.868   5.358   5.105
11810TIP3   OH235370   7.214   5.476   5.783
11810TIP3    H135371   7.204   5.398   5.724
11810TIP3    H235372   7.197   5.550   5.721
11811TIP3   OH235373   6.508   4.870   5.040
11811TIP3    H135374   6.428   4.922   5.020
11811TIP3    H235375   6.552   4.868   4.953
11812TIP3   OH235376   6.467   4.653   4.758
11812TIP3    H135377   6.534   4.705   4.805
11812TIP3    H235378   6.524   4.590   4.711
11813TIP3   OH235379   7.412   5.114   5.628
11813TIP3    H135380   7.328   5.165   5.633
11813TIP3    H235381   7.441   5.138   5.537
11814TIP3   OH235382   6.855   4.951   5.013
11814TIP3    H135383   6.800   4.976   5.091
11814TIP3    H235384   6.939   4.928   5.057
11815TIP3   OH235385   7.091   4.994   5.921
11815TIP3    H135386   7.085   5.078   5.970
11815TIP3    H235387   7.003   4.993   5.877
11816TIP3   OH235388   6.087   4.951   5.429
11816TIP3    H135389   6.044   4.894   5.361
11816TIP3    H235390   6.163   4.897   5.456
11817TIP3   OH235391   6.217   5.357   5.581
11817TIP3    H135392   6.193   5.322   5.494
11817TIP3    H235393   6.308   5.323   5.593
11818TIP3   OH235394   6.229   4.919   5.785
11818TIP3    H135395   6.256   4.900   5.693
11818TIP3    H235396   6.268   5.008   5.802
11819TIP3   OH235397   6.746   5.561   5.561
11819TIP3    H135398   6.738   5.637   5.622
11819TIP3    H235399   6.734   5.484   5.620
11820TIP3   OH235400   6.361   5.481   6.106
11820TIP3    H135401   6.299   5.541   6.153
11820TIP3    H235402   6.297   5.426   6.056
11821TIP3   OH235403   6.698   4.809   4.837
11821TIP3    H135404   6.754   4.871   4.889
11821TIP3    H235405   6.724   4.833   4.745
11822TIP3   OH235406   6.115   5.037   6.206
11822TIP3    H135407   6.118   5.122   6.253
11822TIP3    H235408   6.020   5.014   6.216
11823TIP3   OH235409   6.437   5.491   5.117
11823TIP3    H135410   6.515   5.548   5.130
11823TIP3    H235411   6.375   5.549   5.071
11824TIP3   OH235412   6.155   5.651   6.196
11824TIP3    H135413   6.121   5.645   6.105
11824TIP3    H235414   6.076   5.625   6.249
11825TIP3   OH235415   7.211   4.051   4.886
11825TIP3    H135416   7.129   4.068   4.937
11825TIP3    H235417   7.224   4.138   4.842
11826TIP3   OH235418   5.953   4.793   5.235
11826TIP3    H135419   5.888   4.839   5.177
11826TIP3    H235420   5.910   4.707   5.246
11827TIP3   OH235421   7.009   5.419   4.435
11827TIP3    H135422   7.017   5.516   4.419
11827TIP3    H235423   7.102   5.390   4.423
11828TIP3   OH235424   5.736   5.177   6.140
11828TIP3    H135425   5.669   5.156   6.072
11828TIP3    H235426   5.771   5.089   6.164
11829TIP3   OH235427   5.587   5.368   5.778
11829TIP3    H135428   5.683   5.368   5.764
11829TIP3    H235429   5.573   5.452   5.824
11830TIP3   OH235430   7.468   5.802   5.872
11830TIP3    H135431   7.449   5.707   5.862
11830TIP3    H235432   7.378   5.836   5.894
11831TIP3   OH235433   6.559   5.607   5.964
11831TIP3    H135434   6.557   5.700   5.997
11831TIP3    H235435   6.486   5.568   6.017
11832TIP3   OH235436   6.321   5.736   4.916
11832TIP3    H135437   6.276   5.716   4.831
11832TIP3    H235438   6.285   5.823   4.939
11833TIP3   OH235439   5.757   5.586   5.298
11833TIP3    H135440   5.804   5.574   5.384
11833TIP3    H235441   5.693   5.513   5.303
11834TIP3   OH235442   6.524   5.639   4.554
11834TIP3    H135443   6.583   5.569   4.518
11834TIP3    H235444   6.557   5.648   4.646
11835TIP3   OH235445   6.571   5.685   4.826
11835TIP3    H135446   6.482   5.698   4.865
11835TIP3    H235447   6.617   5.641   4.899
11836TIP3   OH235448   7.343   4.954   6.102
11836TIP3    H135449   7.262   4.966   6.050
11836TIP3    H235450   7.359   4.858   6.091
11837TIP3   OH235451   5.938   5.362   6.132
11837TIP3    H135452   5.989   5.341   6.214
11837TIP3    H235453   5.865   5.296   6.137
11838TIP3   OH235454   6.339   4.185   5.910
11838TIP3    H135455   6.250   4.153   5.885
11838TIP3    H235456   6.313   4.266   5.958
11839TIP3   OH235457   6.872   4.301   6.108
11839TIP3    H135458   6.939   4.269   6.171
11839TIP3    H235459   6.787   4.279   6.153
11840TIP3   OH235460   7.116   4.730   6.029
11840TIP3    H135461   7.063   4.724   6.111
11840TIP3    H235462   7.087   4.815   5.990
11841TIP3   OH235463   6.771   4.856   4.581
11841TIP3    H135464   6.738   4.832   4.492
11841TIP3    H235465   6.850   4.909   4.557
11842TIP3   OH235466   6.486   4.232   4.885
11842TIP3    H135467   6.451   4.229   4.976
11842TIP3    H235468   6.446   4.151   4.849
11843TIP3   OH235469   6.272   4.698   5.934
11843TIP3    H135470   6.219   4.720   6.014
11843TIP3    H235471   6.257   4.778   5.879
11844TIP3   OH235472   6.155   4.585   5.446
11844TIP3    H135473   6.062   4.560   5.463
11844TIP3    H235474   6.168   4.545   5.357
11845TIP3   OH235475   6.647   4.672   5.173
11845TIP3    H135476   6.592   4.743   5.132
11845TIP3    H235477   6.699   4.641   5.097
11846TIP3   OH235478   6.820   4.953   6.264
11846TIP3    H135479   6.797   4.878   6.324
11846TIP3    H235480   6.915   4.962   6.282
11847TIP3   OH235481   6.804   4.702   5.413
11847TIP3    H135482   6.743   4.731   5.342
11847TIP3    H235483   6.835   4.619   5.370
11848TIP3   OH235484   6.091   4.728   6.141
11848TIP3    H135485   6.112   4.790   6.211
11848TIP3    H235486   6.078   4.645   6.190
11849TIP3   OH235487   6.140   4.206   4.850
11849TIP3    H135488   6.132   4.203   4.947
11849TIP3    H235489   6.061   4.257   4.826
11850TIP3   OH235490   5.682   4.251   5.722
11850TIP3    H135491   5.759   4.282   5.774
11850TIP3    H235492   5.722   4.220   5.639
11851TIP3   OH235493   5.660   4.233   5.241
11851TIP3    H135494   5.705   4.270   5.162
11851TIP3    H235495   5.597   4.306   5.260
11852TIP3   OH235496   6.817   4.947   5.838
11852TIP3    H135497   6.848   4.874   5.778
11852TIP3    H235498   6.785   4.894   5.914
11853TIP3   OH235499   6.482   4.410   5.508
11853TIP3    H135500   6.397   4.406   5.557
11853TIP3    H235501   6.546   4.406   5.580
11854TIP3   OH235502   5.916   4.462   5.516
11854TIP3    H135503   5.822   4.471   5.488
11854TIP3    H235504   5.938   4.370   5.492
11855TIP3   OH235505   6.187   4.461   5.203
11855TIP3    H135506   6.281   4.475   5.179
11855TIP3    H235507   6.139   4.481   5.120
11856TIP3   OH235508   6.973   4.483   5.708
11856TIP3    H135509   6.938   4.495   5.799
11856TIP3    H235510   6.908   4.420   5.672
11857TIP3   OH235511   6.027   4.491   4.984
11857TIP3    H135512   5.952   4.450   4.939
11857TIP3    H235513   6.077   4.527   4.908
11858TIP3   OH235514   7.141   6.172   5.927
11858TIP3    H135515   7.137   6.193   5.831
11858TIP3    H235516   7.217   6.226   5.955
11859TIP3   OH235517   6.102   5.284   6.350
11859TIP3    H135518   6.181   5.313   6.400
11859TIP3    H235519   6.036   5.278   6.422
11860TIP3   OH235520   6.565   4.736   5.607
11860TIP3    H135521   6.636   4.693   5.555
11860TIP3    H235522   6.573   4.692   5.693
11861TIP3   OH235523   6.091   4.224   5.482
11861TIP3    H135524   6.056   4.145   5.528
11861TIP3    H235525   6.140   4.184   5.409
11862TIP3   OH235526   6.543   4.632   5.892
11862TIP3    H135527   6.452   4.666   5.906
11862TIP3    H235528   6.598   4.692   5.945
11863TIP3   OH235529   6.280   5.023   4.992
11863TIP3    H135530   6.207   4.958   4.979
11863TIP3    H235531   6.260   5.057   5.082
11864TIP3   OH235532   7.180   5.259   5.620
11864TIP3    H135533   7.203   5.309   5.538
11864TIP3    H235534   7.095   5.216   5.595
11865TIP3   OH235535   6.737   4.336   4.849
11865TIP3    H135536   6.640   4.318   4.857
11865TIP3    H235537   6.745   4.431   4.874
11866TIP3   OH235538   6.687   5.346   5.985
11866TIP3    H135539   6.694   5.312   6.075
11866TIP3    H235540   6.637   5.429   5.996
11867TIP3   OH235541   6.807   4.583   4.955
11867TIP3    H135542   6.903   4.590   4.970
11867TIP3    H235543   6.787   4.663   4.902
11868TIP3   OH235544   5.974   5.048   5.667
11868TIP3    H135545   6.007   5.016   5.581
11868TIP3    H235546   6.006   4.979   5.727
11869TIP3   OH235547   6.423   5.173   4.810
11869TIP3    H135548   6.376   5.260   4.814
11869TIP3    H235549   6.368   5.119   4.871
11870TIP3   OH235550   5.851   4.965   6.278
11870TIP3    H135551   5.868   4.950   6.373
11870TIP3    H235552   5.781   4.899   6.260
11871TIP3   OH235553   6.575   5.080   6.297
11871TIP3    H135554   6.514   5.020   6.251
11871TIP3    H235555   6.662   5.043   6.269
11872TIP3   OH235556   6.839   5.608   5.878
11872TIP3    H135557   6.744   5.596   5.893
11872TIP3    H235558   6.865   5.656   5.960
11873TIP3   OH235559   7.258   4.664   4.787
11873TIP3    H135560   7.192   4.624   4.726
11873TIP3    H235561   7.255   4.755   4.749
11874TIP3   OH235562   7.462   5.522   5.872
11874TIP3    H135563   7.364   5.515   5.861
11874TIP3    H235564   7.490   5.491   5.782
11875TIP3   OH235565   6.949   5.491   4.699
11875TIP3    H135566   6.923   5.418   4.757
11875TIP3    H235567   6.962   5.447   4.613
11876TIP3   OH235568   6.945   5.120   5.542
11876TIP3    H135569   6.851   5.095   5.553
11876TIP3    H235570   6.978   5.042   5.494
11877TIP3   OH235571   6.071   5.349   5.293
11877TIP3    H135572   6.070   5.430   5.237
11877TIP3    H235573   5.977   5.330   5.297
11878TIP3   OH235574   5.637   4.651   4.997
11878TIP3    H135575   5.679   4.737   5.015
11878TIP3    H235576   5.558   4.657   5.055
11879TIP3   OH235577   6.213   5.116   5.236
11879TIP3    H135578   6.177   5.205   5.254
11879TIP3    H235579   6.174   5.065   5.310
11880TIP3   OH235580   6.339   5.695   5.765
11880TIP3    H135581   6.380   5.760   5.704
11880TIP3    H235582   6.418   5.656   5.807
11881TIP3   OH235583   5.992   5.581   5.144
11881TIP3    H135584   5.906   5.595   5.188
11881TIP3    H235585   6.028   5.673   5.144
11882TIP3   OH235586   6.733   5.327   5.716
11882TIP3    H135587   6.724   5.324   5.814
11882TIP3    H235588   6.809   5.269   5.702
11883TIP3   OH235589   6.702   5.214   4.601
11883TIP3    H135590   6.753   5.191   4.682
11883TIP3    H235591   6.612   5.194   4.630
11884TIP3   OH235592   6.977   5.864   5.770
11884TIP3    H135593   6.900   5.805   5.763
11884TIP3    H235594   6.961   5.926   5.696
11885TIP3   OH235595   7.043   5.693   4.421
11885TIP3    H135596   7.080   5.763   4.364
11885TIP3    H235597   6.963   5.741   4.453
11886TIP3   OH235598   6.063   4.472   6.288
11886TIP3    H135599   5.966   4.474   6.301
11886TIP3    H235600   6.090   4.408   6.356
11887TIP3   OH235601   6.863   5.155   4.820
11887TIP3    H135602   6.853   5.088   4.890
11887TIP3    H235603   6.960   5.151   4.805
11888TIP3   OH235604   5.786   5.558   5.917
11888TIP3    H135605   5.828   5.476   5.947
11888TIP3    H235606   5.806   5.617   5.991
11889TIP3   OH235607   6.074   5.197   4.598
11889TIP3    H135608   6.085   5.104   4.572
11889TIP3    H235609   6.052   5.189   4.693
11890TIP3   OH235610   6.018   5.203   4.870
11890TIP3    H135611   6.086   5.179   4.934
11890TIP3    H235612   6.019   5.302   4.876
11891TIP3   OH235613   5.753   4.901   5.076
11891TIP3    H135614   5.686   4.945   5.133
11891TIP3    H235615   5.764   4.970   5.007
11892TIP3   OH235616   6.899   4.536   5.969
11892TIP3    H135617   6.980   4.569   6.009
11892TIP3    H235618   6.882   4.455   6.021
11893TIP3   OH235619   6.781   4.287   5.131
11893TIP3    H135620   6.765   4.310   5.038
11893TIP3    H235621   6.816   4.371   5.167
11894TIP3   OH235622   6.283   5.404   4.822
11894TIP3    H135623   6.195   5.428   4.857
11894TIP3    H235624   6.296   5.476   4.759
11895TIP3   OH235625   6.473   4.465   5.235
11895TIP3    H135626   6.535   4.538   5.218
11895TIP3    H235627   6.474   4.459   5.333
11896TIP3   OH235628   6.739   4.787   6.042
11896TIP3    H135629   6.756   4.838   6.123
11896TIP3    H235630   6.791   4.706   6.056
11897TIP3   OH235631   6.615   4.197   5.339
11897TIP3    H135632   6.606   4.275   5.397
11897TIP3    H235633   6.674   4.231   5.269
11898TIP3   OH235634   6.025   5.474   4.888
11898TIP3    H135635   5.995   5.539   4.820
11898TIP3    H235636   6.006   5.522   4.971
11899TIP3   OH235637   6.124   4.191   5.127
11899TIP3    H135638   6.123   4.281   5.163
11899TIP3    H235639   6.220   4.172   5.135
11900TIP3   OH235640   7.382   4.686   6.020
11900TIP3    H135641   7.285   4.686   6.032
11900TIP3    H235642   7.388   4.638   5.937
11901TIP3   OH235643   7.030   4.880   5.412
11901TIP3    H135644   6.954   4.821   5.423
11901TIP3    H235645   7.101   4.832   5.459
11902TIP3   OH235646   5.741   5.108   4.882
11902TIP3    H135647   5.799   5.186   4.889
11902TIP3    H235648   5.790   5.057   4.814
11903TIP3   OH235649   5.687   4.383   5.014
11903TIP3    H135650   5.685   4.481   5.011
11903TIP3    H235651   5.602   4.361   4.974
11904TIP3   OH235652   6.998   5.835   5.363
11904TIP3    H135653   6.954   5.882   5.288
11904TIP3    H235654   7.092   5.854   5.341
11905TIP3   OH235655   6.074   4.105   5.889
11905TIP3    H135656   6.043   4.069   5.803
11905TIP3    H235657   6.065   4.027   5.948
11906TIP3   OH235658   5.614   5.319   5.271
11906TIP3    H135659   5.539   5.352   5.322
11906TIP3    H235660   5.594   5.358   5.184
11907TIP3   OH235661   5.768   5.861   6.339
11907TIP3    H135662   5.853   5.856   6.386
11907TIP3    H235663   5.743   5.766   6.338
11908TIP3   OH235664   6.261   5.836   6.375
11908TIP3    H135665   6.350   5.800   6.388
11908TIP3    H235666   6.226   5.772   6.310
11909TIP3   OH235667   6.234   5.405   4.514
11909TIP3    H135668   6.176   5.334   4.550
11909TIP3    H235669   6.308   5.351   4.481
11910TIP3   OH235670   6.887   5.737   6.120
11910TIP3    H135671   6.879   5.665   6.187
11910TIP3    H235672   6.967   5.784   6.150
11911TIP3   OH235673   6.669   5.445   4.423
11911TIP3    H135674   6.720   5.384   4.480
11911TIP3    H235675   6.721   5.447   4.341
11912TIP3   OH235676   5.901   5.270   6.540
11912TIP3    H135677   5.916   5.173   6.547
11912TIP3    H235678   5.813   5.272   6.497
11913TIP3   OH235679   5.879   4.922   4.733
11913TIP3    H135680   5.932   4.888   4.807
11913TIP3    H235681   5.946   4.927   4.662
11914TIP3   OH235682   6.509   5.354   6.313
11914TIP3    H135683   6.465   5.367   6.227
11914TIP3    H235684   6.538   5.260   6.308
11915TIP3   OH235685   6.387   5.119   4.540
11915TIP3    H135686   6.388   5.132   4.636
11915TIP3    H235687   6.383   5.021   4.535
11916TIP3   OH235688   7.002   5.360   5.923
11916TIP3    H135689   7.074   5.407   5.876
11916TIP3    H235690   6.927   5.420   5.907
11917TIP3   OH235691   6.021   5.006   6.521
11917TIP3    H135692   6.089   4.940   6.505
11917TIP3    H235693   6.045   5.037   6.610
11918TIP3   OH235694   6.090   4.823   4.959
11918TIP3    H135695   6.057   4.781   5.040
11918TIP3    H235696   6.123   4.747   4.907
11919TIP3   OH235697   6.356   4.892   6.188
11919TIP3    H135698   6.275   4.947   6.187
11919TIP3    H235699   6.403   4.923   6.107
11920TIP3   OH235700   6.184   4.616   4.797
11920TIP3    H135701   6.158   4.619   4.703
11920TIP3    H235702   6.281   4.621   4.790
11921TIP3   OH235703   6.875   5.294   6.322
11921TIP3    H135704   6.949   5.264   6.267
11921TIP3    H235705   6.867   5.222   6.387
11922TIP3   OH235706   7.010   4.947   4.459
11922TIP3    H135707   6.990   4.903   4.374
11922TIP3    H235708   6.978   5.038   4.437
11923TIP3   OH235709   6.480   4.677   6.310
11923TIP3    H135710   6.477   4.595   6.256
11923TIP3    H235711   6.434   4.741   6.253
11924TIP3   OH235712   6.480   4.464   6.118
11924TIP3    H135713   6.506   4.502   6.032
11924TIP3    H235714   6.386   4.440   6.101
11925TIP3   OH235715   6.512   5.002   5.992
11925TIP3    H135716   6.590   5.005   5.937
11925TIP3    H235717   6.452   5.066   5.947
11926TIP3   OH235718   7.092   4.966   6.375
11926TIP3    H135719   7.137   4.880   6.381
11926TIP3    H235720   7.161   5.022   6.336
11927TIP3   OH235721   7.131   5.220   6.113
11927TIP3    H135722   7.073   5.271   6.052
11927TIP3    H235723   7.218   5.238   6.071
11928TIP3   OH235724   6.356   4.791   6.540
11928TIP3    H135725   6.287   4.722   6.555
11928TIP3    H235726   6.389   4.765   6.452
11929TIP3   OH235727   6.613   4.227   6.182
11929TIP3    H135728   6.561   4.308   6.162
11929TIP3    H235729   6.544   4.157   6.172
11930TIP3   OH235730   6.738   4.733   6.401
11930TIP3    H135731   6.724   4.718   6.496
11930TIP3    H235732   6.648   4.708   6.369
11931TIP3   OH235733   6.979   4.684   6.257
11931TIP3    H135734   6.902   4.682   6.318
11931TIP3    H235735   7.051   4.649   6.313
11932TIP3   OH235736   7.212   4.622   6.407
11932TIP3    H135737   7.221   4.526   6.424
11932TIP3    H235738   7.206   4.659   6.497
11933TIP3   OH235739   6.197   4.571   6.591
11933TIP3    H135740   6.199   4.479   6.557
11933TIP3    H235741   6.231   4.557   6.682
11934TIP3   OH235742   6.710   4.239   6.439
11934TIP3    H135743   6.775   4.165   6.435
11934TIP3    H235744   6.668   4.230   6.351
11935TIP3   OH235745   6.776   4.453   6.599
11935TIP3    H135746   6.753   4.381   6.536
11935TIP3    H235747   6.696   4.510   6.593
11936TIP3   OH235748   5.984   5.662   4.692
11936TIP3    H135749   6.074   5.684   4.662
11936TIP3    H235750   5.937   5.747   4.684
11937TIP3   OH235751   5.473   5.061   4.919
11937TIP3    H135752   5.567   5.084   4.904
11937TIP3    H235753   5.469   4.972   4.878
11938TIP3   OH235754   5.386   5.676   5.332
11938TIP3    H135755   5.319   5.617   5.294
11938TIP3    H235756   5.430   5.616   5.396
11939TIP3   OH235757   5.525   5.526   5.516
11939TIP3    H135758   5.511   5.452   5.577
11939TIP3    H235759   5.573   5.588   5.574
11940TIP3   OH235760   7.250   5.927   5.320
11940TIP3    H135761   7.282   5.968   5.401
11940TIP3    H235762   7.309   5.965   5.253
11941TIP3   OH235763   7.279   5.951   5.606
11941TIP3    H135764   7.242   5.860   5.597
11941TIP3    H235765   7.368   5.931   5.636
11942TIP3   OH235766   7.327   5.623   6.174
11942TIP3    H135767   7.252   5.629   6.236
11942TIP3    H235768   7.364   5.713   6.178
11943TIP3   OH235769   7.142   5.135   4.793
11943TIP3    H135770   7.208   5.200   4.762
11943TIP3    H235771   7.188   5.097   4.871
11944TIP3   OH235772   7.272   5.001   4.995
11944TIP3    H135773   7.204   4.961   5.054
11944TIP3    H235774   7.333   5.043   5.059
11945TIP3   OH235775   7.324   5.395   5.430
11945TIP3    H135776   7.374   5.330   5.376
11945TIP3    H235777   7.318   5.471   5.369
11946TIP3   OH235778   7.158   5.696   5.626
11946TIP3    H135779   7.084   5.739   5.673
11946TIP3    H235780   7.111   5.649   5.553
11947TIP3   OH235781   7.209   4.909   4.644
11947TIP3    H135782   7.139   4.912   4.575
11947TIP3    H235783   7.181   4.985   4.698
11948TIP3   OH235784   7.082   4.581   4.598
11948TIP3    H135785   7.041   4.627   4.524
11948TIP3    H235786   7.051   4.489   4.584
11949TIP3   OH235787   7.086   4.859   5.145
11949TIP3    H135788   7.091   4.763   5.139
11949TIP3    H235789   7.071   4.873   5.241
11950TIP3   OH235790   5.711   4.932   5.890
11950TIP3    H135791   5.709   4.903   5.796
11950TIP3    H235792   5.808   4.934   5.906
11951TIP3   OH235793   7.374   5.283   6.001
11951TIP3    H135794   7.447   5.218   5.992
11951TIP3    H235795   7.399   5.352   5.937
11952TIP3   OH235796   7.561   5.091   6.021
11952TIP3    H135797   7.486   5.041   6.057
11952TIP3    H235798   7.633   5.026   6.034
11953TIP3   OH235799   7.023   4.315   4.587
11953TIP3    H135800   7.088   4.283   4.651
11953TIP3    H235801   6.944   4.261   4.604
11954TIP3   OH235802   7.081   4.574   5.041
11954TIP3    H135803   7.121   4.485   5.055
11954TIP3    H235804   7.139   4.607   4.970
11955TIP3   OH235805   7.244   4.750   5.533
11955TIP3    H135806   7.330   4.777   5.493
11955TIP3    H235807   7.256   4.787   5.623
11956TIP3   OH235808   7.311   4.894   5.765
11956TIP3    H135809   7.232   4.927   5.812
11956TIP3    H235810   7.343   4.975   5.720
11957TIP3   OH235811   5.930   4.623   6.569
11957TIP3    H135812   6.028   4.612   6.567
11957TIP3    H235813   5.904   4.537   6.606
11958TIP3   OH235814   7.765   4.487   6.322
11958TIP3    H135815   7.823   4.419   6.281
11958TIP3    H235816   7.736   4.538   6.244
11959TIP3   OH235817   7.193   4.323   5.073
11959TIP3    H135818   7.237   4.309   5.159
11959TIP3    H235819   7.129   4.249   5.073
11960TIP3   OH235820   5.889   4.312   5.895
11960TIP3    H135821   5.950   4.237   5.905
11960TIP3    H235822   5.952   4.386   5.889
11961TIP3   OH235823   5.693   4.586   5.967
11961TIP3    H135824   5.742   4.580   5.883
11961TIP3    H235825   5.720   4.672   6.000
11962TIP3   OH235826   7.635   4.626   6.127
11962TIP3    H135827   7.547   4.664   6.145
11962TIP3    H235828   7.608   4.552   6.068
11963TIP3   OH235829   7.278   4.259   4.713
11963TIP3    H135830   7.301   4.190   4.648
11963TIP3    H235831   7.328   4.336   4.681
11964TIP3   OH235832   5.675   4.094   5.471
11964TIP3    H135833   5.580   4.090   5.491
11964TIP3    H235834   5.676   4.150   5.390
11965TIP3   OH235835   6.839   5.791   4.978
11965TIP3    H135836   6.882   5.775   4.891
11965TIP3    H235837   6.894   5.863   5.012
11966TIP3   OH235838   5.898   4.177   6.285
11966TIP3    H135839   5.846   4.161   6.366
11966TIP3    H235840   5.828   4.207   6.224
11967TIP3   OH235841   5.936   5.600   6.365
11967TIP3    H135842   5.847   5.568   6.342
11967TIP3    H235843   5.943   5.572   6.457
11968TIP3   OH235844   6.114   5.631   5.915
11968TIP3    H135845   6.053   5.686   5.864
11968TIP3    H235846   6.197   5.648   5.865
11969TIP3   OH235847   6.560   5.877   6.050
11969TIP3    H135848   6.606   5.875   6.137
11969TIP3    H235849   6.626   5.924   5.995
11970TIP3   OH235850   6.736   6.029   5.901
11970TIP3    H135851   6.804   5.975   5.856
11970TIP3    H235852   6.791   6.083   5.961
11971TIP3   OH235853   7.533   4.387   6.005
11971TIP3    H135854   7.442   4.379   5.972
11971TIP3    H235855   7.563   4.294   5.995
11972TIP3   OH235856   5.800   5.891   5.934
11972TIP3    H135857   5.713   5.919   5.900
11972TIP3    H235858   5.789   5.911   6.027
11973TIP3   OH235859   6.010   5.906   5.756
11973TIP3    H135860   5.949   5.903   5.833
11973TIP3    H235861   5.954   5.866   5.688
11974TIP3   OH235862   6.452   5.893   5.587
11974TIP3    H135863   6.440   5.912   5.493
11974TIP3    H235864   6.458   5.982   5.627
11975TIP3   OH235865   6.720   5.837   5.644
11975TIP3    H135866   6.627   5.849   5.617
11975TIP3    H235867   6.766   5.904   5.591
11976TIP3   OH235868   6.926   6.025   5.553
11976TIP3    H135869   6.914   6.109   5.505
11976TIP3    H235870   6.954   5.965   5.480
11977TIP3   OH235871   5.704   5.682   5.679
11977TIP3    H135872   5.729   5.651   5.768
11977TIP3    H235873   5.771   5.634   5.625
11978TIP3   OH235874   5.890   5.549   5.534
11978TIP3    H135875   5.909   5.465   5.582
11978TIP3    H235876   5.981   5.586   5.526
11979TIP3   OH235877   6.148   5.639   5.547
11979TIP3    H135878   6.189   5.556   5.517
11979TIP3    H235879   6.207   5.663   5.621
11980TIP3   OH235880   6.738   4.303   5.625
11980TIP3    H135881   6.693   4.235   5.678
11980TIP3    H235882   6.807   4.251   5.579
11981TIP3   OH235883   7.263   4.183   5.530
11981TIP3    H135884   7.297   4.235   5.454
11981TIP3    H235885   7.166   4.197   5.522
11982TIP3   OH235886   7.356   4.284   5.292
11982TIP3    H135887   7.431   4.233   5.253
11982TIP3    H235888   7.388   4.376   5.279
11983TIP3   OH235889   5.986   4.011   5.640
11983TIP3    H135890   5.894   3.979   5.642
11983TIP3    H235891   6.035   3.926   5.637
11984TIP3   OH235892   5.773   3.880   5.287
11984TIP3    H135893   5.802   3.938   5.214
11984TIP3    H235894   5.743   3.945   5.353
11985TIP3   OH235895   6.429   4.044   5.520
11985TIP3    H135896   6.489   4.095   5.463
11985TIP3    H235897   6.447   4.081   5.607
11986TIP3   OH235898   6.982   4.190   5.503
11986TIP3    H135899   6.972   4.152   5.415
11986TIP3    H235900   6.966   4.111   5.560
11987TIP3   OH235901   7.007   4.112   5.066
11987TIP3    H135902   6.919   4.154   5.076
11987TIP3    H235903   6.992   4.028   5.114
11988TIP3   OH235904   5.490   5.452   5.072
11988TIP3    H135905   5.405   5.419   5.036
11988TIP3    H235906   5.479   5.546   5.052
11989TIP3   OH235907   5.888   4.040   5.052
11989TIP3    H135908   5.937   3.977   4.994
11989TIP3    H235909   5.961   4.094   5.088
11990TIP3   OH235910   6.402   4.215   5.150
11990TIP3    H135911   6.460   4.166   5.210
11990TIP3    H235912   6.426   4.307   5.176
11991TIP3   OH235913   6.266   5.643   4.652
11991TIP3    H135914   6.354   5.663   4.613
11991TIP3    H235915   6.239   5.570   4.592
11992TIP3   OH235916   6.977   5.758   4.743
11992TIP3    H135917   6.970   5.660   4.730
11992TIP3    H235918   6.934   5.790   4.661
11993TIP3   OH235919   6.194   4.297   6.534
11993TIP3    H135920   6.158   4.224   6.586
11993TIP3    H235921   6.288   4.293   6.561
11994TIP3   OH235922   6.445   4.291   6.651
11994TIP3    H135923   6.527   4.259   6.611
11994TIP3    H235924   6.429   4.222   6.719
11995TIP3   OH235925   5.562   5.475   4.706
11995TIP3    H135926   5.563   5.513   4.795
11995TIP3    H235927   5.653   5.437   4.698
11996TIP3   OH235928   7.268   4.350   6.439
11996TIP3    H135929   7.286   4.317   6.529
11996TIP3    H235930   7.356   4.343   6.397
11997TIP3   OH235931   7.206   5.902   5.933
11997TIP3    H135932   7.128   5.871   5.882
11997TIP3    H235933   7.187   5.998   5.932
11998TIP3   OH235934   8.468   5.272   4.703
11998TIP3    H135935   8.442   5.364   4.681
11998TIP3    H235936   8.396   5.224   4.660
11999TIP3   OH235937   8.469   5.277   5.075
11999TIP3    H135938   8.501   5.243   5.160
11999TIP3    H235939   8.432   5.198   5.033
12000TIP3   OH235940   7.772   5.173   5.445
12000TIP3    H135941   7.808   5.105   5.505
12000TIP3    H235942   7.851   5.226   5.428
12001TIP3   OH235943   8.720   5.571   4.759
12001TIP3    H135944   8.700   5.505   4.827
12001TIP3    H235945   8.738   5.650   4.811
12002TIP3   OH235946   7.742   5.578   5.172
12002TIP3    H135947   7.736   5.480   5.172
12002TIP3    H235948   7.838   5.590   5.159
12003TIP3   OH235949   7.452   4.783   4.954
12003TIP3    H135950   7.405   4.867   4.969
12003TIP3    H235951   7.380   4.729   4.917
12004TIP3   OH235952   7.510   5.072   5.123
12004TIP3    H135953   7.560   4.996   5.159
12004TIP3    H235954   7.567   5.103   5.052
12005TIP3   OH235955   8.364   6.041   4.777
12005TIP3    H135956   8.406   5.971   4.722
12005TIP3    H235957   8.360   5.997   4.862
12006TIP3   OH235958   8.270   5.498   5.129
12006TIP3    H135959   8.306   5.425   5.077
12006TIP3    H235960   8.355   5.542   5.151
12007TIP3   OH235961   8.681   5.007   5.159
12007TIP3    H135962   8.717   4.918   5.180
12007TIP3    H235963   8.651   4.992   5.068
12008TIP3   OH235964   8.017   4.658   5.125
12008TIP3    H135965   8.002   4.732   5.061
12008TIP3    H235966   7.953   4.593   5.093
12009TIP3   OH235967   8.702   4.754   4.742
12009TIP3    H135968   8.778   4.735   4.802
12009TIP3    H235969   8.750   4.792   4.666
12010TIP3   OH235970   7.655   4.865   5.229
12010TIP3    H135971   7.737   4.846   5.278
12010TIP3    H235972   7.667   4.806   5.152
12011TIP3   OH235973   8.096   5.061   5.026
12011TIP3    H135974   8.191   5.038   5.035
12011TIP3    H235975   8.059   4.977   4.991
12012TIP3   OH235976   8.017   4.645   5.557
12012TIP3    H135977   7.957   4.684   5.492
12012TIP3    H235978   7.967   4.661   5.640
12013TIP3   OH235979   8.357   5.489   4.572
12013TIP3    H135980   8.330   5.478   4.480
12013TIP3    H235981   8.321   5.577   4.593
12014TIP3   OH235982   8.126   5.420   5.355
12014TIP3    H135983   8.062   5.487   5.388
12014TIP3    H235984   8.166   5.467   5.279
12015TIP3   OH235985   8.917   4.759   4.901
12015TIP3    H135986   8.921   4.698   4.977
12015TIP3    H235987   8.952   4.839   4.939
12016TIP3   OH235988   7.889   4.762   5.343
12016TIP3    H135989   7.951   4.834   5.368
12016TIP3    H235990   7.940   4.722   5.269
12017TIP3   OH235991   7.952   5.611   5.456
12017TIP3    H135992   7.933   5.697   5.412
12017TIP3    H235993   7.869   5.600   5.506
12018TIP3   OH235994   7.346   5.303   4.687
12018TIP3    H135995   7.307   5.329   4.601
12018TIP3    H235996   7.377   5.388   4.723
12019TIP3   OH235997   8.789   5.818   4.926
12019TIP3    H135998   8.699   5.809   4.966
12019TIP3    H235999   8.778   5.904   4.880
12020TIP3   OH236000   8.370   4.360   5.266
12020TIP3    H136001   8.358   4.266   5.291
12020TIP3    H236002   8.295   4.401   5.314
12021TIP3   OH236003   8.488   5.867   4.604
12021TIP3    H136004   8.532   5.782   4.580
12021TIP3    H236005   8.553   5.929   4.564
12022TIP3   OH236006   8.622   5.649   4.511
12022TIP3    H136007   8.607   5.573   4.452
12022TIP3    H236008   8.664   5.608   4.589
12023TIP3   OH236009   9.001   5.734   5.270
12023TIP3    H136010   8.995   5.654   5.212
12023TIP3    H236011   8.984   5.807   5.206
12024TIP3   OH236012   8.305   5.128   4.528
12024TIP3    H136013   8.226   5.181   4.503
12024TIP3    H236014   8.351   5.120   4.442
12025TIP3   OH236015   8.264   4.903   4.254
12025TIP3    H136016   8.334   4.961   4.289
12025TIP3    H236017   8.318   4.843   4.200
12026TIP3   OH236018   8.644   5.212   4.498
12026TIP3    H136019   8.592   5.237   4.578
12026TIP3    H236020   8.727   5.179   4.540
12027TIP3   OH236021   8.873   5.252   5.413
12027TIP3    H136022   8.873   5.331   5.471
12027TIP3    H236023   8.786   5.263   5.368
12028TIP3   OH236024   7.880   5.206   4.920
12028TIP3    H136025   7.840   5.151   4.849
12028TIP3    H236026   7.960   5.155   4.944
12029TIP3   OH236027   8.009   5.611   5.069
12029TIP3    H136028   7.990   5.580   4.978
12029TIP3    H236029   8.101   5.580   5.081
12030TIP3   OH236030   8.021   5.178   5.272
12030TIP3    H136031   8.052   5.155   5.182
12030TIP3    H236032   8.064   5.264   5.288
12031TIP3   OH236033   8.545   5.816   5.044
12031TIP3    H136034   8.534   5.895   5.099
12031TIP3    H236035   8.533   5.743   5.108
12032TIP3   OH236036   8.147   5.732   5.606
12032TIP3    H136037   8.082   5.801   5.624
12032TIP3    H236038   8.092   5.673   5.548
12033TIP3   OH236039   8.488   5.067   4.326
12033TIP3    H136040   8.547   5.129   4.374
12033TIP3    H236041   8.513   5.088   4.232
12034TIP3   OH236042   7.913   5.291   5.695
12034TIP3    H136043   7.914   5.377   5.741
12034TIP3    H236044   7.817   5.270   5.700
12035TIP3   OH236045   8.229   5.754   4.612
12035TIP3    H136046   8.313   5.802   4.616
12035TIP3    H236047   8.175   5.810   4.555
12036TIP3   OH236048   7.747   5.048   4.726
12036TIP3    H136049   7.690   5.099   4.664
12036TIP3    H236050   7.699   4.965   4.728
12037TIP3   OH236051   8.805   5.685   3.919
12037TIP3    H136052   8.802   5.784   3.918
12037TIP3    H236053   8.894   5.670   3.887
12038TIP3   OH236054   7.530   5.432   5.628
12038TIP3    H136055   7.465   5.413   5.557
12038TIP3    H236056   7.566   5.343   5.649
12039TIP3   OH236057   7.386   5.624   5.269
12039TIP3    H136058   7.481   5.621   5.249
12039TIP3    H236059   7.378   5.709   5.314
12040TIP3   OH236060   8.359   5.861   5.456
12040TIP3    H136061   8.360   5.954   5.485
12040TIP3    H236062   8.279   5.827   5.501
12041TIP3   OH236063   8.110   5.990   4.407
12041TIP3    H136064   8.076   5.973   4.317
12041TIP3    H236065   8.086   6.083   4.422
12042TIP3   OH236066   7.552   5.843   4.786
12042TIP3    H136067   7.602   5.833   4.870
12042TIP3    H236068   7.493   5.766   4.791
12043TIP3   OH236069   8.312   5.893   4.041
12043TIP3    H136070   8.375   5.826   4.007
12043TIP3    H236071   8.348   5.909   4.132
12044TIP3   OH236072   8.357   5.914   4.313
12044TIP3    H136073   8.277   5.944   4.361
12044TIP3    H236074   8.421   5.903   4.384
12045TIP3   OH236075   9.096   5.210   5.623
12045TIP3    H136076   9.069   5.241   5.536
12045TIP3    H236077   9.170   5.152   5.602
12046TIP3   OH236078   7.734   5.613   5.628
12046TIP3    H136079   7.790   5.581   5.701
12046TIP3    H236080   7.661   5.548   5.625
12047TIP3   OH236081   8.135   4.441   5.398
12047TIP3    H136082   8.045   4.409   5.374
12047TIP3    H236083   8.111   4.523   5.445
12048TIP3   OH236084   8.652   4.566   5.583
12048TIP3    H136085   8.720   4.538   5.648
12048TIP3    H236086   8.569   4.543   5.631
12049TIP3   OH236087   8.922   4.972   5.513
12049TIP3    H136088   8.876   4.975   5.599
12049TIP3    H236089   8.909   5.063   5.481
12050TIP3   OH236090   8.565   5.119   4.080
12050TIP3    H136091   8.528   5.093   3.993
12050TIP3    H236092   8.652   5.155   4.053
12051TIP3   OH236093   8.277   4.492   4.375
12051TIP3    H136094   8.244   4.482   4.466
12051TIP3    H236095   8.249   4.408   4.335
12052TIP3   OH236096   8.067   4.956   5.421
12052TIP3    H136097   8.014   4.979   5.500
12052TIP3    H236098   8.053   5.037   5.365
12053TIP3   OH236099   7.952   4.841   4.937
12053TIP3    H136100   7.857   4.826   4.945
12053TIP3    H236101   7.968   4.809   4.845
12054TIP3   OH236102   8.439   4.926   4.659
12054TIP3    H136103   8.388   4.999   4.617
12054TIP3    H236104   8.496   4.897   4.585
12055TIP3   OH236105   8.620   5.204   5.750
12055TIP3    H136106   8.607   5.129   5.811
12055TIP3    H236107   8.715   5.222   5.760
12056TIP3   OH236108   8.594   4.957   4.899
12056TIP3    H136109   8.537   4.990   4.826
12056TIP3    H236110   8.625   4.875   4.856
12057TIP3   OH236111   7.889   4.986   5.629
12057TIP3    H136112   7.905   5.049   5.700
12057TIP3    H236113   7.877   4.902   5.678
12058TIP3   OH236114   7.929   4.457   4.341
12058TIP3    H136115   7.955   4.504   4.421
12058TIP3    H236116   7.859   4.515   4.305
12059TIP3   OH236117   7.478   4.509   5.208
12059TIP3    H136118   7.555   4.538   5.261
12059TIP3    H236119   7.517   4.472   5.128
12060TIP3   OH236120   7.480   4.498   4.729
12060TIP3    H136121   7.498   4.541   4.642
12060TIP3    H236122   7.407   4.557   4.757
12061TIP3   OH236123   8.598   5.202   5.324
12061TIP3    H136124   8.639   5.134   5.265
12061TIP3    H236125   8.576   5.146   5.401
12062TIP3   OH236126   8.277   4.665   4.997
12062TIP3    H136127   8.198   4.665   5.054
12062TIP3    H236128   8.349   4.664   5.062
12063TIP3   OH236129   7.707   4.712   5.003
12063TIP3    H136130   7.614   4.739   4.981
12063TIP3    H236131   7.706   4.620   4.974
12064TIP3   OH236132   7.981   4.724   4.695
12064TIP3    H136133   8.076   4.727   4.675
12064TIP3    H236134   7.939   4.734   4.607
12065TIP3   OH236135   8.747   4.744   5.188
12065TIP3    H136136   8.722   4.755   5.282
12065TIP3    H236137   8.684   4.677   5.158
12066TIP3   OH236138   7.825   4.733   4.466
12066TIP3    H136139   7.755   4.701   4.405
12066TIP3    H236140   7.879   4.784   4.401
12067TIP3   OH236141   7.905   5.540   5.841
12067TIP3    H136142   7.977   5.574   5.897
12067TIP3    H236143   7.834   5.531   5.909
12068TIP3   OH236144   8.360   4.987   5.090
12068TIP3    H136145   8.434   4.955   5.036
12068TIP3    H236146   8.378   4.946   5.177
12069TIP3   OH236147   7.885   4.433   4.910
12069TIP3    H136148   7.860   4.379   4.992
12069TIP3    H236149   7.984   4.442   4.926
12070TIP3   OH236150   8.338   4.882   5.386
12070TIP3    H136151   8.250   4.924   5.394
12070TIP3    H236152   8.397   4.945   5.432
12071TIP3   OH236153   8.073   5.281   4.477
12071TIP3    H136154   8.001   5.216   4.465
12071TIP3    H236155   8.056   5.313   4.568
12072TIP3   OH236156   8.980   5.515   5.111
12072TIP3    H136157   9.016   5.552   5.028
12072TIP3    H236158   8.897   5.473   5.081
12073TIP3   OH236159   8.538   4.592   4.352
12073TIP3    H136160   8.442   4.573   4.341
12073TIP3    H236161   8.540   4.690   4.353
12074TIP3   OH236162   8.461   5.599   5.461
12074TIP3    H136163   8.465   5.582   5.554
12074TIP3    H236164   8.441   5.694   5.456
12075TIP3   OH236165   8.603   4.848   4.446
12075TIP3    H136166   8.699   4.860   4.455
12075TIP3    H236167   8.577   4.922   4.387
12076TIP3   OH236168   7.765   5.299   5.155
12076TIP3    H136169   7.801   5.274   5.067
12076TIP3    H236170   7.809   5.234   5.212
12077TIP3   OH236171   8.221   5.429   4.297
12077TIP3    H136172   8.173   5.515   4.301
12077TIP3    H236173   8.167   5.375   4.358
12078TIP3   OH236174   7.647   5.220   5.764
12078TIP3    H136175   7.664   5.206   5.860
12078TIP3    H236176   7.577   5.155   5.747
12079TIP3   OH236177   8.388   5.336   5.774
12079TIP3    H136178   8.319   5.281   5.730
12079TIP3    H236179   8.468   5.283   5.749
12080TIP3   OH236180   8.623   5.829   5.340
12080TIP3    H136181   8.530   5.847   5.362
12080TIP3    H236182   8.668   5.888   5.404
12081TIP3   OH236183   9.254   5.760   5.360
12081TIP3    H136184   9.164   5.769   5.322
12081TIP3    H236185   9.310   5.750   5.282
12082TIP3   OH236186   8.735   5.751   4.183
12082TIP3    H136187   8.723   5.679   4.246
12082TIP3    H236188   8.759   5.705   4.101
12083TIP3   OH236189   8.736   5.383   5.031
12083TIP3    H136190   8.642   5.358   5.040
12083TIP3    H236191   8.770   5.303   4.986
12084TIP3   OH236192   7.868   5.606   4.783
12084TIP3    H136193   7.874   5.685   4.725
12084TIP3    H236194   7.773   5.589   4.780
12085TIP3   OH236195   7.435   4.907   4.481
12085TIP3    H136196   7.478   4.993   4.497
12085TIP3    H236197   7.356   4.914   4.539
12086TIP3   OH236198   8.005   5.369   4.724
12086TIP3    H136199   7.976   5.461   4.739
12086TIP3    H236200   7.967   5.324   4.800
12087TIP3   OH236201   8.141   5.955   5.246
12087TIP3    H136202   8.176   6.027   5.189
12087TIP3    H236203   8.223   5.917   5.280
12088TIP3   OH236204   7.789   5.843   4.632
12088TIP3    H136205   7.703   5.855   4.675
12088TIP3    H236206   7.822   5.936   4.631
12089TIP3   OH236207   8.526   5.576   5.196
12089TIP3    H136208   8.521   5.577   5.294
12089TIP3    H236209   8.609   5.529   5.179
12090TIP3   OH236210   8.498   5.474   4.087
12090TIP3    H136211   8.550   5.451   4.167
12090TIP3    H236212   8.410   5.449   4.117
12091TIP3   OH236213   8.770   6.108   5.242
12091TIP3    H136214   8.688   6.061   5.221
12091TIP3    H236215   8.763   6.184   5.180
12092TIP3   OH236216   8.816   5.960   3.914
12092TIP3    H136217   8.859   6.016   3.848
12092TIP3    H236218   8.747   6.022   3.942
12093TIP3   OH236219   7.858   4.728   5.774
12093TIP3    H136220   7.762   4.731   5.787
12093TIP3    H236221   7.886   4.666   5.843
12094TIP3   OH236222   8.650   5.420   4.313
12094TIP3    H136223   8.643   5.346   4.376
12094TIP3    H236224   8.745   5.413   4.289
12095TIP3   OH236225   7.574   5.822   5.424
12095TIP3    H136226   7.632   5.746   5.434
12095TIP3    H236227   7.616   5.886   5.483
12096TIP3   OH236228   7.863   5.458   4.088
12096TIP3    H136229   7.883   5.368   4.056
12096TIP3    H236230   7.846   5.442   4.182
12097TIP3   OH236231   7.811   5.460   4.364
12097TIP3    H136232   7.890   5.438   4.415
12097TIP3    H236233   7.814   5.559   4.364
12098TIP3   OH236234   7.549   5.156   4.563
12098TIP3    H136235   7.482   5.202   4.618
12098TIP3    H236236   7.564   5.223   4.494
12099TIP3   OH236237   8.693   4.802   5.454
12099TIP3    H136238   8.776   4.836   5.490
12099TIP3    H236239   8.676   4.721   5.507
12100TIP3   OH236240   8.566   4.543   4.622
12100TIP3    H136241   8.552   4.564   4.527
12100TIP3    H236242   8.604   4.627   4.655
12101TIP3   OH236243   8.075   5.656   4.311
12101TIP3    H136244   7.989   5.690   4.341
12101TIP3    H236245   8.102   5.727   4.250
12102TIP3   OH236246   8.262   4.722   4.722
12102TIP3    H136247   8.328   4.792   4.698
12102TIP3    H236248   8.274   4.717   4.819
12103TIP3   OH236249   8.532   5.038   5.533
12103TIP3    H136250   8.560   5.088   5.611
12103TIP3    H236251   8.592   4.961   5.536
12104TIP3   OH236252   8.408   4.450   4.826
12104TIP3    H136253   8.405   4.528   4.884
12104TIP3    H236254   8.468   4.484   4.755
12105TIP3   OH236255   7.817   5.734   4.374
12105TIP3    H136256   7.788   5.803   4.310
12105TIP3    H236257   7.804   5.779   4.459
12106TIP3   OH236258   8.807   5.143   4.920
12106TIP3    H136259   8.731   5.084   4.902
12106TIP3    H236260   8.868   5.087   4.968
12107TIP3   OH236261   7.537   5.365   4.369
12107TIP3    H136262   7.601   5.439   4.378
12107TIP3    H236263   7.584   5.313   4.301
12108TIP3   OH236264   7.475   4.637   4.502
12108TIP3    H136265   7.484   4.734   4.498
12108TIP3    H236266   7.400   4.624   4.443
12109TIP3   OH236267   8.793   6.083   4.847
12109TIP3    H136268   8.751   6.134   4.774
12109TIP3    H236269   8.887   6.102   4.830
12110TIP3   OH236270   7.870   4.360   5.375
12110TIP3    H136271   7.838   4.322   5.291
12110TIP3    H236272   7.863   4.283   5.436
12111TIP3   OH236273   7.411   5.577   4.760
12111TIP3    H136274   7.332   5.611   4.804
12111TIP3    H236275   7.397   5.614   4.670
12112TIP3   OH236276   8.083   6.083   5.876
12112TIP3    H136277   8.137   6.005   5.849
12112TIP3    H236278   8.009   6.078   5.815
12113TIP3   OH236279   8.029   5.662   4.001
12113TIP3    H136280   7.974   5.588   4.037
12113TIP3    H236281   8.106   5.612   3.968
12114TIP3   OH236282   8.701   5.983   5.544
12114TIP3    H136283   8.679   5.967   5.637
12114TIP3    H236284   8.778   6.042   5.553
12115TIP3   OH236285   8.463   5.700   3.909
12115TIP3    H136286   8.511   5.642   3.971
12115TIP3    H236287   8.523   5.704   3.832
12116TIP3   OH236288   7.696   5.526   6.015
12116TIP3    H136289   7.709   5.432   6.036
12116TIP3    H236290   7.605   5.527   5.980
12117TIP3   OH236291   7.672   5.178   4.221
12117TIP3    H136292   7.731   5.147   4.292
12117TIP3    H236293   7.736   5.183   4.147
12118TIP3   OH236294   8.302   5.592   5.781
12118TIP3    H136295   8.248   5.645   5.717
12118TIP3    H236296   8.269   5.502   5.762
12119TIP3   OH236297   8.176   5.376   4.028
12119TIP3    H136298   8.186   5.388   4.125
12119TIP3    H236299   8.184   5.278   4.021
12120TIP3   OH236300   8.790   5.617   5.407
12120TIP3    H136301   8.871   5.651   5.366
12120TIP3    H236302   8.726   5.684   5.377
12121TIP3   OH236303   7.816   5.261   6.008
12121TIP3    H136304   7.886   5.197   5.990
12121TIP3    H236305   7.842   5.294   6.097
12122TIP3   OH236306   7.880   5.080   4.443
12122TIP3    H136307   7.860   5.033   4.526
12122TIP3    H236308   7.921   5.009   4.388
12123TIP3   OH236309   8.157   5.158   5.679
12123TIP3    H136310   8.072   5.206   5.674
12123TIP3    H236311   8.201   5.185   5.595
12124TIP3   OH236312   7.980   4.871   4.289
12124TIP3    H136313   7.956   4.875   4.194
12124TIP3    H236314   8.078   4.874   4.281
12125TIP3   OH236315   8.683   5.508   5.801
12125TIP3    H136316   8.761   5.521   5.742
12125TIP3    H236317   8.727   5.462   5.875
12126TIP3   OH236318   8.788   5.216   3.965
12126TIP3    H136319   8.789   5.147   3.897
12126TIP3    H236320   8.738   5.288   3.921
12127TIP3   OH236321   8.271   4.931   5.799
12127TIP3    H136322   8.274   4.851   5.743
12127TIP3    H236323   8.232   4.997   5.738
12128TIP3   OH236324   8.275   4.719   5.607
12128TIP3    H136325   8.304   4.760   5.524
12128TIP3    H236326   8.182   4.697   5.586
12129TIP3   OH236327   8.312   5.264   5.479
12129TIP3    H136328   8.392   5.264   5.424
12129TIP3    H236329   8.254   5.327   5.431
12130TIP3   OH236330   8.896   5.225   5.868
12130TIP3    H136331   8.935   5.136   5.860
12130TIP3    H236332   8.956   5.274   5.809
12131TIP3   OH236333   8.890   5.472   5.610
12131TIP3    H136334   8.846   5.526   5.541
12131TIP3    H236335   8.984   5.488   5.584
12132TIP3   OH236336   8.150   5.049   6.025
12132TIP3    H136337   8.082   4.980   6.041
12132TIP3    H236338   8.185   5.020   5.938
12133TIP3   OH236339   8.405   4.483   5.672
12133TIP3    H136340   8.354   4.564   5.650
12133TIP3    H236341   8.336   4.413   5.660
12134TIP3   OH236342   8.531   4.991   5.891
12134TIP3    H136343   8.522   4.972   5.986
12134TIP3    H236344   8.442   4.964   5.861
12135TIP3   OH236345   8.766   4.941   5.736
12135TIP3    H136346   8.694   4.935   5.801
12135TIP3    H236347   8.844   4.919   5.793
12136TIP3   OH236348   8.979   4.898   5.893
12136TIP3    H136349   9.006   4.806   5.912
12136TIP3    H236350   9.001   4.942   5.978
12137TIP3   OH236351   7.993   4.828   6.079
12137TIP3    H136352   7.997   4.737   6.043
12137TIP3    H236353   8.029   4.813   6.169
12138TIP3   OH236354   8.504   4.494   5.927
12138TIP3    H136355   8.566   4.419   5.925
12138TIP3    H236356   8.464   4.487   5.838
12139TIP3   OH236357   8.569   4.707   6.088
12139TIP3    H136358   8.548   4.637   6.023
12139TIP3    H236359   8.491   4.766   6.080
12140TIP3   OH236360   7.788   5.936   4.188
12140TIP3    H136361   7.884   5.931   4.171
12140TIP3    H236362   7.760   5.984   4.108
12141TIP3   OH236363   7.270   5.316   4.409
12141TIP3    H136364   7.364   5.340   4.391
12141TIP3    H236365   7.264   5.229   4.365
12142TIP3   OH236366   7.180   5.931   4.818
12142TIP3    H136367   7.115   5.868   4.780
12142TIP3    H236368   7.226   5.874   4.883
12143TIP3   OH236369   7.318   5.786   5.004
12143TIP3    H136370   7.309   5.709   5.062
12143TIP3    H236371   7.373   5.845   5.059
12144TIP3   OH236372   9.048   6.178   4.812
12144TIP3    H136373   9.057   6.261   4.861
12144TIP3    H236374   9.082   6.200   4.724
12145TIP3   OH236375   8.922   5.418   4.290
12145TIP3    H136376   8.970   5.500   4.310
12145TIP3    H236377   8.961   5.354   4.350
12146TIP3   OH236378   9.122   5.646   4.901
12146TIP3    H136379   9.145   5.591   4.825
12146TIP3    H236380   9.063   5.711   4.862
12147TIP3   OH236381   8.961   5.951   5.110
12147TIP3    H136382   8.897   6.009   5.156
12147TIP3    H236383   8.906   5.911   5.040
12148TIP3   OH236384   8.867   5.104   4.619
12148TIP3    H136385   8.886   5.010   4.628
12148TIP3    H236386   8.905   5.141   4.701
12149TIP3   OH236387   7.507   5.187   5.377
12149TIP3    H136388   7.505   5.161   5.283
12149TIP3    H236389   7.604   5.190   5.393
12150TIP3   OH236390   9.120   5.532   5.469
12150TIP3    H136391   9.170   5.462   5.425
12150TIP3    H236392   9.158   5.611   5.426
12151TIP3   OH236393   8.877   4.824   4.529
12151TIP3    H136394   8.909   4.732   4.543
12151TIP3    H236395   8.930   4.849   4.452
12152TIP3   OH236396   9.087   5.133   5.288
12152TIP3    H136397   8.997   5.162   5.312
12152TIP3    H236398   9.137   5.214   5.300
12153TIP3   OH236399   7.727   4.880   6.056
12153TIP3    H136400   7.824   4.869   6.053
12153TIP3    H236401   7.701   4.793   6.092
12154TIP3   OH236402   7.687   4.568   5.376
12154TIP3    H136403   7.748   4.494   5.392
12154TIP3    H236404   7.749   4.643   5.376
12155TIP3   OH236405   7.491   4.842   5.456
12155TIP3    H136406   7.538   4.837   5.371
12155TIP3    H236407   7.516   4.931   5.486
12156TIP3   OH236408   7.469   4.354   4.962
12156TIP3    H136409   7.375   4.343   4.988
12156TIP3    H236410   7.462   4.406   4.879
12157TIP3   OH236411   8.637   6.046   4.467
12157TIP3    H136412   8.670   6.025   4.377
12157TIP3    H236413   8.689   6.125   4.485
12158TIP3   OH236414   7.693   4.430   5.771
12158TIP3    H136415   7.641   4.419   5.853
12158TIP3    H236416   7.625   4.465   5.711
12159TIP3   OH236417   7.918   5.870   5.381
12159TIP3    H136418   7.862   5.949   5.370
12159TIP3    H236419   7.998   5.902   5.334
12160TIP3   OH236420   8.374   6.123   5.549
12160TIP3    H136421   8.442   6.124   5.617
12160TIP3    H236422   8.421   6.172   5.478
12161TIP3   OH236423   8.534   6.265   5.387
12161TIP3    H136424   8.598   6.216   5.332
12161TIP3    H236425   8.594   6.318   5.443
12162TIP3   OH236426   7.590   6.147   5.408
12162TIP3    H136427   7.500   6.185   5.404
12162TIP3    H236428   7.604   6.135   5.503
12163TIP3   OH236429   7.830   6.123   5.276
12163TIP3    H136430   7.743   6.137   5.320
12163TIP3    H236431   7.809   6.155   5.186
12164TIP3   OH236432   8.246   6.151   5.076
12164TIP3    H136433   8.180   6.168   5.005
12164TIP3    H236434   8.259   6.241   5.111
12165TIP3   OH236435   8.514   6.087   5.130
12165TIP3    H136436   8.422   6.108   5.102
12165TIP3    H236437   8.564   6.157   5.083
12166TIP3   OH236438   8.707   6.274   5.037
12166TIP3    H136439   8.700   6.363   4.996
12166TIP3    H236440   8.736   6.219   4.962
12167TIP3   OH236441   7.495   5.933   5.166
12167TIP3    H136442   7.528   5.917   5.257
12167TIP3    H236443   7.569   5.892   5.115
12168TIP3   OH236444   7.689   5.808   5.021
12168TIP3    H136445   7.709   5.724   5.067
12168TIP3    H236446   7.778   5.847   5.011
12169TIP3   OH236447   7.953   5.904   5.020
12169TIP3    H136448   7.990   5.817   5.002
12169TIP3    H236449   7.994   5.924   5.107
12170TIP3   OH236450   8.530   4.560   5.110
12170TIP3    H136451   8.488   4.487   5.158
12170TIP3    H236452   8.605   4.516   5.065
12171TIP3   OH236453   7.785   4.273   5.118
12171TIP3    H136454   7.693   4.240   5.127
12171TIP3    H236455   7.834   4.187   5.122
12172TIP3   OH236456   7.606   4.187   4.771
12172TIP3    H136457   7.545   4.154   4.704
12172TIP3    H236458   7.546   4.206   4.846
12173TIP3   OH236459   8.212   4.316   5.009
12173TIP3    H136460   8.274   4.353   4.945
12173TIP3    H236461   8.254   4.340   5.093
12174TIP3   OH236462   8.752   4.441   4.998
12174TIP3    H136463   8.780   4.424   4.908
12174TIP3    H236464   8.753   4.350   5.036
12175TIP3   OH236465   8.791   4.375   4.549
12175TIP3    H136466   8.707   4.424   4.553
12175TIP3    H236467   8.770   4.299   4.605
12176TIP3   OH236468   7.284   5.708   4.560
12176TIP3    H136469   7.200   5.675   4.523
12176TIP3    H236470   7.275   5.802   4.536
12177TIP3   OH236471   8.191   4.473   4.641
12177TIP3    H136472   8.257   4.425   4.693
12177TIP3    H236473   8.216   4.565   4.663
12178TIP3   OH236474   8.057   5.899   4.140
12178TIP3    H136475   8.147   5.920   4.106
12178TIP3    H236476   8.037   5.825   4.079
12179TIP3   OH236477   8.761   6.025   4.226
12179TIP3    H136478   8.753   5.931   4.196
12179TIP3    H236479   8.714   6.074   4.155
12180TIP3   OH236480   7.990   4.553   6.020
12180TIP3    H136481   7.955   4.480   6.074
12180TIP3    H236482   8.084   4.550   6.047
12181TIP3   OH236483   8.240   4.547   6.138
12181TIP3    H136484   8.324   4.519   6.098
12181TIP3    H236485   8.227   4.478   6.206
12182TIP3   OH236486   7.362   5.731   4.194
12182TIP3    H136487   7.365   5.765   4.284
12182TIP3    H236488   7.451   5.692   4.181
12183TIP3   OH236489   9.053   4.641   5.948
12183TIP3    H136490   9.073   4.601   6.034
12183TIP3    H236491   9.102   4.581   5.889
12184TIP3   OH236492   8.959   6.187   4.324
12184TIP3    H136493   8.895   6.135   4.271
12184TIP3    H236494   9.033   6.127   4.329
12185TIP3   OH236495   0.925   6.065   6.394
12185TIP3    H136496   0.884   6.151   6.372
12185TIP3    H236497   0.860   6.005   6.353
12186TIP3   OH236498   0.927   6.055   6.769
12186TIP3    H136499   0.957   6.019   6.854
12186TIP3    H236500   0.886   5.974   6.731
12187TIP3   OH236501   1.141   6.370   6.474
12187TIP3    H136502   1.175   6.287   6.511
12187TIP3    H236503   1.205   6.436   6.505
12188TIP3   OH236504   0.813   6.818   6.462
12188TIP3    H136505   0.860   6.755   6.403
12188TIP3    H236506   0.862   6.809   6.544
12189TIP3   OH236507   0.783   6.297   6.769
12189TIP3    H136508   0.778   6.203   6.742
12189TIP3    H236509   0.770   6.288   6.864
12190TIP3   OH236510   1.736   5.611   6.811
12190TIP3    H136511   1.766   5.694   6.853
12190TIP3    H236512   1.759   5.628   6.718
12191TIP3   OH236513   1.143   5.796   6.849
12191TIP3    H136514   1.174   5.708   6.875
12191TIP3    H236515   1.104   5.777   6.761
12192TIP3   OH236516   1.167   5.541   6.435
12192TIP3    H136517   1.238   5.524   6.502
12192TIP3    H236518   1.220   5.575   6.362
12193TIP3   OH236519   1.812   5.819   6.981
12193TIP3    H136520   1.728   5.864   6.959
12193TIP3    H236521   1.812   5.830   7.077
12194TIP3   OH236522   0.804   6.281   6.268
12194TIP3    H136523   0.784   6.252   6.176
12194TIP3    H236524   0.865   6.354   6.255
12195TIP3   OH236525   1.377   5.543   6.606
12195TIP3    H136526   1.377   5.485   6.683
12195TIP3    H236527   1.433   5.617   6.635
12196TIP3   OH236528   1.232   6.611   6.621
12196TIP3    H136529   1.139   6.613   6.649
12196TIP3    H236530   1.238   6.694   6.569
12197TIP3   OH236531   1.531   5.513   6.984
12197TIP3    H136532   1.441   5.541   6.958
12197TIP3    H236533   1.585   5.542   6.908
12198TIP3   OH236534   0.834   5.163   6.954
12198TIP3    H136535   0.835   5.066   6.977
12198TIP3    H236536   0.752   5.188   7.000
12199TIP3   OH236537   0.950   6.651   6.303
12199TIP3    H136538   0.990   6.567   6.269
12199TIP3    H236539   1.005   6.716   6.254
12200TIP3   OH236540   1.051   6.418   6.201
12200TIP3    H136541   1.082   6.355   6.133
12200TIP3    H236542   1.100   6.388   6.280
12201TIP3   OH236543   1.462   6.520   6.963
12201TIP3    H136544   1.456   6.443   6.903
12201TIP3    H236545   1.451   6.595   6.901
12202TIP3   OH236546   0.770   5.920   6.221
12202TIP3    H136547   0.684   5.964   6.203
12202TIP3    H236548   0.807   5.911   6.131
12203TIP3   OH236549   0.724   5.694   5.931
12203TIP3    H136550   0.786   5.749   5.981
12203TIP3    H236551   0.786   5.634   5.886
12204TIP3   OH236552   1.660   6.159   6.805
12204TIP3    H136553   1.577   6.210   6.811
12204TIP3    H236554   1.689   6.181   6.714
12205TIP3   OH236555   1.103   5.995   6.192
12205TIP3    H136556   1.050   6.017   6.271
12205TIP3    H236557   1.187   5.967   6.233
12206TIP3   OH236558   1.340   6.046   7.091
12206TIP3    H136559   1.334   6.123   7.150
12206TIP3    H236560   1.250   6.045   7.051
12207TIP3   OH236561   0.984   6.594   6.758
12207TIP3    H136562   0.962   6.689   6.754
12207TIP3    H236563   1.024   6.592   6.847
12208TIP3   OH236564   0.945   5.855   6.012
12208TIP3    H136565   1.005   5.914   6.064
12208TIP3    H236566   0.975   5.874   5.920
12209TIP3   OH236567   1.460   5.097   6.063
12209TIP3    H136568   1.378   5.116   6.113
12209TIP3    H236569   1.473   5.180   6.013
12210TIP3   OH236570   1.262   6.466   5.617
12210TIP3    H136571   1.265   6.561   5.591
12210TIP3    H236572   1.354   6.438   5.600
12211TIP3   OH236573   1.704   6.864   7.005
12211TIP3    H136574   1.702   6.768   7.018
12211TIP3    H236575   1.622   6.890   7.053
12212TIP3   OH236576   0.810   6.770   6.037
12212TIP3    H136577   0.725   6.740   6.072
12212TIP3    H236578   0.870   6.698   6.061
12213TIP3   OH236579   1.591   5.998   7.278
12213TIP3    H136580   1.507   6.005   7.229
12213TIP3    H236581   1.606   5.902   7.274
12214TIP3   OH236582   1.380   5.792   7.219
12214TIP3    H136583   1.313   5.759   7.282
12214TIP3    H236584   1.329   5.858   7.169
12215TIP3   OH236585   1.023   5.892   5.759
12215TIP3    H136586   0.987   5.872   5.670
12215TIP3    H236587   1.083   5.966   5.737
12216TIP3   OH236588   0.728   5.282   6.051
12216TIP3    H136589   0.704   5.280   6.147
12216TIP3    H236590   0.689   5.197   6.025
12217TIP3   OH236591   0.901   5.717   6.353
12217TIP3    H136592   0.847   5.786   6.309
12217TIP3    H236593   0.952   5.680   6.278
12218TIP3   OH236594   1.099   5.991   7.443
12218TIP3    H136595   1.076   5.911   7.496
12218TIP3    H236596   1.196   5.993   7.458
12219TIP3   OH236597   1.057   5.749   6.586
12219TIP3    H136598   0.992   5.770   6.515
12219TIP3    H236599   1.089   5.664   6.549
12220TIP3   OH236600   1.061   5.992   7.014
12220TIP3    H136601   1.095   5.923   6.952
12220TIP3    H236602   1.044   5.934   7.092
12221TIP3   OH236603   0.739   5.473   6.682
12221TIP3    H136604   0.652   5.430   6.691
12221TIP3    H236605   0.788   5.445   6.760
12222TIP3   OH236606   1.213   5.529   6.906
12222TIP3    H136607   1.181   5.515   6.997
12222TIP3    H236608   1.154   5.470   6.856
12223TIP3   OH236609   1.401   7.217   7.098
12223TIP3    H136610   1.396   7.237   7.003
12223TIP3    H236611   1.472   7.279   7.127
12224TIP3   OH236612   0.832   5.790   6.792
12224TIP3    H136613   0.872   5.728   6.730
12224TIP3    H236614   0.835   5.739   6.876
12225TIP3   OH236615   0.819   5.702   7.054
12225TIP3    H136616   0.753   5.763   7.091
12225TIP3    H236617   0.891   5.708   7.119
12226TIP3   OH236618   1.428   6.306   6.796
12226TIP3    H136619   1.454   6.354   6.714
12226TIP3    H236620   1.345   6.261   6.768
12227TIP3   OH236621   0.983   5.381   6.027
12227TIP3    H136622   0.886   5.364   6.034
12227TIP3    H236623   0.992   5.475   6.053
12228TIP3   OH236624   0.913   6.385   7.153
12228TIP3    H136625   0.954   6.354   7.235
12228TIP3    H236626   0.864   6.463   7.184
12229TIP3   OH236627   1.055   5.627   6.132
12229TIP3    H136628   1.152   5.632   6.147
12229TIP3    H236629   1.038   5.706   6.077
12230TIP3   OH236630   0.668   6.238   6.031
12230TIP3    H136631   0.617   6.279   5.961
12230TIP3    H236632   0.614   6.159   6.052
12231TIP3   OH236633   0.856   6.093   7.427
12231TIP3    H136634   0.838   6.064   7.335
12231TIP3    H236635   0.949   6.063   7.437
12232TIP3   OH236636   1.082   6.642   7.038
12232TIP3    H136637   0.990   6.668   7.051
12232TIP3    H236638   1.123   6.682   7.119
12233TIP3   OH236639   1.498   5.717   5.968
12233TIP3    H136640   1.436   5.672   5.906
12233TIP3    H236641   1.495   5.806   5.927
12234TIP3   OH236642   1.715   6.574   7.049
12234TIP3    H136643   1.617   6.569   7.042
12234TIP3    H236644   1.740   6.543   6.959
12235TIP3   OH236645   1.209   6.531   5.880
12235TIP3    H136646   1.166   6.456   5.922
12235TIP3    H236647   1.212   6.502   5.787
12236TIP3   OH236648   1.188   6.167   6.713
12236TIP3    H136649   1.099   6.130   6.730
12236TIP3    H236650   1.229   6.089   6.670
12237TIP3   OH236651   1.025   6.352   6.901
12237TIP3    H136652   0.996   6.367   6.994
12237TIP3    H236653   1.103   6.296   6.915
12238TIP3   OH236654   0.947   6.205   5.782
12238TIP3    H136655   0.988   6.228   5.868
12238TIP3    H236656   0.884   6.276   5.766
12239TIP3   OH236657   1.244   6.892   6.928
12239TIP3    H136658   1.164   6.838   6.914
12239TIP3    H236659   1.230   6.964   6.862
12240TIP3   OH236660   1.295   6.739   5.594
12240TIP3    H136661   1.323   6.812   5.535
12240TIP3    H236662   1.214   6.780   5.630
12241TIP3   OH236663   1.116   6.219   6.022
12241TIP3    H136664   1.104   6.138   6.075
12241TIP3    H236665   1.206   6.204   5.987
12242TIP3   OH236666   1.031   5.330   6.308
12242TIP3    H136667   1.013   5.353   6.216
12242TIP3    H236668   1.065   5.414   6.345
12243TIP3   OH236669   0.719   5.513   6.414
12243TIP3    H136670   0.784   5.584   6.398
12243TIP3    H236671   0.719   5.507   6.512
12244TIP3   OH236672   1.012   5.836   7.224
12244TIP3    H136673   1.031   5.872   7.312
12244TIP3    H236674   1.037   5.741   7.239
12245TIP3   OH236675   0.866   5.243   6.520
12245TIP3    H136676   0.864   5.324   6.574
12245TIP3    H236677   0.920   5.274   6.444
12246TIP3   OH236678   1.638   5.726   7.196
12246TIP3    H136679   1.541   5.735   7.213
12246TIP3    H236680   1.634   5.677   7.113
12247TIP3   OH236681   1.278   5.930   6.591
12247TIP3    H136682   1.203   5.868   6.599
12247TIP3    H236683   1.350   5.880   6.637
12248TIP3   OH236684   1.250   6.871   6.537
12248TIP3    H136685   1.206   6.923   6.465
12248TIP3    H236686   1.344   6.895   6.515
12249TIP3   OH236687   1.156   6.756   7.278
12249TIP3    H136688   1.132   6.707   7.360
12249TIP3    H236689   1.210   6.828   7.314
12250TIP3   OH236690   0.586   6.137   5.719
12250TIP3    H136691   0.648   6.177   5.779
12250TIP3    H236692   0.616   6.044   5.717
12251TIP3   OH236693   1.245   6.404   7.093
12251TIP3    H136694   1.325   6.444   7.052
12251TIP3    H236695   1.182   6.477   7.084
12252TIP3   OH236696   0.466   5.587   5.931
12252TIP3    H136697   0.438   5.593   5.838
12252TIP3    H236698   0.559   5.615   5.928
12253TIP3   OH236699   1.115   6.332   7.497
12253TIP3    H136700   1.195   6.313   7.447
12253TIP3    H236701   1.118   6.262   7.565
12254TIP3   OH236702   1.264   5.997   5.632
12254TIP3    H136703   1.236   5.951   5.551
12254TIP3    H236704   1.228   6.086   5.613
12255TIP3   OH236705   0.707   5.453   7.226
12255TIP3    H136706   0.786   5.509   7.224
12255TIP3    H236707   0.662   5.484   7.305
12256TIP3   OH236708   0.777   6.082   7.160
12256TIP3    H136709   0.860   6.043   7.128
12256TIP3    H236710   0.785   6.174   7.130
12257TIP3   OH236711   1.351   6.013   7.553
12257TIP3    H136712   1.379   5.919   7.551
12257TIP3    H236713   1.426   6.057   7.511
12258TIP3   OH236714   1.379   6.265   7.283
12258TIP3    H136715   1.322   6.317   7.222
12258TIP3    H236716   1.467   6.283   7.244
12259TIP3   OH236717   0.860   5.256   7.377
12259TIP3    H136718   0.861   5.333   7.317
12259TIP3    H236719   0.793   5.199   7.337
12260TIP3   OH236720   0.959   5.793   7.582
12260TIP3    H136721   1.008   5.782   7.665
12260TIP3    H236722   0.951   5.702   7.552
12261TIP3   OH236723   1.237   5.741   7.454
12261TIP3    H136724   1.180   5.668   7.422
12261TIP3    H236725   1.316   5.694   7.485
12262TIP3   OH236726   1.482   5.668   7.581
12262TIP3    H136727   1.480   5.572   7.600
12262TIP3    H236728   1.460   5.708   7.668
12263TIP3   OH236729   0.972   5.287   7.620
12263TIP3    H136730   1.034   5.211   7.611
12263TIP3    H236731   0.928   5.281   7.532
12264TIP3   OH236732   1.005   5.516   7.759
12264TIP3    H136733   1.004   5.432   7.706
12264TIP3    H236734   0.911   5.541   7.756
12265TIP3   OH236735   1.500   6.967   6.495
12265TIP3    H136736   1.527   7.007   6.580
12265TIP3    H236737   1.554   7.016   6.432
12266TIP3   OH236738   1.529   6.990   6.777
12266TIP3    H136739   1.493   6.899   6.766
12266TIP3    H236740   1.606   6.970   6.831
12267TIP3   OH236741   1.574   6.664   7.348
12267TIP3    H136742   1.498   6.680   7.407
12267TIP3    H236743   1.614   6.753   7.342
12268TIP3   OH236744   1.388   6.181   5.971
12268TIP3    H136745   1.455   6.244   5.938
12268TIP3    H236746   1.435   6.141   6.048
12269TIP3   OH236747   1.519   6.050   6.175
12269TIP3    H136748   1.453   6.005   6.233
12269TIP3    H236749   1.584   6.085   6.239
12270TIP3   OH236750   1.564   6.435   6.598
12270TIP3    H136751   1.624   6.373   6.553
12270TIP3    H236752   1.571   6.515   6.541
12271TIP3   OH236753   1.417   6.732   6.795
12271TIP3    H136754   1.351   6.785   6.845
12271TIP3    H236755   1.361   6.690   6.727
12272TIP3   OH236756   1.457   5.956   5.820
12272TIP3    H136757   1.388   5.957   5.750
12272TIP3    H236758   1.426   6.032   5.873
12273TIP3   OH236759   1.330   5.629   5.776
12273TIP3    H136760   1.286   5.671   5.700
12273TIP3    H236761   1.302   5.536   5.765
12274TIP3   OH236762   1.333   5.904   6.322
12274TIP3    H136763   1.340   5.807   6.311
12274TIP3    H236764   1.320   5.913   6.419
12275TIP3   OH236765   1.623   6.330   7.176
12275TIP3    H136766   1.694   6.263   7.169
12275TIP3    H236767   1.652   6.398   7.114
12276TIP3   OH236768   1.808   6.137   7.198
12276TIP3    H136769   1.733   6.085   7.233
12276TIP3    H236770   1.881   6.071   7.211
12277TIP3   OH236771   1.271   5.364   5.763
12277TIP3    H136772   1.347   5.332   5.816
12277TIP3    H236773   1.199   5.302   5.786
12278TIP3   OH236774   1.331   5.621   6.216
12278TIP3    H136775   1.369   5.532   6.232
12278TIP3    H236776   1.389   5.651   6.143
12279TIP3   OH236777   1.491   5.798   6.708
12279TIP3    H136778   1.578   5.823   6.669
12279TIP3    H236779   1.505   5.831   6.799
12280TIP3   OH236780   1.561   5.937   6.942
12280TIP3    H136781   1.483   5.970   6.991
12280TIP3    H236782   1.593   6.018   6.898
12281TIP3   OH236783   2.017   5.532   7.499
12281TIP3    H136784   2.072   5.464   7.455
12281TIP3    H236785   1.984   5.584   7.423
12282TIP3   OH236786   1.437   5.371   6.253
12282TIP3    H136787   1.486   5.354   6.336
12282TIP3    H236788   1.376   5.294   6.251
12283TIP3   OH236789   1.884   5.669   7.306
12283TIP3    H136790   1.797   5.710   7.322
12283TIP3    H236791   1.857   5.598   7.245
12284TIP3   OH236792   1.521   5.306   5.885
12284TIP3    H136793   1.559   5.233   5.832
12284TIP3    H236794   1.589   5.376   5.876
12285TIP3   OH236795   1.097   6.824   6.160
12285TIP3    H136796   1.135   6.814   6.070
12285TIP3    H236797   1.138   6.906   6.188
12286TIP3   OH236798   1.030   7.003   7.055
12286TIP3    H136799   1.117   6.967   7.031
12286TIP3    H236800   1.060   7.070   7.121
12287TIP3   OH236801   1.781   5.433   7.181
12287TIP3    H136802   1.690   5.428   7.148
12287TIP3    H236803   1.809   5.339   7.170
12288TIP3   OH236804   0.983   6.883   6.741
12288TIP3    H136805   0.894   6.918   6.751
12288TIP3    H236806   1.036   6.965   6.746
12289TIP3   OH236807   1.193   7.073   6.730
12289TIP3    H136808   1.174   7.157   6.682
12289TIP3    H236809   1.213   7.013   6.655
12290TIP3   OH236810   0.985   5.348   6.799
12290TIP3    H136811   0.940   5.280   6.854
12290TIP3    H236812   1.053   5.296   6.753
12291TIP3   OH236813   1.512   5.229   6.708
12291TIP3    H136814   1.547   5.279   6.631
12291TIP3    H236815   1.416   5.240   6.699
12292TIP3   OH236816   1.604   5.329   6.470
12292TIP3    H136817   1.677   5.277   6.429
12292TIP3    H236818   1.637   5.421   6.454
12293TIP3   OH236819   0.692   5.077   6.699
12293TIP3    H136820   0.738   5.134   6.637
12293TIP3    H236821   0.711   5.119   6.784
12294TIP3   OH236822   1.233   5.235   6.680
12294TIP3    H136823   1.219   5.199   6.592
12294TIP3    H236824   1.214   5.157   6.737
12295TIP3   OH236825   1.254   5.156   6.243
12295TIP3    H136826   1.167   5.199   6.254
12295TIP3    H236827   1.240   5.072   6.290
12296TIP3   OH236828   0.668   5.263   6.314
12296TIP3    H136829   0.706   5.218   6.391
12296TIP3    H236830   0.672   5.356   6.345
12297TIP3   OH236831   1.227   6.801   5.921
12297TIP3    H136832   1.224   6.704   5.906
12297TIP3    H236833   1.184   6.834   5.839
12298TIP3   OH236834   1.516   5.399   7.613
12298TIP3    H136835   1.530   5.363   7.703
12298TIP3    H236836   1.604   5.388   7.572
12299TIP3   OH236837   1.460   6.947   7.109
12299TIP3    H136838   1.385   6.913   7.056
12299TIP3    H236839   1.441   7.043   7.107
12300TIP3   OH236840   2.721   6.320   5.875
12300TIP3    H136841   2.692   6.411   5.854
12300TIP3    H236842   2.646   6.270   5.840
12301TIP3   OH236843   2.720   6.321   6.253
12301TIP3    H136844   2.750   6.286   6.338
12301TIP3    H236845   2.680   6.242   6.212
12302TIP3   OH236846   2.019   6.217   6.621
12302TIP3    H136847   2.051   6.148   6.681
12302TIP3    H236848   2.100   6.270   6.608
12303TIP3   OH236849   2.963   6.622   5.934
12303TIP3    H136850   2.949   6.550   5.996
12303TIP3    H236851   2.992   6.694   5.991
12304TIP3   OH236852   1.990   6.624   6.347
12304TIP3    H136853   1.983   6.526   6.349
12304TIP3    H236854   2.087   6.634   6.339
12305TIP3   OH236855   1.698   5.829   6.132
12305TIP3    H136856   1.648   5.912   6.142
12305TIP3    H236857   1.629   5.772   6.093
12306TIP3   OH236858   1.758   6.116   6.302
12306TIP3    H136859   1.806   6.038   6.337
12306TIP3    H236860   1.812   6.140   6.225
12307TIP3   OH236861   2.613   7.086   5.952
12307TIP3    H136862   2.659   7.015   5.902
12307TIP3    H236863   2.605   7.046   6.039
12308TIP3   OH236864   2.519   6.546   6.303
12308TIP3    H136865   2.555   6.469   6.255
12308TIP3    H236866   2.604   6.589   6.325
12309TIP3   OH236867   3.530   5.866   6.299
12309TIP3    H136868   3.562   5.950   6.340
12309TIP3    H236869   3.554   5.881   6.206
12310TIP3   OH236870   2.931   6.048   6.336
12310TIP3    H136871   2.974   5.963   6.355
12310TIP3    H236872   2.901   6.033   6.245
12311TIP3   OH236873   2.268   5.706   6.301
12311TIP3    H136874   2.248   5.778   6.238
12311TIP3    H236875   2.222   5.632   6.256
12312TIP3   OH236876   2.962   5.799   5.923
12312TIP3    H136877   3.034   5.781   5.988
12312TIP3    H236878   3.015   5.832   5.848
12313TIP3   OH236879   1.903   5.909   6.406
12313TIP3    H136880   1.986   5.888   6.453
12313TIP3    H236881   1.915   5.852   6.327
12314TIP3   OH236882   2.344   6.106   6.201
12314TIP3    H136883   2.438   6.080   6.212
12314TIP3    H236884   2.305   6.022   6.167
12315TIP3   OH236885   3.608   6.074   6.469
12315TIP3    H136886   3.524   6.121   6.447
12315TIP3    H236887   3.609   6.085   6.565
12316TIP3   OH236888   2.266   5.691   6.735
12316TIP3    H136889   2.205   5.726   6.667
12316TIP3    H236890   2.215   5.708   6.816
12317TIP3   OH236891   2.615   6.541   5.744
12317TIP3    H136892   2.571   6.517   5.661
12317TIP3    H236893   2.570   6.625   5.766
12318TIP3   OH236894   2.374   6.465   6.532
12318TIP3    H136895   2.310   6.529   6.570
12318TIP3    H236896   2.413   6.516   6.458
12319TIP3   OH236897   3.173   5.799   6.092
12319TIP3    H136898   3.172   5.743   6.171
12319TIP3    H236899   3.230   5.873   6.120
12320TIP3   OH236900   2.136   5.805   6.519
12320TIP3    H136901   2.200   5.876   6.542
12320TIP3    H236902   2.183   5.764   6.443
12321TIP3   OH236903   2.200   6.657   6.629
12321TIP3    H136904   2.174   6.742   6.588
12321TIP3    H236905   2.120   6.642   6.684
12322TIP3   OH236906   1.593   6.346   5.862
12322TIP3    H136907   1.552   6.370   5.777
12322TIP3    H236908   1.622   6.432   5.897
12323TIP3   OH236909   3.036   6.865   6.106
12323TIP3    H136910   2.946   6.855   6.145
12323TIP3    H236911   3.026   6.949   6.058
12324TIP3   OH236912   3.323   5.771   6.468
12324TIP3    H136913   3.235   5.794   6.433
12324TIP3    H236914   3.383   5.799   6.396
12325TIP3   OH236915   2.624   5.410   6.447
12325TIP3    H136916   2.611   5.315   6.463
12325TIP3    H236917   2.546   5.447   6.494
12326TIP3   OH236918   2.739   6.912   5.781
12326TIP3    H136919   2.787   6.829   5.759
12326TIP3    H236920   2.801   6.976   5.737
12327TIP3   OH236921   2.879   6.698   5.683
12327TIP3    H136922   2.843   6.619   5.640
12327TIP3    H236923   2.914   6.660   5.767
12328TIP3   OH236924   3.263   6.778   6.447
12328TIP3    H136925   3.250   6.700   6.388
12328TIP3    H236926   3.245   6.852   6.386
12329TIP3   OH236927   2.554   6.173   5.704
12329TIP3    H136928   2.473   6.223   5.681
12329TIP3    H236929   2.599   6.166   5.617
12330TIP3   OH236930   2.511   5.954   5.423
12330TIP3    H136931   2.580   6.006   5.468
12330TIP3    H236932   2.568   5.890   5.374
12331TIP3   OH236933   3.457   6.416   6.293
12331TIP3    H136934   3.372   6.467   6.297
12331TIP3    H236935   3.485   6.437   6.201
12332TIP3   OH236936   2.900   6.254   5.676
12332TIP3    H136937   2.845   6.278   5.755
12332TIP3    H236938   2.983   6.228   5.719
12333TIP3   OH236939   3.135   6.295   6.585
12333TIP3    H136940   3.129   6.381   6.630
12333TIP3    H236941   3.048   6.294   6.540
12334TIP3   OH236942   2.132   6.253   6.093
12334TIP3    H136943   2.088   6.196   6.026
12334TIP3    H236944   2.208   6.198   6.120
12335TIP3   OH236945   2.261   6.662   6.242
12335TIP3    H136946   2.239   6.621   6.158
12335TIP3    H236947   2.351   6.628   6.258
12336TIP3   OH236948   2.269   6.222   6.449
12336TIP3    H136949   2.300   6.199   6.359
12336TIP3    H236950   2.312   6.308   6.465
12337TIP3   OH236951   2.794   6.861   6.223
12337TIP3    H136952   2.780   6.940   6.278
12337TIP3    H236953   2.779   6.787   6.286
12338TIP3   OH236954   2.406   6.780   6.771
12338TIP3    H136955   2.345   6.842   6.816
12338TIP3    H236956   2.342   6.726   6.721
12339TIP3   OH236957   2.740   6.112   5.501
12339TIP3    H136958   2.799   6.172   5.553
12339TIP3    H236959   2.767   6.135   5.408
12340TIP3   OH236960   2.161   6.337   6.872
12340TIP3    H136961   2.163   6.424   6.917
12340TIP3    H236962   2.066   6.317   6.878
12341TIP3   OH236963   2.482   6.792   5.780
12341TIP3    H136964   2.559   6.848   5.797
12341TIP3    H236965   2.421   6.853   5.735
12342TIP3   OH236966   2.201   6.949   6.857
12342TIP3    H136967   2.165   6.948   6.766
12342TIP3    H236968   2.122   6.926   6.911
12343TIP3   OH236969   3.257   5.354   5.549
12343TIP3    H136970   3.175   5.373   5.600
12343TIP3    H236971   3.268   5.438   5.499
12344TIP3   OH236972   1.996   6.096   5.901
12344TIP3    H136973   1.932   6.140   5.841
12344TIP3    H236974   1.958   6.007   5.908
12345TIP3   OH236975   3.055   6.721   5.098
12345TIP3    H136976   3.064   6.817   5.083
12345TIP3    H236977   3.147   6.690   5.086
12346TIP3   OH236978   1.779   6.477   6.805
12346TIP3    H136979   1.719   6.453   6.732
12346TIP3    H236980   1.817   6.391   6.831
12347TIP3   OH236981   1.633   6.666   6.448
12347TIP3    H136982   1.727   6.664   6.427
12347TIP3    H236983   1.624   6.752   6.492
12348TIP3   OH236984   3.498   7.122   6.492
12348TIP3    H136985   3.497   7.025   6.503
12348TIP3    H236986   3.415   7.146   6.538
12349TIP3   OH236987   2.604   6.907   6.628
12349TIP3    H136988   2.604   7.000   6.659
12349TIP3    H236989   2.532   6.869   6.682
12350TIP3   OH236990   2.365   7.039   5.578
12350TIP3    H136991   2.317   7.017   5.495
12350TIP3    H236992   2.330   7.126   5.601
12351TIP3   OH236993   1.803   6.888   5.962
12351TIP3    H136994   1.848   6.877   6.048
12351TIP3    H236995   1.744   6.810   5.962
12352TIP3   OH236996   2.567   6.940   5.219
12352TIP3    H136997   2.626   6.870   5.183
12352TIP3    H236998   2.599   6.947   5.311
12353TIP3   OH236999   2.616   6.987   5.490
12353TIP3    H137000   2.527   6.997   5.530
12353TIP3    H237001   2.663   6.941   5.561
12354TIP3   OH237002   3.386   6.254   6.767
12354TIP3    H137003   3.308   6.266   6.711
12354TIP3    H237004   3.404   6.159   6.753
12355TIP3   OH237005   1.983   6.661   6.795
12355TIP3    H137006   2.034   6.644   6.877
12355TIP3    H237007   1.909   6.597   6.802
12356TIP3   OH237008   2.384   5.484   6.575
12356TIP3    H137009   2.295   5.453   6.549
12356TIP3    H237010   2.359   5.567   6.621
12357TIP3   OH237011   2.918   5.602   6.771
12357TIP3    H137012   2.986   5.571   6.834
12357TIP3    H237013   2.834   5.580   6.816
12358TIP3   OH237014   3.158   6.030   6.691
12358TIP3    H137015   3.106   6.026   6.774
12358TIP3    H237016   3.132   6.115   6.653
12359TIP3   OH237017   2.817   6.163   5.247
12359TIP3    H137018   2.782   6.134   5.161
12359TIP3    H237019   2.899   6.209   5.219
12360TIP3   OH237020   2.529   5.535   5.548
12360TIP3    H137021   2.495   5.530   5.639
12360TIP3    H237022   2.492   5.452   5.512
12361TIP3   OH237023   2.316   6.000   6.597
12361TIP3    H137024   2.263   6.022   6.677
12361TIP3    H237025   2.301   6.080   6.542
12362TIP3   OH237026   2.199   5.887   6.110
12362TIP3    H137027   2.106   5.861   6.126
12362TIP3    H237028   2.213   5.847   6.021
12363TIP3   OH237029   2.691   5.973   5.837
12363TIP3    H137030   2.638   6.044   5.795
12363TIP3    H237031   2.745   5.941   5.762
12364TIP3   OH237032   2.865   6.255   6.929
12364TIP3    H137033   2.842   6.179   6.988
12364TIP3    H237034   2.961   6.260   6.943
12365TIP3   OH237035   2.848   6.003   6.076
12365TIP3    H137036   2.788   6.030   6.004
12365TIP3    H237037   2.882   5.921   6.035
12366TIP3   OH237038   2.134   6.030   6.804
12366TIP3    H137039   2.160   6.092   6.873
12366TIP3    H237040   2.123   5.947   6.854
12367TIP3   OH237041   2.184   5.507   5.513
12367TIP3    H137042   2.177   5.504   5.611
12367TIP3    H237043   2.105   5.558   5.490
12368TIP3   OH237044   1.727   5.553   6.385
12368TIP3    H137045   1.805   5.582   6.436
12368TIP3    H237046   1.764   5.519   6.302
12369TIP3   OH237047   1.704   5.534   5.906
12369TIP3    H137048   1.749   5.570   5.827
12369TIP3    H237049   1.642   5.606   5.924
12370TIP3   OH237050   2.862   6.248   6.502
12370TIP3    H137051   2.892   6.175   6.442
12370TIP3    H237052   2.829   6.194   6.577
12371TIP3   OH237053   2.526   5.713   6.172
12371TIP3    H137054   2.443   5.708   6.223
12371TIP3    H237055   2.593   5.707   6.242
12372TIP3   OH237056   1.960   5.763   6.181
12372TIP3    H137057   1.866   5.770   6.152
12372TIP3    H237058   1.983   5.671   6.156
12373TIP3   OH237059   2.231   5.764   5.867
12373TIP3    H137060   2.326   5.775   5.844
12373TIP3    H237061   2.185   5.783   5.783
12374TIP3   OH237062   3.018   5.786   6.375
12374TIP3    H137063   2.979   5.796   6.465
12374TIP3    H237064   2.957   5.722   6.335
12375TIP3   OH237065   2.071   5.794   5.647
12375TIP3    H137066   1.998   5.750   5.601
12375TIP3    H237067   2.122   5.829   5.572
12376TIP3   OH237068   3.188   7.472   6.591
12376TIP3    H137069   3.185   7.496   6.496
12376TIP3    H237070   3.264   7.524   6.622
12377TIP3   OH237071   2.146   6.584   7.013
12377TIP3    H137072   2.226   6.614   7.062
12377TIP3    H237073   2.081   6.582   7.087
12378TIP3   OH237074   2.610   6.037   6.269
12378TIP3    H137075   2.680   5.997   6.216
12378TIP3    H237076   2.621   5.992   6.355
12379TIP3   OH237077   2.136   5.526   6.145
12379TIP3    H137078   2.102   5.446   6.190
12379TIP3    H237079   2.186   5.487   6.071
12380TIP3   OH237080   2.587   5.930   6.559
12380TIP3    H137081   2.497   5.967   6.570
12380TIP3    H237082   2.643   5.993   6.608
12381TIP3   OH237083   2.323   6.326   5.654
12381TIP3    H137084   2.252   6.259   5.642
12381TIP3    H237085   2.304   6.358   5.745
12382TIP3   OH237086   3.224   6.561   6.284
12382TIP3    H137087   3.247   6.610   6.202
12382TIP3    H237088   3.139   6.517   6.259
12383TIP3   OH237089   2.782   5.637   5.515
12383TIP3    H137090   2.685   5.619   5.521
12383TIP3    H237091   2.790   5.731   5.538
12384TIP3   OH237092   2.729   6.646   6.649
12384TIP3    H137093   2.738   6.617   6.740
12384TIP3    H237094   2.684   6.732   6.657
12385TIP3   OH237095   2.851   5.885   5.619
12385TIP3    H137096   2.948   5.889   5.634
12385TIP3    H237097   2.834   5.964   5.565
12386TIP3   OH237098   2.017   6.347   6.330
12386TIP3    H137099   2.051   6.318   6.243
12386TIP3    H237100   2.054   6.280   6.389
12387TIP3   OH237101   2.468   6.474   5.474
12387TIP3    H137102   2.421   6.561   5.480
12387TIP3    H237103   2.413   6.419   5.534
12388TIP3   OH237104   1.894   6.268   6.943
12388TIP3    H137105   1.915   6.253   7.037
12388TIP3    H237106   1.827   6.200   6.926
12389TIP3   OH237107   2.620   6.380   6.962
12389TIP3    H137108   2.559   6.322   6.912
12389TIP3    H237109   2.707   6.345   6.933
12390TIP3   OH237110   2.885   6.905   6.543
12390TIP3    H137111   2.789   6.898   6.556
12390TIP3    H237112   2.911   6.955   6.623
12391TIP3   OH237113   3.294   5.973   5.455
12391TIP3    H137114   3.231   5.928   5.393
12391TIP3    H237115   3.291   6.061   5.413
12392TIP3   OH237116   3.513   6.832   6.535
12392TIP3    H137117   3.416   6.826   6.527
12392TIP3    H237118   3.539   6.800   6.445
12393TIP3   OH237119   2.995   6.792   5.363
12393TIP3    H137120   2.967   6.722   5.423
12393TIP3    H237121   3.005   6.746   5.278
12394TIP3   OH237122   2.990   6.421   6.205
12394TIP3    H137123   2.896   6.396   6.216
12394TIP3    H237124   3.024   6.342   6.158
12395TIP3   OH237125   2.115   6.650   5.956
12395TIP3    H137126   2.115   6.731   5.900
12395TIP3    H237127   2.021   6.630   5.960
12396TIP3   OH237128   1.679   5.953   5.656
12396TIP3    H137129   1.724   6.038   5.675
12396TIP3    H237130   1.602   5.959   5.716
12397TIP3   OH237131   2.257   6.417   5.900
12397TIP3    H137132   2.221   6.506   5.918
12397TIP3    H237133   2.220   6.365   5.973
12398TIP3   OH237134   2.384   6.995   6.424
12398TIP3    H137135   2.426   7.066   6.372
12398TIP3    H237136   2.461   6.958   6.471
12399TIP3   OH237137   2.036   6.888   5.807
12399TIP3    H137138   1.950   6.896   5.852
12399TIP3    H237139   2.066   6.982   5.807
12400TIP3   OH237140   2.776   6.627   6.380
12400TIP3    H137141   2.768   6.625   6.478
12400TIP3    H237142   2.853   6.571   6.366
12401TIP3   OH237143   2.747   6.522   5.264
12401TIP3    H137144   2.799   6.496   5.343
12401TIP3    H237145   2.659   6.493   5.290
12402TIP3   OH237146   3.023   7.163   6.433
12402TIP3    H137147   2.944   7.105   6.425
12402TIP3    H237148   3.007   7.227   6.360
12403TIP3   OH237149   3.089   6.996   5.084
12403TIP3    H137150   3.126   7.067   5.030
12403TIP3    H237151   3.008   7.041   5.117
12404TIP3   OH237152   2.107   5.774   6.951
12404TIP3    H137153   2.010   5.777   6.963
12404TIP3    H237154   2.133   5.710   7.020
12405TIP3   OH237155   2.908   6.457   5.483
12405TIP3    H137156   2.896   6.390   5.552
12405TIP3    H237157   3.004   6.452   5.469
12406TIP3   OH237158   1.824   6.858   6.583
12406TIP3    H137159   1.875   6.780   6.610
12406TIP3    H237160   1.855   6.923   6.647
12407TIP3   OH237161   2.115   6.502   5.263
12407TIP3    H137162   2.128   6.410   5.232
12407TIP3    H237163   2.096   6.488   5.358
12408TIP3   OH237164   2.062   6.506   5.536
12408TIP3    H137165   2.132   6.478   5.595
12408TIP3    H237166   2.067   6.604   5.542
12409TIP3   OH237167   1.797   6.202   5.739
12409TIP3    H137168   1.730   6.245   5.795
12409TIP3    H237169   1.810   6.270   5.671
12410TIP3   OH237170   2.939   5.841   6.636
12410TIP3    H137171   3.026   5.871   6.668
12410TIP3    H237172   2.927   5.758   6.687
12411TIP3   OH237173   2.820   5.590   5.796
12411TIP3    H137174   2.809   5.611   5.701
12411TIP3    H237175   2.860   5.673   5.830
12412TIP3   OH237176   2.327   6.705   5.487
12412TIP3    H137177   2.240   6.732   5.522
12412TIP3    H237178   2.339   6.770   5.417
12413TIP3   OH237179   2.515   5.767   5.898
12413TIP3    H137180   2.580   5.838   5.881
12413TIP3    H237181   2.519   5.760   5.996
12414TIP3   OH237182   2.783   6.087   6.706
12414TIP3    H137183   2.802   6.136   6.787
12414TIP3    H237184   2.836   6.007   6.715
12415TIP3   OH237185   2.659   5.497   6.002
12415TIP3    H137186   2.653   5.575   6.060
12415TIP3    H237187   2.718   5.532   5.931
12416TIP3   OH237188   2.070   6.780   5.551
12416TIP3    H137189   2.038   6.848   5.488
12416TIP3    H237190   2.052   6.822   5.638
12417TIP3   OH237191   2.169   5.492   5.791
12417TIP3    H137192   2.168   5.583   5.826
12417TIP3    H237193   2.264   5.472   5.798
12418TIP3   OH237194   3.426   5.990   6.683
12418TIP3    H137195   3.328   5.988   6.693
12418TIP3    H237196   3.434   5.937   6.602
12419TIP3   OH237197   3.074   6.182   6.076
12419TIP3    H137198   2.999   6.121   6.085
12419TIP3    H237199   3.146   6.134   6.122
12420TIP3   OH237200   1.789   6.410   5.546
12420TIP3    H137201   1.852   6.483   5.552
12420TIP3    H237202   1.835   6.356   5.477
12421TIP3   OH237203   1.731   5.685   5.680
12421TIP3    H137204   1.730   5.783   5.674
12421TIP3    H237205   1.650   5.661   5.634
12422TIP3   OH237206   3.042   7.137   6.025
12422TIP3    H137207   2.999   7.183   5.950
12422TIP3    H237208   3.136   7.155   6.003
12423TIP3   OH237209   2.118   5.406   6.553
12423TIP3    H137210   2.088   5.372   6.466
12423TIP3    H237211   2.109   5.327   6.610
12424TIP3   OH237212   1.661   6.628   5.936
12424TIP3    H137213   1.581   6.656   5.983
12424TIP3    H237214   1.640   6.663   5.846
12425TIP3   OH237215   1.816   7.160   6.998
12425TIP3    H137216   1.900   7.159   7.047
12425TIP3    H237217   1.793   7.066   6.999
12426TIP3   OH237218   2.298   7.132   7.048
12426TIP3    H137219   2.392   7.112   7.056
12426TIP3    H237220   2.272   7.073   6.974
12427TIP3   OH237221   2.280   6.705   5.180
12427TIP3    H137222   2.222   6.634   5.214
12427TIP3    H237223   2.353   6.652   5.144
12428TIP3   OH237224   2.935   7.036   6.782
12428TIP3    H137225   2.926   6.967   6.851
12428TIP3    H237226   3.012   7.087   6.813
12429TIP3   OH237227   2.716   6.748   5.089
12429TIP3    H137228   2.758   6.682   5.146
12429TIP3    H237229   2.771   6.745   5.008
12430TIP3   OH237230   1.945   6.570   7.205
12430TIP3    H137231   1.962   6.474   7.209
12430TIP3    H237232   1.857   6.573   7.160
12431TIP3   OH237233   1.922   6.224   5.396
12431TIP3    H137234   1.976   6.188   5.468
12431TIP3    H237235   1.989   6.228   5.324
12432TIP3   OH237236   2.553   6.655   6.977
12432TIP3    H137237   2.510   6.671   6.891
12432TIP3    H237238   2.581   6.561   6.970
12433TIP3   OH237239   2.431   6.421   5.204
12433TIP3    H137240   2.433   6.432   5.301
12433TIP3    H237241   2.431   6.323   5.197
12434TIP3   OH237242   3.047   6.661   6.587
12434TIP3    H137243   3.119   6.707   6.540
12434TIP3    H237244   2.973   6.722   6.571
12435TIP3   OH237245   2.064   6.306   7.185
12435TIP3    H137246   2.136   6.245   7.165
12435TIP3    H237247   2.090   6.338   7.274
12436TIP3   OH237248   2.135   6.125   5.623
12436TIP3    H137249   2.104   6.080   5.703
12436TIP3    H237250   2.169   6.050   5.569
12437TIP3   OH237251   2.400   6.191   6.850
12437TIP3    H137252   2.320   6.249   6.850
12437TIP3    H237253   2.448   6.224   6.771
12438TIP3   OH237254   2.229   5.918   5.461
12438TIP3    H137255   2.204   5.921   5.366
12438TIP3    H237256   2.327   5.922   5.454
12439TIP3   OH237257   2.922   6.595   6.987
12439TIP3    H137258   2.990   6.563   6.926
12439TIP3    H237259   2.912   6.520   7.048
12440TIP3   OH237260   3.054   6.251   5.122
12440TIP3    H137261   3.033   6.203   5.039
12440TIP3    H237262   3.020   6.340   5.097
12441TIP3   OH237263   2.523   5.977   6.974
12441TIP3    H137264   2.522   5.897   6.919
12441TIP3    H237265   2.478   6.042   6.916
12442TIP3   OH237266   2.524   5.765   6.783
12442TIP3    H137267   2.552   5.804   6.698
12442TIP3    H237268   2.431   5.741   6.763
12443TIP3   OH237269   2.555   6.303   6.656
12443TIP3    H137270   2.635   6.306   6.602
12443TIP3    H237271   2.497   6.368   6.611
12444TIP3   OH237272   3.142   6.268   7.042
12444TIP3    H137273   3.182   6.179   7.044
12444TIP3    H237274   3.208   6.318   6.992
12445TIP3   OH237275   3.176   6.524   6.780
12445TIP3    H137276   3.119   6.574   6.718
12445TIP3    H237277   3.263   6.541   6.739
12446TIP3   OH237278   2.400   6.092   7.204
12446TIP3    H137279   2.332   6.023   7.218
12446TIP3    H237280   2.434   6.068   7.116
12447TIP3   OH237281   2.657   5.528   6.847
12447TIP3    H137282   2.607   5.610   6.825
12447TIP3    H237283   2.589   5.459   6.835
12448TIP3   OH237284   2.781   6.035   7.064
12448TIP3    H137285   2.769   6.020   7.160
12448TIP3    H237286   2.692   6.009   7.033
12449TIP3   OH237287   3.025   5.991   6.923
12449TIP3    H137288   2.948   5.983   6.983
12449TIP3    H237289   3.098   5.953   6.977
12450TIP3   OH237290   3.251   5.921   7.071
12450TIP3    H137291   3.267   5.826   7.087
12450TIP3    H237292   3.252   5.958   7.161
12451TIP3   OH237293   2.241   5.872   7.255
12451TIP3    H137294   2.244   5.781   7.219
12451TIP3    H237295   2.276   5.857   7.346
12452TIP3   OH237296   2.752   5.538   7.105
12452TIP3    H137297   2.820   5.467   7.099
12452TIP3    H237298   2.712   5.531   7.016
12453TIP3   OH237299   2.818   5.753   7.264
12453TIP3    H137300   2.797   5.681   7.200
12453TIP3    H237301   2.740   5.811   7.257
12454TIP3   OH237302   2.038   6.985   5.366
12454TIP3    H137303   2.133   6.980   5.343
12454TIP3    H237304   2.004   7.028   5.286
12455TIP3   OH237305   1.522   6.361   5.585
12455TIP3    H137306   1.616   6.382   5.567
12455TIP3    H237307   1.513   6.274   5.541
12456TIP3   OH237308   1.429   6.978   5.994
12456TIP3    H137309   1.363   6.915   5.956
12456TIP3    H237310   1.474   6.920   6.059
12457TIP3   OH237311   1.567   6.832   6.181
12457TIP3    H137312   1.557   6.754   6.237
12457TIP3    H237313   1.619   6.891   6.239
12458TIP3   OH237314   3.294   7.230   5.980
12458TIP3    H137315   3.322   7.262   6.067
12458TIP3    H237316   3.357   7.272   5.920
12459TIP3   OH237317   3.325   7.248   6.262
12459TIP3    H137318   3.281   7.161   6.257
12459TIP3    H237319   3.401   7.225   6.318
12460TIP3   OH237320   3.373   6.923   6.837
12460TIP3    H137321   3.296   6.933   6.896
12460TIP3    H237322   3.413   7.013   6.839
12461TIP3   OH237323   3.186   6.439   5.457
12461TIP3    H137324   3.256   6.500   5.427
12461TIP3    H237325   3.229   6.399   5.536
12462TIP3   OH237326   3.314   6.307   5.660
12462TIP3    H137327   3.248   6.263   5.718
12462TIP3    H237328   3.378   6.343   5.724
12463TIP3   OH237329   3.369   6.696   6.093
12463TIP3    H137330   3.420   6.630   6.043
12463TIP3    H237331   3.360   6.769   6.028
12464TIP3   OH237332   3.202   6.998   6.288
12464TIP3    H137333   3.129   7.039   6.338
12464TIP3    H237334   3.153   6.950   6.218
12465TIP3   OH237335   3.253   6.214   5.307
12465TIP3    H137336   3.183   6.214   5.238
12465TIP3    H237337   3.223   6.289   5.362
12466TIP3   OH237338   3.124   5.887   5.262
12466TIP3    H137339   3.083   5.922   5.182
12466TIP3    H237340   3.098   5.793   5.256
12467TIP3   OH237341   3.130   6.161   5.807
12467TIP3    H137342   3.137   6.064   5.798
12467TIP3    H237343   3.116   6.172   5.904
12468TIP3   OH237344   1.755   6.239   6.553
12468TIP3    H137345   1.754   6.206   6.460
12468TIP3    H237346   1.852   6.238   6.570
12469TIP3   OH237347   3.419   6.587   6.668
12469TIP3    H137348   3.492   6.521   6.658
12469TIP3    H237349   3.442   6.653   6.601
12470TIP3   OH237350   3.605   6.393   6.689
12470TIP3    H137351   3.529   6.341   6.723
12470TIP3    H237352   3.677   6.327   6.701
12471TIP3   OH237353   3.066   5.623   5.252
12471TIP3    H137354   3.143   5.589   5.302
12471TIP3    H237355   2.996   5.559   5.272
12472TIP3   OH237356   3.126   5.877   5.703
12472TIP3    H137357   3.165   5.788   5.719
12472TIP3    H237358   3.185   5.907   5.631
12473TIP3   OH237359   3.288   6.055   6.197
12473TIP3    H137360   3.374   6.080   6.156
12473TIP3    H237361   3.303   6.088   6.287
12474TIP3   OH237362   3.357   6.196   6.430
12474TIP3    H137363   3.277   6.230   6.475
12474TIP3    H237364   3.389   6.276   6.383
12475TIP3   OH237365   1.975   5.925   7.235
12475TIP3    H137366   2.072   5.914   7.230
12475TIP3    H237367   1.948   5.838   7.271
12476TIP3   OH237368   3.805   5.788   6.986
12476TIP3    H137369   3.866   5.719   6.953
12476TIP3    H237370   3.781   5.836   6.905
12477TIP3   OH237371   3.233   5.627   5.740
12477TIP3    H137372   3.282   5.610   5.823
12477TIP3    H237373   3.173   5.550   5.738
12478TIP3   OH237374   1.934   5.614   6.561
12478TIP3    H137375   1.994   5.538   6.568
12478TIP3    H237376   1.998   5.687   6.552
12479TIP3   OH237377   1.738   5.889   6.631
12479TIP3    H137378   1.786   5.878   6.547
12479TIP3    H237379   1.772   5.973   6.662
12480TIP3   OH237380   3.680   5.929   6.784
12480TIP3    H137381   3.590   5.962   6.803
12480TIP3    H237382   3.658   5.851   6.731
12481TIP3   OH237383   3.317   5.563   5.370
12481TIP3    H137384   3.354   5.488   5.319
12481TIP3    H237385   3.386   5.631   5.362
12482TIP3   OH237386   1.720   5.397   6.137
12482TIP3    H137387   1.626   5.388   6.157
12482TIP3    H237388   1.719   5.452   6.056
12483TIP3   OH237389   2.880   7.095   5.638
12483TIP3    H137390   2.929   7.078   5.555
12483TIP3    H237391   2.937   7.158   5.683
12484TIP3   OH237392   1.941   5.474   6.948
12484TIP3    H137393   1.888   5.465   7.030
12484TIP3    H237394   1.874   5.510   6.887
12485TIP3   OH237395   1.981   6.897   7.025
12485TIP3    H137396   1.890   6.868   7.005
12485TIP3    H237397   1.988   6.878   7.119
12486TIP3   OH237398   2.157   6.929   6.572
12486TIP3    H137399   2.109   7.004   6.532
12486TIP3    H237400   2.243   6.943   6.528
12487TIP3   OH237401   2.605   7.175   6.710
12487TIP3    H137402   2.647   7.178   6.799
12487TIP3    H237403   2.670   7.225   6.657
12488TIP3   OH237404   2.783   7.325   6.567
12488TIP3    H137405   2.853   7.275   6.524
12488TIP3    H237406   2.835   7.382   6.628
12489TIP3   OH237407   3.580   5.688   6.668
12489TIP3    H137408   3.487   5.679   6.639
12489TIP3    H237409   3.610   5.594   6.658
12490TIP3   OH237410   1.836   7.189   6.594
12490TIP3    H137411   1.747   7.223   6.569
12490TIP3    H237412   1.840   7.217   6.686
12491TIP3   OH237413   2.073   7.166   6.452
12491TIP3    H137414   1.986   7.180   6.497
12491TIP3    H237415   2.053   7.198   6.362
12492TIP3   OH237416   2.498   7.195   6.250
12492TIP3    H137417   2.428   7.215   6.185
12492TIP3    H237418   2.510   7.283   6.292
12493TIP3   OH237419   2.766   7.135   6.303
12493TIP3    H137420   2.672   7.151   6.281
12493TIP3    H237421   2.809   7.211   6.260
12494TIP3   OH237422   2.976   7.328   6.218
12494TIP3    H137423   2.961   7.411   6.169
12494TIP3    H237424   3.001   7.266   6.146
12495TIP3   OH237425   1.747   6.981   6.341
12495TIP3    H137426   1.774   6.957   6.432
12495TIP3    H237427   1.818   6.937   6.290
12496TIP3   OH237428   1.939   6.852   6.197
12496TIP3    H137429   1.957   6.768   6.245
12496TIP3    H237430   2.029   6.889   6.189
12497TIP3   OH237431   2.206   6.949   6.197
12497TIP3    H137432   2.237   6.858   6.182
12497TIP3    H237433   2.249   6.967   6.283
12498TIP3   OH237434   2.782   5.604   6.287
12498TIP3    H137435   2.738   5.534   6.339
12498TIP3    H237436   2.853   5.556   6.241
12499TIP3   OH237437   3.307   5.489   6.197
12499TIP3    H137438   3.343   5.537   6.119
12499TIP3    H237439   3.211   5.499   6.185
12500TIP3   OH237440   3.400   5.586   5.958
12500TIP3    H137441   3.472   5.533   5.916
12500TIP3    H237442   3.434   5.677   5.941
12501TIP3   OH237443   2.031   5.314   6.305
12501TIP3    H137444   1.938   5.281   6.305
12501TIP3    H237445   2.079   5.228   6.300
12502TIP3   OH237446   1.818   5.181   5.951
12502TIP3    H137447   1.848   5.238   5.878
12502TIP3    H237448   1.789   5.246   6.017
12503TIP3   OH237449   2.473   5.346   6.184
12503TIP3    H137450   2.532   5.394   6.124
12503TIP3    H237451   2.497   5.384   6.269
12504TIP3   OH237452   3.024   5.491   6.166
12504TIP3    H137453   3.021   5.453   6.078
12504TIP3    H237454   3.009   5.411   6.222
12505TIP3   OH237455   3.051   5.413   5.730
12505TIP3    H137456   2.962   5.452   5.737
12505TIP3    H237457   3.038   5.328   5.777
12506TIP3   OH237458   1.535   6.752   5.733
12506TIP3    H137459   1.451   6.717   5.698
12506TIP3    H237460   1.523   6.846   5.709
12507TIP3   OH237461   1.933   5.341   5.716
12507TIP3    H137462   1.981   5.278   5.658
12507TIP3    H237463   2.007   5.394   5.751
12508TIP3   OH237464   2.446   5.517   5.814
12508TIP3    H137465   2.506   5.467   5.872
12508TIP3    H237466   2.471   5.609   5.839
12509TIP3   OH237467   2.306   6.945   5.311
12509TIP3    H137468   2.396   6.965   5.276
12509TIP3    H237469   2.284   6.869   5.252
12510TIP3   OH237470   3.025   7.059   5.406
12510TIP3    H137471   3.018   6.961   5.395
12510TIP3    H237472   2.980   7.089   5.325
12511TIP3   OH237473   2.239   5.597   7.196
12511TIP3    H137474   2.203   5.525   7.251
12511TIP3    H237475   2.333   5.595   7.223
12512TIP3   OH237476   2.489   5.591   7.315
12512TIP3    H137477   2.572   5.565   7.273
12512TIP3    H237478   2.477   5.520   7.381
12513TIP3   OH237479   1.612   6.783   5.370
12513TIP3    H137480   1.605   6.807   5.463
12513TIP3    H237481   1.700   6.741   5.364
12514TIP3   OH237482   3.311   5.651   7.107
12514TIP3    H137483   3.334   5.612   7.194
12514TIP3    H237484   3.398   5.651   7.062
12515TIP3   OH237485   3.252   7.204   6.595
12515TIP3    H137486   3.174   7.172   6.545
12515TIP3    H237487   3.233   7.300   6.596
12516TIP3   OH237488   4.516   6.577   5.363
12516TIP3    H137489   4.488   6.668   5.341
12516TIP3    H237490   4.443   6.526   5.326
12517TIP3   OH237491   4.512   6.579   5.742
12517TIP3    H137492   4.546   6.542   5.825
12517TIP3    H237493   4.477   6.500   5.698
12518TIP3   OH237494   3.816   6.475   6.109
12518TIP3    H137495   3.848   6.405   6.169
12518TIP3    H237496   3.899   6.523   6.092
12519TIP3   OH237497   4.758   6.880   5.421
12519TIP3    H137498   4.747   6.804   5.480
12519TIP3    H237499   4.789   6.949   5.481
12520TIP3   OH237500   3.787   6.881   5.834
12520TIP3    H137501   3.779   6.783   5.835
12520TIP3    H237502   3.883   6.890   5.825
12521TIP3   OH237503   3.494   6.086   5.618
12521TIP3    H137504   3.443   6.169   5.629
12521TIP3    H237505   3.426   6.028   5.581
12522TIP3   OH237506   3.555   6.373   5.787
12522TIP3    H137507   3.602   6.294   5.823
12522TIP3    H237508   3.610   6.394   5.711
12523TIP3   OH237509   4.410   7.341   5.440
12523TIP3    H137510   4.454   7.271   5.387
12523TIP3    H237511   4.401   7.297   5.526
12524TIP3   OH237512   4.315   6.803   5.790
12524TIP3    H137513   4.350   6.724   5.745
12524TIP3    H237514   4.401   6.846   5.811
12525TIP3   OH237515   5.326   6.121   5.787
12525TIP3    H137516   5.358   6.208   5.818
12525TIP3    H237517   5.356   6.124   5.694
12526TIP3   OH237518   4.723   6.303   5.825
12526TIP3    H137519   4.773   6.220   5.842
12526TIP3    H237520   4.699   6.289   5.731
12527TIP3   OH237521   4.063   5.963   5.788
12527TIP3    H137522   4.044   6.035   5.724
12527TIP3    H237523   4.018   5.888   5.743
12528TIP3   OH237524   4.756   6.057   5.407
12528TIP3    H137525   4.827   6.039   5.474
12528TIP3    H237526   4.812   6.089   5.333
12529TIP3   OH237527   3.699   6.165   5.893
12529TIP3    H137528   3.782   6.144   5.940
12529TIP3    H237529   3.711   6.109   5.813
12530TIP3   OH237530   4.140   6.362   5.689
12530TIP3    H137531   4.234   6.337   5.699
12530TIP3    H237532   4.101   6.279   5.655
12531TIP3   OH237533   5.409   6.332   5.958
12531TIP3    H137534   5.327   6.377   5.930
12531TIP3    H237535   5.405   6.349   6.053
12532TIP3   OH237536   4.063   5.948   6.221
12532TIP3    H137537   4.001   5.983   6.154
12532TIP3    H237538   4.011   5.964   6.303
12533TIP3   OH237539   4.411   6.798   5.231
12533TIP3    H137540   4.368   6.773   5.148
12533TIP3    H237541   4.365   6.882   5.252
12534TIP3   OH237542   4.171   6.722   6.018
12534TIP3    H137543   4.107   6.786   6.056
12534TIP3    H237544   4.210   6.772   5.944
12535TIP3   OH237545   4.960   6.049   5.580
12535TIP3    H137546   4.982   6.010   5.665
12535TIP3    H237547   5.032   6.114   5.567
12536TIP3   OH237548   3.932   6.061   6.006
12536TIP3    H137549   3.997   6.132   6.029
12536TIP3    H237550   3.979   6.020   5.930
12537TIP3   OH237551   3.996   6.914   6.116
12537TIP3    H137552   3.969   6.998   6.074
12537TIP3    H237553   3.916   6.898   6.171
12538TIP3   OH237554   3.392   6.603   5.349
12538TIP3    H137555   3.350   6.630   5.265
12538TIP3    H237556   3.422   6.688   5.386
12539TIP3   OH237557   4.832   7.122   5.594
12539TIP3    H137558   4.741   7.112   5.631
12539TIP3    H237559   4.821   7.205   5.544
12540TIP3   OH237560   5.120   6.025   5.953
12540TIP3    H137561   5.032   6.050   5.919
12540TIP3    H237562   5.180   6.057   5.883
12541TIP3   OH237563   4.420   5.666   5.935
12541TIP3    H137564   4.406   5.570   5.951
12541TIP3    H237565   4.342   5.703   5.981
12542TIP3   OH237566   4.534   7.169   5.266
12542TIP3    H137567   4.581   7.085   5.246
12542TIP3    H237568   4.597   7.232   5.224
12543TIP3   OH237569   4.674   6.954   5.170
12543TIP3    H137570   4.640   6.875   5.127
12543TIP3    H237571   4.709   6.916   5.254
12544TIP3   OH237572   5.058   7.035   5.934
12544TIP3    H137573   5.047   6.956   5.876
12544TIP3    H237574   5.043   7.108   5.870
12545TIP3   OH237575   4.350   6.431   5.190
12545TIP3    H137576   4.269   6.480   5.164
12545TIP3    H237577   4.397   6.423   5.105
12546TIP3   OH237578   4.307   6.211   4.909
12546TIP3    H137579   4.376   6.262   4.955
12546TIP3    H237580   4.364   6.147   4.861
12547TIP3   OH237581   5.253   6.678   5.786
12547TIP3    H137582   5.168   6.726   5.786
12547TIP3    H237583   5.280   6.687   5.692
12548TIP3   OH237584   4.696   6.511   5.163
12548TIP3    H137585   4.644   6.533   5.243
12548TIP3    H237586   4.779   6.478   5.205
12549TIP3   OH237587   4.931   6.551   6.072
12549TIP3    H137588   4.925   6.635   6.121
12549TIP3    H237589   4.844   6.551   6.026
12550TIP3   OH237590   3.928   6.510   5.580
12550TIP3    H137591   3.885   6.452   5.513
12550TIP3    H237592   4.004   6.455   5.608
12551TIP3   OH237593   4.058   6.920   5.729
12551TIP3    H137594   4.035   6.877   5.645
12551TIP3    H237595   4.148   6.884   5.745
12552TIP3   OH237596   4.063   6.479   5.936
12552TIP3    H137597   4.095   6.455   5.846
12552TIP3    H237598   4.108   6.565   5.952
12553TIP3   OH237599   4.588   7.120   5.712
12553TIP3    H137600   4.577   7.195   5.773
12553TIP3    H237601   4.576   7.042   5.769
12554TIP3   OH237602   4.202   7.039   6.256
12554TIP3    H137603   4.141   7.099   6.303
12554TIP3    H237604   4.138   6.983   6.207
12555TIP3   OH237605   4.534   6.372   4.988
12555TIP3    H137606   4.595   6.428   5.040
12555TIP3    H237607   4.563   6.394   4.896
12556TIP3   OH237608   3.958   6.594   6.360
12556TIP3    H137609   3.958   6.681   6.405
12556TIP3    H237610   3.862   6.574   6.362
12557TIP3   OH237611   4.276   7.051   5.268
12557TIP3    H137612   4.357   7.103   5.282
12557TIP3    H237613   4.218   7.113   5.222
12558TIP3   OH237614   3.996   7.207   6.344
12558TIP3    H137615   3.962   7.205   6.253
12558TIP3    H237616   3.917   7.183   6.397
12559TIP3   OH237617   5.053   5.611   5.035
12559TIP3    H137618   4.972   5.630   5.086
12559TIP3    H237619   5.068   5.696   4.990
12560TIP3   OH237620   3.792   6.353   5.389
12560TIP3    H137621   3.728   6.394   5.328
12560TIP3    H237622   3.757   6.263   5.395
12561TIP3   OH237623   4.850   6.978   4.587
12561TIP3    H137624   4.859   7.074   4.570
12561TIP3    H237625   4.942   6.948   4.571
12562TIP3   OH237626   3.576   6.736   6.290
12562TIP3    H137627   3.511   6.713   6.221
12562TIP3    H237628   3.612   6.648   6.315
12563TIP3   OH237629   3.429   6.928   5.924
12563TIP3    H137630   3.525   6.919   5.914
12563TIP3    H237631   3.422   7.008   5.979
12564TIP3   OH237632   5.295   7.379   5.979
12564TIP3    H137633   5.294   7.282   5.992
12564TIP3    H237634   5.212   7.403   6.026
12565TIP3   OH237635   4.399   7.165   6.114
12565TIP3    H137636   4.397   7.257   6.147
12565TIP3    H237637   4.327   7.125   6.167
12566TIP3   OH237638   4.159   7.294   5.066
12566TIP3    H137639   4.115   7.274   4.981
12566TIP3    H237640   4.128   7.384   5.086
12567TIP3   OH237641   3.598   7.145   5.450
12567TIP3    H137642   3.646   7.134   5.535
12567TIP3    H237643   3.543   7.064   5.451
12568TIP3   OH237644   4.361   7.195   4.707
12568TIP3    H137645   4.421   7.126   4.669
12568TIP3    H237646   4.397   7.203   4.798
12569TIP3   OH237647   4.411   7.244   4.978
12569TIP3    H137648   4.323   7.252   5.020
12569TIP3    H237649   4.461   7.198   5.048
12570TIP3   OH237650   5.184   6.511   6.253
12570TIP3    H137651   5.105   6.523   6.198
12570TIP3    H237652   5.200   6.415   6.241
12571TIP3   OH237653   3.779   6.919   6.282
12571TIP3    H137654   3.829   6.899   6.364
12571TIP3    H237655   3.706   6.854   6.287
12572TIP3   OH237656   4.180   5.741   6.062
12572TIP3    H137657   4.091   5.710   6.036
12572TIP3    H237658   4.155   5.824   6.107
12573TIP3   OH237659   4.714   5.858   6.257
12573TIP3    H137660   4.781   5.827   6.321
12573TIP3    H237661   4.629   5.837   6.302
12574TIP3   OH237662   4.957   6.287   6.179
12574TIP3    H137663   4.903   6.282   6.261
12574TIP3    H237664   4.930   6.372   6.140
12575TIP3   OH237665   4.612   6.421   4.733
12575TIP3    H137666   4.578   6.390   4.647
12575TIP3    H237667   4.695   6.464   4.706
12576TIP3   OH237668   4.325   5.792   5.035
12576TIP3    H137669   4.292   5.787   5.126
12576TIP3    H237670   4.287   5.709   4.999
12577TIP3   OH237671   4.112   6.257   6.084
12577TIP3    H137672   4.060   6.279   6.163
12577TIP3    H237673   4.096   6.337   6.028
12578TIP3   OH237674   3.995   6.144   5.597
12578TIP3    H137675   3.902   6.116   5.613
12578TIP3    H237676   4.010   6.104   5.508
12579TIP3   OH237677   4.487   6.229   5.323
12579TIP3    H137678   4.435   6.300   5.280
12579TIP3    H237679   4.542   6.198   5.249
12580TIP3   OH237680   4.661   6.511   6.414
12580TIP3    H137681   4.639   6.436   6.474
12580TIP3    H237682   4.756   6.521   6.431
12581TIP3   OH237683   4.643   6.259   5.563
12581TIP3    H137684   4.585   6.285   5.489
12581TIP3    H237685   4.680   6.177   5.522
12582TIP3   OH237686   3.930   6.286   6.291
12582TIP3    H137687   3.961   6.347   6.359
12582TIP3    H237688   3.919   6.203   6.341
12583TIP3   OH237689   3.981   5.764   5.000
12583TIP3    H137690   3.974   5.759   5.098
12583TIP3    H237691   3.899   5.812   4.978
12584TIP3   OH237692   3.523   5.810   5.873
12584TIP3    H137693   3.602   5.838   5.923
12584TIP3    H237694   3.558   5.775   5.790
12585TIP3   OH237695   3.501   5.789   5.393
12585TIP3    H137696   3.546   5.826   5.314
12585TIP3    H237697   3.438   5.862   5.411
12586TIP3   OH237698   4.656   6.504   5.988
12586TIP3    H137699   4.687   6.432   5.929
12586TIP3    H237700   4.625   6.451   6.064
12587TIP3   OH237701   4.322   5.969   5.658
12587TIP3    H137702   4.240   5.964   5.711
12587TIP3    H237703   4.390   5.964   5.727
12588TIP3   OH237704   3.757   6.019   5.668
12588TIP3    H137705   3.663   6.026   5.639
12588TIP3    H237706   3.780   5.928   5.643
12589TIP3   OH237707   4.027   6.021   5.354
12589TIP3    H137708   4.122   6.031   5.333
12589TIP3    H237709   3.982   6.040   5.269
12590TIP3   OH237710   4.818   6.042   5.868
12590TIP3    H137711   4.771   6.052   5.954
12590TIP3    H237712   4.758   5.982   5.821
12591TIP3   OH237713   3.865   6.053   5.134
12591TIP3    H137714   3.793   6.007   5.087
12591TIP3    H237715   3.917   6.087   5.058
12592TIP3   OH237716   4.982   7.733   6.071
12592TIP3    H137717   4.985   7.757   5.977
12592TIP3    H237718   5.060   7.779   6.107
12593TIP3   OH237719   3.941   6.842   6.501
12593TIP3    H137720   4.022   6.870   6.548
12593TIP3    H237721   3.878   6.840   6.576
12594TIP3   OH237722   4.406   6.293   5.755
12594TIP3    H137723   4.478   6.256   5.701
12594TIP3    H237724   4.420   6.248   5.840
12595TIP3   OH237725   3.932   5.782   5.631
12595TIP3    H137726   3.898   5.703   5.677
12595TIP3    H237727   3.982   5.744   5.558
12596TIP3   OH237728   4.383   6.186   6.048
12596TIP3    H137729   4.294   6.224   6.058
12596TIP3    H237730   4.440   6.248   6.095
12597TIP3   OH237731   4.117   6.584   5.139
12597TIP3    H137732   4.047   6.515   5.129
12597TIP3    H237733   4.100   6.615   5.231
12598TIP3   OH237734   5.019   6.819   5.770
12598TIP3    H137735   5.043   6.866   5.688
12598TIP3    H237736   4.936   6.773   5.745
12599TIP3   OH237737   4.578   5.894   4.999
12599TIP3    H137738   4.481   5.877   5.008
12599TIP3    H237739   4.588   5.987   5.026
12600TIP3   OH237740   4.525   6.902   6.135
12600TIP3    H137741   4.539   6.871   6.225
12600TIP3    H237742   4.479   6.987   6.147
12601TIP3   OH237743   4.645   6.140   5.105
12601TIP3    H137744   4.742   6.138   5.122
12601TIP3    H237745   4.635   6.220   5.050
12602TIP3   OH237746   3.813   6.605   5.816
12602TIP3    H137747   3.848   6.575   5.729
12602TIP3    H237748   3.850   6.538   5.876
12603TIP3   OH237749   4.264   6.731   4.960
12603TIP3    H137750   4.217   6.817   4.967
12603TIP3    H237751   4.210   6.675   5.020
12604TIP3   OH237752   3.689   6.525   6.431
12604TIP3    H137753   3.708   6.506   6.525
12604TIP3    H237754   3.622   6.457   6.410
12605TIP3   OH237755   4.417   6.637   6.448
12605TIP3    H137756   4.358   6.578   6.397
12605TIP3    H237757   4.505   6.602   6.421
12606TIP3   OH237758   4.680   7.169   6.028
12606TIP3    H137759   4.585   7.154   6.044
12606TIP3    H237760   4.706   7.214   6.110
12607TIP3   OH237761   5.087   6.220   4.933
12607TIP3    H137762   5.019   6.183   4.872
12607TIP3    H237763   5.091   6.311   4.900
12608TIP3   OH237764   5.308   7.088   6.023
12608TIP3    H137765   5.211   7.082   6.015
12608TIP3    H237766   5.334   7.056   5.933
12609TIP3   OH237767   4.791   7.048   4.851
12609TIP3    H137768   4.760   6.976   4.908
12609TIP3    H237769   4.802   7.005   4.765
12610TIP3   OH237770   4.786   6.679   5.692
12610TIP3    H137771   4.692   6.653   5.702
12610TIP3    H237772   4.821   6.599   5.646
12611TIP3   OH237773   3.912   6.908   5.444
12611TIP3    H137774   3.913   6.987   5.387
12611TIP3    H237775   3.818   6.887   5.446
12612TIP3   OH237776   3.475   6.211   5.142
12612TIP3    H137777   3.521   6.294   5.163
12612TIP3    H237778   3.398   6.215   5.204
12613TIP3   OH237779   4.053   6.673   5.386
12613TIP3    H137780   4.017   6.762   5.406
12613TIP3    H237781   4.017   6.621   5.460
12614TIP3   OH237782   4.180   7.252   5.911
12614TIP3    H137783   4.223   7.322   5.858
12614TIP3    H237784   4.257   7.213   5.957
12615TIP3   OH237785   3.832   7.146   5.293
12615TIP3    H137786   3.746   7.154   5.339
12615TIP3    H237787   3.863   7.239   5.294
12616TIP3   OH237788   4.574   6.886   5.866
12616TIP3    H137789   4.564   6.881   5.964
12616TIP3    H237790   4.649   6.827   5.851
12617TIP3   OH237791   4.543   6.778   4.751
12617TIP3    H137792   4.595   6.751   4.830
12617TIP3    H237793   4.455   6.749   4.779
12618TIP3   OH237794   4.818   7.421   5.921
12618TIP3    H137795   4.742   7.360   5.914
12618TIP3    H237796   4.801   7.483   5.847
12619TIP3   OH237797   4.885   7.252   4.572
12619TIP3    H137798   4.922   7.322   4.515
12619TIP3    H237799   4.805   7.299   4.604
12620TIP3   OH237800   3.904   6.031   6.439
12620TIP3    H137801   3.806   6.031   6.449
12620TIP3    H237802   3.930   5.966   6.506
12621TIP3   OH237803   4.701   6.714   4.972
12621TIP3    H137804   4.689   6.646   5.041
12621TIP3    H237805   4.798   6.705   4.956
12622TIP3   OH237806   3.619   7.114   6.070
12622TIP3    H137807   3.670   7.036   6.096
12622TIP3    H237808   3.652   7.179   6.134
12623TIP3   OH237809   3.910   6.758   4.751
12623TIP3    H137810   3.926   6.667   4.720
12623TIP3    H237811   3.890   6.743   4.845
12624TIP3   OH237812   3.855   6.763   5.025
12624TIP3    H137813   3.930   6.733   5.079
12624TIP3    H237814   3.863   6.860   5.031
12625TIP3   OH237815   3.593   6.457   5.225
12625TIP3    H137816   3.527   6.501   5.282
12625TIP3    H237817   3.608   6.526   5.158
12626TIP3   OH237818   4.733   6.100   6.127
12626TIP3    H137819   4.821   6.128   6.155
12626TIP3    H237820   4.722   6.015   6.176
12627TIP3   OH237821   4.618   5.847   5.283
12627TIP3    H137822   4.607   5.869   5.188
12627TIP3    H237823   4.659   5.929   5.318
12628TIP3   OH237824   4.122   6.961   4.974
12628TIP3    H137825   4.035   6.989   5.007
12628TIP3    H237826   4.137   7.026   4.905
12629TIP3   OH237827   4.310   6.024   5.385
12629TIP3    H137828   4.376   6.094   5.367
12629TIP3    H237829   4.316   6.017   5.483
12630TIP3   OH237830   4.578   6.344   6.193
12630TIP3    H137831   4.601   6.393   6.275
12630TIP3    H237832   4.632   6.263   6.200
12631TIP3   OH237833   4.455   5.754   5.488
12631TIP3    H137834   4.451   5.831   5.548
12631TIP3    H237835   4.514   5.789   5.418
12632TIP3   OH237836   3.865   7.036   5.038
12632TIP3    H137837   3.834   7.105   4.975
12632TIP3    H237838   3.848   7.079   5.124
12633TIP3   OH237839   3.965   5.749   5.277
12633TIP3    H137840   3.965   5.839   5.314
12633TIP3    H237841   4.061   5.728   5.285
12634TIP3   OH237842   5.224   6.243   6.170
12634TIP3    H137843   5.126   6.243   6.181
12634TIP3    H237844   5.230   6.201   6.084
12635TIP3   OH237845   4.869   6.442   5.565
12635TIP3    H137846   4.798   6.376   5.569
12635TIP3    H237847   4.944   6.394   5.608
12636TIP3   OH237848   3.583   6.668   5.031
12636TIP3    H137849   3.650   6.737   5.040
12636TIP3    H237850   3.628   6.612   4.964
12637TIP3   OH237851   3.527   5.942   5.168
12637TIP3    H137852   3.525   6.040   5.160
12637TIP3    H237853   3.448   5.916   5.120
12638TIP3   OH237854   4.845   7.398   5.513
12638TIP3    H137855   4.800   7.443   5.438
12638TIP3    H237856   4.939   7.409   5.487
12639TIP3   OH237857   3.914   5.663   6.040
12639TIP3    H137858   3.884   5.628   5.953
12639TIP3    H237859   3.904   5.584   6.097
12640TIP3   OH237860   3.460   6.887   5.423
12640TIP3    H137861   3.380   6.912   5.471
12640TIP3    H237862   3.437   6.919   5.333
12641TIP3   OH237863   3.609   7.419   6.491
12641TIP3    H137864   3.696   7.416   6.537
12641TIP3    H237865   3.587   7.324   6.488
12642TIP3   OH237866   4.097   7.391   6.531
12642TIP3    H137867   4.189   7.361   6.541
12642TIP3    H237868   4.067   7.331   6.460
12643TIP3   OH237869   4.075   6.962   4.667
12643TIP3    H137870   4.018   6.889   4.701
12643TIP3    H237871   4.150   6.910   4.631
12644TIP3   OH237872   4.728   7.295   6.271
12644TIP3    H137873   4.720   7.223   6.338
12644TIP3    H237874   4.808   7.342   6.300
12645TIP3   OH237875   4.510   7.005   4.575
12645TIP3    H137876   4.556   6.940   4.631
12645TIP3    H237877   4.564   7.004   4.493
12646TIP3   OH237878   3.741   6.821   6.694
12646TIP3    H137879   3.759   6.726   6.687
12646TIP3    H237880   3.654   6.828   6.649
12647TIP3   OH237881   3.717   6.481   4.884
12647TIP3    H137882   3.771   6.444   4.955
12647TIP3    H237883   3.784   6.485   4.812
12648TIP3   OH237884   4.348   6.911   6.464
12648TIP3    H137885   4.307   6.925   6.377
12648TIP3    H237886   4.379   6.818   6.459
12649TIP3   OH237887   4.224   6.677   4.691
12649TIP3    H137888   4.230   6.688   4.788
12649TIP3    H237889   4.226   6.579   4.684
12650TIP3   OH237890   4.843   6.919   6.073
12650TIP3    H137891   4.916   6.964   6.026
12650TIP3    H237892   4.769   6.980   6.055
12651TIP3   OH237893   3.860   6.562   6.674
12651TIP3    H137894   3.935   6.507   6.647
12651TIP3    H237895   3.886   6.590   6.764
12652TIP3   OH237896   3.929   6.381   5.109
12652TIP3    H137897   3.901   6.335   5.189
12652TIP3    H237898   3.965   6.307   5.055
12653TIP3   OH237899   4.195   6.447   6.336
12653TIP3    H137900   4.117   6.506   6.336
12653TIP3    H237901   4.245   6.479   6.258
12654TIP3   OH237902   4.026   6.176   4.948
12654TIP3    H137903   4.001   6.177   4.853
12654TIP3    H237904   4.123   6.178   4.941
12655TIP3   OH237905   4.715   6.851   6.471
12655TIP3    H137906   4.791   6.824   6.418
12655TIP3    H237907   4.709   6.780   6.537
12656TIP3   OH237908   4.848   6.508   4.608
12656TIP3    H137909   4.829   6.460   4.525
12656TIP3    H237910   4.814   6.597   4.583
12657TIP3   OH237911   4.317   6.234   6.464
12657TIP3    H137912   4.319   6.153   6.408
12657TIP3    H237913   4.274   6.299   6.404
12658TIP3   OH237914   4.320   6.021   6.270
12658TIP3    H137915   4.349   6.061   6.186
12658TIP3    H237916   4.227   5.998   6.250
12659TIP3   OH237917   4.350   6.559   6.144
12659TIP3    H137918   4.431   6.560   6.091
12659TIP3    H237919   4.294   6.624   6.097
12660TIP3   OH237920   4.932   6.525   6.525
12660TIP3    H137921   4.977   6.439   6.531
12660TIP3    H237922   5.001   6.581   6.486
12661TIP3   OH237923   4.972   6.778   6.263
12661TIP3    H137924   4.915   6.829   6.201
12661TIP3    H237925   5.060   6.796   6.221
12662TIP3   OH237926   4.190   6.350   6.691
12662TIP3    H137927   4.127   6.276   6.702
12662TIP3    H237928   4.229   6.329   6.604
12663TIP3   OH237929   4.454   5.785   6.333
12663TIP3    H137930   4.403   5.866   6.312
12663TIP3    H237931   4.385   5.716   6.322
12664TIP3   OH237932   4.578   6.291   6.551
12664TIP3    H137933   4.568   6.276   6.647
12664TIP3    H237934   4.489   6.265   6.521
12665TIP3   OH237935   4.820   6.244   6.409
12665TIP3    H137936   4.744   6.240   6.469
12665TIP3    H237937   4.893   6.208   6.464
12666TIP3   OH237938   5.052   6.179   6.557
12666TIP3    H137939   5.061   6.083   6.576
12666TIP3    H237940   5.046   6.218   6.647
12667TIP3   OH237941   4.038   6.129   6.743
12667TIP3    H137942   4.040   6.038   6.706
12667TIP3    H237943   4.076   6.111   6.832
12668TIP3   OH237944   4.549   5.795   6.590
12668TIP3    H137945   4.615   5.723   6.586
12668TIP3    H237946   4.509   5.788   6.502
12669TIP3   OH237947   4.615   6.010   6.750
12669TIP3    H137948   4.593   5.938   6.687
12669TIP3    H237949   4.537   6.068   6.743
12670TIP3   OH237950   3.834   7.241   4.853
12670TIP3    H137951   3.929   7.235   4.833
12670TIP3    H237952   3.804   7.286   4.771
12671TIP3   OH237953   3.314   6.619   5.069
12671TIP3    H137954   3.409   6.641   5.053
12671TIP3    H237955   3.308   6.531   5.028
12672TIP3   OH237956   3.226   7.235   5.480
12672TIP3    H137957   3.161   7.171   5.444
12672TIP3    H237958   3.272   7.178   5.547
12673TIP3   OH237959   3.361   7.090   5.669
12673TIP3    H137960   3.353   7.011   5.724
12673TIP3    H237961   3.415   7.147   5.727
12674TIP3   OH237962   5.110   7.483   5.462
12674TIP3    H137963   5.124   7.508   5.555
12674TIP3    H237964   5.133   7.564   5.415
12675TIP3   OH237965   5.119   7.505   5.743
12675TIP3    H137966   5.076   7.417   5.750
12675TIP3    H237967   5.201   7.487   5.790
12676TIP3   OH237968   5.167   7.180   6.323
12676TIP3    H137969   5.093   7.189   6.387
12676TIP3    H237970   5.207   7.270   6.326
12677TIP3   OH237971   4.976   6.693   4.947
12677TIP3    H137972   5.033   6.770   4.935
12677TIP3    H237973   5.018   6.650   5.026
12678TIP3   OH237974   5.105   6.571   5.152
12678TIP3    H137975   5.043   6.517   5.206
12678TIP3    H237976   5.173   6.595   5.218
12679TIP3   OH237977   5.165   6.953   5.578
12679TIP3    H137978   5.217   6.885   5.531
12679TIP3    H237979   5.157   7.024   5.512
12680TIP3   OH237980   4.998   7.255   5.774
12680TIP3    H137981   4.925   7.291   5.826
12680TIP3    H237982   4.951   7.205   5.704
12681TIP3   OH237983   5.049   6.475   4.790
12681TIP3    H137984   4.977   6.473   4.723
12681TIP3    H237985   5.015   6.545   4.849
12682TIP3   OH237986   4.910   6.145   4.742
12682TIP3    H137987   4.873   6.175   4.659
12682TIP3    H237988   4.890   6.049   4.739
12683TIP3   OH237989   4.927   6.415   5.295
12683TIP3    H137990   4.970   6.327   5.293
12683TIP3    H237991   4.915   6.428   5.391
12684TIP3   OH237992   3.551   6.491   6.040
12684TIP3    H137993   3.551   6.461   5.946
12684TIP3    H237994   3.648   6.494   6.057
12685TIP3   OH237995   5.215   6.843   6.151
12685TIP3    H137996   5.287   6.776   6.141
12685TIP3    H237997   5.240   6.910   6.085
12686TIP3   OH237998   5.401   6.650   6.172
12686TIP3    H137999   5.325   6.599   6.208
12686TIP3    H238000   5.473   6.584   6.186
12687TIP3   OH238001   4.863   5.878   4.732
12687TIP3    H138002   4.942   5.850   4.784
12687TIP3    H238003   4.794   5.818   4.762
12688TIP3   OH238004   4.912   6.125   5.180
12688TIP3    H138005   4.959   6.041   5.203
12688TIP3    H238006   4.985   6.169   5.133
12689TIP3   OH238007   5.080   6.319   5.689
12689TIP3    H138008   5.163   6.332   5.640
12689TIP3    H238009   5.107   6.351   5.776
12690TIP3   OH238010   5.158   6.453   5.922
12690TIP3    H138011   5.075   6.486   5.962
12690TIP3    H238012   5.189   6.532   5.872
12691TIP3   OH238013   3.773   6.185   6.725
12691TIP3    H138014   3.869   6.169   6.717
12691TIP3    H238015   3.744   6.096   6.756
12692TIP3   OH238016   5.608   6.045   6.472
12692TIP3    H138017   5.664   5.977   6.428
12692TIP3    H238018   5.575   6.097   6.395
12693TIP3   OH238019   5.028   5.880   5.229
12693TIP3    H138020   5.078   5.871   5.312
12693TIP3    H238021   4.970   5.801   5.231
12694TIP3   OH238022   3.730   5.871   6.049
12694TIP3    H138023   3.790   5.794   6.056
12694TIP3    H238024   3.794   5.944   6.040
12695TIP3   OH238025   3.534   6.146   6.119
12695TIP3    H138026   3.582   6.133   6.034
12695TIP3    H238027   3.568   6.232   6.146
12696TIP3   OH238028   5.476   6.183   6.277
12696TIP3    H138029   5.389   6.223   6.296
12696TIP3    H238030   5.448   6.112   6.217
12697TIP3   OH238031   5.110   5.822   4.851
12697TIP3    H138032   5.157   5.749   4.807
12697TIP3    H238033   5.180   5.889   4.860
12698TIP3   OH238034   3.516   5.656   5.626
12698TIP3    H138035   3.422   5.645   5.644
12698TIP3    H238036   3.515   5.709   5.543
12699TIP3   OH238037   4.677   7.351   5.126
12699TIP3    H138038   4.723   7.334   5.041
12699TIP3    H238039   4.734   7.418   5.165
12700TIP3   OH238040   3.739   5.733   6.436
12700TIP3    H138041   3.686   5.721   6.516
12700TIP3    H238042   3.670   5.766   6.374
12701TIP3   OH238043   3.777   7.157   6.513
12701TIP3    H138044   3.687   7.125   6.493
12701TIP3    H238045   3.785   7.135   6.607
12702TIP3   OH238046   3.953   7.187   6.060
12702TIP3    H138047   3.905   7.261   6.018
12702TIP3    H238048   4.040   7.200   6.016
12703TIP3   OH238049   4.403   7.433   6.198
12703TIP3    H138050   4.444   7.429   6.287
12703TIP3    H238051   4.473   7.481   6.148
12704TIP3   OH238052   4.592   7.581   6.059
12704TIP3    H138053   4.629   7.519   5.994
12704TIP3    H238054   4.673   7.619   6.096
12705TIP3   OH238055   5.373   5.946   6.156
12705TIP3    H138056   5.282   5.942   6.120
12705TIP3    H238057   5.402   5.853   6.144
12706TIP3   OH238058   3.632   7.446   6.080
12706TIP3    H138059   3.543   7.480   6.056
12706TIP3    H238060   3.637   7.474   6.172
12707TIP3   OH238061   3.869   7.424   5.940
12707TIP3    H138062   3.782   7.437   5.984
12707TIP3    H238063   3.850   7.455   5.849
12708TIP3   OH238064   4.294   7.454   5.737
12708TIP3    H138065   4.225   7.469   5.670
12708TIP3    H238066   4.304   7.543   5.775
12709TIP3   OH238067   4.561   7.401   5.798
12709TIP3    H138068   4.468   7.410   5.768
12709TIP3    H238069   4.606   7.464   5.741
12710TIP3   OH238070   4.769   7.584   5.704
12710TIP3    H138071   4.755   7.668   5.655
12710TIP3    H238072   4.797   7.523   5.632
12711TIP3   OH238073   3.543   7.238   5.828
12711TIP3    H138074   3.570   7.212   5.919
12711TIP3    H238075   3.614   7.193   5.777
12712TIP3   OH238076   3.735   7.109   5.684
12712TIP3    H138077   3.752   7.024   5.731
12712TIP3    H238078   3.826   7.145   5.676
12713TIP3   OH238079   4.002   7.205   5.684
12713TIP3    H138080   4.033   7.114   5.669
12713TIP3    H238081   4.045   7.223   5.770
12714TIP3   OH238082   4.575   5.861   5.772
12714TIP3    H138083   4.534   5.790   5.825
12714TIP3    H238084   4.649   5.814   5.729
12715TIP3   OH238085   5.106   5.744   5.677
12715TIP3    H138086   5.142   5.797   5.603
12715TIP3    H238087   5.010   5.760   5.670
12716TIP3   OH238088   5.205   5.862   5.443
12716TIP3    H138089   5.277   5.815   5.397
12716TIP3    H238090   5.224   5.956   5.422
12717TIP3   OH238091   3.827   5.570   5.792
12717TIP3    H138092   3.734   5.538   5.792
12717TIP3    H238093   3.875   5.485   5.787
12718TIP3   OH238094   3.613   5.438   5.440
12718TIP3    H138095   3.644   5.492   5.365
12718TIP3    H238096   3.585   5.505   5.505
12719TIP3   OH238097   4.269   5.603   5.671
12719TIP3    H138098   4.327   5.651   5.610
12719TIP3    H238099   4.293   5.641   5.756
12720TIP3   OH238100   4.820   5.747   5.657
12720TIP3    H138101   4.815   5.715   5.566
12720TIP3    H238102   4.803   5.665   5.708
12721TIP3   OH238103   4.847   5.666   5.217
12721TIP3    H138104   4.760   5.709   5.224
12721TIP3    H238105   4.830   5.582   5.264
12722TIP3   OH238106   3.331   7.007   5.220
12722TIP3    H138107   3.247   6.972   5.185
12722TIP3    H238108   3.318   7.101   5.200
12723TIP3   OH238109   3.729   5.599   5.200
12723TIP3    H138110   3.776   5.533   5.146
12723TIP3    H238111   3.804   5.651   5.237
12724TIP3   OH238112   4.242   5.774   5.301
12724TIP3    H138113   4.302   5.724   5.358
12724TIP3    H238114   4.268   5.865   5.326
12725TIP3   OH238115   4.102   7.201   4.799
12725TIP3    H138116   4.191   7.222   4.764
12725TIP3    H238117   4.080   7.126   4.740
12726TIP3   OH238118   4.818   7.315   4.893
12726TIP3    H138119   4.813   7.218   4.881
12726TIP3    H238120   4.776   7.347   4.811
12727TIP3   OH238121   4.034   5.854   6.684
12727TIP3    H138122   3.999   5.780   6.737
12727TIP3    H238123   4.128   5.851   6.711
12728TIP3   OH238124   4.285   5.849   6.802
12728TIP3    H138125   4.368   5.820   6.762
12728TIP3    H238126   4.270   5.779   6.869
12729TIP3   OH238127   3.409   7.039   4.858
12729TIP3    H138128   3.408   7.058   4.952
12729TIP3    H238129   3.496   6.995   4.845
12730TIP3   OH238130   5.109   5.907   6.589
12730TIP3    H138131   5.127   5.875   6.680
12730TIP3    H238132   5.197   5.901   6.547
12731TIP3   OH238133   5.046   7.465   6.083
12731TIP3    H138134   4.969   7.431   6.034
12731TIP3    H238135   5.024   7.561   6.085
12732TIP3   OH238136   6.311   6.830   4.854
12732TIP3    H138137   6.284   6.922   4.831
12732TIP3    H238138   6.240   6.781   4.810
12733TIP3   OH238139   6.309   6.836   5.226
12733TIP3    H138140   6.342   6.800   5.310
12733TIP3    H238141   6.274   6.758   5.181
12734TIP3   OH238142   5.614   6.732   5.592
12734TIP3    H138143   5.645   6.661   5.651
12734TIP3    H238144   5.693   6.787   5.585
12735TIP3   OH238145   6.555   7.132   4.909
12735TIP3    H138146   6.545   7.064   4.977
12735TIP3    H238147   6.587   7.209   4.960
12736TIP3   OH238148   5.580   7.137   5.317
12736TIP3    H138149   5.575   7.039   5.321
12736TIP3    H238150   5.676   7.149   5.316
12737TIP3   OH238151   5.305   6.367   5.094
12737TIP3    H138152   5.233   6.432   5.092
12737TIP3    H238153   5.262   6.296   5.148
12738TIP3   OH238154   5.353   6.633   5.274
12738TIP3    H138155   5.395   6.553   5.316
12738TIP3    H238156   5.399   6.635   5.190
12739TIP3   OH238157   6.203   7.596   4.927
12739TIP3    H138158   6.248   7.528   4.872
12739TIP3    H238159   6.204   7.554   5.014
12740TIP3   OH238160   6.112   7.058   5.276
12740TIP3    H138161   6.151   6.982   5.229
12740TIP3    H238162   6.195   7.104   5.300
12741TIP3   OH238163   7.123   6.376   5.273
12741TIP3    H138164   7.152   6.460   5.314
12741TIP3    H238165   7.148   6.392   5.180
12742TIP3   OH238166   6.514   6.556   5.312
12742TIP3    H138167   6.568   6.476   5.327
12742TIP3    H238168   6.494   6.547   5.217
12743TIP3   OH238169   5.869   6.221   5.275
12743TIP3    H138170   5.839   6.292   5.215
12743TIP3    H238171   5.825   6.144   5.230
12744TIP3   OH238172   6.554   6.316   4.900
12744TIP3    H138173   6.628   6.297   4.961
12744TIP3    H238174   6.604   6.345   4.821
12745TIP3   OH238175   5.497   6.432   5.382
12745TIP3    H138176   5.576   6.399   5.428
12745TIP3    H238177   5.482   6.360   5.318
12746TIP3   OH238178   5.936   6.623   5.172
12746TIP3    H138179   6.029   6.594   5.182
12746TIP3    H238180   5.893   6.539   5.143
12747TIP3   OH238181   7.195   6.581   5.449
12747TIP3    H138182   7.116   6.633   5.424
12747TIP3    H238183   7.221   6.624   5.532
12748TIP3   OH238184   5.888   6.209   5.700
12748TIP3    H138185   5.813   6.220   5.639
12748TIP3    H238186   5.840   6.215   5.785
12749TIP3   OH238187   6.192   7.044   4.724
12749TIP3    H138188   6.174   7.036   4.630
12749TIP3    H238189   6.163   7.136   4.742
12750TIP3   OH238190   5.967   6.977   5.507
12750TIP3    H138191   5.902   7.041   5.544
12750TIP3    H238192   6.006   7.029   5.433
12751TIP3   OH238193   6.766   6.313   5.068
12751TIP3    H138194   6.774   6.255   5.144
12751TIP3    H238195   6.825   6.387   5.091
12752TIP3   OH238196   5.731   6.312   5.493
12752TIP3    H138197   5.790   6.388   5.513
12752TIP3    H238198   5.774   6.276   5.412
12753TIP3   OH238199   5.792   7.168   5.602
12753TIP3    H138200   5.769   7.256   5.566
12753TIP3    H238201   5.711   7.154   5.657
12754TIP3   OH238202   6.626   7.376   5.078
12754TIP3    H138203   6.534   7.370   5.115
12754TIP3    H238204   6.621   7.461   5.030
12755TIP3   OH238205   6.917   6.279   5.440
12755TIP3    H138206   6.830   6.307   5.405
12755TIP3    H238207   6.978   6.310   5.370
12756TIP3   OH238208   6.327   7.426   4.752
12756TIP3    H138209   6.374   7.342   4.730
12756TIP3    H238210   6.391   7.489   4.711
12757TIP3   OH238211   6.457   7.206   4.662
12757TIP3    H138212   6.456   7.131   4.601
12757TIP3    H238213   6.501   7.168   4.741
12758TIP3   OH238214   6.852   7.288   5.422
12758TIP3    H138215   6.843   7.213   5.360
12758TIP3    H238216   6.836   7.365   5.362
12759TIP3   OH238217   6.146   6.689   4.676
12759TIP3    H138218   6.067   6.737   4.646
12759TIP3    H238219   6.196   6.678   4.593
12760TIP3   OH238220   6.104   6.468   4.396
12760TIP3    H138221   6.173   6.520   4.440
12760TIP3    H238222   6.160   6.403   4.348
12761TIP3   OH238223   7.048   6.924   5.264
12761TIP3    H138224   6.966   6.979   5.268
12761TIP3    H238225   7.080   6.949   5.175
12762TIP3   OH238226   6.490   6.766   4.651
12762TIP3    H138227   6.439   6.791   4.731
12762TIP3    H238228   6.576   6.741   4.692
12763TIP3   OH238229   6.726   6.806   5.561
12763TIP3    H138230   6.726   6.892   5.607
12763TIP3    H238231   6.641   6.811   5.513
12764TIP3   OH238232   5.725   6.765   5.066
12764TIP3    H138233   5.680   6.703   5.008
12764TIP3    H238234   5.802   6.713   5.098
12765TIP3   OH238235   5.858   7.178   5.215
12765TIP3    H138236   5.835   7.127   5.136
12765TIP3    H238237   5.948   7.145   5.234
12766TIP3   OH238238   5.869   6.732   5.424
12766TIP3    H138239   5.894   6.715   5.332
12766TIP3    H238240   5.905   6.822   5.441
12767TIP3   OH238241   6.382   7.375   5.197
12767TIP3    H138242   6.373   7.455   5.251
12767TIP3    H238243   6.370   7.302   5.260
12768TIP3   OH238244   5.995   7.296   5.747
12768TIP3    H138245   5.929   7.356   5.788
12768TIP3    H238246   5.934   7.239   5.694
12769TIP3   OH238247   6.331   6.626   4.475
12769TIP3    H138248   6.392   6.685   4.526
12769TIP3    H238249   6.359   6.647   4.383
12770TIP3   OH238250   5.754   6.847   5.846
12770TIP3    H138251   5.757   6.934   5.891
12770TIP3    H238252   5.659   6.829   5.851
12771TIP3   OH238253   6.070   7.310   4.757
12771TIP3    H138254   6.153   7.359   4.768
12771TIP3    H238255   6.015   7.373   4.710
12772TIP3   OH238256   5.792   7.468   5.834
12772TIP3    H138257   5.759   7.467   5.742
12772TIP3    H238258   5.712   7.441   5.884
12773TIP3   OH238259   6.849   5.867   4.523
12773TIP3    H138260   6.767   5.887   4.573
12773TIP3    H238261   6.863   5.949   4.473
12774TIP3   OH238262   5.552   6.621   4.854
12774TIP3    H138263   5.545   6.570   4.771
12774TIP3    H238264   5.553   6.549   4.918
12775TIP3   OH238265   5.371   6.990   5.779
12775TIP3    H138266   5.308   6.969   5.708
12775TIP3    H238267   5.408   6.903   5.802
12776TIP3   OH238268   5.228   7.186   5.409
12776TIP3    H138269   5.325   7.177   5.406
12776TIP3    H238270   5.214   7.265   5.462
12777TIP3   OH238271   7.074   7.632   5.447
12777TIP3    H138272   7.085   7.536   5.461
12777TIP3    H238273   6.991   7.650   5.495
12778TIP3   OH238274   6.195   7.419   5.603
12778TIP3    H138275   6.188   7.513   5.630
12778TIP3    H238276   6.120   7.379   5.653
12779TIP3   OH238277   5.952   7.547   4.555
12779TIP3    H138278   5.913   7.531   4.467
12779TIP3    H238279   5.924   7.638   4.575
12780TIP3   OH238280   5.392   7.405   4.932
12780TIP3    H138281   5.443   7.391   5.015
12780TIP3    H238282   5.337   7.323   4.933
12781TIP3   OH238283   6.168   7.439   4.193
12781TIP3    H138284   6.246   7.388   4.166
12781TIP3    H238285   6.192   7.460   4.286
12782TIP3   OH238286   6.205   7.499   4.462
12782TIP3    H138287   6.119   7.507   4.509
12782TIP3    H238288   6.262   7.462   4.531
12783TIP3   OH238289   6.976   6.762   5.741
12783TIP3    H138290   6.902   6.780   5.681
12783TIP3    H238291   6.993   6.667   5.724
12784TIP3   OH238292   5.582   7.168   5.777
12784TIP3    H138293   5.630   7.142   5.858
12784TIP3    H238294   5.504   7.109   5.777
12785TIP3   OH238295   6.504   6.111   5.760
12785TIP3    H138296   6.591   6.085   5.798
12785TIP3    H238297   6.448   6.103   5.838
12786TIP3   OH238298   6.744   6.538   5.659
12786TIP3    H138299   6.698   6.539   5.745
12786TIP3    H238300   6.728   6.628   5.625
12787TIP3   OH238301   6.410   6.670   4.221
12787TIP3    H138302   6.376   6.646   4.133
12787TIP3    H238303   6.485   6.726   4.196
12788TIP3   OH238304   6.121   6.052   4.526
12788TIP3    H138305   6.064   6.060   4.605
12788TIP3    H238306   6.079   5.974   4.485
12789TIP3   OH238307   5.913   6.509   5.569
12789TIP3    H138308   5.858   6.530   5.647
12789TIP3    H238309   5.899   6.591   5.515
12790TIP3   OH238310   5.789   6.406   5.088
12790TIP3    H138311   5.700   6.365   5.102
12790TIP3    H238312   5.807   6.378   4.995
12791TIP3   OH238313   6.285   6.491   4.813
12791TIP3    H138314   6.230   6.559   4.769
12791TIP3    H238315   6.337   6.456   4.738
12792TIP3   OH238316   6.456   6.766   5.898
12792TIP3    H138317   6.436   6.692   5.960
12792TIP3    H238318   6.551   6.778   5.914
12793TIP3   OH238319   6.435   6.516   5.051
12793TIP3    H138320   6.379   6.545   4.976
12793TIP3    H238321   6.472   6.436   5.009
12794TIP3   OH238322   5.734   6.542   5.774
12794TIP3    H138323   5.741   6.607   5.846
12794TIP3    H238324   5.712   6.460   5.823
12795TIP3   OH238325   5.301   6.049   4.883
12795TIP3    H138326   5.343   6.087   4.803
12795TIP3    H238327   5.235   6.119   4.904
12796TIP3   OH238328   6.448   6.759   5.474
12796TIP3    H138329   6.482   6.687   5.417
12796TIP3    H238330   6.418   6.707   5.552
12797TIP3   OH238331   6.118   6.213   5.147
12797TIP3    H138332   6.028   6.212   5.185
12797TIP3    H238333   6.167   6.261   5.214
12798TIP3   OH238334   5.558   6.272   5.149
12798TIP3    H138335   5.466   6.288   5.120
12798TIP3    H238336   5.568   6.177   5.133
12799TIP3   OH238337   5.840   6.324   4.835
12799TIP3    H138338   5.925   6.279   4.819
12799TIP3    H238339   5.783   6.280   4.769
12800TIP3   OH238340   6.615   6.300   5.350
12800TIP3    H138341   6.574   6.310   5.439
12800TIP3    H238342   6.561   6.228   5.314
12801TIP3   OH238343   5.638   6.336   4.621
12801TIP3    H138344   5.581   6.266   4.584
12801TIP3    H238345   5.701   6.349   4.548
12802TIP3   OH238346   6.741   7.968   5.533
12802TIP3    H138347   6.760   8.003   5.443
12802TIP3    H238348   6.802   8.024   5.586
12803TIP3   OH238349   5.741   7.092   5.992
12803TIP3    H138350   5.819   7.128   6.039
12803TIP3    H238351   5.675   7.092   6.064
12804TIP3   OH238352   6.200   6.535   5.235
12804TIP3    H138353   6.278   6.520   5.178
12804TIP3    H238354   6.236   6.514   5.323
12805TIP3   OH238355   5.749   6.035   5.116
12805TIP3    H138356   5.702   5.959   5.154
12805TIP3    H238357   5.765   6.007   5.024
12806TIP3   OH238358   6.162   6.391   5.570
12806TIP3    H138359   6.085   6.451   5.555
12806TIP3    H238360   6.232   6.458   5.587
12807TIP3   OH238361   5.907   6.839   4.618
12807TIP3    H138362   5.844   6.764   4.617
12807TIP3    H238363   5.898   6.870   4.711
12808TIP3   OH238364   6.817   7.073   5.257
12808TIP3    H138365   6.842   7.123   5.176
12808TIP3    H238366   6.732   7.032   5.230
12809TIP3   OH238367   6.374   6.150   4.487
12809TIP3    H138368   6.277   6.131   4.497
12809TIP3    H238369   6.381   6.244   4.512
12810TIP3   OH238370   6.313   7.153   5.624
12810TIP3    H138371   6.333   7.134   5.716
12810TIP3    H238372   6.279   7.245   5.628
12811TIP3   OH238373   6.443   6.399   4.595
12811TIP3    H138374   6.540   6.403   4.606
12811TIP3    H238375   6.425   6.477   4.538
12812TIP3   OH238376   5.614   6.863   5.305
12812TIP3    H138377   5.646   6.827   5.220
12812TIP3    H238378   5.634   6.791   5.367
12813TIP3   OH238379   6.064   6.987   4.446
12813TIP3    H138380   6.016   7.073   4.451
12813TIP3    H238381   6.010   6.933   4.506
12814TIP3   OH238382   5.490   6.777   5.915
12814TIP3    H138383   5.502   6.761   6.011
12814TIP3    H238384   5.416   6.716   5.894
12815TIP3   OH238385   6.212   6.892   5.936
12815TIP3    H138386   6.149   6.836   5.887
12815TIP3    H238387   6.298   6.857   5.904
12816TIP3   OH238388   6.476   7.407   5.524
12816TIP3    H138389   6.379   7.411   5.532
12816TIP3    H238390   6.503   7.468   5.596
12817TIP3   OH238391   6.886   6.487   4.429
12817TIP3    H138392   6.824   6.443   4.367
12817TIP3    H238393   6.883   6.576   4.388
12818TIP3   OH238394   7.100   7.344   5.510
12818TIP3    H138395   7.002   7.340   5.509
12818TIP3    H238396   7.118   7.312   5.418
12819TIP3   OH238397   6.595   7.305   4.323
12819TIP3    H138398   6.566   7.221   4.360
12819TIP3    H238399   6.581   7.291   4.227
12820TIP3   OH238400   6.581   6.934   5.181
12820TIP3    H138401   6.487   6.911   5.188
12820TIP3    H238402   6.616   6.857   5.132
12821TIP3   OH238403   5.684   7.150   4.912
12821TIP3    H138404   5.708   7.232   4.864
12821TIP3    H238405   5.610   7.182   4.964
12822TIP3   OH238406   5.264   6.457   4.626
12822TIP3    H138407   5.296   6.548   4.633
12822TIP3    H238408   5.189   6.458   4.690
12823TIP3   OH238409   5.826   6.921   4.861
12823TIP3    H138410   5.813   7.015   4.885
12823TIP3    H238411   5.819   6.878   4.948
12824TIP3   OH238412   5.973   7.518   5.394
12824TIP3    H138413   6.021   7.581   5.336
12824TIP3    H238414   6.047   7.473   5.437
12825TIP3   OH238415   5.629   7.402   4.780
12825TIP3    H138416   5.543   7.413   4.824
12825TIP3    H238417   5.662   7.495   4.781
12826TIP3   OH238418   6.367   7.140   5.354
12826TIP3    H138419   6.361   7.136   5.452
12826TIP3    H238420   6.448   7.090   5.338
12827TIP3   OH238421   6.325   7.015   4.242
12827TIP3    H138422   6.388   7.003   4.316
12827TIP3    H238423   6.241   7.000   4.286
12828TIP3   OH238424   6.612   7.672   5.402
12828TIP3    H138425   6.529   7.622   5.386
12828TIP3    H238426   6.603   7.743   5.335
12829TIP3   OH238427   5.702   6.286   5.925
12829TIP3    H138428   5.605   6.290   5.929
12829TIP3    H238429   5.720   6.218   5.993
12830TIP3   OH238430   6.499   6.976   4.464
12830TIP3    H138431   6.492   6.903   4.528
12830TIP3    H238432   6.594   6.970   4.441
12831TIP3   OH238433   5.706   7.014   4.247
12831TIP3    H138434   5.726   6.932   4.198
12831TIP3    H238435   5.678   6.978   4.332
12832TIP3   OH238436   5.655   7.010   4.586
12832TIP3    H138437   5.747   7.000   4.558
12832TIP3    H238438   5.634   7.097   4.547
12833TIP3   OH238439   6.531   6.348   5.608
12833TIP3    H138440   6.615   6.390   5.634
12833TIP3    H238441   6.527   6.270   5.668
12834TIP3   OH238442   6.423   6.097   4.767
12834TIP3    H138443   6.398   6.119   4.675
12834TIP3    H238444   6.450   6.184   4.802
12835TIP3   OH238445   5.913   7.211   4.462
12835TIP3    H138446   5.827   7.246   4.492
12835TIP3    H238447   5.936   7.278   4.395
12836TIP3   OH238448   6.124   6.267   4.869
12836TIP3    H138449   6.178   6.346   4.851
12836TIP3    H238450   6.114   6.269   4.965
12837TIP3   OH238451   6.374   6.596   5.680
12837TIP3    H138452   6.388   6.654   5.757
12837TIP3    H238453   6.436   6.523   5.697
12838TIP3   OH238454   6.278   6.023   5.001
12838TIP3    H138455   6.221   6.100   5.017
12838TIP3    H238456   6.320   6.048   4.916
12839TIP3   OH238457   5.653   7.285   4.523
12839TIP3    H138458   5.629   7.356   4.459
12839TIP3    H238459   5.643   7.333   4.608
12840TIP3   OH238460   7.015   6.498   5.665
12840TIP3    H138461   6.917   6.493   5.664
12840TIP3    H238462   7.035   6.470   5.575
12841TIP3   OH238463   6.666   6.695   5.052
12841TIP3    H138464   6.593   6.631   5.056
12841TIP3    H238465   6.739   6.647   5.095
12842TIP3   OH238466   5.326   6.193   4.652
12842TIP3    H138467   5.323   6.290   4.644
12842TIP3    H238468   5.242   6.166   4.615
12843TIP3   OH238469   6.635   7.646   4.998
12843TIP3    H138470   6.593   7.694   4.924
12843TIP3    H238471   6.730   7.667   4.977
12844TIP3   OH238472   5.723   5.922   5.527
12844TIP3    H138473   5.694   5.891   5.438
12844TIP3    H238474   5.707   5.842   5.581
12845TIP3   OH238475   5.271   7.150   4.903
12845TIP3    H138476   5.194   7.147   4.961
12845TIP3    H238477   5.229   7.181   4.820
12846TIP3   OH238478   5.401   7.673   5.980
12846TIP3    H138479   5.490   7.666   6.021
12846TIP3    H238480   5.379   7.579   5.970
12847TIP3   OH238481   5.902   7.641   6.020
12847TIP3    H138482   5.989   7.599   6.018
12847TIP3    H238483   5.858   7.593   5.947
12848TIP3   OH238484   5.871   7.219   4.153
12848TIP3    H138485   5.819   7.144   4.189
12848TIP3    H238486   5.947   7.172   4.113
12849TIP3   OH238487   6.504   7.561   5.758
12849TIP3    H138488   6.505   7.488   5.823
12849TIP3    H238489   6.589   7.606   5.778
12850TIP3   OH238490   5.537   7.083   6.179
12850TIP3    H138491   5.553   6.987   6.181
12850TIP3    H238492   5.450   7.086   6.134
12851TIP3   OH238493   5.515   6.727   4.376
12851TIP3    H138494   5.574   6.680   4.435
12851TIP3    H238495   5.573   6.736   4.297
12852TIP3   OH238496   6.144   7.167   5.951
12852TIP3    H138497   6.102   7.185   5.865
12852TIP3    H238498   6.173   7.073   5.942
12853TIP3   OH238499   6.009   6.929   4.178
12853TIP3    H138500   6.027   6.943   4.273
12853TIP3    H238501   6.019   6.832   4.172
12854TIP3   OH238502   6.637   7.175   5.558
12854TIP3    H138503   6.714   7.217   5.515
12854TIP3    H238504   6.570   7.244   5.543
12855TIP3   OH238505   5.655   6.821   6.161
12855TIP3    H138506   5.724   6.757   6.140
12855TIP3    H238507   5.682   6.851   6.250
12856TIP3   OH238508   5.721   6.628   4.612
12856TIP3    H138509   5.727   6.556   4.677
12856TIP3    H238510   5.750   6.576   4.534
12857TIP3   OH238511   5.996   6.708   5.827
12857TIP3    H138512   5.913   6.760   5.826
12857TIP3    H238513   6.039   6.737   5.744
12858TIP3   OH238514   5.821   6.447   4.434
12858TIP3    H138515   5.797   6.437   4.339
12858TIP3    H238516   5.919   6.440   4.429
12859TIP3   OH238517   6.513   7.107   5.961
12859TIP3    H138518   6.583   7.083   5.900
12859TIP3    H238519   6.507   7.029   6.018
12860TIP3   OH238520   6.647   6.766   4.096
12860TIP3    H138521   6.622   6.725   4.011
12860TIP3    H238522   6.617   6.858   4.078
12861TIP3   OH238523   6.118   6.498   5.947
12861TIP3    H138524   6.083   6.419   5.908
12861TIP3    H238525   6.075   6.569   5.894
12862TIP3   OH238526   6.151   6.815   5.626
12862TIP3    H138527   6.230   6.827   5.573
12862TIP3    H238528   6.090   6.881   5.586
12863TIP3   OH238529   6.737   6.782   6.017
12863TIP3    H138530   6.783   6.697   6.011
12863TIP3    H238531   6.801   6.841   5.974
12864TIP3   OH238532   6.764   7.030   5.745
12864TIP3    H138533   6.709   7.086   5.685
12864TIP3    H238534   6.853   7.053   5.710
12865TIP3   OH238535   5.995   6.605   6.182
12865TIP3    H138536   5.925   6.537   6.194
12865TIP3    H238537   6.025   6.586   6.091
12866TIP3   OH238538   6.377   6.546   6.040
12866TIP3    H138539   6.361   6.534   6.135
12866TIP3    H238540   6.288   6.526   6.005
12867TIP3   OH238541   6.615   6.498   5.895
12867TIP3    H138542   6.540   6.499   5.957
12867TIP3    H238543   6.688   6.465   5.951
12868TIP3   OH238544   6.842   6.435   6.045
12868TIP3    H138545   6.855   6.339   6.062
12868TIP3    H238546   6.841   6.472   6.136
12869TIP3   OH238547   5.835   6.385   6.226
12869TIP3    H138548   5.832   6.293   6.193
12869TIP3    H238549   5.867   6.370   6.318
12870TIP3   OH238550   6.351   6.058   6.042
12870TIP3    H138551   6.422   5.992   6.061
12870TIP3    H238552   6.281   6.000   6.011
12871TIP3   OH238553   6.408   6.262   6.237
12871TIP3    H138554   6.389   6.202   6.163
12871TIP3    H238555   6.333   6.325   6.233
12872TIP3   OH238556   5.631   7.493   4.338
12872TIP3    H138557   5.726   7.491   4.319
12872TIP3    H238558   5.599   7.541   4.260
12873TIP3   OH238559   5.105   6.878   4.530
12873TIP3    H138560   5.200   6.888   4.523
12873TIP3    H238561   5.093   6.784   4.502
12874TIP3   OH238562   5.022   7.488   4.969
12874TIP3    H138563   4.957   7.426   4.931
12874TIP3    H238564   5.069   7.429   5.032
12875TIP3   OH238565   5.156   7.340   5.158
12875TIP3    H138566   5.152   7.257   5.206
12875TIP3    H238567   5.199   7.397   5.223
12876TIP3   OH238568   6.886   7.740   4.955
12876TIP3    H138569   6.916   7.779   5.039
12876TIP3    H238570   6.945   7.782   4.890
12877TIP3   OH238571   6.917   7.753   5.235
12877TIP3    H138572   6.877   7.664   5.225
12877TIP3    H238573   6.988   7.732   5.297
12878TIP3   OH238574   6.909   7.403   5.784
12878TIP3    H138575   6.848   7.430   5.855
12878TIP3    H238576   6.978   7.471   5.787
12879TIP3   OH238577   6.776   6.949   4.431
12879TIP3    H138578   6.840   7.015   4.397
12879TIP3    H238579   6.825   6.913   4.507
12880TIP3   OH238580   6.909   6.817   4.633
12880TIP3    H138581   6.842   6.777   4.692
12880TIP3    H238582   6.972   6.857   4.696
12881TIP3   OH238583   6.958   7.207   5.065
12881TIP3    H138584   7.011   7.144   5.013
12881TIP3    H238585   6.956   7.286   5.007
12882TIP3   OH238586   6.792   7.506   5.264
12882TIP3    H138587   6.720   7.553   5.309
12882TIP3    H238588   6.744   7.461   5.191
12883TIP3   OH238589   6.845   6.725   4.281
12883TIP3    H138590   6.775   6.728   4.211
12883TIP3    H238591   6.817   6.802   4.334
12884TIP3   OH238592   6.717   6.399   4.237
12884TIP3    H138593   6.677   6.441   4.160
12884TIP3    H238594   6.690   6.305   4.225
12885TIP3   OH238595   6.721   6.675   4.782
12885TIP3    H138596   6.729   6.579   4.772
12885TIP3    H238597   6.709   6.686   4.879
12886TIP3   OH238598   5.347   6.750   5.525
12886TIP3    H138599   5.346   6.719   5.432
12886TIP3    H238600   5.444   6.750   5.543
12887TIP3   OH238601   7.008   7.096   5.641
12887TIP3    H138602   7.085   7.035   5.631
12887TIP3    H238603   7.028   7.164   5.575
12888TIP3   OH238604   7.196   6.906   5.674
12888TIP3    H138605   7.120   6.852   5.705
12888TIP3    H238606   7.267   6.839   5.675
12889TIP3   OH238607   6.660   6.133   4.223
12889TIP3    H138608   6.735   6.101   4.277
12889TIP3    H238609   6.587   6.073   4.245
12890TIP3   OH238610   6.719   6.391   4.677
12890TIP3    H138611   6.758   6.301   4.691
12890TIP3    H238612   6.776   6.423   4.605
12891TIP3   OH238613   6.880   6.568   5.171
12891TIP3    H138614   6.966   6.592   5.129
12891TIP3    H238615   6.897   6.604   5.260
12892TIP3   OH238616   6.949   6.709   5.406
12892TIP3    H138617   6.869   6.746   5.448
12892TIP3    H238618   6.982   6.788   5.356
12893TIP3   OH238619   5.568   6.440   6.212
12893TIP3    H138620   5.665   6.427   6.203
12893TIP3    H238621   5.541   6.352   6.244
12894TIP3   OH238622   7.398   6.297   5.958
12894TIP3    H138623   7.459   6.234   5.917
12894TIP3    H238624   7.370   6.353   5.882
12895TIP3   OH238625   6.826   6.140   4.714
12895TIP3    H138626   6.875   6.122   4.796
12895TIP3    H238627   6.765   6.064   4.711
12896TIP3   OH238628   5.541   6.126   5.587
12896TIP3    H138629   5.593   6.048   5.558
12896TIP3    H238630   5.587   6.197   5.541
12897TIP3   OH238631   5.332   6.401   5.617
12897TIP3    H138632   5.343   6.357   5.531
12897TIP3    H238633   5.379   6.484   5.601
12898TIP3   OH238634   7.268   6.438   5.769
12898TIP3    H138635   7.180   6.480   5.780
12898TIP3    H238636   7.245   6.371   5.703
12899TIP3   OH238637   6.910   6.075   4.347
12899TIP3    H138638   6.948   6.003   4.291
12899TIP3    H238639   6.976   6.146   4.337
12900TIP3   OH238640   5.306   5.879   5.091
12900TIP3    H138641   5.227   5.905   5.140
12900TIP3    H238642   5.312   5.952   5.025
12901TIP3   OH238643   6.470   7.606   4.610
12901TIP3    H138644   6.519   7.589   4.526
12901TIP3    H238645   6.528   7.672   4.651
12902TIP3   OH238646   5.537   5.985   5.923
12902TIP3    H138647   5.480   5.981   6.001
12902TIP3    H238648   5.476   6.024   5.857
12903TIP3   OH238649   5.574   7.417   6.009
12903TIP3    H138650   5.490   7.384   5.972
12903TIP3    H238651   5.568   7.384   6.100
12904TIP3   OH238652   5.750   7.436   5.554
12904TIP3    H138653   5.675   7.496   5.533
12904TIP3    H238654   5.819   7.475   5.498
12905TIP3   OH238655   6.211   7.685   5.692
12905TIP3    H138656   6.290   7.651   5.736
12905TIP3    H238657   6.255   7.743   5.626
12906TIP3   OH238658   6.371   7.837   5.536
12906TIP3    H138659   6.443   7.792   5.489
12906TIP3    H238660   6.423   7.893   5.598
12907TIP3   OH238661   7.167   6.201   5.645
12907TIP3    H138662   7.079   6.198   5.604
12907TIP3    H238663   7.198   6.108   5.632
12908TIP3   OH238664   6.090   7.708   5.225
12908TIP3    H138665   6.023   7.725   5.155
12908TIP3    H238666   6.104   7.798   5.262
12909TIP3   OH238667   6.358   7.646   5.279
12909TIP3    H138668   6.266   7.667   5.253
12909TIP3    H238669   6.407   7.717   5.233
12910TIP3   OH238670   6.557   7.834   5.190
12910TIP3    H138671   6.548   7.922   5.146
12910TIP3    H238672   6.590   7.779   5.116
12911TIP3   OH238673   5.535   7.351   5.151
12911TIP3    H138674   5.544   7.280   5.218
12911TIP3    H238675   5.615   7.405   5.167
12912TIP3   OH238676   5.799   7.464   5.170
12912TIP3    H138677   5.829   7.373   5.155
12912TIP3    H238678   5.842   7.482   5.256
12913TIP3   OH238679   6.388   6.094   5.286
12913TIP3    H138680   6.327   6.028   5.253
12913TIP3    H238681   6.448   6.100   5.210
12914TIP3   OH238682   6.900   6.004   5.174
12914TIP3    H138683   6.937   6.049   5.094
12914TIP3    H238684   6.804   6.011   5.158
12915TIP3   OH238685   6.992   6.096   4.933
12915TIP3    H138686   7.064   6.045   4.890
12915TIP3    H238687   7.025   6.188   4.916
12916TIP3   OH238688   5.627   5.829   5.280
12916TIP3    H138689   5.533   5.803   5.279
12916TIP3    H238690   5.670   5.741   5.273
12917TIP3   OH238691   5.410   5.691   4.919
12917TIP3    H138692   5.441   5.753   4.851
12917TIP3    H238693   5.374   5.753   4.987
12918TIP3   OH238694   6.079   5.843   5.157
12918TIP3    H138695   6.112   5.903   5.090
12918TIP3    H238696   6.056   5.901   5.230
12919TIP3   OH238697   6.624   6.005   5.139
12919TIP3    H138698   6.603   5.975   5.050
12919TIP3    H238699   6.599   5.928   5.194
12920TIP3   OH238700   6.643   5.927   4.704
12920TIP3    H138701   6.557   5.971   4.713
12920TIP3    H238702   6.626   5.842   4.749
12921TIP3   OH238703   5.128   7.264   4.707
12921TIP3    H138704   5.044   7.230   4.672
12921TIP3    H238705   5.117   7.358   4.686
12922TIP3   OH238706   5.524   5.853   4.687
12922TIP3    H138707   5.575   5.793   4.630
12922TIP3    H238708   5.597   5.913   4.713
12923TIP3   OH238709   5.902   7.457   4.287
12923TIP3    H138710   5.990   7.476   4.250
12923TIP3    H238711   5.878   7.382   4.228
12924TIP3   OH238712   6.618   7.569   4.382
12924TIP3    H138713   6.615   7.472   4.363
12924TIP3    H238714   6.578   7.604   4.298
12925TIP3   OH238715   5.831   6.111   6.173
12925TIP3    H138716   5.793   6.037   6.224
12925TIP3    H238717   5.925   6.107   6.202
12926TIP3   OH238718   6.082   6.103   6.290
12926TIP3    H138719   6.168   6.071   6.261
12926TIP3    H238720   6.060   6.037   6.359
12927TIP3   OH238721   5.204   7.291   4.344
12927TIP3    H138722   5.206   7.322   4.435
12927TIP3    H238723   5.293   7.251   4.332
12928TIP3   OH238724   6.905   6.164   6.075
12928TIP3    H138725   6.925   6.131   6.165
12928TIP3    H238726   6.992   6.159   6.031
12929TIP3   OH238727   6.835   7.713   5.566
12929TIP3    H138728   6.759   7.680   5.513
12929TIP3    H238729   6.820   7.809   5.553
12930TIP3   OH238730   8.111   7.088   4.334
12930TIP3    H138731   8.081   7.179   4.316
12930TIP3    H238732   8.034   7.038   4.301
12931TIP3   OH238733   8.088   7.097   4.701
12931TIP3    H138734   8.119   7.077   4.791
12931TIP3    H238735   8.058   7.009   4.672
12932TIP3   OH238736   7.408   6.989   5.084
12932TIP3    H138737   7.443   6.920   5.144
12932TIP3    H238738   7.488   7.041   5.067
12933TIP3   OH238739   8.347   7.375   4.396
12933TIP3    H138740   8.347   7.304   4.462
12933TIP3    H238741   8.356   7.453   4.453
12934TIP3   OH238742   7.367   7.390   4.792
12934TIP3    H138743   7.363   7.292   4.797
12934TIP3    H238744   7.456   7.406   4.828
12935TIP3   OH238745   7.086   6.595   4.593
12935TIP3    H138746   7.039   6.680   4.605
12935TIP3    H238747   7.016   6.543   4.550
12936TIP3   OH238748   7.146   6.885   4.762
12936TIP3    H138749   7.196   6.808   4.796
12936TIP3    H238750   7.202   6.915   4.689
12937TIP3   OH238751   7.991   7.859   4.405
12937TIP3    H138752   8.049   7.794   4.359
12937TIP3    H238753   7.990   7.826   4.495
12938TIP3   OH238754   7.898   7.305   4.759
12938TIP3    H138755   7.946   7.232   4.716
12938TIP3    H238756   7.971   7.361   4.789
12939TIP3   OH238757   8.928   6.633   4.775
12939TIP3    H138758   8.922   6.719   4.819
12939TIP3    H238759   8.915   6.655   4.682
12940TIP3   OH238760   8.336   6.825   4.799
12940TIP3    H138761   8.365   6.732   4.815
12940TIP3    H238762   8.294   6.814   4.712
12941TIP3   OH238763   7.657   6.475   4.761
12941TIP3    H138764   7.637   6.548   4.699
12941TIP3    H238765   7.610   6.402   4.716
12942TIP3   OH238766   8.351   6.570   4.385
12942TIP3    H138767   8.424   6.553   4.449
12942TIP3    H238768   8.403   6.598   4.307
12943TIP3   OH238769   7.290   6.677   4.867
12943TIP3    H138770   7.374   6.659   4.914
12943TIP3    H238771   7.304   6.622   4.787
12944TIP3   OH238772   7.732   6.875   4.663
12944TIP3    H138773   7.826   6.851   4.672
12944TIP3    H238774   7.693   6.792   4.628
12945TIP3   OH238775   7.655   6.461   5.195
12945TIP3    H138776   7.595   6.498   5.127
12945TIP3    H238777   7.603   6.481   5.276
12946TIP3   OH238778   7.998   7.309   4.207
12946TIP3    H138779   7.959   7.287   4.122
12946TIP3    H238780   7.959   7.397   4.224
12947TIP3   OH238781   7.766   7.241   4.997
12947TIP3    H138782   7.681   7.292   5.009
12947TIP3    H238783   7.802   7.287   4.918
12948TIP3   OH238784   8.560   6.574   4.556
12948TIP3    H138785   8.562   6.505   4.624
12948TIP3    H238786   8.624   6.638   4.589
12949TIP3   OH238787   7.523   6.573   4.980
12949TIP3    H138788   7.585   6.646   5.003
12949TIP3    H238789   7.572   6.534   4.904
12950TIP3   OH238790   7.546   7.393   5.029
12950TIP3    H138791   7.542   7.486   4.999
12950TIP3    H238792   7.491   7.399   5.111
12951TIP3   OH238793   6.982   7.114   4.332
12951TIP3    H138794   6.946   7.128   4.241
12951TIP3    H238795   7.009   7.204   4.358
12952TIP3   OH238796   8.706   6.521   4.920
12952TIP3    H138797   8.620   6.551   4.886
12952TIP3    H238798   8.770   6.559   4.857
12953TIP3   OH238799   8.013   6.180   4.909
12953TIP3    H138800   7.997   6.084   4.921
12953TIP3    H238801   7.935   6.217   4.955
12954TIP3   OH238802   8.145   7.690   4.247
12954TIP3    H138803   8.184   7.602   4.227
12954TIP3    H238804   8.198   7.742   4.185
12955TIP3   OH238805   8.264   7.460   4.148
12955TIP3    H138806   8.233   7.385   4.095
12955TIP3    H238807   8.292   7.416   4.231
12956TIP3   OH238808   7.941   6.941   4.164
12956TIP3    H138809   7.861   6.993   4.141
12956TIP3    H238810   7.987   6.936   4.078
12957TIP3   OH238811   7.899   6.725   3.881
12957TIP3    H138812   7.967   6.775   3.929
12957TIP3    H238813   7.955   6.660   3.835
12958TIP3   OH238814   8.289   7.021   4.138
12958TIP3    H138815   8.232   7.045   4.216
12958TIP3    H238816   8.369   6.990   4.184
12959TIP3   OH238817   7.520   7.023   4.554
12959TIP3    H138818   7.478   6.966   4.486
12959TIP3    H238819   7.597   6.968   4.581
12960TIP3   OH238820   7.662   7.446   4.692
12960TIP3    H138821   7.622   7.395   4.620
12960TIP3    H238822   7.743   7.395   4.712
12961TIP3   OH238823   7.658   6.996   4.910
12961TIP3    H138824   7.689   6.972   4.820
12961TIP3    H238825   7.705   7.080   4.928
12962TIP3   OH238826   8.127   6.882   3.962
12962TIP3    H138827   8.187   6.940   4.014
12962TIP3    H238828   8.154   6.905   3.870
12963TIP3   OH238829   7.552   7.100   5.332
12963TIP3    H138830   7.565   7.195   5.347
12963TIP3    H238831   7.455   7.092   5.335
12964TIP3   OH238832   7.878   7.566   4.227
12964TIP3    H138833   7.933   7.630   4.274
12964TIP3    H238834   7.808   7.621   4.191
12965TIP3   OH238835   7.386   6.865   4.360
12965TIP3    H138836   7.322   6.912   4.302
12965TIP3    H238837   7.344   6.778   4.367
12966TIP3   OH238838   7.160   7.249   5.268
12966TIP3    H138839   7.101   7.229   5.193
12966TIP3    H238840   7.196   7.161   5.291
12967TIP3   OH238841   7.022   7.436   4.908
12967TIP3    H138842   7.116   7.434   4.885
12967TIP3    H238843   7.015   7.523   4.949
12968TIP3   OH238844   7.763   7.810   4.030
12968TIP3    H138845   7.713   7.787   3.950
12968TIP3    H238846   7.724   7.895   4.055
12969TIP3   OH238847   7.191   7.658   4.422
12969TIP3    H138848   7.237   7.647   4.508
12969TIP3    H238849   7.132   7.581   4.423
12970TIP3   OH238850   7.937   7.672   3.694
12970TIP3    H138851   7.989   7.596   3.663
12970TIP3    H238852   7.978   7.692   3.780
12971TIP3   OH238853   8.018   7.722   3.957
12971TIP3    H138854   7.935   7.771   3.976
12971TIP3    H238855   8.023   7.666   4.036
12972TIP3   OH238856   7.372   7.426   5.239
12972TIP3    H138857   7.411   7.459   5.322
12972TIP3    H238858   7.301   7.365   5.267
12973TIP3   OH238859   7.773   6.254   5.036
12973TIP3    H138860   7.683   6.224   5.010
12973TIP3    H238861   7.750   6.337   5.080
12974TIP3   OH238862   8.303   6.372   5.233
12974TIP3    H138863   8.371   6.334   5.291
12974TIP3    H238864   8.218   6.349   5.277
12975TIP3   OH238865   8.200   6.928   3.707
12975TIP3    H138866   8.170   6.899   3.619
12975TIP3    H238867   8.285   6.970   3.684
12976TIP3   OH238868   7.916   6.308   4.008
12976TIP3    H138869   7.886   6.303   4.101
12976TIP3    H238870   7.882   6.223   3.975
12977TIP3   OH238871   7.701   6.769   5.053
12977TIP3    H138872   7.662   6.797   5.138
12977TIP3    H238873   7.689   6.851   5.000
12978TIP3   OH238874   7.589   6.656   4.571
12978TIP3    H138875   7.495   6.632   4.586
12978TIP3    H238876   7.602   6.617   4.482
12979TIP3   OH238877   8.081   6.743   4.299
12979TIP3    H138878   8.028   6.812   4.255
12979TIP3    H238879   8.135   6.709   4.224
12980TIP3   OH238880   8.235   6.775   4.539
12980TIP3    H138881   8.175   6.801   4.466
12980TIP3    H238882   8.269   6.692   4.498
12981TIP3   OH238883   7.518   6.800   5.267
12981TIP3    H138884   7.565   6.863   5.324
12981TIP3    H238885   7.517   6.720   5.322
12982TIP3   OH238886   7.571   6.275   3.973
12982TIP3    H138887   7.566   6.273   4.071
12982TIP3    H238888   7.492   6.329   3.951
12983TIP3   OH238889   7.115   6.320   4.849
12983TIP3    H138890   7.194   6.353   4.898
12983TIP3    H238891   7.151   6.292   4.764
12984TIP3   OH238892   7.092   6.303   4.367
12984TIP3    H138893   7.137   6.340   4.287
12984TIP3    H238894   7.030   6.377   4.385
12985TIP3   OH238895   8.192   7.026   4.938
12985TIP3    H138896   8.259   6.974   4.890
12985TIP3    H238897   8.191   6.976   5.023
12986TIP3   OH238898   7.915   6.480   4.633
12986TIP3    H138899   7.831   6.476   4.682
12986TIP3    H238900   7.981   6.480   4.704
12987TIP3   OH238901   7.348   6.533   4.642
12987TIP3    H138902   7.254   6.541   4.613
12987TIP3    H238903   7.372   6.442   4.615
12988TIP3   OH238904   7.618   6.532   4.328
12988TIP3    H138905   7.713   6.544   4.308
12988TIP3    H238906   7.574   6.553   4.243
12989TIP3   OH238907   8.406   6.557   4.830
12989TIP3    H138908   8.373   6.564   4.923
12989TIP3    H238909   8.345   6.491   4.793
12990TIP3   OH238910   7.459   6.563   4.107
12990TIP3    H138911   7.386   6.520   4.059
12990TIP3    H238912   7.511   6.599   4.032
12991TIP3   OH238913   8.000   6.807   4.726
12991TIP3    H138914   8.069   6.765   4.671
12991TIP3    H238915   8.013   6.765   4.812
12992TIP3   OH238916   7.525   6.296   4.604
12992TIP3    H138917   7.492   6.215   4.648
12992TIP3    H238918   7.575   6.261   4.529
12993TIP3   OH238919   7.974   6.698   5.024
12993TIP3    H138920   7.885   6.738   5.030
12993TIP3    H238921   8.032   6.768   5.060
12994TIP3   OH238922   7.712   7.095   4.114
12994TIP3    H138923   7.640   7.029   4.103
12994TIP3    H238924   7.694   7.128   4.205
12995TIP3   OH238925   8.165   6.417   3.961
12995TIP3    H138926   8.072   6.394   3.982
12995TIP3    H238927   8.179   6.502   4.006
12996TIP3   OH238928   8.243   6.656   4.081
12996TIP3    H138929   8.340   6.655   4.088
12996TIP3    H238930   8.226   6.733   4.025
12997TIP3   OH238931   7.401   7.111   4.791
12997TIP3    H138932   7.438   7.087   4.703
12997TIP3    H238933   7.448   7.050   4.849
12998TIP3   OH238934   7.856   7.243   3.933
12998TIP3    H138935   7.810   7.330   3.938
12998TIP3    H238936   7.802   7.189   3.994
12999TIP3   OH238937   7.274   7.042   5.408
12999TIP3    H138938   7.314   7.011   5.492
12999TIP3    H238939   7.215   6.968   5.384
13000TIP3   OH238940   8.671   6.738   3.929
13000TIP3    H138941   8.629   6.685   3.858
13000TIP3    H238942   8.674   6.824   3.881
13001TIP3   OH238943   8.365   7.193   4.635
13001TIP3    H138944   8.277   7.166   4.665
13001TIP3    H238945   8.405   7.109   4.608
13002TIP3   OH238946   7.504   7.419   4.412
13002TIP3    H138947   7.502   7.501   4.360
13002TIP3    H238948   7.410   7.402   4.424
13003TIP3   OH238949   7.068   6.724   4.116
13003TIP3    H138950   7.112   6.809   4.134
13003TIP3    H238951   6.990   6.730   4.176
13004TIP3   OH238952   7.646   7.186   4.359
13004TIP3    H138953   7.609   7.275   4.377
13004TIP3    H238954   7.609   7.135   4.434
13005TIP3   OH238955   7.425   7.658   4.268
13005TIP3    H138956   7.339   7.666   4.312
13005TIP3    H238957   7.455   7.752   4.270
13006TIP3   OH238958   8.143   7.270   3.732
13006TIP3    H138959   8.193   7.252   3.815
13006TIP3    H238960   8.054   7.245   3.760
13007TIP3   OH238961   7.498   6.543   5.416
13007TIP3    H138962   7.401   6.545   5.423
13007TIP3    H238963   7.522   6.474   5.479
13008TIP3   OH238964   8.289   7.227   3.960
13008TIP3    H138965   8.283   7.155   4.027
13008TIP3    H238966   8.381   7.214   3.929
13009TIP3   OH238967   7.214   7.619   5.043
13009TIP3    H138968   7.268   7.545   5.075
13009TIP3    H238969   7.225   7.685   5.113
13010TIP3   OH238970   7.502   7.270   3.722
13010TIP3    H138971   7.518   7.177   3.696
13010TIP3    H238972   7.485   7.259   3.818
13011TIP3   OH238973   7.453   7.276   3.994
13011TIP3    H138974   7.520   7.249   4.058
13011TIP3    H238975   7.455   7.374   4.002
13012TIP3   OH238976   7.186   6.972   4.200
13012TIP3    H138977   7.117   7.014   4.255
13012TIP3    H238978   7.196   7.041   4.131
13013TIP3   OH238979   8.343   6.603   5.092
13013TIP3    H138980   8.408   6.636   5.155
13013TIP3    H238981   8.309   6.524   5.139
13014TIP3   OH238982   8.178   6.378   4.258
13014TIP3    H138983   8.201   6.369   4.165
13014TIP3    H238984   8.241   6.447   4.289
13015TIP3   OH238985   7.716   7.475   3.945
13015TIP3    H138986   7.628   7.501   3.979
13015TIP3    H238987   7.732   7.546   3.881
13016TIP3   OH238988   7.899   6.538   4.359
13016TIP3    H138989   7.969   6.603   4.338
13016TIP3    H238990   7.907   6.531   4.456
13017TIP3   OH238991   8.183   6.864   5.154
13017TIP3    H138992   8.158   6.925   5.225
13017TIP3    H238993   8.209   6.786   5.206
13018TIP3   OH238994   8.046   6.267   4.466
13018TIP3    H138995   8.037   6.347   4.521
13018TIP3    H238996   8.098   6.305   4.391
13019TIP3   OH238997   7.458   7.548   4.012
13019TIP3    H138998   7.426   7.616   3.949
13019TIP3    H238999   7.440   7.591   4.098
13020TIP3   OH239000   7.557   6.263   4.251
13020TIP3    H139001   7.557   6.354   4.286
13020TIP3    H239002   7.653   6.242   4.259
13021TIP3   OH239003   8.466   6.938   4.538
13021TIP3    H139004   8.382   6.889   4.544
13021TIP3    H239005   8.527   6.883   4.590
13022TIP3   OH239006   7.180   7.182   4.002
13022TIP3    H139007   7.242   7.256   4.012
13022TIP3    H239008   7.228   7.129   3.935
13023TIP3   OH239009   7.119   6.455   4.141
13023TIP3    H139010   7.119   6.553   4.135
13023TIP3    H239011   7.038   6.433   4.094
13024TIP3   OH239012   7.506   6.176   5.014
13024TIP3    H139013   7.477   6.142   4.926
13024TIP3    H239014   7.496   6.097   5.071
13025TIP3   OH239015   7.049   7.400   4.394
13025TIP3    H139016   6.968   7.426   4.441
13025TIP3    H239017   7.028   7.434   4.304
13026TIP3   OH239018   7.662   7.477   3.641
13026TIP3    H139019   7.607   7.403   3.677
13026TIP3    H239020   7.740   7.428   3.611
13027TIP3   OH239021   8.063   7.468   3.556
13027TIP3    H139022   8.109   7.416   3.626
13027TIP3    H239023   8.131   7.531   3.526
13028TIP3   OH239024   7.345   7.292   5.620
13028TIP3    H139025   7.382   7.203   5.602
13028TIP3    H239026   7.265   7.293   5.565
13029TIP3   OH239027   7.312   6.993   3.855
13029TIP3    H139028   7.364   6.959   3.929
13029TIP3    H239029   7.380   6.997   3.785
13030TIP3   OH239030   7.812   7.186   3.665
13030TIP3    H139031   7.821   7.201   3.761
13030TIP3    H239032   7.815   7.088   3.662
13031TIP3   OH239033   7.462   7.034   5.621
13031TIP3    H139034   7.551   7.004   5.595
13031TIP3    H239035   7.466   7.027   5.717
13032TIP3   OH239036   7.522   6.895   4.082
13032TIP3    H139037   7.492   6.852   4.163
13032TIP3    H239038   7.557   6.819   4.030
13033TIP3   OH239039   7.784   6.943   5.295
13033TIP3    H139040   7.718   7.013   5.310
13033TIP3    H239041   7.846   6.988   5.233
13034TIP3   OH239042   7.618   6.687   3.921
13034TIP3    H139043   7.592   6.690   3.827
13034TIP3    H239044   7.715   6.691   3.915
13035TIP3   OH239045   8.427   7.019   3.583
13035TIP3    H139046   8.419   6.972   3.498
13035TIP3    H239047   8.425   7.112   3.554
13036TIP3   OH239048   7.890   6.736   5.437
13036TIP3    H139049   7.920   6.662   5.380
13036TIP3    H239050   7.868   6.804   5.370
13037TIP3   OH239051   7.916   6.526   5.239
13037TIP3    H139052   7.941   6.574   5.157
13037TIP3    H239053   7.821   6.509   5.223
13038TIP3   OH239054   7.941   7.055   5.099
13038TIP3    H139055   8.018   7.065   5.042
13038TIP3    H239056   7.883   7.128   5.068
13039TIP3   OH239057   7.717   6.875   5.604
13039TIP3    H139058   7.683   6.787   5.631
13039TIP3    H239059   7.780   6.849   5.534
13040TIP3   OH239060   8.049   6.299   5.318
13040TIP3    H139061   8.000   6.380   5.290
13040TIP3    H239062   7.982   6.230   5.302
13041TIP3   OH239063   7.623   6.645   5.721
13041TIP3    H139064   7.629   6.559   5.676
13041TIP3    H239065   7.664   6.624   5.807
13042TIP3   OH239066   8.138   6.293   5.580
13042TIP3    H139067   8.211   6.231   5.563
13042TIP3    H239068   8.100   6.303   5.490
13043TIP3   OH239069   7.422   7.750   3.829
13043TIP3    H139070   7.518   7.747   3.810
13043TIP3    H239071   7.392   7.797   3.749
13044TIP3   OH239072   6.926   7.111   4.067
13044TIP3    H139073   7.012   7.142   4.032
13044TIP3    H239074   6.905   7.037   4.008
13045TIP3   OH239075   6.816   7.748   4.454
13045TIP3    H139076   6.752   7.684   4.416
13045TIP3    H239077   6.862   7.691   4.519
13046TIP3   OH239078   6.953   7.602   4.641
13046TIP3    H139079   6.946   7.523   4.696
13046TIP3    H239080   7.009   7.659   4.696
13047TIP3   OH239081   8.555   7.204   3.913
13047TIP3    H139082   8.624   7.271   3.900
13047TIP3    H239083   8.587   7.160   3.994
13048TIP3   OH239084   8.675   7.092   4.141
13048TIP3    H139085   8.606   7.026   4.163
13048TIP3    H239086   8.726   7.088   4.222
13049TIP3   OH239087   8.633   6.966   3.778
13049TIP3    H139088   8.578   6.972   3.698
13049TIP3    H239089   8.619   7.055   3.814
13050TIP3   OH239090   8.512   6.650   3.718
13050TIP3    H139091   8.457   6.684   3.647
13050TIP3    H239092   8.490   6.554   3.719
13051TIP3   OH239093   8.510   6.917   4.268
13051TIP3    H139094   8.517   6.820   4.256
13051TIP3    H239095   8.497   6.926   4.365
13052TIP3   OH239096   7.144   7.000   5.016
13052TIP3    H139097   7.142   6.974   4.921
13052TIP3    H239098   7.241   7.005   5.031
13053TIP3   OH239099   8.472   6.378   3.726
13053TIP3    H139100   8.528   6.346   3.800
13053TIP3    H239101   8.390   6.329   3.742
13054TIP3   OH239102   8.523   6.640   4.158
13054TIP3    H139103   8.553   6.548   4.156
13054TIP3    H239104   8.579   6.677   4.087
13055TIP3   OH239105   8.696   6.823   4.666
13055TIP3    H139106   8.750   6.881   4.612
13055TIP3    H239107   8.693   6.871   4.750
13056TIP3   OH239108   7.354   6.686   5.681
13056TIP3    H139109   7.452   6.688   5.684
13056TIP3    H239110   7.337   6.602   5.727
13057TIP3   OH239111   7.322   6.384   5.027
13057TIP3    H139112   7.384   6.308   5.030
13057TIP3    H239113   7.384   6.458   5.014
13058TIP3   OH239114   7.127   6.658   5.094
13058TIP3    H139115   7.174   6.647   5.009
13058TIP3    H239116   7.156   6.746   5.120
13059TIP3   OH239117   7.108   6.166   4.597
13059TIP3    H139118   7.013   6.159   4.616
13059TIP3    H239119   7.108   6.221   4.516
13060TIP3   OH239120   7.329   6.241   5.413
13060TIP3    H139121   7.273   6.238   5.492
13060TIP3    H239122   7.267   6.277   5.346
13061TIP3   OH239123   7.548   7.654   4.945
13061TIP3    H139124   7.497   7.734   4.914
13061TIP3    H239125   7.617   7.696   4.997
13062TIP3   OH239126   7.211   7.935   5.033
13062TIP3    H139127   7.123   7.979   5.022
13062TIP3    H239128   7.236   7.968   5.121
13063TIP3   OH239129   7.450   7.891   4.883
13063TIP3    H139130   7.386   7.929   4.946
13063TIP3    H239131   7.447   7.957   4.811
13064TIP3   OH239132   7.131   7.749   4.798
13064TIP3    H139133   7.164   7.738   4.889
13064TIP3    H239134   7.205   7.706   4.749
13065TIP3   OH239135   7.326   7.623   4.655
13065TIP3    H139136   7.342   7.537   4.701
13065TIP3    H239137   7.417   7.656   4.643
13066TIP3   OH239138   7.596   7.716   4.648
13066TIP3    H139139   7.629   7.624   4.647
13066TIP3    H239140   7.591   7.732   4.743
13067TIP3   OH239141   8.175   6.376   4.753
13067TIP3    H139142   8.128   6.304   4.799
13067TIP3    H239143   8.240   6.327   4.699
13068TIP3   OH239144   8.695   6.263   4.672
13068TIP3    H139145   8.735   6.307   4.593
13068TIP3    H239146   8.600   6.267   4.651
13069TIP3   OH239147   8.799   6.368   4.449
13069TIP3    H139148   8.854   6.306   4.395
13069TIP3    H239149   8.813   6.452   4.401
13070TIP3   OH239150   7.419   6.083   4.766
13070TIP3    H139151   7.327   6.052   4.765
13070TIP3    H239152   7.467   5.998   4.760
13071TIP3   OH239153   7.209   5.950   4.412
13071TIP3    H139154   7.238   6.007   4.338
13071TIP3    H239155   7.177   6.016   4.476
13072TIP3   OH239156   7.861   6.114   4.646
13072TIP3    H139157   7.918   6.159   4.581
13072TIP3    H239158   7.886   6.157   4.728
13073TIP3   OH239159   8.415   6.261   4.625
13073TIP3    H139160   8.410   6.227   4.535
13073TIP3    H239161   8.397   6.180   4.679
13074TIP3   OH239162   6.918   7.520   4.189
13074TIP3    H139163   6.841   7.471   4.158
13074TIP3    H239164   6.899   7.610   4.155
13075TIP3   OH239165   7.322   6.109   4.178
13075TIP3    H139166   7.370   6.048   4.118
13075TIP3    H239167   7.395   6.164   4.212
13076TIP3   OH239168   7.835   6.286   4.275
13076TIP3    H139169   7.898   6.238   4.330
13076TIP3    H239170   7.860   6.378   4.299
13077TIP3   OH239171   7.686   7.717   3.773
13077TIP3    H139172   7.776   7.737   3.740
13077TIP3    H239173   7.667   7.640   3.715
13078TIP3   OH239174   7.628   6.369   5.664
13078TIP3    H139175   7.617   6.277   5.694
13078TIP3    H239176   7.725   6.375   5.673
13079TIP3   OH239177   7.881   6.369   5.789
13079TIP3    H139178   7.953   6.340   5.729
13079TIP3    H239179   7.854   6.286   5.833
13080TIP3   OH239180   6.999   7.556   3.830
13080TIP3    H139181   6.988   7.578   3.924
13080TIP3    H239182   7.088   7.514   3.827
13081TIP3   OH239183   8.921   6.597   4.332
13081TIP3    H139184   9.013   6.595   4.357
13081TIP3    H239185   8.922   6.556   4.244
13082TIP3   OH239186   1.370   7.421   6.447
13082TIP3    H139187   1.400   7.502   6.493
13082TIP3    H239188   1.392   7.443   6.355
13083TIP3   OH239189   0.809   7.313   6.069
13083TIP3    H139190   0.869   7.335   6.143
13083TIP3    H239191   0.836   7.378   6.003
13084TIP3   OH239192   1.445   7.614   6.635
13084TIP3    H139193   1.371   7.669   6.602
13084TIP3    H239194   1.447   7.642   6.727
13085TIP3   OH239195   1.006   7.359   6.268
13085TIP3    H139196   1.059   7.284   6.295
13085TIP3    H239197   1.069   7.433   6.272
13086TIP3   OH239198   1.160   7.303   6.590
13086TIP3    H139199   1.078   7.353   6.580
13086TIP3    H239200   1.221   7.348   6.529
13087TIP3   OH239201   1.269   7.964   6.416
13087TIP3    H139202   1.282   8.043   6.470
13087TIP3    H239203   1.300   7.996   6.329
13088TIP3   OH239204   1.110   6.912   5.698
13088TIP3    H139205   1.024   6.923   5.744
13088TIP3    H239206   1.115   6.995   5.647
13089TIP3   OH239207   1.142   7.529   5.599
13089TIP3    H139208   1.077   7.486   5.539
13089TIP3    H239209   1.133   7.620   5.563
13090TIP3   OH239210   1.219   7.478   6.826
13090TIP3    H139211   1.193   7.567   6.851
13090TIP3    H239212   1.270   7.494   6.746
13091TIP3   OH239213   0.912   7.727   6.217
13091TIP3    H139214   0.843   7.671   6.253
13091TIP3    H239215   0.992   7.690   6.261
13092TIP3   OH239216   0.916   7.810   5.257
13092TIP3    H139217   0.865   7.757   5.193
13092TIP3    H239218   0.873   7.896   5.249
13093TIP3   OH239219   1.044   7.993   5.596
13093TIP3    H139220   1.115   8.057   5.582
13093TIP3    H239221   1.069   7.954   5.682
13094TIP3   OH239222   1.161   7.868   5.810
13094TIP3    H139223   1.094   7.816   5.861
13094TIP3    H239224   1.217   7.903   5.881
13095TIP3   OH239225   1.195   8.260   6.247
13095TIP3    H139226   1.254   8.189   6.215
13095TIP3    H239227   1.195   8.322   6.174
13096TIP3   OH239228   1.098   7.766   5.455
13096TIP3    H139229   1.028   7.768   5.386
13096TIP3    H239230   1.068   7.843   5.510
13097TIP3   OH239231   0.973   7.444   5.405
13097TIP3    H139232   0.915   7.482   5.338
13097TIP3    H239233   0.950   7.349   5.396
13098TIP3   OH239234   0.999   7.712   5.957
13098TIP3    H139235   0.983   7.617   5.938
13098TIP3    H239236   0.971   7.719   6.051
13099TIP3   OH239237   0.926   7.176   5.385
13099TIP3    H139238   0.994   7.150   5.450
13099TIP3    H239239   0.846   7.133   5.423
13100TIP3   OH239240   0.978   7.443   5.876
13100TIP3    H139241   1.010   7.350   5.882
13100TIP3    H239242   1.002   7.464   5.785
13101TIP3   OH239243   1.131   7.617   6.345
13101TIP3    H139244   1.217   7.636   6.302
13101TIP3    H239245   1.150   7.651   6.435
13102TIP3   OH239246   1.215   7.749   6.578
13102TIP3    H139247   1.142   7.777   6.636
13102TIP3    H239248   1.229   7.827   6.521
13103TIP3   OH239249   1.656   7.338   7.130
13103TIP3    H139250   1.712   7.275   7.079
13103TIP3    H239251   1.636   7.405   7.062
13104TIP3   OH239252   1.081   7.181   5.885
13104TIP3    H139253   1.122   7.166   5.973
13104TIP3    H239254   1.018   7.106   5.881
13105TIP3   OH239255   1.545   7.479   6.915
13105TIP3    H139256   1.469   7.503   6.970
13105TIP3    H239257   1.510   7.400   6.867
13106TIP3   OH239258   1.164   7.122   5.524
13106TIP3    H139259   1.198   7.048   5.468
13106TIP3    H239260   1.230   7.192   5.509
13107TIP3   OH239261   1.426   7.247   6.818
13107TIP3    H139262   1.333   7.255   6.791
13107TIP3    H239263   1.444   7.152   6.803
13108TIP3   OH239264   1.161   7.044   6.352
13108TIP3    H139265   1.194   7.091   6.271
13108TIP3    H239266   1.063   7.050   6.341
13109TIP3   OH239267   1.241   7.144   6.112
13109TIP3    H139268   1.311   7.091   6.068
13109TIP3    H239269   1.274   7.235   6.091
13110TIP3   OH239270   0.891   7.050   6.327
13110TIP3    H139271   0.844   7.053   6.243
13110TIP3    H239272   0.849   6.974   6.372
13111TIP3   OH239273   0.903   6.961   5.868
13111TIP3    H139274   0.814   6.973   5.831
13111TIP3    H239275   0.886   6.885   5.927
13112TIP3   OH239276   1.142   7.190   7.215
13112TIP3    H139277   1.141   7.212   7.311
13112TIP3    H239278   1.232   7.215   7.188
13113TIP3   OH239279   2.372   8.130   5.493
13113TIP3    H139280   2.339   8.222   5.488
13113TIP3    H239281   2.290   8.080   5.478
13114TIP3   OH239282   2.352   8.131   5.890
13114TIP3    H139283   2.389   8.108   5.978
13114TIP3    H239284   2.314   8.046   5.862
13115TIP3   OH239285   1.659   8.027   6.247
13115TIP3    H139286   1.687   7.950   6.299
13115TIP3    H239287   1.745   8.057   6.212
13116TIP3   OH239288   2.589   8.432   5.560
13116TIP3    H139289   2.587   8.363   5.629
13116TIP3    H239290   2.624   8.507   5.614
13117TIP3   OH239291   1.678   8.405   6.062
13117TIP3    H139292   1.650   8.319   6.023
13117TIP3    H239293   1.736   8.439   5.991
13118TIP3   OH239294   1.337   7.647   5.769
13118TIP3    H139295   1.282   7.727   5.781
13118TIP3    H239296   1.269   7.585   5.737
13119TIP3   OH239297   1.400   7.934   5.941
13119TIP3    H139298   1.444   7.853   5.976
13119TIP3    H239299   1.444   7.945   5.856
13120TIP3   OH239300   2.169   8.359   5.933
13120TIP3    H139301   2.204   8.276   5.896
13120TIP3    H239302   2.254   8.398   5.964
13121TIP3   OH239303   3.169   7.681   5.937
13121TIP3    H139304   3.198   7.763   5.981
13121TIP3    H239305   3.190   7.702   5.844
13122TIP3   OH239306   2.568   7.862   5.974
13122TIP3    H139307   2.610   7.777   5.994
13122TIP3    H239308   2.540   7.848   5.882
13123TIP3   OH239309   1.906   7.521   5.937
13123TIP3    H139310   1.883   7.593   5.874
13123TIP3    H239311   1.860   7.446   5.893
13124TIP3   OH239312   2.599   7.611   5.562
13124TIP3    H139313   2.671   7.592   5.626
13124TIP3    H239314   2.649   7.659   5.494
13125TIP3   OH239315   1.540   7.723   6.043
13125TIP3    H139316   1.622   7.699   6.090
13125TIP3    H239317   1.549   7.666   5.964
13126TIP3   OH239318   1.980   7.920   5.837
13126TIP3    H139319   2.074   7.894   5.850
13126TIP3    H239320   1.940   7.836   5.805
13127TIP3   OH239321   3.243   7.887   6.106
13127TIP3    H139322   3.159   7.935   6.086
13127TIP3    H239323   3.253   7.911   6.200
13128TIP3   OH239324   1.904   7.505   6.371
13128TIP3    H139325   1.842   7.540   6.305
13128TIP3    H239326   1.852   7.520   6.453
13129TIP3   OH239327   2.279   8.357   5.358
13129TIP3    H139328   2.207   8.321   5.305
13129TIP3    H239329   2.244   8.442   5.387
13130TIP3   OH239330   2.018   8.275   6.163
13130TIP3    H139331   1.961   8.341   6.210
13130TIP3    H239332   2.056   8.330   6.093
13131TIP3   OH239333   2.813   7.613   5.728
13131TIP3    H139334   2.803   7.562   5.810
13131TIP3    H239335   2.863   7.691   5.759
13132TIP3   OH239336   1.774   7.619   6.155
13132TIP3    H139337   1.838   7.689   6.179
13132TIP3    H239338   1.821   7.577   6.080
13133TIP3   OH239339   1.837   8.453   6.269
13133TIP3    H139340   1.773   8.434   6.197
13133TIP3    H239341   1.777   8.476   6.342
13134TIP3   OH239342   1.238   8.164   5.491
13134TIP3    H139343   1.180   8.169   5.413
13134TIP3    H239344   1.243   8.259   5.510
13135TIP3   OH239345   2.658   8.639   5.718
13135TIP3    H139346   2.591   8.666   5.783
13135TIP3    H239347   2.695   8.725   5.689
13136TIP3   OH239348   2.961   7.582   6.104
13136TIP3    H139349   2.874   7.610   6.073
13136TIP3    H239350   3.020   7.613   6.032
13137TIP3   OH239351   2.262   7.225   6.085
13137TIP3    H139352   2.248   7.129   6.101
13137TIP3    H239353   2.183   7.262   6.132
13138TIP3   OH239354   2.565   8.462   5.292
13138TIP3    H139355   2.477   8.420   5.295
13138TIP3    H239356   2.595   8.448   5.385
13139TIP3   OH239357   2.893   8.593   6.083
13139TIP3    H139358   2.886   8.516   6.022
13139TIP3    H239359   2.885   8.668   6.023
13140TIP3   OH239360   2.189   7.986   5.336
13140TIP3    H139361   2.104   8.031   5.318
13140TIP3    H239362   2.223   7.971   5.247
13141TIP3   OH239363   2.149   7.769   5.061
13141TIP3    H139364   2.222   7.816   5.105
13141TIP3    H239365   2.199   7.702   5.011
13142TIP3   OH239366   3.093   8.228   5.927
13142TIP3    H139367   3.010   8.280   5.933
13142TIP3    H239368   3.123   8.252   5.837
13143TIP3   OH239369   2.569   8.057   5.326
13143TIP3    H139370   2.490   8.092   5.375
13143TIP3    H239371   2.612   8.017   5.403
13144TIP3   OH239372   2.772   8.108   6.222
13144TIP3    H139373   2.769   8.188   6.277
13144TIP3    H239374   2.685   8.114   6.177
13145TIP3   OH239375   1.775   8.068   5.722
13145TIP3    H139376   1.727   8.008   5.660
13145TIP3    H239377   1.846   8.010   5.755
13146TIP3   OH239378   1.909   8.442   5.899
13146TIP3    H139379   1.895   8.405   5.812
13146TIP3    H239380   2.005   8.426   5.912
13147TIP3   OH239381   1.903   8.036   6.087
13147TIP3    H139382   1.934   8.012   5.997
13147TIP3    H239383   1.951   8.121   6.103
13148TIP3   OH239384   2.434   8.681   5.887
13148TIP3    H139385   2.437   8.711   5.978
13148TIP3    H239386   2.429   8.584   5.903
13149TIP3   OH239387   2.380   7.926   5.138
13149TIP3    H139388   2.434   7.991   5.187
13149TIP3    H239389   2.404   7.947   5.044
13150TIP3   OH239390   1.788   8.120   6.484
13150TIP3    H139391   1.789   8.215   6.461
13150TIP3    H239392   1.695   8.097   6.470
13151TIP3   OH239393   2.894   7.168   5.187
13151TIP3    H139394   2.811   7.186   5.237
13151TIP3    H239395   2.904   7.251   5.136
13152TIP3   OH239396   1.634   7.910   5.536
13152TIP3    H139397   1.567   7.952   5.478
13152TIP3    H239398   1.596   7.823   5.550
13153TIP3   OH239399   3.015   8.864   6.130
13153TIP3    H139400   3.073   8.798   6.171
13153TIP3    H239401   3.049   8.947   6.170
13154TIP3   OH239402   3.027   8.068   6.403
13154TIP3    H139403   2.943   8.081   6.356
13154TIP3    H239404   3.040   7.972   6.392
13155TIP3   OH239405   2.022   7.300   6.212
13155TIP3    H139406   1.933   7.267   6.185
13155TIP3    H239407   1.995   7.381   6.258
13156TIP3   OH239408   2.554   7.415   6.408
13156TIP3    H139409   2.621   7.387   6.472
13156TIP3    H239410   2.469   7.395   6.453
13157TIP3   OH239411   2.797   7.845   6.328
13157TIP3    H139412   2.744   7.839   6.411
13157TIP3    H239413   2.770   7.932   6.292
13158TIP3   OH239414   2.463   7.977   4.889
13158TIP3    H139415   2.420   7.942   4.809
13158TIP3    H239416   2.537   8.026   4.849
13159TIP3   OH239417   2.168   7.349   5.185
13159TIP3    H139418   2.133   7.343   5.276
13159TIP3    H239419   2.128   7.268   5.148
13160TIP3   OH239420   1.954   7.813   6.232
13160TIP3    H139421   1.903   7.832   6.313
13160TIP3    H239422   1.939   7.894   6.179
13161TIP3   OH239423   1.834   7.703   5.747
13161TIP3    H139424   1.742   7.674   5.765
13161TIP3    H239425   1.848   7.661   5.658
13162TIP3   OH239426   2.330   7.792   5.476
13162TIP3    H139427   2.274   7.859   5.430
13162TIP3    H239428   2.380   7.753   5.401
13163TIP3   OH239429   2.498   8.059   6.554
13163TIP3    H139430   2.483   7.990   6.622
13163TIP3    H239431   2.588   8.088   6.576
13164TIP3   OH239432   2.484   7.815   5.713
13164TIP3    H139433   2.422   7.839   5.641
13164TIP3    H239434   2.519   7.732   5.675
13165TIP3   OH239435   1.770   7.833   6.437
13165TIP3    H139436   1.797   7.895   6.506
13165TIP3    H239437   1.760   7.750   6.489
13166TIP3   OH239438   1.824   7.323   5.151
13166TIP3    H139439   1.814   7.317   5.248
13166TIP3    H239440   1.741   7.369   5.126
13167TIP3   OH239441   1.363   7.366   6.026
13167TIP3    H139442   1.445   7.394   6.072
13167TIP3    H239443   1.394   7.334   5.940
13168TIP3   OH239444   1.347   7.349   5.542
13168TIP3    H139445   1.390   7.388   5.463
13168TIP3    H239446   1.281   7.419   5.562
13169TIP3   OH239447   2.492   8.064   6.135
13169TIP3    H139448   2.526   7.990   6.078
13169TIP3    H239449   2.466   8.013   6.214
13170TIP3   OH239450   2.163   7.529   5.808
13170TIP3    H139451   2.079   7.522   5.857
13170TIP3    H239452   2.228   7.521   5.880
13171TIP3   OH239453   1.598   7.578   5.816
13171TIP3    H139454   1.503   7.588   5.788
13171TIP3    H239455   1.616   7.485   5.793
13172TIP3   OH239456   1.869   7.580   5.504
13172TIP3    H139457   1.962   7.589   5.479
13172TIP3    H239458   1.820   7.597   5.421
13173TIP3   OH239459   2.654   7.599   6.007
13173TIP3    H139460   2.621   7.611   6.099
13173TIP3    H239461   2.589   7.535   5.973
13174TIP3   OH239462   1.708   7.611   5.286
13174TIP3    H139463   1.632   7.566   5.245
13174TIP3    H239464   1.756   7.641   5.207
13175TIP3   OH239465   2.247   7.853   5.906
13175TIP3    H139466   2.318   7.808   5.858
13175TIP3    H239467   2.254   7.812   5.994
13176TIP3   OH239468   1.776   7.338   5.783
13176TIP3    H139469   1.737   7.261   5.829
13176TIP3    H239470   1.820   7.296   5.707
13177TIP3   OH239471   2.225   7.748   6.193
13177TIP3    H139472   2.135   7.783   6.208
13177TIP3    H239473   2.282   7.807   6.245
13178TIP3   OH239474   1.961   8.138   5.292
13178TIP3    H139475   1.890   8.070   5.279
13178TIP3    H239476   1.945   8.163   5.386
13179TIP3   OH239477   2.861   8.376   5.921
13179TIP3    H139478   2.887   8.423   5.838
13179TIP3    H239479   2.777   8.333   5.895
13180TIP3   OH239480   2.418   7.450   5.152
13180TIP3    H139481   2.322   7.427   5.160
13180TIP3    H239482   2.420   7.544   5.176
13181TIP3   OH239483   2.334   8.429   6.302
13181TIP3    H139484   2.380   8.398   6.381
13181TIP3    H239485   2.308   8.518   6.330
13182TIP3   OH239486   2.485   7.697   5.261
13182TIP3    H139487   2.582   7.694   5.267
13182TIP3    H239488   2.469   7.771   5.200
13183TIP3   OH239489   1.651   8.152   5.957
13183TIP3    H139490   1.689   8.122   5.873
13183TIP3    H239491   1.678   8.082   6.018
13184TIP3   OH239492   2.091   8.301   5.117
13184TIP3    H139493   2.040   8.376   5.152
13184TIP3    H239494   2.047   8.227   5.164
13185TIP3   OH239495   2.255   8.175   6.599
13185TIP3    H139496   2.202   8.117   6.543
13185TIP3    H239497   2.346   8.149   6.573
13186TIP3   OH239498   2.500   8.655   6.235
13186TIP3    H139499   2.442   8.715   6.189
13186TIP3    H239500   2.555   8.714   6.286
13187TIP3   OH239501   3.148   8.622   6.178
13187TIP3    H139502   3.051   8.624   6.161
13187TIP3    H239503   3.180   8.602   6.087
13188TIP3   OH239504   2.659   8.534   4.988
13188TIP3    H139505   2.596   8.479   5.035
13188TIP3    H239506   2.628   8.533   4.897
13189TIP3   OH239507   2.623   8.240   5.838
13189TIP3    H139508   2.532   8.209   5.853
13189TIP3    H239509   2.661   8.160   5.796
13190TIP3   OH239510   1.745   8.436   5.538
13190TIP3    H139511   1.760   8.528   5.511
13190TIP3    H239512   1.658   8.421   5.498
13191TIP3   OH239513   1.317   7.768   5.293
13191TIP3    H139514   1.360   7.853   5.317
13191TIP3    H239515   1.238   7.770   5.353
13192TIP3   OH239516   1.917   8.224   5.542
13192TIP3    H139517   1.859   8.303   5.546
13192TIP3    H239518   1.876   8.168   5.612
13193TIP3   OH239519   2.418   8.439   6.023
13193TIP3    H139520   2.402   8.434   6.120
13193TIP3    H239521   2.494   8.381   6.013
13194TIP3   OH239522   2.404   8.305   4.884
13194TIP3    H139523   2.431   8.263   4.968
13194TIP3    H239524   2.312   8.332   4.902
13195TIP3   OH239525   1.745   7.586   6.591
13195TIP3    H139526   1.649   7.588   6.606
13195TIP3    H239527   1.774   7.521   6.658
13196TIP3   OH239528   2.562   8.224   5.110
13196TIP3    H139529   2.533   8.208   5.202
13196TIP3    H239530   2.632   8.290   5.126
13197TIP3   OH239531   1.763   8.285   4.913
13197TIP3    H139532   1.774   8.189   4.898
13197TIP3    H239533   1.738   8.290   5.007
13198TIP3   OH239534   1.713   8.327   5.185
13198TIP3    H139535   1.760   8.283   5.256
13198TIP3    H239536   1.698   8.416   5.219
13199TIP3   OH239537   1.437   8.017   5.376
13199TIP3    H139538   1.370   8.059   5.434
13199TIP3    H239539   1.444   8.086   5.307
13200TIP3   OH239540   2.582   7.650   6.267
13200TIP3    H139541   2.660   7.688   6.310
13200TIP3    H239542   2.565   7.570   6.321
13201TIP3   OH239543   2.458   7.403   5.434
13201TIP3    H139544   2.446   7.424   5.339
13201TIP3    H239545   2.498   7.486   5.469
13202TIP3   OH239546   2.155   7.582   5.536
13202TIP3    H139547   2.220   7.654   5.523
13202TIP3    H239548   2.155   7.573   5.634
13203TIP3   OH239549   2.421   7.902   6.341
13203TIP3    H139550   2.440   7.957   6.421
13203TIP3    H239551   2.475   7.823   6.358
13204TIP3   OH239552   2.295   7.312   5.641
13204TIP3    H139553   2.291   7.390   5.699
13204TIP3    H239554   2.355   7.346   5.570
13205TIP3   OH239555   1.807   7.306   5.427
13205TIP3    H139556   1.804   7.395   5.465
13205TIP3    H239557   1.903   7.287   5.435
13206TIP3   OH239558   3.063   7.800   6.323
13206TIP3    H139559   2.965   7.800   6.333
13206TIP3    H239560   3.071   7.758   6.236
13207TIP3   OH239561   2.706   8.004   5.719
13207TIP3    H139562   2.637   7.936   5.721
13207TIP3    H239563   2.784   7.955   5.753
13208TIP3   OH239564   1.427   8.219   5.189
13208TIP3    H139565   1.462   8.309   5.184
13208TIP3    H239566   1.479   8.175   5.118
13209TIP3   OH239567   1.371   7.501   5.313
13209TIP3    H139568   1.363   7.598   5.311
13209TIP3    H239569   1.284   7.473   5.281
13210TIP3   OH239570   1.757   7.220   6.190
13210TIP3    H139571   1.725   7.186   6.103
13210TIP3    H239572   1.745   7.141   6.247
13211TIP3   OH239573   1.561   8.041   5.030
13211TIP3    H139574   1.606   7.998   5.104
13211TIP3    H239575   1.631   8.037   4.961
13212TIP3   OH239576   2.246   8.448   6.625
13212TIP3    H139577   2.159   8.459   6.584
13212TIP3    H239578   2.262   8.352   6.612
13213TIP3   OH239579   2.065   8.232   4.832
13213TIP3    H139580   2.060   8.244   4.928
13213TIP3    H239581   2.068   8.134   4.827
13214TIP3   OH239582   2.689   8.459   6.215
13214TIP3    H139583   2.757   8.512   6.172
13214TIP3    H239584   2.613   8.521   6.218
13215TIP3   OH239585   1.777   7.939   5.263
13215TIP3    H139586   1.738   7.894   5.340
13215TIP3    H239587   1.806   7.862   5.209
13216TIP3   OH239588   2.041   7.993   6.480
13216TIP3    H139589   1.958   8.045   6.474
13216TIP3    H239590   2.093   8.029   6.405
13217TIP3   OH239591   1.865   7.735   5.097
13217TIP3    H139592   1.839   7.733   5.002
13217TIP3    H239593   1.963   7.737   5.089
13218TIP3   OH239594   2.556   8.375   6.589
13218TIP3    H139595   2.647   8.405   6.583
13218TIP3    H239596   2.547   8.353   6.682
13219TIP3   OH239597   2.686   8.076   4.763
13219TIP3    H139598   2.675   8.017   4.686
13219TIP3    H239599   2.665   8.161   4.721
13220TIP3   OH239600   2.161   7.790   6.616
13220TIP3    H139601   2.161   7.710   6.560
13220TIP3    H239602   2.118   7.856   6.557
13221TIP3   OH239603   2.162   7.579   6.418
13221TIP3    H139604   2.189   7.618   6.333
13221TIP3    H239605   2.068   7.556   6.400
13222TIP3   OH239606   2.192   8.107   6.290
13222TIP3    H139607   2.278   8.118   6.248
13222TIP3    H239608   2.141   8.180   6.248
13223TIP3   OH239609   2.777   8.073   6.667
13223TIP3    H139610   2.828   7.991   6.675
13223TIP3    H239611   2.845   8.136   6.642
13224TIP3   OH239612   2.818   8.324   6.406
13224TIP3    H139613   2.755   8.374   6.349
13224TIP3    H239614   2.903   8.349   6.363
13225TIP3   OH239615   2.014   7.917   6.833
13225TIP3    H139616   1.967   7.832   6.846
13225TIP3    H239617   2.065   7.896   6.753
13226TIP3   OH239618   2.294   7.342   6.484
13226TIP3    H139619   2.244   7.424   6.462
13226TIP3    H239620   2.225   7.274   6.472
13227TIP3   OH239621   2.423   7.844   6.702
13227TIP3    H139622   2.412   7.836   6.798
13227TIP3    H239623   2.332   7.820   6.674
13228TIP3   OH239624   2.658   7.790   6.553
13228TIP3    H139625   2.584   7.797   6.617
13228TIP3    H239626   2.732   7.762   6.610
13229TIP3   OH239627   2.892   7.731   6.699
13229TIP3    H139628   2.903   7.635   6.715
13229TIP3    H239629   2.885   7.767   6.790
13230TIP3   OH239630   1.893   7.681   6.897
13230TIP3    H139631   1.892   7.592   6.856
13230TIP3    H239632   1.933   7.660   6.984
13231TIP3   OH239633   2.389   7.351   6.741
13231TIP3    H139634   2.456   7.280   6.735
13231TIP3    H239635   2.349   7.345   6.652
13232TIP3   OH239636   2.456   7.568   6.899
13232TIP3    H139637   2.434   7.496   6.836
13232TIP3    H239638   2.375   7.624   6.894
13233TIP3   OH239639   1.158   8.171   5.179
13233TIP3    H139640   1.253   8.189   5.197
13233TIP3    H239641   1.157   8.076   5.158
13234TIP3   OH239642   3.025   8.752   6.476
13234TIP3    H139643   2.934   8.750   6.510
13234TIP3    H239644   3.051   8.844   6.493
13235TIP3   OH239645   2.843   8.214   5.130
13235TIP3    H139646   2.875   8.264   5.053
13235TIP3    H239647   2.892   8.260   5.200
13236TIP3   OH239648   2.999   8.501   5.726
13236TIP3    H139649   3.057   8.442   5.677
13236TIP3    H239650   3.009   8.585   5.675
13237TIP3   OH239651   2.747   7.725   4.916
13237TIP3    H139652   2.727   7.742   4.823
13237TIP3    H239653   2.735   7.627   4.918
13238TIP3   OH239654   1.389   8.058   6.186
13238TIP3    H139655   1.385   8.024   6.094
13238TIP3    H239656   1.486   8.052   6.202
13239TIP3   OH239657   3.057   8.397   6.304
13239TIP3    H139658   3.129   8.330   6.295
13239TIP3    H239659   3.087   8.466   6.242
13240TIP3   OH239660   3.243   8.206   6.321
13240TIP3    H139661   3.168   8.154   6.359
13240TIP3    H239662   3.316   8.141   6.334
13241TIP3   OH239663   2.705   7.451   4.899
13241TIP3    H139664   2.781   7.408   4.942
13241TIP3    H239665   2.633   7.385   4.907
13242TIP3   OH239666   2.761   7.685   5.318
13242TIP3    H139667   2.786   7.600   5.361
13242TIP3    H239668   2.834   7.689   5.255
13243TIP3   OH239669   2.925   7.866   5.831
13243TIP3    H139670   3.011   7.893   5.793
13243TIP3    H239671   2.936   7.902   5.922
13244TIP3   OH239672   2.992   8.008   6.065
13244TIP3    H139673   2.914   8.042   6.114
13244TIP3    H239674   3.025   8.089   6.020
13245TIP3   OH239675   1.630   7.746   6.861
13245TIP3    H139676   1.727   7.740   6.854
13245TIP3    H239677   1.609   7.652   6.880
13246TIP3   OH239678   3.447   7.600   6.622
13246TIP3    H139679   3.505   7.534   6.579
13246TIP3    H239680   3.416   7.654   6.546
13247TIP3   OH239681   2.866   7.443   5.380
13247TIP3    H139682   2.916   7.427   5.462
13247TIP3    H239683   2.807   7.365   5.377
13248TIP3   OH239684   1.573   7.427   6.198
13248TIP3    H139685   1.634   7.351   6.206
13248TIP3    H239686   1.636   7.501   6.191
13249TIP3   OH239687   1.381   7.694   6.272
13249TIP3    H139688   1.426   7.692   6.186
13249TIP3    H239689   1.391   7.787   6.298
13250TIP3   OH239690   3.317   7.741   6.429
13250TIP3    H139691   3.231   7.782   6.451
13250TIP3    H239692   3.287   7.670   6.369
13251TIP3   OH239693   2.955   7.375   5.008
13251TIP3    H139694   2.991   7.301   4.956
13251TIP3    H239695   3.022   7.445   4.996
13252TIP3   OH239696   1.357   7.219   5.778
13252TIP3    H139697   1.262   7.203   5.796
13252TIP3    H239698   1.354   7.268   5.694
13253TIP3   OH239699   1.579   7.285   6.582
13253TIP3    H139700   1.528   7.279   6.665
13253TIP3    H239701   1.511   7.322   6.522
13254TIP3   OH239702   3.214   7.503   6.306
13254TIP3    H139703   3.123   7.498   6.272
13254TIP3    H239704   3.244   7.410   6.294
13255TIP3   OH239705   2.418   7.418   5.923
13255TIP3    H139706   2.374   7.350   5.977
13255TIP3    H239707   2.489   7.367   5.879
13256TIP3   OH239708   2.945   7.300   5.829
13256TIP3    H139709   2.979   7.352   5.754
13256TIP3    H239710   2.849   7.313   5.822
13257TIP3   OH239711   3.040   7.406   5.592
13257TIP3    H139712   3.112   7.353   5.552
13257TIP3    H239713   3.073   7.497   5.577
13258TIP3   OH239714   1.668   7.129   5.942
13258TIP3    H139715   1.575   7.098   5.940
13258TIP3    H239716   1.715   7.042   5.936
13259TIP3   OH239717   1.466   6.996   5.592
13259TIP3    H139718   1.484   7.053   5.515
13259TIP3    H239719   1.423   7.056   5.653
13260TIP3   OH239720   2.111   7.159   5.820
13260TIP3    H139721   2.171   7.209   5.762
13260TIP3    H239722   2.129   7.198   5.906
13261TIP3   OH239723   2.663   7.305   5.803
13261TIP3    H139724   2.656   7.265   5.715
13261TIP3    H239725   2.647   7.226   5.860
13262TIP3   OH239726   2.688   7.228   5.367
13262TIP3    H139727   2.598   7.265   5.375
13262TIP3    H239728   2.676   7.142   5.415
13263TIP3   OH239729   1.569   7.158   5.349
13263TIP3    H139730   1.617   7.092   5.294
13263TIP3    H239731   1.644   7.208   5.388
13264TIP3   OH239732   2.084   7.333   5.450
13264TIP3    H139733   2.140   7.281   5.509
13264TIP3    H239734   2.110   7.423   5.477
13265TIP3   OH239735   1.877   7.410   6.829
13265TIP3    H139736   1.839   7.339   6.883
13265TIP3    H239737   1.971   7.406   6.859
13266TIP3   OH239738   2.122   7.407   6.954
13266TIP3    H139739   2.207   7.386   6.913
13266TIP3    H239740   2.112   7.333   7.018
13267TIP3   OH239741   2.950   7.462   6.738
13267TIP3    H139742   2.968   7.433   6.830
13267TIP3    H239743   3.039   7.458   6.697
13268TIP3   OH239744   4.156   8.384   5.003
13268TIP3    H139745   4.132   8.477   4.982
13268TIP3    H239746   4.079   8.338   4.966
13269TIP3   OH239747   4.155   8.389   5.373
13269TIP3    H139748   4.183   8.361   5.462
13269TIP3    H239749   4.112   8.309   5.339
13270TIP3   OH239750   3.453   8.288   5.745
13270TIP3    H139751   3.488   8.220   5.806
13270TIP3    H239752   3.531   8.346   5.736
13271TIP3   OH239753   4.386   8.690   5.049
13271TIP3    H139754   4.381   8.622   5.117
13271TIP3    H239755   4.421   8.766   5.102
13272TIP3   OH239756   3.438   8.677   5.521
13272TIP3    H139757   3.425   8.584   5.494
13272TIP3    H239758   3.511   8.703   5.463
13273TIP3   OH239759   3.083   7.912   5.251
13273TIP3    H139760   3.122   7.991   5.292
13273TIP3    H239761   3.080   7.850   5.325
13274TIP3   OH239762   3.192   8.159   5.389
13274TIP3    H139763   3.243   8.104   5.452
13274TIP3    H239764   3.257   8.227   5.366
13275TIP3   OH239765   3.960   8.611   5.427
13275TIP3    H139766   3.998   8.536   5.379
13275TIP3    H239767   4.042   8.655   5.454
13276TIP3   OH239768   4.961   7.933   5.420
13276TIP3    H139769   4.987   8.017   5.465
13276TIP3    H239770   4.985   7.954   5.328
13277TIP3   OH239771   4.363   8.116   5.462
13277TIP3    H139772   4.409   8.032   5.478
13277TIP3    H239773   4.334   8.105   5.369
13278TIP3   OH239774   3.701   7.776   5.426
13278TIP3    H139775   3.683   7.849   5.362
13278TIP3    H239776   3.655   7.703   5.380
13279TIP3   OH239777   4.395   7.870   5.047
13279TIP3    H139778   4.467   7.853   5.112
13279TIP3    H239779   4.448   7.903   4.972
13280TIP3   OH239780   3.339   7.977   5.530
13280TIP3    H139781   3.419   7.962   5.583
13280TIP3    H239782   3.360   7.921   5.452
13281TIP3   OH239783   3.778   8.176   5.322
13281TIP3    H139784   3.872   8.152   5.336
13281TIP3    H239785   3.740   8.092   5.291
13282TIP3   OH239786   5.024   8.137   5.594
13282TIP3    H139787   4.945   8.193   5.578
13282TIP3    H239788   5.062   8.177   5.673
13283TIP3   OH239789   3.700   7.761   5.858
13283TIP3    H139790   3.639   7.799   5.792
13283TIP3    H239791   3.648   7.778   5.940
13284TIP3   OH239792   4.062   8.604   4.865
13284TIP3    H139793   4.007   8.581   4.789
13284TIP3    H239794   4.044   8.699   4.876
13285TIP3   OH239795   3.801   8.538   5.657
13285TIP3    H139796   3.742   8.606   5.696
13285TIP3    H239797   3.841   8.587   5.583
13286TIP3   OH239798   4.606   7.870   5.217
13286TIP3    H139799   4.608   7.815   5.296
13286TIP3    H239800   4.664   7.945   5.242
13287TIP3   OH239801   3.569   7.876   5.645
13287TIP3    H139802   3.632   7.948   5.668
13287TIP3    H239803   3.618   7.835   5.569
13288TIP3   OH239804   3.623   8.740   5.748
13288TIP3    H139805   3.577   8.754   5.664
13288TIP3    H239806   3.545   8.739   5.809
13289TIP3   OH239807   3.011   8.408   4.978
13289TIP3    H139808   2.975   8.455   4.900
13289TIP3    H239809   3.041   8.487   5.025
13290TIP3   OH239810   4.461   8.893   5.209
13290TIP3    H139811   4.389   8.915   5.271
13290TIP3    H239812   4.489   8.982   5.178
13291TIP3   OH239813   4.755   7.837   5.589
13291TIP3    H139814   4.668   7.864   5.555
13291TIP3    H239815   4.816   7.871   5.520
13292TIP3   OH239816   4.057   7.480   5.572
13292TIP3    H139817   4.043   7.384   5.588
13292TIP3    H239818   3.979   7.517   5.618
13293TIP3   OH239819   4.363   8.741   4.783
13293TIP3    H139820   4.319   8.661   4.750
13293TIP3    H239821   4.390   8.711   4.873
13294TIP3   OH239822   4.687   8.849   5.570
13294TIP3    H139823   4.681   8.774   5.506
13294TIP3    H239824   4.675   8.926   5.513
13295TIP3   OH239825   3.987   8.243   4.828
13295TIP3    H139826   3.906   8.292   4.805
13295TIP3    H239827   4.033   8.236   4.742
13296TIP3   OH239828   3.945   8.025   4.547
13296TIP3    H139829   4.013   8.077   4.592
13296TIP3    H239830   4.002   7.961   4.498
13297TIP3   OH239831   4.888   8.484   5.416
13297TIP3    H139832   4.806   8.538   5.419
13297TIP3    H239833   4.921   8.508   5.326
13298TIP3   OH239834   4.333   8.323   4.802
13298TIP3    H139835   4.279   8.345   4.882
13298TIP3    H239836   4.418   8.297   4.844
13299TIP3   OH239837   4.566   8.364   5.711
13299TIP3    H139838   4.564   8.449   5.758
13299TIP3    H239839   4.480   8.368   5.665
13300TIP3   OH239840   3.569   8.324   5.214
13300TIP3    H139841   3.526   8.265   5.148
13300TIP3    H239842   3.645   8.270   5.244
13301TIP3   OH239843   3.677   8.688   5.381
13301TIP3    H139844   3.670   8.688   5.285
13301TIP3    H239845   3.773   8.699   5.395
13302TIP3   OH239846   3.699   8.297   5.569
13302TIP3    H139847   3.735   8.276   5.481
13302TIP3    H239848   3.743   8.382   5.591
13303TIP3   OH239849   4.237   8.926   5.370
13303TIP3    H139850   4.187   8.976   5.435
13303TIP3    H239851   4.226   8.835   5.404
13304TIP3   OH239852   3.832   8.800   5.922
13304TIP3    H139853   3.798   8.886   5.949
13304TIP3    H239854   3.765   8.772   5.856
13305TIP3   OH239855   4.171   8.184   4.626
13305TIP3    H139856   4.232   8.242   4.677
13305TIP3    H239857   4.200   8.204   4.533
13306TIP3   OH239858   3.594   8.404   5.996
13306TIP3    H139859   3.600   8.491   6.040
13306TIP3    H239860   3.498   8.387   6.004
13307TIP3   OH239861   4.690   7.425   4.673
13307TIP3    H139862   4.608   7.445   4.723
13307TIP3    H239863   4.703   7.508   4.623
13308TIP3   OH239864   3.431   8.165   5.020
13308TIP3    H139865   3.367   8.212   4.963
13308TIP3    H239866   3.390   8.078   5.029
13309TIP3   OH239867   3.216   8.547   5.929
13309TIP3    H139868   3.156   8.530   5.854
13309TIP3    H239869   3.251   8.458   5.950
13310TIP3   OH239870   3.078   8.719   5.590
13310TIP3    H139871   3.167   8.735   5.555
13310TIP3    H239872   3.053   8.806   5.625
13311TIP3   OH239873   4.820   9.115   5.615
13311TIP3    H139874   4.872   9.051   5.666
13311TIP3    H239875   4.831   9.195   5.668
13312TIP3   OH239876   4.821   8.320   5.895
13312TIP3    H139877   4.745   8.342   5.839
13312TIP3    H239878   4.835   8.226   5.873
13313TIP3   OH239879   3.418   8.737   5.938
13313TIP3    H139880   3.475   8.695   6.005
13313TIP3    H239881   3.345   8.673   5.927
13314TIP3   OH239882   3.817   7.556   5.699
13314TIP3    H139883   3.728   7.525   5.673
13314TIP3    H239884   3.792   7.638   5.745
13315TIP3   OH239885   4.351   7.675   5.899
13315TIP3    H139886   4.414   7.634   5.960
13315TIP3    H239887   4.264   7.652   5.938
13316TIP3   OH239888   4.586   8.100   5.814
13316TIP3    H139889   4.537   8.107   5.898
13316TIP3    H239890   4.570   8.187   5.772
13317TIP3   OH239891   4.250   8.226   4.372
13317TIP3    H139892   4.217   8.200   4.284
13317TIP3    H239893   4.327   8.280   4.347
13318TIP3   OH239894   3.961   7.607   4.672
13318TIP3    H139895   3.929   7.602   4.763
13318TIP3    H239896   3.925   7.523   4.637
13319TIP3   OH239897   3.748   8.073   5.718
13319TIP3    H139898   3.698   8.095   5.799
13319TIP3    H239899   3.733   8.154   5.664
13320TIP3   OH239900   3.634   7.955   5.234
13320TIP3    H139901   3.539   7.934   5.248
13320TIP3    H239902   3.648   7.917   5.144
13321TIP3   OH239903   4.124   8.042   4.960
13321TIP3    H139904   4.072   8.114   4.918
13321TIP3    H239905   4.179   8.012   4.885
13322TIP3   OH239906   4.298   8.318   6.042
13322TIP3    H139907   4.275   8.255   6.113
13322TIP3    H239908   4.389   8.342   6.067
13323TIP3   OH239909   4.280   8.072   5.202
13323TIP3    H139910   4.222   8.104   5.130
13323TIP3    H239911   4.314   7.991   5.158
13324TIP3   OH239912   3.568   8.100   5.928
13324TIP3    H139913   3.593   8.166   5.994
13324TIP3    H239914   3.558   8.019   5.981
13325TIP3   OH239915   3.617   7.577   4.637
13325TIP3    H139916   3.611   7.575   4.735
13325TIP3    H239917   3.536   7.627   4.615
13326TIP3   OH239918   3.161   7.641   5.495
13326TIP3    H139919   3.237   7.657   5.555
13326TIP3    H239920   3.198   7.583   5.426
13327TIP3   OH239921   3.133   7.609   5.032
13327TIP3    H139922   3.181   7.629   4.949
13327TIP3    H239923   3.090   7.695   5.045
13328TIP3   OH239924   4.292   8.319   5.624
13328TIP3    H139925   4.324   8.246   5.566
13328TIP3    H239926   4.258   8.267   5.700
13329TIP3   OH239927   3.959   7.781   5.296
13329TIP3    H139928   3.877   7.778   5.348
13329TIP3    H239929   4.027   7.781   5.365
13330TIP3   OH239930   3.389   7.829   5.301
13330TIP3    H139931   3.306   7.819   5.253
13330TIP3    H239932   3.433   7.742   5.287
13331TIP3   OH239933   3.664   7.834   4.990
13331TIP3    H139934   3.759   7.845   4.971
13331TIP3    H239935   3.620   7.855   4.905
13332TIP3   OH239936   4.452   7.855   5.501
13332TIP3    H139937   4.408   7.867   5.588
13332TIP3    H239938   4.391   7.793   5.458
13333TIP3   OH239939   3.501   7.866   4.768
13333TIP3    H139940   3.432   7.820   4.717
13333TIP3    H239941   3.555   7.903   4.696
13334TIP3   OH239942   3.581   8.647   6.139
13334TIP3    H139943   3.663   8.682   6.182
13334TIP3    H239944   3.520   8.648   6.215
13335TIP3   OH239945   4.043   8.106   5.391
13335TIP3    H139946   4.116   8.070   5.339
13335TIP3    H239947   4.056   8.064   5.478
13336TIP3   OH239948   3.565   7.599   5.268
13336TIP3    H139949   3.533   7.519   5.314
13336TIP3    H239950   3.620   7.562   5.198
13337TIP3   OH239951   4.019   8.000   5.687
13337TIP3    H139952   3.930   8.040   5.694
13337TIP3    H239953   4.075   8.065   5.733
13338TIP3   OH239954   3.758   8.393   4.779
13338TIP3    H139955   3.684   8.330   4.766
13338TIP3    H239956   3.739   8.427   4.870
13339TIP3   OH239957   4.657   8.630   5.408
13339TIP3    H139958   4.684   8.680   5.327
13339TIP3    H239959   4.572   8.590   5.381
13340TIP3   OH239960   4.215   7.707   4.640
13340TIP3    H139961   4.118   7.692   4.645
13340TIP3    H239962   4.225   7.802   4.662
13341TIP3   OH239963   4.136   8.681   5.788
13341TIP3    H139964   4.170   8.665   5.876
13341TIP3    H239965   4.151   8.776   5.778
13342TIP3   OH239966   4.285   7.956   4.742
13342TIP3    H139967   4.382   7.960   4.757
13342TIP3    H239968   4.269   8.035   4.687
13343TIP3   OH239969   3.430   8.386   5.448
13343TIP3    H139970   3.482   8.381   5.365
13343TIP3    H239971   3.494   8.351   5.512
13344TIP3   OH239972   3.882   8.560   4.600
13344TIP3    H139973   3.840   8.636   4.643
13344TIP3    H239974   3.841   8.486   4.649
13345TIP3   OH239975   3.329   8.335   6.067
13345TIP3    H139976   3.349   8.322   6.161
13345TIP3    H239977   3.260   8.269   6.051
13346TIP3   OH239978   4.054   8.444   6.088
13346TIP3    H139979   3.993   8.393   6.033
13346TIP3    H239980   4.141   8.416   6.052
13347TIP3   OH239981   4.274   8.913   5.719
13347TIP3    H139982   4.269   8.971   5.643
13347TIP3    H239983   4.332   8.968   5.777
13348TIP3   OH239984   4.726   8.044   4.580
13348TIP3    H139985   4.664   8.000   4.517
13348TIP3    H239986   4.725   8.133   4.538
13349TIP3   OH239987   4.942   8.871   5.666
13349TIP3    H139988   4.846   8.880   5.646
13349TIP3    H239989   4.976   8.856   5.575
13350TIP3   OH239990   4.446   8.806   4.473
13350TIP3    H139991   4.426   8.730   4.529
13350TIP3    H239992   4.423   8.776   4.385
13351TIP3   OH239993   4.421   8.491   5.331
13351TIP3    H139994   4.327   8.466   5.338
13351TIP3    H239995   4.457   8.414   5.282
13352TIP3   OH239996   3.544   8.718   5.076
13352TIP3    H139997   3.543   8.805   5.035
13352TIP3    H239998   3.452   8.714   5.106
13353TIP3   OH239999   3.105   8.029   4.782
13353TIP3    H140000   3.166   8.103   4.801
13353TIP3    H240001   3.020   8.069   4.807
13354TIP3   OH240002   3.690   8.489   5.021
13354TIP3    H140003   3.644   8.574   5.038
13354TIP3    H240004   3.659   8.437   5.098
13355TIP3   OH240005   4.212   8.689   5.510
13355TIP3    H140006   4.198   8.681   5.606
13355TIP3    H240007   4.292   8.635   5.497
13356TIP3   OH240008   4.199   8.556   4.371
13356TIP3    H140009   4.235   8.530   4.459
13356TIP3    H240010   4.111   8.589   4.395
13357TIP3   OH240011   3.541   7.843   6.076
13357TIP3    H140012   3.445   7.847   6.089
13357TIP3    H240013   3.568   7.781   6.146
13358TIP3   OH240014   4.342   8.514   4.605
13358TIP3    H140015   4.333   8.447   4.676
13358TIP3    H240016   4.440   8.512   4.594
13359TIP3   OH240017   3.547   8.542   4.399
13359TIP3    H140018   3.571   8.448   4.387
13359TIP3    H240019   3.531   8.548   4.496
13360TIP3   OH240020   3.504   8.569   4.672
13360TIP3    H140021   3.562   8.540   4.743
13360TIP3    H240022   3.490   8.663   4.699
13361TIP3   OH240023   3.227   8.271   4.863
13361TIP3    H140024   3.160   8.319   4.917
13361TIP3    H240025   3.242   8.338   4.793
13362TIP3   OH240026   4.370   7.915   5.763
13362TIP3    H140027   4.461   7.944   5.783
13362TIP3    H240028   4.362   7.831   5.812
13363TIP3   OH240029   4.253   7.661   4.920
13363TIP3    H140030   4.243   7.682   4.825
13363TIP3    H240031   4.293   7.744   4.954
13364TIP3   OH240032   3.946   7.838   5.022
13364TIP3    H140033   4.012   7.909   5.003
13364TIP3    H240034   3.953   7.832   5.120
13365TIP3   OH240035   4.212   8.158   5.827
13365TIP3    H140036   4.237   8.211   5.905
13365TIP3    H240037   4.270   8.080   5.833
13366TIP3   OH240038   4.092   7.568   5.126
13366TIP3    H140039   4.086   7.646   5.184
13366TIP3    H240040   4.151   7.603   5.055
13367TIP3   OH240041   3.602   7.564   4.914
13367TIP3    H140042   3.604   7.655   4.950
13367TIP3    H240043   3.697   7.541   4.922
13368TIP3   OH240044   4.856   8.056   5.816
13368TIP3    H140045   4.758   8.053   5.811
13368TIP3    H240046   4.880   8.027   5.727
13369TIP3   OH240047   4.508   8.252   5.199
13369TIP3    H140048   4.433   8.191   5.210
13369TIP3    H240049   4.581   8.206   5.246
13370TIP3   OH240050   3.214   8.476   4.670
13370TIP3    H140051   3.258   8.561   4.686
13370TIP3    H240052   3.275   8.437   4.604
13371TIP3   OH240053   3.162   7.757   4.806
13371TIP3    H140054   3.157   7.855   4.802
13371TIP3    H240055   3.091   7.730   4.746
13372TIP3   OH240056   3.551   7.477   5.677
13372TIP3    H140057   3.521   7.442   5.590
13372TIP3    H240058   3.542   7.398   5.735
13373TIP3   OH240059   4.396   9.088   5.897
13373TIP3    H140060   4.337   9.042   5.961
13373TIP3    H240061   4.475   9.093   5.952
13374TIP3   OH240062   3.382   8.629   6.327
13374TIP3    H140063   3.403   8.534   6.326
13374TIP3    H240064   3.293   8.630   6.285
13375TIP3   OH240065   3.355   8.290   4.518
13375TIP3    H140066   3.411   8.260   4.593
13375TIP3    H240067   3.423   8.294   4.448
13376TIP3   OH240068   3.998   8.716   6.114
13376TIP3    H140069   3.952   8.741   6.030
13376TIP3    H240070   4.021   8.623   6.097
13377TIP3   OH240071   3.856   8.487   4.319
13377TIP3    H140072   3.859   8.502   4.415
13377TIP3    H240073   3.859   8.389   4.316
13378TIP3   OH240074   4.481   8.722   5.707
13378TIP3    H140075   4.551   8.772   5.660
13378TIP3    H240076   4.407   8.785   5.704
13379TIP3   OH240077   3.497   8.374   6.310
13379TIP3    H140078   3.571   8.317   6.286
13379TIP3    H240079   3.524   8.407   6.398
13380TIP3   OH240080   3.564   8.196   4.744
13380TIP3    H140081   3.540   8.152   4.827
13380TIP3    H240082   3.600   8.122   4.691
13381TIP3   OH240083   3.833   8.259   5.972
13381TIP3    H140084   3.755   8.319   5.973
13381TIP3    H240085   3.882   8.293   5.893
13382TIP3   OH240086   3.663   7.989   4.586
13382TIP3    H140087   3.638   7.991   4.491
13382TIP3    H240088   3.761   7.992   4.579
13383TIP3   OH240089   4.346   8.657   6.105
13383TIP3    H140090   4.430   8.647   6.060
13383TIP3    H240091   4.352   8.593   6.178
13384TIP3   OH240092   4.482   8.328   4.244
13384TIP3    H140093   4.465   8.274   4.165
13384TIP3    H240094   4.458   8.417   4.209
13385TIP3   OH240095   3.961   8.049   6.095
13385TIP3    H140096   3.955   7.969   6.040
13385TIP3    H240097   3.915   8.116   6.039
13386TIP3   OH240098   3.958   7.834   5.907
13386TIP3    H140099   3.985   7.877   5.823
13386TIP3    H240100   3.864   7.812   5.887
13387TIP3   OH240101   3.984   8.370   5.775
13387TIP3    H140102   4.068   8.386   5.730
13387TIP3    H240103   3.929   8.443   5.739
13388TIP3   OH240104   4.572   8.346   6.160
13388TIP3    H140105   4.631   8.273   6.137
13388TIP3    H240106   4.625   8.423   6.133
13389TIP3   OH240107   4.608   8.587   5.899
13389TIP3    H140108   4.550   8.638   5.837
13389TIP3    H240109   4.695   8.608   5.858
13390TIP3   OH240110   3.836   8.160   6.329
13390TIP3    H140111   3.766   8.093   6.342
13390TIP3    H240112   3.867   8.139   6.239
13391TIP3   OH240113   4.092   7.599   5.971
13391TIP3    H140114   4.040   7.680   5.948
13391TIP3    H240115   4.024   7.530   5.959
13392TIP3   OH240116   4.215   8.102   6.189
13392TIP3    H140117   4.188   8.092   6.282
13392TIP3    H240118   4.129   8.079   6.148
13393TIP3   OH240119   4.455   8.058   6.055
13393TIP3    H140120   4.369   8.081   6.094
13393TIP3    H240121   4.466   7.968   6.086
13394TIP3   OH240122   3.673   7.943   6.379
13394TIP3    H140123   3.677   7.851   6.345
13394TIP3    H240124   3.707   7.930   6.470
13395TIP3   OH240125   4.189   7.611   6.227
13395TIP3    H140126   4.252   7.537   6.222
13395TIP3    H240127   4.146   7.604   6.140
13396TIP3   OH240128   4.255   7.827   6.380
13396TIP3    H140129   4.230   7.753   6.319
13396TIP3    H240130   4.174   7.883   6.378
13397TIP3   OH240131   2.945   8.412   4.680
13397TIP3    H140132   3.036   8.446   4.688
13397TIP3    H240133   2.958   8.322   4.645
13398TIP3   OH240134   4.819   9.010   5.953
13398TIP3    H140135   4.740   9.001   6.011
13398TIP3    H240136   4.868   9.080   5.996
13399TIP3   OH240137   4.617   8.509   4.581
13399TIP3    H140138   4.684   8.573   4.549
13399TIP3    H240139   4.664   8.471   4.659
13400TIP3   OH240140   4.746   8.377   4.782
13400TIP3    H140141   4.682   8.335   4.844
13400TIP3    H240142   4.814   8.413   4.843
13401TIP3   OH240143   4.798   8.760   5.217
13401TIP3    H140144   4.854   8.701   5.163
13401TIP3    H240145   4.804   8.843   5.165
13402TIP3   OH240146   4.685   8.284   4.430
13402TIP3    H140147   4.614   8.287   4.363
13402TIP3    H240148   4.659   8.359   4.486
13403TIP3   OH240149   4.556   7.959   4.387
13403TIP3    H140150   4.518   7.994   4.306
13403TIP3    H240151   4.531   7.864   4.380
13404TIP3   OH240152   4.561   8.232   4.931
13404TIP3    H140153   4.571   8.136   4.924
13404TIP3    H240154   4.550   8.245   5.028
13405TIP3   OH240155   3.190   8.300   5.675
13405TIP3    H140156   3.191   8.285   5.579
13405TIP3    H240157   3.287   8.304   5.693
13406TIP3   OH240158   4.848   8.651   5.793
13406TIP3    H140159   4.923   8.588   5.783
13406TIP3    H240160   4.875   8.723   5.733
13407TIP3   OH240161   5.035   8.461   5.810
13407TIP3    H140162   4.962   8.408   5.850
13407TIP3    H240163   5.110   8.399   5.822
13408TIP3   OH240164   4.499   7.694   4.377
13408TIP3    H140165   4.577   7.660   4.425
13408TIP3    H240166   4.430   7.629   4.396
13409TIP3   OH240167   4.559   7.948   4.826
13409TIP3    H140168   4.598   7.859   4.841
13409TIP3    H240169   4.617   7.980   4.755
13410TIP3   OH240170   4.722   8.126   5.321
13410TIP3    H140171   4.807   8.151   5.280
13410TIP3    H240172   4.736   8.162   5.411
13411TIP3   OH240173   4.786   8.270   5.556
13411TIP3    H140174   4.706   8.308   5.599
13411TIP3    H240175   4.820   8.348   5.507
13412TIP3   OH240176   3.407   7.993   6.352
13412TIP3    H140177   3.504   7.985   6.352
13412TIP3    H240178   3.382   7.908   6.393
13413TIP3   OH240179   5.243   7.856   6.112
13413TIP3    H140180   5.300   7.788   6.068
13413TIP3    H240181   5.211   7.908   6.035
13414TIP3   OH240182   4.666   7.698   4.864
13414TIP3    H140183   4.716   7.682   4.947
13414TIP3    H240184   4.607   7.620   4.863
13415TIP3   OH240185   3.365   7.682   5.679
13415TIP3    H140186   3.427   7.607   5.691
13415TIP3    H240187   3.427   7.757   5.676
13416TIP3   OH240188   3.173   7.959   5.756
13416TIP3    H140189   3.223   7.954   5.672
13416TIP3    H240190   3.198   8.046   5.788
13417TIP3   OH240191   5.114   7.994   5.914
13417TIP3    H140192   5.025   8.034   5.927
13417TIP3    H240193   5.090   7.924   5.850
13418TIP3   OH240194   4.750   7.633   4.495
13418TIP3    H140195   4.788   7.560   4.442
13418TIP3    H240196   4.818   7.703   4.487
13419TIP3   OH240197   3.153   7.470   5.262
13419TIP3    H140198   3.059   7.453   5.281
13419TIP3    H240199   3.148   7.523   5.179
13420TIP3   OH240200   3.375   7.544   6.072
13420TIP3    H140201   3.323   7.536   6.154
13420TIP3    H240202   3.307   7.580   6.011
13421TIP3   OH240203   3.465   8.956   6.163
13421TIP3    H140204   3.436   8.876   6.117
13421TIP3    H240205   3.453   8.935   6.257
13422TIP3   OH240206   5.012   7.757   5.790
13422TIP3    H140207   4.920   7.752   5.757
13422TIP3    H240208   5.040   7.663   5.782
13423TIP3   OH240209   4.216   7.675   5.412
13423TIP3    H140210   4.171   7.605   5.462
13423TIP3    H240211   4.286   7.627   5.365
13424TIP3   OH240212   4.741   7.559   5.321
13424TIP3    H140213   4.777   7.607   5.242
13424TIP3    H240214   4.645   7.570   5.310
13425TIP3   OH240215   4.834   7.655   5.082
13425TIP3    H140216   4.906   7.604   5.040
13425TIP3    H240217   4.867   7.747   5.065
13426TIP3   OH240218   3.464   7.384   5.428
13426TIP3    H140219   3.372   7.350   5.430
13426TIP3    H240220   3.513   7.299   5.424
13427TIP3   OH240221   3.251   7.250   5.073
13427TIP3    H140222   3.283   7.307   5.001
13427TIP3    H240223   3.224   7.316   5.140
13428TIP3   OH240224   3.904   7.419   5.308
13428TIP3    H140225   3.964   7.466   5.248
13428TIP3    H240226   3.930   7.455   5.394
13429TIP3   OH240227   4.458   7.562   5.291
13429TIP3    H140228   4.454   7.526   5.202
13429TIP3    H240229   4.442   7.481   5.346
13430TIP3   OH240230   4.484   7.484   4.854
13430TIP3    H140231   4.396   7.523   4.861
13430TIP3    H240232   4.470   7.399   4.901
13431TIP3   OH240233   3.367   7.414   4.840
13431TIP3    H140234   3.413   7.349   4.783
13431TIP3    H240235   3.442   7.466   4.874
13432TIP3   OH240236   3.879   7.588   4.938
13432TIP3    H140237   3.939   7.538   4.996
13432TIP3    H240238   3.904   7.679   4.963
13433TIP3   OH240239   3.673   7.667   6.320
13433TIP3    H140240   3.637   7.595   6.375
13433TIP3    H240241   3.767   7.665   6.347
13434TIP3   OH240242   3.923   7.662   6.439
13434TIP3    H140243   4.004   7.629   6.397
13434TIP3    H240244   3.907   7.593   6.507
13435TIP3   OH240245   5.953   8.641   4.489
13435TIP3    H140246   5.927   8.733   4.470
13435TIP3    H240247   5.876   8.594   4.453
13436TIP3   OH240248   5.943   8.647   4.860
13436TIP3    H140249   5.975   8.620   4.949
13436TIP3    H240250   5.907   8.563   4.827
13437TIP3   OH240251   5.252   8.548   5.231
13437TIP3    H140252   5.291   8.482   5.289
13437TIP3    H240253   5.327   8.606   5.214
13438TIP3   OH240254   6.181   8.945   4.533
13438TIP3    H140255   6.180   8.876   4.601
13438TIP3    H240256   6.214   9.021   4.587
13439TIP3   OH240257   5.249   8.920   5.011
13439TIP3    H140258   5.228   8.828   4.985
13439TIP3    H240259   5.321   8.940   4.947
13440TIP3   OH240260   4.927   8.154   4.742
13440TIP3    H140261   4.881   8.238   4.756
13440TIP3    H240262   4.855   8.101   4.702
13441TIP3   OH240263   4.984   8.439   4.907
13441TIP3    H140264   5.034   8.365   4.947
13441TIP3    H240265   5.049   8.476   4.845
13442TIP3   OH240266   5.758   8.868   4.912
13442TIP3    H140267   5.797   8.789   4.870
13442TIP3    H240268   5.841   8.915   4.934
13443TIP3   OH240269   6.754   8.168   4.889
13443TIP3    H140270   6.774   8.247   4.944
13443TIP3    H240271   6.779   8.200   4.801
13444TIP3   OH240272   6.158   8.378   4.947
13444TIP3    H140273   6.204   8.294   4.969
13444TIP3    H240274   6.131   8.359   4.855
13445TIP3   OH240275   5.498   8.031   4.914
13445TIP3    H140276   5.479   8.106   4.853
13445TIP3    H240277   5.451   7.959   4.867
13446TIP3   OH240278   6.192   8.126   4.534
13446TIP3    H140279   6.263   8.108   4.600
13446TIP3    H240280   6.246   8.159   4.460
13447TIP3   OH240281   5.132   8.236   5.017
13447TIP3    H140282   5.215   8.217   5.065
13447TIP3    H240283   5.146   8.180   4.937
13448TIP3   OH240284   5.573   8.433   4.809
13448TIP3    H140285   5.667   8.408   4.823
13448TIP3    H240286   5.535   8.349   4.778
13449TIP3   OH240287   6.798   8.356   5.072
13449TIP3    H140288   6.725   8.421   5.075
13449TIP3    H240289   6.840   8.369   5.158
13450TIP3   OH240290   5.858   8.862   4.353
13450TIP3    H140291   5.805   8.835   4.277
13450TIP3    H240292   5.842   8.956   4.360
13451TIP3   OH240293   5.599   8.795   5.144
13451TIP3    H140294   5.535   8.861   5.179
13451TIP3    H240295   5.639   8.844   5.070
13452TIP3   OH240296   6.401   8.125   4.704
13452TIP3    H140297   6.407   8.075   4.786
13452TIP3    H240298   6.455   8.204   4.724
13453TIP3   OH240299   5.362   8.132   5.130
13453TIP3    H140300   5.428   8.196   5.164
13453TIP3    H240301   5.414   8.092   5.057
13454TIP3   OH240302   5.413   8.996   5.227
13454TIP3    H140303   5.364   9.004   5.143
13454TIP3    H240304   5.337   8.992   5.289
13455TIP3   OH240305   4.817   8.670   4.464
13455TIP3    H140306   4.775   8.695   4.379
13455TIP3    H240307   4.832   8.760   4.498
13456TIP3   OH240308   6.249   9.154   4.688
13456TIP3    H140309   6.183   9.173   4.758
13456TIP3    H240310   6.279   9.243   4.664
13457TIP3   OH240311   6.555   8.086   5.073
13457TIP3    H140312   6.471   8.126   5.047
13457TIP3    H240313   6.615   8.114   5.001
13458TIP3   OH240314   5.856   7.734   5.060
13458TIP3    H140315   5.838   7.639   5.076
13458TIP3    H240316   5.778   7.774   5.106
13459TIP3   OH240317   6.159   8.998   4.269
13459TIP3    H140318   6.118   8.917   4.235
13459TIP3    H240319   6.185   8.969   4.360
13460TIP3   OH240320   5.783   8.501   4.314
13460TIP3    H140321   5.701   8.547   4.287
13460TIP3    H240322   5.830   8.491   4.229
13461TIP3   OH240323   5.740   8.282   4.033
13461TIP3    H140324   5.810   8.333   4.079
13461TIP3    H240325   5.796   8.217   3.986
13462TIP3   OH240326   6.683   8.725   4.875
13462TIP3    H140327   6.604   8.780   4.897
13462TIP3    H240328   6.712   8.769   4.793
13463TIP3   OH240329   6.130   8.580   4.288
13463TIP3    H140330   6.076   8.602   4.368
13463TIP3    H240331   6.214   8.553   4.331
13464TIP3   OH240332   6.343   8.583   5.176
13464TIP3    H140333   6.414   8.651   5.186
13464TIP3    H240334   6.282   8.624   5.112
13465TIP3   OH240335   5.367   8.581   4.698
13465TIP3    H140336   5.321   8.522   4.635
13465TIP3    H240337   5.440   8.525   4.731
13466TIP3   OH240338   5.487   8.945   4.867
13466TIP3    H140339   5.497   8.909   4.779
13466TIP3    H240340   5.581   8.955   4.893
13467TIP3   OH240341   5.497   8.552   5.057
13467TIP3    H140342   5.532   8.529   4.969
13467TIP3    H240343   5.541   8.637   5.077
13468TIP3   OH240344   6.030   9.188   4.860
13468TIP3    H140345   6.008   9.228   4.945
13468TIP3    H240346   6.025   9.093   4.885
13469TIP3   OH240347   5.568   9.046   5.461
13469TIP3    H140348   5.560   9.142   5.450
13469TIP3    H240349   5.529   9.016   5.376
13470TIP3   OH240350   5.967   8.442   4.113
13470TIP3    H140351   6.028   8.499   4.165
13470TIP3    H240352   5.996   8.462   4.021
13471TIP3   OH240353   5.390   8.653   5.481
13471TIP3    H140354   5.398   8.740   5.526
13471TIP3    H240355   5.293   8.640   5.487
13472TIP3   OH240356   6.495   7.701   4.178
13472TIP3    H140357   6.405   7.713   4.212
13472TIP3    H240358   6.500   7.764   4.104
13473TIP3   OH240359   5.226   8.423   4.509
13473TIP3    H140360   5.160   8.466   4.451
13473TIP3    H240361   5.188   8.335   4.521
13474TIP3   OH240362   5.013   8.804   5.416
13474TIP3    H140363   4.951   8.792   5.341
13474TIP3    H240364   5.047   8.714   5.431
13475TIP3   OH240365   4.877   8.978   5.076
13475TIP3    H140366   4.967   9.001   5.049
13475TIP3    H240367   4.840   9.065   5.097
13476TIP3   OH240368   5.216   8.992   5.423
13476TIP3    H140369   5.270   8.945   5.488
13476TIP3    H240370   5.140   8.931   5.411
13477TIP3   OH240371   5.628   7.830   5.177
13477TIP3    H140372   5.547   7.779   5.194
13477TIP3    H240373   5.592   7.918   5.163
13478TIP3   OH240374   6.146   7.926   5.385
13478TIP3    H140375   6.222   7.902   5.442
13478TIP3    H240376   6.068   7.909   5.441
13479TIP3   OH240377   6.371   8.336   5.293
13479TIP3    H140378   6.336   8.345   5.385
13479TIP3    H240379   6.360   8.426   5.256
13480TIP3   OH240380   6.047   8.485   3.860
13480TIP3    H140381   6.012   8.457   3.773
13480TIP3    H240382   6.125   8.537   3.833
13481TIP3   OH240383   5.757   7.864   4.159
13481TIP3    H140384   5.725   7.859   4.250
13481TIP3    H240385   5.722   7.781   4.123
13482TIP3   OH240386   5.546   8.327   5.208
13482TIP3    H140387   5.496   8.350   5.288
13482TIP3    H240388   5.531   8.406   5.152
13483TIP3   OH240389   5.429   8.213   4.722
13483TIP3    H140390   5.336   8.187   4.738
13483TIP3    H240391   5.443   8.173   4.633
13484TIP3   OH240392   5.920   8.300   4.446
13484TIP3    H140393   5.868   8.371   4.404
13484TIP3    H240394   5.975   8.268   4.372
13485TIP3   OH240395   6.090   8.578   5.526
13485TIP3    H140396   6.076   8.511   5.595
13485TIP3    H240397   6.169   8.624   5.560
13486TIP3   OH240398   6.075   8.329   4.688
13486TIP3    H140399   6.017   8.357   4.614
13486TIP3    H240400   6.111   8.247   4.646
13487TIP3   OH240401   5.363   8.363   5.413
13487TIP3    H140402   5.386   8.432   5.478
13487TIP3    H240403   5.302   8.306   5.462
13488TIP3   OH240404   5.413   7.834   4.124
13488TIP3    H140405   5.407   7.832   4.221
13488TIP3    H240406   5.333   7.884   4.100
13489TIP3   OH240407   4.957   7.879   4.998
13489TIP3    H140408   5.034   7.912   5.048
13489TIP3    H240409   4.994   7.849   4.914
13490TIP3   OH240410   4.933   7.860   4.517
13490TIP3    H140411   4.979   7.897   4.438
13490TIP3    H240412   4.872   7.934   4.536
13491TIP3   OH240413   6.055   8.573   5.104
13491TIP3    H140414   6.100   8.503   5.051
13491TIP3    H240415   6.045   8.525   5.188
13492TIP3   OH240416   5.755   8.037   4.781
13492TIP3    H140417   5.673   8.035   4.835
13492TIP3    H240418   5.823   8.038   4.850
13493TIP3   OH240419   5.190   8.091   4.791
13493TIP3    H140420   5.096   8.098   4.763
13493TIP3    H240421   5.213   7.999   4.766
13494TIP3   OH240422   5.460   8.090   4.478
13494TIP3    H140423   5.555   8.102   4.458
13494TIP3    H240424   5.416   8.111   4.393
13495TIP3   OH240425   6.245   8.115   4.985
13495TIP3    H140426   6.207   8.126   5.074
13495TIP3    H240427   6.183   8.051   4.945
13496TIP3   OH240428   5.299   8.123   4.257
13496TIP3    H140429   5.227   8.078   4.209
13496TIP3    H240430   5.351   8.158   4.181
13497TIP3   OH240431   5.377   8.891   5.619
13497TIP3    H140432   5.445   8.961   5.621
13497TIP3    H240433   5.324   8.906   5.700
13498TIP3   OH240434   5.839   8.362   4.876
13498TIP3    H140435   5.914   8.327   4.825
13498TIP3    H240436   5.854   8.323   4.964
13499TIP3   OH240437   5.364   7.854   4.754
13499TIP3    H140438   5.333   7.774   4.800
13499TIP3    H240439   5.417   7.817   4.682
13500TIP3   OH240440   5.818   8.253   5.171
13500TIP3    H140441   5.728   8.284   5.189
13500TIP3    H240442   5.874   8.311   5.226
13501TIP3   OH240443   5.551   8.653   4.261
13501TIP3    H140444   5.481   8.585   4.252
13501TIP3    H240445   5.540   8.678   4.356
13502TIP3   OH240446   6.454   8.872   4.899
13502TIP3    H140447   6.480   8.934   4.828
13502TIP3    H240448   6.365   8.846   4.872
13503TIP3   OH240449   6.012   7.964   4.126
13503TIP3    H140450   5.915   7.948   4.132
13503TIP3    H240451   6.021   8.058   4.150
13504TIP3   OH240452   5.954   8.947   5.245
13504TIP3    H140453   5.986   8.910   5.329
13504TIP3    H240454   5.901   9.023   5.276
13505TIP3   OH240455   6.081   8.212   4.229
13505TIP3    H140456   6.177   8.214   4.247
13505TIP3    H240457   6.067   8.291   4.174
13506TIP3   OH240458   5.237   8.649   4.934
13506TIP3    H140459   5.283   8.631   4.850
13506TIP3    H240460   5.290   8.597   4.997
13507TIP3   OH240461   5.680   8.818   4.084
13507TIP3    H140462   5.637   8.892   4.130
13507TIP3    H240463   5.639   8.742   4.132
13508TIP3   OH240464   5.126   8.586   5.550
13508TIP3    H140465   5.146   8.577   5.646
13508TIP3    H240466   5.050   8.528   5.539
13509TIP3   OH240467   5.843   8.696   5.566
13509TIP3    H140468   5.797   8.640   5.502
13509TIP3    H240469   5.935   8.665   5.556
13510TIP3   OH240470   6.524   8.299   4.065
13510TIP3    H140471   6.461   8.254   4.004
13510TIP3    H240472   6.520   8.388   4.024
13511TIP3   OH240473   6.244   9.061   3.959
13511TIP3    H140474   6.222   8.987   4.016
13511TIP3    H240475   6.216   9.032   3.872
13512TIP3   OH240476   6.209   8.747   4.821
13512TIP3    H140477   6.116   8.717   4.821
13512TIP3    H240478   6.252   8.673   4.772
13513TIP3   OH240479   5.343   8.951   4.513
13513TIP3    H140480   5.361   9.042   4.485
13513TIP3    H240481   5.252   8.942   4.482
13514TIP3   OH240482   4.909   8.282   4.266
13514TIP3    H140483   4.955   8.365   4.288
13514TIP3    H240484   4.832   8.286   4.327
13515TIP3   OH240485   5.505   8.734   4.513
13515TIP3    H140486   5.451   8.815   4.518
13515TIP3    H240487   5.467   8.681   4.586
13516TIP3   OH240488   6.015   8.945   4.983
13516TIP3    H140489   5.994   8.934   5.079
13516TIP3    H240490   6.087   8.881   4.970
13517TIP3   OH240491   5.996   8.816   3.859
13517TIP3    H140492   6.033   8.788   3.946
13517TIP3    H240493   5.905   8.839   3.882
13518TIP3   OH240494   6.139   8.772   4.093
13518TIP3    H140495   6.128   8.704   4.163
13518TIP3    H240496   6.237   8.768   4.082
13519TIP3   OH240497   5.349   8.799   3.887
13519TIP3    H140498   5.367   8.704   3.872
13519TIP3    H240499   5.327   8.802   3.982
13520TIP3   OH240500   5.299   8.837   4.161
13520TIP3    H140501   5.360   8.797   4.224
13520TIP3    H240502   5.291   8.928   4.194
13521TIP3   OH240503   5.026   8.529   4.350
13521TIP3    H140504   4.958   8.572   4.405
13521TIP3    H240505   5.036   8.597   4.280
13522TIP3   OH240506   6.165   8.165   5.243
13522TIP3    H140507   6.249   8.210   5.267
13522TIP3    H240508   6.165   8.087   5.302
13523TIP3   OH240509   6.047   7.918   4.407
13523TIP3    H140510   6.039   7.939   4.312
13523TIP3    H240511   6.090   7.999   4.442
13524TIP3   OH240512   5.742   8.095   4.509
13524TIP3    H140513   5.809   8.165   4.491
13524TIP3    H240514   5.749   8.087   4.606
13525TIP3   OH240515   6.007   8.408   5.321
13525TIP3    H140516   6.036   8.464   5.397
13525TIP3    H240517   6.071   8.335   5.322
13526TIP3   OH240518   5.887   7.824   4.612
13526TIP3    H140519   5.884   7.900   4.673
13526TIP3    H240520   5.947   7.859   4.542
13527TIP3   OH240521   5.398   7.820   4.401
13527TIP3    H140522   5.398   7.911   4.437
13527TIP3    H240523   5.494   7.800   4.409
13528TIP3   OH240524   6.642   8.302   5.299
13528TIP3    H140525   6.545   8.311   5.294
13528TIP3    H240526   6.664   8.264   5.213
13529TIP3   OH240527   6.301   8.512   4.685
13529TIP3    H140528   6.228   8.449   4.698
13529TIP3    H240529   6.377   8.463   4.724
13530TIP3   OH240530   5.013   8.732   4.157
13530TIP3    H140531   5.057   8.818   4.163
13530TIP3    H240532   5.069   8.687   4.091
13531TIP3   OH240533   4.960   8.013   4.293
13531TIP3    H140534   4.959   8.111   4.285
13531TIP3    H240535   4.883   7.987   4.242
13532TIP3   OH240536   5.350   7.737   5.170
13532TIP3    H140537   5.325   7.700   5.082
13532TIP3    H240538   5.370   7.659   5.222
13533TIP3   OH240539   5.176   8.879   5.809
13533TIP3    H140540   5.196   8.783   5.807
13533TIP3    H240541   5.088   8.880   5.766
13534TIP3   OH240542   5.152   8.551   4.005
13534TIP3    H140543   5.203   8.513   4.079
13534TIP3    H240544   5.221   8.550   3.935
13535TIP3   OH240545   5.796   8.964   5.596
13535TIP3    H140546   5.723   8.980   5.533
13535TIP3    H240547   5.809   8.867   5.589
13536TIP3   OH240548   5.655   8.744   3.805
13536TIP3    H140549   5.654   8.758   3.901
13536TIP3    H240550   5.658   8.646   3.801
13537TIP3   OH240551   5.291   8.616   5.791
13537TIP3    H140552   5.374   8.570   5.775
13537TIP3    H240553   5.309   8.659   5.877
13538TIP3   OH240554   5.365   8.453   4.233
13538TIP3    H140555   5.334   8.408   4.314
13538TIP3    H240556   5.398   8.378   4.180
13539TIP3   OH240557   5.630   8.513   5.457
13539TIP3    H140558   5.554   8.574   5.459
13539TIP3    H240559   5.681   8.547   5.380
13540TIP3   OH240560   5.459   8.247   4.072
13540TIP3    H140561   5.434   8.247   3.977
13540TIP3    H240562   5.556   8.249   4.065
13541TIP3   OH240563   6.279   8.586   3.730
13541TIP3    H140564   6.259   8.531   3.652
13541TIP3    H240565   6.252   8.674   3.695
13542TIP3   OH240566   5.748   8.308   5.586
13542TIP3    H140567   5.771   8.245   5.517
13542TIP3    H240568   5.703   8.378   5.532
13543TIP3   OH240569   5.782   8.629   5.266
13543TIP3    H140570   5.863   8.631   5.213
13543TIP3    H240571   5.727   8.697   5.222
13544TIP3   OH240572   5.613   8.422   5.807
13544TIP3    H140573   5.548   8.349   5.814
13544TIP3    H240574   5.651   8.406   5.719
13545TIP3   OH240575   5.872   7.869   5.452
13545TIP3    H140576   5.850   7.932   5.382
13545TIP3    H240577   5.811   7.796   5.431
13546TIP3   OH240578   6.015   8.355   5.671
13546TIP3    H140579   6.015   8.356   5.768
13546TIP3    H240580   5.920   8.339   5.652
13547TIP3   OH240581   6.252   8.305   5.540
13547TIP3    H140582   6.167   8.318   5.587
13547TIP3    H240583   6.309   8.273   5.612
13548TIP3   OH240584   5.465   8.196   5.864
13548TIP3    H140585   5.479   8.106   5.831
13548TIP3    H240586   5.500   8.189   5.955
13549TIP3   OH240587   5.981   7.863   5.712
13549TIP3    H140588   6.049   7.793   5.703
13549TIP3    H240589   5.935   7.858   5.626
13550TIP3   OH240590   6.036   8.071   5.884
13550TIP3    H140591   6.017   8.007   5.812
13550TIP3    H240592   5.965   8.138   5.871
13551TIP3   OH240593   4.745   8.674   4.172
13551TIP3    H140594   4.839   8.702   4.173
13551TIP3    H240595   4.749   8.584   4.135
13552TIP3   OH240596   6.414   8.765   4.068
13552TIP3    H140597   6.483   8.828   4.039
13552TIP3    H240598   6.458   8.726   4.147
13553TIP3   OH240599   6.543   8.635   4.271
13553TIP3    H140600   6.479   8.591   4.331
13553TIP3    H240601   6.610   8.671   4.332
13554TIP3   OH240602   6.568   9.004   4.692
13554TIP3    H140603   6.651   8.963   4.660
13554TIP3    H240604   6.572   9.094   4.660
13555TIP3   OH240605   6.482   8.541   3.916
13555TIP3    H140606   6.409   8.544   3.850
13555TIP3    H240607   6.454   8.615   3.973
13556TIP3   OH240608   6.353   8.217   3.870
13556TIP3    H140609   6.308   8.245   3.790
13556TIP3    H240610   6.329   8.121   3.871
13557TIP3   OH240611   6.358   8.488   4.417
13557TIP3    H140612   6.368   8.392   4.411
13557TIP3    H240613   6.346   8.501   4.514
13558TIP3   OH240614   4.987   8.553   5.166
13558TIP3    H140615   4.984   8.533   5.071
13558TIP3    H240616   5.084   8.561   5.181
13559TIP3   OH240617   6.296   7.952   3.864
13559TIP3    H140618   6.375   7.919   3.910
13559TIP3    H240619   6.230   7.883   3.880
13560TIP3   OH240620   6.353   8.205   4.312
13560TIP3    H140621   6.391   8.116   4.331
13560TIP3    H240622   6.415   8.234   4.243
13561TIP3   OH240623   6.514   8.368   4.781
13561TIP3    H140624   6.604   8.393   4.749
13561TIP3    H240625   6.522   8.402   4.873
13562TIP3   OH240626   6.555   8.494   5.014
13562TIP3    H140627   6.485   8.519   5.078
13562TIP3    H240628   6.589   8.580   4.985
13563TIP3   OH240629   5.201   8.249   5.838
13563TIP3    H140630   5.298   8.244   5.841
13563TIP3    H240631   5.177   8.163   5.877
13564TIP3   OH240632   6.458   7.959   4.355
13564TIP3    H140633   6.511   7.940   4.435
13564TIP3    H240634   6.408   7.876   4.346
13565TIP3   OH240635   5.164   7.942   5.174
13565TIP3    H140636   5.226   7.867   5.178
13565TIP3    H240637   5.227   8.016   5.166
13566TIP3   OH240638   4.968   8.216   5.243
13566TIP3    H140639   5.018   8.206   5.159
13566TIP3    H240640   4.991   8.307   5.266
13567TIP3   OH240641   6.545   7.894   3.978
13567TIP3    H140642   6.578   7.816   3.927
13567TIP3    H240643   6.619   7.957   3.969
13568TIP3   OH240644   4.949   7.723   4.747
13568TIP3    H140645   4.855   7.717   4.767
13568TIP3    H240646   4.949   7.779   4.666
13569TIP3   OH240647   5.178   7.826   5.570
13569TIP3    H140648   5.119   7.801   5.644
13569TIP3    H240649   5.110   7.855   5.505
13570TIP3   OH240650   5.263   9.206   5.655
13570TIP3    H140651   5.224   9.133   5.604
13570TIP3    H240652   5.232   9.189   5.746
13571TIP3   OH240653   6.803   8.008   5.268
13571TIP3    H140654   6.714   8.018   5.231
13571TIP3    H240655   6.825   7.913   5.251
13572TIP3   OH240656   6.010   7.931   4.895
13572TIP3    H140657   5.968   7.860   4.946
13572TIP3    H240658   6.085   7.886   4.852
13573TIP3   OH240659   6.535   7.810   4.806
13573TIP3    H140660   6.575   7.862   4.732
13573TIP3    H240661   6.441   7.831   4.796
13574TIP3   OH240662   6.629   7.914   4.569
13574TIP3    H140663   6.702   7.862   4.527
13574TIP3    H240664   6.663   8.005   4.554
13575TIP3   OH240665   5.260   7.643   4.919
13575TIP3    H140666   5.168   7.611   4.917
13575TIP3    H240667   5.308   7.557   4.912
13576TIP3   OH240668   5.049   7.509   4.561
13576TIP3    H140669   5.078   7.566   4.488
13576TIP3    H240670   5.019   7.574   4.627
13577TIP3   OH240671   5.703   7.672   4.795
13577TIP3    H140672   5.759   7.722   4.733
13577TIP3    H240673   5.727   7.712   4.879
13578TIP3   OH240674   6.247   7.819   4.779
13578TIP3    H140675   6.254   7.784   4.689
13578TIP3    H240676   6.234   7.737   4.832
13579TIP3   OH240677   6.272   7.742   4.340
13579TIP3    H140678   6.184   7.781   4.353
13579TIP3    H240679   6.263   7.657   4.388
13580TIP3   OH240680   5.163   7.667   4.328
13580TIP3    H140681   5.210   7.605   4.269
13580TIP3    H240682   5.237   7.721   4.362
13581TIP3   OH240683   5.676   7.844   4.425
13581TIP3    H140684   5.737   7.796   4.483
13581TIP3    H240685   5.700   7.936   4.450
13582TIP3   OH240686   5.490   7.915   5.769
13582TIP3    H140687   5.441   7.862   5.834
13582TIP3    H240688   5.576   7.923   5.817
13583TIP3   OH240689   5.719   7.921   5.927
13583TIP3    H140690   5.802   7.891   5.886
13583TIP3    H240691   5.705   7.851   5.995
13584TIP3   OH240692   6.540   7.956   5.713
13584TIP3    H140693   6.595   7.910   5.778
13584TIP3    H240694   6.607   7.976   5.644
13585TIP3   OH240695   6.724   8.414   4.227
13585TIP3    H140696   6.674   8.497   4.240
13585TIP3    H240697   6.654   8.355   4.195
13586TIP3   OH240698   6.791   8.702   4.390
13586TIP3    H140699   6.834   8.622   4.428
13586TIP3    H240700   6.858   8.729   4.325
13587TIP3   OH240701   7.295   8.288   4.404
13587TIP3    H140702   7.272   8.357   4.338
13587TIP3    H240703   7.250   8.212   4.362
13588TIP3   OH240704   6.928   8.495   4.503
13588TIP3    H140705   7.009   8.470   4.552
13588TIP3    H240706   6.938   8.437   4.425
13589TIP3   OH240707   7.401   8.654   4.292
13589TIP3    H140708   7.458   8.595   4.341
13589TIP3    H240709   7.329   8.594   4.262
13590TIP3   OH240710   7.159   8.397   4.618
13590TIP3    H140711   7.220   8.466   4.646
13590TIP3    H240712   7.210   8.353   4.546
13591TIP3   OH240713   6.616   8.929   3.951
13591TIP3    H140714   6.561   8.967   3.880
13591TIP3    H240715   6.643   9.012   3.993
13592TIP3   OH240716   7.634   7.993   4.533
13592TIP3    H140717   7.643   7.900   4.561
13592TIP3    H240718   7.562   8.024   4.592
13593TIP3   OH240719   7.081   8.796   4.215
13593TIP3    H140720   7.083   8.755   4.127
13593TIP3    H240721   7.165   8.846   4.216
13594TIP3   OH240722   7.024   8.667   3.972
13594TIP3    H140723   6.952   8.704   3.918
13594TIP3    H240724   6.986   8.582   4.000
13595TIP3   OH240725   7.410   8.071   4.677
13595TIP3    H140726   7.320   8.038   4.658
13595TIP3    H240727   7.393   8.166   4.685
13596TIP3   OH240728   7.517   8.123   3.598
13596TIP3    H140729   7.572   8.139   3.677
13596TIP3    H240730   7.488   8.031   3.613
13597TIP3   OH240731   7.224   8.459   4.206
13597TIP3    H140732   7.130   8.439   4.223
13597TIP3    H240733   7.237   8.420   4.117
13598TIP3   OH240734   7.200   8.080   3.609
13598TIP3    H140735   7.207   8.083   3.706
13598TIP3    H240736   7.114   8.122   3.595
13599TIP3   OH240737   6.750   8.140   4.485
13599TIP3    H140738   6.832   8.167   4.532
13599TIP3    H240739   6.783   8.102   4.401
13600TIP3   OH240740   6.731   8.115   3.999
13600TIP3    H140741   6.781   8.154   3.924
13600TIP3    H240742   6.671   8.189   4.021
13601TIP3   OH240743   7.560   8.312   4.281
13601TIP3    H140744   7.472   8.291   4.316
13601TIP3    H240745   7.619   8.272   4.347
13602TIP3   OH240746   6.984   8.345   4.278
13602TIP3    H140747   6.889   8.353   4.251
13602TIP3    H240748   7.005   8.252   4.258
13603TIP3   OH240749   7.270   8.352   3.953
13603TIP3    H140750   7.345   8.381   3.901
13603TIP3    H240751   7.196   8.366   3.890
13604TIP3   OH240752   7.068   8.377   3.769
13604TIP3    H140753   7.002   8.331   3.715
13604TIP3    H240754   7.136   8.399   3.702
13605TIP3   OH240755   7.164   8.108   4.243
13605TIP3    H140756   7.125   8.031   4.290
13605TIP3    H240757   7.215   8.066   4.173
13606TIP3   OH240758   6.701   8.538   3.752
13606TIP3    H140759   6.748   8.621   3.775
13606TIP3    H240760   6.626   8.541   3.815
13607TIP3   OH240761   6.818   8.786   3.827
13607TIP3    H140762   6.752   8.828   3.886
13607TIP3    H240763   6.866   8.863   3.795
13608TIP3   OH240764   7.686   8.088   4.097
13608TIP3    H140765   7.672   8.156   4.165
13608TIP3    H240766   7.776   8.111   4.067
13609TIP3   OH240767   7.194   8.075   3.884
13609TIP3    H140768   7.195   8.162   3.926
13609TIP3    H240769   7.288   8.050   3.897
13610TIP3   OH240770   6.761   8.270   3.768
13610TIP3    H140771   6.752   8.368   3.769
13610TIP3    H240772   6.673   8.241   3.741
13611TIP3   OH240773   7.147   7.990   4.652
13611TIP3    H140774   7.114   7.957   4.565
13611TIP3    H240775   7.135   7.912   4.709
13612TIP3   OH240776   6.529   8.932   3.639
13612TIP3    H140777   6.613   8.959   3.677
13612TIP3    H240778   6.541   8.838   3.616
13613TIP3   OH240779   6.791   8.831   4.637
13613TIP3    H140780   6.778   8.789   4.550
13613TIP3    H240781   6.887   8.832   4.643
13614TIP3   OH240782   6.963   8.200   4.652
13614TIP3    H140783   7.023   8.123   4.664
13614TIP3    H240784   7.026   8.273   4.658
13615TIP3   OH240785   6.761   8.465   4.726
13615TIP3    H140786   6.818   8.468   4.647
13615TIP3    H240787   6.774   8.552   4.766
13616TIP3   OH240788   6.744   7.993   4.241
13616TIP3    H140789   6.650   7.972   4.253
13616TIP3    H240790   6.744   8.038   4.154
13617TIP3   OH240791   6.967   8.055   5.050
13617TIP3    H140792   6.912   8.059   5.131
13617TIP3    H240793   6.904   8.090   4.984
13618TIP3   OH240794   7.775   8.167   4.373
13618TIP3    H140795   7.743   8.104   4.441
13618TIP3    H240796   7.850   8.119   4.336
13619TIP3   OH240797   7.057   7.899   4.402
13619TIP3    H140798   6.965   7.867   4.400
13619TIP3    H240799   7.105   7.813   4.396
13620TIP3   OH240800   6.867   7.762   4.059
13620TIP3    H140801   6.874   7.818   3.981
13620TIP3    H240802   6.812   7.816   4.118
13621TIP3   OH240803   7.497   7.930   4.285
13621TIP3    H140804   7.553   7.978   4.223
13621TIP3    H240805   7.529   7.962   4.371
13622TIP3   OH240806   6.958   7.934   3.803
13622TIP3    H140807   7.005   7.863   3.755
13622TIP3    H240808   7.032   7.980   3.847
13623TIP3   OH240809   7.462   8.092   3.930
13623TIP3    H140810   7.540   8.053   3.973
13623TIP3    H240811   7.484   8.185   3.937
13624TIP3   OH240812   4.592   1.726   7.947
13624TIP3    H140813   4.604   1.822   7.930
13624TIP3    H240814   4.684   1.693   7.938
13625TIP3   OH240815   4.105   1.944   8.083
13625TIP3    H140816   4.165   1.875   8.048
13625TIP3    H240817   4.105   1.926   8.179
13626TIP3   OH240818   4.352   1.143   8.088
13626TIP3    H140819   4.303   1.109   8.010
13626TIP3    H240820   4.434   1.174   8.045
13627TIP3   OH240821   4.513   1.757   8.206
13627TIP3    H140822   4.565   1.681   8.242
13627TIP3    H240823   4.535   1.751   8.111
13628TIP3   OH240824   4.271   1.527   8.126
13628TIP3    H140825   4.327   1.513   8.205
13628TIP3    H240826   4.195   1.474   8.151
13629TIP3   OH240827   4.618   1.998   7.953
13629TIP3    H140828   4.656   2.064   7.893
13629TIP3    H240829   4.539   2.049   7.981
13630TIP3   OH240830   3.800   1.692   8.028
13630TIP3    H140831   3.793   1.616   8.088
13630TIP3    H240832   3.882   1.667   7.980
13631TIP3   OH240833   4.244   1.749   7.945
13631TIP3    H140834   4.305   1.704   8.006
13631TIP3    H240835   4.297   1.755   7.863
13632TIP3   OH240836   4.574   1.250   7.976
13632TIP3    H140837   4.565   1.207   7.889
13632TIP3    H240838   4.544   1.341   7.952
13633TIP3   OH240839   4.785   1.242   8.147
13633TIP3    H140840   4.713   1.237   8.079
13633TIP3    H240841   4.738   1.208   8.225
13634TIP3   OH240842   4.657   0.827   8.086
13634TIP3    H140843   4.646   0.923   8.078
13634TIP3    H240844   4.577   0.795   8.041
13635TIP3   OH240845   3.832   1.915   8.196
13635TIP3    H140846   3.896   1.982   8.165
13635TIP3    H240847   3.804   1.876   8.111
13636TIP3   OH240848   4.559   2.062   8.263
13636TIP3    H140849   4.544   1.976   8.220
13636TIP3    H240850   4.515   2.120   8.197
13637TIP3   OH240851   6.048   1.587   8.228
13637TIP3    H140852   6.015   1.675   8.201
13637TIP3    H240853   5.974   1.531   8.200
13638TIP3   OH240854   6.309   1.856   8.286
13638TIP3    H140855   6.235   1.820   8.337
13638TIP3    H240856   6.315   1.948   8.323
13639TIP3   OH240857   5.941   2.341   8.304
13639TIP3    H140858   5.988   2.271   8.254
13639TIP3    H240859   5.933   2.300   8.391
13640TIP3   OH240860   5.949   1.805   8.093
13640TIP3    H140861   5.898   1.777   8.016
13640TIP3    H240862   5.900   1.886   8.119
13641TIP3   OH240863   4.942   1.637   8.206
13641TIP3    H140864   4.897   1.644   8.120
13641TIP3    H240865   4.978   1.727   8.219
13642TIP3   OH240866   6.327   2.105   8.398
13642TIP3    H140867   6.255   2.102   8.464
13642TIP3    H240868   6.344   2.201   8.395
13643TIP3   OH240869   6.067   2.168   8.129
13643TIP3    H140870   6.118   2.086   8.110
13643TIP3    H240871   6.129   2.234   8.091
13644TIP3   OH240872   6.214   1.952   8.039
13644TIP3    H140873   6.163   1.881   7.998
13644TIP3    H240874   6.252   1.908   8.117
13645TIP3   OH240875   5.884   1.436   8.055
13645TIP3    H140876   5.801   1.485   8.033
13645TIP3    H240877   5.926   1.430   7.968
13646TIP3   OH240878   5.837   1.212   7.783
13646TIP3    H140879   5.904   1.265   7.830
13646TIP3    H240880   5.895   1.160   7.724
13647TIP3   OH240881   6.233   1.508   8.044
13647TIP3    H140882   6.167   1.542   8.108
13647TIP3    H240883   6.295   1.467   8.107
13648TIP3   OH240884   5.441   1.535   8.366
13648TIP3    H140885   5.413   1.452   8.323
13648TIP3    H240886   5.515   1.508   8.424
13649TIP3   OH240887   6.125   2.099   8.579
13649TIP3    H140888   6.124   2.190   8.614
13649TIP3    H240889   6.122   2.044   8.659
13650TIP3   OH240890   6.071   1.373   7.855
13650TIP3    H140891   6.131   1.432   7.906
13650TIP3    H240892   6.097   1.395   7.762
13651TIP3   OH240893   5.810   2.051   8.130
13651TIP3    H140894   5.889   2.104   8.150
13651TIP3    H240895   5.750   2.115   8.089
13652TIP3   OH240896   5.323   1.329   8.225
13652TIP3    H140897   5.246   1.369   8.179
13652TIP3    H240898   5.291   1.240   8.248
13653TIP3   OH240899   6.384   1.978   7.452
13653TIP3    H140900   6.393   2.075   7.436
13653TIP3    H240901   6.477   1.948   7.440
13654TIP3   OH240902   5.692   2.295   7.932
13654TIP3    H140903   5.648   2.277   7.847
13654TIP3    H240904   5.661   2.384   7.955
13655TIP3   OH240905   5.134   2.142   8.324
13655TIP3    H140906   5.187   2.084   8.381
13655TIP3    H240907   5.058   2.084   8.307
13656TIP3   OH240908   5.895   2.196   7.573
13656TIP3    H140909   5.955   2.127   7.536
13656TIP3    H240910   5.929   2.205   7.664
13657TIP3   OH240911   5.944   2.243   7.844
13657TIP3    H140912   5.855   2.253   7.886
13657TIP3    H240913   5.994   2.203   7.917
13658TIP3   OH240914   6.148   1.417   7.600
13658TIP3    H140915   6.110   1.392   7.514
13658TIP3    H240916   6.226   1.468   7.571
13659TIP3   OH240917   5.999   1.219   8.178
13659TIP3    H140918   5.959   1.300   8.140
13659TIP3    H240919   6.074   1.202   8.117
13660TIP3   OH240920   5.555   1.002   8.209
13660TIP3    H140921   5.650   1.024   8.203
13660TIP3    H240922   5.518   1.036   8.124
13661TIP3   OH240923   5.392   1.049   7.994
13661TIP3    H140924   5.321   1.007   7.943
13661TIP3    H240925   5.446   1.085   7.921
13662TIP3   OH240926   5.653   1.581   7.999
13662TIP3    H140927   5.579   1.516   7.994
13662TIP3    H240928   5.636   1.624   8.087
13663TIP3   OH240929   6.092   0.920   7.817
13663TIP3    H140930   6.012   0.894   7.864
13663TIP3    H240931   6.126   0.994   7.874
13664TIP3   OH240932   6.175   1.141   7.953
13664TIP3    H140933   6.270   1.158   7.962
13664TIP3    H240934   6.142   1.223   7.911
13665TIP3   OH240935   5.799   1.732   7.826
13665TIP3    H140936   5.750   1.818   7.831
13665TIP3    H240937   5.743   1.676   7.884
13666TIP3   OH240938   6.626   1.232   7.783
13666TIP3    H140939   6.559   1.185   7.731
13666TIP3    H240940   6.621   1.321   7.744
13667TIP3   OH240941   6.323   2.050   7.716
13667TIP3    H140942   6.295   1.978   7.774
13667TIP3    H240943   6.337   2.006   7.630
13668TIP3   OH240944   5.425   1.909   8.310
13668TIP3    H140945   5.453   1.987   8.259
13668TIP3    H240946   5.335   1.898   8.277
13669TIP3   OH240947   5.016   1.211   8.004
13669TIP3    H140948   5.060   1.296   8.025
13669TIP3    H240949   4.934   1.220   8.059
13670TIP3   OH240950   5.607   1.704   8.233
13670TIP3    H140951   5.567   1.785   8.269
13670TIP3    H240952   5.568   1.638   8.293
13671TIP3   OH240953   5.363   2.149   8.155
13671TIP3    H140954   5.279   2.166   8.201
13671TIP3    H240955   5.404   2.238   8.160
13672TIP3   OH240956   6.075   1.776   7.618
13672TIP3    H140957   6.127   1.751   7.698
13672TIP3    H240958   5.986   1.752   7.646
13673TIP3   OH240959   6.300   2.419   8.830
13673TIP3    H140960   6.308   2.342   8.771
13673TIP3    H240961   6.328   2.490   8.771
13674TIP3   OH240962   6.417   2.253   7.438
13674TIP3    H140963   6.455   2.323   7.382
13674TIP3    H240964   6.337   2.300   7.470
13675TIP3   OH240965   6.233   1.710   7.838
13675TIP3    H140966   6.227   1.645   7.910
13675TIP3    H240967   6.329   1.710   7.822
13676TIP3   OH240968   5.444   1.759   7.618
13676TIP3    H140969   5.459   1.668   7.587
13676TIP3    H240970   5.424   1.745   7.712
13677TIP3   OH240971   5.388   1.763   7.892
13677TIP3    H140972   5.462   1.736   7.948
13677TIP3    H240973   5.394   1.862   7.896
13678TIP3   OH240974   5.118   1.458   8.090
13678TIP3    H140975   5.063   1.513   8.149
13678TIP3    H240976   5.142   1.523   8.022
13679TIP3   OH240977   5.654   1.960   7.838
13679TIP3    H140978   5.568   1.989   7.873
13679TIP3    H240979   5.672   2.031   7.775
13680TIP3   OH240980   5.829   1.013   8.225
13680TIP3    H140981   5.890   1.086   8.201
13680TIP3    H240982   5.866   0.986   8.310
13681TIP3   OH240983   5.397   2.036   7.904
13681TIP3    H140984   5.367   2.105   7.840
13681TIP3    H240985   5.382   2.082   7.990
13682TIP3   OH240986   5.114   1.671   7.896
13682TIP3    H140987   5.181   1.741   7.905
13682TIP3    H240988   5.161   1.615   7.829
13683TIP3   OH240989   5.060   0.934   7.997
13683TIP3    H140990   5.071   1.029   8.013
13683TIP3    H240991   4.985   0.913   8.054
13684TIP3   OH240992   6.378   2.389   8.372
13684TIP3    H140993   6.331   2.437   8.300
13684TIP3    H240994   6.467   2.426   8.362
13685TIP3   OH240995   4.991   1.893   8.286
13685TIP3    H140996   4.928   1.921   8.353
13685TIP3    H240997   4.952   1.930   8.203
13686TIP3   OH240998   5.608   1.963   7.531
13686TIP3    H140999   5.551   1.891   7.567
13686TIP3    H241000   5.683   1.911   7.497
13687TIP3   OH241001   6.043   2.005   7.440
13687TIP3    H141002   6.091   1.943   7.498
13687TIP3    H241003   6.098   2.006   7.359
13688TIP3   OH241004   5.250   1.482   7.750
13688TIP3    H141005   5.305   1.445   7.821
13688TIP3    H241006   5.317   1.486   7.678
13689TIP3   OH241007   5.757   1.679   7.557
13689TIP3    H141008   5.762   1.691   7.654
13689TIP3    H241009   5.759   1.581   7.551
13690TIP3   OH241010   5.460   1.384   7.974
13690TIP3    H141011   5.425   1.342   8.055
13690TIP3    H241012   5.494   1.307   7.924
13691TIP3   OH241013   5.557   1.176   7.816
13691TIP3    H141014   5.533   1.176   7.721
13691TIP3    H241015   5.655   1.179   7.810
13692TIP3   OH241016   6.381   1.507   7.472
13692TIP3    H141017   6.360   1.464   7.387
13692TIP3    H241018   6.349   1.598   7.451
13693TIP3   OH241019   5.366   2.237   7.717
13693TIP3    H141020   5.461   2.235   7.698
13693TIP3    H241021   5.336   2.287   7.639
13694TIP3   OH241022   4.848   1.620   7.934
13694TIP3    H141023   4.942   1.643   7.918
13694TIP3    H241024   4.843   1.531   7.895
13695TIP3   OH241025   4.791   2.195   8.352
13695TIP3    H141026   4.715   2.148   8.311
13695TIP3    H241027   4.807   2.140   8.431
13696TIP3   OH241028   6.624   2.520   8.347
13696TIP3    H141029   6.636   2.606   8.393
13696TIP3    H241030   6.655   2.547   8.259
13697TIP3   OH241031   6.508   1.699   7.812
13697TIP3    H141032   6.574   1.765   7.780
13697TIP3    H241033   6.558   1.648   7.875
13698TIP3   OH241034   6.573   1.477   7.659
13698TIP3    H141035   6.508   1.473   7.585
13698TIP3    H241036   6.541   1.559   7.701
13699TIP3   OH241037   6.432   1.134   7.616
13699TIP3    H141038   6.418   1.202   7.549
13699TIP3    H241039   6.409   1.053   7.568
13700TIP3   OH241040   6.210   2.351   7.992
13700TIP3    H141041   6.258   2.337   7.908
13700TIP3    H241042   6.263   2.420   8.034
13701TIP3   OH241043   5.844   2.491   8.579
13701TIP3    H141044   5.769   2.475   8.517
13701TIP3    H241045   5.863   2.584   8.561
13702TIP3   OH241046   6.080   2.366   8.640
13702TIP3    H141047   5.999   2.412   8.609
13702TIP3    H241048   6.147   2.436   8.630
13703TIP3   OH241049   6.291   2.582   8.572
13703TIP3    H141050   6.288   2.667   8.523
13703TIP3    H241051   6.326   2.520   8.505
13704TIP3   OH241052   5.522   2.217   8.491
13704TIP3    H141053   5.532   2.123   8.469
13704TIP3    H241054   5.571   2.221   8.576
13705TIP3   OH241055   4.859   2.011   8.089
13705TIP3    H141056   4.777   1.982   8.045
13705TIP3    H241057   4.854   2.106   8.069
13706TIP3   OH241058   5.636   2.202   7.666
13706TIP3    H141059   5.724   2.223   7.631
13706TIP3    H241060   5.613   2.127   7.607
13707TIP3   OH241061   6.352   2.317   7.759
13707TIP3    H141062   6.345   2.219   7.746
13707TIP3    H241063   6.309   2.349   7.677
13708TIP3   OH241064   4.938   2.032   7.724
13708TIP3    H141065   4.942   2.073   7.811
13708TIP3    H241066   5.028   1.994   7.713
13709TIP3   OH241067   6.709   1.864   7.722
13709TIP3    H141068   6.688   1.877   7.627
13709TIP3    H241069   6.743   1.953   7.747
13710TIP3   OH241070   7.426   2.560   7.424
13710TIP3    H141071   7.416   2.546   7.328
13710TIP3    H241072   7.438   2.656   7.432
13711TIP3   OH241073   6.921   2.401   7.803
13711TIP3    H141074   6.980   2.353   7.865
13711TIP3    H241075   6.849   2.337   7.796
13712TIP3   OH241076   7.688   2.449   7.047
13712TIP3    H141077   7.744   2.375   7.016
13712TIP3    H241078   7.724   2.463   7.137
13713TIP3   OH241079   7.669   2.493   7.325
13713TIP3    H141080   7.589   2.483   7.381
13713TIP3    H241081   7.736   2.448   7.378
13714TIP3   OH241082   7.218   2.164   7.775
13714TIP3    H141083   7.254   2.226   7.710
13714TIP3    H241084   7.205   2.085   7.720
13715TIP3   OH241085   6.788   1.468   7.486
13715TIP3    H141086   6.851   1.539   7.513
13715TIP3    H241087   6.721   1.477   7.556
13716TIP3   OH241088   7.161   2.413   7.636
13716TIP3    H141089   7.082   2.418   7.692
13716TIP3    H241090   7.196   2.505   7.644
13717TIP3   OH241091   8.201   2.510   6.917
13717TIP3    H141092   8.237   2.592   6.880
13717TIP3    H241093   8.115   2.545   6.948
13718TIP3   OH241094   7.252   2.010   7.098
13718TIP3    H141095   7.248   1.916   7.076
13718TIP3    H241096   7.228   2.009   7.193
13719TIP3   OH241097   7.178   2.022   7.361
13719TIP3    H141098   7.215   1.990   7.446
13719TIP3    H241099   7.191   2.119   7.371
13720TIP3   OH241100   6.897   1.718   7.561
13720TIP3    H141101   6.867   1.759   7.643
13720TIP3    H241102   6.937   1.793   7.514
13721TIP3   OH241103   7.443   2.208   7.307
13721TIP3    H141104   7.366   2.239   7.357
13721TIP3    H241105   7.474   2.290   7.267
13722TIP3   OH241106   7.187   2.293   7.391
13722TIP3    H141107   7.160   2.364   7.329
13722TIP3    H241108   7.178   2.341   7.477
13723TIP3   OH241109   6.911   1.940   7.379
13723TIP3    H141110   6.982   2.007   7.386
13723TIP3    H241111   6.953   1.882   7.312
13724TIP3   OH241112   6.862   1.196   7.479
13724TIP3    H141113   6.869   1.292   7.498
13724TIP3    H241114   6.792   1.169   7.539
13725TIP3   OH241115   6.775   2.129   7.781
13725TIP3    H141116   6.693   2.173   7.805
13725TIP3    H241117   6.783   2.163   7.689
13726TIP3   OH241118   7.400   2.227   7.010
13726TIP3    H141119   7.348   2.157   7.055
13726TIP3    H241120   7.479   2.178   6.984
13727TIP3   OH241121   7.829   2.243   6.921
13727TIP3    H141122   7.909   2.251   6.979
13727TIP3    H241123   7.871   2.250   6.833
13728TIP3   OH241124   7.041   1.744   7.228
13728TIP3    H141125   7.087   1.707   7.304
13728TIP3    H241126   7.114   1.747   7.163
13729TIP3   OH241127   7.558   1.931   7.046
13729TIP3    H141128   7.525   1.961   7.131
13729TIP3    H241129   7.525   1.840   7.041
13730TIP3   OH241130   7.160   2.496   7.203
13730TIP3    H141131   7.256   2.491   7.188
13730TIP3    H241132   7.135   2.546   7.123
13731TIP3   OH241133   6.646   1.875   7.429
13731TIP3    H141134   6.739   1.901   7.410
13731TIP3    H241135   6.642   1.787   7.385
13732TIP3   OH241136   6.554   2.493   7.829
13732TIP3    H141137   6.488   2.430   7.792
13732TIP3    H241138   6.595   2.436   7.898
13733TIP3   OH241139   6.678   2.346   8.019
13733TIP3    H141140   6.696   2.260   8.058
13733TIP3    H241141   6.738   2.404   8.070
13734TIP3   OH241142   6.864   2.492   8.161
13734TIP3    H141143   6.906   2.490   8.249
13734TIP3    H241144   6.932   2.443   8.111
13735TIP3   OH241145   6.657   2.271   7.579
13735TIP3    H141146   6.576   2.234   7.541
13735TIP3    H241147   6.646   2.364   7.552
13736TIP3   OH241148   7.428   2.462   7.152
13736TIP3    H141149   7.520   2.480   7.125
13736TIP3    H241150   7.409   2.386   7.094
13737TIP3   OH241151   6.735   2.293   7.211
13737TIP3    H141152   6.738   2.322   7.303
13737TIP3    H241153   6.824   2.252   7.198
13738TIP3   OH241154   2.429   3.288   8.101
13738TIP3    H141155   2.443   3.382   8.077
13738TIP3    H241156   2.519   3.251   8.082
13739TIP3   OH241157   2.463   3.558   8.090
13739TIP3    H141158   2.501   3.635   8.043
13739TIP3    H241159   2.391   3.602   8.139
13740TIP3   OH241160   2.132   3.288   8.092
13740TIP3    H141161   2.216   3.304   8.138
13740TIP3    H241162   2.160   3.295   7.998
13741TIP3   OH241163   2.460   2.843   8.072
13741TIP3    H141164   2.398   2.768   8.075
13741TIP3    H241165   2.399   2.916   8.044
13742TIP3   OH241166   3.788   3.161   8.383
13742TIP3    H141167   3.837   3.228   8.332
13742TIP3    H241168   3.774   3.090   8.318
13743TIP3   OH241169   4.154   3.442   8.418
13743TIP3    H141170   4.182   3.356   8.455
13743TIP3    H241171   4.224   3.503   8.449
13744TIP3   OH241172   3.784   3.898   8.462
13744TIP3    H141173   3.824   3.829   8.405
13744TIP3    H241174   3.758   3.844   8.539
13745TIP3   OH241175   3.800   3.404   8.226
13745TIP3    H141176   3.738   3.337   8.196
13745TIP3    H241177   3.740   3.476   8.252
13746TIP3   OH241178   4.241   3.671   8.571
13746TIP3    H141179   4.165   3.652   8.628
13746TIP3    H241180   4.228   3.765   8.548
13747TIP3   OH241181   3.906   3.726   8.286
13747TIP3    H141182   3.954   3.642   8.266
13747TIP3    H241183   3.970   3.788   8.245
13748TIP3   OH241184   4.062   3.528   8.171
13748TIP3    H141185   4.005   3.457   8.138
13748TIP3    H241186   4.101   3.484   8.250
13749TIP3   OH241187   3.697   2.963   8.184
13749TIP3    H141188   3.624   3.022   8.156
13749TIP3    H241189   3.757   2.966   8.107
13750TIP3   OH241190   3.677   2.767   7.919
13750TIP3    H141191   3.735   2.819   7.977
13750TIP3    H241192   3.744   2.713   7.873
13751TIP3   OH241193   4.048   3.123   8.235
13751TIP3    H141194   3.987   3.049   8.236
13751TIP3    H241195   4.126   3.081   8.193
13752TIP3   OH241196   3.897   2.948   8.002
13752TIP3    H141197   3.993   2.961   8.023
13752TIP3    H241198   3.907   2.963   7.904
13753TIP3   OH241199   3.640   3.631   8.298
13753TIP3    H141200   3.726   3.675   8.289
13753TIP3    H241201   3.582   3.681   8.240
13754TIP3   OH241202   4.425   2.172   8.049
13754TIP3    H141203   4.344   2.192   8.099
13754TIP3    H241204   4.440   2.256   8.001
13755TIP3   OH241205   4.224   3.537   7.603
13755TIP3    H141206   4.236   3.633   7.587
13755TIP3    H241207   4.315   3.503   7.587
13756TIP3   OH241208   3.532   3.852   8.084
13756TIP3    H141209   3.489   3.830   8.000
13756TIP3    H241210   3.503   3.944   8.100
13757TIP3   OH241211   3.735   3.753   7.723
13757TIP3    H141212   3.795   3.684   7.685
13757TIP3    H241213   3.771   3.762   7.814
13758TIP3   OH241214   3.785   3.803   7.993
13758TIP3    H141215   3.697   3.809   8.038
13758TIP3    H241216   3.836   3.751   8.058
13759TIP3   OH241217   3.967   2.974   7.744
13759TIP3    H141218   3.956   2.952   7.650
13759TIP3    H241219   4.057   3.012   7.744
13760TIP3   OH241220   3.705   2.353   8.047
13760TIP3    H141221   3.672   2.361   8.138
13760TIP3    H241222   3.664   2.269   8.019
13761TIP3   OH241223   3.904   2.847   8.316
13761TIP3    H141224   3.810   2.859   8.291
13761TIP3    H241225   3.937   2.799   8.238
13762TIP3   OH241226   3.360   2.320   8.017
13762TIP3    H141227   3.344   2.286   8.107
13762TIP3    H241228   3.287   2.384   8.008
13763TIP3   OH241229   3.212   2.576   8.138
13763TIP3    H141230   3.168   2.566   8.051
13763TIP3    H241231   3.288   2.630   8.112
13764TIP3   OH241232   3.492   3.148   8.154
13764TIP3    H141233   3.423   3.081   8.131
13764TIP3    H241234   3.477   3.159   8.249
13765TIP3   OH241235   3.950   2.466   7.997
13765TIP3    H141236   3.854   2.452   8.009
13765TIP3    H241237   3.964   2.557   8.033
13766TIP3   OH241238   4.023   2.703   8.116
13766TIP3    H141239   4.114   2.699   8.153
13766TIP3    H241240   4.037   2.778   8.055
13767TIP3   OH241241   3.633   3.288   7.964
13767TIP3    H141242   3.595   3.377   7.980
13767TIP3    H241243   3.583   3.235   8.029
13768TIP3   OH241244   4.477   2.781   7.950
13768TIP3    H141245   4.409   2.741   7.890
13768TIP3    H241246   4.449   2.873   7.940
13769TIP3   OH241247   4.163   3.608   7.867
13769TIP3    H141248   4.142   3.537   7.930
13769TIP3    H241249   4.175   3.560   7.783
13770TIP3   OH241250   3.194   3.726   8.278
13770TIP3    H141251   3.141   3.701   8.354
13770TIP3    H241252   3.222   3.817   8.298
13771TIP3   OH241253   3.915   3.339   7.769
13771TIP3    H141254   3.973   3.314   7.845
13771TIP3    H241255   3.830   3.307   7.803
13772TIP3   OH241256   4.260   3.812   7.589
13772TIP3    H141257   4.294   3.883   7.531
13772TIP3    H241258   4.179   3.856   7.622
13773TIP3   OH241259   4.076   3.277   7.980
13773TIP3    H141260   4.065   3.221   8.059
13773TIP3    H241261   4.173   3.268   7.966
13774TIP3   OH241262   3.283   3.318   7.767
13774TIP3    H141263   3.301   3.227   7.737
13774TIP3    H241264   3.263   3.303   7.862
13775TIP3   OH241265   3.228   3.322   8.040
13775TIP3    H141266   3.301   3.293   8.097
13775TIP3    H241267   3.235   3.420   8.046
13776TIP3   OH241268   2.955   3.005   8.205
13776TIP3    H141269   2.966   3.023   8.299
13776TIP3    H241270   2.975   3.091   8.163
13777TIP3   OH241271   4.021   2.367   8.249
13777TIP3    H141272   3.994   2.402   8.162
13777TIP3    H241273   4.009   2.445   8.307
13778TIP3   OH241274   3.501   3.524   7.996
13778TIP3    H141275   3.411   3.548   8.026
13778TIP3    H241276   3.510   3.581   7.919
13779TIP3   OH241277   3.241   3.594   8.047
13779TIP3    H141278   3.207   3.665   7.989
13779TIP3    H241279   3.225   3.635   8.135
13780TIP3   OH241280   2.957   3.240   8.046
13780TIP3    H141281   3.031   3.303   8.054
13780TIP3    H241282   2.997   3.178   7.981
13781TIP3   OH241283   4.213   3.930   8.493
13781TIP3    H141284   4.173   3.990   8.426
13781TIP3    H241285   4.308   3.952   8.482
13782TIP3   OH241286   3.450   3.521   7.686
13782TIP3    H141287   3.392   3.447   7.718
13782TIP3    H241288   3.525   3.469   7.650
13783TIP3   OH241289   3.885   3.563   7.592
13783TIP3    H141290   3.926   3.496   7.650
13783TIP3    H241291   3.943   3.560   7.513
13784TIP3   OH241292   3.091   3.044   7.899
13784TIP3    H141293   3.140   3.007   7.974
13784TIP3    H241294   3.161   3.045   7.831
13785TIP3   OH241295   3.592   3.232   7.701
13785TIP3    H141296   3.603   3.247   7.797
13785TIP3    H241297   3.596   3.134   7.698
13786TIP3   OH241298   3.306   2.954   8.106
13786TIP3    H141299   3.274   2.927   8.194
13786TIP3    H241300   3.336   2.868   8.068
13787TIP3   OH241301   3.397   2.723   7.972
13787TIP3    H141302   3.372   2.732   7.878
13787TIP3    H241303   3.495   2.729   7.964
13788TIP3   OH241304   4.217   3.063   7.623
13788TIP3    H141305   4.204   3.018   7.537
13788TIP3    H241306   4.184   3.153   7.599
13789TIP3   OH241307   3.208   3.807   7.871
13789TIP3    H141308   3.303   3.796   7.852
13789TIP3    H241309   3.180   3.847   7.787
13790TIP3   OH241310   2.682   3.186   8.063
13790TIP3    H141311   2.778   3.207   8.068
13790TIP3    H241312   2.685   3.092   8.037
13791TIP3   OH241313   4.462   4.043   8.489
13791TIP3    H141314   4.485   4.097   8.566
13791TIP3    H241315   4.522   4.077   8.421
13792TIP3   OH241316   4.351   3.274   7.968
13792TIP3    H141317   4.434   3.311   7.936
13792TIP3    H241318   4.383   3.215   8.038
13793TIP3   OH241319   4.497   3.131   8.154
13793TIP3    H141320   4.429   3.071   8.195
13793TIP3    H241321   4.532   3.173   8.234
13794TIP3   OH241322   4.503   3.496   8.572
13794TIP3    H141323   4.583   3.442   8.559
13794TIP3    H241324   4.522   3.577   8.522
13795TIP3   OH241325   4.430   3.042   7.799
13795TIP3    H141326   4.357   3.040   7.734
13795TIP3    H241327   4.381   3.076   7.876
13796TIP3   OH241328   4.311   2.687   7.756
13796TIP3    H141329   4.263   2.751   7.702
13796TIP3    H241330   4.268   2.602   7.732
13797TIP3   OH241331   4.361   2.967   8.313
13797TIP3    H141332   4.321   2.887   8.275
13797TIP3    H241333   4.328   2.965   8.405
13798TIP3   OH241334   4.241   2.420   7.740
13798TIP3    H141335   4.312   2.409   7.806
13798TIP3    H241336   4.164   2.377   7.781
13799TIP3   OH241337   4.285   2.700   8.214
13799TIP3    H141338   4.331   2.614   8.211
13799TIP3    H241339   4.320   2.745   8.135
13800TIP3   OH241340   4.390   2.440   8.215
13800TIP3    H141341   4.459   2.422   8.282
13800TIP3    H241342   4.329   2.365   8.231
13801TIP3   OH241343   4.486   2.378   7.876
13801TIP3    H141344   4.529   2.310   7.821
13801TIP3    H241345   4.548   2.453   7.870
13802TIP3   OH241346   4.048   3.909   8.144
13802TIP3    H141347   4.094   3.889   8.060
13802TIP3    H241348   4.108   3.975   8.182
13803TIP3   OH241349   4.199   4.127   8.681
13803TIP3    H141350   4.192   4.205   8.622
13803TIP3    H241351   4.204   4.053   8.617
13804TIP3   OH241352   4.597   2.400   8.382
13804TIP3    H141353   4.676   2.348   8.357
13804TIP3    H241354   4.631   2.492   8.369
13805TIP3   OH241355   4.230   2.208   8.244
13805TIP3    H141356   4.153   2.270   8.237
13805TIP3    H241357   4.184   2.130   8.276
13806TIP3   OH241358   2.720   3.571   8.230
13806TIP3    H141359   2.635   3.534   8.201
13806TIP3    H241360   2.703   3.665   8.218
13807TIP3   OH241361   3.475   3.761   7.815
13807TIP3    H141362   3.565   3.780   7.781
13807TIP3    H241363   3.454   3.685   7.757
13808TIP3   OH241364   4.193   3.874   7.911
13808TIP3    H141365   4.187   3.776   7.900
13808TIP3    H241366   4.150   3.904   7.828
13809TIP3   OH241367   2.785   3.602   7.879
13809TIP3    H141368   2.782   3.606   7.975
13809TIP3    H241369   2.870   3.555   7.862
13810TIP3   OH241370   5.687   3.389   7.868
13810TIP3    H141371   5.659   3.481   7.847
13810TIP3    H241372   5.612   3.340   7.828
13811TIP3   OH241373   5.684   3.393   8.243
13811TIP3    H141374   5.716   3.363   8.330
13811TIP3    H241375   5.651   3.311   8.204
13812TIP3   OH241376   5.133   3.292   8.582
13812TIP3    H141377   5.110   3.233   8.658
13812TIP3    H241378   5.074   3.367   8.605
13813TIP3   OH241379   5.928   3.694   7.926
13813TIP3    H141380   5.918   3.622   7.990
13813TIP3    H241381   5.960   3.767   7.981
13814TIP3   OH241382   4.961   3.696   8.339
13814TIP3    H141383   4.957   3.599   8.345
13814TIP3    H241384   5.057   3.710   8.328
13815TIP3   OH241385   4.669   2.914   8.123
13815TIP3    H141386   4.608   2.990   8.128
13815TIP3    H241387   4.605   2.844   8.100
13816TIP3   OH241388   4.760   3.200   8.279
13816TIP3    H141389   4.788   3.112   8.313
13816TIP3    H241390   4.754   3.183   8.184
13817TIP3   OH241391   5.569   4.155   7.939
13817TIP3    H141392   5.617   4.082   7.895
13817TIP3    H241393   5.569   4.127   8.031
13818TIP3   OH241394   5.487   3.611   8.277
13818TIP3    H141395   5.534   3.536   8.238
13818TIP3    H241396   5.563   3.659   8.314
13819TIP3   OH241397   6.489   2.946   8.285
13819TIP3    H141398   6.520   3.028   8.327
13819TIP3    H241399   6.516   2.961   8.192
13820TIP3   OH241400   5.890   3.114   8.327
13820TIP3    H141401   5.942   3.033   8.342
13820TIP3    H241402   5.866   3.104   8.233
13821TIP3   OH241403   5.235   2.787   8.297
13821TIP3    H141404   5.208   2.854   8.231
13821TIP3    H241405   5.186   2.710   8.262
13822TIP3   OH241406   5.930   2.871   7.915
13822TIP3    H141407   6.003   2.852   7.978
13822TIP3    H241408   5.981   2.905   7.839
13823TIP3   OH241409   4.875   2.980   8.389
13823TIP3    H141410   4.958   2.965   8.438
13823TIP3    H241411   4.887   2.920   8.313
13824TIP3   OH241412   5.301   3.168   8.233
13824TIP3    H141413   5.396   3.153   8.213
13824TIP3    H241414   5.262   3.095   8.178
13825TIP3   OH241415   6.569   3.148   8.457
13825TIP3    H141416   6.486   3.196   8.439
13825TIP3    H241417   6.570   3.152   8.554
13826TIP3   OH241418   5.578   3.607   7.736
13826TIP3    H141419   5.542   3.587   7.648
13826TIP3    H241420   5.535   3.691   7.757
13827TIP3   OH241421   6.145   2.868   8.081
13827TIP3    H141422   6.123   2.829   8.167
13827TIP3    H241423   6.198   2.945   8.107
13828TIP3   OH241424   5.118   2.931   8.510
13828TIP3    H141425   5.211   2.954   8.524
13828TIP3    H241426   5.128   2.847   8.462
13829TIP3   OH241427   5.159   3.723   8.645
13829TIP3    H141428   5.138   3.799   8.587
13829TIP3    H241429   5.075   3.704   8.688
13830TIP3   OH241430   4.571   3.417   7.852
13830TIP3    H141431   4.515   3.436   7.774
13830TIP3    H241432   4.590   3.505   7.888
13831TIP3   OH241433   6.004   3.937   8.095
13831TIP3    H141434   5.913   3.927   8.133
13831TIP3    H241435   5.994   4.022   8.048
13832TIP3   OH241436   6.290   2.844   8.456
13832TIP3    H141437   6.203   2.866   8.419
13832TIP3    H241438   6.350   2.872   8.384
13833TIP3   OH241439   5.616   2.475   8.429
13833TIP3    H141440   5.587   2.381   8.434
13833TIP3    H241441   5.531   2.517   8.455
13834TIP3   OH241442   5.696   3.979   7.763
13834TIP3    H141443   5.748   3.897   7.744
13834TIP3    H241444   5.760   4.045   7.728
13835TIP3   OH241445   5.841   3.767   7.675
13835TIP3    H141446   5.822   3.687   7.623
13835TIP3    H241447   5.878   3.729   7.758
13836TIP3   OH241448   6.223   3.851   8.437
13836TIP3    H141449   6.216   3.772   8.379
13836TIP3    H241450   6.210   3.924   8.372
13837TIP3   OH241451   5.520   3.246   7.693
13837TIP3    H141452   5.439   3.295   7.668
13837TIP3    H241453   5.566   3.239   7.608
13838TIP3   OH241454   5.479   3.025   7.414
13838TIP3    H141455   5.547   3.079   7.457
13838TIP3    H241456   5.536   2.962   7.365
13839TIP3   OH241457   6.420   3.484   8.280
13839TIP3    H141458   6.338   3.537   8.287
13839TIP3    H241459   6.450   3.510   8.191
13840TIP3   OH241460   5.865   3.326   7.667
13840TIP3    H141461   5.812   3.349   7.746
13840TIP3    H241462   5.950   3.300   7.709
13841TIP3   OH241463   6.103   3.359   8.576
13841TIP3    H141464   6.107   3.439   8.634
13841TIP3    H241465   6.016   3.372   8.533
13842TIP3   OH241466   5.099   3.324   8.083
13842TIP3    H141467   5.051   3.269   8.018
13842TIP3    H241468   5.169   3.264   8.113
13843TIP3   OH241469   5.230   3.729   8.234
13843TIP3    H141470   5.214   3.679   8.153
13843TIP3    H241471   5.321   3.698   8.257
13844TIP3   OH241472   5.761   3.932   8.211
13844TIP3    H141473   5.743   4.013   8.263
13844TIP3    H241474   5.744   3.860   8.275
13845TIP3   OH241475   5.382   3.862   8.745
13845TIP3    H141476   5.317   3.926   8.782
13845TIP3    H241477   5.321   3.794   8.710
13846TIP3   OH241478   5.706   3.184   7.491
13846TIP3    H141479   5.766   3.244   7.542
13846TIP3    H241480   5.734   3.207   7.398
13847TIP3   OH241481   5.424   3.896   7.786
13847TIP3    H141482   5.519   3.914   7.796
13847TIP3    H241483   5.403   3.942   7.704
13848TIP3   OH241484   5.173   4.029   8.810
13848TIP3    H141485   5.160   4.040   8.713
13848TIP3    H241486   5.094   3.980   8.834
13849TIP3   OH241487   6.223   2.426   7.540
13849TIP3    H141488   6.141   2.446   7.590
13849TIP3    H241489   6.237   2.509   7.490
13850TIP3   OH241490   4.962   3.168   7.895
13850TIP3    H141491   4.899   3.212   7.833
13850TIP3    H241492   4.922   3.081   7.902
13851TIP3   OH241493   6.021   3.795   7.092
13851TIP3    H141494   6.031   3.890   7.072
13851TIP3    H241495   6.111   3.761   7.076
13852TIP3   OH241496   4.602   3.744   8.425
13852TIP3    H141497   4.698   3.746   8.415
13852TIP3    H241498   4.585   3.823   8.478
13853TIP3   OH241499   6.463   4.194   8.479
13853TIP3    H141500   6.465   4.097   8.493
13853TIP3    H241501   6.379   4.216   8.523
13854TIP3   OH241502   5.583   3.982   8.617
13854TIP3    H141503   5.572   4.074   8.648
13854TIP3    H241504   5.506   3.939   8.663
13855TIP3   OH241505   5.304   4.100   7.584
13855TIP3    H141506   5.282   4.083   7.490
13855TIP3    H241507   5.297   4.197   7.589
13856TIP3   OH241508   4.786   3.960   7.942
13856TIP3    H141509   4.820   3.950   8.034
13856TIP3    H241510   4.726   3.883   7.938
13857TIP3   OH241511   5.533   4.010   7.211
13857TIP3    H141512   5.592   3.941   7.171
13857TIP3    H241513   5.570   4.018   7.301
13858TIP3   OH241514   5.576   4.062   7.485
13858TIP3    H141515   5.491   4.061   7.533
13858TIP3    H241516   5.637   4.024   7.550
13859TIP3   OH241517   6.360   3.322   8.748
13859TIP3    H141518   6.275   3.348   8.712
13859TIP3    H241519   6.364   3.227   8.728
13860TIP3   OH241520   5.369   2.565   8.474
13860TIP3    H141521   5.284   2.518   8.489
13860TIP3    H241522   5.361   2.638   8.536
13861TIP3   OH241523   6.105   3.100   8.679
13861TIP3    H141524   6.073   3.107   8.770
13861TIP3    H241525   6.098   3.191   8.645
13862TIP3   OH241526   5.784   3.235   7.236
13862TIP3    H141527   5.749   3.206   7.149
13862TIP3    H241528   5.866   3.279   7.208
13863TIP3   OH241529   5.496   2.606   7.538
13863TIP3    H141530   5.462   2.603   7.630
13863TIP3    H241531   5.457   2.524   7.503
13864TIP3   OH241532   5.165   2.964   8.098
13864TIP3    H141533   5.073   2.934   8.115
13864TIP3    H241534   5.180   2.920   8.011
13865TIP3   OH241535   5.657   3.046   7.827
13865TIP3    H141536   5.604   3.116   7.784
13865TIP3    H241537   5.711   3.014   7.751
13866TIP3   OH241538   5.814   3.075   8.066
13866TIP3    H141539   5.754   3.103   7.994
13866TIP3    H241540   5.847   2.992   8.024
13867TIP3   OH241541   5.151   2.577   7.505
13867TIP3    H141542   5.141   2.577   7.602
13867TIP3    H241543   5.074   2.632   7.478
13868TIP3   OH241544   4.702   2.642   8.319
13868TIP3    H141545   4.736   2.659   8.409
13868TIP3    H241546   4.777   2.606   8.273
13869TIP3   OH241547   4.680   2.607   7.892
13869TIP3    H141548   4.719   2.647   7.812
13869TIP3    H241549   4.612   2.676   7.913
13870TIP3   OH241550   5.828   3.320   8.489
13870TIP3    H141551   5.861   3.245   8.434
13870TIP3    H241552   5.797   3.273   8.568
13871TIP3   OH241553   5.491   2.783   8.161
13871TIP3    H141554   5.407   2.778   8.211
13871TIP3    H241555   5.557   2.777   8.232
13872TIP3   OH241556   4.929   2.840   8.162
13872TIP3    H141557   4.833   2.848   8.140
13872TIP3    H241558   4.947   2.745   8.149
13873TIP3   OH241559   5.199   2.835   7.858
13873TIP3    H141560   5.292   2.849   7.832
13873TIP3    H241561   5.149   2.855   7.775
13874TIP3   OH241562   5.996   2.851   8.335
13874TIP3    H141563   5.963   2.860   8.428
13874TIP3    H241564   5.929   2.789   8.301
13875TIP3   OH241565   5.040   2.866   7.640
13875TIP3    H141566   4.964   2.823   7.596
13875TIP3    H241567   5.089   2.900   7.562
13876TIP3   OH241568   6.147   4.539   8.580
13876TIP3    H141569   6.148   4.567   8.486
13876TIP3    H241570   6.230   4.584   8.611
13877TIP3   OH241571   5.574   3.113   8.252
13877TIP3    H141572   5.649   3.071   8.207
13877TIP3    H241573   5.582   3.079   8.342
13878TIP3   OH241574   5.108   2.600   8.138
13878TIP3    H141575   5.071   2.521   8.182
13878TIP3    H241576   5.151   2.563   8.060
13879TIP3   OH241577   5.516   3.046   8.553
13879TIP3    H141578   5.486   2.973   8.610
13879TIP3    H241579   5.609   3.050   8.583
13880TIP3   OH241580   5.286   3.401   7.642
13880TIP3    H141581   5.219   3.330   7.633
13880TIP3    H241582   5.271   3.428   7.736
13881TIP3   OH241583   6.190   3.634   8.274
13881TIP3    H141584   6.214   3.683   8.192
13881TIP3    H241585   6.107   3.590   8.249
13882TIP3   OH241586   5.749   2.708   7.507
13882TIP3    H141587   5.652   2.692   7.511
13882TIP3    H241588   5.758   2.803   7.527
13883TIP3   OH241589   5.691   3.718   8.639
13883TIP3    H141590   5.687   3.691   8.731
13883TIP3    H241591   5.643   3.802   8.639
13884TIP3   OH241592   5.818   2.957   7.610
13884TIP3    H141593   5.914   2.962   7.623
13884TIP3    H241594   5.800   3.036   7.554
13885TIP3   OH241595   5.008   3.403   8.332
13885TIP3    H141596   5.031   3.405   8.237
13885TIP3    H241597   4.967   3.316   8.338
13886TIP3   OH241598   5.436   3.548   7.468
13886TIP3    H141599   5.388   3.634   7.473
13886TIP3    H241600   5.380   3.492   7.525
13887TIP3   OH241601   5.853   3.974   8.550
13887TIP3    H141602   5.756   3.959   8.546
13887TIP3    H241603   5.856   4.056   8.599
13888TIP3   OH241604   6.260   3.046   7.445
13888TIP3    H141605   6.197   3.001   7.383
13888TIP3    H241606   6.257   3.135   7.403
13889TIP3   OH241607   6.472   3.907   8.522
13889TIP3    H141608   6.375   3.897   8.513
13889TIP3    H241609   6.501   3.873   8.434
13890TIP3   OH241610   5.959   3.864   7.354
13890TIP3    H141611   5.935   3.789   7.410
13890TIP3    H241612   5.972   3.823   7.267
13891TIP3   OH241613   5.956   3.495   8.194
13891TIP3    H141614   5.862   3.469   8.206
13891TIP3    H241615   5.991   3.416   8.148
13892TIP3   OH241616   5.071   3.694   7.955
13892TIP3    H141617   5.098   3.776   7.914
13892TIP3    H241618   4.975   3.701   7.959
13893TIP3   OH241619   4.660   3.023   7.654
13893TIP3    H141620   4.698   3.111   7.669
13893TIP3    H241621   4.576   3.031   7.707
13894TIP3   OH241622   5.230   3.481   7.895
13894TIP3    H141623   5.183   3.565   7.911
13894TIP3    H241624   5.190   3.425   7.963
13895TIP3   OH241625   5.352   4.063   8.417
13895TIP3    H141626   5.384   4.139   8.364
13895TIP3    H241627   5.434   4.033   8.458
13896TIP3   OH241628   5.744   3.702   8.372
13896TIP3    H141629   5.737   3.694   8.470
13896TIP3    H241630   5.820   3.645   8.354
13897TIP3   OH241631   5.712   3.595   7.257
13897TIP3    H141632   5.764   3.568   7.335
13897TIP3    H241633   5.624   3.563   7.282
13898TIP3   OH241634   5.984   4.234   8.422
13898TIP3    H141635   5.902   4.185   8.400
13898TIP3    H241636   5.982   4.302   8.351
13899TIP3   OH241637   6.055   4.069   7.075
13899TIP3    H141638   6.089   4.139   7.017
13899TIP3    H241639   5.975   4.113   7.108
13900TIP3   OH241640   5.874   3.533   7.479
13900TIP3    H141641   5.864   3.461   7.544
13900TIP3    H241642   5.970   3.525   7.459
13901TIP3   OH241643   4.782   3.933   8.565
13901TIP3    H141644   4.824   3.855   8.601
13901TIP3    H241645   4.804   4.001   8.630
13902TIP3   OH241646   5.081   3.574   7.255
13902TIP3    H141647   5.094   3.485   7.219
13902TIP3    H241648   5.057   3.554   7.347
13903TIP3   OH241649   5.026   3.583   7.532
13903TIP3    H141650   5.099   3.543   7.580
13903TIP3    H241651   5.044   3.678   7.540
13904TIP3   OH241652   4.772   3.277   7.728
13904TIP3    H141653   4.701   3.315   7.785
13904TIP3    H241654   4.777   3.346   7.659
13905TIP3   OH241655   5.902   2.891   8.586
13905TIP3    H141656   5.966   2.944   8.637
13905TIP3    H241657   5.838   2.869   8.656
13906TIP3   OH241658   5.789   2.661   7.786
13906TIP3    H141659   5.775   2.682   7.692
13906TIP3    H241660   5.827   2.745   7.820
13907TIP3   OH241661   5.295   3.780   7.485
13907TIP3    H141662   5.209   3.816   7.511
13907TIP3    H241663   5.310   3.826   7.400
13908TIP3   OH241664   5.484   2.838   7.887
13908TIP3    H141665   5.548   2.910   7.870
13908TIP3    H241666   5.486   2.832   7.985
13909TIP3   OH241667   5.764   3.176   8.724
13909TIP3    H141668   5.790   3.210   8.810
13909TIP3    H241669   5.797   3.085   8.731
13910TIP3   OH241670   5.626   2.569   7.992
13910TIP3    H141671   5.617   2.648   8.049
13910TIP3    H241672   5.685   2.604   7.922
13911TIP3   OH241673   5.029   3.869   7.552
13911TIP3    H141674   5.026   3.914   7.464
13911TIP3    H241675   4.940   3.891   7.581
13912TIP3   OH241676   5.135   2.564   7.782
13912TIP3    H141677   5.132   2.655   7.816
13912TIP3    H241678   5.231   2.547   7.789
13913TIP3   OH241679   6.372   3.058   8.666
13913TIP3    H141680   6.275   3.054   8.673
13913TIP3    H241681   6.386   3.007   8.585
13914TIP3   OH241682   6.040   3.255   8.066
13914TIP3    H141683   5.966   3.192   8.076
13914TIP3    H241684   6.113   3.208   8.112
13915TIP3   OH241685   4.753   3.483   7.534
13915TIP3    H141686   4.820   3.552   7.539
13915TIP3    H241687   4.795   3.424   7.468
13916TIP3   OH241688   4.698   2.754   7.662
13916TIP3    H141689   4.702   2.852   7.665
13916TIP3    H241690   4.605   2.740   7.641
13917TIP3   OH241691   6.009   4.207   8.015
13917TIP3    H141692   5.967   4.254   7.940
13917TIP3    H241693   6.103   4.225   7.994
13918TIP3   OH241694   5.123   2.452   8.540
13918TIP3    H141695   5.082   2.466   8.452
13918TIP3    H241696   5.050   2.407   8.586
13919TIP3   OH241697   4.634   3.710   7.925
13919TIP3    H141698   4.559   3.729   7.983
13919TIP3    H241699   4.598   3.740   7.838
13920TIP3   OH241700   5.251   3.778   7.180
13920TIP3    H141701   5.192   3.703   7.203
13920TIP3    H241702   5.321   3.730   7.130
13921TIP3   OH241703   5.906   4.097   8.829
13921TIP3    H141704   5.925   4.008   8.795
13921TIP3    H241705   5.970   4.151   8.781
13922TIP3   OH241706   5.682   3.821   7.079
13922TIP3    H141707   5.729   3.756   7.134
13922TIP3    H241708   5.733   3.819   6.996
13923TIP3   OH241709   4.889   3.301   7.388
13923TIP3    H141710   4.940   3.256   7.457
13923TIP3    H241711   4.955   3.301   7.315
13924TIP3   OH241712   5.396   3.492   7.196
13924TIP3    H141713   5.400   3.502   7.293
13924TIP3    H241714   5.397   3.394   7.188
13925TIP3   OH241715   6.011   3.741   8.577
13925TIP3    H141716   6.087   3.778   8.529
13925TIP3    H241717   5.941   3.806   8.555
13926TIP3   OH241718   5.107   3.196   7.616
13926TIP3    H141719   5.067   3.150   7.692
13926TIP3    H241720   5.137   3.120   7.561
13927TIP3   OH241721   5.195   2.991   7.451
13927TIP3    H141722   5.169   2.994   7.356
13927TIP3    H241723   5.293   2.994   7.443
13928TIP3   OH241724   6.019   3.320   7.111
13928TIP3    H141725   6.004   3.278   7.023
13928TIP3    H241726   5.988   3.411   7.089
13929TIP3   OH241727   6.141   3.568   8.742
13929TIP3    H141728   6.084   3.634   8.696
13929TIP3    H241729   6.229   3.606   8.726
13930TIP3   OH241730   5.006   4.050   7.353
13930TIP3    H141731   5.101   4.058   7.330
13930TIP3    H241732   4.969   4.097   7.276
13931TIP3   OH241733   4.482   3.435   7.569
13931TIP3    H141734   4.577   3.454   7.556
13931TIP3    H241735   4.475   3.345   7.529
13932TIP3   OH241736   4.398   4.047   7.983
13932TIP3    H141737   4.331   3.985   7.948
13932TIP3    H241738   4.441   3.991   8.050
13933TIP3   OH241739   4.532   3.903   8.172
13933TIP3    H141740   4.521   3.826   8.230
13933TIP3    H241741   4.589   3.960   8.228
13934TIP3   OH241742   6.261   4.298   7.971
13934TIP3    H141743   6.288   4.335   8.057
13934TIP3    H241744   6.318   4.346   7.910
13935TIP3   OH241745   6.290   4.319   8.253
13935TIP3    H141746   6.248   4.231   8.245
13935TIP3    H241747   6.366   4.296   8.308
13936TIP3   OH241748   6.351   4.014   8.819
13936TIP3    H141749   6.266   4.003   8.862
13936TIP3    H241750   6.362   4.109   8.812
13937TIP3   OH241751   6.151   3.511   7.448
13937TIP3    H141752   6.220   3.573   7.416
13937TIP3    H241753   6.196   3.471   7.526
13938TIP3   OH241754   6.281   3.378   7.651
13938TIP3    H141755   6.215   3.335   7.709
13938TIP3    H241756   6.345   3.416   7.714
13939TIP3   OH241757   6.334   3.768   8.082
13939TIP3    H141758   6.387   3.702   8.033
13939TIP3    H241759   6.328   3.842   8.019
13940TIP3   OH241760   6.168   4.071   8.276
13940TIP3    H141761   6.094   4.110   8.325
13940TIP3    H241762   6.121   4.021   8.205
13941TIP3   OH241763   6.218   3.285   7.297
13941TIP3    H141764   6.148   3.285   7.227
13941TIP3    H241765   6.188   3.361   7.350
13942TIP3   OH241766   6.090   2.959   7.254
13942TIP3    H141767   6.055   3.000   7.174
13942TIP3    H241768   6.062   2.865   7.241
13943TIP3   OH241769   6.096   3.234   7.798
13943TIP3    H141770   6.104   3.137   7.789
13943TIP3    H241771   6.083   3.245   7.895
13944TIP3   OH241772   4.736   3.310   8.526
13944TIP3    H141773   4.699   3.273   8.443
13944TIP3    H241774   4.820   3.341   8.492
13945TIP3   OH241775   6.386   3.663   8.658
13945TIP3    H141776   6.454   3.593   8.647
13945TIP3    H241777   6.417   3.731   8.595
13946TIP3   OH241778   6.571   3.465   8.664
13946TIP3    H141779   6.500   3.419   8.713
13946TIP3    H241780   6.646   3.406   8.682
13947TIP3   OH241781   6.034   2.692   7.240
13947TIP3    H141782   6.110   2.661   7.293
13947TIP3    H241783   5.962   2.632   7.263
13948TIP3   OH241784   6.092   2.950   7.693
13948TIP3    H141785   6.132   2.860   7.708
13948TIP3    H241786   6.150   2.981   7.621
13949TIP3   OH241787   6.252   3.127   8.185
13949TIP3    H141788   6.339   3.151   8.146
13949TIP3    H241789   6.268   3.162   8.276
13950TIP3   OH241790   6.321   3.265   8.418
13950TIP3    H141791   6.245   3.300   8.468
13950TIP3    H241792   6.355   3.346   8.373
13951TIP3   OH241793   6.200   2.699   7.730
13951TIP3    H141794   6.249   2.684   7.814
13951TIP3    H241795   6.140   2.622   7.729
13952TIP3   OH241796   4.973   2.689   8.489
13952TIP3    H141797   4.972   2.616   8.552
13952TIP3    H241798   4.950   2.763   8.547
13953TIP3   OH241799   4.719   2.984   8.620
13953TIP3    H141800   4.747   2.952   8.532
13953TIP3    H241801   4.702   3.077   8.600
13954TIP3   OH241802   6.625   3.017   8.741
13954TIP3    H141803   6.529   3.033   8.747
13954TIP3    H241804   6.625   2.923   8.717
13955TIP3   OH241805   6.284   2.634   7.363
13955TIP3    H141806   6.323   2.562   7.309
13955TIP3    H241807   6.350   2.705   7.354
13956TIP3   OH241808   4.690   2.445   8.104
13956TIP3    H141809   4.602   2.466   8.138
13956TIP3    H241810   4.698   2.513   8.033
13957TIP3   OH241811   5.845   4.163   7.630
13957TIP3    H141812   5.895   4.150   7.547
13957TIP3    H241813   5.897   4.232   7.673
13958TIP3   OH241814   5.123   3.987   8.546
13958TIP3    H141815   5.072   4.061   8.505
13958TIP3    H241816   5.209   4.005   8.501
13959TIP3   OH241817   5.567   4.246   8.700
13959TIP3    H141818   5.602   4.264   8.790
13959TIP3    H241819   5.631   4.295   8.644
13960TIP3   OH241820   5.769   4.372   8.573
13960TIP3    H141821   5.835   4.352   8.506
13960TIP3    H241822   5.805   4.453   8.615
13961TIP3   OH241823   6.545   2.765   8.655
13961TIP3    H141824   6.450   2.762   8.638
13961TIP3    H241825   6.559   2.678   8.698
13962TIP3   OH241826   4.796   4.254   8.588
13962TIP3    H141827   4.716   4.299   8.553
13962TIP3    H241828   4.798   4.291   8.676
13963TIP3   OH241829   5.022   4.203   8.427
13963TIP3    H141830   4.945   4.240   8.474
13963TIP3    H241831   5.030   4.264   8.351
13964TIP3   OH241832   5.472   4.251   8.244
13964TIP3    H141833   5.401   4.263   8.179
13964TIP3    H241834   5.462   4.341   8.284
13965TIP3   OH241835   5.739   4.204   8.293
13965TIP3    H141836   5.644   4.220   8.276
13965TIP3    H241837   5.779   4.281   8.250
13966TIP3   OH241838   5.943   4.398   8.210
13966TIP3    H141839   5.928   4.484   8.163
13966TIP3    H241840   5.967   4.339   8.135
13967TIP3   OH241841   4.710   4.053   8.328
13967TIP3    H141842   4.740   4.032   8.419
13967TIP3    H241843   4.785   4.013   8.278
13968TIP3   OH241844   4.902   3.920   8.186
13968TIP3    H141845   4.918   3.838   8.239
13968TIP3    H241846   4.993   3.957   8.182
13969TIP3   OH241847   5.165   3.994   8.163
13969TIP3    H141848   5.206   3.912   8.197
13969TIP3    H241849   5.188   4.057   8.233
13970TIP3   OH241850   5.750   2.676   8.279
13970TIP3    H141851   5.706   2.603   8.327
13970TIP3    H241852   5.819   2.628   8.229
13971TIP3   OH241853   6.274   2.556   8.183
13971TIP3    H141854   6.309   2.609   8.108
13971TIP3    H241855   6.179   2.575   8.178
13972TIP3   OH241856   6.367   2.657   7.947
13972TIP3    H141857   6.440   2.607   7.903
13972TIP3    H241858   6.399   2.749   7.933
13973TIP3   OH241859   5.002   2.386   8.287
13973TIP3    H141860   4.913   2.348   8.295
13973TIP3    H241861   5.055   2.304   8.293
13974TIP3   OH241862   4.789   2.249   7.940
13974TIP3    H141863   4.815   2.307   7.866
13974TIP3    H241864   4.753   2.315   8.004
13975TIP3   OH241865   5.441   2.412   8.175
13975TIP3    H141866   5.499   2.466   8.119
13975TIP3    H241867   5.441   2.461   8.258
13976TIP3   OH241868   5.987   2.564   8.158
13976TIP3    H141869   5.987   2.528   8.068
13976TIP3    H241870   5.974   2.482   8.212
13977TIP3   OH241871   6.017   2.485   7.720
13977TIP3    H141872   5.930   2.527   7.729
13977TIP3    H241873   6.002   2.400   7.768
13978TIP3   OH241874   4.504   3.825   7.720
13978TIP3    H141875   4.421   3.786   7.687
13978TIP3    H241876   4.485   3.919   7.702
13979TIP3   OH241877   4.899   2.407   7.709
13979TIP3    H141878   4.950   2.351   7.647
13979TIP3    H241879   4.969   2.466   7.744
13980TIP3   OH241880   5.413   2.588   7.805
13980TIP3    H141881   5.473   2.541   7.864
13980TIP3    H241882   5.436   2.681   7.829
13981TIP3   OH241883   5.276   4.020   7.307
13981TIP3    H141884   5.364   4.041   7.269
13981TIP3    H241885   5.253   3.945   7.248
13982TIP3   OH241886   5.990   4.132   7.397
13982TIP3    H141887   5.983   4.034   7.385
13982TIP3    H241888   5.947   4.163   7.315
13983TIP3   OH241889   4.580   3.857   7.359
13983TIP3    H141890   4.571   3.873   7.454
13983TIP3    H241891   4.665   3.808   7.352
13984TIP3   OH241892   6.217   4.271   8.581
13984TIP3    H141893   6.140   4.248   8.526
13984TIP3    H241894   6.203   4.367   8.593
13985TIP3   OH241895   7.484   3.647   7.352
13985TIP3    H141896   7.456   3.739   7.333
13985TIP3    H241897   7.408   3.598   7.315
13986TIP3   OH241898   7.456   3.654   7.718
13986TIP3    H141899   7.492   3.617   7.801
13986TIP3    H241900   7.426   3.575   7.672
13987TIP3   OH241901   6.782   3.547   8.094
13987TIP3    H141902   6.812   3.477   8.155
13987TIP3    H241903   6.864   3.598   8.083
13988TIP3   OH241904   7.722   3.949   7.413
13988TIP3    H141905   7.717   3.874   7.475
13988TIP3    H241906   7.756   4.019   7.470
13989TIP3   OH241907   6.754   3.954   7.824
13989TIP3    H141908   6.745   3.856   7.826
13989TIP3    H241909   6.851   3.961   7.815
13990TIP3   OH241910   6.459   3.157   7.609
13990TIP3    H141911   6.411   3.240   7.620
13990TIP3    H241912   6.390   3.101   7.569
13991TIP3   OH241913   6.522   3.444   7.778
13991TIP3    H141914   6.569   3.366   7.814
13991TIP3    H241915   6.577   3.467   7.702
13992TIP3   OH241916   7.378   4.416   7.430
13992TIP3    H141917   7.422   4.345   7.379
13992TIP3    H241918   7.365   4.373   7.516
13993TIP3   OH241919   7.281   3.874   7.781
13993TIP3    H141920   7.316   3.794   7.737
13993TIP3    H241921   7.367   3.918   7.798
13994TIP3   OH241922   7.598   3.296   7.776
13994TIP3    H141923   7.686   3.282   7.813
13994TIP3    H241924   7.619   3.327   7.685
13995TIP3   OH241925   7.024   3.044   7.773
13995TIP3    H141926   7.006   3.115   7.708
13995TIP3    H241927   6.981   2.968   7.728
13996TIP3   OH241928   7.708   3.128   7.392
13996TIP3    H141929   7.768   3.075   7.450
13996TIP3    H241930   7.772   3.167   7.329
13997TIP3   OH241931   6.666   3.237   7.883
13997TIP3    H141932   6.750   3.217   7.930
13997TIP3    H241933   6.679   3.181   7.803
13998TIP3   OH241934   7.093   3.438   7.676
13998TIP3    H141935   7.187   3.412   7.689
13998TIP3    H241936   7.057   3.354   7.641
13999TIP3   OH241937   7.012   3.007   8.209
13999TIP3    H141938   6.961   3.054   8.141
13999TIP3    H241939   6.972   3.043   8.290
14000TIP3   OH241940   7.378   3.871   7.221
14000TIP3    H141941   7.334   3.844   7.140
14000TIP3    H241942   7.331   3.954   7.242
14001TIP3   OH241943   7.141   3.792   8.014
14001TIP3    H141944   7.076   3.856   8.050
14001TIP3    H241945   7.178   3.842   7.938
14002TIP3   OH241946   6.900   3.137   7.995
14002TIP3    H141947   6.966   3.205   8.019
14002TIP3    H241948   6.946   3.096   7.918
14003TIP3   OH241949   6.965   3.987   8.108
14003TIP3    H141950   6.936   4.070   8.066
14003TIP3    H241951   6.886   3.969   8.164
14004TIP3   OH241952   6.357   3.675   7.340
14004TIP3    H141953   6.317   3.699   7.254
14004TIP3    H241954   6.387   3.761   7.374
14005TIP3   OH241955   7.803   4.199   7.585
14005TIP3    H141956   7.713   4.181   7.623
14005TIP3    H241957   7.784   4.279   7.533
14006TIP3   OH241958   7.501   4.242   7.258
14006TIP3    H141959   7.548   4.157   7.239
14006TIP3    H241960   7.564   4.304   7.214
14007TIP3   OH241961   7.642   4.027   7.162
14007TIP3    H141962   7.607   3.949   7.117
14007TIP3    H241963   7.676   3.988   7.246
14008TIP3   OH241964   7.943   4.108   7.897
14008TIP3    H141965   7.956   4.032   7.837
14008TIP3    H241966   7.962   4.183   7.837
14009TIP3   OH241967   7.316   3.504   7.178
14009TIP3    H141968   7.234   3.552   7.154
14009TIP3    H241969   7.362   3.496   7.093
14010TIP3   OH241970   7.273   3.283   6.899
14010TIP3    H141971   7.342   3.335   6.945
14010TIP3    H241972   7.330   3.219   6.851
14011TIP3   OH241973   7.662   3.584   7.152
14011TIP3    H141974   7.608   3.605   7.231
14011TIP3    H241975   7.747   3.557   7.195
14012TIP3   OH241976   6.892   3.585   7.568
14012TIP3    H141977   6.850   3.525   7.502
14012TIP3    H241978   6.967   3.530   7.599
14013TIP3   OH241979   7.026   3.993   7.719
14013TIP3    H141980   7.001   3.950   7.635
14013TIP3    H241981   7.115   3.955   7.735
14014TIP3   OH241982   7.033   3.551   7.927
14014TIP3    H141983   7.060   3.527   7.836
14014TIP3    H241984   7.077   3.637   7.941
14015TIP3   OH241985   7.560   4.189   7.699
14015TIP3    H141986   7.540   4.267   7.754
14015TIP3    H241987   7.543   4.113   7.758
14016TIP3   OH241988   7.168   4.113   8.254
14016TIP3    H141989   7.101   4.172   8.294
14016TIP3    H241990   7.109   4.055   8.201
14017TIP3   OH241991   7.501   3.442   6.977
14017TIP3    H141992   7.562   3.498   7.030
14017TIP3    H241993   7.528   3.467   6.885
14018TIP3   OH241994   6.920   3.672   8.344
14018TIP3    H141995   6.921   3.755   8.396
14018TIP3    H241996   6.826   3.648   8.352
14019TIP3   OH241997   7.244   4.122   7.256
14019TIP3    H141998   7.322   4.177   7.274
14019TIP3    H241999   7.183   4.182   7.212
14020TIP3   OH242000   6.961   4.281   8.335
14020TIP3    H142001   6.927   4.279   8.244
14020TIP3    H242002   6.882   4.256   8.388
14021TIP3   OH242003   8.009   2.677   7.018
14021TIP3    H142004   7.931   2.698   7.073
14021TIP3    H242005   8.022   2.760   6.967
14022TIP3   OH242006   6.758   3.425   7.378
14022TIP3    H142007   6.694   3.468   7.318
14022TIP3    H242008   6.721   3.336   7.385
14023TIP3   OH242009   7.817   4.050   6.576
14023TIP3    H142010   7.828   4.146   6.560
14023TIP3    H242011   7.909   4.018   6.562
14024TIP3   OH242012   6.542   3.809   8.280
14024TIP3    H142013   6.478   3.785   8.211
14024TIP3    H242014   6.580   3.722   8.306
14025TIP3   OH242015   6.395   3.999   7.917
14025TIP3    H142016   6.490   3.993   7.905
14025TIP3    H242017   6.385   4.081   7.967
14026TIP3   OH242018   7.363   4.238   8.106
14026TIP3    H142019   7.361   4.329   8.141
14026TIP3    H242020   7.290   4.196   8.156
14027TIP3   OH242021   7.128   4.368   7.055
14027TIP3    H142022   7.080   4.345   6.973
14027TIP3    H242023   7.092   4.456   7.077
14028TIP3   OH242024   6.565   4.217   7.440
14028TIP3    H142025   6.611   4.206   7.526
14028TIP3    H242026   6.508   4.138   7.440
14029TIP3   OH242027   7.330   4.269   6.697
14029TIP3    H142028   7.389   4.199   6.660
14029TIP3    H242029   7.362   4.275   6.789
14030TIP3   OH242030   7.379   4.316   6.968
14030TIP3    H142031   7.290   4.326   7.007
14030TIP3    H242032   7.424   4.265   7.038
14031TIP3   OH242033   6.746   3.992   8.275
14031TIP3    H142034   6.798   3.969   8.355
14031TIP3    H242035   6.673   3.927   8.279
14032TIP3   OH242036   7.130   2.851   8.002
14032TIP3    H142037   7.040   2.816   7.995
14032TIP3    H242038   7.116   2.921   8.069
14033TIP3   OH242039   7.576   3.498   6.723
14033TIP3    H142040   7.545   3.463   6.637
14033TIP3    H242041   7.664   3.532   6.699
14034TIP3   OH242042   7.287   2.867   7.024
14034TIP3    H142043   7.257   2.861   7.117
14034TIP3    H242044   7.254   2.782   6.990
14035TIP3   OH242045   7.082   3.328   8.072
14035TIP3    H142046   7.029   3.350   8.152
14035TIP3    H242047   7.067   3.408   8.018
14036TIP3   OH242048   6.956   3.222   7.579
14036TIP3    H142049   6.864   3.193   7.597
14036TIP3    H242050   6.972   3.179   7.492
14037TIP3   OH242051   7.449   3.302   7.310
14037TIP3    H142052   7.397   3.372   7.264
14037TIP3    H242053   7.508   3.270   7.239
14038TIP3   OH242054   7.625   3.358   7.514
14038TIP3    H142055   7.551   3.377   7.452
14038TIP3    H242056   7.649   3.270   7.478
14039TIP3   OH242057   6.897   3.364   8.274
14039TIP3    H142058   6.922   3.424   8.345
14039TIP3    H242059   6.878   3.281   8.322
14040TIP3   OH242060   6.945   2.834   6.990
14040TIP3    H142061   6.939   2.832   7.088
14040TIP3    H242062   6.867   2.888   6.967
14041TIP3   OH242063   6.491   2.880   7.864
14041TIP3    H142064   6.568   2.912   7.914
14041TIP3    H242065   6.528   2.849   7.780
14042TIP3   OH242066   6.466   2.862   7.383
14042TIP3    H142067   6.511   2.899   7.304
14042TIP3    H242068   6.404   2.935   7.401
14043TIP3   OH242069   7.589   3.580   7.949
14043TIP3    H142070   7.662   3.533   7.901
14043TIP3    H242071   7.639   3.659   7.976
14044TIP3   OH242072   7.279   3.038   7.644
14044TIP3    H142073   7.202   3.038   7.704
14044TIP3    H242074   7.353   3.037   7.707
14045TIP3   OH242075   6.722   3.093   7.656
14045TIP3    H142076   6.628   3.099   7.629
14045TIP3    H242077   6.747   3.001   7.633
14046TIP3   OH242078   6.994   3.090   7.343
14046TIP3    H142079   7.089   3.102   7.322
14046TIP3    H242080   6.949   3.111   7.258
14047TIP3   OH242081   6.833   3.124   7.124
14047TIP3    H142082   6.761   3.079   7.077
14047TIP3    H242083   6.884   3.159   7.049
14048TIP3   OH242084   6.914   3.918   8.489
14048TIP3    H142085   6.988   3.955   8.541
14048TIP3    H242086   6.846   3.907   8.559
14049TIP3   OH242087   7.341   3.363   7.737
14049TIP3    H142088   7.419   3.326   7.693
14049TIP3    H242089   7.362   3.333   7.827
14050TIP3   OH242090   6.898   2.856   7.620
14050TIP3    H142091   6.865   2.776   7.666
14050TIP3    H242092   6.948   2.819   7.547
14051TIP3   OH242093   7.354   3.253   8.048
14051TIP3    H142094   7.256   3.261   8.048
14051TIP3    H242095   7.380   3.336   8.088
14052TIP3   OH242096   7.084   3.656   7.129
14052TIP3    H142097   7.014   3.588   7.119
14052TIP3    H242098   7.066   3.687   7.222
14053TIP3   OH242099   7.975   3.886   7.738
14053TIP3    H142100   8.017   3.934   7.663
14053TIP3    H242101   7.889   3.859   7.698
14054TIP3   OH242102   7.541   2.967   6.989
14054TIP3    H142103   7.444   2.954   6.999
14054TIP3    H242104   7.556   3.059   7.018
14055TIP3   OH242105   7.475   3.968   8.115
14055TIP3    H142106   7.513   3.936   8.198
14055TIP3    H242107   7.445   4.058   8.137
14056TIP3   OH242108   7.617   3.212   7.095
14056TIP3    H142109   7.709   3.187   7.072
14056TIP3    H242110   7.602   3.290   7.037
14057TIP3   OH242111   6.781   3.678   7.806
14057TIP3    H142112   6.814   3.647   7.720
14057TIP3    H242113   6.815   3.610   7.866
14058TIP3   OH242114   7.230   3.803   6.950
14058TIP3    H142115   7.183   3.890   6.958
14058TIP3    H242116   7.176   3.748   7.010
14059TIP3   OH242117   6.656   3.596   8.410
14059TIP3    H142118   6.683   3.588   8.504
14059TIP3    H242119   6.586   3.528   8.404
14060TIP3   OH242120   7.645   4.227   8.055
14060TIP3    H142121   7.549   4.222   8.043
14060TIP3    H242122   7.654   4.312   8.100
14061TIP3   OH242123   8.086   3.322   6.920
14061TIP3    H142124   8.015   3.255   6.917
14061TIP3    H242125   8.049   3.392   6.863
14062TIP3   OH242126   7.759   4.121   6.842
14062TIP3    H142127   7.731   4.049   6.901
14062TIP3    H242128   7.768   4.075   6.756
14063TIP3   OH242129   7.744   3.769   7.629
14063TIP3    H142130   7.655   3.744   7.659
14063TIP3    H242131   7.782   3.682   7.606
14064TIP3   OH242132   6.878   3.980   7.434
14064TIP3    H142133   6.877   4.060   7.377
14064TIP3    H242134   6.784   3.958   7.437
14065TIP3   OH242135   6.445   3.280   7.138
14065TIP3    H142136   6.487   3.367   7.155
14065TIP3    H242137   6.365   3.287   7.194
14066TIP3   OH242138   7.020   3.746   7.376
14066TIP3    H142139   6.983   3.834   7.397
14066TIP3    H242140   6.984   3.693   7.449
14067TIP3   OH242141   7.147   4.324   7.902
14067TIP3    H142142   7.186   4.395   7.848
14067TIP3    H242143   7.225   4.285   7.943
14068TIP3   OH242144   6.798   4.217   7.283
14068TIP3    H142145   6.712   4.225   7.330
14068TIP3    H242146   6.828   4.311   7.285
14069TIP3   OH242147   7.542   3.957   7.853
14069TIP3    H142148   7.521   3.951   7.949
14069TIP3    H242149   7.623   3.905   7.848
14070TIP3   OH242150   7.510   3.853   6.741
14070TIP3    H142151   7.563   3.826   6.819
14070TIP3    H242152   7.422   3.820   6.767
14071TIP3   OH242153   7.775   4.487   7.905
14071TIP3    H142154   7.700   4.430   7.878
14071TIP3    H242155   7.768   4.560   7.840
14072TIP3   OH242156   7.851   4.325   6.561
14072TIP3    H142157   7.886   4.395   6.504
14072TIP3    H242158   7.771   4.369   6.594
14073TIP3   OH242159   6.840   3.129   8.413
14073TIP3    H142160   6.742   3.134   8.416
14073TIP3    H242161   6.856   3.055   8.474
14074TIP3   OH242162   7.669   3.788   6.961
14074TIP3    H142163   7.658   3.719   7.029
14074TIP3    H242164   7.766   3.782   6.946
14075TIP3   OH242165   6.587   4.186   8.059
14075TIP3    H142166   6.636   4.108   8.088
14075TIP3    H242167   6.616   4.251   8.124
14076TIP3   OH242168   6.877   3.831   6.741
14076TIP3    H142169   6.891   3.739   6.710
14076TIP3    H242170   6.857   3.816   6.835
14077TIP3   OH242171   6.823   3.835   7.014
14077TIP3    H142172   6.895   3.805   7.071
14077TIP3    H242173   6.830   3.933   7.021
14078TIP3   OH242174   6.560   3.531   7.216
14078TIP3    H142175   6.493   3.574   7.272
14078TIP3    H242176   6.572   3.599   7.147
14079TIP3   OH242177   7.574   2.919   7.270
14079TIP3    H142178   7.570   2.933   7.174
14079TIP3    H242179   7.612   3.004   7.301
14080TIP3   OH242180   7.090   4.035   6.965
14080TIP3    H142181   7.002   4.060   6.999
14080TIP3    H242182   7.101   4.099   6.893
14081TIP3   OH242183   7.277   3.095   7.374
14081TIP3    H142184   7.342   3.166   7.357
14081TIP3    H242185   7.278   3.090   7.472
14082TIP3   OH242186   7.429   2.833   7.489
14082TIP3    H142187   7.412   2.914   7.539
14082TIP3    H242188   7.485   2.868   7.415
14083TIP3   OH242189   6.833   4.109   7.028
14083TIP3    H142190   6.800   4.177   6.966
14083TIP3    H242191   6.814   4.151   7.115
14084TIP3   OH242192   6.931   2.822   7.268
14084TIP3    H142193   6.931   2.912   7.303
14084TIP3    H242194   7.026   2.801   7.275
14085TIP3   OH242195   7.856   3.497   7.559
14085TIP3    H142196   7.770   3.451   7.547
14085TIP3    H242197   7.875   3.480   7.653
14086TIP3   OH242198   6.549   3.740   7.022
14086TIP3    H142199   6.615   3.811   7.030
14086TIP3    H242200   6.595   3.684   6.955
14087TIP3   OH242201   6.493   3.012   7.157
14087TIP3    H142202   6.494   3.110   7.153
14087TIP3    H242203   6.412   2.992   7.109
14088TIP3   OH242204   7.801   4.466   7.500
14088TIP3    H142205   7.763   4.516   7.424
14088TIP3    H242206   7.897   4.471   7.480
14089TIP3   OH242207   6.875   2.736   8.029
14089TIP3    H142208   6.849   2.706   7.939
14089TIP3    H242209   6.862   2.654   8.081
14090TIP3   OH242210   6.425   3.958   7.413
14090TIP3    H142211   6.347   3.985   7.462
14090TIP3    H242212   6.402   3.991   7.323
14091TIP3   OH242213   6.575   4.483   8.477
14091TIP3    H142214   6.657   4.456   8.521
14091TIP3    H242215   6.533   4.396   8.467
14092TIP3   OH242216   7.091   4.465   8.506
14092TIP3    H142217   7.156   4.392   8.505
14092TIP3    H242218   7.025   4.427   8.445
14093TIP3   OH242219   7.042   4.034   6.657
14093TIP3    H142220   6.984   3.962   6.692
14093TIP3    H242221   7.116   3.980   6.623
14094TIP3   OH242222   7.479   4.077   6.566
14094TIP3    H142223   7.518   4.009   6.623
14094TIP3    H242224   7.535   4.072   6.486
14095TIP3   OH242225   6.710   3.897   8.664
14095TIP3    H142226   6.716   3.804   8.691
14095TIP3    H242227   6.617   3.903   8.635
14096TIP3   OH242228   6.685   3.555   6.875
14096TIP3    H142229   6.739   3.516   6.946
14096TIP3    H242230   6.752   3.557   6.803
14097TIP3   OH242231   7.321   3.960   8.438
14097TIP3    H142232   7.273   3.984   8.357
14097TIP3    H242233   7.389   3.898   8.406
14098TIP3   OH242234   7.193   3.750   6.680
14098TIP3    H142235   7.196   3.761   6.777
14098TIP3    H242236   7.193   3.652   6.673
14099TIP3   OH242237   7.773   3.960   8.054
14099TIP3    H142238   7.839   4.010   8.002
14099TIP3    H242239   7.698   4.021   8.052
14100TIP3   OH242240   6.825   3.624   8.634
14100TIP3    H142241   6.892   3.556   8.621
14100TIP3    H242242   6.839   3.645   8.729
14101TIP3   OH242243   6.897   3.454   7.099
14101TIP3    H142244   6.867   3.409   7.180
14101TIP3    H242245   6.931   3.378   7.046
14102TIP3   OH242246   7.156   3.530   8.328
14102TIP3    H142247   7.074   3.583   8.323
14102TIP3    H242248   7.204   3.560   8.249
14103TIP3   OH242249   6.992   3.247   6.938
14103TIP3    H142250   6.967   3.250   6.843
14103TIP3    H242251   7.090   3.250   6.931
14104TIP3   OH242252   7.811   3.585   6.598
14104TIP3    H142253   7.794   3.530   6.518
14104TIP3    H242254   7.775   3.671   6.568
14105TIP3   OH242255   7.326   3.614   8.113
14105TIP3    H142256   7.393   3.619   8.043
14105TIP3    H242257   7.263   3.683   8.084
14106TIP3   OH242258   6.801   4.315   6.844
14106TIP3    H142259   6.895   4.309   6.821
14106TIP3    H242260   6.767   4.357   6.763
14107TIP3   OH242261   6.280   3.690   7.063
14107TIP3    H142262   6.374   3.710   7.043
14107TIP3    H242263   6.271   3.601   7.020
14108TIP3   OH242264   6.195   4.305   7.469
14108TIP3    H142265   6.127   4.243   7.434
14108TIP3    H242266   6.238   4.248   7.536
14109TIP3   OH242267   6.329   4.161   7.659
14109TIP3    H142268   6.319   4.083   7.716
14109TIP3    H242269   6.381   4.219   7.717
14110TIP3   OH242270   8.063   4.543   7.462
14110TIP3    H142271   8.064   4.608   7.533
14110TIP3    H242272   8.115   4.584   7.392
14111TIP3   OH242273   7.944   3.775   6.932
14111TIP3    H142274   8.019   3.830   6.902
14111TIP3    H242275   7.984   3.732   7.011
14112TIP3   OH242276   8.069   3.649   7.135
14112TIP3    H142277   8.008   3.598   7.193
14112TIP3    H242278   8.137   3.680   7.197
14113TIP3   OH242279   8.097   4.014   7.536
14113TIP3    H142280   8.178   3.977   7.500
14113TIP3    H242281   8.095   4.101   7.495
14114TIP3   OH242282   7.981   4.342   7.749
14114TIP3    H142283   7.919   4.388   7.807
14114TIP3    H242284   7.922   4.301   7.682
14115TIP3   OH242285   8.015   3.554   6.776
14115TIP3    H142286   7.942   3.545   6.712
14115TIP3    H242287   7.980   3.626   6.832
14116TIP3   OH242288   7.865   3.263   6.700
14116TIP3    H142289   7.828   3.228   6.618
14116TIP3    H242290   7.864   3.186   6.759
14117TIP3   OH242291   7.895   3.493   7.283
14117TIP3    H142292   7.899   3.396   7.264
14117TIP3    H242293   7.888   3.494   7.380
14118TIP3   OH242294   6.517   3.565   8.030
14118TIP3    H142295   6.517   3.534   7.937
14118TIP3    H242296   6.614   3.566   8.048
14119TIP3   OH242297   7.845   2.906   6.703
14119TIP3    H142298   7.875   2.950   6.786
14119TIP3    H242299   7.754   2.884   6.727
14120TIP3   OH242300   7.910   3.221   7.230
14120TIP3    H142301   7.940   3.129   7.246
14120TIP3    H242302   7.917   3.218   7.132
14121TIP3   OH242303   6.751   3.248   8.701
14121TIP3    H142304   6.831   3.213   8.660
14121TIP3    H242305   6.704   3.163   8.718
14122TIP3   OH242306   7.998   2.947   7.276
14122TIP3    H142307   8.022   2.861   7.313
14122TIP3    H242308   7.930   2.918   7.213
14123TIP3   OH242309   6.697   2.945   8.038
14123TIP3    H142310   6.758   2.869   8.048
14123TIP3    H242311   6.762   3.018   8.030
14124TIP3   OH242312   6.501   3.215   8.109
14124TIP3    H142313   6.550   3.208   8.025
14124TIP3    H242314   6.530   3.302   8.139
14125TIP3   OH242315   8.139   2.854   6.855
14125TIP3    H142316   8.130   2.803   6.773
14125TIP3    H242317   8.139   2.947   6.826
14126TIP3   OH242318   6.483   2.724   7.612
14126TIP3    H142319   6.388   2.718   7.634
14126TIP3    H242320   6.482   2.780   7.532
14127TIP3   OH242321   7.646   4.424   7.117
14127TIP3    H142322   7.687   4.402   7.031
14127TIP3    H242323   7.707   4.490   7.151
14128TIP3   OH242324   6.673   2.780   8.403
14128TIP3    H142325   6.646   2.793   8.496
14128TIP3    H242326   6.610   2.840   8.357
14129TIP3   OH242327   6.742   4.236   8.509
14129TIP3    H142328   6.655   4.201   8.482
14129TIP3    H242329   6.761   4.183   8.587
14130TIP3   OH242330   6.921   4.260   8.052
14130TIP3    H142331   6.870   4.333   8.011
14130TIP3    H242332   7.006   4.275   8.006
14131TIP3   OH242333   7.382   4.498   8.199
14131TIP3    H142334   7.445   4.499   8.272
14131TIP3    H242335   7.432   4.549   8.132
14132TIP3   OH242336   7.548   4.638   8.039
14132TIP3    H142337   7.615   4.593   7.985
14132TIP3    H242338   7.607   4.691   8.098
14133TIP3   OH242339   6.599   4.517   8.071
14133TIP3    H142340   6.510   4.550   8.045
14133TIP3    H242341   6.602   4.549   8.162
14134TIP3   OH242342   6.836   4.496   7.929
14134TIP3    H142343   6.749   4.508   7.974
14134TIP3    H242344   6.815   4.528   7.839
14135TIP3   OH242345   7.259   4.526   7.726
14135TIP3    H142346   7.189   4.542   7.661
14135TIP3    H242347   7.269   4.614   7.767
14136TIP3   OH242348   7.524   4.460   7.781
14136TIP3    H142349   7.431   4.480   7.755
14136TIP3    H242350   7.572   4.534   7.739
14137TIP3   OH242351   7.721   4.652   7.692
14137TIP3    H142352   7.716   4.740   7.649
14137TIP3    H242353   7.748   4.593   7.619
14138TIP3   OH242354   6.510   4.311   7.818
14138TIP3    H142355   6.536   4.285   7.909
14138TIP3    H242356   6.580   4.265   7.767
14139TIP3   OH242357   6.702   4.181   7.674
14139TIP3    H142358   6.719   4.096   7.722
14139TIP3    H242359   6.792   4.217   7.665
14140TIP3   OH242360   6.970   4.278   7.673
14140TIP3    H142361   7.000   4.186   7.658
14140TIP3    H242362   7.009   4.295   7.760
14141TIP3   OH242363   7.529   2.968   7.758
14141TIP3    H142364   7.532   2.910   7.834
14141TIP3    H242365   7.619   2.962   7.724
14142TIP3   OH242366   6.793   2.644   7.783
14142TIP3    H142367   6.700   2.612   7.780
14142TIP3    H242368   6.842   2.559   7.781
14143TIP3   OH242369   6.581   2.509   7.429
14143TIP3    H142370   6.611   2.566   7.355
14143TIP3    H242371   6.551   2.575   7.494
14144TIP3   OH242372   7.232   2.676   7.670
14144TIP3    H142373   7.286   2.725   7.606
14144TIP3    H242374   7.228   2.734   7.746
14145TIP3   OH242375   7.810   2.738   7.201
14145TIP3    H142376   7.723   2.776   7.217
14145TIP3    H242377   7.801   2.651   7.245
14146TIP3   OH242378   6.297   4.081   7.210
14146TIP3    H142379   6.214   4.045   7.175
14146TIP3    H242380   6.284   4.175   7.190
14147TIP3   OH242381   6.696   2.669   7.193
14147TIP3    H142382   6.745   2.607   7.135
14147TIP3    H242383   6.768   2.724   7.229
14148TIP3   OH242384   7.208   2.845   7.291
14148TIP3    H142385   7.267   2.791   7.347
14148TIP3    H242386   7.236   2.935   7.318
14149TIP3   OH242387   7.069   4.274   6.788
14149TIP3    H142388   7.158   4.293   6.753
14149TIP3    H242389   7.046   4.198   6.730
14150TIP3   OH242390   7.786   4.387   6.883
14150TIP3    H142391   7.781   4.289   6.872
14150TIP3    H242392   7.742   4.417   6.802
14151TIP3   OH242393   6.376   4.114   6.848
14151TIP3    H142394   6.371   4.133   6.942
14151TIP3    H242395   6.463   4.069   6.839
14152TIP3   OH242396   8.510   4.213   7.318
14152TIP3    H142397   8.460   4.130   7.323
14152TIP3    H242398   8.593   4.178   7.278
14153TIP3   OH242399   8.239   3.427   7.119
14153TIP3    H142400   8.189   3.507   7.101
14153TIP3    H242401   8.202   3.369   7.049
14154TIP3   OH242402   8.312   3.718   7.256
14154TIP3    H142403   8.358   3.649   7.307
14154TIP3    H242404   8.367   3.720   7.176
14155TIP3   OH242405   9.161   4.126   6.734
14155TIP3    H142406   9.153   4.084   6.648
14155TIP3    H242407   9.122   4.215   6.719
14156TIP3   OH242408   8.154   3.932   6.826
14156TIP3    H142409   8.111   3.955   6.742
14156TIP3    H242410   8.182   4.018   6.862
14157TIP3   OH242411   9.132   3.812   6.650
14157TIP3    H142412   9.042   3.834   6.623
14157TIP3    H242413   9.164   3.760   6.575
14158TIP3   OH242414   8.671   3.871   7.050
14158TIP3    H142415   8.613   3.821   6.989
14158TIP3    H242416   8.723   3.794   7.082
14159TIP3   OH242417   9.063   4.401   6.739
14159TIP3    H142418   9.095   4.464   6.804
14159TIP3    H242419   8.978   4.439   6.711
14160TIP3   OH242420   8.533   3.706   6.869
14160TIP3    H142421   8.469   3.719   6.798
14160TIP3    H242422   8.540   3.610   6.876
14161TIP3   OH242423   8.195   4.255   7.397
14161TIP3    H142424   8.291   4.259   7.400
14161TIP3    H242425   8.167   4.332   7.448
14162TIP3   OH242426   8.912   4.611   6.544
14162TIP3    H142427   8.879   4.592   6.455
14162TIP3    H242428   8.903   4.706   6.551
14163TIP3   OH242429   8.361   4.474   6.925
14163TIP3    H142430   8.409   4.462   7.010
14163TIP3    H242431   8.308   4.392   6.922
14164TIP3   OH242432   9.123   4.586   6.245
14164TIP3    H142433   9.153   4.513   6.187
14164TIP3    H242434   9.154   4.553   6.333
14165TIP3   OH242435   9.171   4.510   6.504
14165TIP3    H142436   9.078   4.513   6.536
14165TIP3    H242437   9.203   4.434   6.555
14166TIP3   OH242438   8.657   3.156   6.409
14166TIP3    H142439   8.644   3.113   6.323
14166TIP3    H242440   8.635   3.086   6.472
14167TIP3   OH242441   8.256   3.116   6.853
14167TIP3    H142442   8.309   3.161   6.785
14167TIP3    H242443   8.196   3.194   6.879
14168TIP3   OH242444   8.603   3.399   6.611
14168TIP3    H142445   8.533   3.345   6.573
14168TIP3    H242446   8.670   3.401   6.541
14169TIP3   OH242447   8.864   3.920   6.619
14169TIP3    H142448   8.802   3.844   6.610
14169TIP3    H242449   8.858   3.941   6.714
14170TIP3   OH242450   9.007   4.057   6.427
14170TIP3    H142451   8.971   4.147   6.446
14170TIP3    H242452   8.962   4.005   6.497
14171TIP3   OH242453   8.673   4.239   6.904
14171TIP3    H142454   8.664   4.322   6.853
14171TIP3    H242455   8.582   4.209   6.911
14172TIP3   OH242456   8.235   3.538   6.616
14172TIP3    H142457   8.281   3.622   6.637
14172TIP3    H242458   8.159   3.542   6.678
14173TIP3   OH242459   8.837   4.012   6.887
14173TIP3    H142460   8.794   4.100   6.894
14173TIP3    H242461   8.776   3.958   6.941
14174TIP3   OH242462   8.594   4.475   6.770
14174TIP3    H142463   8.507   4.485   6.813
14174TIP3    H242464   8.625   4.568   6.769
14175TIP3   OH242465   8.673   4.089   6.228
14175TIP3    H142466   8.686   3.999   6.196
14175TIP3    H242467   8.652   4.074   6.323
14176TIP3   OH242468   8.618   4.091   6.501
14176TIP3    H142469   8.695   4.057   6.550
14176TIP3    H242470   8.627   4.188   6.511
14177TIP3   OH242471   8.345   3.785   6.688
14177TIP3    H142472   8.284   3.827   6.753
14177TIP3    H242473   8.362   3.860   6.629
14178TIP3   OH242474   8.886   4.297   6.461
14178TIP3    H142475   8.795   4.323   6.486
14178TIP3    H242476   8.900   4.356   6.385
14179TIP3   OH242477   8.626   4.366   6.514
14179TIP3    H142478   8.594   4.435   6.452
14179TIP3    H242479   8.610   4.410   6.601
14180TIP3   OH242480   8.346   4.001   6.505
14180TIP3    H142481   8.417   4.066   6.515
14180TIP3    H242482   8.390   3.942   6.440
14181TIP3   OH242483   8.300   3.273   6.633
14181TIP3    H142484   8.291   3.370   6.631
14181TIP3    H242485   8.209   3.245   6.614
14182TIP3   OH242486   8.225   4.225   6.904
14182TIP3    H142487   8.139   4.242   6.946
14182TIP3    H242488   8.203   4.250   6.812
14183TIP3   OH242489   8.846   4.286   6.147
14183TIP3    H142490   8.779   4.220   6.177
14183TIP3    H242491   8.924   4.228   6.140
14184TIP3   OH242492   8.482   3.812   6.359
14184TIP3    H142493   8.530   3.770   6.433
14184TIP3    H242494   8.553   3.813   6.291
14185TIP3   OH242495   8.995   3.992   6.161
14185TIP3    H142496   9.011   4.025   6.253
14185TIP3    H242497   8.952   3.908   6.181
14186TIP3   OH242498   8.695   3.706   6.587
14186TIP3    H142499   8.665   3.663   6.669
14186TIP3    H242500   8.726   3.628   6.537
14187TIP3   OH242501   8.791   3.499   6.423
14187TIP3    H142502   8.758   3.495   6.331
14187TIP3    H242503   8.885   3.513   6.410
14188TIP3   OH242504   8.593   4.573   6.331
14188TIP3    H142505   8.688   4.563   6.312
14188TIP3    H242506   8.564   4.617   6.249
14189TIP3   OH242507   8.077   3.949   6.546
14189TIP3    H142508   8.171   3.970   6.529
14189TIP3    H242509   8.070   3.859   6.506
14190TIP3   OH242510   7.987   4.562   6.955
14190TIP3    H142511   7.922   4.497   6.919
14190TIP3    H242512   8.033   4.505   7.021
14191TIP3   OH242513   8.120   4.420   7.148
14191TIP3    H142514   8.112   4.336   7.195
14191TIP3    H242515   8.179   4.470   7.206
14192TIP3   OH242516   8.247   2.998   7.094
14192TIP3    H142517   8.152   2.981   7.088
14192TIP3    H242518   8.262   3.037   7.007
14193TIP3   OH242519   8.309   4.569   7.303
14193TIP3    H142520   8.363   4.578   7.383
14193TIP3    H242521   8.375   4.525   7.245
14194TIP3   OH242522   8.500   4.442   7.159
14194TIP3    H142523   8.504   4.354   7.202
14194TIP3    H242524   8.594   4.461   7.148
14195TIP3   OH242525   8.393   2.770   6.928
14195TIP3    H142526   8.407   2.812   6.844
14195TIP3    H242527   8.332   2.835   6.967
14196TIP3   OH242528   8.093   4.337   6.697
14196TIP3    H142529   8.009   4.300   6.663
14196TIP3    H242530   8.079   4.430   6.674
14197TIP3   OH242531   8.497   2.932   6.650
14197TIP3    H142532   8.577   2.876   6.661
14197TIP3    H242533   8.499   2.985   6.733
14198TIP3   OH242534   8.859   4.530   6.279
14198TIP3    H142535   8.946   4.566   6.254
14198TIP3    H242536   8.850   4.456   6.214
14199TIP3   OH242537   8.172   4.369   6.334
14199TIP3    H142538   8.169   4.388   6.429
14199TIP3    H242539   8.258   4.324   6.324
14200TIP3   OH242540   1.707   5.270   8.349
14200TIP3    H142541   1.750   5.182   8.347
14200TIP3    H242542   1.782   5.331   8.334
14201TIP3   OH242543   1.862   5.039   8.342
14201TIP3    H142544   1.890   4.985   8.266
14201TIP3    H242545   1.946   5.064   8.384
14202TIP3   OH242546   1.527   4.324   8.078
14202TIP3    H142547   1.590   4.378   8.126
14202TIP3    H242548   1.587   4.267   8.025
14203TIP3   OH242549   1.777   4.469   8.158
14203TIP3    H142550   1.804   4.552   8.198
14203TIP3    H242551   1.783   4.493   8.062
14204TIP3   OH242552   2.272   3.733   8.211
14204TIP3    H142553   2.178   3.727   8.231
14204TIP3    H242554   2.277   3.811   8.152
14205TIP3   OH242555   2.065   5.096   7.755
14205TIP3    H142556   2.074   5.192   7.735
14205TIP3    H242557   2.157   5.065   7.741
14206TIP3   OH242558   1.362   5.403   8.222
14206TIP3    H142559   1.316   5.395   8.137
14206TIP3    H242560   1.358   5.499   8.241
14207TIP3   OH242561   1.572   5.310   7.864
14207TIP3    H142562   1.636   5.242   7.832
14207TIP3    H242563   1.602   5.324   7.956
14208TIP3   OH242564   1.608   5.370   8.124
14208TIP3    H142565   1.516   5.382   8.157
14208TIP3    H242566   1.641   5.320   8.202
14209TIP3   OH242567   1.830   4.539   7.904
14209TIP3    H142568   1.788   4.507   7.821
14209TIP3    H242569   1.909   4.583   7.868
14210TIP3   OH242570   1.760   4.029   8.133
14210TIP3    H142571   1.734   3.972   8.208
14210TIP3    H242572   1.811   4.097   8.182
14211TIP3   OH242573   1.889   4.243   8.258
14211TIP3    H142574   1.984   4.257   8.250
14211TIP3    H242575   1.853   4.318   8.205
14212TIP3   OH242576   1.477   4.855   8.112
14212TIP3    H142577   1.437   4.943   8.130
14212TIP3    H242578   1.438   4.804   8.183
14213TIP3   OH242579   2.320   4.338   8.091
14213TIP3    H142580   2.245   4.297   8.041
14213TIP3    H242581   2.310   4.429   8.055
14214TIP3   OH242582   2.010   5.162   8.019
14214TIP3    H142583   1.974   5.083   8.061
14214TIP3    H242584   2.021   5.132   7.927
14215TIP3   OH242585   1.758   4.892   7.919
14215TIP3    H142586   1.799   4.873   8.005
14215TIP3    H242587   1.665   4.868   7.936
14216TIP3   OH242588   2.099   5.369   7.739
14216TIP3    H142589   2.133   5.438   7.680
14216TIP3    H242590   2.019   5.416   7.771
14217TIP3   OH242591   1.929   4.852   8.150
14217TIP3    H142592   1.908   4.768   8.192
14217TIP3    H242593   2.023   4.838   8.124
14218TIP3   OH242594   1.127   4.871   7.891
14218TIP3    H142595   1.136   4.777   7.870
14218TIP3    H242596   1.142   4.869   7.988
14219TIP3   OH242597   1.159   4.878   8.157
14219TIP3    H142598   1.139   4.822   8.232
14219TIP3    H242599   1.112   4.962   8.179
14220TIP3   OH242600   1.358   5.102   8.140
14220TIP3    H142601   1.260   5.104   8.137
14220TIP3    H242602   1.377   5.147   8.056
14221TIP3   OH242603   1.084   5.152   8.126
14221TIP3    H142604   1.049   5.229   8.073
14221TIP3    H242605   1.055   5.177   8.215
14222TIP3   OH242606   0.771   4.841   8.123
14222TIP3    H142607   0.834   4.909   8.100
14222TIP3    H242608   0.813   4.763   8.086
14223TIP3   OH242609   1.297   5.078   7.841
14223TIP3    H142610   1.232   5.008   7.862
14223TIP3    H242611   1.364   5.026   7.794
14224TIP3   OH242612   1.730   5.121   7.743
14224TIP3    H142613   1.777   5.054   7.795
14224TIP3    H242614   1.778   5.120   7.657
14225TIP3   OH242615   0.901   4.620   8.011
14225TIP3    H142616   0.915   4.556   8.082
14225TIP3    H242617   0.987   4.615   7.964
14226TIP3   OH242618   1.445   4.793   7.851
14226TIP3    H142619   1.442   4.809   7.947
14226TIP3    H242620   1.442   4.695   7.849
14227TIP3   OH242621   1.229   4.311   8.107
14227TIP3    H142622   1.203   4.317   8.013
14227TIP3    H242623   1.325   4.326   8.103
14228TIP3   OH242624   2.067   4.623   7.777
14228TIP3    H142625   2.046   4.576   7.693
14228TIP3    H242626   2.034   4.712   7.753
14229TIP3   OH242627   1.044   5.390   8.004
14229TIP3    H142628   1.140   5.384   7.990
14229TIP3    H242629   1.018   5.437   7.923
14230TIP3   OH242630   2.316   5.618   8.520
14230TIP3    H142631   2.268   5.626   8.604
14230TIP3    H242632   2.374   5.696   8.523
14231TIP3   OH242633   2.194   4.812   8.109
14231TIP3    H142634   2.260   4.877   8.078
14231TIP3    H242635   2.241   4.769   8.183
14232TIP3   OH242636   2.336   4.667   8.300
14232TIP3    H142637   2.295   4.659   8.387
14232TIP3    H242638   2.388   4.746   8.316
14233TIP3   OH242639   2.265   4.587   7.960
14233TIP3    H142640   2.196   4.584   7.891
14233TIP3    H242641   2.234   4.665   8.010
14234TIP3   OH242642   2.129   4.260   7.915
14234TIP3    H142643   2.091   4.297   7.835
14234TIP3    H242644   2.105   4.165   7.905
14235TIP3   OH242645   2.081   3.993   7.906
14235TIP3    H142646   2.142   3.951   7.968
14235TIP3    H242647   1.999   3.939   7.914
14236TIP3   OH242648   2.344   3.934   8.030
14236TIP3    H142649   2.367   3.854   7.977
14236TIP3    H242650   2.376   4.004   7.971
14237TIP3   OH242651   1.910   5.452   8.315
14237TIP3    H142652   1.941   5.440   8.222
14237TIP3    H242653   1.956   5.534   8.336
14238TIP3   OH242654   1.311   5.332   7.952
14238TIP3    H142655   1.401   5.346   7.918
14238TIP3    H242656   1.290   5.248   7.905
14239TIP3   OH242657   2.029   5.433   8.065
14239TIP3    H142658   2.026   5.336   8.049
14239TIP3    H242659   1.987   5.467   7.983
14240TIP3   OH242660   3.528   4.947   8.016
14240TIP3    H142661   3.500   5.039   7.998
14240TIP3    H242662   3.451   4.899   7.981
14241TIP3   OH242663   3.511   4.958   8.385
14241TIP3    H142664   3.552   4.939   8.472
14241TIP3    H242665   3.482   4.870   8.357
14242TIP3   OH242666   3.769   5.248   8.078
14242TIP3    H142667   3.761   5.176   8.142
14242TIP3    H242668   3.804   5.321   8.131
14243TIP3   OH242669   2.795   5.266   8.504
14243TIP3    H142670   2.790   5.167   8.499
14243TIP3    H242671   2.890   5.276   8.487
14244TIP3   OH242672   2.544   4.445   8.238
14244TIP3    H142673   2.504   4.533   8.251
14244TIP3    H242674   2.461   4.394   8.247
14245TIP3   OH242675   2.663   4.730   8.414
14245TIP3    H142676   2.580   4.710   8.460
14245TIP3    H242677   2.639   4.741   8.322
14246TIP3   OH242678   3.422   5.716   8.097
14246TIP3    H142679   3.465   5.650   8.038
14246TIP3    H242680   3.413   5.662   8.177
14247TIP3   OH242681   3.332   5.181   8.435
14247TIP3    H142682   3.365   5.101   8.390
14247TIP3    H242683   3.418   5.222   8.457
14248TIP3   OH242684   4.342   4.497   8.431
14248TIP3    H142685   4.370   4.579   8.476
14248TIP3    H242686   4.371   4.516   8.339
14249TIP3   OH242687   3.747   4.681   8.478
14249TIP3    H142688   3.782   4.590   8.491
14249TIP3    H242689   3.712   4.671   8.387
14250TIP3   OH242690   3.094   4.315   8.419
14250TIP3    H142691   3.072   4.405   8.387
14250TIP3    H242692   3.013   4.269   8.396
14251TIP3   OH242693   3.770   4.429   8.065
14251TIP3    H142694   3.842   4.411   8.130
14251TIP3    H242695   3.823   4.462   7.990
14252TIP3   OH242696   3.155   4.736   8.340
14252TIP3    H142697   3.248   4.714   8.357
14252TIP3    H242698   3.118   4.650   8.312
14253TIP3   OH242699   4.412   4.693   8.617
14253TIP3    H142700   4.334   4.748   8.593
14253TIP3    H242701   4.447   4.741   8.694
14254TIP3   OH242702   3.411   5.164   7.891
14254TIP3    H142703   3.388   5.151   7.798
14254TIP3    H242704   3.374   5.252   7.910
14255TIP3   OH242705   3.193   5.109   8.661
14255TIP3    H142706   3.139   5.188   8.665
14255TIP3    H242707   3.248   5.128   8.582
14256TIP3   OH242708   3.985   4.427   8.232
14256TIP3    H142709   3.972   4.382   8.316
14256TIP3    H242710   4.038   4.504   8.258
14257TIP3   OH242711   2.399   4.976   8.006
14257TIP3    H142712   2.363   5.003   7.919
14257TIP3    H242713   2.432   5.061   8.041
14258TIP3   OH242714   3.839   5.493   8.247
14258TIP3    H142715   3.748   5.490   8.284
14258TIP3    H242716   3.835   5.577   8.197
14259TIP3   OH242717   4.145   4.382   8.588
14259TIP3    H142718   4.057   4.421   8.576
14259TIP3    H242719   4.199   4.425   8.518
14260TIP3   OH242720   3.542   5.547   7.920
14260TIP3    H142721   3.587   5.461   7.901
14260TIP3    H242722   3.606   5.607   7.876
14261TIP3   OH242723   3.674   5.328   7.830
14261TIP3    H142724   3.673   5.257   7.764
14261TIP3    H242725   3.712   5.284   7.909
14262TIP3   OH242726   4.069   5.414   8.584
14262TIP3    H142727   4.068   5.332   8.529
14262TIP3    H242728   4.062   5.484   8.516
14263TIP3   OH242729   3.358   4.800   7.843
14263TIP3    H142730   3.281   4.856   7.820
14263TIP3    H242731   3.408   4.798   7.760
14264TIP3   OH242732   3.318   4.582   7.565
14264TIP3    H142733   3.385   4.637   7.610
14264TIP3    H242734   3.377   4.521   7.516
14265TIP3   OH242735   4.264   5.040   8.431
14265TIP3    H142736   4.184   5.095   8.443
14265TIP3    H242737   4.291   5.068   8.341
14266TIP3   OH242738   3.707   4.879   7.818
14266TIP3    H142739   3.654   4.906   7.897
14266TIP3    H242740   3.792   4.856   7.861
14267TIP3   OH242741   3.936   4.897   8.687
14267TIP3    H142742   3.926   4.961   8.762
14267TIP3    H242743   3.860   4.926   8.634
14268TIP3   OH242744   2.941   4.887   8.230
14268TIP3    H142745   2.899   4.823   8.170
14268TIP3    H242746   3.016   4.835   8.266
14269TIP3   OH242747   3.067   5.292   8.384
14269TIP3    H142748   3.042   5.249   8.301
14269TIP3    H242749   3.159   5.260   8.396
14270TIP3   OH242750   3.069   4.866   8.581
14270TIP3    H142751   3.103   4.821   8.502
14270TIP3    H242752   3.140   4.928   8.603
14271TIP3   OH242753   3.595   5.501   8.372
14271TIP3    H142754   3.586   5.563   8.445
14271TIP3    H242755   3.584   5.415   8.417
14272TIP3   OH242756   3.546   4.742   7.642
14272TIP3    H142757   3.605   4.802   7.694
14272TIP3    H242758   3.574   4.763   7.550
14273TIP3   OH242759   3.286   5.428   7.926
14273TIP3    H142760   3.370   5.477   7.932
14273TIP3    H242761   3.230   5.487   7.874
14274TIP3   OH242762   4.064   3.984   7.690
14274TIP3    H142763   3.983   4.003   7.741
14274TIP3    H242764   4.077   4.068   7.640
14275TIP3   OH242765   2.798   4.715   8.044
14275TIP3    H142766   2.754   4.779   7.985
14275TIP3    H242767   2.742   4.638   8.030
14276TIP3   OH242768   2.432   5.309   8.531
14276TIP3    H142769   2.522   5.278   8.546
14276TIP3    H242770   2.424   5.379   8.599
14277TIP3   OH242771   4.301   5.750   8.627
14277TIP3    H142772   4.306   5.654   8.644
14277TIP3    H242773   4.217   5.771   8.675
14278TIP3   OH242774   3.359   5.586   8.727
14278TIP3    H142775   3.374   5.669   8.778
14278TIP3    H242776   3.312   5.529   8.789
14279TIP3   OH242777   3.164   5.663   7.723
14279TIP3    H142778   3.126   5.645   7.635
14279TIP3    H242779   3.138   5.756   7.739
14280TIP3   OH242780   2.609   5.518   8.102
14280TIP3    H142781   2.658   5.506   8.186
14280TIP3    H242782   2.547   5.444   8.108
14281TIP3   OH242783   3.375   5.559   7.364
14281TIP3    H142784   3.465   5.529   7.333
14281TIP3    H242785   3.399   5.575   7.458
14282TIP3   OH242786   3.417   5.620   7.633
14282TIP3    H142787   3.332   5.623   7.681
14282TIP3    H242788   3.473   5.567   7.692
14283TIP3   OH242789   3.625   4.781   7.388
14283TIP3    H142790   3.592   4.761   7.298
14283TIP3    H242791   3.693   4.847   7.367
14284TIP3   OH242792   3.334   4.166   7.688
14284TIP3    H142793   3.302   4.160   7.780
14284TIP3    H242794   3.299   4.082   7.653
14285TIP3   OH242795   3.005   4.513   8.253
14285TIP3    H142796   2.916   4.544   8.236
14285TIP3    H242797   3.030   4.477   8.164
14286TIP3   OH242798   3.495   4.599   7.975
14286TIP3    H142799   3.444   4.672   7.934
14286TIP3    H242800   3.553   4.571   7.901
14287TIP3   OH242801   3.652   4.634   8.219
14287TIP3    H142802   3.595   4.663   8.146
14287TIP3    H242803   3.687   4.551   8.179
14288TIP3   OH242804   2.991   4.136   7.653
14288TIP3    H142805   2.983   4.134   7.751
14288TIP3    H242806   2.911   4.187   7.629
14289TIP3   OH242807   2.559   4.215   8.062
14289TIP3    H142808   2.569   4.227   7.964
14289TIP3    H242809   2.469   4.255   8.070
14290TIP3   OH242810   3.657   4.906   8.606
14290TIP3    H142811   3.688   4.817   8.576
14290TIP3    H242812   3.638   4.889   8.700
14291TIP3   OH242813   3.345   4.340   8.304
14291TIP3    H142814   3.258   4.331   8.349
14291TIP3    H242815   3.405   4.351   8.379
14292TIP3   OH242816   3.037   4.393   8.007
14292TIP3    H142817   3.133   4.403   7.992
14292TIP3    H242818   2.997   4.416   7.921
14293TIP3   OH242819   3.808   4.414   8.489
14293TIP3    H142820   3.815   4.406   8.585
14293TIP3    H242821   3.735   4.351   8.468
14294TIP3   OH242822   2.872   4.422   7.786
14294TIP3    H142823   2.807   4.376   7.729
14294TIP3    H242824   2.929   4.462   7.717
14295TIP3   OH242825   3.994   6.100   8.722
14295TIP3    H142826   4.004   6.121   8.627
14295TIP3    H242827   4.078   6.140   8.757
14296TIP3   OH242828   3.423   4.660   8.413
14296TIP3    H142829   3.495   4.628   8.357
14296TIP3    H242830   3.452   4.632   8.502
14297TIP3   OH242831   2.895   4.169   8.234
14297TIP3    H142832   2.903   4.088   8.289
14297TIP3    H242833   2.979   4.162   8.185
14298TIP3   OH242834   3.129   4.956   7.792
14298TIP3    H142835   3.057   4.890   7.783
14298TIP3    H242836   3.113   4.990   7.884
14299TIP3   OH242837   4.034   5.193   8.424
14299TIP3    H142838   4.058   5.241   8.342
14299TIP3    H242839   3.950   5.149   8.399
14300TIP3   OH242840   3.590   4.266   7.657
14300TIP3    H142841   3.493   4.251   7.661
14300TIP3    H242842   3.600   4.361   7.678
14301TIP3   OH242843   3.659   4.515   7.758
14301TIP3    H142844   3.755   4.520   7.774
14301TIP3    H242845   3.642   4.595   7.705
14302TIP3   OH242846   2.831   4.999   8.471
14302TIP3    H142847   2.854   4.963   8.383
14302TIP3    H242848   2.864   4.927   8.527
14303TIP3   OH242849   3.275   5.104   7.611
14303TIP3    H142850   3.229   5.190   7.619
14303TIP3    H242851   3.223   5.049   7.674
14304TIP3   OH242852   3.686   5.553   8.679
14304TIP3    H142853   3.597   5.515   8.684
14304TIP3    H242854   3.709   5.558   8.772
14305TIP3   OH242855   4.101   4.603   7.596
14305TIP3    H142856   4.040   4.559   7.533
14305TIP3    H242857   4.098   4.693   7.555
14306TIP3   OH242858   4.320   5.466   8.674
14306TIP3    H142859   4.222   5.461   8.670
14306TIP3    H242860   4.343   5.432   8.584
14307TIP3   OH242861   3.794   5.055   8.342
14307TIP3    H142862   3.703   5.025   8.356
14307TIP3    H242863   3.832   4.977   8.298
14308TIP3   OH242864   2.922   5.282   8.099
14308TIP3    H142865   2.925   5.360   8.041
14308TIP3    H242866   2.828   5.261   8.098
14309TIP3   OH242867   2.491   4.581   7.799
14309TIP3    H142868   2.533   4.669   7.814
14309TIP3    H242869   2.411   4.589   7.856
14310TIP3   OH242870   3.061   5.046   8.037
14310TIP3    H142871   3.030   5.137   8.058
14310TIP3    H242872   3.028   4.996   8.113
14311TIP3   OH242873   3.172   5.632   8.540
14311TIP3    H142874   3.221   5.700   8.492
14311TIP3    H242875   3.244   5.598   8.598
14312TIP3   OH242876   2.843   5.518   7.947
14312TIP3    H142877   2.758   5.527   7.993
14312TIP3    H242878   2.874   5.612   7.947
14313TIP3   OH242879   3.587   5.262   8.524
14313TIP3    H142880   3.596   5.248   8.619
14313TIP3    H242881   3.660   5.209   8.491
14314TIP3   OH242882   3.540   5.113   7.404
14314TIP3    H142883   3.603   5.120   7.479
14314TIP3    H242884   3.456   5.118   7.451
14315TIP3   OH242885   3.839   5.788   8.570
14315TIP3    H142886   3.756   5.740   8.582
14315TIP3    H242887   3.812   5.857   8.505
14316TIP3   OH242888   3.710   5.091   7.634
14316TIP3    H142889   3.708   5.017   7.697
14316TIP3    H242890   3.804   5.092   7.609
14317TIP3   OH242891   2.918   5.133   7.405
14317TIP3    H142892   2.940   5.043   7.373
14317TIP3    H242893   2.902   5.116   7.500
14318TIP3   OH242894   2.867   5.135   7.681
14318TIP3    H142895   2.945   5.111   7.734
14318TIP3    H242896   2.872   5.233   7.683
14319TIP3   OH242897   2.605   4.832   7.881
14319TIP3    H142898   2.538   4.879   7.935
14319TIP3    H242899   2.620   4.899   7.811
14320TIP3   OH242900   3.624   4.222   7.938
14320TIP3    H142901   3.616   4.242   7.842
14320TIP3    H242902   3.666   4.304   7.972
14321TIP3   OH242903   3.133   5.333   7.629
14321TIP3    H142904   3.046   5.364   7.659
14321TIP3    H242905   3.152   5.397   7.558
14322TIP3   OH242906   3.315   4.400   8.038
14322TIP3    H142907   3.382   4.469   8.016
14322TIP3    H242908   3.329   4.391   8.135
14323TIP3   OH242909   3.466   4.129   8.144
14323TIP3    H142910   3.452   4.210   8.197
14323TIP3    H242911   3.527   4.164   8.074
14324TIP3   OH242912   2.875   5.409   7.690
14324TIP3    H142913   2.844   5.478   7.628
14324TIP3    H242914   2.860   5.453   7.777
14325TIP3   OH242915   2.974   4.125   7.931
14325TIP3    H142916   2.988   4.218   7.958
14325TIP3    H242917   3.066   4.093   7.939
14326TIP3   OH242918   4.246   4.601   8.836
14326TIP3    H142919   4.171   4.653   8.809
14326TIP3    H242920   4.288   4.582   8.751
14327TIP3   OH242921   3.881   4.812   8.217
14327TIP3    H142922   3.807   4.750   8.228
14327TIP3    H242923   3.955   4.766   8.263
14328TIP3   OH242924   2.593   5.040   7.686
14328TIP3    H142925   2.658   5.112   7.695
14328TIP3    H242926   2.640   4.987   7.618
14329TIP3   OH242927   2.528   4.310   7.817
14329TIP3    H142928   2.532   4.408   7.812
14329TIP3    H242929   2.457   4.290   7.755
14330TIP3   OH242930   3.847   5.769   8.169
14330TIP3    H142931   3.806   5.818   8.094
14330TIP3    H242932   3.942   5.787   8.150
14331TIP3   OH242933   2.468   5.248   8.072
14331TIP3    H142934   2.399   5.285   8.130
14331TIP3    H242935   2.443   5.290   7.987
14332TIP3   OH242936   3.084   5.336   7.321
14332TIP3    H142937   3.030   5.261   7.353
14332TIP3    H242938   3.163   5.289   7.287
14333TIP3   OH242939   2.728   4.853   7.539
14333TIP3    H142940   2.786   4.821   7.609
14333TIP3    H242941   2.793   4.858   7.465
14334TIP3   OH242942   3.223   5.047   7.344
14334TIP3    H142943   3.240   5.062   7.439
14334TIP3    H242944   3.232   4.950   7.339
14335TIP3   OH242945   3.835   5.319   8.698
14335TIP3    H142946   3.925   5.340   8.667
14335TIP3    H242947   3.789   5.401   8.673
14336TIP3   OH242948   2.936   4.755   7.762
14336TIP3    H142949   2.916   4.706   7.843
14336TIP3    H242950   2.975   4.684   7.706
14337TIP3   OH242951   3.036   4.547   7.606
14337TIP3    H142952   3.011   4.550   7.511
14337TIP3    H242953   3.134   4.550   7.598
14338TIP3   OH242954   3.863   4.887   7.259
14338TIP3    H142955   3.833   4.843   7.177
14338TIP3    H242956   3.832   4.979   7.242
14339TIP3   OH242957   5.734   6.868   0.681
14339TIP3    H142958   5.647   6.874   0.640
14339TIP3    H242959   5.791   6.872   0.602
14340TIP3   OH242960   2.845   5.614   7.506
14340TIP3    H142961   2.940   5.608   7.487
14340TIP3    H242962   2.814   5.660   7.425
14341TIP3   OH242963   2.326   4.990   7.727
14341TIP3    H142964   2.420   5.014   7.708
14341TIP3    H242965   2.319   4.903   7.683
14342TIP3   OH242966   2.237   5.605   8.132
14342TIP3    H142967   2.170   5.543   8.098
14342TIP3    H242968   2.287   5.547   8.194
14343TIP3   OH242969   2.380   5.457   8.307
14343TIP3    H142970   2.388   5.378   8.363
14343TIP3    H242971   2.368   5.523   8.379
14344TIP3   OH242972   4.097   5.865   8.121
14344TIP3    H142973   4.133   5.893   8.207
14344TIP3    H242974   4.165   5.896   8.059
14345TIP3   OH242975   4.131   5.880   8.404
14345TIP3    H142976   4.088   5.791   8.397
14345TIP3    H242977   4.208   5.855   8.457
14346TIP3   OH242978   4.162   5.569   8.927
14346TIP3    H142979   4.108   5.530   8.997
14346TIP3    H242980   4.182   5.657   8.961
14347TIP3   OH242981   3.993   5.064   7.597
14347TIP3    H142982   4.058   5.130   7.565
14347TIP3    H242983   4.040   5.028   7.676
14348TIP3   OH242984   4.124   4.934   7.801
14348TIP3    H142985   4.057   4.893   7.860
14348TIP3    H242986   4.188   4.972   7.864
14349TIP3   OH242987   4.173   5.326   8.230
14349TIP3    H142988   4.228   5.260   8.182
14349TIP3    H242989   4.171   5.400   8.167
14350TIP3   OH242990   4.012   5.629   8.421
14350TIP3    H142991   3.943   5.668   8.477
14350TIP3    H242992   3.960   5.579   8.355
14351TIP3   OH242993   4.060   4.841   7.446
14351TIP3    H142994   3.989   4.846   7.378
14351TIP3    H242995   4.032   4.917   7.502
14352TIP3   OH242996   3.935   4.516   7.401
14352TIP3    H142997   3.885   4.557   7.329
14352TIP3    H242998   3.907   4.422   7.392
14353TIP3   OH242999   3.937   4.791   7.949
14353TIP3    H143000   3.946   4.695   7.942
14353TIP3    H243001   3.924   4.804   8.046
14354TIP3   OH243002   4.239   5.198   8.741
14354TIP3    H143003   4.314   5.150   8.781
14354TIP3    H243004   4.272   5.289   8.732
14355TIP3   OH243005   4.405   5.017   8.856
14355TIP3    H143006   4.330   4.958   8.869
14355TIP3    H243007   4.478   4.953   8.842
14356TIP3   OH243008   3.873   4.251   7.391
14356TIP3    H143009   3.950   4.219   7.442
14356TIP3    H243010   3.803   4.188   7.414
14357TIP3   OH243011   3.932   4.506   7.844
14357TIP3    H143012   3.972   4.418   7.859
14357TIP3    H243013   3.991   4.539   7.773
14358TIP3   OH243014   4.095   4.685   8.337
14358TIP3    H143015   4.181   4.708   8.296
14358TIP3    H243016   4.111   4.721   8.426
14359TIP3   OH243017   4.174   4.822   8.574
14359TIP3    H143018   4.090   4.855   8.613
14359TIP3    H243019   4.203   4.901   8.524
14360TIP3   OH243020   4.041   4.257   7.880
14360TIP3    H143021   4.091   4.241   7.963
14360TIP3    H243022   3.982   4.179   7.879
14361TIP3   OH243023   4.124   4.193   7.511
14361TIP3    H143024   4.162   4.120   7.458
14361TIP3    H243025   4.192   4.262   7.503
14362TIP3   OH243026   2.520   4.050   8.276
14362TIP3    H143027   2.439   4.002   8.295
14362TIP3    H243028   2.507   4.080   8.184
14363TIP3   OH243029   3.691   5.724   7.776
14363TIP3    H143030   3.731   5.696   7.691
14363TIP3    H243031   3.757   5.786   7.808
14364TIP3   OH243032   2.939   5.579   8.724
14364TIP3    H143033   2.922   5.658   8.669
14364TIP3    H243034   3.026   5.554   8.690
14365TIP3   OH243035   3.444   5.834   8.844
14365TIP3    H143036   3.462   5.890   8.923
14365TIP3    H243037   3.494   5.883   8.778
14366TIP3   OH243038   2.871   5.810   8.591
14366TIP3    H143039   2.780   5.815   8.622
14366TIP3    H243040   2.860   5.824   8.495
14367TIP3   OH243041   3.292   5.846   8.394
14367TIP3    H143042   3.242   5.843   8.310
14367TIP3    H243043   3.230   5.897   8.450
14368TIP3   OH243044   3.564   5.802   8.465
14368TIP3    H143045   3.477   5.803   8.422
14368TIP3    H243046   3.624   5.829   8.394
14369TIP3   OH243047   3.776   5.961   8.355
14369TIP3    H143048   3.766   6.042   8.301
14369TIP3    H243049   3.807   5.896   8.288
14370TIP3   OH243050   2.604   5.640   8.493
14370TIP3    H143051   2.593   5.582   8.569
14370TIP3    H243052   2.646   5.578   8.429
14371TIP3   OH243053   2.748   5.476   8.330
14371TIP3    H143054   2.765   5.393   8.379
14371TIP3    H243055   2.839   5.514   8.325
14372TIP3   OH243056   3.009   5.577   8.334
14372TIP3    H143057   3.042   5.487   8.315
14372TIP3    H243058   3.058   5.595   8.417
14373TIP3   OH243059   3.600   4.236   8.437
14373TIP3    H143060   3.530   4.177   8.467
14373TIP3    H243061   3.656   4.181   8.379
14374TIP3   OH243062   4.113   4.121   8.333
14374TIP3    H143063   4.150   4.171   8.256
14374TIP3    H243064   4.018   4.137   8.324
14375TIP3   OH243065   4.208   4.214   8.096
14375TIP3    H143066   4.282   4.163   8.056
14375TIP3    H243067   4.241   4.306   8.083
14376TIP3   OH243068   2.622   3.808   8.086
14376TIP3    H143069   2.660   3.861   8.014
14376TIP3    H243070   2.591   3.876   8.148
14377TIP3   OH243071   3.270   3.992   8.346
14377TIP3    H143072   3.328   4.022   8.275
14377TIP3    H243073   3.300   4.048   8.421
14378TIP3   OH243074   3.828   4.118   8.303
14378TIP3    H143075   3.834   4.086   8.212
14378TIP3    H243076   3.818   4.035   8.354
14379TIP3   OH243077   3.859   4.043   7.871
14379TIP3    H143078   3.769   4.080   7.876
14379TIP3    H243079   3.846   3.958   7.919
14380TIP3   OH243080   2.340   5.383   7.876
14380TIP3    H143081   2.257   5.349   7.838
14380TIP3    H243082   2.331   5.477   7.851
14381TIP3   OH243083   2.741   3.973   7.862
14381TIP3    H143084   2.782   3.906   7.804
14381TIP3    H243085   2.820   4.023   7.891
14382TIP3   OH243086   3.251   4.148   7.956
14382TIP3    H143087   3.314   4.096   8.008
14382TIP3    H243088   3.280   4.238   7.981
14383TIP3   OH243089   3.114   5.574   7.454
14383TIP3    H143090   3.205   5.589   7.419
14383TIP3    H243091   3.089   5.499   7.395
14384TIP3   OH243092   3.825   5.667   7.535
14384TIP3    H143093   3.795   5.585   7.490
14384TIP3    H243094   3.795   5.731   7.466
14385TIP3   OH243095   2.419   5.409   7.511
14385TIP3    H143096   2.419   5.437   7.603
14385TIP3    H243097   2.508   5.368   7.500
14386TIP3   OH243098   4.061   5.832   8.734
14386TIP3    H143099   3.985   5.805   8.679
14386TIP3    H243100   4.043   5.927   8.744
14387TIP3   OH243101   5.326   5.205   7.499
14387TIP3    H143102   5.299   5.298   7.483
14387TIP3    H243103   5.247   5.158   7.470
14388TIP3   OH243104   5.314   5.207   7.883
14388TIP3    H143105   5.354   5.181   7.969
14388TIP3    H243106   5.279   5.122   7.852
14389TIP3   OH243107   4.622   5.106   8.249
14389TIP3    H143108   4.653   5.036   8.311
14389TIP3    H243109   4.705   5.155   8.235
14390TIP3   OH243110   5.567   5.507   7.563
14390TIP3    H143111   5.556   5.436   7.628
14390TIP3    H243112   5.592   5.582   7.619
14391TIP3   OH243113   4.591   5.510   7.973
14391TIP3    H143114   4.585   5.412   7.975
14391TIP3    H243115   4.688   5.521   7.970
14392TIP3   OH243116   4.302   4.713   7.758
14392TIP3    H143117   4.255   4.797   7.772
14392TIP3    H243118   4.230   4.660   7.719
14393TIP3   OH243119   4.361   5.002   7.928
14393TIP3    H143120   4.410   4.924   7.964
14393TIP3    H243121   4.421   5.032   7.859
14394TIP3   OH243122   5.214   5.970   7.579
14394TIP3    H143123   5.262   5.899   7.532
14394TIP3    H243124   5.212   5.937   7.670
14395TIP3   OH243125   5.118   5.428   7.927
14395TIP3    H143126   5.162   5.351   7.886
14395TIP3    H243127   5.195   5.482   7.950
14396TIP3   OH243128   6.137   4.752   7.928
14396TIP3    H143129   6.164   4.835   7.972
14396TIP3    H243130   6.152   4.774   7.835
14397TIP3   OH243131   5.541   4.936   7.961
14397TIP3    H143132   5.580   4.850   7.985
14397TIP3    H243133   5.507   4.918   7.871
14398TIP3   OH243134   4.870   4.594   7.928
14398TIP3    H143135   4.851   4.667   7.866
14398TIP3    H243136   4.822   4.521   7.882
14399TIP3   OH243137   5.567   4.681   7.551
14399TIP3    H143138   5.640   4.666   7.615
14399TIP3    H243139   5.618   4.719   7.477
14400TIP3   OH243140   4.507   4.795   8.034
14400TIP3    H143141   4.589   4.776   8.082
14400TIP3    H243142   4.521   4.739   7.955
14401TIP3   OH243143   4.947   4.993   7.827
14401TIP3    H143144   5.042   4.970   7.839
14401TIP3    H243145   4.910   4.908   7.795
14402TIP3   OH243146   6.208   4.961   8.096
14402TIP3    H143147   6.124   5.009   8.077
14402TIP3    H243148   6.220   4.984   8.190
14403TIP3   OH243149   4.854   4.560   8.367
14403TIP3    H143150   4.813   4.607   8.294
14403TIP3    H243151   4.814   4.604   8.444
14404TIP3   OH243152   5.222   5.430   7.368
14404TIP3    H143153   5.172   5.405   7.289
14404TIP3    H243154   5.176   5.513   7.393
14405TIP3   OH243155   4.975   5.350   8.160
14405TIP3    H143156   4.912   5.415   8.199
14405TIP3    H243157   5.016   5.403   8.089
14406TIP3   OH243158   5.780   4.682   7.721
14406TIP3    H143159   5.762   4.642   7.807
14406TIP3    H243160   5.830   4.762   7.747
14407TIP3   OH243161   4.739   4.689   8.147
14407TIP3    H143162   4.800   4.761   8.173
14407TIP3    H243163   4.790   4.649   8.073
14408TIP3   OH243164   4.795   5.543   8.250
14408TIP3    H143165   4.774   5.630   8.213
14408TIP3    H243166   4.719   5.530   8.310
14409TIP3   OH243167   4.198   5.231   7.494
14409TIP3    H143168   4.159   5.250   7.405
14409TIP3    H243169   4.226   5.319   7.524
14410TIP3   OH243170   5.636   5.751   7.731
14410TIP3    H143171   5.547   5.737   7.771
14410TIP3    H243172   5.624   5.838   7.689
14411TIP3   OH243173   5.928   4.649   8.093
14411TIP3    H143174   5.840   4.681   8.067
14411TIP3    H243175   5.985   4.683   8.022
14412TIP3   OH243176   5.342   5.798   7.405
14412TIP3    H143177   5.392   5.715   7.386
14412TIP3    H243178   5.404   5.862   7.364
14413TIP3   OH243179   5.487   5.582   7.310
14413TIP3    H143180   5.439   5.506   7.276
14413TIP3    H243181   5.521   5.547   7.395
14414TIP3   OH243182   5.870   5.666   8.070
14414TIP3    H143183   5.850   5.586   8.018
14414TIP3    H243184   5.844   5.737   8.008
14415TIP3   OH243185   5.155   5.056   7.330
14415TIP3    H143186   5.075   5.109   7.308
14415TIP3    H243187   5.201   5.054   7.245
14416TIP3   OH243188   5.114   4.841   7.050
14416TIP3    H143189   5.181   4.892   7.097
14416TIP3    H243190   5.172   4.778   7.001
14417TIP3   OH243191   6.062   5.303   7.919
14417TIP3    H143192   5.977   5.351   7.927
14417TIP3    H243193   6.087   5.327   7.827
14418TIP3   OH243194   5.504   5.140   7.303
14418TIP3    H143195   5.449   5.164   7.380
14418TIP3    H243196   5.588   5.115   7.348
14419TIP3   OH243197   5.738   5.182   8.208
14419TIP3    H143198   5.737   5.263   8.263
14419TIP3    H243199   5.649   5.189   8.167
14420TIP3   OH243200   4.736   5.140   7.719
14420TIP3    H143201   4.695   5.081   7.653
14420TIP3    H243202   4.813   5.086   7.750
14421TIP3   OH243203   4.864   5.551   7.868
14421TIP3    H143204   4.844   5.504   7.786
14421TIP3    H243205   4.954   5.516   7.889
14422TIP3   OH243206   4.868   5.110   8.074
14422TIP3    H143207   4.905   5.087   7.987
14422TIP3    H243208   4.914   5.194   8.095
14423TIP3   OH243209   5.389   5.744   7.843
14423TIP3    H143210   5.380   5.837   7.871
14423TIP3    H243211   5.400   5.705   7.932
14424TIP3   OH243212   4.996   5.644   8.421
14424TIP3    H143213   4.947   5.724   8.446
14424TIP3    H243214   4.935   5.602   8.359
14425TIP3   OH243215   5.344   4.998   7.129
14425TIP3    H143216   5.403   5.058   7.181
14425TIP3    H243217   5.371   5.022   7.036
14426TIP3   OH243218   4.766   5.224   8.501
14426TIP3    H143219   4.769   5.312   8.543
14426TIP3    H243220   4.671   5.205   8.504
14427TIP3   OH243221   5.085   5.678   7.404
14427TIP3    H143222   5.163   5.732   7.426
14427TIP3    H243223   5.024   5.743   7.366
14428TIP3   OH243224   4.801   5.843   8.482
14428TIP3    H143225   4.768   5.836   8.390
14428TIP3    H243226   4.722   5.819   8.535
14429TIP3   OH243227   5.861   4.241   7.177
14429TIP3    H143228   5.779   4.260   7.227
14429TIP3    H243229   5.873   4.324   7.127
14430TIP3   OH243230   4.602   4.981   7.524
14430TIP3    H143231   4.537   5.026   7.467
14430TIP3    H243232   4.559   4.896   7.538
14431TIP3   OH243233   5.657   5.607   6.724
14431TIP3    H143234   5.666   5.704   6.711
14431TIP3    H243235   5.749   5.578   6.712
14432TIP3   OH243236   4.384   5.365   8.431
14432TIP3    H143237   4.320   5.340   8.361
14432TIP3    H243238   4.422   5.279   8.458
14433TIP3   OH243239   4.237   5.557   8.067
14433TIP3    H143240   4.332   5.545   8.052
14433TIP3    H243241   4.237   5.637   8.123
14434TIP3   OH243242   6.093   6.005   8.103
14434TIP3    H143243   6.102   5.909   8.119
14434TIP3    H243244   6.005   6.022   8.146
14435TIP3   OH243245   4.967   5.925   7.205
14435TIP3    H143246   4.921   5.906   7.121
14435TIP3    H243247   4.934   6.014   7.228
14436TIP3   OH243248   4.406   5.776   7.591
14436TIP3    H143249   4.454   5.764   7.676
14436TIP3    H243250   4.351   5.695   7.590
14437TIP3   OH243251   5.169   5.826   6.847
14437TIP3    H143252   5.229   5.756   6.811
14437TIP3    H243253   5.202   5.834   6.939
14438TIP3   OH243254   5.219   5.872   7.118
14438TIP3    H143255   5.130   5.882   7.159
14438TIP3    H243256   5.268   5.831   7.191
14439TIP3   OH243257   5.995   5.143   8.381
14439TIP3    H143258   5.907   5.156   8.343
14439TIP3    H243259   6.003   5.046   8.380
14440TIP3   OH243260   4.585   5.552   8.426
14440TIP3    H143261   4.640   5.528   8.504
14440TIP3    H243262   4.514   5.485   8.431
14441TIP3   OH243263   4.979   4.354   8.194
14441TIP3    H143264   4.881   4.354   8.196
14441TIP3    H243265   4.999   4.440   8.234
14442TIP3   OH243266   5.776   4.930   8.327
14442TIP3    H143267   5.711   4.915   8.399
14442TIP3    H243268   5.738   5.007   8.280
14443TIP3   OH243269   5.421   5.049   6.874
14443TIP3    H143270   5.386   5.020   6.787
14443TIP3    H243271   5.500   5.098   6.847
14444TIP3   OH243272   5.131   4.421   7.176
14444TIP3    H143273   5.097   4.417   7.267
14444TIP3    H243274   5.093   4.339   7.140
14445TIP3   OH243275   4.911   4.884   8.223
14445TIP3    H143276   4.866   4.914   8.305
14445TIP3    H243277   4.905   4.965   8.168
14446TIP3   OH243278   4.803   4.773   7.736
14446TIP3    H143279   4.709   4.748   7.753
14446TIP3    H243280   4.815   4.732   7.647
14447TIP3   OH243281   5.293   4.857   7.463
14447TIP3    H143282   5.240   4.929   7.423
14447TIP3    H243283   5.347   4.828   7.387
14448TIP3   OH243284   5.474   5.148   8.561
14448TIP3    H143285   5.450   5.071   8.617
14448TIP3    H243286   5.570   5.156   8.583
14449TIP3   OH243287   5.454   4.887   7.704
14449TIP3    H143288   5.391   4.919   7.637
14449TIP3    H243289   5.483   4.805   7.659
14450TIP3   OH243290   4.731   4.920   8.435
14450TIP3    H143291   4.773   4.983   8.496
14450TIP3    H243292   4.728   4.838   8.488
14451TIP3   OH243293   4.788   4.394   7.142
14451TIP3    H143294   4.780   4.390   7.240
14451TIP3    H243295   4.708   4.444   7.119
14452TIP3   OH243296   4.330   4.438   8.014
14452TIP3    H143297   4.407   4.471   8.066
14452TIP3    H243298   4.370   4.408   7.931
14453TIP3   OH243299   4.308   4.420   7.532
14453TIP3    H143300   4.354   4.457   7.454
14453TIP3    H243301   4.246   4.493   7.551
14454TIP3   OH243302   5.458   5.131   8.126
14454TIP3    H143303   5.494   5.059   8.070
14454TIP3    H243304   5.428   5.079   8.204
14455TIP3   OH243305   5.120   4.589   7.801
14455TIP3    H143306   5.041   4.597   7.857
14455TIP3    H243307   5.192   4.595   7.866
14456TIP3   OH243308   4.563   4.651   7.806
14456TIP3    H143309   4.469   4.659   7.780
14456TIP3    H243310   4.584   4.559   7.784
14457TIP3   OH243311   4.835   4.645   7.493
14457TIP3    H143312   4.929   4.664   7.474
14457TIP3    H243313   4.789   4.670   7.410
14458TIP3   OH243314   5.625   4.669   7.993
14458TIP3    H143315   5.597   4.685   8.087
14458TIP3    H243316   5.553   4.613   7.961
14459TIP3   OH243317   4.674   4.679   7.274
14459TIP3    H143318   4.600   4.637   7.225
14459TIP3    H243319   4.726   4.715   7.199
14460TIP3   OH243320   4.747   5.473   8.638
14460TIP3    H143321   4.829   5.503   8.682
14460TIP3    H243322   4.687   5.469   8.716
14461TIP3   OH243323   5.209   4.926   7.884
14461TIP3    H143324   5.289   4.878   7.857
14461TIP3    H243325   5.204   4.901   7.980
14462TIP3   OH243326   4.739   4.411   7.772
14462TIP3    H143327   4.701   4.332   7.815
14462TIP3    H243328   4.772   4.376   7.687
14463TIP3   OH243329   5.193   4.860   8.144
14463TIP3    H143330   5.108   4.841   8.186
14463TIP3    H243331   5.253   4.865   8.220
14464TIP3   OH243332   4.927   5.212   7.280
14464TIP3    H143333   4.855   5.146   7.269
14464TIP3    H243334   4.908   5.245   7.371
14465TIP3   OH243335   5.830   5.445   7.911
14465TIP3    H143336   5.848   5.496   7.830
14465TIP3    H243337   5.743   5.404   7.891
14466TIP3   OH243338   5.386   4.521   7.145
14466TIP3    H143339   5.288   4.506   7.148
14466TIP3    H243340   5.394   4.617   7.165
14467TIP3   OH243341   5.455   4.771   7.245
14467TIP3    H143342   5.551   4.777   7.261
14467TIP3    H243343   5.437   4.851   7.192
14468TIP3   OH243344   4.617   5.231   7.956
14468TIP3    H143345   4.655   5.203   7.870
14468TIP3    H243346   4.663   5.171   8.018
14469TIP3   OH243347   5.071   5.360   7.099
14469TIP3    H143348   5.024   5.446   7.106
14469TIP3    H243349   5.017   5.305   7.161
14470TIP3   OH243350   4.500   5.155   8.567
14470TIP3    H143351   4.526   5.142   8.660
14470TIP3    H243352   4.426   5.094   8.556
14471TIP3   OH243353   5.222   5.272   8.581
14471TIP3    H143354   5.170   5.214   8.523
14471TIP3    H243355   5.312   5.236   8.568
14472TIP3   OH243356   5.899   4.859   7.082
14472TIP3    H143357   5.836   4.815   7.020
14472TIP3    H243358   5.895   4.948   7.042
14473TIP3   OH243359   6.114   5.715   8.165
14473TIP3    H143360   6.016   5.711   8.160
14473TIP3    H243361   6.135   5.684   8.074
14474TIP3   OH243362   5.600   5.679   6.991
14474TIP3    H143363   5.569   5.612   7.053
14474TIP3    H243364   5.607   5.630   6.907
14475TIP3   OH243365   5.601   5.310   7.818
14475TIP3    H143366   5.510   5.293   7.848
14475TIP3    H243367   5.625   5.225   7.777
14476TIP3   OH243368   4.719   5.535   7.579
14476TIP3    H143369   4.719   5.617   7.527
14476TIP3    H243370   4.624   5.519   7.589
14477TIP3   OH243371   4.281   4.841   7.281
14477TIP3    H143372   4.327   4.925   7.302
14477TIP3    H243373   4.205   4.846   7.343
14478TIP3   OH243374   4.860   5.302   7.525
14478TIP3    H143375   4.824   5.391   7.544
14478TIP3    H243376   4.826   5.251   7.600
14479TIP3   OH243377   4.986   5.882   8.050
14479TIP3    H143378   5.031   5.953   8.000
14479TIP3    H243379   5.060   5.848   8.102
14480TIP3   OH243380   4.639   5.776   7.433
14480TIP3    H143381   4.553   5.784   7.480
14480TIP3    H243382   4.670   5.869   7.436
14481TIP3   OH243383   5.350   5.407   6.891
14481TIP3    H143384   5.403   5.381   6.970
14481TIP3    H243385   5.262   5.380   6.919
14482TIP3   OH243386   5.620   6.048   8.067
14482TIP3    H143387   5.548   5.982   8.065
14482TIP3    H243388   5.599   6.105   7.990
14483TIP3   OH243389   5.692   5.883   6.711
14483TIP3    H143390   5.726   5.955   6.656
14483TIP3    H243391   5.612   5.926   6.746
14484TIP3   OH243392   4.712   4.672   8.581
14484TIP3    H143393   4.616   4.658   8.588
14484TIP3    H243394   4.747   4.600   8.636
14485TIP3   OH243395   5.511   5.340   7.106
14485TIP3    H143396   5.499   5.276   7.179
14485TIP3    H243397   5.608   5.337   7.097
14486TIP3   OH243398   4.424   5.744   8.212
14486TIP3    H143399   4.477   5.666   8.236
14486TIP3    H243400   4.462   5.810   8.272
14487TIP3   OH243401   4.718   5.388   6.890
14487TIP3    H143402   4.733   5.297   6.861
14487TIP3    H243403   4.700   5.376   6.986
14488TIP3   OH243404   4.666   5.393   7.163
14488TIP3    H143405   4.735   5.365   7.224
14488TIP3    H243406   4.671   5.491   7.170
14489TIP3   OH243407   4.400   5.087   7.366
14489TIP3    H143408   4.332   5.130   7.422
14489TIP3    H243409   4.413   5.157   7.299
14490TIP3   OH243410   5.556   4.733   8.251
14490TIP3    H143411   5.607   4.732   8.333
14490TIP3    H243412   5.482   4.671   8.271
14491TIP3   OH243413   5.426   4.473   7.424
14491TIP3    H143414   5.412   4.495   7.330
14491TIP3    H243415   5.464   4.556   7.459
14492TIP3   OH243416   4.929   5.590   7.112
14492TIP3    H143417   4.843   5.617   7.149
14492TIP3    H243418   4.944   5.661   7.048
14493TIP3   OH243419   5.117   4.653   7.526
14493TIP3    H143420   5.182   4.725   7.509
14493TIP3    H243421   5.123   4.645   7.623
14494TIP3   OH243422   5.392   4.978   8.341
14494TIP3    H143423   5.413   5.034   8.418
14494TIP3    H243424   5.450   4.901   8.353
14495TIP3   OH243425   5.263   4.379   7.628
14495TIP3    H143426   5.269   4.448   7.697
14495TIP3    H243427   5.320   4.419   7.558
14496TIP3   OH243428   4.672   5.666   7.179
14496TIP3    H143429   4.641   5.735   7.116
14496TIP3    H243430   4.655   5.708   7.265
14497TIP3   OH243431   4.774   4.378   7.422
14497TIP3    H143432   4.772   4.471   7.452
14497TIP3    H243433   4.871   4.361   7.427
14498TIP3   OH243434   6.033   4.863   8.312
14498TIP3    H143435   5.936   4.872   8.323
14498TIP3    H243436   6.037   4.833   8.220
14499TIP3   OH243437   5.679   5.063   7.699
14499TIP3    H143438   5.602   5.006   7.715
14499TIP3    H243439   5.750   5.018   7.750
14500TIP3   OH243440   4.395   5.299   7.170
14500TIP3    H143441   4.460   5.371   7.180
14500TIP3    H243442   4.441   5.245   7.103
14501TIP3   OH243443   4.335   4.572   7.306
14501TIP3    H143444   4.335   4.670   7.300
14501TIP3    H243445   4.249   4.551   7.268
14502TIP3   OH243446   5.647   6.021   7.650
14502TIP3    H143447   5.603   6.069   7.576
14502TIP3    H243448   5.741   6.039   7.629
14503TIP3   OH243449   4.703   4.293   8.183
14503TIP3    H143450   4.684   4.257   8.094
14503TIP3    H243451   4.706   4.212   8.238
14504TIP3   OH243452   4.266   5.520   7.563
14504TIP3    H143453   4.184   5.544   7.608
14504TIP3    H243454   4.245   5.551   7.472
14505TIP3   OH243455   4.416   6.040   8.630
14505TIP3    H143456   4.505   6.013   8.659
14505TIP3    H243457   4.376   5.952   8.621
14506TIP3   OH243458   4.909   6.033   8.658
14506TIP3    H143459   4.999   6.000   8.670
14506TIP3    H243460   4.875   5.970   8.592
14507TIP3   OH243461   4.882   5.592   6.805
14507TIP3    H143462   4.825   5.521   6.842
14507TIP3    H243463   4.957   5.539   6.773
14508TIP3   OH243464   5.546   5.964   8.439
14508TIP3    H143465   5.500   5.878   8.437
14508TIP3    H243466   5.633   5.936   8.409
14509TIP3   OH243467   5.319   5.634   6.715
14509TIP3    H143468   5.361   5.568   6.773
14509TIP3    H243469   5.375   5.632   6.635
14510TIP3   OH243470   4.551   5.449   8.824
14510TIP3    H143471   4.563   5.353   8.827
14510TIP3    H243472   4.460   5.458   8.788
14511TIP3   OH243473   4.526   5.110   7.023
14511TIP3    H143474   4.579   5.076   7.097
14511TIP3    H243475   4.594   5.114   6.952
14512TIP3   OH243476   5.165   5.543   8.611
14512TIP3    H143477   5.123   5.565   8.525
14512TIP3    H243478   5.191   5.450   8.596
14513TIP3   OH243479   5.033   5.307   6.831
14513TIP3    H143480   5.037   5.319   6.928
14513TIP3    H243481   5.033   5.209   6.825
14514TIP3   OH243482   5.658   5.535   8.216
14514TIP3    H143483   5.722   5.595   8.173
14514TIP3    H243484   5.575   5.584   8.197
14515TIP3   OH243485   4.663   5.180   8.821
14515TIP3    H143486   4.749   5.148   8.790
14515TIP3    H243487   4.670   5.169   8.917
14516TIP3   OH243488   4.736   5.012   7.248
14516TIP3    H143489   4.707   4.971   7.331
14516TIP3    H243490   4.771   4.936   7.198
14517TIP3   OH243491   4.998   5.066   8.472
14517TIP3    H143492   4.927   5.134   8.478
14517TIP3    H243493   5.054   5.103   8.400
14518TIP3   OH243494   4.833   4.804   7.089
14518TIP3    H143495   4.807   4.806   6.995
14518TIP3    H243496   4.930   4.808   7.083
14519TIP3   OH243497   5.546   5.476   8.626
14519TIP3    H143498   5.594   5.459   8.544
14519TIP3    H243499   5.516   5.388   8.650
14520TIP3   OH243500   5.659   5.138   6.748
14520TIP3    H143501   5.636   5.090   6.666
14520TIP3    H243502   5.624   5.227   6.725
14521TIP3   OH243503   5.128   4.867   8.610
14521TIP3    H143504   5.122   4.789   8.553
14521TIP3    H243505   5.083   4.935   8.554
14522TIP3   OH243506   5.154   5.188   8.291
14522TIP3    H143507   5.233   5.181   8.235
14522TIP3    H243508   5.100   5.254   8.242
14523TIP3   OH243509   5.739   5.151   8.647
14523TIP3    H143510   5.799   5.076   8.659
14523TIP3    H243511   5.798   5.220   8.615
14524TIP3   OH243512   5.776   5.387   8.403
14524TIP3    H143513   5.722   5.447   8.346
14524TIP3    H243514   5.865   5.416   8.374
14525TIP3   OH243515   4.971   4.991   8.826
14525TIP3    H143516   4.921   4.908   8.829
14525TIP3    H243517   5.035   4.974   8.755
14526TIP3   OH243518   5.390   4.924   8.688
14526TIP3    H143519   5.381   4.915   8.784
14526TIP3    H243520   5.299   4.898   8.658
14527TIP3   OH243521   5.623   4.856   8.542
14527TIP3    H143522   5.545   4.868   8.601
14527TIP3    H243523   5.694   4.840   8.606
14528TIP3   OH243524   5.856   4.822   8.729
14528TIP3    H143525   5.870   4.726   8.718
14528TIP3    H243526   5.829   4.828   8.821
14529TIP3   OH243527   4.830   4.760   8.875
14529TIP3    H143528   4.852   4.672   8.840
14529TIP3    H243529   4.883   4.764   8.957
14530TIP3   OH243530   5.351   4.422   8.724
14530TIP3    H143531   5.420   4.353   8.715
14530TIP3    H243532   5.317   4.426   8.634
14531TIP3   OH243533   5.414   4.652   8.868
14531TIP3    H143534   5.402   4.569   8.817
14531TIP3    H243535   5.325   4.674   8.895
14532TIP3   OH243536   4.641   5.871   6.993
14532TIP3    H143537   4.736   5.865   6.973
14532TIP3    H243538   4.610   5.916   6.912
14533TIP3   OH243539   4.136   5.237   7.226
14533TIP3    H143540   4.227   5.263   7.198
14533TIP3    H243541   4.120   5.156   7.173
14534TIP3   OH243542   4.022   5.858   7.622
14534TIP3    H143543   3.966   5.789   7.581
14534TIP3    H243544   4.073   5.805   7.686
14535TIP3   OH243545   4.167   5.721   7.809
14535TIP3    H143546   4.162   5.641   7.863
14535TIP3    H243547   4.224   5.777   7.865
14536TIP3   OH243548   5.901   6.110   7.607
14536TIP3    H143549   5.921   6.142   7.697
14536TIP3    H243550   5.957   6.166   7.551
14537TIP3   OH243551   5.941   6.121   7.883
14537TIP3    H143552   5.885   6.040   7.880
14537TIP3    H243553   5.996   6.098   7.960
14538TIP3   OH243554   5.936   5.775   8.440
14538TIP3    H143555   5.865   5.809   8.494
14538TIP3    H243556   5.991   5.854   8.428
14539TIP3   OH243557   5.791   5.324   7.084
14539TIP3    H143558   5.861   5.387   7.057
14539TIP3    H243559   5.832   5.284   7.164
14540TIP3   OH243560   5.919   5.192   7.288
14540TIP3    H143561   5.851   5.149   7.345
14540TIP3    H243562   5.979   5.232   7.353
14541TIP3   OH243563   5.975   5.585   7.722
14541TIP3    H143564   6.024   5.519   7.670
14541TIP3    H243565   5.959   5.655   7.656
14542TIP3   OH243566   5.800   5.887   7.913
14542TIP3    H143567   5.728   5.922   7.969
14542TIP3    H243568   5.749   5.836   7.845
14543TIP3   OH243569   5.858   5.100   6.934
14543TIP3    H143570   5.786   5.101   6.866
14543TIP3    H243571   5.827   5.174   6.989
14544TIP3   OH243572   5.730   4.773   6.887
14544TIP3    H143573   5.684   4.809   6.811
14544TIP3    H243574   5.704   4.679   6.881
14545TIP3   OH243575   5.735   5.047   7.433
14545TIP3    H143576   5.740   4.951   7.427
14545TIP3    H243577   5.720   5.061   7.530
14546TIP3   OH243578   4.358   5.124   8.180
14546TIP3    H143579   4.359   5.093   8.087
14546TIP3    H243580   4.455   5.125   8.199
14547TIP3   OH243581   6.016   5.464   8.289
14547TIP3    H143582   6.092   5.403   8.279
14547TIP3    H243583   6.036   5.535   8.226
14548TIP3   OH243584   6.216   5.285   8.320
14548TIP3    H143585   6.137   5.239   8.357
14548TIP3    H243586   6.281   5.212   8.326
14549TIP3   OH243587   5.671   4.509   6.877
14549TIP3    H143588   5.744   4.473   6.932
14549TIP3    H243589   5.596   4.449   6.896
14550TIP3   OH243590   5.729   4.764   7.330
14550TIP3    H143591   5.768   4.674   7.346
14550TIP3    H243592   5.788   4.795   7.259
14551TIP3   OH243593   5.892   4.936   7.824
14551TIP3    H143594   5.978   4.964   7.785
14551TIP3    H243595   5.902   4.975   7.913
14552TIP3   OH243596   5.957   5.081   8.054
14552TIP3    H143597   5.880   5.114   8.105
14552TIP3    H243598   5.989   5.163   8.013
14553TIP3   OH243599   4.562   4.792   8.835
14553TIP3    H143600   4.660   4.795   8.830
14553TIP3    H243601   4.550   4.746   8.919
14554TIP3   OH243602   6.392   4.647   8.614
14554TIP3    H143603   6.464   4.599   8.569
14554TIP3    H243604   6.377   4.724   8.556
14555TIP3   OH243605   5.839   4.514   7.366
14555TIP3    H143606   5.886   4.499   7.450
14555TIP3    H243607   5.778   4.437   7.365
14556TIP3   OH243608   4.533   4.506   8.190
14556TIP3    H143609   4.591   4.428   8.198
14556TIP3    H243610   4.601   4.577   8.182
14557TIP3   OH243611   4.342   4.774   8.260
14557TIP3    H143612   4.392   4.766   8.176
14557TIP3    H243613   4.371   4.861   8.290
14558TIP3   OH243614   6.291   4.817   8.421
14558TIP3    H143615   6.209   4.856   8.459
14558TIP3    H243616   6.251   4.747   8.365
14559TIP3   OH243617   5.921   4.448   6.999
14559TIP3    H143618   5.958   4.375   6.945
14559TIP3    H243619   5.989   4.518   6.989
14560TIP3   OH243620   4.324   4.282   7.762
14560TIP3    H143621   4.230   4.275   7.785
14560TIP3    H243622   4.322   4.338   7.682
14561TIP3   OH243623   5.482   5.980   7.263
14561TIP3    H143624   5.536   5.968   7.183
14561TIP3    H243625   5.534   6.046   7.313
14562TIP3   OH243626   4.541   4.366   8.585
14562TIP3    H143627   4.488   4.319   8.651
14562TIP3    H243628   4.473   4.402   8.524
14563TIP3   OH243629   4.579   5.799   8.659
14563TIP3    H143630   4.494   5.757   8.633
14563TIP3    H243631   4.609   5.741   8.730
14564TIP3   OH243632   4.759   5.815   8.198
14564TIP3    H143633   4.716   5.894   8.158
14564TIP3    H243634   4.848   5.826   8.157
14565TIP3   OH243635   5.198   6.086   8.348
14565TIP3    H143636   5.247   6.063   8.429
14565TIP3    H243637   5.271   6.099   8.284
14566TIP3   OH243638   5.385   6.213   8.181
14566TIP3    H143639   5.456   6.153   8.155
14566TIP3    H243640   5.431   6.273   8.243
14567TIP3   OH243641   6.182   4.576   8.297
14567TIP3    H143642   6.092   4.578   8.260
14567TIP3    H243643   6.207   4.482   8.283
14568TIP3   OH243644   4.437   6.074   8.219
14568TIP3    H143645   4.349   6.110   8.198
14568TIP3    H243646   4.448   6.105   8.310
14569TIP3   OH243647   4.675   6.052   8.080
14569TIP3    H143648   4.588   6.065   8.123
14569TIP3    H243649   4.657   6.084   7.989
14570TIP3   OH243650   5.100   6.084   7.878
14570TIP3    H143651   5.032   6.106   7.813
14570TIP3    H243652   5.114   6.170   7.923
14571TIP3   OH243653   5.371   6.020   7.902
14571TIP3    H143654   5.275   6.038   7.904
14571TIP3    H243655   5.408   6.108   7.887
14572TIP3   OH243656   5.581   6.210   7.848
14572TIP3    H143657   5.571   6.294   7.799
14572TIP3    H243658   5.601   6.147   7.776
14573TIP3   OH243659   4.349   5.866   7.969
14573TIP3    H143660   4.378   5.843   8.060
14573TIP3    H243661   4.420   5.823   7.918
14574TIP3   OH243662   4.542   5.739   7.825
14574TIP3    H143663   4.560   5.654   7.872
14574TIP3    H243664   4.633   5.776   7.818
14575TIP3   OH243665   4.809   5.834   7.827
14575TIP3    H143666   4.841   5.743   7.814
14575TIP3    H243667   4.854   5.856   7.911
14576TIP3   OH243668   5.378   4.486   7.896
14576TIP3    H143669   5.370   4.479   7.992
14576TIP3    H243670   5.462   4.440   7.876
14577TIP3   OH243671   5.911   4.368   7.820
14577TIP3    H143672   5.947   4.422   7.747
14577TIP3    H243673   5.816   4.389   7.816
14578TIP3   OH243674   6.005   4.472   7.584
14578TIP3    H143675   6.078   4.422   7.542
14578TIP3    H243676   6.036   4.564   7.569
14579TIP3   OH243677   4.636   4.195   7.926
14579TIP3    H143678   4.543   4.164   7.931
14579TIP3    H243679   4.684   4.109   7.923
14580TIP3   OH243680   4.425   4.069   7.580
14580TIP3    H143681   4.451   4.126   7.505
14580TIP3    H243682   4.393   4.134   7.645
14581TIP3   OH243683   5.099   4.242   7.831
14581TIP3    H143684   5.140   4.302   7.765
14581TIP3    H243685   5.069   4.308   7.897
14582TIP3   OH243686   5.628   4.377   7.798
14582TIP3    H143687   5.624   4.347   7.707
14582TIP3    H243688   5.611   4.294   7.848
14583TIP3   OH243689   5.655   4.301   7.357
14583TIP3    H143690   5.568   4.343   7.364
14583TIP3    H243691   5.638   4.216   7.404
14584TIP3   OH243692   4.133   5.639   7.358
14584TIP3    H143693   4.055   5.590   7.328
14584TIP3    H243694   4.116   5.728   7.322
14585TIP3   OH243695   4.537   4.229   7.342
14585TIP3    H143696   4.584   4.166   7.284
14585TIP3    H243697   4.611   4.281   7.378
14586TIP3   OH243698   5.051   4.402   7.444
14586TIP3    H143699   5.121   4.363   7.499
14586TIP3    H243700   5.067   4.497   7.467
14587TIP3   OH243701   4.909   5.831   6.939
14587TIP3    H143702   4.998   5.852   6.904
14587TIP3    H243703   4.887   5.755   6.880
14588TIP3   OH243704   5.631   5.947   7.032
14588TIP3    H143705   5.623   5.849   7.022
14588TIP3    H243706   5.583   5.977   6.953
14589TIP3   OH243707   4.861   4.496   8.797
14589TIP3    H143708   4.841   4.424   8.859
14589TIP3    H243709   4.959   4.491   8.803
14590TIP3   OH243710   5.101   4.434   8.909
14590TIP3    H143711   5.193   4.443   8.878
14590TIP3    H243712   5.109   4.447   9.004
14591TIP3   OH243713   4.215   5.671   6.997
14591TIP3    H143714   4.208   5.693   7.091
14591TIP3    H243715   4.303   5.628   6.991
14592TIP3   OH243716   5.918   4.550   8.725
14592TIP3    H143717   5.941   4.510   8.809
14592TIP3    H243718   6.004   4.546   8.676
14593TIP3   OH243719   5.860   6.089   8.204
14593TIP3    H143720   5.772   6.064   8.168
14593TIP3    H243721   5.848   6.184   8.222
14594TIP3   OH243722   7.122   5.463   6.987
14594TIP3    H143723   7.092   5.555   6.967
14594TIP3    H243724   7.046   5.413   6.954
14595TIP3   OH243725   7.095   5.474   7.359
14595TIP3    H143726   7.130   5.446   7.447
14595TIP3    H243727   7.067   5.387   7.324
14596TIP3   OH243728   6.422   5.356   7.727
14596TIP3    H143729   6.449   5.288   7.792
14596TIP3    H243730   6.492   5.422   7.740
14597TIP3   OH243731   7.350   5.752   7.051
14597TIP3    H143732   7.349   5.679   7.116
14597TIP3    H243733   7.401   5.819   7.098
14598TIP3   OH243734   6.382   5.766   7.443
14598TIP3    H143735   6.374   5.668   7.447
14598TIP3    H243736   6.464   5.777   7.495
14599TIP3   OH243737   6.100   4.974   7.244
14599TIP3    H143738   6.048   5.055   7.259
14599TIP3    H243739   6.030   4.915   7.210
14600TIP3   OH243740   6.160   5.261   7.414
14600TIP3    H143741   6.206   5.182   7.452
14600TIP3    H243742   6.214   5.278   7.336
14601TIP3   OH243743   7.010   6.270   7.038
14601TIP3    H143744   7.048   6.206   6.974
14601TIP3    H243745   6.961   6.208   7.095
14602TIP3   OH243746   6.913   5.683   7.411
14602TIP3    H143747   6.934   5.598   7.370
14602TIP3    H243748   6.998   5.726   7.403
14603TIP3   OH243749   7.336   5.199   7.452
14603TIP3    H143750   7.372   5.111   7.472
14603TIP3    H243751   7.299   5.184   7.363
14604TIP3   OH243752   6.671   4.850   7.413
14604TIP3    H143753   6.646   4.922   7.352
14604TIP3    H243754   6.623   4.775   7.371
14605TIP3   OH243755   7.361   4.943   7.037
14605TIP3    H143756   7.433   4.921   7.099
14605TIP3    H243757   7.413   4.976   6.961
14606TIP3   OH243758   6.303   5.053   7.519
14606TIP3    H143759   6.384   5.032   7.569
14606TIP3    H243760   6.314   4.994   7.442
14607TIP3   OH243761   6.745   5.250   7.311
14607TIP3    H143762   6.837   5.223   7.327
14607TIP3    H243763   6.703   5.166   7.282
14608TIP3   OH243764   6.666   4.834   7.849
14608TIP3    H143765   6.604   4.870   7.783
14608TIP3    H243766   6.615   4.851   7.931
14609TIP3   OH243767   7.014   5.686   6.859
14609TIP3    H143768   6.972   5.655   6.778
14609TIP3    H243769   6.961   5.766   6.879
14610TIP3   OH243770   6.779   5.620   7.651
14610TIP3    H143771   6.692   5.663   7.669
14610TIP3    H243772   6.804   5.663   7.567
14611TIP3   OH243773   7.576   4.934   7.200
14611TIP3    H143774   7.561   4.887   7.283
14611TIP3    H243775   7.623   5.015   7.226
14612TIP3   OH243776   6.535   4.947   7.633
14612TIP3    H143777   6.597   5.019   7.658
14612TIP3    H243778   6.585   4.907   7.558
14613TIP3   OH243779   6.554   5.767   7.678
14613TIP3    H143780   6.553   5.861   7.651
14613TIP3    H243781   6.504   5.771   7.762
14614TIP3   OH243782   5.998   5.490   6.977
14614TIP3    H143783   5.951   5.518   6.896
14614TIP3    H243784   6.026   5.576   7.015
14615TIP3   OH243785   7.707   4.911   7.566
14615TIP3    H143786   7.611   4.911   7.547
14615TIP3    H243787   7.745   4.928   7.480
14616TIP3   OH243788   7.024   4.554   7.563
14616TIP3    H143789   7.009   4.458   7.578
14616TIP3    H243790   6.946   4.591   7.609
14617TIP3   OH243791   7.139   6.066   6.882
14617TIP3    H143792   7.178   5.979   6.854
14617TIP3    H243793   7.203   6.126   6.840
14618TIP3   OH243794   7.273   5.844   6.801
14618TIP3    H143795   7.247   5.767   6.747
14618TIP3    H243796   7.307   5.799   6.881
14619TIP3   OH243797   6.954   5.316   6.818
14619TIP3    H143798   6.871   5.364   6.796
14619TIP3    H243799   6.996   5.308   6.730
14620TIP3   OH243800   6.911   5.097   6.537
14620TIP3    H143801   6.981   5.149   6.581
14620TIP3    H243802   6.966   5.033   6.489
14621TIP3   OH243803   7.301   5.398   6.790
14621TIP3    H143804   7.244   5.421   6.867
14621TIP3    H243805   7.383   5.371   6.836
14622TIP3   OH243806   6.533   5.396   7.204
14622TIP3    H143807   6.488   5.338   7.138
14622TIP3    H243808   6.608   5.340   7.233
14623TIP3   OH243809   6.679   5.824   7.336
14623TIP3    H143810   6.627   5.768   7.277
14623TIP3    H243811   6.755   5.767   7.358
14624TIP3   OH243812   6.682   5.365   7.564
14624TIP3    H143813   6.704   5.347   7.470
14624TIP3    H243814   6.717   5.454   7.580
14625TIP3   OH243815   7.141   5.254   6.615
14625TIP3    H143816   7.199   5.315   6.666
14625TIP3    H243817   7.167   5.277   6.522
14626TIP3   OH243818   6.555   5.479   7.974
14626TIP3    H143819   6.566   5.561   8.023
14626TIP3    H243820   6.461   5.457   7.994
14627TIP3   OH243821   6.882   5.933   6.894
14627TIP3    H143822   6.956   5.994   6.901
14627TIP3    H243823   6.813   5.984   6.848
14628TIP3   OH243824   7.657   4.497   6.665
14628TIP3    H143825   7.574   4.515   6.714
14628TIP3    H243826   7.667   4.580   6.613
14629TIP3   OH243827   6.397   5.238   7.013
14629TIP3    H143828   6.331   5.281   6.955
14629TIP3    H243829   6.358   5.152   7.026
14630TIP3   OH243830   7.449   5.869   6.216
14630TIP3    H143831   7.445   5.967   6.204
14630TIP3    H243832   7.541   5.851   6.194
14631TIP3   OH243833   6.177   5.620   7.920
14631TIP3    H143834   6.107   5.600   7.855
14631TIP3    H243835   6.210   5.532   7.945
14632TIP3   OH243836   6.032   5.816   7.546
14632TIP3    H143837   6.128   5.814   7.543
14632TIP3    H243838   6.014   5.894   7.599
14633TIP3   OH243839   6.769   6.182   6.691
14633TIP3    H143840   6.718   6.156   6.612
14633TIP3    H243841   6.731   6.268   6.716
14634TIP3   OH243842   6.203   6.031   7.076
14634TIP3    H143843   6.248   6.021   7.162
14634TIP3    H243844   6.144   5.954   7.079
14635TIP3   OH243845   6.967   6.083   6.336
14635TIP3    H143846   7.024   6.014   6.295
14635TIP3    H243847   7.006   6.088   6.426
14636TIP3   OH243848   7.020   6.131   6.612
14636TIP3    H143849   6.927   6.144   6.643
14636TIP3    H243850   7.050   6.061   6.671
14637TIP3   OH243851   6.381   5.804   7.892
14637TIP3    H143852   6.422   5.820   7.979
14637TIP3    H243853   6.314   5.735   7.914
14638TIP3   OH243854   6.785   4.629   7.689
14638TIP3    H143855   6.696   4.597   7.663
14638TIP3    H243856   6.758   4.710   7.737
14639TIP3   OH243857   7.313   4.745   7.886
14639TIP3    H143858   7.380   4.708   7.945
14639TIP3    H243859   7.228   4.724   7.931
14640TIP3   OH243860   7.219   5.307   6.362
14640TIP3    H143861   7.181   5.277   6.277
14640TIP3    H243862   7.299   5.353   6.332
14641TIP3   OH243863   6.931   4.677   6.662
14641TIP3    H143864   6.895   4.673   6.753
14641TIP3    H243865   6.891   4.596   6.626
14642TIP3   OH243866   6.715   5.140   7.709
14642TIP3    H143867   6.670   5.165   7.793
14642TIP3    H243868   6.701   5.223   7.657
14643TIP3   OH243869   6.599   5.031   7.224
14643TIP3    H143870   6.506   5.004   7.242
14643TIP3    H243871   6.611   4.990   7.135
14644TIP3   OH243872   7.092   5.118   6.952
14644TIP3    H143873   7.038   5.188   6.910
14644TIP3    H243874   7.144   5.085   6.876
14645TIP3   OH243875   7.249   5.148   7.190
14645TIP3    H143876   7.186   5.174   7.120
14645TIP3    H243877   7.281   5.065   7.148
14646TIP3   OH243878   6.531   5.171   7.918
14646TIP3    H143879   6.567   5.233   7.983
14646TIP3    H243880   6.520   5.090   7.971
14647TIP3   OH243881   6.586   4.651   6.628
14647TIP3    H143882   6.576   4.646   6.725
14647TIP3    H243883   6.504   4.699   6.604
14648TIP3   OH243884   6.126   4.697   7.498
14648TIP3    H143885   6.204   4.725   7.550
14648TIP3    H243886   6.164   4.660   7.417
14649TIP3   OH243887   6.105   4.677   7.019
14649TIP3    H143888   6.150   4.715   6.941
14649TIP3    H243889   6.042   4.749   7.038
14650TIP3   OH243890   7.205   5.404   7.593
14650TIP3    H143891   7.267   5.346   7.544
14650TIP3    H243892   7.202   5.354   7.677
14651TIP3   OH243893   6.927   4.856   7.286
14651TIP3    H143894   6.841   4.851   7.332
14651TIP3    H243895   6.989   4.851   7.361
14652TIP3   OH243896   6.361   4.907   7.292
14652TIP3    H143897   6.267   4.916   7.266
14652TIP3    H243898   6.381   4.814   7.271
14653TIP3   OH243899   6.632   4.907   6.981
14653TIP3    H143900   6.725   4.918   6.955
14653TIP3    H243901   6.583   4.926   6.898
14654TIP3   OH243902   7.426   4.924   7.483
14654TIP3    H143903   7.394   4.938   7.575
14654TIP3    H243904   7.358   4.864   7.449
14655TIP3   OH243905   6.471   4.938   6.763
14655TIP3    H143906   6.396   4.894   6.719
14655TIP3    H243907   6.520   4.971   6.685
14656TIP3   OH243908   7.011   5.183   7.383
14656TIP3    H143909   7.076   5.133   7.333
14656TIP3    H243910   7.016   5.141   7.471
14657TIP3   OH243911   6.537   4.667   7.260
14657TIP3    H143912   6.499   4.590   7.306
14657TIP3    H243913   6.583   4.626   7.185
14658TIP3   OH243914   6.985   5.077   7.667
14658TIP3    H143915   6.894   5.109   7.683
14658TIP3    H243916   7.040   5.140   7.716
14659TIP3   OH243917   6.723   5.469   6.769
14659TIP3    H143918   6.653   5.401   6.757
14659TIP3    H243919   6.704   5.501   6.860
14660TIP3   OH243920   7.182   4.780   6.630
14660TIP3    H143921   7.085   4.760   6.636
14660TIP3    H243922   7.187   4.875   6.653
14661TIP3   OH243923   7.251   5.029   6.735
14661TIP3    H143924   7.348   5.033   6.746
14661TIP3    H243925   7.232   5.107   6.679
14662TIP3   OH243926   6.421   5.492   7.445
14662TIP3    H143927   6.454   5.456   7.361
14662TIP3    H243928   6.445   5.424   7.509
14663TIP3   OH243929   6.868   5.619   6.590
14663TIP3    H143930   6.820   5.705   6.597
14663TIP3    H243931   6.813   5.562   6.649
14664TIP3   OH243932   6.293   5.407   8.056
14664TIP3    H143933   6.312   5.381   8.148
14664TIP3    H243934   6.222   5.345   8.033
14665TIP3   OH243935   7.696   5.118   6.569
14665TIP3    H143936   7.634   5.071   6.508
14665TIP3    H243937   7.691   5.206   6.526
14666TIP3   OH243938   7.366   5.939   6.476
14666TIP3    H143939   7.376   5.868   6.540
14666TIP3    H243940   7.395   5.897   6.393
14667TIP3   OH243941   7.370   5.577   7.280
14667TIP3    H143942   7.287   5.543   7.318
14667TIP3    H243943   7.418   5.494   7.261
14668TIP3   OH243944   6.514   5.791   7.064
14668TIP3    H143945   6.508   5.874   7.013
14668TIP3    H243946   6.421   5.773   7.083
14669TIP3   OH243947   6.079   5.097   6.770
14669TIP3    H143948   6.123   5.181   6.792
14669TIP3    H243949   6.001   5.101   6.831
14670TIP3   OH243950   6.661   5.562   7.015
14670TIP3    H143951   6.620   5.649   7.033
14670TIP3    H243952   6.622   5.507   7.086
14671TIP3   OH243953   6.436   6.031   6.920
14671TIP3    H143954   6.350   6.037   6.967
14671TIP3    H243955   6.466   6.124   6.923
14672TIP3   OH243956   7.146   5.663   6.378
14672TIP3    H143957   7.197   5.640   6.458
14672TIP3    H243958   7.057   5.633   6.404
14673TIP3   OH243959   7.478   6.138   6.196
14673TIP3    H143960   7.522   6.210   6.147
14673TIP3    H243961   7.400   6.188   6.229
14674TIP3   OH243962   6.507   4.913   8.067
14674TIP3    H143963   6.411   4.923   8.081
14674TIP3    H243964   6.532   4.851   8.138
14675TIP3   OH243965   7.305   5.606   6.602
14675TIP3    H143966   7.294   5.534   6.668
14675TIP3    H243967   7.400   5.596   6.583
14676TIP3   OH243968   6.247   6.001   7.699
14676TIP3    H143969   6.279   5.917   7.734
14676TIP3    H243970   6.214   6.044   7.778
14677TIP3   OH243971   6.514   5.645   6.377
14677TIP3    H143972   6.527   5.553   6.346
14677TIP3    H243973   6.495   5.630   6.472
14678TIP3   OH243974   6.461   5.650   6.649
14678TIP3    H143975   6.527   5.619   6.712
14678TIP3    H243976   6.467   5.748   6.659
14679TIP3   OH243977   6.198   5.345   6.853
14679TIP3    H143978   6.131   5.387   6.911
14679TIP3    H243979   6.208   5.415   6.785
14680TIP3   OH243980   7.362   4.975   7.743
14680TIP3    H143981   7.410   5.013   7.817
14680TIP3    H243982   7.322   4.897   7.788
14681TIP3   OH243983   7.222   4.732   6.910
14681TIP3    H143984   7.207   4.752   6.815
14681TIP3    H243985   7.258   4.817   6.944
14682TIP3   OH243986   6.730   5.853   6.604
14682TIP3    H143987   6.640   5.874   6.636
14682TIP3    H243988   6.736   5.911   6.527
14683TIP3   OH243989   6.918   4.910   7.013
14683TIP3    H143990   6.981   4.983   6.997
14683TIP3    H243991   6.918   4.904   7.111
14684TIP3   OH243992   7.193   5.239   7.806
14684TIP3    H143993   7.166   5.301   7.876
14684TIP3    H243994   7.221   5.163   7.862
14685TIP3   OH243995   7.060   4.642   7.119
14685TIP3    H143996   7.048   4.723   7.172
14685TIP3    H243997   7.118   4.676   7.047
14686TIP3   OH243998   6.472   5.923   6.666
14686TIP3    H143999   6.437   5.991   6.604
14686TIP3    H244000   6.451   5.963   6.753
14687TIP3   OH244001   6.569   4.635   6.904
14687TIP3    H144002   6.567   4.725   6.942
14687TIP3    H244003   6.664   4.615   6.912
14688TIP3   OH244004   7.472   5.324   7.185
14688TIP3    H144005   7.392   5.268   7.197
14688TIP3    H244006   7.542   5.267   7.223
14689TIP3   OH244007   6.186   5.554   6.659
14689TIP3    H144008   6.250   5.626   6.668
14689TIP3    H244009   6.233   5.499   6.592
14690TIP3   OH244010   6.133   4.829   6.792
14690TIP3    H144011   6.127   4.927   6.788
14690TIP3    H244012   6.049   4.802   6.752
14691TIP3   OH244013   6.521   4.548   7.666
14691TIP3    H144014   6.488   4.515   7.580
14691TIP3    H244015   6.509   4.470   7.724
14692TIP3   OH244016   6.061   5.770   7.047
14692TIP3    H144017   5.988   5.797   7.104
14692TIP3    H244018   6.032   5.807   6.961
14693TIP3   OH244019   6.680   5.848   6.296
14693TIP3    H144020   6.621   5.775   6.328
14693TIP3    H244021   6.753   5.796   6.259
14694TIP3   OH244022   7.112   5.893   6.203
14694TIP3    H144023   7.159   5.829   6.260
14694TIP3    H244024   7.164   5.889   6.120
14695TIP3   OH244025   6.377   5.675   8.245
14695TIP3    H144026   6.396   5.579   8.253
14695TIP3    H244027   6.282   5.678   8.224
14696TIP3   OH244028   6.322   5.369   6.510
14696TIP3    H144029   6.373   5.330   6.582
14696TIP3    H244030   6.390   5.371   6.439
14697TIP3   OH244031   6.831   5.565   6.319
14697TIP3    H144032   6.832   5.575   6.416
14697TIP3    H244033   6.831   5.467   6.311
14698TIP3   OH244034   6.479   5.417   8.289
14698TIP3    H144035   6.561   5.367   8.268
14698TIP3    H244036   6.448   5.374   8.370
14699TIP3   OH244037   6.536   5.268   6.738
14699TIP3    H144038   6.502   5.225   6.818
14699TIP3    H244039   6.568   5.192   6.685
14700TIP3   OH244040   6.797   5.318   7.949
14700TIP3    H144041   6.727   5.384   7.965
14700TIP3    H244042   6.857   5.365   7.887
14701TIP3   OH244043   6.628   5.062   6.574
14701TIP3    H144044   6.603   5.063   6.480
14701TIP3    H244045   6.726   5.065   6.567
14702TIP3   OH244046   7.456   5.394   6.235
14702TIP3    H144047   7.434   5.346   6.153
14702TIP3    H244048   7.421   5.483   6.211
14703TIP3   OH244049   6.911   5.113   8.088
14703TIP3    H144050   6.930   5.036   8.032
14703TIP3    H244051   6.880   5.179   8.023
14704TIP3   OH244052   6.927   4.902   7.890
14704TIP3    H144053   6.949   4.946   7.806
14704TIP3    H244054   6.831   4.883   7.878
14705TIP3   OH244055   6.955   5.434   7.756
14705TIP3    H144056   7.028   5.436   7.693
14705TIP3    H244057   6.894   5.503   7.721
14706TIP3   OH244058   6.729   5.245   8.253
14706TIP3    H144059   6.696   5.158   8.283
14706TIP3    H244060   6.797   5.216   8.188
14707TIP3   OH244061   7.059   4.671   7.967
14707TIP3    H144062   7.008   4.752   7.942
14707TIP3    H244063   6.990   4.602   7.954
14708TIP3   OH244064   6.641   5.015   8.367
14708TIP3    H144065   6.645   4.927   8.324
14708TIP3    H244066   6.673   4.993   8.455
14709TIP3   OH244067   7.159   4.681   8.225
14709TIP3    H144068   7.221   4.607   8.217
14709TIP3    H244069   7.115   4.680   8.138
14710TIP3   OH244070   6.439   6.130   6.482
14710TIP3    H144071   6.533   6.122   6.457
14710TIP3    H244072   6.405   6.174   6.402
14711TIP3   OH244073   5.917   5.507   6.694
14711TIP3    H144074   6.012   5.527   6.681
14711TIP3    H244075   5.910   5.417   6.655
14712TIP3   OH244076   5.834   6.120   7.106
14712TIP3    H144077   5.765   6.059   7.071
14712TIP3    H244078   5.876   6.063   7.174
14713TIP3   OH244079   5.968   5.973   7.295
14713TIP3    H144080   5.954   5.897   7.354
14713TIP3    H244081   6.017   6.031   7.354
14714TIP3   OH244082   7.576   5.578   6.572
14714TIP3    H144083   7.644   5.634   6.531
14714TIP3    H244084   7.624   5.541   6.649
14715TIP3   OH244085   7.711   5.450   6.774
14715TIP3    H144086   7.641   5.399   6.821
14715TIP3    H244087   7.764   5.484   6.847
14716TIP3   OH244088   7.652   5.356   6.422
14716TIP3    H144089   7.583   5.355   6.352
14716TIP3    H244090   7.620   5.431   6.475
14717TIP3   OH244091   7.526   5.030   6.377
14717TIP3    H144092   7.483   5.066   6.298
14717TIP3    H244093   7.500   4.936   6.370
14718TIP3   OH244094   7.533   5.303   6.920
14718TIP3    H144095   7.535   5.206   6.910
14718TIP3    H244096   7.514   5.313   7.016
14719TIP3   OH244097   6.156   5.378   7.666
14719TIP3    H144098   6.154   5.348   7.572
14719TIP3    H244099   6.253   5.377   7.683
14720TIP3   OH244100   7.466   4.766   6.367
14720TIP3    H144101   7.540   4.729   6.419
14720TIP3    H244102   7.393   4.704   6.384
14721TIP3   OH244103   7.528   5.022   6.818
14721TIP3    H144104   7.564   4.932   6.834
14721TIP3    H244105   7.585   5.050   6.744
14722TIP3   OH244106   7.693   5.180   7.273
14722TIP3    H144107   7.787   5.196   7.263
14722TIP3    H244108   7.679   5.202   7.368
14723TIP3   OH244109   6.372   5.065   8.332
14723TIP3    H144110   6.469   5.057   8.341
14723TIP3    H244111   6.344   4.983   8.378
14724TIP3   OH244112   7.631   4.770   6.855
14724TIP3    H144113   7.679   4.751   6.939
14724TIP3    H244114   7.571   4.694   6.851
14725TIP3   OH244115   6.334   4.755   7.670
14725TIP3    H144116   6.396   4.680   7.681
14725TIP3    H244117   6.396   4.830   7.667
14726TIP3   OH244118   6.139   5.030   7.747
14726TIP3    H144119   6.187   5.026   7.662
14726TIP3    H244120   6.165   5.116   7.780
14727TIP3   OH244121   7.719   4.705   6.488
14727TIP3    H144122   7.754   4.632   6.432
14727TIP3    H244123   7.786   4.775   6.474
14728TIP3   OH244124   6.120   4.540   7.250
14728TIP3    H144125   6.026   4.531   7.273
14728TIP3    H244126   6.117   4.595   7.169
14729TIP3   OH244127   7.304   6.261   6.768
14729TIP3    H144128   7.322   6.201   6.692
14729TIP3    H244129   7.332   6.342   6.722
14730TIP3   OH244130   6.340   4.612   8.061
14730TIP3    H144131   6.291   4.611   8.145
14730TIP3    H244132   6.275   4.652   8.001
14731TIP3   OH244133   6.580   6.032   7.584
14731TIP3    H144134   6.511   6.099   7.564
14731TIP3    H244135   6.608   6.067   7.670
14732TIP3   OH244136   6.230   6.326   7.678
14732TIP3    H144137   6.138   6.359   7.666
14732TIP3    H244138   6.241   6.340   7.773
14733TIP3   OH244139   6.463   6.271   7.537
14733TIP3    H144140   6.389   6.303   7.593
14733TIP3    H244141   6.445   6.316   7.452
14734TIP3   OH244142   6.147   6.123   7.453
14734TIP3    H144143   6.181   6.108   7.544
14734TIP3    H244144   6.218   6.076   7.402
14735TIP3   OH244145   6.340   5.996   7.308
14735TIP3    H144146   6.352   5.909   7.354
14735TIP3    H244147   6.431   6.027   7.301
14736TIP3   OH244148   6.617   6.091   7.306
14736TIP3    H144149   6.647   5.998   7.303
14736TIP3    H244150   6.604   6.100   7.402
14737TIP3   OH244151   7.187   4.749   7.407
14737TIP3    H144152   7.137   4.682   7.457
14737TIP3    H244153   7.248   4.694   7.354
14738TIP3   OH244154   7.711   4.645   7.315
14738TIP3    H144155   7.740   4.684   7.230
14738TIP3    H244156   7.613   4.642   7.303
14739TIP3   OH244157   7.802   4.727   7.071
14739TIP3    H144158   7.871   4.673   7.028
14739TIP3    H244159   7.840   4.817   7.057
14740TIP3   OH244160   6.431   4.457   7.418
14740TIP3    H144161   6.338   4.425   7.419
14740TIP3    H244162   6.478   4.371   7.414
14741TIP3   OH244163   6.220   4.325   7.067
14741TIP3    H144164   6.247   4.382   6.993
14741TIP3    H244165   6.188   4.389   7.132
14742TIP3   OH244166   6.874   4.488   7.297
14742TIP3    H144167   6.934   4.538   7.240
14742TIP3    H244168   6.890   4.527   7.384
14743TIP3   OH244169   7.433   4.632   7.279
14743TIP3    H144170   7.418   4.595   7.192
14743TIP3    H244171   7.414   4.555   7.337
14744TIP3   OH244172   7.451   4.557   6.845
14744TIP3    H144173   7.361   4.595   6.852
14744TIP3    H244174   7.437   4.471   6.892
14745TIP3   OH244175   5.937   5.894   6.844
14745TIP3    H144176   5.851   5.859   6.812
14745TIP3    H244177   5.921   5.989   6.830
14746TIP3   OH244178   6.332   4.486   6.828
14746TIP3    H144179   6.380   4.421   6.772
14746TIP3    H244180   6.406   4.537   6.865
14747TIP3   OH244181   6.846   4.661   6.927
14747TIP3    H144182   6.902   4.608   6.986
14747TIP3    H244183   6.872   4.751   6.954
14748TIP3   OH244184   6.706   6.088   6.424
14748TIP3    H144185   6.796   6.107   6.389
14748TIP3    H244186   6.683   6.012   6.366
14749TIP3   OH244187   7.406   6.207   6.527
14749TIP3    H144188   7.416   6.110   6.512
14749TIP3    H244189   7.378   6.236   6.438
14750TIP3   OH244190   6.637   4.742   8.306
14750TIP3    H144191   6.597   4.672   8.359
14750TIP3    H244192   6.731   4.735   8.334
14751TIP3   OH244193   6.890   4.713   8.412
14751TIP3    H144194   6.975   4.714   8.365
14751TIP3    H244195   6.911   4.658   8.489
14752TIP3   OH244196   6.012   5.929   6.485
14752TIP3    H144197   6.002   5.948   6.580
14752TIP3    H244198   6.099   5.884   6.481
14753TIP3   OH244199   7.884   5.226   6.751
14753TIP3    H144200   7.837   5.310   6.741
14753TIP3    H244201   7.825   5.167   6.700
14754TIP3   OH244202   7.772   5.728   6.452
14754TIP3    H144203   7.742   5.788   6.383
14754TIP3    H244204   7.797   5.790   6.523
14755TIP3   OH244205   8.708   5.348   6.027
14755TIP3    H144206   8.766   5.389   6.093
14755TIP3    H244207   8.772   5.291   5.977
14756TIP3   OH244208   8.203   5.496   6.464
14756TIP3    H144209   8.118   5.524   6.424
14756TIP3    H244210   8.176   5.428   6.526
14757TIP3   OH244211   8.727   4.941   6.147
14757TIP3    H144212   8.697   4.930   6.240
14757TIP3    H244213   8.694   4.858   6.109
14758TIP3   OH244214   8.388   5.286   6.665
14758TIP3    H144215   8.300   5.253   6.690
14758TIP3    H244216   8.414   5.221   6.597
14759TIP3   OH244217   8.379   4.906   6.112
14759TIP3    H144218   8.373   4.902   6.210
14759TIP3    H244219   8.297   4.955   6.091
14760TIP3   OH244220   7.946   4.948   6.992
14760TIP3    H144221   8.022   5.005   6.980
14760TIP3    H244222   7.936   4.910   6.902
14761TIP3   OH244223   7.900   4.931   6.506
14761TIP3    H144224   7.948   4.967   6.428
14761TIP3    H244225   7.839   5.004   6.523
14762TIP3   OH244226   8.165   5.162   6.758
14762TIP3    H144227   8.068   5.159   6.747
14762TIP3    H244228   8.194   5.069   6.742
14763TIP3   OH244229   8.464   5.149   6.435
14763TIP3    H144230   8.515   5.230   6.421
14763TIP3    H244231   8.390   5.164   6.371
14764TIP3   OH244232   8.268   5.190   6.252
14764TIP3    H144233   8.191   5.149   6.207
14764TIP3    H244234   8.314   5.230   6.176
14765TIP3   OH244235   8.310   4.923   6.731
14765TIP3    H144236   8.293   4.846   6.788
14765TIP3    H244237   8.391   4.896   6.686
14766TIP3   OH244238   8.991   5.042   6.123
14766TIP3    H144239   8.896   5.020   6.135
14766TIP3    H244240   8.991   5.138   6.122
14767TIP3   OH244241   7.873   5.351   6.256
14767TIP3    H144242   7.919   5.436   6.275
14767TIP3    H244243   7.797   5.358   6.318
14768TIP3   OH244244   8.285   5.888   5.854
14768TIP3    H144245   8.347   5.850   5.792
14768TIP3    H244246   8.293   5.829   5.929
14769TIP3   OH244247   7.982   5.593   6.335
14769TIP3    H144248   7.909   5.635   6.386
14769TIP3    H244249   8.015   5.669   6.286
14770TIP3   OH244250   8.366   4.884   6.386
14770TIP3    H144251   8.374   4.974   6.420
14770TIP3    H244252   8.459   4.855   6.393
14771TIP3   OH244253   7.965   5.841   6.111
14771TIP3    H144254   8.012   5.854   6.194
14771TIP3    H244255   8.016   5.770   6.067
14772TIP3   OH244256   7.928   5.085   6.281
14772TIP3    H144257   7.925   5.182   6.275
14772TIP3    H244258   7.847   5.059   6.235
14773TIP3   OH244259   8.317   4.807   7.150
14773TIP3    H144260   8.286   4.776   7.062
14773TIP3    H244261   8.320   4.723   7.200
14774TIP3   OH244262   8.129   5.635   6.008
14774TIP3    H144263   8.177   5.587   6.079
14774TIP3    H244264   8.192   5.628   5.934
14775TIP3   OH244265   8.554   5.749   5.840
14775TIP3    H144266   8.569   5.836   5.882
14775TIP3    H244267   8.650   5.732   5.821
14776TIP3   OH244268   8.303   5.528   6.204
14776TIP3    H144269   8.286   5.501   6.297
14776TIP3    H244270   8.355   5.452   6.171
14777TIP3   OH244271   8.431   5.320   6.063
14777TIP3    H144272   8.409   5.288   5.974
14777TIP3    H244273   8.529   5.317   6.061
14778TIP3   OH244274   7.909   4.817   6.751
14778TIP3    H144275   7.816   4.788   6.754
14778TIP3    H244276   7.914   4.857   6.661
14779TIP3   OH244277   8.226   4.712   6.908
14779TIP3    H144278   8.132   4.682   6.906
14779TIP3    H244279   8.271   4.625   6.900
14780TIP3   OH244280   8.016   4.580   6.551
14780TIP3    H144281   8.046   4.636   6.478
14780TIP3    H244282   7.985   4.645   6.615
14781TIP3   OH244283   8.663   4.741   6.788
14781TIP3    H144284   8.742   4.790   6.758
14781TIP3    H244285   8.660   4.769   6.882
14782TIP3   OH244286   9.257   4.826   6.247
14782TIP3    H144287   9.193   4.898   6.253
14782TIP3    H244288   9.197   4.749   6.236
14783TIP3   OH244289   7.739   6.150   6.299
14783TIP3    H144290   7.651   6.114   6.278
14783TIP3    H244291   7.722   6.244   6.282
14784TIP3   OH244292   8.128   4.741   6.316
14784TIP3    H144293   8.176   4.677   6.259
14784TIP3    H244294   8.202   4.793   6.352
14785TIP3   OH244295   8.645   4.914   6.413
14785TIP3    H144296   8.698   4.871   6.481
14785TIP3    H244297   8.625   5.001   6.451
14786TIP3   OH244298   7.812   6.188   5.991
14786TIP3    H144299   7.816   6.226   6.081
14786TIP3    H244300   7.890   6.132   5.989
14787TIP3   OH244301   2.154   6.072   8.569
14787TIP3    H144302   2.197   6.139   8.621
14787TIP3    H244303   2.205   6.074   8.486
14788TIP3   OH244304   1.616   5.967   8.212
14788TIP3    H144305   1.685   5.958   8.282
14788TIP3    H244306   1.665   6.018   8.145
14789TIP3   OH244307   1.818   5.985   8.394
14789TIP3    H144308   1.851   5.909   8.445
14789TIP3    H244309   1.887   6.051   8.410
14790TIP3   OH244310   1.198   6.321   7.965
14790TIP3    H144311   1.119   6.368   7.930
14790TIP3    H244312   1.256   6.318   7.886
14791TIP3   OH244313   1.163   6.135   7.702
14791TIP3    H144314   1.224   6.182   7.760
14791TIP3    H244315   1.225   6.080   7.651
14792TIP3   OH244316   1.542   6.446   7.980
14792TIP3    H144317   1.522   6.501   8.059
14792TIP3    H244318   1.626   6.405   8.009
14793TIP3   OH244319   1.399   6.297   7.788
14793TIP3    H144320   1.451   6.362   7.840
14793TIP3    H244321   1.423   6.323   7.695
14794TIP3   OH244322   1.906   5.541   7.842
14794TIP3    H144323   1.823   5.561   7.890
14794TIP3    H244324   1.918   5.624   7.790
14795TIP3   OH244325   1.711   6.902   7.365
14795TIP3    H144326   1.727   6.996   7.342
14795TIP3    H244327   1.803   6.868   7.363
14796TIP3   OH244328   1.464   6.352   7.534
14796TIP3    H144329   1.431   6.321   7.447
14796TIP3    H244330   1.544   6.401   7.507
14797TIP3   OH244331   1.171   5.730   7.824
14797TIP3    H144332   1.152   5.725   7.920
14797TIP3    H244333   1.134   5.644   7.796
14798TIP3   OH244334   1.335   6.156   8.131
14798TIP3    H144335   1.277   6.213   8.077
14798TIP3    H244336   1.397   6.123   8.063
14799TIP3   OH244337   1.542   6.215   8.309
14799TIP3    H144338   1.459   6.220   8.258
14799TIP3    H244339   1.553   6.119   8.312
14800TIP3   OH244340   1.422   5.833   7.792
14800TIP3    H144341   1.327   5.810   7.802
14800TIP3    H244342   1.425   5.927   7.816
14801TIP3   OH244343   1.499   6.074   7.917
14801TIP3    H144344   1.596   6.076   7.925
14801TIP3    H244345   1.481   6.150   7.857
14802TIP3   OH244346   1.942   6.161   7.746
14802TIP3    H144347   1.880   6.116   7.684
14802TIP3    H244348   1.939   6.250   7.705
14803TIP3   OH244349   1.617   6.959   7.617
14803TIP3    H144350   1.593   6.882   7.669
14803TIP3    H244351   1.643   6.920   7.531
14804TIP3   OH244352   1.392   6.715   7.549
14804TIP3    H144353   1.447   6.671   7.618
14804TIP3    H244354   1.304   6.699   7.586
14805TIP3   OH244355   1.763   7.169   7.343
14805TIP3    H144356   1.764   7.244   7.282
14805TIP3    H244357   1.691   7.196   7.405
14806TIP3   OH244358   1.559   6.609   7.742
14806TIP3    H144359   1.543   6.564   7.826
14806TIP3    H244360   1.657   6.603   7.735
14807TIP3   OH244361   1.490   5.780   8.054
14807TIP3    H144362   1.469   5.811   7.964
14807TIP3    H244363   1.523   5.862   8.098
14808TIP3   OH244364   1.157   5.955   8.204
14808TIP3    H144365   1.223   6.021   8.176
14808TIP3    H244366   1.178   5.940   8.297
14809TIP3   OH244367   1.378   5.665   8.269
14809TIP3    H144368   1.332   5.736   8.316
14809TIP3    H244369   1.407   5.710   8.186
14810TIP3   OH244370   1.748   6.385   8.350
14810TIP3    H144371   1.664   6.334   8.345
14810TIP3    H244372   1.806   6.323   8.400
14811TIP3   OH244373   1.357   6.954   7.378
14811TIP3    H144374   1.392   6.889   7.441
14811TIP3    H244375   1.411   6.940   7.298
14812TIP3   OH244376   1.080   6.609   7.498
14812TIP3    H144377   1.058   6.623   7.591
14812TIP3    H244378   1.082   6.511   7.493
14813TIP3   OH244379   0.899   6.058   7.713
14813TIP3    H144380   0.880   6.015   7.628
14813TIP3    H244381   0.997   6.061   7.711
14814TIP3   OH244382   1.704   6.438   7.413
14814TIP3    H144383   1.683   6.390   7.331
14814TIP3    H244384   1.668   6.527   7.389
14815TIP3   OH244385   1.830   6.636   7.755
14815TIP3    H144386   1.902   6.694   7.721
14815TIP3    H244387   1.877   6.592   7.829
14816TIP3   OH244388   1.957   6.494   7.945
14816TIP3    H144389   1.897   6.449   8.008
14816TIP3    H244390   2.029   6.528   8.002
14817TIP3   OH244391   1.902   6.404   7.600
14817TIP3    H144392   1.832   6.404   7.531
14817TIP3    H244393   1.872   6.479   7.654
14818TIP3   OH244394   1.773   6.076   7.553
14818TIP3    H144395   1.731   6.110   7.473
14818TIP3    H244396   1.748   5.980   7.547
14819TIP3   OH244397   1.774   6.342   8.084
14819TIP3    H144398   1.780   6.245   8.077
14819TIP3    H244399   1.765   6.356   8.181
14820TIP3   OH244400   1.718   5.811   7.541
14820TIP3    H144401   1.787   5.773   7.597
14820TIP3    H244402   1.640   5.753   7.556
14821TIP3   OH244403   1.777   6.068   7.992
14821TIP3    H144404   1.812   5.977   8.008
14821TIP3    H244405   1.835   6.095   7.919
14822TIP3   OH244406   1.945   6.262   8.490
14822TIP3    H144407   2.033   6.282   8.451
14822TIP3    H244408   1.970   6.218   8.571
14823TIP3   OH244409   1.881   5.817   8.028
14823TIP3    H144410   1.931   5.797   8.110
14823TIP3    H244411   1.819   5.741   8.026
14824TIP3   OH244412   1.969   5.748   7.666
14824TIP3    H144413   2.003   5.677   7.608
14824TIP3    H244414   2.033   5.820   7.651
14825TIP3   OH244415   1.946   5.735   8.490
14825TIP3    H144416   1.997   5.747   8.406
14825TIP3    H244417   1.861   5.699   8.458
14826TIP3   OH244418   2.050   5.771   8.243
14826TIP3    H144419   2.122   5.719   8.201
14826TIP3    H244420   2.083   5.862   8.226
14827TIP3   OH244421   1.684   5.663   8.448
14827TIP3    H144422   1.634   5.660   8.365
14827TIP3    H244423   1.657   5.581   8.491
14828TIP3   OH244424   1.701   5.605   8.018
14828TIP3    H144425   1.615   5.653   8.024
14828TIP3    H244426   1.675   5.519   8.059
14829TIP3   OH244427   1.123   5.708   8.089
14829TIP3    H144428   1.124   5.651   8.166
14829TIP3    H244429   1.117   5.798   8.128
14830TIP3   OH244430   3.179   6.765   7.625
14830TIP3    H144431   3.145   6.857   7.625
14830TIP3    H244432   3.096   6.716   7.613
14831TIP3   OH244433   3.170   6.757   8.023
14831TIP3    H144434   3.195   6.736   8.114
14831TIP3    H244435   3.122   6.677   7.996
14832TIP3   OH244436   2.496   6.684   8.443
14832TIP3    H144437   2.514   6.590   8.459
14832TIP3    H244438   2.553   6.703   8.367
14833TIP3   OH244439   3.401   7.065   7.710
14833TIP3    H144440   3.399   6.997   7.779
14833TIP3    H244441   3.436   7.142   7.760
14834TIP3   OH244442   2.143   6.268   7.910
14834TIP3    H144443   2.100   6.355   7.923
14834TIP3    H244444   2.070   6.218   7.869
14835TIP3   OH244445   2.199   6.554   8.054
14835TIP3    H144446   2.248   6.486   8.105
14835TIP3    H244447   2.268   6.589   7.995
14836TIP3   OH244448   3.052   7.523   7.741
14836TIP3    H144449   3.101   7.464   7.680
14836TIP3    H244450   3.062   7.474   7.824
14837TIP3   OH244451   2.983   6.978   8.084
14837TIP3    H144452   3.019   6.906   8.030
14837TIP3    H244453   3.067   7.022   8.110
14838TIP3   OH244454   3.971   6.308   8.078
14838TIP3    H144455   4.002   6.390   8.123
14838TIP3    H244456   4.000   6.325   7.987
14839TIP3   OH244457   3.368   6.486   8.121
14839TIP3    H144458   3.429   6.411   8.129
14839TIP3    H244459   3.344   6.482   8.027
14840TIP3   OH244460   2.714   6.150   8.077
14840TIP3    H144461   2.693   6.222   8.014
14840TIP3    H244462   2.668   6.075   8.033
14841TIP3   OH244463   3.405   6.244   7.703
14841TIP3    H144464   3.476   6.225   7.769
14841TIP3    H244465   3.459   6.279   7.631
14842TIP3   OH244466   2.347   6.354   8.181
14842TIP3    H144467   2.429   6.329   8.228
14842TIP3    H244468   2.356   6.298   8.101
14843TIP3   OH244469   2.785   6.547   7.986
14843TIP3    H144470   2.880   6.523   7.993
14843TIP3    H244471   2.747   6.466   7.948
14844TIP3   OH244472   4.045   6.512   8.254
14844TIP3    H144473   3.966   6.566   8.234
14844TIP3    H244474   4.077   6.554   8.336
14845TIP3   OH244475   2.724   6.122   8.488
14845TIP3    H144476   2.668   6.161   8.418
14845TIP3    H244477   2.662   6.132   8.564
14846TIP3   OH244478   3.073   7.001   7.505
14846TIP3    H144479   3.012   6.964   7.439
14846TIP3    H244480   3.020   7.076   7.538
14847TIP3   OH244481   2.846   6.935   8.317
14847TIP3    H144482   2.753   6.968   8.319
14847TIP3    H244483   2.872   6.956   8.224
14848TIP3   OH244484   3.610   6.247   7.881
14848TIP3    H144485   3.644   6.176   7.937
14848TIP3    H244486   3.673   6.319   7.898
14849TIP3   OH244487   2.582   6.249   8.293
14849TIP3    H144488   2.645   6.322   8.312
14849TIP3    H244489   2.626   6.208   8.215
14850TIP3   OH244490   2.038   6.789   7.640
14850TIP3    H144491   2.002   6.820   7.556
14850TIP3    H244492   2.068   6.874   7.681
14851TIP3   OH244493   3.470   7.293   7.859
14851TIP3    H144494   3.389   7.297   7.915
14851TIP3    H244495   3.470   7.385   7.822
14852TIP3   OH244496   3.765   6.214   8.243
14852TIP3    H144497   3.682   6.244   8.204
14852TIP3    H244498   3.831   6.242   8.176
14853TIP3   OH244499   3.068   5.848   8.223
14853TIP3    H144500   3.051   5.753   8.239
14853TIP3    H244501   2.991   5.887   8.270
14854TIP3   OH244502   3.186   7.358   7.558
14854TIP3    H144503   3.238   7.277   7.541
14854TIP3    H244504   3.246   7.424   7.517
14855TIP3   OH244505   3.329   7.111   7.448
14855TIP3    H144506   3.238   7.076   7.460
14855TIP3    H244507   3.366   7.097   7.538
14856TIP3   OH244508   3.694   7.221   8.222
14856TIP3    H144509   3.689   7.136   8.173
14856TIP3    H244510   3.685   7.286   8.149
14857TIP3   OH244511   2.995   6.614   7.477
14857TIP3    H144512   2.913   6.665   7.463
14857TIP3    H244513   3.028   6.605   7.386
14858TIP3   OH244514   2.956   6.397   7.202
14858TIP3    H144515   3.027   6.446   7.246
14858TIP3    H244516   3.009   6.332   7.152
14859TIP3   OH244517   3.899   6.854   8.066
14859TIP3    H144518   3.818   6.909   8.075
14859TIP3    H244519   3.929   6.881   7.977
14860TIP3   OH244520   3.386   6.671   7.473
14860TIP3    H144521   3.309   6.723   7.505
14860TIP3    H244522   3.412   6.641   7.561
14861TIP3   OH244523   3.577   6.726   8.361
14861TIP3    H144524   3.587   6.805   8.420
14861TIP3    H244525   3.496   6.751   8.314
14862TIP3   OH244526   2.574   6.695   7.870
14862TIP3    H144527   2.533   6.639   7.801
14862TIP3    H244528   2.651   6.642   7.898
14863TIP3   OH244529   2.708   7.030   8.047
14863TIP3    H144530   2.674   7.049   7.959
14863TIP3    H244531   2.804   7.047   8.037
14864TIP3   OH244532   2.723   6.672   8.233
14864TIP3    H144533   2.741   6.647   8.140
14864TIP3    H244534   2.776   6.753   8.242
14865TIP3   OH244535   3.249   7.311   8.017
14865TIP3    H144536   3.182   7.366   8.059
14865TIP3    H244537   3.230   7.224   8.058
14866TIP3   OH244538   3.193   6.555   7.277
14866TIP3    H144539   3.239   6.626   7.323
14866TIP3    H244540   3.212   6.579   7.182
14867TIP3   OH244541   2.929   7.233   7.554
14867TIP3    H144542   2.999   7.295   7.580
14867TIP3    H244543   2.864   7.290   7.512
14868TIP3   OH244544   3.726   5.852   7.362
14868TIP3    H144545   3.640   5.809   7.377
14868TIP3    H244546   3.720   5.876   7.269
14869TIP3   OH244547   2.443   6.537   7.675
14869TIP3    H144548   2.378   6.584   7.618
14869TIP3    H244549   2.399   6.452   7.686
14870TIP3   OH244550   3.498   7.166   6.877
14870TIP3    H144551   3.507   7.262   6.861
14870TIP3    H244552   3.590   7.136   6.863
14871TIP3   OH244553   3.937   7.555   8.238
14871TIP3    H144554   3.942   7.461   8.263
14871TIP3    H244555   3.901   7.600   8.316
14872TIP3   OH244556   2.810   7.473   7.357
14872TIP3    H144557   2.762   7.458   7.273
14872TIP3    H244558   2.774   7.560   7.385
14873TIP3   OH244559   3.010   7.383   6.997
14873TIP3    H144560   3.070   7.315   6.961
14873TIP3    H244561   3.044   7.392   7.089
14874TIP3   OH244562   3.061   7.430   7.268
14874TIP3    H144563   2.971   7.438   7.305
14874TIP3    H244564   3.109   7.392   7.343
14875TIP3   OH244565   3.828   6.694   8.549
14875TIP3    H144566   3.759   6.714   8.485
14875TIP3    H244567   3.850   6.601   8.531
14876TIP3   OH244568   2.832   5.919   8.344
14876TIP3    H144569   2.743   5.893   8.315
14876TIP3    H244570   2.809   6.002   8.391
14877TIP3   OH244571   3.591   6.466   8.463
14877TIP3    H144572   3.548   6.477   8.548
14877TIP3    H244573   3.583   6.556   8.423
14878TIP3   OH244574   3.269   6.610   7.027
14878TIP3    H144575   3.228   6.579   6.944
14878TIP3    H244576   3.348   6.656   6.992
14879TIP3   OH244577   2.974   5.980   7.326
14879TIP3    H144578   2.939   5.974   7.417
14879TIP3    H244579   2.937   5.897   7.289
14880TIP3   OH244580   2.774   6.442   8.359
14880TIP3    H144581   2.720   6.461   8.439
14880TIP3    H244582   2.761   6.527   8.310
14881TIP3   OH244583   2.644   6.331   7.888
14881TIP3    H144584   2.551   6.306   7.903
14881TIP3    H244585   2.658   6.292   7.798
14882TIP3   OH244586   3.137   6.421   7.617
14882TIP3    H144587   3.082   6.488   7.571
14882TIP3    H244588   3.187   6.383   7.542
14883TIP3   OH244589   3.332   6.683   8.706
14883TIP3    H144590   3.302   6.608   8.762
14883TIP3    H244591   3.420   6.703   8.743
14884TIP3   OH244592   3.290   6.445   7.855
14884TIP3    H144593   3.229   6.470   7.783
14884TIP3    H244594   3.326   6.364   7.815
14885TIP3   OH244595   2.590   6.450   8.553
14885TIP3    H144596   2.632   6.483   8.634
14885TIP3    H244597   2.566   6.359   8.578
14886TIP3   OH244598   2.629   5.952   7.291
14886TIP3    H144599   2.621   5.948   7.388
14886TIP3    H244600   2.549   6.002   7.267
14887TIP3   OH244601   2.171   5.997   8.166
14887TIP3    H144602   2.252   6.028   8.212
14887TIP3    H244603   2.203   5.967   8.080
14888TIP3   OH244604   2.151   5.978   7.684
14888TIP3    H144605   2.194   6.015   7.605
14888TIP3    H244606   2.087   6.050   7.703
14889TIP3   OH244607   3.289   6.692   8.278
14889TIP3    H144608   3.328   6.622   8.219
14889TIP3    H244609   3.274   6.638   8.358
14890TIP3   OH244610   2.972   6.157   7.949
14890TIP3    H144611   2.886   6.150   7.996
14890TIP3    H244612   3.035   6.154   8.022
14891TIP3   OH244613   2.404   6.207   7.958
14891TIP3    H144614   2.310   6.216   7.930
14891TIP3    H244615   2.426   6.116   7.932
14892TIP3   OH244616   2.676   6.209   7.645
14892TIP3    H144617   2.769   6.219   7.620
14892TIP3    H244618   2.627   6.228   7.561
14893TIP3   OH244619   3.456   6.223   8.173
14893TIP3    H144620   3.371   6.232   8.218
14893TIP3    H244621   3.433   6.160   8.104
14894TIP3   OH244622   2.516   6.238   7.426
14894TIP3    H144623   2.442   6.194   7.379
14894TIP3    H244624   2.566   6.273   7.349
14895TIP3   OH244625   3.055   6.481   8.043
14895TIP3    H144626   3.127   6.444   7.991
14895TIP3    H244627   3.069   6.440   8.130
14896TIP3   OH244628   2.583   5.969   7.923
14896TIP3    H144629   2.547   5.889   7.967
14896TIP3    H244630   2.628   5.931   7.846
14897TIP3   OH244631   3.040   6.373   8.343
14897TIP3    H144632   2.949   6.409   8.341
14897TIP3    H244633   3.090   6.444   8.389
14898TIP3   OH244634   2.769   6.768   7.433
14898TIP3    H144635   2.696   6.703   7.420
14898TIP3    H244636   2.748   6.801   7.525
14899TIP3   OH244637   3.670   7.004   8.061
14899TIP3    H144638   3.694   7.054   7.979
14899TIP3    H244639   3.584   6.963   8.035
14900TIP3   OH244640   3.226   6.079   7.296
14900TIP3    H144641   3.130   6.057   7.300
14900TIP3    H244642   3.227   6.174   7.316
14901TIP3   OH244643   3.292   6.328   7.403
14901TIP3    H144644   3.389   6.322   7.407
14901TIP3    H244645   3.274   6.401   7.340
14902TIP3   OH244646   2.472   6.772   8.134
14902TIP3    H144647   2.486   6.789   8.039
14902TIP3    H244648   2.511   6.685   8.143
14903TIP3   OH244649   2.915   6.917   7.256
14903TIP3    H144650   2.869   7.004   7.258
14903TIP3    H244651   2.857   6.864   7.314
14904TIP3   OH244652   3.687   6.465   7.238
14904TIP3    H144653   3.646   6.394   7.182
14904TIP3    H244654   3.766   6.481   7.183
14905TIP3   OH244655   3.941   7.284   8.307
14905TIP3    H144656   3.849   7.257   8.282
14905TIP3    H244657   3.989   7.249   8.228
14906TIP3   OH244658   3.442   7.241   7.140
14906TIP3    H144659   3.401   7.176   7.198
14906TIP3    H244660   3.450   7.194   7.054
14907TIP3   OH244661   3.431   6.870   7.982
14907TIP3    H144662   3.338   6.842   7.992
14907TIP3    H244663   3.468   6.790   7.938
14908TIP3   OH244664   2.560   7.077   7.722
14908TIP3    H144665   2.566   7.163   7.677
14908TIP3    H244666   2.471   7.078   7.758
14909TIP3   OH244667   2.124   6.398   7.434
14909TIP3    H144668   2.169   6.482   7.454
14909TIP3    H244669   2.047   6.403   7.495
14910TIP3   OH244670   2.709   6.855   7.680
14910TIP3    H144671   2.668   6.943   7.691
14910TIP3    H244672   2.668   6.807   7.754
14911TIP3   OH244673   2.483   7.301   7.550
14911TIP3    H144674   2.428   7.307   7.630
14911TIP3    H244675   2.518   7.393   7.550
14912TIP3   OH244676   3.229   7.071   8.157
14912TIP3    H144677   3.244   7.104   8.247
14912TIP3    H244678   3.310   7.022   8.140
14913TIP3   OH244679   3.190   6.965   7.041
14913TIP3    H144680   3.239   6.922   7.113
14913TIP3    H244681   3.098   6.941   7.063
14914TIP3   OH244682   3.532   7.440   6.862
14914TIP3    H144683   3.568   7.512   6.807
14914TIP3    H244684   3.452   7.486   6.895
14915TIP3   OH244685   2.562   6.216   8.684
14915TIP3    H144686   2.479   6.249   8.723
14915TIP3    H244687   2.629   6.242   8.751
14916TIP3   OH244688   3.366   6.869   7.254
14916TIP3    H144689   3.334   6.846   7.342
14916TIP3    H244690   3.414   6.950   7.274
14917TIP3   OH244691   2.562   6.944   7.041
14917TIP3    H144692   2.572   6.852   7.011
14917TIP3    H244693   2.541   6.931   7.136
14918TIP3   OH244694   2.506   6.942   7.313
14918TIP3    H144695   2.572   6.924   7.381
14918TIP3    H244696   2.508   7.041   7.309
14919TIP3   OH244697   2.242   6.646   7.518
14919TIP3    H144698   2.175   6.689   7.575
14919TIP3    H244699   2.255   6.716   7.451
14920TIP3   OH244700   3.254   6.038   7.576
14920TIP3    H144701   3.251   6.053   7.480
14920TIP3    H244702   3.303   6.116   7.608
14921TIP3   OH244703   2.776   7.148   7.263
14921TIP3    H144704   2.685   7.169   7.290
14921TIP3    H244705   2.789   7.218   7.197
14922TIP3   OH244706   2.961   6.212   7.676
14922TIP3    H144707   3.027   6.282   7.660
14922TIP3    H244708   2.963   6.206   7.774
14923TIP3   OH244709   3.237   6.529   8.491
14923TIP3    H144710   3.229   6.599   8.558
14923TIP3    H244711   3.302   6.472   8.532
14924TIP3   OH244712   3.102   5.943   7.783
14924TIP3    H144713   3.091   6.024   7.836
14924TIP3    H244714   3.161   5.976   7.711
14925TIP3   OH244715   2.512   7.211   7.299
14925TIP3    H144716   2.483   7.287   7.244
14925TIP3    H244717   2.494   7.245   7.389
14926TIP3   OH244718   2.613   5.936   7.569
14926TIP3    H144719   2.612   6.028   7.603
14926TIP3    H244720   2.709   5.916   7.576
14927TIP3   OH244721   3.862   6.429   8.467
14927TIP3    H144722   3.765   6.426   8.455
14927TIP3    H244723   3.893   6.404   8.379
14928TIP3   OH244724   3.512   6.633   7.862
14928TIP3    H144725   3.446   6.562   7.860
14928TIP3    H244726   3.592   6.585   7.895
14929TIP3   OH244727   2.231   6.855   7.323
14929TIP3    H144728   2.296   6.927   7.332
14929TIP3    H244729   2.278   6.802   7.255
14930TIP3   OH244730   2.175   6.129   7.458
14930TIP3    H144731   2.173   6.227   7.452
14930TIP3    H244732   2.096   6.104   7.410
14931TIP3   OH244733   3.489   7.559   7.794
14931TIP3    H144734   3.441   7.624   7.738
14931TIP3    H244735   3.580   7.593   7.781
14932TIP3   OH244736   2.561   5.858   8.327
14932TIP3    H144737   2.532   5.819   8.241
14932TIP3    H244738   2.571   5.778   8.383
14933TIP3   OH244739   2.094   7.049   7.718
14933TIP3    H144740   2.045   7.109   7.777
14933TIP3    H244741   2.104   7.105   7.640
14934TIP3   OH244742   2.724   7.150   6.956
14934TIP3    H144743   2.666   7.078   6.992
14934TIP3    H244744   2.797   7.097   6.920
14935TIP3   OH244745   3.159   7.193   6.865
14935TIP3    H144746   3.205   7.128   6.921
14935TIP3    H244747   3.212   7.193   6.783
14936TIP3   OH244748   2.365   6.668   7.173
14936TIP3    H144749   2.419   6.634   7.246
14936TIP3    H244750   2.433   6.673   7.102
14937TIP3   OH244751   2.879   6.867   6.983
14937TIP3    H144752   2.875   6.877   7.080
14937TIP3    H244753   2.878   6.769   6.976
14938TIP3   OH244754   3.469   7.102   8.347
14938TIP3    H144755   3.554   7.140   8.317
14938TIP3    H244756   3.424   7.181   8.381
14939TIP3   OH244757   2.579   6.569   7.401
14939TIP3    H144758   2.547   6.526   7.481
14939TIP3    H244759   2.612   6.493   7.348
14940TIP3   OH244760   2.832   6.637   8.618
14940TIP3    H144761   2.847   6.721   8.661
14940TIP3    H244762   2.885   6.652   8.536
14941TIP3   OH244763   2.673   6.362   7.238
14941TIP3    H144764   2.647   6.364   7.144
14941TIP3    H244765   2.770   6.366   7.231
14942TIP3   OH244766   3.503   6.696   6.906
14942TIP3    H144767   3.486   6.647   6.823
14942TIP3    H244768   3.470   6.785   6.879
14943TIP3   OH244769   2.973   6.418   8.743
14943TIP3    H144770   2.972   6.336   8.690
14943TIP3    H244771   2.922   6.480   8.688
14944TIP3   OH244772   2.973   6.208   8.558
14944TIP3    H144773   3.000   6.255   8.477
14944TIP3    H244774   2.881   6.180   8.535
14945TIP3   OH244775   2.995   6.723   8.418
14945TIP3    H144776   3.082   6.738   8.378
14945TIP3    H244777   2.949   6.806   8.394
14946TIP3   OH244778   3.594   6.686   8.822
14946TIP3    H144779   3.665   6.621   8.814
14946TIP3    H244780   3.629   6.758   8.766
14947TIP3   OH244781   3.615   6.934   8.526
14947TIP3    H144782   3.562   7.009   8.493
14947TIP3    H244783   3.705   6.969   8.509
14948TIP3   OH244784   3.103   5.962   8.563
14948TIP3    H144785   3.055   6.048   8.564
14948TIP3    H244786   3.029   5.899   8.580
14949TIP3   OH244787   3.230   6.467   8.833
14949TIP3    H144788   3.212   6.503   8.921
14949TIP3    H244789   3.138   6.445   8.805
14950TIP3   OH244790   3.466   6.355   8.698
14950TIP3    H144791   3.389   6.394   8.746
14950TIP3    H244792   3.537   6.382   8.761
14951TIP3   OH244793   3.675   6.375   8.881
14951TIP3    H144794   3.709   6.283   8.870
14951TIP3    H244795   3.674   6.380   8.978
14952TIP3   OH244796   3.258   6.024   8.788
14952TIP3    H144797   3.282   5.931   8.804
14952TIP3    H244798   3.178   6.013   8.733
14953TIP3   OH244799   2.484   7.432   7.141
14953TIP3    H144800   2.579   7.427   7.118
14953TIP3    H244801   2.450   7.479   7.063
14954TIP3   OH244802   1.966   6.805   7.360
14954TIP3    H144803   2.061   6.827   7.344
14954TIP3    H244804   1.961   6.716   7.318
14955TIP3   OH244805   3.730   7.684   7.759
14955TIP3    H144806   3.766   7.695   7.849
14955TIP3    H244807   3.805   7.710   7.703
14956TIP3   OH244808   3.791   7.654   8.030
14956TIP3    H144809   3.737   7.573   8.015
14956TIP3    H244810   3.842   7.625   8.108
14957TIP3   OH244811   3.808   7.138   7.865
14957TIP3    H144812   3.864   7.074   7.818
14957TIP3    H244813   3.808   7.214   7.803
14958TIP3   OH244814   3.651   7.412   8.029
14958TIP3    H144815   3.569   7.450   8.067
14958TIP3    H244816   3.614   7.359   7.956
14959TIP3   OH244817   3.559   6.339   7.041
14959TIP3    H144818   3.529   6.363   6.953
14959TIP3    H244819   3.540   6.242   7.039
14960TIP3   OH244820   2.228   6.622   8.331
14960TIP3    H144821   2.198   6.644   8.241
14960TIP3    H244822   2.305   6.681   8.340
14961TIP3   OH244823   3.855   7.023   8.427
14961TIP3    H144824   3.930   6.959   8.432
14961TIP3    H244825   3.899   7.102   8.394
14962TIP3   OH244826   4.046   6.836   8.461
14962TIP3    H144827   3.977   6.790   8.513
14962TIP3    H244828   4.120   6.772   8.470
14963TIP3   OH244829   3.507   6.076   7.041
14963TIP3    H144830   3.589   6.037   7.078
14963TIP3    H244831   3.442   6.005   7.049
14964TIP3   OH244832   3.570   6.326   7.456
14964TIP3    H144833   3.592   6.238   7.496
14964TIP3    H244834   3.648   6.331   7.399
14965TIP3   OH244835   3.732   6.500   7.973
14965TIP3    H144836   3.818   6.524   7.932
14965TIP3    H244837   3.747   6.536   8.063
14966TIP3   OH244838   3.799   6.639   8.208
14966TIP3    H144839   3.720   6.676   8.252
14966TIP3    H244840   3.834   6.718   8.161
14967TIP3   OH244841   4.237   6.206   8.767
14967TIP3    H144842   4.308   6.154   8.725
14967TIP3    H244843   4.227   6.282   8.706
14968TIP3   OH244844   3.661   6.086   7.532
14968TIP3    H144845   3.720   6.059   7.606
14968TIP3    H244846   3.624   5.999   7.506
14969TIP3   OH244847   2.377   6.063   8.347
14969TIP3    H144848   2.436   5.985   8.346
14969TIP3    H244849   2.441   6.135   8.332
14970TIP3   OH244850   2.191   6.352   8.413
14970TIP3    H144851   2.235   6.320   8.332
14970TIP3    H244852   2.203   6.448   8.399
14971TIP3   OH244853   4.128   6.376   8.572
14971TIP3    H144854   4.042   6.411   8.603
14971TIP3    H244855   4.098   6.303   8.516
14972TIP3   OH244856   3.763   6.012   7.132
14972TIP3    H144857   3.797   5.932   7.086
14972TIP3    H244858   3.837   6.075   7.127
14973TIP3   OH244859   2.164   5.846   7.918
14973TIP3    H144860   2.069   5.833   7.934
14973TIP3    H244861   2.164   5.898   7.835
14974TIP3   OH244862   3.331   7.533   7.418
14974TIP3    H144863   3.376   7.523   7.331
14974TIP3    H244864   3.380   7.607   7.457
14975TIP3   OH244865   4.023   6.133   8.445
14975TIP3    H144866   3.934   6.127   8.406
14975TIP3    H244867   4.055   6.040   8.434
14976TIP3   OH244868   3.229   6.050   8.074
14976TIP3    H144869   3.183   5.976   8.118
14976TIP3    H244870   3.295   6.004   8.020
14977TIP3   OH244871   3.750   5.942   7.979
14977TIP3    H144872   3.789   5.981   7.898
14977TIP3    H244873   3.655   5.942   7.958
14978TIP3   OH244874   3.845   6.035   7.738
14978TIP3    H144875   3.914   5.978   7.695
14978TIP3    H244876   3.881   6.124   7.718
14979TIP3   OH244877   2.475   5.758   8.083
14979TIP3    H144878   2.383   5.726   8.082
14979TIP3    H244879   2.523   5.672   8.078
14980TIP3   OH244880   2.267   5.625   7.730
14980TIP3    H144881   2.293   5.681   7.655
14980TIP3    H244882   2.232   5.690   7.793
14981TIP3   OH244883   2.916   5.791   7.961
14981TIP3    H144884   2.977   5.836   7.900
14981TIP3    H244885   2.941   5.829   8.046
14982TIP3   OH244886   3.466   5.937   7.943
14982TIP3    H144887   3.468   5.898   7.854
14982TIP3    H244888   3.452   5.857   7.999
14983TIP3   OH244889   3.484   5.859   7.513
14983TIP3    H144890   3.392   5.889   7.518
14983TIP3    H244891   3.477   5.772   7.558
14984TIP3   OH244892   1.967   7.218   7.523
14984TIP3    H144893   1.902   7.169   7.470
14984TIP3    H244894   1.981   7.294   7.463
14985TIP3   OH244895   2.377   5.784   7.494
14985TIP3    H144896   2.425   5.722   7.435
14985TIP3    H244897   2.451   5.838   7.529
14986TIP3   OH244898   2.890   5.962   7.591
14986TIP3    H144899   2.949   5.910   7.648
14986TIP3    H244900   2.917   6.053   7.617
14987TIP3   OH244901   2.751   7.389   7.088
14987TIP3    H144902   2.839   7.410   7.052
14987TIP3    H244903   2.728   7.313   7.030
14988TIP3   OH244904   3.469   7.507   7.183
14988TIP3    H144905   3.464   7.409   7.170
14988TIP3    H244906   3.424   7.538   7.102
14989TIP3   OH244907   2.054   7.222   7.144
14989TIP3    H144908   2.053   7.260   7.233
14989TIP3    H244909   2.145   7.184   7.137
14990TIP3   OH244910   3.767   6.117   8.869
14990TIP3    H144911   3.786   6.062   8.948
14990TIP3    H244912   3.851   6.105   8.818
14991TIP3   OH244913   4.963   7.019   7.138
14991TIP3    H144914   4.936   7.112   7.121
14991TIP3    H244915   4.884   6.972   7.106
14992TIP3   OH244916   4.947   7.017   7.518
14992TIP3    H144917   4.982   6.993   7.606
14992TIP3    H244918   4.912   6.932   7.487
14993TIP3   OH244919   4.259   6.917   7.883
14993TIP3    H144920   4.289   6.849   7.947
14993TIP3    H244921   4.337   6.974   7.881
14994TIP3   OH244922   5.197   7.325   7.200
14994TIP3    H144923   5.208   7.251   7.261
14994TIP3    H244924   5.244   7.395   7.249
14995TIP3   OH244925   4.226   7.323   7.607
14995TIP3    H144926   4.220   7.226   7.610
14995TIP3    H244927   4.322   7.335   7.613
14996TIP3   OH244928   3.938   6.543   7.383
14996TIP3    H144929   3.938   6.614   7.449
14996TIP3    H244930   3.871   6.483   7.416
14997TIP3   OH244931   3.999   6.801   7.551
14997TIP3    H144932   4.054   6.736   7.599
14997TIP3    H244933   4.064   6.849   7.499
14998TIP3   OH244934   4.842   7.782   7.213
14998TIP3    H144935   4.896   7.712   7.172
14998TIP3    H244936   4.864   7.773   7.307
14999TIP3   OH244937   4.762   7.247   7.564
14999TIP3    H144938   4.796   7.166   7.522
14999TIP3    H244939   4.847   7.290   7.585
15000TIP3   OH244940   5.778   6.573   7.568
15000TIP3    H144941   5.749   6.662   7.594
15000TIP3    H244942   5.797   6.587   7.473
15001TIP3   OH244943   5.173   6.753   7.599
15001TIP3    H144944   5.211   6.666   7.623
15001TIP3    H244945   5.141   6.734   7.509
15002TIP3   OH244946   4.507   6.407   7.566
15002TIP3    H144947   4.490   6.479   7.502
15002TIP3    H244948   4.462   6.333   7.520
15003TIP3   OH244949   5.203   6.499   7.188
15003TIP3    H144950   5.274   6.479   7.253
15003TIP3    H244951   5.257   6.534   7.115
15004TIP3   OH244952   4.145   6.607   7.669
15004TIP3    H144953   4.226   6.591   7.722
15004TIP3    H244954   4.166   6.550   7.592
15005TIP3   OH244955   4.586   6.807   7.463
15005TIP3    H144956   4.680   6.782   7.477
15005TIP3    H244957   4.547   6.722   7.432
15006TIP3   OH244958   4.506   6.390   7.998
15006TIP3    H144959   4.446   6.428   7.931
15006TIP3    H244960   4.456   6.408   8.080
15007TIP3   OH244961   4.857   7.243   7.007
15007TIP3    H144962   4.810   7.219   6.926
15007TIP3    H244963   4.813   7.328   7.030
15008TIP3   OH244964   4.613   7.165   7.795
15008TIP3    H144965   4.545   7.227   7.832
15008TIP3    H244966   4.655   7.221   7.727
15009TIP3   OH244967   5.414   6.490   7.356
15009TIP3    H144968   5.403   6.451   7.443
15009TIP3    H244969   5.463   6.572   7.378
15010TIP3   OH244970   4.375   6.506   7.784
15010TIP3    H144971   4.438   6.577   7.809
15010TIP3    H244972   4.425   6.465   7.709
15011TIP3   OH244973   4.423   7.351   7.872
15011TIP3    H144974   4.402   7.442   7.843
15011TIP3    H244975   4.349   7.337   7.935
15012TIP3   OH244976   3.850   7.047   7.123
15012TIP3    H144977   3.793   7.076   7.049
15012TIP3    H244978   3.869   7.131   7.169
15013TIP3   OH244979   5.259   7.568   7.345
15013TIP3    H144980   5.183   7.552   7.404
15013TIP3    H244981   5.247   7.660   7.321
15014TIP3   OH244982   5.557   6.447   7.714
15014TIP3    H144983   5.477   6.501   7.704
15014TIP3    H244984   5.620   6.492   7.656
15015TIP3   OH244985   4.862   6.111   7.709
15015TIP3    H144986   4.854   6.016   7.730
15015TIP3    H244987   4.785   6.147   7.758
15016TIP3   OH244988   4.982   7.610   7.051
15016TIP3    H144989   5.030   7.527   7.029
15016TIP3    H244990   5.039   7.673   7.001
15017TIP3   OH244991   5.123   7.397   6.947
15017TIP3    H144992   5.080   7.319   6.911
15017TIP3    H244993   5.153   7.363   7.035
15018TIP3   OH244994   4.792   6.872   6.967
15018TIP3    H144995   4.713   6.924   6.943
15018TIP3    H244996   4.839   6.867   6.882
15019TIP3   OH244997   4.751   6.655   6.687
15019TIP3    H144998   4.819   6.707   6.734
15019TIP3    H244999   4.808   6.592   6.639
15020TIP3   OH245000   5.740   7.054   7.520
15020TIP3    H145001   5.673   7.110   7.567
15020TIP3    H245002   5.748   7.103   7.438
15021TIP3   OH245003   5.142   6.955   6.940
15021TIP3    H145004   5.086   6.979   7.018
15021TIP3    H245005   5.224   6.929   6.986
15022TIP3   OH245006   5.350   6.961   7.849
15022TIP3    H145007   5.430   7.014   7.833
15022TIP3    H245008   5.297   6.977   7.769
15023TIP3   OH245009   4.374   6.955   7.358
15023TIP3    H145010   4.332   6.897   7.291
15023TIP3    H245011   4.451   6.900   7.387
15024TIP3   OH245012   4.505   7.367   7.504
15024TIP3    H145013   4.481   7.320   7.424
15024TIP3    H245014   4.594   7.331   7.524
15025TIP3   OH245015   4.506   6.925   7.709
15025TIP3    H145016   4.544   6.902   7.622
15025TIP3    H245017   4.553   7.008   7.732
15026TIP3   OH245018   5.036   7.572   7.519
15026TIP3    H145019   4.996   7.600   7.602
15026TIP3    H245020   5.036   7.475   7.535
15027TIP3   OH245021   4.593   7.436   8.088
15027TIP3    H145022   4.550   7.523   8.101
15027TIP3    H245023   4.548   7.405   8.008
15028TIP3   OH245024   4.981   6.814   6.766
15028TIP3    H145025   5.040   6.873   6.818
15028TIP3    H245026   5.008   6.837   6.674
15029TIP3   OH245027   4.399   7.034   8.130
15029TIP3    H145028   4.406   7.122   8.173
15029TIP3    H245029   4.304   7.016   8.145
15030TIP3   OH245030   4.724   7.494   7.039
15030TIP3    H145031   4.800   7.547   7.066
15030TIP3    H245032   4.661   7.560   7.008
15031TIP3   OH245033   4.432   7.656   8.116
15031TIP3    H145034   4.389   7.652   8.029
15031TIP3    H245035   4.358   7.641   8.178
15032TIP3   OH245036   5.497   6.054   6.814
15032TIP3    H145037   5.415   6.072   6.865
15032TIP3    H245038   5.509   6.138   6.766
15033TIP3   OH245039   4.239   6.796   7.163
15033TIP3    H145040   4.173   6.839   7.105
15033TIP3    H245041   4.202   6.708   7.173
15034TIP3   OH245042   5.295   7.421   6.361
15034TIP3    H145043   5.304   7.518   6.347
15034TIP3    H245044   5.387   7.391   6.349
15035TIP3   OH245045   4.022   7.176   8.067
15035TIP3    H145046   3.961   7.150   7.996
15035TIP3    H245047   4.062   7.091   8.094
15036TIP3   OH245048   3.874   7.370   7.704
15036TIP3    H145049   3.969   7.362   7.690
15036TIP3    H245050   3.868   7.449   7.759
15037TIP3   OH245051   4.603   7.743   6.838
15037TIP3    H145052   4.547   7.725   6.762
15037TIP3    H245053   4.570   7.828   6.872
15038TIP3   OH245054   4.042   7.589   7.228
15038TIP3    H145055   4.092   7.579   7.312
15038TIP3    H245056   3.984   7.511   7.233
15039TIP3   OH245057   4.802   7.651   6.486
15039TIP3    H145058   4.857   7.585   6.438
15039TIP3    H245059   4.843   7.649   6.575
15040TIP3   OH245060   4.854   7.688   6.754
15040TIP3    H145061   4.768   7.695   6.801
15040TIP3    H245062   4.912   7.653   6.824
15041TIP3   OH245063   4.222   7.364   8.053
15041TIP3    H145064   4.275   7.350   8.134
15041TIP3    H245065   4.151   7.297   8.065
15042TIP3   OH245066   4.624   6.185   7.839
15042TIP3    H145067   4.534   6.155   7.814
15042TIP3    H245068   4.600   6.268   7.886
15043TIP3   OH245069   5.159   6.302   8.036
15043TIP3    H145070   5.229   6.270   8.097
15043TIP3    H245071   5.077   6.279   8.084
15044TIP3   OH245072   5.381   6.716   7.957
15044TIP3    H145073   5.346   6.712   8.049
15044TIP3    H245074   5.356   6.807   7.930
15045TIP3   OH245075   5.058   6.864   6.512
15045TIP3    H145076   5.023   6.835   6.426
15045TIP3    H245077   5.139   6.911   6.484
15046TIP3   OH245078   4.770   6.236   6.813
15046TIP3    H145079   4.737   6.231   6.905
15046TIP3    H245080   4.732   6.153   6.778
15047TIP3   OH245081   4.553   6.702   7.859
15047TIP3    H145082   4.508   6.727   7.942
15047TIP3    H245083   4.538   6.783   7.805
15048TIP3   OH245084   4.440   6.587   7.374
15048TIP3    H145085   4.347   6.561   7.391
15048TIP3    H245086   4.454   6.547   7.285
15049TIP3   OH245087   4.931   6.673   7.101
15049TIP3    H145088   4.878   6.745   7.059
15049TIP3    H245089   4.985   6.642   7.025
15050TIP3   OH245090   5.101   6.951   8.179
15050TIP3    H145091   5.079   6.882   8.245
15050TIP3    H245092   5.181   6.990   8.218
15051TIP3   OH245093   5.088   6.703   7.341
15051TIP3    H145094   5.028   6.731   7.269
15051TIP3    H245095   5.121   6.620   7.300
15052TIP3   OH245096   4.370   6.730   8.070
15052TIP3    H145097   4.408   6.794   8.132
15052TIP3    H245098   4.367   6.649   8.123
15053TIP3   OH245099   4.425   6.208   6.778
15053TIP3    H145100   4.420   6.204   6.875
15053TIP3    H245101   4.343   6.254   6.755
15054TIP3   OH245102   3.964   6.267   7.649
15054TIP3    H145103   4.046   6.284   7.700
15054TIP3    H245104   3.994   6.219   7.570
15055TIP3   OH245105   3.944   6.230   7.172
15055TIP3    H145106   3.984   6.259   7.087
15055TIP3    H245107   3.916   6.316   7.205
15056TIP3   OH245108   5.068   6.947   7.755
15056TIP3    H145109   5.114   6.878   7.702
15056TIP3    H245110   5.057   6.898   7.839
15057TIP3   OH245111   4.765   6.415   7.436
15057TIP3    H145112   4.684   6.409   7.491
15057TIP3    H245113   4.835   6.407   7.503
15058TIP3   OH245114   4.203   6.460   7.446
15058TIP3    H145115   4.114   6.464   7.406
15058TIP3    H245116   4.234   6.370   7.425
15059TIP3   OH245117   4.471   6.464   7.131
15059TIP3    H145118   4.567   6.475   7.113
15059TIP3    H245119   4.429   6.485   7.045
15060TIP3   OH245120   5.251   6.490   7.633
15060TIP3    H145121   5.220   6.497   7.726
15060TIP3    H245122   5.191   6.422   7.598
15061TIP3   OH245123   4.307   6.498   6.909
15061TIP3    H145124   4.240   6.450   6.857
15061TIP3    H245125   4.362   6.534   6.836
15062TIP3   OH245126   4.391   7.276   8.258
15062TIP3    H145127   4.467   7.328   8.288
15062TIP3    H245128   4.330   7.281   8.336
15063TIP3   OH245129   4.850   6.737   7.532
15063TIP3    H145130   4.922   6.696   7.483
15063TIP3    H245131   4.859   6.697   7.620
15064TIP3   OH245132   4.372   6.228   7.408
15064TIP3    H145133   4.340   6.148   7.455
15064TIP3    H245134   4.429   6.189   7.340
15065TIP3   OH245135   4.827   6.633   7.823
15065TIP3    H145136   4.738   6.672   7.837
15065TIP3    H245137   4.886   6.692   7.873
15066TIP3   OH245138   4.562   7.027   6.916
15066TIP3    H145139   4.491   6.960   6.907
15066TIP3    H245140   4.545   7.059   7.008
15067TIP3   OH245141   5.411   7.303   7.404
15067TIP3    H145142   5.502   7.306   7.434
15067TIP3    H245143   5.372   7.231   7.457
15068TIP3   OH245144   5.022   6.338   6.778
15068TIP3    H145145   4.925   6.320   6.786
15068TIP3    H245146   5.030   6.432   6.802
15069TIP3   OH245147   4.969   7.320   7.893
15069TIP3    H145148   4.995   7.275   7.974
15069TIP3    H245149   4.919   7.397   7.930
15070TIP3   OH245150   5.092   6.585   6.882
15070TIP3    H145151   5.188   6.590   6.899
15070TIP3    H245152   5.075   6.665   6.829
15071TIP3   OH245153   4.250   7.041   7.594
15071TIP3    H145154   4.293   7.016   7.509
15071TIP3    H245155   4.300   6.987   7.657
15072TIP3   OH245156   4.708   7.174   6.737
15072TIP3    H145157   4.661   7.260   6.745
15072TIP3    H245158   4.655   7.118   6.798
15073TIP3   OH245159   4.134   6.969   8.207
15073TIP3    H145160   4.158   6.959   8.301
15073TIP3    H245161   4.066   6.900   8.196
15074TIP3   OH245162   4.854   7.075   8.214
15074TIP3    H145163   4.806   7.008   8.164
15074TIP3    H245164   4.945   7.042   8.209
15075TIP3   OH245165   5.537   6.673   6.718
15075TIP3    H145166   5.473   6.629   6.657
15075TIP3    H245167   5.532   6.762   6.678
15076TIP3   OH245168   5.232   7.486   6.627
15076TIP3    H145169   5.206   7.415   6.688
15076TIP3    H245170   5.245   7.438   6.542
15077TIP3   OH245171   5.212   7.106   7.488
15077TIP3    H145172   5.119   7.078   7.482
15077TIP3    H245173   5.256   7.034   7.439
15078TIP3   OH245174   4.356   7.349   7.216
15078TIP3    H145175   4.357   7.432   7.164
15078TIP3    H245176   4.261   7.335   7.227
15079TIP3   OH245177   3.907   6.660   6.925
15079TIP3    H145178   3.971   6.732   6.946
15079TIP3    H245179   3.823   6.707   6.936
15080TIP3   OH245180   4.497   7.117   7.162
15080TIP3    H145181   4.461   7.205   7.181
15080TIP3    H245182   4.463   7.065   7.237
15081TIP3   OH245183   4.618   7.690   7.683
15081TIP3    H145184   4.654   7.767   7.633
15081TIP3    H245185   4.697   7.656   7.726
15082TIP3   OH245186   4.275   7.590   7.068
15082TIP3    H145187   4.190   7.598   7.116
15082TIP3    H245188   4.308   7.683   7.073
15083TIP3   OH245189   5.029   7.323   7.631
15083TIP3    H145190   5.007   7.310   7.727
15083TIP3    H245191   5.093   7.251   7.616
15084TIP3   OH245192   4.987   7.222   6.529
15084TIP3    H145193   5.040   7.196   6.607
15084TIP3    H245194   4.899   7.193   6.558
15085TIP3   OH245195   5.329   7.696   6.349
15085TIP3    H145196   5.362   7.765   6.289
15085TIP3    H245197   5.247   7.741   6.379
15086TIP3   OH245198   4.351   6.472   8.217
15086TIP3    H145199   4.256   6.476   8.235
15086TIP3    H245200   4.381   6.410   8.286
15087TIP3   OH245201   5.148   7.156   6.745
15087TIP3    H145202   5.136   7.090   6.817
15087TIP3    H245203   5.245   7.152   6.733
15088TIP3   OH245204   4.068   7.564   7.852
15088TIP3    H145205   4.109   7.478   7.873
15088TIP3    H245206   4.109   7.618   7.920
15089TIP3   OH245207   4.354   7.205   6.528
15089TIP3    H145208   4.370   7.113   6.497
15089TIP3    H245209   4.336   7.189   6.623
15090TIP3   OH245210   4.300   7.207   6.802
15090TIP3    H145211   4.373   7.178   6.859
15090TIP3    H245212   4.307   7.305   6.809
15091TIP3   OH245213   4.039   6.897   7.000
15091TIP3    H145214   3.974   6.944   7.058
15091TIP3    H245215   4.055   6.967   6.934
15092TIP3   OH245216   5.178   6.536   7.893
15092TIP3    H145217   5.261   6.578   7.924
15092TIP3    H245218   5.172   6.456   7.950
15093TIP3   OH245219   5.064   6.290   7.060
15093TIP3    H145220   5.051   6.313   6.966
15093TIP3    H245221   5.102   6.373   7.096
15094TIP3   OH245222   4.565   7.402   6.751
15094TIP3    H145223   4.479   7.432   6.787
15094TIP3    H245224   4.582   7.468   6.683
15095TIP3   OH245225   4.753   6.469   7.163
15095TIP3    H145226   4.819   6.540   7.146
15095TIP3    H245227   4.759   6.460   7.261
15096TIP3   OH245228   5.022   6.786   7.968
15096TIP3    H145229   5.045   6.839   8.047
15096TIP3    H245230   5.078   6.706   7.979
15097TIP3   OH245231   4.899   6.198   7.265
15097TIP3    H145232   4.901   6.271   7.329
15097TIP3    H245233   4.959   6.233   7.196
15098TIP3   OH245234   4.310   7.481   6.816
15098TIP3    H145235   4.276   7.550   6.755
15098TIP3    H245236   4.293   7.522   6.903
15099TIP3   OH245237   4.410   6.194   7.054
15099TIP3    H145238   4.411   6.284   7.093
15099TIP3    H245239   4.505   6.171   7.063
15100TIP3   OH245240   5.627   6.721   7.804
15100TIP3    H145241   5.544   6.727   7.856
15100TIP3    H245242   5.663   6.642   7.849
15101TIP3   OH245243   5.315   6.880   7.336
15101TIP3    H145244   5.238   6.822   7.351
15101TIP3    H245245   5.386   6.831   7.383
15102TIP3   OH245246   4.026   7.112   6.808
15102TIP3    H145247   4.092   7.183   6.820
15102TIP3    H245248   4.074   7.058   6.741
15103TIP3   OH245249   3.960   6.388   6.954
15103TIP3    H145250   3.961   6.485   6.940
15103TIP3    H245251   3.908   6.356   6.880
15104TIP3   OH245252   4.356   6.107   7.818
15104TIP3    H145253   4.328   6.071   7.731
15104TIP3    H245254   4.349   6.028   7.876
15105TIP3   OH245255   3.901   7.327   7.201
15105TIP3    H145256   3.823   7.358   7.249
15105TIP3    H245257   3.881   7.361   7.111
15106TIP3   OH245258   4.520   7.408   6.447
15106TIP3    H145259   4.463   7.335   6.481
15106TIP3    H245260   4.595   7.355   6.412
15107TIP3   OH245261   4.951   7.452   6.354
15107TIP3    H145262   4.996   7.388   6.412
15107TIP3    H245263   5.007   7.452   6.274
15108TIP3   OH245264   4.202   7.267   8.446
15108TIP3    H145265   4.213   7.173   8.470
15108TIP3    H245266   4.106   7.276   8.454
15109TIP3   OH245267   4.163   6.924   6.662
15109TIP3    H145268   4.219   6.890   6.734
15109TIP3    H245269   4.229   6.928   6.590
15110TIP3   OH245270   4.808   7.346   8.243
15110TIP3    H145271   4.739   7.360   8.175
15110TIP3    H245272   4.820   7.248   8.239
15111TIP3   OH245273   4.667   7.122   6.468
15111TIP3    H145274   4.674   7.133   6.565
15111TIP3    H245275   4.671   7.024   6.461
15112TIP3   OH245276   4.307   6.998   8.454
15112TIP3    H145277   4.388   6.951   8.430
15112TIP3    H245278   4.310   6.995   8.550
15113TIP3   OH245279   4.371   6.826   6.884
15113TIP3    H145280   4.347   6.783   6.968
15113TIP3    H245281   4.408   6.752   6.832
15114TIP3   OH245282   4.637   6.882   8.107
15114TIP3    H145283   4.565   6.948   8.115
15114TIP3    H245284   4.690   6.920   8.033
15115TIP3   OH245285   4.470   6.620   6.726
15115TIP3    H145286   4.446   6.621   6.631
15115TIP3    H245287   4.568   6.622   6.720
15116TIP3   OH245288   5.296   6.952   6.386
15116TIP3    H145289   5.274   6.905   6.303
15116TIP3    H245290   5.261   7.041   6.362
15117TIP3   OH245291   4.762   6.676   8.246
15117TIP3    H145292   4.765   6.598   8.187
15117TIP3    H245293   4.718   6.742   8.188
15118TIP3   OH245294   4.764   6.467   8.047
15118TIP3    H145295   4.794   6.506   7.963
15118TIP3    H245296   4.671   6.443   8.027
15119TIP3   OH245297   4.792   6.996   7.916
15119TIP3    H145298   4.876   7.003   7.868
15119TIP3    H245299   4.739   7.067   7.875
15120TIP3   OH245300   4.610   6.813   8.454
15120TIP3    H145301   4.565   6.730   8.475
15120TIP3    H245302   4.672   6.783   8.385
15121TIP3   OH245303   4.898   6.229   8.111
15121TIP3    H145304   4.847   6.311   8.090
15121TIP3    H245305   4.830   6.160   8.101
15122TIP3   OH245306   5.025   6.733   8.321
15122TIP3    H145307   5.031   6.739   8.418
15122TIP3    H245308   4.931   6.709   8.307
15123TIP3   OH245309   5.270   6.682   8.211
15123TIP3    H145310   5.181   6.699   8.248
15123TIP3    H245311   5.305   6.621   8.276
15124TIP3   OH245312   4.479   6.575   8.516
15124TIP3    H145313   4.486   6.487   8.474
15124TIP3    H245314   4.516   6.556   8.604
15125TIP3   OH245315   4.982   6.247   8.374
15125TIP3    H145316   5.057   6.183   8.374
15125TIP3    H245317   4.951   6.235   8.283
15126TIP3   OH245318   5.047   6.471   8.522
15126TIP3    H145319   5.049   6.384   8.478
15126TIP3    H245320   4.956   6.496   8.506
15127TIP3   OH245321   4.278   7.686   6.630
15127TIP3    H145322   4.372   7.682   6.604
15127TIP3    H245323   4.240   7.727   6.551
15128TIP3   OH245324   3.756   7.063   6.844
15128TIP3    H145325   3.852   7.086   6.833
15128TIP3    H245326   3.753   6.974   6.804
15129TIP3   OH245327   3.672   7.679   7.260
15129TIP3    H145328   3.605   7.617   7.222
15129TIP3    H245329   3.716   7.621   7.326
15130TIP3   OH245330   3.808   7.531   7.446
15130TIP3    H145331   3.798   7.454   7.504
15130TIP3    H245332   3.860   7.590   7.503
15131TIP3   OH245333   5.427   7.140   6.721
15131TIP3    H145334   5.496   7.203   6.693
15131TIP3    H245335   5.469   7.099   6.800
15132TIP3   OH245336   5.554   7.005   6.923
15132TIP3    H145337   5.485   6.962   6.979
15132TIP3    H245338   5.609   7.050   6.989
15133TIP3   OH245339   5.495   6.915   6.570
15133TIP3    H145340   5.424   6.915   6.502
15133TIP3    H245341   5.464   6.990   6.625
15134TIP3   OH245342   5.366   6.588   6.525
15134TIP3    H145343   5.323   6.624   6.447
15134TIP3    H245344   5.340   6.493   6.518
15135TIP3   OH245345   5.373   6.861   7.070
15135TIP3    H145346   5.377   6.764   7.064
15135TIP3    H245347   5.357   6.874   7.167
15136TIP3   OH245348   3.995   6.937   7.814
15136TIP3    H145349   3.995   6.908   7.721
15136TIP3    H245350   4.092   6.938   7.833
15137TIP3   OH245351   5.308   6.323   6.515
15137TIP3    H145352   5.382   6.289   6.570
15137TIP3    H245353   5.234   6.263   6.536
15138TIP3   OH245354   5.366   6.578   6.967
15138TIP3    H145355   5.405   6.488   6.983
15138TIP3    H245356   5.425   6.608   6.896
15139TIP3   OH245357   5.532   6.720   7.429
15139TIP3    H145358   5.622   6.747   7.400
15139TIP3    H245359   5.519   6.781   7.506
15140TIP3   OH245360   5.504   6.902   7.617
15140TIP3    H145361   5.492   6.866   7.706
15140TIP3    H245362   5.577   6.964   7.629
15141TIP3   OH245363   4.209   6.619   8.476
15141TIP3    H145364   4.307   6.619   8.485
15141TIP3    H245365   4.187   6.538   8.526
15142TIP3   OH245366   5.475   6.327   7.002
15142TIP3    H145367   5.522   6.313   7.088
15142TIP3    H245368   5.414   6.251   7.002
15143TIP3   OH245369   4.173   6.314   7.826
15143TIP3    H145370   4.234   6.238   7.834
15143TIP3    H245371   4.237   6.387   7.818
15144TIP3   OH245372   3.977   6.589   7.895
15144TIP3    H145373   4.030   6.581   7.813
15144TIP3    H245374   4.009   6.673   7.930
15145TIP3   OH245375   5.559   6.263   6.636
15145TIP3    H145376   5.595   6.190   6.583
15145TIP3    H245377   5.626   6.333   6.625
15146TIP3   OH245378   3.954   6.116   7.416
15146TIP3    H145379   3.868   6.072   7.418
15146TIP3    H245380   3.958   6.149   7.323
15147TIP3   OH245381   5.104   7.787   6.887
15147TIP3    H145382   5.169   7.778   6.814
15147TIP3    H245383   5.149   7.850   6.948
15148TIP3   OH245384   4.182   6.175   8.213
15148TIP3    H145385   4.132   6.169   8.296
15148TIP3    H245386   4.115   6.208   8.151
15149TIP3   OH245387   4.227   7.586   8.289
15149TIP3    H145388   4.133   7.577   8.265
15149TIP3    H245389   4.225   7.588   8.386
15150TIP3   OH245390   4.394   7.622   7.831
15150TIP3    H145391   4.351   7.700   7.790
15150TIP3    H245392   4.481   7.630   7.785
15151TIP3   OH245393   5.822   6.381   7.915
15151TIP3    H145394   5.729   6.396   7.935
15151TIP3    H245395   5.829   6.284   7.921
15152TIP3   OH245396   4.110   7.907   7.838
15152TIP3    H145397   4.024   7.924   7.799
15152TIP3    H245398   4.090   7.920   7.933
15153TIP3   OH245399   4.326   7.845   7.693
15153TIP3    H145400   4.247   7.873   7.745
15153TIP3    H245401   4.308   7.887   7.607
15154TIP3   OH245402   4.719   7.894   7.522
15154TIP3    H145403   4.664   7.903   7.442
15154TIP3    H245404   4.707   7.983   7.560
15155TIP3   OH245405   3.987   7.680   7.611
15155TIP3    H145406   4.019   7.654   7.700
15155TIP3    H245407   4.057   7.639   7.556
15156TIP3   OH245408   4.178   7.554   7.461
15156TIP3    H145409   4.196   7.469   7.508
15156TIP3    H245410   4.269   7.591   7.455
15157TIP3   OH245411   4.444   7.647   7.458
15157TIP3    H145412   4.479   7.556   7.451
15157TIP3    H245413   4.482   7.673   7.544
15158TIP3   OH245414   5.017   6.302   7.544
15158TIP3    H145415   4.977   6.235   7.602
15158TIP3    H245416   5.095   6.255   7.507
15159TIP3   OH245417   5.548   6.179   7.452
15159TIP3    H145418   5.582   6.237   7.380
15159TIP3    H245419   5.454   6.202   7.454
15160TIP3   OH245420   5.643   6.289   7.218
15160TIP3    H145421   5.717   6.238   7.179
15160TIP3    H245422   5.674   6.381   7.204
15161TIP3   OH245423   4.271   6.014   7.569
15161TIP3    H145424   4.179   5.981   7.566
15161TIP3    H245425   4.320   5.929   7.565
15162TIP3   OH245426   4.081   5.877   7.224
15162TIP3    H145427   4.095   5.935   7.147
15162TIP3    H245428   4.021   5.928   7.279
15163TIP3   OH245429   4.712   6.049   7.449
15163TIP3    H145430   4.772   6.097   7.390
15163TIP3    H245431   4.739   6.083   7.536
15164TIP3   OH245432   5.262   6.192   7.434
15164TIP3    H145433   5.261   6.153   7.345
15164TIP3    H245434   5.249   6.112   7.490
15165TIP3   OH245435   5.292   6.113   6.994
15165TIP3    H145436   5.204   6.154   7.004
15165TIP3    H245437   5.278   6.029   7.043
15166TIP3   OH245438   3.775   7.453   6.998
15166TIP3    H145439   3.690   7.420   6.962
15166TIP3    H245440   3.763   7.548   6.980
15167TIP3   OH245441   4.173   6.048   6.975
15167TIP3    H145442   4.220   5.980   6.923
15167TIP3    H245443   4.248   6.097   7.014
15168TIP3   OH245444   4.687   6.218   7.078
15168TIP3    H145445   4.746   6.169   7.137
15168TIP3    H245446   4.712   6.310   7.104
15169TIP3   OH245447   4.544   7.660   6.555
15169TIP3    H145448   4.642   7.653   6.544
15169TIP3    H245449   4.519   7.575   6.512
15170TIP3   OH245450   5.258   7.752   6.661
15170TIP3    H145451   5.250   7.653   6.652
15170TIP3    H245452   5.215   7.781   6.579
15171TIP3   OH245453   4.480   6.298   8.457
15171TIP3    H145454   4.442   6.226   8.511
15171TIP3    H245455   4.575   6.290   8.483
15172TIP3   OH245456   4.735   6.270   8.564
15172TIP3    H145457   4.817   6.264   8.510
15172TIP3    H245458   4.762   6.214   8.639
15173TIP3   OH245459   3.852   7.483   6.634
15173TIP3    H145460   3.848   7.507   6.728
15173TIP3    H245461   3.940   7.440   6.626
15174TIP3   OH245462   5.546   6.350   8.361
15174TIP3    H145463   5.546   6.282   8.430
15174TIP3    H245464   5.637   6.351   8.329
15175TIP3   OH245465   5.736   6.793   6.881
15175TIP3    H145466   5.678   6.871   6.893
15175TIP3    H245467   5.670   6.728   6.851
15176TIP3   OH245468   5.809   7.074   7.029
15176TIP3    H145469   5.847   6.992   7.068
15176TIP3    H245470   5.841   7.069   6.938
15177TIP3   OH245471   6.314   6.661   7.042
15177TIP3    H145472   6.290   6.738   6.986
15177TIP3    H245473   6.260   6.591   6.999
15178TIP3   OH245474   5.936   6.870   7.153
15178TIP3    H145475   6.015   6.839   7.200
15178TIP3    H245476   5.941   6.811   7.075
15179TIP3   OH245477   6.168   6.770   7.250
15179TIP3    H145478   6.236   6.838   7.240
15179TIP3    H245479   6.204   6.701   7.192
15180TIP3   OH245480   5.634   7.304   6.614
15180TIP3    H145481   5.589   7.332   6.533
15180TIP3    H245482   5.664   7.389   6.652
15181TIP3   OH245483   6.675   6.351   7.206
15181TIP3    H145484   6.657   6.257   7.228
15181TIP3    H245485   6.592   6.390   7.239
15182TIP3   OH245486   6.600   7.150   6.454
15182TIP3    H145487   6.512   7.186   6.431
15182TIP3    H245488   6.637   7.128   6.366
15183TIP3   OH245489   6.543   6.903   6.174
15183TIP3    H145490   6.606   6.966   6.213
15183TIP3    H245491   6.605   6.843   6.128
15184TIP3   OH245492   6.176   7.209   6.735
15184TIP3    H145493   6.108   7.154   6.690
15184TIP3    H245494   6.189   7.157   6.816
15185TIP3   OH245495   6.750   7.086   6.240
15185TIP3    H145496   6.841   7.096   6.272
15185TIP3    H245497   6.768   7.097   6.143
15186TIP3   OH245498   7.294   6.315   6.300
15186TIP3    H145499   7.210   6.332   6.346
15186TIP3    H245500   7.305   6.396   6.247
15187TIP3   OH245501   6.012   7.021   6.629
15187TIP3    H145502   5.945   7.069   6.576
15187TIP3    H245503   5.968   6.937   6.646
15188TIP3   OH245504   6.416   6.405   7.291
15188TIP3    H145505   6.319   6.392   7.291
15188TIP3    H245506   6.423   6.502   7.306
15189TIP3   OH245507   6.840   7.104   5.993
15189TIP3    H145508   6.805   7.080   5.905
15189TIP3    H245509   6.924   7.146   5.965
15190TIP3   OH245510   6.564   6.490   6.298
15190TIP3    H145511   6.528   6.487   6.389
15190TIP3    H245512   6.526   6.408   6.262
15191TIP3   OH245513   6.229   6.842   6.857
15191TIP3    H145514   6.137   6.816   6.876
15191TIP3    H245515   6.241   6.803   6.768
15192TIP3   OH245516   6.705   6.915   6.555
15192TIP3    H145517   6.665   7.000   6.524
15192TIP3    H245518   6.770   6.896   6.485
15193TIP3   OH245519   6.222   6.464   6.265
15193TIP3    H145520   6.211   6.460   6.362
15193TIP3    H245521   6.143   6.516   6.240
15194TIP3   OH245522   5.763   6.515   7.129
15194TIP3    H145523   5.839   6.543   7.184
15194TIP3    H245524   5.802   6.472   7.052
15195TIP3   OH245525   5.743   6.493   6.657
15195TIP3    H145526   5.786   6.530   6.577
15195TIP3    H245527   5.678   6.563   6.676
15196TIP3   OH245528   6.569   6.637   6.927
15196TIP3    H145529   6.478   6.630   6.963
15196TIP3    H245530   6.586   6.731   6.948
15197TIP3   OH245531   5.994   6.718   6.930
15197TIP3    H145532   5.900   6.725   6.903
15197TIP3    H245533   6.016   6.625   6.911
15198TIP3   OH245534   6.270   6.718   6.615
15198TIP3    H145535   6.362   6.734   6.587
15198TIP3    H245536   6.218   6.740   6.535
15199TIP3   OH245537   6.108   6.752   6.400
15199TIP3    H145538   6.034   6.707   6.356
15199TIP3    H245539   6.157   6.786   6.323
15200TIP3   OH245540   6.174   6.480   6.897
15200TIP3    H145541   6.134   6.404   6.945
15200TIP3    H245542   6.214   6.437   6.821
15201TIP3   OH245543   6.352   7.286   6.404
15201TIP3    H145544   6.287   7.214   6.386
15201TIP3    H245545   6.333   7.304   6.498
15202TIP3   OH245546   6.817   6.582   6.273
15202TIP3    H145547   6.719   6.569   6.271
15202TIP3    H245548   6.825   6.679   6.285
15203TIP3   OH245549   6.887   6.831   6.358
15203TIP3    H145550   6.979   6.827   6.388
15203TIP3    H245551   6.892   6.901   6.292
15204TIP3   OH245552   6.476   7.449   6.216
15204TIP3    H145553   6.515   7.508   6.281
15204TIP3    H245554   6.433   7.382   6.273
15205TIP3   OH245555   5.718   6.911   6.410
15205TIP3    H145556   5.758   6.998   6.427
15205TIP3    H245557   5.638   6.915   6.468
15206TIP3   OH245558   6.753   7.461   6.003
15206TIP3    H145559   6.813   7.475   6.077
15206TIP3    H245560   6.672   7.431   6.047
15207TIP3   OH245561   6.180   7.501   6.025
15207TIP3    H145562   6.184   7.419   5.971
15207TIP3    H245563   6.140   7.463   6.107
15208TIP3   OH245564   6.101   7.467   6.285
15208TIP3    H145565   6.161   7.431   6.352
15208TIP3    H245566   6.108   7.564   6.300
15209TIP3   OH245567   5.829   7.160   6.486
15209TIP3    H145568   5.765   7.204   6.547
15209TIP3    H245569   5.842   7.231   6.421
15210TIP3   OH245570   6.867   6.568   6.545
15210TIP3    H145571   6.837   6.557   6.452
15210TIP3    H245572   6.900   6.659   6.539
15211TIP3   OH245573   6.560   6.710   6.652
15211TIP3    H145574   6.613   6.787   6.618
15211TIP3    H245575   6.551   6.733   6.745
15212TIP3   OH245576   6.740   6.476   6.777
15212TIP3    H145577   6.673   6.540   6.809
15212TIP3    H245578   6.766   6.516   6.690
15213TIP3   OH245579   6.102   7.737   6.299
15213TIP3    H145580   6.075   7.803   6.231
15213TIP3    H245581   6.091   7.789   6.380
15214TIP3   OH245582   6.205   6.449   6.542
15214TIP3    H145583   6.203   6.540   6.578
15214TIP3    H245584   6.301   6.431   6.547
15215TIP3   OH245585   5.823   7.367   6.298
15215TIP3    H145586   5.883   7.444   6.300
15215TIP3    H245587   5.870   7.313   6.230
15216TIP3   OH245588   5.770   6.642   6.429
15216TIP3    H145589   5.764   6.740   6.425
15216TIP3    H245590   5.688   6.616   6.386
15217TIP3   OH245591   6.144   6.360   7.307
15217TIP3    H145592   6.111   6.325   7.221
15217TIP3    H245593   6.135   6.281   7.365
15218TIP3   OH245594   5.689   7.564   6.686
15218TIP3    H145595   5.607   7.600   6.719
15218TIP3    H245596   5.700   7.617   6.605
15219TIP3   OH245597   6.728   7.718   5.823
15219TIP3    H145598   6.798   7.670   5.872
15219TIP3    H245599   6.769   7.722   5.734
15220TIP3   OH245600   5.959   7.187   6.147
15220TIP3    H145601   6.010   7.142   6.215
15220TIP3    H245602   6.026   7.189   6.074
15221TIP3   OH245603   6.451   7.374   5.950
15221TIP3    H145604   6.458   7.386   6.047
15221TIP3    H245605   6.464   7.277   5.943
15222TIP3   OH245606   6.178   7.079   6.381
15222TIP3    H145607   6.134   7.032   6.455
15222TIP3    H245608   6.207   7.004   6.325
15223TIP3   OH245609   6.263   6.877   6.211
15223TIP3    H145610   6.238   6.880   6.117
15223TIP3    H245611   6.361   6.877   6.203
15224TIP3   OH245612   7.067   7.208   5.890
15224TIP3    H145613   7.069   7.155   5.808
15224TIP3    H245614   7.038   7.293   5.851
15225TIP3   OH245615   6.086   7.945   6.117
15225TIP3    H145616   6.171   7.974   6.082
15225TIP3    H245617   6.031   7.972   6.041
15226TIP3   OH245618   5.554   7.320   6.331
15226TIP3    H145619   5.649   7.340   6.318
15226TIP3    H245620   5.547   7.231   6.292
15227TIP3   OH245621   5.436   7.921   6.770
15227TIP3    H145622   5.369   7.871   6.718
15227TIP3    H245623   5.499   7.851   6.788
15228TIP3   OH245624   7.122   6.858   6.033
15228TIP3    H145625   7.130   6.894   5.944
15228TIP3    H245626   7.115   6.762   6.015
15229TIP3   OH245627   5.833   7.191   7.274
15229TIP3    H145628   5.804   7.155   7.187
15229TIP3    H245629   5.925   7.164   7.275
15230TIP3   OH245630   7.106   6.583   6.006
15230TIP3    H145631   7.180   6.545   6.056
15230TIP3    H245632   7.034   6.520   6.020
15231TIP3   OH245633   7.245   6.583   6.533
15231TIP3    H145634   7.316   6.528   6.564
15231TIP3    H245635   7.186   6.517   6.493
15232TIP3   OH245636   5.969   6.572   7.301
15232TIP3    H145637   6.027   6.495   7.318
15232TIP3    H245638   6.027   6.645   7.326
15233TIP3   OH245639   5.783   6.815   7.383
15233TIP3    H145640   5.830   6.834   7.300
15233TIP3    H245641   5.787   6.900   7.431
15234TIP3   OH245642   7.353   6.515   6.124
15234TIP3    H145643   7.391   6.442   6.070
15234TIP3    H245644   7.402   6.592   6.091
15235TIP3   OH245645   5.758   6.353   6.887
15235TIP3    H145646   5.664   6.345   6.911
15235TIP3    H245647   5.754   6.409   6.807
15236TIP3   OH245648   5.973   6.425   7.696
15236TIP3    H145649   5.922   6.409   7.779
15236TIP3    H245650   5.900   6.455   7.639
15237TIP3   OH245651   6.067   6.270   7.051
15237TIP3    H145652   5.975   6.237   7.054
15237TIP3    H245653   6.116   6.184   7.050
15238TIP3   OH245654   5.857   6.139   6.702
15238TIP3    H145655   5.882   6.199   6.629
15238TIP3    H245656   5.824   6.202   6.769
15239TIP3   OH245657   6.515   6.301   6.934
15239TIP3    H145658   6.577   6.366   6.898
15239TIP3    H245659   6.506   6.331   7.025
15240TIP3   OH245660   7.085   6.365   6.478
15240TIP3    H145661   6.997   6.405   6.482
15240TIP3    H245662   7.070   6.280   6.525
15241TIP3   OH245663   5.574   7.719   6.484
15241TIP3    H145664   5.492   7.678   6.450
15241TIP3    H245665   5.557   7.811   6.458
15242TIP3   OH245666   5.969   6.300   6.466
15242TIP3    H145667   6.018   6.236   6.410
15242TIP3    H245668   6.041   6.353   6.503
15243TIP3   OH245669   6.482   6.469   6.561
15243TIP3    H145670   6.523   6.411   6.625
15243TIP3    H245671   6.510   6.558   6.592
15244TIP3   OH245672   5.653   7.745   6.124
15244TIP3    H145673   5.638   7.759   6.219
15244TIP3    H245674   5.737   7.695   6.122
15245TIP3   OH245675   7.632   6.392   6.189
15245TIP3    H145676   7.688   6.430   6.118
15245TIP3    H245677   7.599   6.472   6.232
15246TIP3   OH245678   7.752   6.558   5.952
15246TIP3    H145679   7.802   6.492   5.899
15246TIP3    H245680   7.822   6.618   5.980
15247TIP3   OH245681   3.058   8.024   7.339
15247TIP3    H145682   3.136   8.047   7.393
15247TIP3    H245683   3.059   8.097   7.275
15248TIP3   OH245684   2.615   8.223   6.823
15248TIP3    H145685   2.687   8.277   6.859
15248TIP3    H245686   2.666   8.159   6.770
15249TIP3   OH245687   2.871   8.355   6.883
15249TIP3    H145688   2.844   8.422   6.948
15249TIP3    H245689   2.877   8.407   6.799
15250TIP3   OH245690   3.338   7.612   6.964
15250TIP3    H145691   3.256   7.632   7.014
15250TIP3    H245692   3.351   7.696   6.915
15251TIP3   OH245693   2.889   8.455   6.635
15251TIP3    H145694   2.859   8.404   6.557
15251TIP3    H245695   2.981   8.475   6.610
15252TIP3   OH245696   2.596   7.801   6.963
15252TIP3    H145697   2.568   7.786   7.055
15252TIP3    H245698   2.563   7.717   6.923
15253TIP3   OH245699   2.260   7.764   6.929
15253TIP3    H145700   2.260   7.767   7.026
15253TIP3    H245701   2.189   7.827   6.908
15254TIP3   OH245702   2.860   7.866   6.931
15254TIP3    H145703   2.762   7.867   6.934
15254TIP3    H245704   2.885   7.961   6.930
15255TIP3   OH245705   2.961   8.111   6.955
15255TIP3    H145706   3.033   8.130   7.017
15255TIP3    H245707   2.933   8.202   6.931
15256TIP3   OH245708   3.373   8.231   6.870
15256TIP3    H145709   3.312   8.183   6.810
15256TIP3    H245710   3.371   8.317   6.824
15257TIP3   OH245711   2.906   7.840   7.208
15257TIP3    H145712   2.893   7.861   7.113
15257TIP3    H245713   2.953   7.919   7.241
15258TIP3   OH245714   2.761   7.740   7.410
15258TIP3    H145715   2.786   7.781   7.494
15258TIP3    H245716   2.831   7.768   7.348
15259TIP3   OH245717   2.264   7.666   7.215
15259TIP3    H145718   2.245   7.762   7.224
15259TIP3    H245719   2.361   7.668   7.223
15260TIP3   OH245720   2.335   8.171   6.874
15260TIP3    H145721   2.275   8.164   6.798
15260TIP3    H245722   2.416   8.204   6.830
15261TIP3   OH245723   3.139   8.513   6.537
15261TIP3    H145724   3.120   8.464   6.454
15261TIP3    H245725   3.112   8.603   6.508
15262TIP3   OH245726   3.337   8.474   6.724
15262TIP3    H145727   3.265   8.468   6.657
15262TIP3    H245728   3.329   8.566   6.750
15263TIP3   OH245729   3.212   8.145   6.668
15263TIP3    H145730   3.161   8.178   6.594
15263TIP3    H245731   3.184   8.050   6.667
15264TIP3   OH245732   3.150   7.880   6.664
15264TIP3    H145733   3.224   7.848   6.719
15264TIP3    H245734   3.077   7.820   6.686
15265TIP3   OH245735   3.206   8.138   7.107
15265TIP3    H145736   3.242   8.050   7.130
15265TIP3    H245737   3.271   8.166   7.040
15266TIP3   OH245738   3.318   7.886   7.152
15266TIP3    H145739   3.365   7.869   7.236
15266TIP3    H245740   3.254   7.811   7.152
15267TIP3   OH245741   3.399   7.822   6.786
15267TIP3    H145742   3.438   7.749   6.733
15267TIP3    H245743   3.466   7.892   6.779
15268TIP3   OH245744   3.397   7.756   7.621
15268TIP3    H145745   3.431   7.799   7.540
15268TIP3    H245746   3.301   7.757   7.605
15269TIP3   OH245747   3.481   7.847   7.373
15269TIP3    H145748   3.553   7.794   7.332
15269TIP3    H245749   3.515   7.937   7.356
15270TIP3   OH245750   1.938   7.422   7.344
15270TIP3    H145751   1.949   7.481   7.266
15270TIP3    H245752   1.900   7.484   7.409
15271TIP3   OH245753   3.129   7.742   7.588
15271TIP3    H145754   3.084   7.730   7.503
15271TIP3    H245755   3.091   7.670   7.642
15272TIP3   OH245756   3.133   7.672   7.145
15272TIP3    H145757   3.046   7.714   7.151
15272TIP3    H245758   3.117   7.587   7.192
15273TIP3   OH245759   2.016   7.599   7.135
15273TIP3    H145760   2.056   7.535   7.073
15273TIP3    H245761   2.099   7.626   7.181
15274TIP3   OH245762   2.523   7.765   7.228
15274TIP3    H145763   2.589   7.720   7.282
15274TIP3    H245764   2.535   7.857   7.258
15275TIP3   OH245765   4.605   8.810   6.758
15275TIP3    H145766   4.579   8.904   6.740
15275TIP3    H245767   4.524   8.766   6.725
15276TIP3   OH245768   3.580   8.342   7.030
15276TIP3    H145769   3.546   8.430   7.052
15276TIP3    H245770   3.501   8.297   6.995
15277TIP3   OH245771   4.144   8.220   7.203
15277TIP3    H145772   4.124   8.291   7.138
15277TIP3    H245773   4.097   8.146   7.159
15278TIP3   OH245774   4.838   8.305   6.822
15278TIP3    H145775   4.903   8.292   6.892
15278TIP3    H245776   4.890   8.355   6.756
15279TIP3   OH245777   3.780   8.379   7.332
15279TIP3    H145778   3.872   8.384   7.365
15279TIP3    H245779   3.795   8.348   7.241
15280TIP3   OH245780   4.227   8.609   7.100
15280TIP3    H145781   4.318   8.580   7.123
15280TIP3    H245782   4.187   8.526   7.069
15281TIP3   OH245783   4.115   8.170   7.619
15281TIP3    H145784   4.060   8.217   7.555
15281TIP3    H245785   4.101   8.226   7.698
15282TIP3   OH245786   4.501   9.036   6.650
15282TIP3    H145787   4.460   9.038   6.563
15282TIP3    H245788   4.484   9.128   6.682
15283TIP3   OH245789   4.034   8.343   7.415
15283TIP3    H145790   4.078   8.427   7.394
15283TIP3    H245791   4.081   8.284   7.352
15284TIP3   OH245792   4.500   7.919   7.341
15284TIP3    H145793   4.486   7.825   7.365
15284TIP3    H245794   4.427   7.960   7.391
15285TIP3   OH245795   4.422   8.681   6.597
15285TIP3    H145796   4.342   8.735   6.578
15285TIP3    H245797   4.470   8.684   6.512
15286TIP3   OH245798   4.390   8.467   6.323
15286TIP3    H145799   4.453   8.520   6.375
15286TIP3    H245800   4.453   8.408   6.277
15287TIP3   OH245801   4.786   8.759   6.566
15287TIP3    H145802   4.722   8.784   6.636
15287TIP3    H245803   4.859   8.729   6.624
15288TIP3   OH245804   4.039   8.766   6.965
15288TIP3    H145805   3.992   8.698   6.913
15288TIP3    H245806   4.105   8.715   7.015
15289TIP3   OH245807   4.619   8.617   6.403
15289TIP3    H145808   4.681   8.674   6.454
15289TIP3    H245809   4.646   8.639   6.311
15290TIP3   OH245810   5.131   7.871   6.446
15290TIP3    H145811   5.051   7.889   6.499
15290TIP3    H245812   5.150   7.958   6.408
15291TIP3   OH245813   3.881   8.597   6.789
15291TIP3    H145814   3.817   8.651   6.740
15291TIP3    H245815   3.826   8.523   6.816
15292TIP3   OH245816   4.264   7.991   7.467
15292TIP3    H145817   4.174   7.961   7.442
15292TIP3    H245818   4.238   8.066   7.524
15293TIP3   OH245819   4.695   8.660   6.148
15293TIP3    H145820   4.662   8.642   6.058
15293TIP3    H245821   4.756   8.733   6.130
15294TIP3   OH245822   4.456   7.996   6.442
15294TIP3    H145823   4.412   8.055   6.512
15294TIP3    H245824   4.370   7.948   6.413
15295TIP3   OH245825   4.077   8.397   7.009
15295TIP3    H145826   3.983   8.374   7.025
15295TIP3    H245827   4.090   8.358   6.920
15296TIP3   OH245828   4.559   8.482   6.719
15296TIP3    H145829   4.506   8.554   6.679
15296TIP3    H245830   4.616   8.456   6.644
15297TIP3   OH245831   4.682   8.522   6.958
15297TIP3    H145832   4.635   8.541   6.875
15297TIP3    H245833   4.742   8.453   6.928
15298TIP3   OH245834   4.067   8.025   6.416
15298TIP3    H145835   4.055   8.021   6.513
15298TIP3    H245836   3.986   8.074   6.390
15299TIP3   OH245837   3.608   8.070   7.288
15299TIP3    H145838   3.683   8.098   7.343
15299TIP3    H245839   3.649   8.036   7.207
15300TIP3   OH245840   3.582   8.049   6.807
15300TIP3    H145841   3.626   8.087   6.728
15300TIP3    H245842   3.521   8.121   6.828
15301TIP3   OH245843   4.399   8.212   7.068
15301TIP3    H145844   4.319   8.220   7.124
15301TIP3    H245845   4.469   8.231   7.133
15302TIP3   OH245846   3.839   8.280   7.082
15302TIP3    H145847   3.746   8.291   7.051
15302TIP3    H245848   3.860   8.189   7.055
15303TIP3   OH245849   4.110   8.274   6.767
15303TIP3    H145850   4.203   8.294   6.746
15303TIP3    H245851   4.062   8.299   6.685
15304TIP3   OH245852   3.949   8.306   6.549
15304TIP3    H145853   3.876   8.264   6.501
15304TIP3    H245854   4.000   8.344   6.474
15305TIP3   OH245855   4.487   8.521   7.159
15305TIP3    H145856   4.555   8.538   7.091
15305TIP3    H245857   4.534   8.540   7.241
15306TIP3   OH245858   4.012   8.040   7.046
15306TIP3    H145859   3.979   7.961   7.092
15306TIP3    H245860   4.066   8.002   6.976
15307TIP3   OH245861   4.200   8.836   6.553
15307TIP3    H145862   4.126   8.772   6.543
15307TIP3    H245863   4.180   8.876   6.641
15308TIP3   OH245864   4.722   8.373   6.515
15308TIP3    H145865   4.819   8.383   6.533
15308TIP3    H245866   4.706   8.450   6.457
15309TIP3   OH245867   4.330   8.999   6.378
15309TIP3    H145868   4.290   9.078   6.416
15309TIP3    H245869   4.284   8.929   6.429
15310TIP3   OH245870   5.174   8.482   6.343
15310TIP3    H145871   5.107   8.437   6.286
15310TIP3    H245872   5.170   8.570   6.303
15311TIP3   OH245873   3.560   8.467   6.556
15311TIP3    H145874   3.605   8.551   6.574
15311TIP3    H245875   3.483   8.472   6.617
15312TIP3   OH245876   4.144   8.951   6.792
15312TIP3    H145877   4.136   9.029   6.848
15312TIP3    H245878   4.115   8.882   6.855
15313TIP3   OH245879   4.629   8.986   6.143
15313TIP3    H145880   4.666   8.972   6.232
15313TIP3    H245881   4.551   9.041   6.163
15314TIP3   OH245882   4.768   8.956   6.378
15314TIP3    H145883   4.775   8.885   6.446
15314TIP3    H245884   4.861   8.975   6.358
15315TIP3   OH245885   3.995   8.987   6.178
15315TIP3    H145886   4.016   8.893   6.164
15315TIP3    H245887   3.976   8.991   6.274
15316TIP3   OH245888   3.952   9.022   6.451
15316TIP3    H145889   4.009   8.991   6.522
15316TIP3    H245890   3.933   9.113   6.480
15317TIP3   OH245891   3.671   8.714   6.637
15317TIP3    H145892   3.626   8.773   6.699
15317TIP3    H245893   3.689   8.777   6.564
15318TIP3   OH245894   4.706   8.123   6.662
15318TIP3    H145895   4.682   8.197   6.603
15318TIP3    H245896   4.754   8.176   6.729
15319TIP3   OH245897   4.394   8.279   6.798
15319TIP3    H145898   4.455   8.354   6.780
15319TIP3    H245899   4.397   8.273   6.896
15320TIP3   OH245900   4.538   8.012   6.901
15320TIP3    H145901   4.526   8.082   6.968
15320TIP3    H245902   4.596   8.059   6.838
15321TIP3   OH245903   4.049   8.007   6.692
15321TIP3    H145904   4.045   8.098   6.728
15321TIP3    H245905   4.144   7.989   6.701
15322TIP3   OH245906   3.665   8.922   6.454
15322TIP3    H145907   3.703   9.010   6.455
15322TIP3    H245908   3.717   8.880   6.382
15323TIP3   OH245909   3.609   8.199   6.581
15323TIP3    H145910   3.610   8.296   6.574
15323TIP3    H245911   3.526   8.176   6.538
15324TIP3   OH245912   3.997   7.917   7.450
15324TIP3    H145913   3.965   7.883   7.364
15324TIP3    H245914   3.988   7.839   7.508
15325TIP3   OH245915   3.799   8.737   6.297
15325TIP3    H145916   3.855   8.705   6.370
15325TIP3    H245917   3.866   8.741   6.225
15326TIP3   OH245918   4.300   8.930   6.095
15326TIP3    H145919   4.307   8.947   6.190
15326TIP3    H245920   4.299   8.832   6.093
15327TIP3   OH245921   4.009   8.639   6.525
15327TIP3    H145922   3.979   8.598   6.608
15327TIP3    H245923   4.042   8.562   6.474
15328TIP3   OH245924   4.107   8.430   6.363
15328TIP3    H145925   4.080   8.437   6.269
15328TIP3    H245926   4.204   8.440   6.354
15329TIP3   OH245927   4.936   8.773   6.024
15329TIP3    H145928   4.912   8.723   5.943
15329TIP3    H245929   4.907   8.862   5.995
15330TIP3   OH245930   4.375   8.239   7.664
15330TIP3    H145931   4.396   8.305   7.596
15330TIP3    H245932   4.280   8.226   7.652
15331TIP3   OH245933   4.537   8.022   7.728
15331TIP3    H145934   4.483   8.103   7.716
15331TIP3    H245935   4.468   7.953   7.731
15332TIP3   OH245936   3.393   8.871   6.462
15332TIP3    H145937   3.486   8.899   6.473
15332TIP3    H245938   3.400   8.779   6.432
15333TIP3   OH245939   5.126   8.736   6.220
15333TIP3    H145940   5.056   8.730   6.151
15333TIP3    H245941   5.114   8.828   6.247
15334TIP3   OH245942   4.999   8.399   6.154
15334TIP3    H145943   4.954   8.446   6.083
15334TIP3    H245944   4.962   8.308   6.144
15335TIP3   OH245945   4.939   8.128   6.161
15335TIP3    H145946   5.036   8.127   6.179
15335TIP3    H245947   4.911   8.060   6.222
15336TIP3   OH245948   4.989   8.385   6.594
15336TIP3    H145949   5.033   8.298   6.601
15336TIP3    H245950   5.057   8.437   6.549
15337TIP3   OH245951   5.098   8.139   6.626
15337TIP3    H145952   5.152   8.134   6.709
15337TIP3    H245953   5.041   8.061   6.635
15338TIP3   OH245954   3.814   8.124   7.489
15338TIP3    H145955   3.885   8.056   7.479
15338TIP3    H245956   3.853   8.202   7.449
15339TIP3   OH245957   5.189   8.087   6.254
15339TIP3    H145958   5.231   8.008   6.214
15339TIP3    H245959   5.263   8.148   6.268
15340TIP3   OH245960   3.598   7.907   7.035
15340TIP3    H145961   3.504   7.904   7.060
15340TIP3    H245962   3.596   7.965   6.956
15341TIP3   OH245963   4.652   8.121   7.195
15341TIP3    H145964   4.610   8.042   7.235
15341TIP3    H245965   4.732   8.084   7.154
15342TIP3   OH245966   5.182   7.970   7.067
15342TIP3    H145967   5.220   8.057   7.044
15342TIP3    H245968   5.101   7.996   7.112
15343TIP3   OH245969   5.270   8.130   6.829
15343TIP3    H145970   5.332   8.055   6.814
15343TIP3    H245971   5.329   8.199   6.863
15344TIP3   OH245972   3.908   7.828   7.203
15344TIP3    H145973   3.816   7.795   7.206
15344TIP3    H245974   3.957   7.742   7.200
15345TIP3   OH245975   3.696   7.697   6.853
15345TIP3    H145976   3.724   7.755   6.780
15345TIP3    H245977   3.665   7.761   6.919
15346TIP3   OH245978   4.350   7.860   7.086
15346TIP3    H145979   4.409   7.914   7.030
15346TIP3    H245980   4.370   7.896   7.174
15347TIP3   OH245981   4.880   8.006   7.070
15347TIP3    H145982   4.906   7.964   6.988
15347TIP3    H245983   4.868   7.927   7.128
15348TIP3   OH245984   4.917   7.926   6.622
15348TIP3    H145985   4.843   7.979   6.656
15348TIP3    H245986   4.911   7.844   6.675
15349TIP3   OH245987   3.810   7.857   6.616
15349TIP3    H145988   3.860   7.794   6.560
15349TIP3    H245989   3.883   7.911   6.654
15350TIP3   OH245990   4.330   8.031   6.707
15350TIP3    H145991   4.382   7.985   6.776
15350TIP3    H245992   4.347   8.124   6.736
15351TIP3   OH245993   5.853   8.273   5.905
15351TIP3    H145994   5.849   8.302   5.998
15351TIP3    H245995   5.776   8.322   5.870
15352TIP3   OH245996   5.381   8.302   6.292
15352TIP3    H145997   5.425   8.343   6.215
15352TIP3    H245998   5.320   8.375   6.316
15353TIP3   OH245999   5.727   8.464   6.055
15353TIP3    H146000   5.653   8.458   5.991
15353TIP3    H246001   5.783   8.530   6.012
15354TIP3   OH246002   5.335   8.726   6.033
15354TIP3    H146003   5.410   8.747   6.091
15354TIP3    H246004   5.259   8.739   6.093
15355TIP3   OH246005   5.404   8.454   6.061
15355TIP3    H146006   5.408   8.551   6.061
15355TIP3    H246007   5.315   8.438   6.027
15356TIP3   OH246008   5.139   9.142   5.896
15356TIP3    H146009   5.207   9.174   5.960
15356TIP3    H246010   5.153   9.046   5.902
15357TIP3   OH246011   5.359   8.121   6.492
15357TIP3    H146012   5.276   8.141   6.538
15357TIP3    H246013   5.372   8.201   6.437
15358TIP3   OH246014   5.501   7.950   6.336
15358TIP3    H146015   5.514   8.011   6.262
15358TIP3    H246016   5.451   8.006   6.400
15359TIP3   OH246017   5.595   8.111   6.099
15359TIP3    H146018   5.656   8.055   6.048
15359TIP3    H246019   5.655   8.176   6.140
15360TIP3   OH246020   5.685   4.218   8.950
15360TIP3    H146021   5.673   4.133   8.994
15360TIP3    H246022   5.765   4.199   8.899
15361TIP3   OH246023   6.446   3.772   8.905
15361TIP3    H146024   6.438   3.712   8.829
15361TIP3    H246025   6.435   3.858   8.861
15362TIP3   OH246026   7.276   4.257   8.514
15362TIP3    H146027   7.293   4.190   8.445
15362TIP3    H246028   7.215   4.208   8.572
15363TIP3   OH246029   7.136   4.010   8.632
15363TIP3    H146030   7.163   3.977   8.718
15363TIP3    H246031   7.211   3.985   8.574
15364TIP3   OH246032   5.168   5.829   8.680
15364TIP3    H146033   5.178   5.755   8.617
15364TIP3    H246034   5.135   5.782   8.757
15365TIP3   OH246035   5.328   6.042   8.594
15365TIP3    H146036   5.279   5.962   8.624
15365TIP3    H246037   5.410   6.003   8.556
15366TIP3   OH246038   4.963   5.549   8.788
15366TIP3    H146039   5.010   5.509   8.862
15366TIP3    H246040   5.034   5.552   8.720
15367TIP3   OH246041   5.473   5.747   8.611
15367TIP3    H146042   5.439   5.753   8.700
15367TIP3    H246043   5.488   5.651   8.602
15368TIP3   OH246044   6.103   5.578   8.520
15368TIP3    H146045   6.077   5.519   8.447
15368TIP3    H246046   6.046   5.654   8.497
15369TIP3   OH246047   6.125   4.917   8.640
15369TIP3    H146048   6.175   4.930   8.722
15369TIP3    H246049   6.035   4.896   8.672
15370TIP3   OH246050   4.005   7.169   8.630
15370TIP3    H146051   3.936   7.102   8.627
15370TIP3    H246052   3.952   7.250   8.623
15371TIP3   OH246053   3.957   6.485   8.796
15371TIP3    H146054   4.027   6.487   8.862
15371TIP3    H246055   3.882   6.446   8.843
   8.60000   8.10816   7.02187   0.00000   0.00000  -2.86667   0.00000  -2.86667  -4.05408
