Title t= 494.00000 step= 247000
19942
    1ASP      N    1   1.411   2.584   3.028
    1ASP    HT1    2   1.308   2.593   3.024
    1ASP    HT2    3   1.440   2.555   2.932
    1ASP    HT3    4   1.447   2.678   3.053
    1ASP     CA    5   1.441   2.480   3.131
    1ASP     HA    6   1.548   2.479   3.139
    1ASP     CB    7   1.358   2.512   3.262
    1ASP    HB1    8   1.250   2.507   3.233
    1ASP    HB2    9   1.383   2.605   3.317
    1ASP     CG   10   1.389   2.401   3.364
    1ASP    OD1   11   1.295   2.372   3.446
    1ASP    OD2   12   1.493   2.333   3.355
    1ASP      C   13   1.425   2.334   3.082
    1ASP      O   14   1.520   2.279   3.032
    2ALA      N   15   1.304   2.284   3.083
    2ALA     HN   16   1.224   2.339   3.108
    2ALA     CA   17   1.282   2.148   3.046
    2ALA     HA   18   1.351   2.090   3.106
    2ALA     CB   19   1.147   2.095   3.105
    2ALA    HB1   20   1.055   2.138   3.060
    2ALA    HB2   21   1.135   2.117   3.214
    2ALA    HB3   22   1.130   1.988   3.083
    2ALA      C   23   1.310   2.101   2.901
    2ALA      O   24   1.296   2.171   2.801
    3ASP      N   25   1.349   1.967   2.890
    3ASP     HN   26   1.373   1.912   2.970
    3ASP     CA   27   1.360   1.892   2.765
    3ASP     HA   28   1.437   1.932   2.702
    3ASP     CB   29   1.405   1.745   2.801
    3ASP    HB1   30   1.406   1.670   2.719
    3ASP    HB2   31   1.326   1.708   2.870
    3ASP     CG   32   1.532   1.734   2.872
    3ASP    OD1   33   1.552   1.628   2.938
    3ASP    OD2   34   1.618   1.826   2.856
    3ASP      C   35   1.227   1.882   2.689
    3ASP      O   36   1.117   1.878   2.745
    4GLY      N   37   1.228   1.878   2.552
    4GLY     HN   38   1.317   1.858   2.512
    4GLY     CA   39   1.106   1.879   2.465
    4GLY    HA1   40   1.145   1.886   2.364
    4GLY    HA2   41   1.048   1.965   2.494
    4GLY      C   42   1.010   1.764   2.481
    4GLY      O   43   1.033   1.678   2.561
    5PRO      N   44   0.891   1.766   2.412
    5PRO     CD   45   0.836   1.889   2.347
    5PRO    HD1   46   0.878   1.894   2.244
    5PRO    HD2   47   0.851   1.981   2.407
    5PRO     CA   48   0.813   1.654   2.394
    5PRO     HA   49   0.783   1.619   2.492
    5PRO     CB   50   0.688   1.694   2.310
    5PRO    HB1   51   0.596   1.644   2.347
    5PRO    HB2   52   0.704   1.681   2.201
    5PRO     CG   53   0.685   1.850   2.326
    5PRO    HG1   54   0.633   1.896   2.239
    5PRO    HG2   55   0.628   1.880   2.417
    5PRO      C   56   0.881   1.536   2.316
    5PRO      O   57   0.956   1.558   2.221
    6GLY      N   58   0.846   1.415   2.362
    6GLY     HN   59   0.780   1.417   2.436
    6GLY     CA   60   0.904   1.288   2.315
    6GLY    HA1   61   0.904   1.222   2.401
    6GLY    HA2   62   0.999   1.315   2.273
    6GLY      C   63   0.826   1.217   2.204
    6GLY      O   64   0.744   1.277   2.132
    7ASP      N   65   0.842   1.087   2.190
    7ASP     HN   66   0.917   1.048   2.242
    7ASP     CA   67   0.769   1.000   2.104
    7ASP     HA   68   0.779   1.034   2.002
    7ASP     CB   69   0.837   0.863   2.096
    7ASP    HB1   70   0.764   0.804   2.037
    7ASP    HB2   71   0.847   0.821   2.198
    7ASP     CG   72   0.971   0.858   2.026
    7ASP    OD1   73   1.030   0.749   2.044
    7ASP    OD2   74   1.016   0.953   1.960
    7ASP      C   75   0.618   0.986   2.137
    7ASP      O   76   0.587   0.974   2.257
    8PRO      N   77   0.530   1.008   2.035
    8PRO     CD   78   0.570   1.054   1.903
    8PRO    HD1   79   0.626   0.977   1.845
    8PRO    HD2   80   0.628   1.147   1.920
    8PRO     CA   81   0.385   1.006   2.050
    8PRO     HA   82   0.352   1.101   2.089
    8PRO     CB   83   0.340   0.993   1.902
    8PRO    HB1   84   0.237   1.027   1.876
    8PRO    HB2   85   0.349   0.887   1.870
    8PRO     CG   86   0.438   1.087   1.827
    8PRO    HG1   87   0.453   1.055   1.722
    8PRO    HG2   88   0.412   1.194   1.841
    8PRO      C   89   0.335   0.894   2.137
    8PRO      O   90   0.238   0.919   2.210
    9ASP      N   91   0.391   0.774   2.126
    9ASP     HN   92   0.465   0.765   2.059
    9ASP     CA   93   0.373   0.656   2.196
    9ASP     HA   94   0.271   0.620   2.190
    9ASP     CB   95   0.465   0.547   2.132
    9ASP    HB1   96   0.473   0.456   2.194
    9ASP    HB2   97   0.562   0.595   2.105
    9ASP     CG   98   0.414   0.511   1.992
    9ASP    OD1   99   0.504   0.473   1.905
    9ASP    OD2  100   0.290   0.506   1.974
    9ASP      C  101   0.398   0.662   2.351
    9ASP      O  102   0.340   0.591   2.434
   10ALA      N  103   0.496   0.746   2.390
   10ALA     HN  104   0.530   0.815   2.326
   10ALA     CA  105   0.571   0.735   2.514
   10ALA     HA  106   0.582   0.629   2.531
   10ALA     CB  107   0.716   0.796   2.505
   10ALA    HB1  108   0.770   0.752   2.418
   10ALA    HB2  109   0.771   0.778   2.600
   10ALA    HB3  110   0.709   0.907   2.497
   10ALA      C  111   0.497   0.804   2.630
   10ALA      O  112   0.446   0.918   2.615
   11GLY      N  113   0.494   0.747   2.752
   11GLY     HN  114   0.519   0.652   2.770
   11GLY     CA  115   0.441   0.818   2.862
   11GLY    HA1  116   0.355   0.878   2.839
   11GLY    HA2  117   0.515   0.889   2.898
   11GLY      C  118   0.404   0.732   2.985
   11GLY    OT1  119   0.291   0.691   3.002
   11GLY    OT2  120   0.494   0.713   3.071
   12LIT    LIT  121   2.801   1.543   0.947
   13LIT    LIT  122   2.535   2.154   1.951
   14LIT    LIT  123   6.178   5.853   4.295
   15LIT    LIT  124   2.273   3.021   2.396
   16LIT    LIT  125   0.380   0.313   2.747
   17LIT    LIT  126   6.226   4.490   1.409
   18LIT    LIT  127   0.380   5.101   2.741
   19LIT    LIT  128   6.272   0.263   0.230
   20LIT    LIT  129   3.108   0.692   5.125
   21LIT    LIT  130   3.231   5.115   3.083
   22LIT    LIT  131   4.321   4.090   1.270
   23LIT    LIT  132   3.692   2.037   3.200
   24LIT    LIT  133   2.557   4.916   4.640
   25LIT    LIT  134   5.061   1.140   0.807
   26LIT    LIT  135   2.051   1.355   4.890
   27LIT    LIT  136   0.384   0.117   3.781
   28LIT    LIT  137   1.387   2.199   3.483
   29LIT    LIT  138   2.256   4.387   3.319
   30LIT    LIT  139   1.402   1.412   2.598
   31LIT    LIT  140   4.458   1.055   4.816
   32LIT    LIT  141   5.017   4.490   1.771
   33LIT    LIT  142   5.449   1.999   2.207
   34CLA    CLA  143   4.588   2.485   1.549
   35CLA    CLA  144   0.222   1.749   0.555
   36CLA    CLA  145   5.327   3.789   0.499
   37CLA    CLA  146   1.882   0.818   3.354
   38CLA    CLA  147   6.161   0.734   0.107
   39CLA    CLA  148   0.374   3.660   1.884
   40CLA    CLA  149   0.420   1.672   3.271
   41CLA    CLA  150   1.692   2.439   2.307
   42CLA    CLA  151   0.606   0.683   4.681
   43CLA    CLA  152   2.010   3.752   2.804
   44CLA    CLA  153   4.933   3.033   4.912
   45CLA    CLA  154   0.109   5.706   2.451
   46CLA    CLA  155   4.450   5.590   1.697
   47CLA    CLA  156   2.072   1.136   4.791
   48CLA    CLA  157   4.706   4.693   2.391
   49CLA    CLA  158   2.732   1.574   4.639
   50CLA    CLA  159   4.111   2.917   3.022
   51CLA    CLA  160   0.845   0.987   1.501
   52TIP3   OH2  161   5.104   0.258   1.141
   52TIP3    H1  162   5.037   0.296   1.086
   52TIP3    H2  163   5.176   0.237   1.081
   53TIP3   OH2  164   2.542   4.966   4.443
   53TIP3    H1  165   2.529   4.913   4.364
   53TIP3    H2  166   2.572   5.051   4.410
   54TIP3   OH2  167   0.490   2.847   0.496
   54TIP3    H1  168   0.484   2.780   0.564
   54TIP3    H2  169   0.527   2.802   0.420
   55TIP3   OH2  170   6.116   1.303   4.911
   55TIP3    H1  171   6.185   1.313   4.845
   55TIP3    H2  172   6.037   1.284   4.860
   56TIP3   OH2  173   2.903   5.530   0.621
   56TIP3    H1  174   2.997   5.542   0.633
   56TIP3    H2  175   2.892   5.436   0.606
   57TIP3   OH2  176   1.367   2.889   2.347
   57TIP3    H1  177   1.436   2.848   2.399
   57TIP3    H2  178   1.308   2.816   2.324
   58TIP3   OH2  179   1.043   3.926   3.545
   58TIP3    H1  180   1.076   3.863   3.609
   58TIP3    H2  181   0.952   3.900   3.531
   59TIP3   OH2  182   0.349   4.381   0.870
   59TIP3    H1  183   0.281   4.317   0.891
   59TIP3    H2  184   0.341   4.392   0.775
   60TIP3   OH2  185   1.182   5.878   2.370
   60TIP3    H1  186   1.089   5.887   2.391
   60TIP3    H2  187   1.212   5.968   2.358
   61TIP3   OH2  188   4.384   2.066   0.707
   61TIP3    H1  189   4.461   2.108   0.668
   61TIP3    H2  190   4.310   2.107   0.662
   62TIP3   OH2  191   4.941   5.100   2.038
   62TIP3    H1  192   4.905   5.128   1.954
   62TIP3    H2  193   4.865   5.065   2.085
   63TIP3   OH2  194   6.174   3.720   0.833
   63TIP3    H1  195   6.117   3.731   0.757
   63TIP3    H2  196   6.228   3.799   0.834
   64TIP3   OH2  197   6.304   3.572   1.939
   64TIP3    H1  198   6.339   3.487   1.968
   64TIP3    H2  199   6.210   3.557   1.932
   65TIP3   OH2  200   0.666   5.233   0.146
   65TIP3    H1  201   0.680   5.144   0.179
   65TIP3    H2  202   0.573   5.237   0.125
   66TIP3   OH2  203   3.038   3.639   1.427
   66TIP3    H1  204   3.051   3.643   1.332
   66TIP3    H2  205   3.004   3.725   1.450
   67TIP3   OH2  206   0.742   4.441   0.149
   67TIP3    H1  207   0.712   4.497   0.221
   67TIP3    H2  208   0.708   4.354   0.171
   68TIP3   OH2  209   3.757   4.151   3.025
   68TIP3    H1  210   3.826   4.216   3.013
   68TIP3    H2  211   3.771   4.117   3.113
   69TIP3   OH2  212   2.698   5.174   3.926
   69TIP3    H1  213   2.742   5.159   4.009
   69TIP3    H2  214   2.607   5.194   3.950
   70TIP3   OH2  215   3.315   5.490   3.067
   70TIP3    H1  216   3.230   5.523   3.040
   70TIP3    H2  217   3.340   5.428   2.999
   71TIP3   OH2  218   1.713   0.024   4.018
   71TIP3    H1  219   1.725   0.039   3.924
   71TIP3    H2  220   1.620   0.003   4.028
   72TIP3   OH2  221   3.807   0.080   3.062
   72TIP3    H1  222   3.838   0.078   2.971
   72TIP3    H2  223   3.800  -0.012   3.087
   73TIP3   OH2  224   0.819   5.341   2.889
   73TIP3    H1  225   0.785   5.346   2.978
   73TIP3    H2  226   0.772   5.410   2.842
   74TIP3   OH2  227   0.745   5.086   0.622
   74TIP3    H1  228   0.652   5.067   0.630
   74TIP3    H2  229   0.758   5.166   0.674
   75TIP3   OH2  230   3.268   2.620   2.896
   75TIP3    H1  231   3.216   2.695   2.865
   75TIP3    H2  232   3.358   2.650   2.890
   76TIP3   OH2  233   1.484   0.790   2.667
   76TIP3    H1  234   1.466   0.758   2.756
   76TIP3    H2  235   1.569   0.833   2.674
   77TIP3   OH2  236   0.042   2.065   2.014
   77TIP3    H1  237   0.065   2.015   2.093
   77TIP3    H2  238   0.023   2.154   2.047
   78TIP3   OH2  239   4.709   0.421   0.205
   78TIP3    H1  240   4.643   0.452   0.267
   78TIP3    H2  241   4.762   0.360   0.256
   79TIP3   OH2  242   5.428   0.646   1.018
   79TIP3    H1  243   5.388   0.564   1.049
   79TIP3    H2  244   5.521   0.624   1.008
   80TIP3   OH2  245   5.321   3.064   0.668
   80TIP3    H1  246   5.391   3.001   0.682
   80TIP3    H2  247   5.265   3.023   0.602
   81TIP3   OH2  248   1.379   2.307   4.607
   81TIP3    H1  249   1.457   2.280   4.559
   81TIP3    H2  250   1.362   2.396   4.576
   82TIP3   OH2  251   0.309   0.730   4.246
   82TIP3    H1  252   0.266   0.787   4.309
   82TIP3    H2  253   0.365   0.788   4.195
   83TIP3   OH2  254   5.734   3.369   2.922
   83TIP3    H1  255   5.787   3.344   2.997
   83TIP3    H2  256   5.679   3.292   2.904
   84TIP3   OH2  257   4.055   0.697   3.223
   84TIP3    H1  258   4.063   0.606   3.196
   84TIP3    H2  259   4.032   0.745   3.143
   85TIP3   OH2  260   1.820   3.193   2.938
   85TIP3    H1  261   1.870   3.184   2.857
   85TIP3    H2  262   1.746   3.134   2.927
   86TIP3   OH2  263   3.486   2.487   0.871
   86TIP3    H1  264   3.550   2.444   0.814
   86TIP3    H2  265   3.512   2.464   0.960
   87TIP3   OH2  266   3.304   3.612   4.730
   87TIP3    H1  267   3.313   3.525   4.690
   87TIP3    H2  268   3.384   3.623   4.781
   88TIP3   OH2  269   6.086   1.465  -0.056
   88TIP3    H1  270   6.013   1.419  -0.015
   88TIP3    H2  271   6.151   1.473   0.014
   89TIP3   OH2  272   0.017   5.290   4.180
   89TIP3    H1  273   0.058   5.218   4.227
   89TIP3    H2  274   0.017   5.363   4.241
   90TIP3   OH2  275   3.588   5.648   1.559
   90TIP3    H1  276   3.637   5.703   1.498
   90TIP3    H2  277   3.497   5.674   1.548
   91TIP3   OH2  278   5.878   0.157   4.119
   91TIP3    H1  279   5.945   0.189   4.059
   91TIP3    H2  280   5.891   0.206   4.199
   92TIP3   OH2  281   4.131   2.655   0.953
   92TIP3    H1  282   4.201   2.689   1.008
   92TIP3    H2  283   4.148   2.561   0.947
   93TIP3   OH2  284   4.217   1.606   2.922
   93TIP3    H1  285   4.190   1.518   2.949
   93TIP3    H2  286   4.290   1.628   2.980
   94TIP3   OH2  287   3.928   5.682   4.120
   94TIP3    H1  288   3.881   5.636   4.189
   94TIP3    H2  289   3.934   5.617   4.049
   95TIP3   OH2  290   0.309   3.255   2.520
   95TIP3    H1  291   0.309   3.202   2.599
   95TIP3    H2  292   0.388   3.309   2.527
   96TIP3   OH2  293   2.017   0.040   3.190
   96TIP3    H1  294   1.924   0.053   3.207
   96TIP3    H2  295   2.029   0.065   3.098
   97TIP3   OH2  296   0.797   5.934   4.788
   97TIP3    H1  297   0.797   5.989   4.866
   97TIP3    H2  298   0.716   5.882   4.796
   98TIP3   OH2  299   2.323   0.863   3.584
   98TIP3    H1  300   2.392   0.800   3.607
   98TIP3    H2  301   2.245   0.810   3.572
   99TIP3   OH2  302   1.136   1.163   3.326
   99TIP3    H1  303   1.087   1.104   3.382
   99TIP3    H2  304   1.215   1.114   3.301
  100TIP3   OH2  305   4.488   1.884   3.187
  100TIP3    H1  306   4.427   1.957   3.193
  100TIP3    H2  307   4.507   1.876   3.093
  101TIP3   OH2  308   3.969   2.962   3.749
  101TIP3    H1  309   3.946   3.034   3.691
  101TIP3    H2  310   3.932   2.884   3.707
  102TIP3   OH2  311   2.170   3.217   1.762
  102TIP3    H1  312   2.088   3.265   1.773
  102TIP3    H2  313   2.216   3.263   1.692
  103TIP3   OH2  314   3.414   4.688   4.220
  103TIP3    H1  315   3.440   4.777   4.196
  103TIP3    H2  316   3.496   4.641   4.232
  104TIP3   OH2  317   3.135   0.228   3.728
  104TIP3    H1  318   3.061   0.188   3.683
  104TIP3    H2  319   3.097   0.303   3.775
  105TIP3   OH2  320   6.154   5.659   2.667
  105TIP3    H1  321   6.082   5.639   2.726
  105TIP3    H2  322   6.198   5.576   2.653
  106TIP3   OH2  323   1.144   5.618   1.228
  106TIP3    H1  324   1.073   5.567   1.190
  106TIP3    H2  325   1.207   5.630   1.157
  107TIP3   OH2  326   2.036   0.686   4.239
  107TIP3    H1  327   2.044   0.719   4.149
  107TIP3    H2  328   1.980   0.750   4.283
  108TIP3   OH2  329   6.194   3.652   3.862
  108TIP3    H1  330   6.127   3.707   3.903
  108TIP3    H2  331   6.192   3.570   3.912
  109TIP3   OH2  332   3.695   0.332   4.302
  109TIP3    H1  333   3.716   0.375   4.219
  109TIP3    H2  334   3.777   0.332   4.351
  110TIP3   OH2  335   3.360   0.644   2.257
  110TIP3    H1  336   3.313   0.563   2.276
  110TIP3    H2  337   3.440   0.639   2.310
  111TIP3   OH2  338   1.711   2.316   2.589
  111TIP3    H1  339   1.619   2.293   2.599
  111TIP3    H2  340   1.719   2.345   2.498
  112TIP3   OH2  341   0.996   1.634   2.854
  112TIP3    H1  342   0.980   1.701   2.788
  112TIP3    H2  343   1.075   1.663   2.900
  113TIP3   OH2  344   1.301   4.312   5.072
  113TIP3    H1  345   1.365   4.242   5.083
  113TIP3    H2  346   1.352   4.387   5.043
  114TIP3   OH2  347   0.965   3.416   0.757
  114TIP3    H1  348   0.890   3.466   0.723
  114TIP3    H2  349   1.037   3.480   0.759
  115TIP3   OH2  350   5.385   0.611   1.854
  115TIP3    H1  351   5.329   0.646   1.784
  115TIP3    H2  352   5.363   0.664   1.930
  116TIP3   OH2  353   5.926   5.970   0.944
  116TIP3    H1  354   5.971   5.888   0.923
  116TIP3    H2  355   5.842   5.964   0.897
  117TIP3   OH2  356   2.035   4.700   1.247
  117TIP3    H1  357   2.019   4.607   1.237
  117TIP3    H2  358   1.981   4.726   1.322
  118TIP3   OH2  359   2.818   3.368   2.802
  118TIP3    H1  360   2.897   3.407   2.839
  118TIP3    H2  361   2.841   3.348   2.711
  119TIP3   OH2  362   5.033   0.072   3.037
  119TIP3    H1  363   5.059   0.081   2.946
  119TIP3    H2  364   5.090   0.003   3.072
  120TIP3   OH2  365   1.034   0.798   1.316
  120TIP3    H1  366   0.974   0.860   1.359
  120TIP3    H2  367   1.095   0.854   1.268
  121TIP3   OH2  368   4.416   2.043   3.837
  121TIP3    H1  369   4.398   2.044   3.743
  121TIP3    H2  370   4.423   1.950   3.859
  122TIP3   OH2  371   1.397   1.695   3.901
  122TIP3    H1  372   1.366   1.753   3.832
  122TIP3    H2  373   1.325   1.634   3.916
  123TIP3   OH2  374   3.495   0.139   1.515
  123TIP3    H1  375   3.458   0.131   1.603
  123TIP3    H2  376   3.502   0.234   1.501
  124TIP3   OH2  377   2.175   2.927   1.815
  124TIP3    H1  378   2.172   3.022   1.803
  124TIP3    H2  379   2.141   2.891   1.733
  125TIP3   OH2  380   3.442   5.390   1.565
  125TIP3    H1  381   3.455   5.479   1.530
  125TIP3    H2  382   3.411   5.339   1.490
  126TIP3   OH2  383   4.868   5.930   0.962
  126TIP3    H1  384   4.955   5.937   0.922
  126TIP3    H2  385   4.832   6.019   0.955
  127TIP3   OH2  386   1.116   3.522   3.623
  127TIP3    H1  387   1.206   3.540   3.596
  127TIP3    H2  388   1.113   3.427   3.633
  128TIP3   OH2  389   2.197   0.159   4.122
  128TIP3    H1  390   2.234   0.070   4.118
  128TIP3    H2  391   2.139   0.164   4.046
  129TIP3   OH2  392   2.398   1.259   2.107
  129TIP3    H1  393   2.380   1.173   2.069
  129TIP3    H2  394   2.396   1.244   2.202
  130TIP3   OH2  395   0.519   3.934   3.856
  130TIP3    H1  396   0.483   3.847   3.840
  130TIP3    H2  397   0.599   3.937   3.803
  131TIP3   OH2  398   1.829   5.097   4.938
  131TIP3    H1  399   1.855   5.141   5.019
  131TIP3    H2  400   1.792   5.013   4.967
  132TIP3   OH2  401   0.507   1.325   5.109
  132TIP3    H1  402   0.480   1.405   5.065
  132TIP3    H2  403   0.425   1.279   5.127
  133TIP3   OH2  404   0.974   0.490   4.121
  133TIP3    H1  405   0.896   0.480   4.175
  133TIP3    H2  406   0.941   0.525   4.038
  134TIP3   OH2  407   5.009   5.321   0.631
  134TIP3    H1  408   4.968   5.271   0.702
  134TIP3    H2  409   4.955   5.399   0.623
  135TIP3   OH2  410   6.209   2.617   3.111
  135TIP3    H1  411   6.202   2.571   3.028
  135TIP3    H2  412   6.303   2.620   3.130
  136TIP3   OH2  413   5.840   2.752   2.045
  136TIP3    H1  414   5.824   2.709   1.961
  136TIP3    H2  415   5.838   2.845   2.025
  137TIP3   OH2  416   3.546   0.554   4.541
  137TIP3    H1  417   3.640   0.543   4.524
  137TIP3    H2  418   3.525   0.640   4.504
  138TIP3   OH2  419   5.424   4.663   1.781
  138TIP3    H1  420   5.517   4.686   1.777
  138TIP3    H2  421   5.391   4.709   1.858
  139TIP3   OH2  422   5.166   4.221   2.368
  139TIP3    H1  423   5.222   4.144   2.381
  139TIP3    H2  424   5.098   4.191   2.308
  140TIP3   OH2  425   5.894   5.545   0.516
  140TIP3    H1  426   5.893   5.624   0.463
  140TIP3    H2  427   5.865   5.476   0.456
  141TIP3   OH2  428   5.576   2.693   3.232
  141TIP3    H1  429   5.495   2.659   3.270
  141TIP3    H2  430   5.641   2.624   3.248
  142TIP3   OH2  431   5.555   5.404   0.544
  142TIP3    H1  432   5.513   5.319   0.542
  142TIP3    H2  433   5.623   5.396   0.612
  143TIP3   OH2  434   0.111   3.020   1.394
  143TIP3    H1  435   0.202   3.009   1.421
  143TIP3    H2  436   0.116   3.060   1.308
  144TIP3   OH2  437   3.777   4.194   4.265
  144TIP3    H1  438   3.757   4.263   4.202
  144TIP3    H2  439   3.820   4.126   4.213
  145TIP3   OH2  440   5.466   3.745   2.739
  145TIP3    H1  441   5.557   3.774   2.744
  145TIP3    H2  442   5.470   3.651   2.756
  146TIP3   OH2  443   2.988   5.096   3.539
  146TIP3    H1  444   3.031   5.011   3.542
  146TIP3    H2  445   2.983   5.124   3.630
  147TIP3   OH2  446   2.232   4.296   0.446
  147TIP3    H1  447   2.299   4.241   0.406
  147TIP3    H2  448   2.278   4.346   0.513
  148TIP3   OH2  449   4.900   5.189   2.349
  148TIP3    H1  450   4.809   5.169   2.369
  148TIP3    H2  451   4.898   5.226   2.261
  149TIP3   OH2  452   1.427   0.417   3.779
  149TIP3    H1  453   1.345   0.380   3.746
  149TIP3    H2  454   1.430   0.390   3.871
  150TIP3   OH2  455   1.013   5.436   2.041
  150TIP3    H1  456   1.048   5.361   2.089
  150TIP3    H2  457   1.008   5.505   2.107
  151TIP3   OH2  458   4.612   1.714   0.735
  151TIP3    H1  459   4.685   1.692   0.794
  151TIP3    H2  460   4.567   1.786   0.780
  152TIP3   OH2  461   3.016   1.049   2.773
  152TIP3    H1  462   2.947   0.997   2.733
  152TIP3    H2  463   2.989   1.140   2.759
  153TIP3   OH2  464   1.040   1.153   4.121
  153TIP3    H1  465   0.990   1.093   4.177
  153TIP3    H2  466   1.087   1.096   4.061
  154TIP3   OH2  467   6.104   2.415   5.004
  154TIP3    H1  468   6.094   2.486   4.942
  154TIP3    H2  469   6.197   2.393   5.000
  155TIP3   OH2  470   5.779   5.756   2.179
  155TIP3    H1  471   5.857   5.769   2.233
  155TIP3    H2  472   5.797   5.806   2.099
  156TIP3   OH2  473   3.257   3.980   0.064
  156TIP3    H1  474   3.218   3.896   0.038
  156TIP3    H2  475   3.322   3.998  -0.005
  157TIP3   OH2  476   3.677   5.729   2.289
  157TIP3    H1  477   3.680   5.698   2.379
  157TIP3    H2  478   3.650   5.652   2.238
  158TIP3   OH2  479   1.972   4.688   3.639
  158TIP3    H1  480   1.962   4.638   3.719
  158TIP3    H2  481   2.049   4.651   3.596
  159TIP3   OH2  482   2.368   3.426   3.112
  159TIP3    H1  483   2.461   3.439   3.130
  159TIP3    H2  484   2.353   3.470   3.028
  160TIP3   OH2  485   0.830   3.020   2.434
  160TIP3    H1  486   0.862   3.012   2.344
  160TIP3    H2  487   0.745   3.063   2.425
  161TIP3   OH2  488   2.218   3.519   2.195
  161TIP3    H1  489   2.140   3.466   2.184
  161TIP3    H2  490   2.251   3.532   2.106
  162TIP3   OH2  491   6.021   4.779   1.659
  162TIP3    H1  492   6.033   4.766   1.565
  162TIP3    H2  493   5.988   4.868   1.667
  163TIP3   OH2  494   4.182   4.138   4.901
  163TIP3    H1  495   4.255   4.155   4.961
  163TIP3    H2  496   4.159   4.047   4.917
  164TIP3   OH2  497   1.745   2.693   0.613
  164TIP3    H1  498   1.754   2.617   0.557
  164TIP3    H2  499   1.737   2.657   0.702
  165TIP3   OH2  500   1.394   2.927   3.977
  165TIP3    H1  501   1.447   2.879   4.041
  165TIP3    H2  502   1.309   2.937   4.019
  166TIP3   OH2  503   0.389   3.616   2.834
  166TIP3    H1  504   0.454   3.653   2.893
  166TIP3    H2  505   0.408   3.522   2.834
  167TIP3   OH2  506   0.147   3.005   0.888
  167TIP3    H1  507   0.173   2.946   0.817
  167TIP3    H2  508   0.051   3.009   0.881
  168TIP3   OH2  509   3.120   0.833   4.675
  168TIP3    H1  510   3.144   0.919   4.640
  168TIP3    H2  511   3.111   0.778   4.597
  169TIP3   OH2  512   4.981   1.662   1.585
  169TIP3    H1  513   4.954   1.572   1.569
  169TIP3    H2  514   5.077   1.659   1.586
  170TIP3   OH2  515   3.669   1.442   3.406
  170TIP3    H1  516   3.731   1.381   3.367
  170TIP3    H2  517   3.696   1.447   3.498
  171TIP3   OH2  518   2.105   4.834   0.716
  171TIP3    H1  519   2.044   4.823   0.789
  171TIP3    H2  520   2.051   4.863   0.643
  172TIP3   OH2  521   3.888   1.425   0.857
  172TIP3    H1  522   3.795   1.449   0.857
  172TIP3    H2  523   3.931   1.495   0.906
  173TIP3   OH2  524   3.849   3.821   5.013
  173TIP3    H1  525   3.778   3.783   5.064
  173TIP3    H2  526   3.807   3.884   4.955
  174TIP3   OH2  527   3.837   1.899   5.011
  174TIP3    H1  528   3.852   1.806   5.026
  174TIP3    H2  529   3.750   1.916   5.048
  175TIP3   OH2  530   3.474   5.092   1.970
  175TIP3    H1  531   3.419   5.140   1.908
  175TIP3    H2  532   3.438   5.113   2.056
  176TIP3   OH2  533   2.206   2.748   3.725
  176TIP3    H1  534   2.296   2.772   3.706
  176TIP3    H2  535   2.165   2.829   3.755
  177TIP3   OH2  536   5.722   3.032   3.518
  177TIP3    H1  537   5.740   2.986   3.600
  177TIP3    H2  538   5.629   3.054   3.523
  178TIP3   OH2  539   1.181   4.854   5.092
  178TIP3    H1  540   1.229   4.772   5.104
  178TIP3    H2  541   1.136   4.843   5.008
  179TIP3   OH2  542   4.307   2.148   3.226
  179TIP3    H1  543   4.329   2.223   3.171
  179TIP3    H2  544   4.235   2.179   3.281
  180TIP3   OH2  545   5.904   4.915   0.383
  180TIP3    H1  546   5.960   4.840   0.399
  180TIP3    H2  547   5.824   4.897   0.432
  181TIP3   OH2  548   3.677   0.540   3.129
  181TIP3    H1  549   3.766   0.506   3.132
  181TIP3    H2  550   3.624   0.469   3.166
  182TIP3   OH2  551   0.069   5.391   2.453
  182TIP3    H1  552   0.100   5.481   2.461
  182TIP3    H2  553   0.144   5.343   2.417
  183TIP3   OH2  554   3.515   4.577   2.039
  183TIP3    H1  555   3.459   4.596   2.115
  183TIP3    H2  556   3.565   4.500   2.065
  184TIP3   OH2  557   3.817   2.757   5.025
  184TIP3    H1  558   3.829   2.721   4.937
  184TIP3    H2  559   3.869   2.700   5.081
  185TIP3   OH2  560   3.868   4.629   2.862
  185TIP3    H1  561   3.891   4.666   2.777
  185TIP3    H2  562   3.859   4.535   2.847
  186TIP3   OH2  563   4.996   4.477   3.429
  186TIP3    H1  564   4.983   4.571   3.417
  186TIP3    H2  565   4.942   4.437   3.361
  187TIP3   OH2  566   1.970   2.154   4.522
  187TIP3    H1  567   2.049   2.193   4.484
  187TIP3    H2  568   1.970   2.064   4.489
  188TIP3   OH2  569   0.215   0.416   2.767
  188TIP3    H1  570   0.124   0.385   2.774
  188TIP3    H2  571   0.210   0.510   2.784
  189TIP3   OH2  572   4.918   1.934   1.648
  189TIP3    H1  573   4.928   1.839   1.637
  189TIP3    H2  574   4.880   1.963   1.565
  190TIP3   OH2  575   1.828   4.841   0.194
  190TIP3    H1  576   1.921   4.838   0.173
  190TIP3    H2  577   1.786   4.793   0.123
  191TIP3   OH2  578   1.034   4.648   2.510
  191TIP3    H1  579   0.947   4.688   2.511
  191TIP3    H2  580   1.067   4.659   2.599
  192TIP3   OH2  581   2.035   0.205   3.918
  192TIP3    H1  582   2.076   0.253   3.846
  192TIP3    H2  583   1.959   0.163   3.878
  193TIP3   OH2  584   5.145   3.143   3.877
  193TIP3    H1  585   5.074   3.095   3.918
  193TIP3    H2  586   5.132   3.234   3.904
  194TIP3   OH2  587   2.515   3.954   4.855
  194TIP3    H1  588   2.532   3.980   4.945
  194TIP3    H2  589   2.592   3.981   4.806
  195TIP3   OH2  590   0.830   5.225   3.384
  195TIP3    H1  591   0.835   5.202   3.477
  195TIP3    H2  592   0.737   5.218   3.362
  196TIP3   OH2  593   3.997   5.410   0.859
  196TIP3    H1  594   4.049   5.451   0.928
  196TIP3    H2  595   3.993   5.318   0.883
  197TIP3   OH2  596   4.470  -0.078   2.705
  197TIP3    H1  597   4.521  -0.096   2.626
  197TIP3    H2  598   4.384  -0.052   2.672
  198TIP3   OH2  599   1.336   4.194   4.433
  198TIP3    H1  600   1.259   4.141   4.456
  198TIP3    H2  601   1.318   4.225   4.345
  199TIP3   OH2  602   1.819   1.134   4.334
  199TIP3    H1  603   1.861   1.101   4.413
  199TIP3    H2  604   1.885   1.189   4.292
  200TIP3   OH2  605   1.043   3.746   5.218
  200TIP3    H1  606   1.073   3.721   5.131
  200TIP3    H2  607   0.953   3.713   5.223
  201TIP3   OH2  608   2.690   4.392   0.370
  201TIP3    H1  609   2.647   4.416   0.452
  201TIP3    H2  610   2.618   4.376   0.309
  202TIP3   OH2  611   1.177   5.266   1.667
  202TIP3    H1  612   1.127   5.228   1.739
  202TIP3    H2  613   1.267   5.238   1.684
  203TIP3   OH2  614   3.821   3.695   0.289
  203TIP3    H1  615   3.837   3.666   0.199
  203TIP3    H2  616   3.894   3.659   0.339
  204TIP3   OH2  617   6.061   2.791   0.117
  204TIP3    H1  618   6.059   2.820   0.026
  204TIP3    H2  619   5.969   2.772   0.138
  205TIP3   OH2  620   2.042   1.814   4.177
  205TIP3    H1  621   1.983   1.864   4.120
  205TIP3    H2  622   2.067   1.738   4.126
  206TIP3   OH2  623   2.427   4.038   2.949
  206TIP3    H1  624   2.350   4.033   2.893
  206TIP3    H2  625   2.414   3.968   3.013
  207TIP3   OH2  626   1.777   1.449   1.468
  207TIP3    H1  627   1.849   1.400   1.507
  207TIP3    H2  628   1.700   1.393   1.478
  208TIP3   OH2  629   4.004   1.352   0.482
  208TIP3    H1  630   4.096   1.377   0.470
  208TIP3    H2  631   3.976   1.400   0.560
  209TIP3   OH2  632   2.191   0.998   2.031
  209TIP3    H1  633   2.154   0.991   1.942
  209TIP3    H2  634   2.225   0.910   2.049
  210TIP3   OH2  635   1.277   2.593   5.178
  210TIP3    H1  636   1.271   2.624   5.088
  210TIP3    H2  637   1.187   2.567   5.200
  211TIP3   OH2  638   4.734   4.964   0.879
  211TIP3    H1  639   4.700   4.876   0.864
  211TIP3    H2  640   4.672   5.004   0.941
  212TIP3   OH2  641   5.805   4.699   3.697
  212TIP3    H1  642   5.855   4.741   3.767
  212TIP3    H2  643   5.798   4.766   3.629
  213TIP3   OH2  644   0.616   2.400   3.512
  213TIP3    H1  645   0.565   2.344   3.571
  213TIP3    H2  646   0.684   2.438   3.568
  214TIP3   OH2  647   5.345   0.158   1.775
  214TIP3    H1  648   5.374   0.121   1.691
  214TIP3    H2  649   5.280   0.096   1.807
  215TIP3   OH2  650   2.241   3.652   1.876
  215TIP3    H1  651   2.241   3.715   1.948
  215TIP3    H2  652   2.327   3.663   1.835
  216TIP3   OH2  653   4.050   5.925   4.201
  216TIP3    H1  654   4.002   5.948   4.280
  216TIP3    H2  655   4.001   5.852   4.164
  217TIP3   OH2  656   5.862   4.817   3.034
  217TIP3    H1  657   5.864   4.722   3.041
  217TIP3    H2  658   5.886   4.835   2.943
  218TIP3   OH2  659   4.562   3.501   4.815
  218TIP3    H1  660   4.625   3.563   4.778
  218TIP3    H2  661   4.500   3.555   4.863
  219TIP3   OH2  662   3.228   0.300   2.569
  219TIP3    H1  663   3.259   0.210   2.558
  219TIP3    H2  664   3.133   0.295   2.552
  220TIP3   OH2  665   6.024   3.306   4.183
  220TIP3    H1  666   5.944   3.258   4.201
  220TIP3    H2  667   5.995   3.391   4.150
  221TIP3   OH2  668   0.717   3.550   5.059
  221TIP3    H1  669   0.740   3.457   5.062
  221TIP3    H2  670   0.622   3.551   5.049
  222TIP3   OH2  671   0.399   3.054   4.553
  222TIP3    H1  672   0.446   3.136   4.569
  222TIP3    H2  673   0.432   2.994   4.620
  223TIP3   OH2  674   0.410   0.134   2.702
  223TIP3    H1  675   0.398   0.096   2.615
  223TIP3    H2  676   0.408   0.059   2.762
  224TIP3   OH2  677   4.491   1.872   1.156
  224TIP3    H1  678   4.526   1.931   1.088
  224TIP3    H2  679   4.489   1.786   1.114
  225TIP3   OH2  680   4.708   5.634   4.119
  225TIP3    H1  681   4.622   5.673   4.103
  225TIP3    H2  682   4.771   5.696   4.082
  226TIP3   OH2  683   3.735   2.168   3.069
  226TIP3    H1  684   3.810   2.227   3.055
  226TIP3    H2  685   3.666   2.203   3.013
  227TIP3   OH2  686   1.573   0.388   1.607
  227TIP3    H1  687   1.592   0.354   1.694
  227TIP3    H2  688   1.640   0.350   1.551
  228TIP3   OH2  689   6.398   1.981   2.704
  228TIP3    H1  690   6.457   1.911   2.676
  228TIP3    H2  691   6.344   1.941   2.772
  229TIP3   OH2  692   1.485   0.766   2.937
  229TIP3    H1  693   1.564   0.731   2.978
  229TIP3    H2  694   1.419   0.763   3.007
  230TIP3   OH2  695   3.238   4.451   3.703
  230TIP3    H1  696   3.174   4.388   3.738
  230TIP3    H2  697   3.297   4.398   3.649
  231TIP3   OH2  698   5.368   4.404   2.449
  231TIP3    H1  699   5.315   4.427   2.526
  231TIP3    H2  700   5.329   4.323   2.417
  232TIP3   OH2  701   1.261   3.539   2.620
  232TIP3    H1  702   1.173   3.550   2.656
  232TIP3    H2  703   1.247   3.498   2.534
  233TIP3   OH2  704   3.157   2.976   1.888
  233TIP3    H1  705   3.124   2.902   1.838
  233TIP3    H2  706   3.130   3.053   1.837
  234TIP3   OH2  707   2.386   4.924   3.939
  234TIP3    H1  708   2.461   4.869   3.917
  234TIP3    H2  709   2.386   4.993   3.872
  235TIP3   OH2  710   1.883   1.434   4.905
  235TIP3    H1  711   1.793   1.404   4.890
  235TIP3    H2  712   1.873   1.522   4.942
  236TIP3   OH2  713   0.780   3.803   4.530
  236TIP3    H1  714   0.697   3.821   4.486
  236TIP3    H2  715   0.829   3.885   4.525
  237TIP3   OH2  716   1.442   1.378   0.591
  237TIP3    H1  717   1.373   1.436   0.559
  237TIP3    H2  718   1.506   1.436   0.631
  238TIP3   OH2  719   0.427   2.741   3.639
  238TIP3    H1  720   0.501   2.763   3.582
  238TIP3    H2  721   0.456   2.663   3.686
  239TIP3   OH2  722   6.331   5.971   2.385
  239TIP3    H1  723   6.341   6.043   2.323
  239TIP3    H2  724   6.415   5.924   2.381
  240TIP3   OH2  725   4.275   1.042   1.360
  240TIP3    H1  726   4.230   1.090   1.290
  240TIP3    H2  727   4.354   1.008   1.319
  241TIP3   OH2  728   4.231   0.989   0.998
  241TIP3    H1  729   4.202   1.054   1.062
  241TIP3    H2  730   4.222   1.034   0.914
  242TIP3   OH2  731   4.910   5.546   2.846
  242TIP3    H1  732   4.885   5.560   2.755
  242TIP3    H2  733   4.887   5.455   2.864
  243TIP3   OH2  734   1.362   0.202   4.717
  243TIP3    H1  735   1.369   0.196   4.812
  243TIP3    H2  736   1.289   0.262   4.702
  244TIP3   OH2  737   2.277   5.083   1.082
  244TIP3    H1  738   2.189   5.092   1.117
  244TIP3    H2  739   2.285   5.153   1.018
  245TIP3   OH2  740   2.213   2.205   4.386
  245TIP3    H1  741   2.231   2.294   4.418
  245TIP3    H2  742   2.295   2.178   4.345
  246TIP3   OH2  743   5.391   6.007   0.130
  246TIP3    H1  744   5.399   6.042   0.219
  246TIP3    H2  745   5.469   5.952   0.120
  247TIP3   OH2  746   3.372   2.664   4.813
  247TIP3    H1  747   3.370   2.607   4.890
  247TIP3    H2  748   3.280   2.678   4.791
  248TIP3   OH2  749   0.653   2.307   5.025
  248TIP3    H1  750   0.634   2.239   5.090
  248TIP3    H2  751   0.748   2.313   5.024
  249TIP3   OH2  752   0.114   0.717   0.076
  249TIP3    H1  753   0.033   0.710   0.026
  249TIP3    H2  754   0.162   0.788   0.034
  250TIP3   OH2  755   0.078   4.507   1.096
  250TIP3    H1  756   0.113   4.418   1.091
  250TIP3    H2  757  -0.017   4.496   1.092
  251TIP3   OH2  758   3.188   3.183   2.278
  251TIP3    H1  759   3.129   3.240   2.229
  251TIP3    H2  760   3.166   3.095   2.249
  252TIP3   OH2  761   5.423   0.121   2.082
  252TIP3    H1  762   5.512   0.089   2.084
  252TIP3    H2  763   5.397   0.114   1.990
  253TIP3   OH2  764   1.270   1.686   1.180
  253TIP3    H1  765   1.288   1.780   1.181
  253TIP3    H2  766   1.346   1.646   1.223
  254TIP3   OH2  767   5.031   0.845   2.571
  254TIP3    H1  768   5.063   0.757   2.553
  254TIP3    H2  769   5.049   0.858   2.664
  255TIP3   OH2  770   2.308   5.257  -0.032
  255TIP3    H1  771   2.374   5.188  -0.036
  255TIP3    H2  772   2.327   5.304   0.050
  256TIP3   OH2  773   0.758   4.888   2.458
  256TIP3    H1  774   0.835   4.945   2.464
  256TIP3    H2  775   0.683   4.947   2.467
  257TIP3   OH2  776   0.831   3.641   4.171
  257TIP3    H1  777   0.750   3.674   4.209
  257TIP3    H2  778   0.854   3.706   4.105
  258TIP3   OH2  779   2.729   1.613   3.444
  258TIP3    H1  780   2.818   1.613   3.409
  258TIP3    H2  781   2.740   1.621   3.538
  259TIP3   OH2  782   5.808   3.940   1.403
  259TIP3    H1  783   5.845   4.023   1.436
  259TIP3    H2  784   5.756   3.907   1.476
  260TIP3   OH2  785   5.012   0.812   1.946
  260TIP3    H1  786   4.995   0.754   1.871
  260TIP3    H2  787   5.060   0.756   2.008
  261TIP3   OH2  788   4.900   0.945   2.162
  261TIP3    H1  789   4.901   0.857   2.125
  261TIP3    H2  790   4.992   0.968   2.172
  262TIP3   OH2  791   1.391   4.584   1.165
  262TIP3    H1  792   1.328   4.621   1.227
  262TIP3    H2  793   1.337   4.545   1.096
  263TIP3   OH2  794   4.149   3.117   3.290
  263TIP3    H1  795   4.202   3.041   3.314
  263TIP3    H2  796   4.124   3.101   3.199
  264TIP3   OH2  797   1.151   1.130   2.091
  264TIP3    H1  798   1.117   1.209   2.050
  264TIP3    H2  799   1.114   1.058   2.039
  265TIP3   OH2  800   3.243   0.261   0.715
  265TIP3    H1  801   3.207   0.339   0.673
  265TIP3    H2  802   3.167   0.207   0.737
  266TIP3   OH2  803   4.632   1.298   2.415
  266TIP3    H1  804   4.537   1.302   2.409
  266TIP3    H2  805   4.652   1.204   2.411
  267TIP3   OH2  806   3.602   2.808   4.760
  267TIP3    H1  807   3.524   2.760   4.788
  267TIP3    H2  808   3.673   2.744   4.766
  268TIP3   OH2  809   1.776   5.883   0.274
  268TIP3    H1  810   1.710   5.850   0.213
  268TIP3    H2  811   1.748   5.973   0.292
  269TIP3   OH2  812   2.481   4.748   4.262
  269TIP3    H1  813   2.386   4.739   4.272
  269TIP3    H2  814   2.504   4.684   4.194
  270TIP3   OH2  815   1.057   1.325   3.093
  270TIP3    H1  816   0.994   1.392   3.120
  270TIP3    H2  817   1.101   1.300   3.174
  271TIP3   OH2  818   1.594   2.983   1.222
  271TIP3    H1  819   1.551   3.050   1.275
  271TIP3    H2  820   1.687   2.994   1.241
  272TIP3   OH2  821   4.676   4.557   2.930
  272TIP3    H1  822   4.639   4.621   2.991
  272TIP3    H2  823   4.653   4.591   2.844
  273TIP3   OH2  824   6.282   4.830   2.831
  273TIP3    H1  825   6.232   4.767   2.778
  273TIP3    H2  826   6.374   4.803   2.820
  274TIP3   OH2  827   2.797   2.247   4.770
  274TIP3    H1  828   2.777   2.223   4.680
  274TIP3    H2  829   2.749   2.329   4.784
  275TIP3   OH2  830   2.761   0.155   0.418
  275TIP3    H1  831   2.721   0.240   0.437
  275TIP3    H2  832   2.737   0.136   0.328
  276TIP3   OH2  833   3.160   0.896   2.966
  276TIP3    H1  834   3.089   0.930   2.911
  276TIP3    H2  835   3.181   0.811   2.928
  277TIP3   OH2  836   1.294   0.068   2.358
  277TIP3    H1  837   1.221   0.075   2.296
  277TIP3    H2  838   1.325   0.158   2.368
  278TIP3   OH2  839   6.369   5.909   4.929
  278TIP3    H1  840   6.364   5.838   4.865
  278TIP3    H2  841   6.422   5.976   4.886
  279TIP3   OH2  842   2.186   0.817   0.283
  279TIP3    H1  843   2.123   0.857   0.342
  279TIP3    H2  844   2.193   0.726   0.313
  280TIP3   OH2  845   5.650   2.441   3.367
  280TIP3    H1  846   5.573   2.392   3.397
  280TIP3    H2  847   5.723   2.381   3.384
  281TIP3   OH2  848   1.705   5.805   3.150
  281TIP3    H1  849   1.624   5.770   3.188
  281TIP3    H2  850   1.767   5.805   3.223
  282TIP3   OH2  851   2.836   3.651   0.950
  282TIP3    H1  852   2.828   3.556   0.958
  282TIP3    H2  853   2.925   3.665   0.920
  283TIP3   OH2  854   2.089   5.482   1.217
  283TIP3    H1  855   2.120   5.573   1.212
  283TIP3    H2  856   2.169   5.430   1.212
  284TIP3   OH2  857   4.089   4.894   1.545
  284TIP3    H1  858   4.132   4.827   1.493
  284TIP3    H2  859   4.159   4.952   1.573
  285TIP3   OH2  860   6.113   2.424   0.020
  285TIP3    H1  861   6.100   2.479  -0.057
  285TIP3    H2  862   6.026   2.412   0.056
  286TIP3   OH2  863   5.633   0.716   4.409
  286TIP3    H1  864   5.625   0.785   4.344
  286TIP3    H2  865   5.593   0.753   4.488
  287TIP3   OH2  866   1.312   3.905   1.059
  287TIP3    H1  867   1.394   3.904   1.109
  287TIP3    H2  868   1.300   3.814   1.031
  288TIP3   OH2  869   6.346   4.323   2.503
  288TIP3    H1  870   6.349   4.345   2.410
  288TIP3    H2  871   6.256   4.292   2.517
  289TIP3   OH2  872   0.102   3.482   2.223
  289TIP3    H1  873   0.039   3.456   2.290
  289TIP3    H2  874   0.087   3.420   2.151
  290TIP3   OH2  875   4.072   2.290   3.254
  290TIP3    H1  876   4.140   2.354   3.237
  290TIP3    H2  877   4.043   2.262   3.167
  291TIP3   OH2  878   0.193   2.919   3.477
  291TIP3    H1  879   0.217   2.828   3.457
  291TIP3    H2  880   0.154   2.914   3.564
  292TIP3   OH2  881   5.853   5.184   3.597
  292TIP3    H1  882   5.924   5.245   3.619
  292TIP3    H2  883   5.834   5.202   3.505
  293TIP3   OH2  884   3.838   0.742   0.790
  293TIP3    H1  885   3.895   0.711   0.719
  293TIP3    H2  886   3.817   0.663   0.840
  294TIP3   OH2  887   0.281   4.927   2.758
  294TIP3    H1  888   0.284   4.902   2.665
  294TIP3    H2  889   0.240   4.852   2.801
  295TIP3   OH2  890   2.819   5.884   1.204
  295TIP3    H1  891   2.836   5.961   1.259
  295TIP3    H2  892   2.803   5.920   1.117
  296TIP3   OH2  893   4.608   1.627   5.004
  296TIP3    H1  894   4.569   1.604   5.088
  296TIP3    H2  895   4.687   1.676   5.027
  297TIP3   OH2  896   3.030   2.703   4.276
  297TIP3    H1  897   3.035   2.672   4.185
  297TIP3    H2  898   2.949   2.666   4.309
  298TIP3   OH2  899   2.641   5.463   3.325
  298TIP3    H1  900   2.691   5.409   3.387
  298TIP3    H2  901   2.659   5.553   3.352
  299TIP3   OH2  902   1.750   1.222   1.694
  299TIP3    H1  903   1.718   1.307   1.726
  299TIP3    H2  904   1.697   1.157   1.740
  300TIP3   OH2  905   5.858   5.519   4.564
  300TIP3    H1  906   5.784   5.580   4.573
  300TIP3    H2  907   5.833   5.443   4.617
  301TIP3   OH2  908   5.098   5.724   4.002
  301TIP3    H1  909   5.153   5.693   3.930
  301TIP3    H2  910   5.158   5.733   4.076
  302TIP3   OH2  911   1.627   4.674   3.027
  302TIP3    H1  912   1.550   4.703   2.977
  302TIP3    H2  913   1.660   4.755   3.067
  303TIP3   OH2  914   0.753   2.620   4.314
  303TIP3    H1  915   0.823   2.624   4.379
  303TIP3    H2  916   0.700   2.698   4.332
  304TIP3   OH2  917   0.772   3.490   2.264
  304TIP3    H1  918   0.810   3.577   2.257
  304TIP3    H2  919   0.692   3.495   2.211
  305TIP3   OH2  920   1.357   0.701   1.224
  305TIP3    H1  921   1.413   0.775   1.202
  305TIP3    H2  922   1.316   0.725   1.307
  306TIP3   OH2  923   5.109   3.373   4.076
  306TIP3    H1  924   5.131   3.420   3.995
  306TIP3    H2  925   5.177   3.399   4.138
  307TIP3   OH2  926   3.643   5.380   2.540
  307TIP3    H1  927   3.570   5.418   2.491
  307TIP3    H2  928   3.722   5.414   2.496
  308TIP3   OH2  929   1.724   5.753   0.701
  308TIP3    H1  930   1.668   5.790   0.770
  308TIP3    H2  931   1.742   5.827   0.643
  309TIP3   OH2  932   0.631   5.484   2.764
  309TIP3    H1  933   0.598   5.563   2.722
  309TIP3    H2  934   0.570   5.467   2.836
  310TIP3   OH2  935   5.551   3.577   3.587
  310TIP3    H1  936   5.610   3.506   3.613
  310TIP3    H2  937   5.577   3.651   3.641
  311TIP3   OH2  938   1.137   0.610   3.236
  311TIP3    H1  939   1.078   0.553   3.286
  311TIP3    H2  940   1.218   0.611   3.287
  312TIP3   OH2  941  -0.033   5.937   0.238
  312TIP3    H1  942   0.044   5.992   0.224
  312TIP3    H2  943  -0.087   5.986   0.301
  313TIP3   OH2  944   2.021   5.063   1.192
  313TIP3    H1  945   1.942   5.012   1.175
  313TIP3    H2  946   2.006   5.146   1.146
  314TIP3   OH2  947   3.433   4.916   0.759
  314TIP3    H1  948   3.528   4.925   0.752
  314TIP3    H2  949   3.420   4.843   0.819
  315TIP3   OH2  950   5.148   4.102   0.405
  315TIP3    H1  951   5.188   4.170   0.459
  315TIP3    H2  952   5.220   4.041   0.386
  316TIP3   OH2  953   6.238   4.831   2.270
  316TIP3    H1  954   6.230   4.827   2.175
  316TIP3    H2  955   6.216   4.743   2.300
  317TIP3   OH2  956   2.938   5.545   0.298
  317TIP3    H1  957   2.921   5.619   0.357
  317TIP3    H2  958   2.859   5.491   0.304
  318TIP3   OH2  959   1.167   5.803   1.406
  318TIP3    H1  960   1.170   5.849   1.322
  318TIP3    H2  961   1.137   5.715   1.384
  319TIP3   OH2  962   2.058   2.427   0.036
  319TIP3    H1  963   2.040   2.372   0.112
  319TIP3    H2  964   2.045   2.369  -0.039
  320TIP3   OH2  965   0.921   3.352   2.456
  320TIP3    H1  966   0.887   3.407   2.385
  320TIP3    H2  967   1.011   3.333   2.431
  321TIP3   OH2  968   3.258   3.735   2.524
  321TIP3    H1  969   3.288   3.651   2.489
  321TIP3    H2  970   3.334   3.769   2.572
  322TIP3   OH2  971   5.143   4.166   0.780
  322TIP3    H1  972   5.072   4.215   0.739
  322TIP3    H2  973   5.220   4.221   0.768
  323TIP3   OH2  974   5.059   4.845   4.017
  323TIP3    H1  975   4.991   4.902   3.979
  323TIP3    H2  976   5.107   4.903   4.076
  324TIP3   OH2  977   5.926   3.231   1.822
  324TIP3    H1  978   6.000   3.190   1.867
  324TIP3    H2  979   5.955   3.321   1.805
  325TIP3   OH2  980   4.930   5.570   1.118
  325TIP3    H1  981   5.021   5.588   1.144
  325TIP3    H2  982   4.888   5.540   1.198
  326TIP3   OH2  983   4.595   0.752   3.008
  326TIP3    H1  984   4.531   0.759   2.937
  326TIP3    H2  985   4.675   0.721   2.965
  327TIP3   OH2  986   4.539   4.946   0.114
  327TIP3    H1  987   4.449   4.928   0.143
  327TIP3    H2  988   4.548   5.041   0.122
  328TIP3   OH2  989   0.266   1.811   3.850
  328TIP3    H1  990   0.262   1.884   3.911
  328TIP3    H2  991   0.359   1.796   3.835
  329TIP3   OH2  992   4.542   5.299   1.220
  329TIP3    H1  993   4.477   5.360   1.257
  329TIP3    H2  994   4.625   5.329   1.256
  330TIP3   OH2  995   2.599   5.347   0.971
  330TIP3    H1  996   2.512   5.314   0.948
  330TIP3    H2  997   2.602   5.434   0.931
  331TIP3   OH2  998   3.056   0.492   3.389
  331TIP3    H1  999   3.094   0.469   3.305
  331TIP3    H2 1000   3.122   0.547   3.431
  332TIP3   OH2 1001   1.084   4.858   2.310
  332TIP3    H1 1002   1.147   4.788   2.295
  332TIP3    H2 1003   1.044   4.837   2.395
  333TIP3   OH2 1004   2.978   5.813   2.567
  333TIP3    H1 1005   3.041   5.779   2.631
  333TIP3    H2 1006   3.002   5.905   2.555
  334TIP3   OH2 1007   4.290   3.141   0.603
  334TIP3    H1 1008   4.269   3.233   0.593
  334TIP3    H2 1009   4.287   3.105   0.515
  335TIP3   OH2 1010   1.560   0.261   5.145
  335TIP3    H1 1011   1.594   0.211   5.071
  335TIP3    H2 1012   1.583   0.351   5.126
  336TIP3   OH2 1013   3.201   5.331   0.812
  336TIP3    H1 1014   3.206   5.247   0.766
  336TIP3    H2 1015   3.191   5.396   0.742
  337TIP3   OH2 1016   5.393   3.198   4.129
  337TIP3    H1 1017   5.416   3.264   4.064
  337TIP3    H2 1018   5.336   3.244   4.191
  338TIP3   OH2 1019   6.138   0.831   1.681
  338TIP3    H1 1020   6.086   0.826   1.762
  338TIP3    H2 1021   6.214   0.884   1.704
  339TIP3   OH2 1022   3.280   0.430   0.963
  339TIP3    H1 1023   3.214   0.360   0.959
  339TIP3    H2 1024   3.364   0.385   0.953
  340TIP3   OH2 1025   3.249   0.400   2.298
  340TIP3    H1 1026   3.159   0.410   2.329
  340TIP3    H2 1027   3.299   0.374   2.375
  341TIP3   OH2 1028   3.636   3.128   1.883
  341TIP3    H1 1029   3.560   3.100   1.934
  341TIP3    H2 1030   3.623   3.088   1.797
  342TIP3   OH2 1031   1.188   0.991   1.755
  342TIP3    H1 1032   1.143   0.999   1.839
  342TIP3    H2 1033   1.198   0.896   1.742
  343TIP3   OH2 1034   1.308   1.761   0.231
  343TIP3    H1 1035   1.351   1.830   0.281
  343TIP3    H2 1036   1.215   1.768   0.254
  344TIP3   OH2 1037   4.797   2.965   1.048
  344TIP3    H1 1038   4.723   2.933   0.996
  344TIP3    H2 1039   4.864   2.988   0.983
  345TIP3   OH2 1040   5.613   5.962   1.147
  345TIP3    H1 1041   5.633   6.052   1.121
  345TIP3    H2 1042   5.590   5.918   1.064
  346TIP3   OH2 1043   2.662   2.811   4.363
  346TIP3    H1 1044   2.601   2.870   4.318
  346TIP3    H2 1045   2.737   2.866   4.383
  347TIP3   OH2 1046   2.147   3.603   3.984
  347TIP3    H1 1047   2.079   3.608   3.916
  347TIP3    H2 1048   2.134   3.682   4.036
  348TIP3   OH2 1049   1.385   1.043   2.833
  348TIP3    H1 1050   1.433   0.962   2.818
  348TIP3    H2 1051   1.443   1.095   2.889
  349TIP3   OH2 1052   0.491   5.827   3.567
  349TIP3    H1 1053   0.534   5.892   3.512
  349TIP3    H2 1054   0.398   5.844   3.556
  350TIP3   OH2 1055   5.131   1.449   1.127
  350TIP3    H1 1056   5.215   1.407   1.106
  350TIP3    H2 1057   5.154   1.525   1.180
  351TIP3   OH2 1058   2.441   5.525   3.872
  351TIP3    H1 1059   2.536   5.537   3.879
  351TIP3    H2 1060   2.420   5.551   3.782
  352TIP3   OH2 1061   0.714   3.402   4.263
  352TIP3    H1 1062   0.710   3.482   4.210
  352TIP3    H2 1063   0.768   3.425   4.338
  353TIP3   OH2 1064   2.720   2.529   1.766
  353TIP3    H1 1065   2.715   2.589   1.691
  353TIP3    H2 1066   2.785   2.464   1.741
  354TIP3   OH2 1067   0.973   2.418   0.070
  354TIP3    H1 1068   0.973   2.513   0.081
  354TIP3    H2 1069   1.041   2.402   0.005
  355TIP3   OH2 1070   4.912   4.142   1.608
  355TIP3    H1 1071   4.826   4.136   1.567
  355TIP3    H2 1072   4.916   4.067   1.667
  356TIP3   OH2 1073   5.580   2.983   4.851
  356TIP3    H1 1074   5.534   3.062   4.879
  356TIP3    H2 1075   5.592   2.994   4.756
  357TIP3   OH2 1076   0.707   1.937   0.112
  357TIP3    H1 1077   0.793   1.905   0.082
  357TIP3    H2 1078   0.701   2.026   0.077
  358TIP3   OH2 1079   0.663   2.965   0.262
  358TIP3    H1 1080   0.686   3.048   0.220
  358TIP3    H2 1081   0.732   2.951   0.327
  359TIP3   OH2 1082   2.458   0.098   3.318
  359TIP3    H1 1083   2.366   0.125   3.311
  359TIP3    H2 1084   2.489   0.095   3.228
  360TIP3   OH2 1085   0.723   2.498   3.957
  360TIP3    H1 1086   0.784   2.569   3.977
  360TIP3    H2 1087   0.726   2.442   4.034
  361TIP3   OH2 1088   3.378   2.814   3.770
  361TIP3    H1 1089   3.383   2.792   3.863
  361TIP3    H2 1090   3.469   2.813   3.740
  362TIP3   OH2 1091   5.880   5.343   0.342
  362TIP3    H1 1092   5.873   5.268   0.401
  362TIP3    H2 1093   5.950   5.318   0.281
  363TIP3   OH2 1094   4.645   4.297   3.026
  363TIP3    H1 1095   4.610   4.382   3.000
  363TIP3    H2 1096   4.635   4.242   2.948
  364TIP3   OH2 1097   5.679   4.251   1.280
  364TIP3    H1 1098   5.674   4.164   1.240
  364TIP3    H2 1099   5.752   4.245   1.341
  365TIP3   OH2 1100   2.274   3.563   0.764
  365TIP3    H1 1101   2.219   3.510   0.706
  365TIP3    H2 1102   2.265   3.653   0.731
  366TIP3   OH2 1103   3.618   3.771   0.439
  366TIP3    H1 1104   3.677   3.757   0.365
  366TIP3    H2 1105   3.556   3.838   0.408
  367TIP3   OH2 1106   3.197   5.453   3.977
  367TIP3    H1 1107   3.120   5.495   3.939
  367TIP3    H2 1108   3.213   5.501   4.058
  368TIP3   OH2 1109   3.406   4.910   2.477
  368TIP3    H1 1110   3.434   4.854   2.550
  368TIP3    H2 1111   3.392   4.850   2.404
  369TIP3   OH2 1112   5.629   1.487   4.657
  369TIP3    H1 1113   5.652   1.397   4.682
  369TIP3    H2 1114   5.538   1.496   4.686
  370TIP3   OH2 1115   3.398   4.267   1.107
  370TIP3    H1 1116   3.326   4.240   1.050
  370TIP3    H2 1117   3.378   4.358   1.129
  371TIP3   OH2 1118   2.237   4.989   4.146
  371TIP3    H1 1119   2.280   4.942   4.075
  371TIP3    H2 1120   2.177   4.924   4.185
  372TIP3   OH2 1121   4.333   2.363   1.135
  372TIP3    H1 1122   4.320   2.321   1.219
  372TIP3    H2 1123   4.385   2.442   1.155
  373TIP3   OH2 1124   0.297   5.927   2.589
  373TIP3    H1 1125   0.223   5.881   2.549
  373TIP3    H2 1126   0.258   5.979   2.659
  374TIP3   OH2 1127   2.667   1.157   4.753
  374TIP3    H1 1128   2.650   1.243   4.790
  374TIP3    H2 1129   2.599   1.146   4.686
  375TIP3   OH2 1130   3.912   2.941   4.024
  375TIP3    H1 1131   3.823   2.968   4.049
  375TIP3    H2 1132   3.923   2.975   3.936
  376TIP3   OH2 1133   6.073   1.926   2.456
  376TIP3    H1 1134   5.984   1.906   2.483
  376TIP3    H2 1135   6.093   2.009   2.501
  377TIP3   OH2 1136   5.634   3.784   4.273
  377TIP3    H1 1137   5.642   3.733   4.193
  377TIP3    H2 1138   5.574   3.734   4.328
  378TIP3   OH2 1139   1.452   4.864   1.206
  378TIP3    H1 1140   1.398   4.858   1.284
  378TIP3    H2 1141   1.441   4.780   1.162
  379TIP3   OH2 1142   4.369   5.421   0.030
  379TIP3    H1 1143   4.364   5.462  -0.056
  379TIP3    H2 1144   4.364   5.327   0.012
  380TIP3   OH2 1145   5.003   4.247   3.623
  380TIP3    H1 1146   4.929   4.210   3.671
  380TIP3    H2 1147   4.964   4.314   3.567
  381TIP3   OH2 1148   4.602   3.292   1.794
  381TIP3    H1 1149   4.557   3.372   1.822
  381TIP3    H2 1150   4.664   3.322   1.727
  382TIP3   OH2 1151   3.586   3.106   4.775
  382TIP3    H1 1152   3.623   3.018   4.767
  382TIP3    H2 1153   3.554   3.111   4.865
  383TIP3   OH2 1154   0.241   5.269   1.852
  383TIP3    H1 1155   0.312   5.210   1.827
  383TIP3    H2 1156   0.270   5.355   1.821
  384TIP3   OH2 1157   3.487   2.935   3.009
  384TIP3    H1 1158   3.428   2.913   3.081
  384TIP3    H2 1159   3.519   2.850   2.978
  385TIP3   OH2 1160   0.390   1.376   3.289
  385TIP3    H1 1161   0.398   1.466   3.257
  385TIP3    H2 1162   0.371   1.325   3.210
  386TIP3   OH2 1163   5.228   4.457   0.475
  386TIP3    H1 1164   5.216   4.507   0.394
  386TIP3    H2 1165   5.139   4.438   0.505
  387TIP3   OH2 1166   0.424   2.987   0.085
  387TIP3    H1 1167   0.479   2.927   0.034
  387TIP3    H2 1168   0.480   3.015   0.157
  388TIP3   OH2 1169   0.532   5.087   2.614
  388TIP3    H1 1170   0.546   5.137   2.533
  388TIP3    H2 1171   0.616   5.089   2.659
  389TIP3   OH2 1172   5.692   0.616   0.961
  389TIP3    H1 1173   5.752   0.659   0.901
  389TIP3    H2 1174   5.710   0.656   1.046
  390TIP3   OH2 1175   4.886   5.819   1.233
  390TIP3    H1 1176   4.916   5.736   1.196
  390TIP3    H2 1177   4.876   5.877   1.157
  391TIP3   OH2 1178   5.896   3.684   1.629
  391TIP3    H1 1179   5.909   3.676   1.534
  391TIP3    H2 1180   5.801   3.685   1.639
  392TIP3   OH2 1181   0.620   2.130   1.212
  392TIP3    H1 1182   0.653   2.126   1.122
  392TIP3    H2 1183   0.664   2.059   1.257
  393TIP3   OH2 1184   2.749   0.931   2.748
  393TIP3    H1 1185   2.707   0.846   2.737
  393TIP3    H2 1186   2.693   0.979   2.809
  394TIP3   OH2 1187   0.338   5.449   0.135
  394TIP3    H1 1188   0.398   5.524   0.141
  394TIP3    H2 1189   0.353   5.401   0.216
  395TIP3   OH2 1190   6.352   1.970   0.280
  395TIP3    H1 1191   6.315   2.059   0.279
  395TIP3    H2 1192   6.352   1.945   0.372
  396TIP3   OH2 1193   5.320   2.813   4.155
  396TIP3    H1 1194   5.243   2.870   4.156
  396TIP3    H2 1195   5.293   2.736   4.105
  397TIP3   OH2 1196   3.908   1.480   1.441
  397TIP3    H1 1197   3.989   1.488   1.492
  397TIP3    H2 1198   3.841   1.460   1.507
  398TIP3   OH2 1199   2.616   3.544   2.757
  398TIP3    H1 1200   2.689   3.487   2.781
  398TIP3    H2 1201   2.655   3.631   2.749
  399TIP3   OH2 1202   4.695   4.079   4.974
  399TIP3    H1 1203   4.703   4.155   5.031
  399TIP3    H2 1204   4.754   4.098   4.900
  400TIP3   OH2 1205   5.779   0.928   0.881
  400TIP3    H1 1206   5.872   0.945   0.894
  400TIP3    H2 1207   5.745   0.911   0.968
  401TIP3   OH2 1208   4.378   2.062   3.561
  401TIP3    H1 1209   4.452   2.006   3.537
  401TIP3    H2 1210   4.311   2.044   3.495
  402TIP3   OH2 1211   5.656   2.123   5.100
  402TIP3    H1 1212   5.604   2.195   5.138
  402TIP3    H2 1213   5.733   2.166   5.063
  403TIP3   OH2 1214   4.094   3.471   4.229
  403TIP3    H1 1215   4.027   3.426   4.179
  403TIP3    H2 1216   4.065   3.464   4.320
  404TIP3   OH2 1217   4.716   5.920   0.112
  404TIP3    H1 1218   4.640   5.928   0.053
  404TIP3    H2 1219   4.708   5.995   0.171
  405TIP3   OH2 1220   0.672   3.372   3.591
  405TIP3    H1 1221   0.695   3.280   3.579
  405TIP3    H2 1222   0.579   3.377   3.569
  406TIP3   OH2 1223   5.996   2.941   2.335
  406TIP3    H1 1224   5.932   2.915   2.402
  406TIP3    H2 1225   5.954   3.013   2.289
  407TIP3   OH2 1226   5.009   5.393   4.872
  407TIP3    H1 1227   4.978   5.399   4.782
  407TIP3    H2 1228   4.952   5.327   4.912
  408TIP3   OH2 1229   0.447   5.367   4.227
  408TIP3    H1 1230   0.418   5.308   4.297
  408TIP3    H2 1231   0.365   5.401   4.190
  409TIP3   OH2 1232   1.812   3.314   1.676
  409TIP3    H1 1233   1.782   3.226   1.702
  409TIP3    H2 1234   1.885   3.298   1.616
  410TIP3   OH2 1235   1.943   4.258   2.054
  410TIP3    H1 1236   1.936   4.332   1.992
  410TIP3    H2 1237   2.002   4.290   2.122
  411TIP3   OH2 1238   2.220   0.224   5.158
  411TIP3    H1 1239   2.292   0.163   5.176
  411TIP3    H2 1240   2.233   0.250   5.067
  412TIP3   OH2 1241   1.661   1.381   3.778
  412TIP3    H1 1242   1.607   1.303   3.788
  412TIP3    H2 1243   1.637   1.415   3.691
  413TIP3   OH2 1244   0.676   4.833   3.293
  413TIP3    H1 1245   0.674   4.889   3.371
  413TIP3    H2 1246   0.724   4.755   3.321
  414TIP3   OH2 1247   3.562   1.164   1.735
  414TIP3    H1 1248   3.547   1.185   1.827
  414TIP3    H2 1249   3.586   1.071   1.736
  415TIP3   OH2 1250   1.933   4.776   0.901
  415TIP3    H1 1251   1.908   4.866   0.882
  415TIP3    H2 1252   1.867   4.745   0.964
  416TIP3   OH2 1253   1.838   1.849   5.003
  416TIP3    H1 1254   1.933   1.847   5.006
  416TIP3    H2 1255   1.816   1.936   4.971
  417TIP3   OH2 1256   2.064   0.172   4.575
  417TIP3    H1 1257   2.029   0.093   4.616
  417TIP3    H2 1258   2.021   0.244   4.621
  418TIP3   OH2 1259   1.948   0.239   4.977
  418TIP3    H1 1260   2.040   0.249   4.956
  418TIP3    H2 1261   1.943   0.159   5.028
  419TIP3   OH2 1262   2.293   4.104   1.954
  419TIP3    H1 1263   2.278   4.197   1.937
  419TIP3    H2 1264   2.378   4.086   1.915
  420TIP3   OH2 1265   4.837   1.105   4.230
  420TIP3    H1 1266   4.915   1.055   4.206
  420TIP3    H2 1267   4.871   1.183   4.274
  421TIP3   OH2 1268   5.516   5.887   1.385
  421TIP3    H1 1269   5.550   5.922   1.302
  421TIP3    H2 1270   5.497   5.965   1.437
  422TIP3   OH2 1271   5.119   3.576   4.334
  422TIP3    H1 1272   5.048   3.568   4.398
  422TIP3    H2 1273   5.157   3.662   4.351
  423TIP3   OH2 1274   3.330   4.693   2.697
  423TIP3    H1 1275   3.359   4.744   2.772
  423TIP3    H2 1276   3.391   4.619   2.694
  424TIP3   OH2 1277  -0.003   2.628   3.606
  424TIP3    H1 1278  -0.022   2.651   3.515
  424TIP3    H2 1279   0.079   2.674   3.626
  425TIP3   OH2 1280   4.632   3.142   2.533
  425TIP3    H1 1281   4.708   3.198   2.549
  425TIP3    H2 1282   4.653   3.061   2.579
  426TIP3   OH2 1283   4.930   0.682   0.939
  426TIP3    H1 1284   4.846   0.701   0.897
  426TIP3    H2 1285   4.984   0.759   0.921
  427TIP3   OH2 1286   0.253   5.537   2.725
  427TIP3    H1 1287   0.336   5.564   2.764
  427TIP3    H2 1288   0.240   5.598   2.653
  428TIP3   OH2 1289   3.811   5.619   1.730
  428TIP3    H1 1290   3.754   5.635   1.655
  428TIP3    H2 1291   3.880   5.561   1.695
  429TIP3   OH2 1292   4.255   0.629   2.488
  429TIP3    H1 1293   4.333   0.652   2.438
  429TIP3    H2 1294   4.240   0.704   2.545
  430TIP3   OH2 1295   1.899   4.549   3.856
  430TIP3    H1 1296   1.918   4.529   3.948
  430TIP3    H2 1297   1.804   4.551   3.850
  431TIP3   OH2 1298   5.298   3.335   4.864
  431TIP3    H1 1299   5.262   3.399   4.925
  431TIP3    H2 1300   5.379   3.305   4.905
  432TIP3   OH2 1301   1.627   4.445   1.821
  432TIP3    H1 1302   1.711   4.475   1.854
  432TIP3    H2 1303   1.582   4.411   1.899
  433TIP3   OH2 1304   4.914   4.704   0.407
  433TIP3    H1 1305   4.869   4.755   0.340
  433TIP3    H2 1306   4.956   4.632   0.360
  434TIP3   OH2 1307   2.858   1.519   0.762
  434TIP3    H1 1308   2.844   1.435   0.718
  434TIP3    H2 1309   2.929   1.561   0.713
  435TIP3   OH2 1310   6.167   2.495   0.408
  435TIP3    H1 1311   6.108   2.561   0.369
  435TIP3    H2 1312   6.237   2.547   0.448
  436TIP3   OH2 1313   1.611   1.545   3.994
  436TIP3    H1 1314   1.619   1.472   3.932
  436TIP3    H2 1315   1.548   1.605   3.952
  437TIP3   OH2 1316   0.226   3.917   3.623
  437TIP3    H1 1317   0.273   3.835   3.638
  437TIP3    H2 1318   0.140   3.903   3.663
  438TIP3   OH2 1319   3.519   1.021   2.047
  438TIP3    H1 1320   3.500   0.986   2.134
  438TIP3    H2 1321   3.452   1.088   2.033
  439TIP3   OH2 1322   2.533   5.210   5.022
  439TIP3    H1 1323   2.539   5.201   5.117
  439TIP3    H2 1324   2.619   5.179   4.990
  440TIP3   OH2 1325   0.493   3.196   3.212
  440TIP3    H1 1326   0.419   3.192   3.272
  440TIP3    H2 1327   0.471   3.134   3.143
  441TIP3   OH2 1328   4.002   4.395   1.389
  441TIP3    H1 1329   3.962   4.465   1.440
  441TIP3    H2 1330   3.954   4.316   1.415
  442TIP3   OH2 1331   2.113   4.346   2.241
  442TIP3    H1 1332   2.185   4.401   2.210
  442TIP3    H2 1333   2.156   4.271   2.282
  443TIP3   OH2 1334   1.742   4.541   4.905
  443TIP3    H1 1335   1.786   4.504   4.981
  443TIP3    H2 1336   1.801   4.610   4.875
  444TIP3   OH2 1337   1.488   3.748   3.381
  444TIP3    H1 1338   1.399   3.727   3.353
  444TIP3    H2 1339   1.524   3.801   3.310
  445TIP3   OH2 1340   1.344   3.030   3.725
  445TIP3    H1 1341   1.363   2.972   3.799
  445TIP3    H2 1342   1.430   3.060   3.695
  446TIP3   OH2 1343   0.460   0.435   0.745
  446TIP3    H1 1344   0.378   0.388   0.730
  446TIP3    H2 1345   0.489   0.406   0.832
  447TIP3   OH2 1346   4.411   0.386   4.464
  447TIP3    H1 1347   4.501   0.354   4.475
  447TIP3    H2 1348   4.419   0.457   4.401
  448TIP3   OH2 1349   2.912   1.331   4.776
  448TIP3    H1 1350   2.889   1.405   4.719
  448TIP3    H2 1351   2.827   1.292   4.799
  449TIP3   OH2 1352   4.886   2.493   1.932
  449TIP3    H1 1353   4.894   2.583   1.964
  449TIP3    H2 1354   4.942   2.489   1.855
  450TIP3   OH2 1355   1.432   4.269   4.803
  450TIP3    H1 1356   1.496   4.237   4.867
  450TIP3    H2 1357   1.485   4.304   4.731
  451TIP3   OH2 1358   4.483   5.617   4.915
  451TIP3    H1 1359   4.481   5.639   4.822
  451TIP3    H2 1360   4.393   5.591   4.935
  452TIP3   OH2 1361   4.726   3.037   3.949
  452TIP3    H1 1362   4.755   3.101   3.885
  452TIP3    H2 1363   4.753   2.952   3.913
  453TIP3   OH2 1364   4.337   0.872   1.819
  453TIP3    H1 1365   4.269   0.911   1.874
  453TIP3    H2 1366   4.292   0.852   1.736
  454TIP3   OH2 1367   1.190   5.524   0.185
  454TIP3    H1 1368   1.137   5.599   0.159
  454TIP3    H2 1369   1.128   5.451   0.185
  455TIP3   OH2 1370   5.433   4.788   0.218
  455TIP3    H1 1371   5.516   4.824   0.186
  455TIP3    H2 1372   5.372   4.862   0.215
  456TIP3   OH2 1373   2.558   3.662   4.462
  456TIP3    H1 1374   2.509   3.710   4.395
  456TIP3    H2 1375   2.501   3.664   4.539
  457TIP3   OH2 1376   2.042   2.821   3.134
  457TIP3    H1 1377   2.064   2.832   3.042
  457TIP3    H2 1378   1.955   2.861   3.142
  458TIP3   OH2 1379   1.555   5.420   2.748
  458TIP3    H1 1380   1.524   5.370   2.673
  458TIP3    H2 1381   1.476   5.435   2.801
  459TIP3   OH2 1382   5.361   5.453   4.520
  459TIP3    H1 1383   5.282   5.409   4.489
  459TIP3    H2 1384   5.366   5.533   4.468
  460TIP3   OH2 1385   0.084   3.037   4.898
  460TIP3    H1 1386   0.110   2.982   4.972
  460TIP3    H2 1387   0.057   3.120   4.938
  461TIP3   OH2 1388   2.013   4.557   4.507
  461TIP3    H1 1389   1.943   4.495   4.484
  461TIP3    H2 1390   1.974   4.643   4.494
  462TIP3   OH2 1391   4.538   3.620   2.966
  462TIP3    H1 1392   4.544   3.582   3.053
  462TIP3    H2 1393   4.603   3.573   2.914
  463TIP3   OH2 1394   2.495   1.455   0.406
  463TIP3    H1 1395   2.518   1.381   0.463
  463TIP3    H2 1396   2.567   1.517   0.418
  464TIP3   OH2 1397   5.866   2.705   3.428
  464TIP3    H1 1398   5.870   2.743   3.516
  464TIP3    H2 1399   5.806   2.631   3.437
  465TIP3   OH2 1400   1.475   5.280   0.768
  465TIP3    H1 1401   1.424   5.202   0.790
  465TIP3    H2 1402   1.440   5.309   0.684
  466TIP3   OH2 1403   1.153   5.613   3.758
  466TIP3    H1 1404   1.158   5.691   3.812
  466TIP3    H2 1405   1.162   5.645   3.668
  467TIP3   OH2 1406   3.644   2.561   1.817
  467TIP3    H1 1407   3.614   2.610   1.893
  467TIP3    H2 1408   3.716   2.614   1.782
  468TIP3   OH2 1409   0.204   3.069   2.061
  468TIP3    H1 1410   0.194   3.025   2.146
  468TIP3    H2 1411   0.263   3.012   2.012
  469TIP3   OH2 1412   4.523   5.476   0.979
  469TIP3    H1 1413   4.514   5.571   0.979
  469TIP3    H2 1414   4.561   5.454   1.064
  470TIP3   OH2 1415   4.769   2.295   0.985
  470TIP3    H1 1416   4.686   2.258   1.016
  470TIP3    H2 1417   4.835   2.231   1.011
  471TIP3   OH2 1418   1.080   0.686   2.298
  471TIP3    H1 1419   1.068   0.705   2.205
  471TIP3    H2 1420   1.135   0.758   2.329
  472TIP3   OH2 1421   2.394   1.439   0.145
  472TIP3    H1 1422   2.378   1.524   0.105
  472TIP3    H2 1423   2.438   1.460   0.228
  473TIP3   OH2 1424   0.983   4.938   1.171
  473TIP3    H1 1425   0.961   4.855   1.129
  473TIP3    H2 1426   1.078   4.945   1.162
  474TIP3   OH2 1427   6.162   1.952   3.726
  474TIP3    H1 1428   6.078   1.914   3.753
  474TIP3    H2 1429   6.223   1.924   3.793
  475TIP3   OH2 1430   4.759   5.641   0.115
  475TIP3    H1 1431   4.738   5.643   0.208
  475TIP3    H2 1432   4.788   5.729   0.094
  476TIP3   OH2 1433   3.503   4.221   3.099
  476TIP3    H1 1434   3.589   4.184   3.077
  476TIP3    H2 1435   3.443   4.147   3.094
  477TIP3   OH2 1436   2.522   0.831   5.010
  477TIP3    H1 1437   2.516   0.801   4.919
  477TIP3    H2 1438   2.610   0.867   5.018
  478TIP3   OH2 1439   5.823   4.248   4.011
  478TIP3    H1 1440   5.895   4.213   3.958
  478TIP3    H2 1441   5.784   4.315   3.956
  479TIP3   OH2 1442   5.946   2.701   1.739
  479TIP3    H1 1443   6.008   2.633   1.711
  479TIP3    H2 1444   5.997   2.755   1.800
  480TIP3   OH2 1445   2.586   2.639   5.014
  480TIP3    H1 1446   2.584   2.614   5.106
  480TIP3    H2 1447   2.560   2.731   5.013
  481TIP3   OH2 1448   5.948   0.939   0.147
  481TIP3    H1 1449   6.011   0.869   0.163
  481TIP3    H2 1450   5.894   0.906   0.075
  482TIP3   OH2 1451   0.382   0.311   1.064
  482TIP3    H1 1452   0.295   0.287   1.095
  482TIP3    H2 1453   0.382   0.407   1.061
  483TIP3   OH2 1454   5.201   4.489   1.700
  483TIP3    H1 1455   5.272   4.553   1.712
  483TIP3    H2 1456   5.247   4.406   1.686
  484TIP3   OH2 1457   0.180   1.706   3.598
  484TIP3    H1 1458   0.161   1.794   3.564
  484TIP3    H2 1459   0.218   1.721   3.684
  485TIP3   OH2 1460   2.643   1.236   1.175
  485TIP3    H1 1461   2.612   1.162   1.228
  485TIP3    H2 1462   2.572   1.252   1.113
  486TIP3   OH2 1463   3.637   1.496   4.300
  486TIP3    H1 1464   3.569   1.500   4.367
  486TIP3    H2 1465   3.704   1.557   4.330
  487TIP3   OH2 1466   4.558   5.147   3.090
  487TIP3    H1 1467   4.567   5.063   3.046
  487TIP3    H2 1468   4.594   5.210   3.028
  488TIP3   OH2 1469   2.713   0.074   0.687
  488TIP3    H1 1470   2.715   0.125   0.607
  488TIP3    H2 1471   2.718  -0.017   0.658
  489TIP3   OH2 1472   4.423   0.309   4.131
  489TIP3    H1 1473   4.427   0.348   4.044
  489TIP3    H2 1474   4.330   0.304   4.152
  490TIP3   OH2 1475   3.404   1.749   1.342
  490TIP3    H1 1476   3.450   1.739   1.425
  490TIP3    H2 1477   3.436   1.833   1.307
  491TIP3   OH2 1478   0.743   5.047   1.266
  491TIP3    H1 1479   0.736   5.133   1.224
  491TIP3    H2 1480   0.819   5.007   1.225
  492TIP3   OH2 1481   4.690   5.074   3.608
  492TIP3    H1 1482   4.622   5.116   3.555
  492TIP3    H2 1483   4.745   5.146   3.639
  493TIP3   OH2 1484   4.082   1.906   0.430
  493TIP3    H1 1485   3.997   1.923   0.469
  493TIP3    H2 1486   4.113   1.992   0.400
  494TIP3   OH2 1487   0.606   4.816   1.990
  494TIP3    H1 1488   0.595   4.737   1.938
  494TIP3    H2 1489   0.652   4.787   2.070
  495TIP3   OH2 1490   3.624   4.936   3.184
  495TIP3    H1 1491   3.551   4.988   3.217
  495TIP3    H2 1492   3.612   4.935   3.089
  496TIP3   OH2 1493   1.575   3.516   2.086
  496TIP3    H1 1494   1.530   3.577   2.026
  496TIP3    H2 1495   1.628   3.461   2.029
  497TIP3   OH2 1496   5.470   2.827   3.727
  497TIP3    H1 1497   5.510   2.755   3.777
  497TIP3    H2 1498   5.435   2.886   3.794
  498TIP3   OH2 1499   2.781   1.093   0.136
  498TIP3    H1 1500   2.797   1.023   0.073
  498TIP3    H2 1501   2.791   1.053   0.222
  499TIP3   OH2 1502   3.065   0.974   1.775
  499TIP3    H1 1503   3.050   0.882   1.755
  499TIP3    H2 1504   3.154   0.992   1.744
  500TIP3   OH2 1505   4.163   3.578   0.272
  500TIP3    H1 1506   4.249   3.556   0.308
  500TIP3    H2 1507   4.162   3.538   0.185
  501TIP3   OH2 1508   2.394   1.133   2.645
  501TIP3    H1 1509   2.476   1.173   2.674
  501TIP3    H2 1510   2.419   1.046   2.615
  502TIP3   OH2 1511   3.850   0.452   3.686
  502TIP3    H1 1512   3.873   0.480   3.774
  502TIP3    H2 1513   3.791   0.378   3.699
  503TIP3   OH2 1514   1.639   2.339   1.355
  503TIP3    H1 1515   1.714   2.297   1.312
  503TIP3    H2 1516   1.575   2.352   1.285
  504TIP3   OH2 1517   0.127   5.221   0.395
  504TIP3    H1 1518   0.142   5.314   0.410
  504TIP3    H2 1519   0.185   5.199   0.322
  505TIP3   OH2 1520   1.698   2.862   3.124
  505TIP3    H1 1521   1.688   2.777   3.165
  505TIP3    H2 1522   1.700   2.924   3.196
  506TIP3   OH2 1523   2.923   5.951   4.224
  506TIP3    H1 1524   2.926   5.946   4.128
  506TIP3    H2 1525   2.829   5.946   4.245
  507TIP3   OH2 1526   2.197   1.508   0.762
  507TIP3    H1 1527   2.232   1.533   0.677
  507TIP3    H2 1528   2.189   1.590   0.810
  508TIP3   OH2 1529   5.090   0.628   4.161
  508TIP3    H1 1530   5.016   0.568   4.175
  508TIP3    H2 1531   5.133   0.633   4.247
  509TIP3   OH2 1532   1.296   3.348   1.931
  509TIP3    H1 1533   1.243   3.407   1.984
  509TIP3    H2 1534   1.335   3.405   1.864
  510TIP3   OH2 1535   2.647   2.049   1.843
  510TIP3    H1 1536   2.650   2.053   1.748
  510TIP3    H2 1537   2.730   2.007   1.868
  511TIP3   OH2 1538   3.318   1.922   4.067
  511TIP3    H1 1539   3.338   2.013   4.048
  511TIP3    H2 1540   3.381   1.896   4.133
  512TIP3   OH2 1541   1.089   3.319   2.167
  512TIP3    H1 1542   1.085   3.385   2.097
  512TIP3    H2 1543   1.086   3.235   2.121
  513TIP3   OH2 1544   0.525   2.305   0.240
  513TIP3    H1 1545   0.492   2.233   0.186
  513TIP3    H2 1546   0.451   2.328   0.296
  514TIP3   OH2 1547   3.856   2.468   4.281
  514TIP3    H1 1548   3.846   2.446   4.188
  514TIP3    H2 1549   3.950   2.457   4.297
  515TIP3   OH2 1550   1.390   1.456   2.408
  515TIP3    H1 1551   1.325   1.419   2.348
  515TIP3    H2 1552   1.471   1.456   2.357
  516TIP3   OH2 1553   2.491   1.499   2.858
  516TIP3    H1 1554   2.421   1.460   2.911
  516TIP3    H2 1555   2.527   1.426   2.808
  517TIP3   OH2 1556   3.476   2.112   2.463
  517TIP3    H1 1557   3.399   2.161   2.432
  517TIP3    H2 1558   3.534   2.109   2.387
  518TIP3   OH2 1559   6.018   4.999   2.568
  518TIP3    H1 1560   5.955   5.030   2.504
  518TIP3    H2 1561   6.100   4.989   2.519
  519TIP3   OH2 1562   1.151   2.493   1.836
  519TIP3    H1 1563   1.164   2.559   1.905
  519TIP3    H2 1564   1.056   2.482   1.831
  520TIP3   OH2 1565   5.917   3.544   2.740
  520TIP3    H1 1566   5.874   3.528   2.824
  520TIP3    H2 1567   5.994   3.486   2.741
  521TIP3   OH2 1568   5.260   3.254   4.571
  521TIP3    H1 1569   5.320   3.260   4.646
  521TIP3    H2 1570   5.174   3.270   4.609
  522TIP3   OH2 1571   1.899   1.318   1.113
  522TIP3    H1 1572   1.853   1.235   1.108
  522TIP3    H2 1573   1.987   1.296   1.141
  523TIP3   OH2 1574   6.337   0.185   0.400
  523TIP3    H1 1575   6.429   0.163   0.386
  523TIP3    H2 1576   6.310   0.133   0.476
  524TIP3   OH2 1577   2.944   4.744   4.853
  524TIP3    H1 1578   2.872   4.682   4.866
  524TIP3    H2 1579   2.902   4.826   4.831
  525TIP3   OH2 1580   5.571   0.226   3.277
  525TIP3    H1 1581   5.602   0.187   3.359
  525TIP3    H2 1582   5.648   0.274   3.243
  526TIP3   OH2 1583   0.743   0.422   4.236
  526TIP3    H1 1584   0.723   0.494   4.295
  526TIP3    H2 1585   0.672   0.423   4.171
  527TIP3   OH2 1586   5.594   5.760   0.103
  527TIP3    H1 1587   5.556   5.687   0.055
  527TIP3    H2 1588   5.684   5.733   0.121
  528TIP3   OH2 1589   6.243   3.661   1.440
  528TIP3    H1 1590   6.329   3.697   1.418
  528TIP3    H2 1591   6.186   3.687   1.368
  529TIP3   OH2 1592   3.700   3.839   4.217
  529TIP3    H1 1593   3.775   3.875   4.169
  529TIP3    H2 1594   3.717   3.863   4.308
  530TIP3   OH2 1595   4.301   0.355   3.797
  530TIP3    H1 1596   4.346   0.437   3.815
  530TIP3    H2 1597   4.371   0.294   3.772
  531TIP3   OH2 1598   0.831   0.226   0.741
  531TIP3    H1 1599   0.773   0.246   0.815
  531TIP3    H2 1600   0.907   0.282   0.755
  532TIP3   OH2 1601   2.429   3.801   2.241
  532TIP3    H1 1602   2.353   3.749   2.217
  532TIP3    H2 1603   2.456   3.766   2.326
  533TIP3   OH2 1604   3.063   0.802   0.685
  533TIP3    H1 1605   3.092   0.771   0.771
  533TIP3    H2 1606   3.093   0.892   0.680
  534TIP3   OH2 1607   6.146   5.121   0.704
  534TIP3    H1 1608   6.222   5.100   0.650
  534TIP3    H2 1609   6.084   5.049   0.688
  535TIP3   OH2 1610   2.055   4.832   2.641
  535TIP3    H1 1611   2.097   4.762   2.691
  535TIP3    H2 1612   1.992   4.871   2.702
  536TIP3   OH2 1613   5.553   4.078   0.825
  536TIP3    H1 1614   5.634   4.031   0.843
  536TIP3    H2 1615   5.508   4.025   0.759
  537TIP3   OH2 1616   1.765   1.978   1.988
  537TIP3    H1 1617   1.687   1.938   2.027
  537TIP3    H2 1618   1.767   2.067   2.024
  538TIP3   OH2 1619   4.645   1.019   1.417
  538TIP3    H1 1620   4.555   1.045   1.396
  538TIP3    H2 1621   4.652   1.031   1.511
  539TIP3   OH2 1622   3.870   4.111   1.196
  539TIP3    H1 1623   3.808   4.177   1.227
  539TIP3    H2 1624   3.893   4.140   1.108
  540TIP3   OH2 1625   5.580   3.880   5.152
  540TIP3    H1 1626   5.613   3.796   5.121
  540TIP3    H2 1627   5.606   3.943   5.085
  541TIP3   OH2 1628   3.943   1.619   2.052
  541TIP3    H1 1629   4.016   1.567   2.084
  541TIP3    H2 1630   3.978   1.664   1.974
  542TIP3   OH2 1631   3.716   0.708   0.228
  542TIP3    H1 1632   3.717   0.621   0.189
  542TIP3    H2 1633   3.695   0.767   0.155
  543TIP3   OH2 1634   6.393   3.895   4.110
  543TIP3    H1 1635   6.450   3.828   4.145
  543TIP3    H2 1636   6.396   3.883   4.015
  544TIP3   OH2 1637   0.587   3.515   0.939
  544TIP3    H1 1638   0.619   3.465   0.864
  544TIP3    H2 1639   0.634   3.479   1.014
  545TIP3   OH2 1640   4.917   3.912   3.433
  545TIP3    H1 1641   5.008   3.920   3.403
  545TIP3    H2 1642   4.923   3.865   3.516
  546TIP3   OH2 1643   6.294   4.169   4.124
  546TIP3    H1 1644   6.320   4.077   4.126
  546TIP3    H2 1645   6.272   4.186   4.033
  547TIP3   OH2 1646   3.894   4.204   3.634
  547TIP3    H1 1647   3.955   4.136   3.665
  547TIP3    H2 1648   3.889   4.266   3.707
  548TIP3   OH2 1649   0.612   2.785   3.148
  548TIP3    H1 1650   0.577   2.854   3.093
  548TIP3    H2 1651   0.540   2.723   3.158
  549TIP3   OH2 1652   0.441   3.533   4.449
  549TIP3    H1 1653   0.381   3.498   4.515
  549TIP3    H2 1654   0.460   3.459   4.391
  550TIP3   OH2 1655   3.797   0.394   2.374
  550TIP3    H1 1656   3.815   0.483   2.405
  550TIP3    H2 1657   3.878   0.368   2.330
  551TIP3   OH2 1658   2.875   1.930   1.951
  551TIP3    H1 1659   2.920   1.850   1.923
  551TIP3    H2 1660   2.945   1.994   1.961
  552TIP3   OH2 1661   1.611   2.879   4.655
  552TIP3    H1 1662   1.546   2.884   4.585
  552TIP3    H2 1663   1.652   2.793   4.645
  553TIP3   OH2 1664   0.049   3.686   4.920
  553TIP3    H1 1665   0.005   3.771   4.914
  553TIP3    H2 1666   0.113   3.688   4.848
  554TIP3   OH2 1667   5.714   3.901   2.095
  554TIP3    H1 1668   5.669   3.985   2.104
  554TIP3    H2 1669   5.687   3.869   2.009
  555TIP3   OH2 1670   0.648   0.366   4.766
  555TIP3    H1 1671   0.679   0.341   4.679
  555TIP3    H2 1672   0.640   0.462   4.761
  556TIP3   OH2 1673   6.163   5.776   3.033
  556TIP3    H1 1674   6.229   5.786   2.964
  556TIP3    H2 1675   6.087   5.826   3.001
  557TIP3   OH2 1676   4.935   1.760   1.186
  557TIP3    H1 1677   4.968   1.681   1.228
  557TIP3    H2 1678   4.885   1.804   1.254
  558TIP3   OH2 1679   0.541   4.587   1.828
  558TIP3    H1 1680   0.579   4.501   1.847
  558TIP3    H2 1681   0.549   4.596   1.733
  559TIP3   OH2 1682   1.311   0.289   2.550
  559TIP3    H1 1683   1.267   0.343   2.484
  559TIP3    H2 1684   1.362   0.350   2.602
  560TIP3   OH2 1685   1.597   0.757   3.240
  560TIP3    H1 1686   1.599   0.847   3.209
  560TIP3    H2 1687   1.684   0.742   3.278
  561TIP3   OH2 1688   0.466   5.775   1.286
  561TIP3    H1 1689   0.549   5.729   1.300
  561TIP3    H2 1690   0.426   5.731   1.210
  562TIP3   OH2 1691   1.907   3.130   3.587
  562TIP3    H1 1692   1.931   3.107   3.677
  562TIP3    H2 1693   1.830   3.075   3.569
  563TIP3   OH2 1694   0.726   5.041   0.975
  563TIP3    H1 1695   0.715   4.956   1.019
  563TIP3    H2 1696   0.812   5.036   0.933
  564TIP3   OH2 1697   2.042   2.220   2.478
  564TIP3    H1 1698   2.065   2.270   2.557
  564TIP3    H2 1699   2.115   2.158   2.468
  565TIP3   OH2 1700   0.635   1.122   2.714
  565TIP3    H1 1701   0.558   1.081   2.675
  565TIP3    H2 1702   0.621   1.114   2.808
  566TIP3   OH2 1703   0.479   5.312   0.670
  566TIP3    H1 1704   0.567   5.329   0.703
  566TIP3    H2 1705   0.421   5.343   0.740
  567TIP3   OH2 1706   4.537   5.736   1.052
  567TIP3    H1 1707   4.508   5.726   1.143
  567TIP3    H2 1708   4.571   5.825   1.047
  568TIP3   OH2 1709   0.257   3.364   4.087
  568TIP3    H1 1710   0.270   3.345   3.994
  568TIP3    H2 1711   0.165   3.344   4.103
  569TIP3   OH2 1712   2.498   3.379   2.295
  569TIP3    H1 1713   2.403   3.381   2.285
  569TIP3    H2 1714   2.518   3.456   2.349
  570TIP3   OH2 1715   2.833   2.680   1.334
  570TIP3    H1 1716   2.886   2.634   1.268
  570TIP3    H2 1717   2.751   2.630   1.337
  571TIP3   OH2 1718   3.693   4.528   4.504
  571TIP3    H1 1719   3.655   4.512   4.418
  571TIP3    H2 1720   3.784   4.497   4.496
  572TIP3   OH2 1721   2.091   1.041   4.013
  572TIP3    H1 1722   2.156   1.050   3.943
  572TIP3    H2 1723   2.133   0.982   4.077
  573TIP3   OH2 1724   6.032   5.296   4.802
  573TIP3    H1 1725   5.952   5.342   4.775
  573TIP3    H2 1726   6.018   5.206   4.774
  574TIP3   OH2 1727   5.848   2.626   0.748
  574TIP3    H1 1728   5.939   2.656   0.754
  574TIP3    H2 1729   5.821   2.650   0.659
  575TIP3   OH2 1730   0.877   5.236   4.261
  575TIP3    H1 1731   0.872   5.141   4.271
  575TIP3    H2 1732   0.909   5.249   4.172
  576TIP3   OH2 1733   0.141   0.212   3.411
  576TIP3    H1 1734   0.061   0.186   3.457
  576TIP3    H2 1735   0.110   0.255   3.331
  577TIP3   OH2 1736   1.314   2.297   0.983
  577TIP3    H1 1737   1.285   2.284   0.893
  577TIP3    H2 1738   1.395   2.248   0.990
  578TIP3   OH2 1739   5.055   1.053   2.812
  578TIP3    H1 1740   4.961   1.037   2.800
  578TIP3    H2 1741   5.092   0.967   2.829
  579TIP3   OH2 1742   0.986   0.289   2.959
  579TIP3    H1 1743   0.994   0.365   2.902
  579TIP3    H2 1744   1.076   0.255   2.966
  580TIP3   OH2 1745   2.600   5.226   4.423
  580TIP3    H1 1746   2.594   5.242   4.517
  580TIP3    H2 1747   2.672   5.282   4.393
  581TIP3   OH2 1748   6.333   4.698   3.487
  581TIP3    H1 1749   6.371   4.614   3.511
  581TIP3    H2 1750   6.349   4.754   3.562
  582TIP3   OH2 1751   2.239   1.868   2.112
  582TIP3    H1 1752   2.161   1.911   2.148
  582TIP3    H2 1753   2.205   1.804   2.050
  583TIP3   OH2 1754   1.526   3.274   0.027
  583TIP3    H1 1755   1.531   3.189   0.070
  583TIP3    H2 1756   1.615   3.309   0.034
  584TIP3   OH2 1757   5.648   1.263   4.154
  584TIP3    H1 1758   5.625   1.303   4.238
  584TIP3    H2 1759   5.729   1.306   4.128
  585TIP3   OH2 1760   4.046   5.083   0.202
  585TIP3    H1 1761   3.978   5.149   0.186
  585TIP3    H2 1762   4.097   5.119   0.274
  586TIP3   OH2 1763   5.077   1.976   3.451
  586TIP3    H1 1764   5.051   1.886   3.434
  586TIP3    H2 1765   5.172   1.977   3.442
  587TIP3   OH2 1766   3.828   4.427   3.789
  587TIP3    H1 1767   3.739   4.405   3.816
  587TIP3    H2 1768   3.816   4.488   3.716
  588TIP3   OH2 1769   4.218   1.226   2.698
  588TIP3    H1 1770   4.131   1.236   2.737
  588TIP3    H2 1771   4.219   1.288   2.626
  589TIP3   OH2 1772   4.820   2.011   3.810
  589TIP3    H1 1773   4.776   2.088   3.847
  589TIP3    H2 1774   4.788   1.938   3.862
  590TIP3   OH2 1775   3.289   2.682   0.924
  590TIP3    H1 1776   3.363   2.627   0.899
  590TIP3    H2 1777   3.239   2.694   0.844
  591TIP3   OH2 1778   2.673   4.545   4.491
  591TIP3    H1 1779   2.597   4.508   4.446
  591TIP3    H2 1780   2.716   4.598   4.424
  592TIP3   OH2 1781   0.562   0.716   1.820
  592TIP3    H1 1782   0.525   0.628   1.830
  592TIP3    H2 1783   0.657   0.701   1.822
  593TIP3   OH2 1784   6.039   1.653   4.632
  593TIP3    H1 1785   6.042   1.579   4.571
  593TIP3    H2 1786   5.946   1.674   4.639
  594TIP3   OH2 1787   2.231   3.935   0.346
  594TIP3    H1 1788   2.151   3.971   0.384
  594TIP3    H2 1789   2.295   4.005   0.354
  595TIP3   OH2 1790   4.694   4.060   3.385
  595TIP3    H1 1791   4.764   4.004   3.418
  595TIP3    H2 1792   4.704   4.058   3.290
  596TIP3   OH2 1793   1.206   0.606   1.430
  596TIP3    H1 1794   1.142   0.674   1.407
  596TIP3    H2 1795   1.169   0.525   1.395
  597TIP3   OH2 1796   3.418   3.411   3.430
  597TIP3    H1 1797   3.472   3.442   3.358
  597TIP3    H2 1798   3.339   3.464   3.425
  598TIP3   OH2 1799   0.243   3.243   3.636
  598TIP3    H1 1800   0.263   3.228   3.544
  598TIP3    H2 1801   0.279   3.168   3.682
  599TIP3   OH2 1802   2.637   4.455   3.109
  599TIP3    H1 1803   2.635   4.545   3.075
  599TIP3    H2 1804   2.562   4.413   3.066
  600TIP3   OH2 1805   5.659   2.094   4.524
  600TIP3    H1 1806   5.747   2.069   4.552
  600TIP3    H2 1807   5.645   2.180   4.564
  601TIP3   OH2 1808   5.376   2.966   1.281
  601TIP3    H1 1809   5.422   2.932   1.358
  601TIP3    H2 1810   5.437   2.952   1.209
  602TIP3   OH2 1811   1.262   4.697   0.070
  602TIP3    H1 1812   1.281   4.788   0.091
  602TIP3    H2 1813   1.298   4.684  -0.018
  603TIP3   OH2 1814   3.983   4.826   5.177
  603TIP3    H1 1815   4.069   4.864   5.194
  603TIP3    H2 1816   3.999   4.759   5.111
  604TIP3   OH2 1817   2.718   3.091   4.056
  604TIP3    H1 1818   2.782   3.025   4.030
  604TIP3    H2 1819   2.639   3.070   4.007
  605TIP3   OH2 1820   0.240   5.199   4.690
  605TIP3    H1 1821   0.283   5.258   4.628
  605TIP3    H2 1822   0.154   5.238   4.705
  606TIP3   OH2 1823   3.785   4.138   4.577
  606TIP3    H1 1824   3.709   4.196   4.587
  606TIP3    H2 1825   3.812   4.150   4.486
  607TIP3   OH2 1826   4.083   2.147   4.450
  607TIP3    H1 1827   4.008   2.190   4.491
  607TIP3    H2 1828   4.092   2.191   4.366
  608TIP3   OH2 1829   1.930   1.472   0.885
  608TIP3    H1 1830   2.008   1.457   0.831
  608TIP3    H2 1831   1.942   1.415   0.961
  609TIP3   OH2 1832   3.985   2.972   4.861
  609TIP3    H1 1833   3.918   2.918   4.820
  609TIP3    H2 1834   4.024   2.916   4.928
  610TIP3   OH2 1835   4.825   5.678   0.884
  610TIP3    H1 1836   4.861   5.642   0.965
  610TIP3    H2 1837   4.813   5.771   0.902
  611TIP3   OH2 1838   1.828   4.082   1.198
  611TIP3    H1 1839   1.867   4.071   1.285
  611TIP3    H2 1840   1.741   4.118   1.215
  612TIP3   OH2 1841   2.201   5.800   2.500
  612TIP3    H1 1842   2.132   5.783   2.564
  612TIP3    H2 1843   2.269   5.736   2.520
  613TIP3   OH2 1844   5.305   2.192   0.475
  613TIP3    H1 1845   5.236   2.126   0.475
  613TIP3    H2 1846   5.356   2.174   0.554
  614TIP3   OH2 1847   0.293   5.538   4.802
  614TIP3    H1 1848   0.323   5.512   4.715
  614TIP3    H2 1849   0.332   5.624   4.817
  615TIP3   OH2 1850   1.900   1.974   3.610
  615TIP3    H1 1851   1.947   1.895   3.585
  615TIP3    H2 1852   1.808   1.952   3.599
  616TIP3   OH2 1853  -0.002   5.835   2.118
  616TIP3    H1 1854   0.020   5.749   2.080
  616TIP3    H2 1855  -0.009   5.819   2.212
  617TIP3   OH2 1856   5.449   2.108   0.195
  617TIP3    H1 1857   5.463   2.028   0.246
  617TIP3    H2 1858   5.389   2.082   0.125
  618TIP3   OH2 1859   4.648   5.214   0.130
  618TIP3    H1 1860   4.704   5.277   0.175
  618TIP3    H2 1861   4.667   5.227   0.037
  619TIP3   OH2 1862   2.280   3.281   0.023
  619TIP3    H1 1863   2.343   3.332   0.075
  619TIP3    H2 1864   2.251   3.341  -0.045
  620TIP3   OH2 1865   2.286   0.523   2.993
  620TIP3    H1 1866   2.220   0.560   3.051
  620TIP3    H2 1867   2.260   0.553   2.906
  621TIP3   OH2 1868   3.773   5.225   4.009
  621TIP3    H1 1869   3.788   5.177   3.928
  621TIP3    H2 1870   3.677   5.230   4.017
  622TIP3   OH2 1871   5.964   1.566   0.609
  622TIP3    H1 1872   6.023   1.571   0.534
  622TIP3    H2 1873   5.998   1.630   0.671
  623TIP3   OH2 1874   4.715   2.001   4.184
  623TIP3    H1 1875   4.777   1.987   4.255
  623TIP3    H2 1876   4.646   2.055   4.222
  624TIP3   OH2 1877   2.063   3.388   1.094
  624TIP3    H1 1878   2.113   3.308   1.109
  624TIP3    H2 1879   1.992   3.383   1.158
  625TIP3   OH2 1880   2.804   3.093   0.891
  625TIP3    H1 1881   2.757   3.023   0.846
  625TIP3    H2 1882   2.851   3.049   0.962
  626TIP3   OH2 1883   1.970   4.095   1.804
  626TIP3    H1 1884   2.043   4.044   1.768
  626TIP3    H2 1885   1.994   4.113   1.894
  627TIP3   OH2 1886   4.337   3.809   0.653
  627TIP3    H1 1887   4.323   3.903   0.643
  627TIP3    H2 1888   4.397   3.801   0.727
  628TIP3   OH2 1889   5.435   0.608   0.214
  628TIP3    H1 1890   5.530   0.615   0.212
  628TIP3    H2 1891   5.406   0.648   0.132
  629TIP3   OH2 1892   2.588   3.146   3.752
  629TIP3    H1 1893   2.512   3.124   3.806
  629TIP3    H2 1894   2.571   3.234   3.721
  630TIP3   OH2 1895   2.425   5.146   1.624
  630TIP3    H1 1896   2.515   5.114   1.622
  630TIP3    H2 1897   2.415   5.196   1.543
  631TIP3   OH2 1898   0.711   4.176   3.573
  631TIP3    H1 1899   0.721   4.100   3.515
  631TIP3    H2 1900   0.647   4.231   3.529
  632TIP3   OH2 1901   6.352   0.466   2.947
  632TIP3    H1 1902   6.258   0.484   2.952
  632TIP3    H2 1903   6.389   0.547   2.910
  633TIP3   OH2 1904   3.675   4.788   4.252
  633TIP3    H1 1905   3.736   4.725   4.215
  633TIP3    H2 1906   3.629   4.823   4.175
  634TIP3   OH2 1907   6.123   1.514   3.328
  634TIP3    H1 1908   6.160   1.548   3.409
  634TIP3    H2 1909   6.040   1.562   3.317
  635TIP3   OH2 1910   4.477   3.188   1.010
  635TIP3    H1 1911   4.465   3.283   1.007
  635TIP3    H2 1912   4.546   3.171   0.946
  636TIP3   OH2 1913   4.219   2.975   3.864
  636TIP3    H1 1914   4.246   3.067   3.855
  636TIP3    H2 1915   4.131   2.972   3.828
  637TIP3   OH2 1916   3.993   0.800   2.978
  637TIP3    H1 1917   3.901   0.824   2.971
  637TIP3    H2 1918   4.040   0.883   2.966
  638TIP3   OH2 1919   0.056   5.149   1.702
  638TIP3    H1 1920   0.111   5.162   1.624
  638TIP3    H2 1921   0.102   5.195   1.772
  639TIP3   OH2 1922   3.865   3.287   2.458
  639TIP3    H1 1923   3.816   3.208   2.482
  639TIP3    H2 1924   3.906   3.265   2.375
  640TIP3   OH2 1925   4.472   2.974   4.977
  640TIP3    H1 1926   4.426   3.023   4.908
  640TIP3    H2 1927   4.447   2.883   4.963
  641TIP3   OH2 1928   3.912   2.878   2.448
  641TIP3    H1 1929   4.000   2.913   2.465
  641TIP3    H2 1930   3.873   2.940   2.387
  642TIP3   OH2 1931   1.850   4.679   2.256
  642TIP3    H1 1932   1.779   4.615   2.254
  642TIP3    H2 1933   1.847   4.716   2.344
  643TIP3   OH2 1934   1.001   5.734   0.139
  643TIP3    H1 1935   1.036   5.820   0.161
  643TIP3    H2 1936   0.923   5.752   0.088
  644TIP3   OH2 1937   4.383   5.368   3.257
  644TIP3    H1 1938   4.442   5.303   3.297
  644TIP3    H2 1939   4.441   5.424   3.206
  645TIP3   OH2 1940   2.800   3.138   2.035
  645TIP3    H1 1941   2.801   3.064   2.095
  645TIP3    H2 1942   2.717   3.182   2.053
  646TIP3   OH2 1943   6.129   2.201   0.690
  646TIP3    H1 1944   6.211   2.153   0.692
  646TIP3    H2 1945   6.066   2.143   0.733
  647TIP3   OH2 1946   5.195   4.186   1.506
  647TIP3    H1 1947   5.160   4.169   1.419
  647TIP3    H2 1948   5.125   4.162   1.566
  648TIP3   OH2 1949   4.747   4.608   4.887
  648TIP3    H1 1950   4.759   4.702   4.879
  648TIP3    H2 1951   4.825   4.571   4.846
  649TIP3   OH2 1952   6.300   2.169   3.056
  649TIP3    H1 1953   6.282   2.082   3.093
  649TIP3    H2 1954   6.384   2.194   3.094
  650TIP3   OH2 1955   5.142   3.536   2.905
  650TIP3    H1 1956   5.179   3.455   2.940
  650TIP3    H2 1957   5.084   3.568   2.974
  651TIP3   OH2 1958   3.958   1.852   0.076
  651TIP3    H1 1959   3.901   1.905   0.131
  651TIP3    H2 1960   3.985   1.780   0.133
  652TIP3   OH2 1961   0.118   4.369   3.006
  652TIP3    H1 1962   0.080   4.292   3.049
  652TIP3    H2 1963   0.085   4.364   2.916
  653TIP3   OH2 1964   0.056   5.997   1.319
  653TIP3    H1 1965   0.069   5.907   1.290
  653TIP3    H2 1966   0.109   6.005   1.399
  654TIP3   OH2 1967   5.802   3.754   3.250
  654TIP3    H1 1968   5.897   3.740   3.253
  654TIP3    H2 1969   5.780   3.787   3.338
  655TIP3   OH2 1970   3.335   0.309   2.050
  655TIP3    H1 1971   3.292   0.229   2.018
  655TIP3    H2 1972   3.279   0.340   2.121
  656TIP3   OH2 1973   4.789   0.105   2.659
  656TIP3    H1 1974   4.743   0.049   2.597
  656TIP3    H2 1975   4.818   0.180   2.606
  657TIP3   OH2 1976   1.710   5.106   0.728
  657TIP3    H1 1977   1.725   5.163   0.652
  657TIP3    H2 1978   1.645   5.153   0.780
  658TIP3   OH2 1979   3.200   5.711   2.054
  658TIP3    H1 1980   3.203   5.619   2.030
  658TIP3    H2 1981   3.292   5.736   2.062
  659TIP3   OH2 1982   1.760   0.667   2.057
  659TIP3    H1 1983   1.766   0.580   2.017
  659TIP3    H2 1984   1.669   0.674   2.086
  660TIP3   OH2 1985   0.139   5.495   0.443
  660TIP3    H1 1986   0.219   5.495   0.496
  660TIP3    H2 1987   0.068   5.487   0.507
  661TIP3   OH2 1988   3.474   3.854   2.638
  661TIP3    H1 1989   3.516   3.912   2.702
  661TIP3    H2 1990   3.547   3.816   2.590
  662TIP3   OH2 1991   6.268   0.125   3.569
  662TIP3    H1 1992   6.184   0.081   3.586
  662TIP3    H2 1993   6.299   0.151   3.656
  663TIP3   OH2 1994   1.741   4.725   5.173
  663TIP3    H1 1995   1.696   4.757   5.095
  663TIP3    H2 1996   1.791   4.650   5.143
  664TIP3   OH2 1997   2.397   5.238   2.757
  664TIP3    H1 1998   2.334   5.309   2.747
  664TIP3    H2 1999   2.455   5.247   2.681
  665TIP3   OH2 2000   4.237   2.830   1.518
  665TIP3    H1 2001   4.297   2.776   1.570
  665TIP3    H2 2002   4.236   2.788   1.432
  666TIP3   OH2 2003   6.306   4.640   3.225
  666TIP3    H1 2004   6.337   4.549   3.221
  666TIP3    H2 2005   6.323   4.667   3.315
  667TIP3   OH2 2006   3.268   5.568   4.863
  667TIP3    H1 2007   3.331   5.551   4.794
  667TIP3    H2 2008   3.312   5.540   4.944
  668TIP3   OH2 2009   2.667   3.402   3.154
  668TIP3    H1 2010   2.673   3.394   3.249
  668TIP3    H2 2011   2.657   3.496   3.138
  669TIP3   OH2 2012   1.363   1.226   2.597
  669TIP3    H1 2013   1.350   1.156   2.660
  669TIP3    H2 2014   1.342   1.186   2.512
  670TIP3   OH2 2015   2.965   1.034   3.180
  670TIP3    H1 2016   3.056   1.050   3.155
  670TIP3    H2 2017   2.930   0.979   3.110
  671TIP3   OH2 2018   2.389   4.806   0.757
  671TIP3    H1 2019   2.411   4.751   0.833
  671TIP3    H2 2020   2.294   4.809   0.757
  672TIP3   OH2 2021   1.737   4.894   3.135
  672TIP3    H1 2022   1.824   4.920   3.106
  672TIP3    H2 2023   1.691   4.977   3.151
  673TIP3   OH2 2024   2.166   0.744   0.014
  673TIP3    H1 2025   2.073   0.723   0.021
  673TIP3    H2 2026   2.195   0.753   0.105
  674TIP3   OH2 2027   3.900   2.545   2.421
  674TIP3    H1 2028   3.943   2.515   2.341
  674TIP3    H2 2029   3.833   2.607   2.391
  675TIP3   OH2 2030   0.400   4.100   1.534
  675TIP3    H1 2031   0.399   4.053   1.617
  675TIP3    H2 2032   0.493   4.105   1.511
  676TIP3   OH2 2033   3.326   2.273   0.942
  676TIP3    H1 2034   3.406   2.229   0.972
  676TIP3    H2 2035   3.359   2.344   0.886
  677TIP3   OH2 2036   0.635   2.249   1.741
  677TIP3    H1 2037   0.635   2.254   1.836
  677TIP3    H2 2038   0.653   2.339   1.712
  678TIP3   OH2 2039   5.417   0.141   4.196
  678TIP3    H1 2040   5.401   0.234   4.210
  678TIP3    H2 2041   5.374   0.121   4.113
  679TIP3   OH2 2042   1.179   2.729   2.009
  679TIP3    H1 2043   1.104   2.781   1.980
  679TIP3    H2 2044   1.166   2.716   2.103
  680TIP3   OH2 2045   0.706   1.206   0.157
  680TIP3    H1 2046   0.681   1.288   0.116
  680TIP3    H2 2047   0.800   1.213   0.170
  681TIP3   OH2 2048   5.647   2.217   4.002
  681TIP3    H1 2049   5.671   2.143   4.057
  681TIP3    H2 2050   5.554   2.231   4.021
  682TIP3   OH2 2051   4.865   5.168   3.081
  682TIP3    H1 2052   4.899   5.102   3.021
  682TIP3    H2 2053   4.853   5.246   3.027
  683TIP3   OH2 2054   0.029   0.025   2.435
  683TIP3    H1 2055  -0.063   0.034   2.411
  683TIP3    H2 2056   0.068  -0.025   2.364
  684TIP3   OH2 2057   5.682   5.594   3.649
  684TIP3    H1 2058   5.713   5.561   3.733
  684TIP3    H2 2059   5.600   5.547   3.633
  685TIP3   OH2 2060   6.041   4.061   0.063
  685TIP3    H1 2061   6.110   4.049  -0.003
  685TIP3    H2 2062   6.072   4.134   0.116
  686TIP3   OH2 2063   4.852   1.674   4.730
  686TIP3    H1 2064   4.827   1.582   4.736
  686TIP3    H2 2065   4.833   1.710   4.817
  687TIP3   OH2 2066   6.258   5.062   0.953
  687TIP3    H1 2067   6.223   5.085   0.867
  687TIP3    H2 2068   6.338   5.114   0.961
  688TIP3   OH2 2069   5.722   4.390   4.881
  688TIP3    H1 2070   5.762   4.462   4.930
  688TIP3    H2 2071   5.789   4.364   4.818
  689TIP3   OH2 2072   0.204   0.240   0.690
  689TIP3    H1 2073   0.265   0.174   0.655
  689TIP3    H2 2074   0.188   0.211   0.780
  690TIP3   OH2 2075   3.419   1.514   0.567
  690TIP3    H1 2076   3.457   1.459   0.499
  690TIP3    H2 2077   3.399   1.454   0.638
  691TIP3   OH2 2078   3.647   1.879   1.914
  691TIP3    H1 2079   3.635   1.828   1.994
  691TIP3    H2 2080   3.571   1.856   1.859
  692TIP3   OH2 2081   0.643   4.163   5.103
  692TIP3    H1 2082   0.610   4.169   5.192
  692TIP3    H2 2083   0.573   4.200   5.049
  693TIP3   OH2 2084   3.840   2.784   1.855
  693TIP3    H1 2085   3.896   2.799   1.931
  693TIP3    H2 2086   3.880   2.836   1.786
  694TIP3   OH2 2087   3.825   1.554   0.181
  694TIP3    H1 2088   3.903   1.599   0.215
  694TIP3    H2 2089   3.856   1.467   0.156
  695TIP3   OH2 2090   4.600   1.667   3.353
  695TIP3    H1 2091   4.562   1.746   3.314
  695TIP3    H2 2092   4.553   1.656   3.436
  696TIP3   OH2 2093   4.917   1.878   2.403
  696TIP3    H1 2094   4.980   1.887   2.331
  696TIP3    H2 2095   4.839   1.925   2.372
  697TIP3   OH2 2096   0.847   0.521   0.522
  697TIP3    H1 2097   0.874   0.516   0.614
  697TIP3    H2 2098   0.753   0.536   0.526
  698TIP3   OH2 2099   3.997   5.018   2.773
  698TIP3    H1 2100   3.938   5.027   2.699
  698TIP3    H2 2101   3.941   4.987   2.845
  699TIP3   OH2 2102   5.288   4.001   4.163
  699TIP3    H1 2103   5.347   3.958   4.224
  699TIP3    H2 2104   5.317   3.971   4.077
  700TIP3   OH2 2105   4.389   3.864   3.965
  700TIP3    H1 2106   4.447   3.788   3.955
  700TIP3    H2 2107   4.412   3.901   4.050
  701TIP3   OH2 2108   2.895   1.077   1.555
  701TIP3    H1 2109   2.943   1.085   1.637
  701TIP3    H2 2110   2.956   1.106   1.488
  702TIP3   OH2 2111   0.778   4.263   0.839
  702TIP3    H1 2112   0.740   4.177   0.818
  702TIP3    H2 2113   0.710   4.308   0.887
  703TIP3   OH2 2114   4.709   3.179   2.808
  703TIP3    H1 2115   4.684   3.095   2.845
  703TIP3    H2 2116   4.753   3.225   2.879
  704TIP3   OH2 2117   5.304   1.770   2.770
  704TIP3    H1 2118   5.288   1.864   2.776
  704TIP3    H2 2119   5.288   1.748   2.678
  705TIP3   OH2 2120   4.754   5.451   1.300
  705TIP3    H1 2121   4.719   5.521   1.355
  705TIP3    H2 2122   4.798   5.392   1.361
  706TIP3   OH2 2123   5.655   1.180   4.981
  706TIP3    H1 2124   5.614   1.246   5.037
  706TIP3    H2 2125   5.581   1.127   4.948
  707TIP3   OH2 2126   4.057   0.367   0.578
  707TIP3    H1 2127   4.018   0.340   0.661
  707TIP3    H2 2128   4.100   0.450   0.597
  708TIP3   OH2 2129   1.672   2.129   2.846
  708TIP3    H1 2130   1.629   2.175   2.918
  708TIP3    H2 2131   1.636   2.041   2.849
  709TIP3   OH2 2132   1.503   4.937   4.551
  709TIP3    H1 2133   1.545   4.884   4.618
  709TIP3    H2 2134   1.443   4.994   4.600
  710TIP3   OH2 2135   3.972   1.302   2.791
  710TIP3    H1 2136   3.907   1.332   2.727
  710TIP3    H2 2137   3.934   1.325   2.876
  711TIP3   OH2 2138   1.547   3.997   4.425
  711TIP3    H1 2139   1.488   4.070   4.405
  711TIP3    H2 2140   1.599   4.028   4.499
  712TIP3   OH2 2141   0.678   0.428   0.147
  712TIP3    H1 2142   0.727   0.402   0.069
  712TIP3    H2 2143   0.650   0.346   0.187
  713TIP3   OH2 2144   3.408   0.980   0.241
  713TIP3    H1 2145   3.478   1.039   0.270
  713TIP3    H2 2146   3.431   0.958   0.151
  714TIP3   OH2 2147   5.997   3.721   3.659
  714TIP3    H1 2148   6.072   3.741   3.714
  714TIP3    H2 2149   6.035   3.676   3.583
  715TIP3   OH2 2150   5.591   1.202   3.855
  715TIP3    H1 2151   5.677   1.206   3.813
  715TIP3    H2 2152   5.610   1.191   3.948
  716TIP3   OH2 2153   3.168   4.898   3.991
  716TIP3    H1 2154   3.175   4.993   3.993
  716TIP3    H2 2155   3.251   4.869   3.955
  717TIP3   OH2 2156   0.923   2.307   4.967
  717TIP3    H1 2157   1.002   2.327   5.016
  717TIP3    H2 2158   0.954   2.271   4.884
  718TIP3   OH2 2159   4.190   2.699   0.492
  718TIP3    H1 2160   4.138   2.637   0.441
  718TIP3    H2 2161   4.138   2.713   0.572
  719TIP3   OH2 2162   4.985   3.437   2.710
  719TIP3    H1 2163   5.057   3.481   2.753
  719TIP3    H2 2164   4.927   3.409   2.781
  720TIP3   OH2 2165   4.608   5.093   0.428
  720TIP3    H1 2166   4.620   5.017   0.485
  720TIP3    H2 2167   4.668   5.078   0.355
  721TIP3   OH2 2168   0.110   1.873   1.653
  721TIP3    H1 2169   0.086   1.849   1.564
  721TIP3    H2 2170   0.152   1.959   1.644
  722TIP3   OH2 2171   3.770   5.910   3.015
  722TIP3    H1 2172   3.682   5.949   3.011
  722TIP3    H2 2173   3.826   5.981   3.046
  723TIP3   OH2 2174   2.631   0.019   4.997
  723TIP3    H1 2175   2.694   0.079   5.037
  723TIP3    H2 2176   2.611   0.058   4.912
  724TIP3   OH2 2177   1.844   5.460   0.176
  724TIP3    H1 2178   1.773   5.396   0.171
  724TIP3    H2 2179   1.809   5.539   0.135
  725TIP3   OH2 2180   4.299   2.854   4.097
  725TIP3    H1 2181   4.257   2.906   4.028
  725TIP3    H2 2182   4.389   2.887   4.101
  726TIP3   OH2 2183   0.727   3.881   4.039
  726TIP3    H1 2184   0.642   3.921   4.017
  726TIP3    H2 2185   0.766   3.941   4.103
  727TIP3   OH2 2186   5.151   1.539   3.645
  727TIP3    H1 2187   5.156   1.448   3.617
  727TIP3    H2 2188   5.129   1.587   3.566
  728TIP3   OH2 2189   5.157   5.763   2.918
  728TIP3    H1 2190   5.074   5.802   2.893
  728TIP3    H2 2191   5.207   5.756   2.836
  729TIP3   OH2 2192   4.177   1.916   3.076
  729TIP3    H1 2193   4.092   1.899   3.035
  729TIP3    H2 2194   4.205   2.000   3.039
  730TIP3   OH2 2195   2.458   0.910   3.962
  730TIP3    H1 2196   2.397   0.970   3.918
  730TIP3    H2 2197   2.500   0.964   4.028
  731TIP3   OH2 2198   0.788   3.732   0.153
  731TIP3    H1 2199   0.856   3.792   0.184
  731TIP3    H2 2200   0.833   3.648   0.143
  732TIP3   OH2 2201   3.954   3.986   0.467
  732TIP3    H1 2202   3.962   3.930   0.544
  732TIP3    H2 2203   4.004   3.942   0.399
  733TIP3   OH2 2204   1.086   3.508   3.059
  733TIP3    H1 2205   0.993   3.484   3.062
  733TIP3    H2 2206   1.096   3.553   2.976
  734TIP3   OH2 2207   3.478   2.346   0.516
  734TIP3    H1 2208   3.519   2.309   0.594
  734TIP3    H2 2209   3.490   2.441   0.525
  735TIP3   OH2 2210   0.253   1.015   3.250
  735TIP3    H1 2211   0.301   1.070   3.188
  735TIP3    H2 2212   0.295   1.034   3.335
  736TIP3   OH2 2213   2.009   5.491   4.139
  736TIP3    H1 2214   2.089   5.542   4.129
  736TIP3    H2 2215   1.970   5.489   4.051
  737TIP3   OH2 2216   3.787   1.534   2.738
  737TIP3    H1 2217   3.787   1.565   2.829
  737TIP3    H2 2218   3.697   1.505   2.723
  738TIP3   OH2 2219   5.040   3.703   3.909
  738TIP3    H1 2220   4.999   3.752   3.838
  738TIP3    H2 2221   4.969   3.689   3.972
  739TIP3   OH2 2222   0.528   2.035   2.958
  739TIP3    H1 2223   0.553   1.987   3.037
  739TIP3    H2 2224   0.437   2.061   2.974
  740TIP3   OH2 2225   2.840   4.947   0.657
  740TIP3    H1 2226   2.818   4.894   0.580
  740TIP3    H2 2227   2.935   4.940   0.666
  741TIP3   OH2 2228   2.493   0.993   1.229
  741TIP3    H1 2229   2.546   0.934   1.282
  741TIP3    H2 2230   2.469   0.941   1.152
  742TIP3   OH2 2231   0.770   3.152   2.749
  742TIP3    H1 2232   0.862   3.123   2.753
  742TIP3    H2 2233   0.724   3.079   2.707
  743TIP3   OH2 2234   5.643   3.630   2.937
  743TIP3    H1 2235   5.645   3.548   2.887
  743TIP3    H2 2236   5.586   3.611   3.011
  744TIP3   OH2 2237   5.510   1.617   2.793
  744TIP3    H1 2238   5.527   1.632   2.700
  744TIP3    H2 2239   5.432   1.670   2.812
  745TIP3   OH2 2240   5.798   4.199   1.030
  745TIP3    H1 2241   5.796   4.240   1.117
  745TIP3    H2 2242   5.789   4.272   0.969
  746TIP3   OH2 2243   4.867   5.156   1.783
  746TIP3    H1 2244   4.878   5.138   1.689
  746TIP3    H2 2245   4.782   5.117   1.804
  747TIP3   OH2 2246   1.951   0.374   2.371
  747TIP3    H1 2247   1.926   0.285   2.396
  747TIP3    H2 2248   1.878   0.406   2.318
  748TIP3   OH2 2249   3.968   2.934   4.282
  748TIP3    H1 2250   3.965   2.904   4.191
  748TIP3    H2 2251   3.919   3.016   4.282
  749TIP3   OH2 2252   3.008   0.869   0.292
  749TIP3    H1 2253   3.006   0.774   0.299
  749TIP3    H2 2254   2.960   0.888   0.211
  750TIP3   OH2 2255   5.139   3.716   2.348
  750TIP3    H1 2256   5.169   3.701   2.438
  750TIP3    H2 2257   5.046   3.733   2.357
  751TIP3   OH2 2258   0.009   3.078   0.310
  751TIP3    H1 2259   0.002   3.108   0.219
  751TIP3    H2 2260   0.094   3.111   0.339
  752TIP3   OH2 2261   4.428   2.360   4.189
  752TIP3    H1 2262   4.420   2.399   4.276
  752TIP3    H2 2263   4.372   2.415   4.134
  753TIP3   OH2 2264   4.936   4.408   1.617
  753TIP3    H1 2265   4.925   4.313   1.616
  753TIP3    H2 2266   4.935   4.434   1.525
  754TIP3   OH2 2267   2.979   2.855   4.974
  754TIP3    H1 2268   3.040   2.920   4.938
  754TIP3    H2 2269   2.900   2.906   4.996
  755TIP3   OH2 2270   6.319   0.997   1.832
  755TIP3    H1 2271   6.290   1.088   1.836
  755TIP3    H2 2272   6.315   0.967   1.923
  756TIP3   OH2 2273   2.519   5.305   2.519
  756TIP3    H1 2274   2.477   5.368   2.461
  756TIP3    H2 2275   2.604   5.343   2.539
  757TIP3   OH2 2276   1.038   3.001   3.062
  757TIP3    H1 2277   1.011   2.932   3.001
  757TIP3    H2 2278   1.039   3.081   3.009
  758TIP3   OH2 2279   0.356   5.780   4.934
  758TIP3    H1 2280   0.283   5.799   4.992
  758TIP3    H2 2281   0.403   5.863   4.926
  759TIP3   OH2 2282   4.536   0.089   0.436
  759TIP3    H1 2283   4.601   0.151   0.468
  759TIP3    H2 2284   4.499   0.050   0.515
  760TIP3   OH2 2285   1.681   1.751   2.606
  760TIP3    H1 2286   1.726   1.826   2.569
  760TIP3    H2 2287   1.668   1.773   2.699
  761TIP3   OH2 2288   3.433   0.864   2.662
  761TIP3    H1 2289   3.507   0.924   2.677
  761TIP3    H2 2290   3.363   0.921   2.630
  762TIP3   OH2 2291   4.219   4.371   1.670
  762TIP3    H1 2292   4.214   4.275   1.675
  762TIP3    H2 2293   4.138   4.401   1.712
  763TIP3   OH2 2294   3.762   0.915   1.289
  763TIP3    H1 2295   3.834   0.921   1.352
  763TIP3    H2 2296   3.805   0.904   1.204
  764TIP3   OH2 2297   0.994   1.560   3.980
  764TIP3    H1 2298   0.927   1.493   3.967
  764TIP3    H2 2299   1.058   1.519   4.038
  765TIP3   OH2 2300   0.713   3.235   0.420
  765TIP3    H1 2301   0.653   3.310   0.416
  765TIP3    H2 2302   0.674   3.176   0.484
  766TIP3   OH2 2303  -0.042   5.714   0.466
  766TIP3    H1 2304   0.049   5.685   0.455
  766TIP3    H2 2305  -0.056   5.777   0.395
  767TIP3   OH2 2306   5.216   2.742   2.545
  767TIP3    H1 2307   5.281   2.733   2.615
  767TIP3    H2 2308   5.245   2.681   2.477
  768TIP3   OH2 2309   2.861   4.882   3.859
  768TIP3    H1 2310   2.899   4.827   3.790
  768TIP3    H2 2311   2.922   4.956   3.866
  769TIP3   OH2 2312   3.965   3.314   1.883
  769TIP3    H1 2313   3.891   3.365   1.917
  769TIP3    H2 2314   3.973   3.341   1.792
  770TIP3   OH2 2315   1.991   5.837   1.609
  770TIP3    H1 2316   2.002   5.874   1.521
  770TIP3    H2 2317   2.035   5.752   1.605
  771TIP3   OH2 2318   1.417   0.655   4.940
  771TIP3    H1 2319   1.383   0.577   4.983
  771TIP3    H2 2320   1.429   0.718   5.012
  772TIP3   OH2 2321   2.897   1.607   1.524
  772TIP3    H1 2322   2.909   1.699   1.548
  772TIP3    H2 2323   2.808   1.604   1.487
  773TIP3   OH2 2324   4.589   4.266   2.762
  773TIP3    H1 2325   4.592   4.177   2.728
  773TIP3    H2 2326   4.663   4.310   2.719
  774TIP3   OH2 2327   1.455   1.560   4.737
  774TIP3    H1 2328   1.489   1.625   4.800
  774TIP3    H2 2329   1.420   1.613   4.665
  775TIP3   OH2 2330   3.134   5.930   1.875
  775TIP3    H1 2331   3.150   5.866   1.807
  775TIP3    H2 2332   3.155   5.885   1.957
  776TIP3   OH2 2333   1.564   0.422   2.256
  776TIP3    H1 2334   1.535   0.502   2.212
  776TIP3    H2 2335   1.622   0.379   2.193
  777TIP3   OH2 2336   1.778   4.413   4.433
  777TIP3    H1 2337   1.762   4.329   4.390
  777TIP3    H2 2338   1.701   4.466   4.412
  778TIP3   OH2 2339   5.606   2.424   4.912
  778TIP3    H1 2340   5.523   2.433   4.865
  778TIP3    H2 2341   5.673   2.446   4.848
  779TIP3   OH2 2342   5.851   4.210   3.074
  779TIP3    H1 2343   5.808   4.253   3.000
  779TIP3    H2 2344   5.828   4.117   3.063
  780TIP3   OH2 2345   3.555   4.840   0.084
  780TIP3    H1 2346   3.627   4.874   0.137
  780TIP3    H2 2347   3.596   4.817   0.000
  781TIP3   OH2 2348   0.709   0.378   1.825
  781TIP3    H1 2349   0.627   0.402   1.868
  781TIP3    H2 2350   0.694   0.396   1.732
  782TIP3   OH2 2351   5.129   1.926   1.066
  782TIP3    H1 2352   5.091   1.863   1.128
  782TIP3    H2 2353   5.054   1.978   1.036
  783TIP3   OH2 2354   3.198   4.637   3.121
  783TIP3    H1 2355   3.129   4.687   3.079
  783TIP3    H2 2356   3.155   4.557   3.152
  784TIP3   OH2 2357   6.241   1.573   3.851
  784TIP3    H1 2358   6.295   1.591   3.928
  784TIP3    H2 2359   6.152   1.598   3.878
  785TIP3   OH2 2360   6.383   0.203   3.831
  785TIP3    H1 2361   6.407   0.125   3.882
  785TIP3    H2 2362   6.340   0.261   3.893
  786TIP3   OH2 2363   2.683   2.301   0.050
  786TIP3    H1 2364   2.749   2.278   0.116
  786TIP3    H2 2365   2.602   2.312   0.100
  787TIP3   OH2 2366   6.058   3.715   0.119
  787TIP3    H1 2367   6.009   3.659   0.059
  787TIP3    H2 2368   6.149   3.708   0.090
  788TIP3   OH2 2369   5.342   1.141   2.747
  788TIP3    H1 2370   5.338   1.127   2.653
  788TIP3    H2 2371   5.256   1.115   2.779
  789TIP3   OH2 2372   3.251   5.268   5.074
  789TIP3    H1 2373   3.323   5.219   5.036
  789TIP3    H2 2374   3.172   5.224   5.042
  790TIP3   OH2 2375   5.985   0.234   1.093
  790TIP3    H1 2376   5.937   0.153   1.112
  790TIP3    H2 2377   5.997   0.232   0.998
  791TIP3   OH2 2378  -0.037   1.077   3.341
  791TIP3    H1 2379  -0.110   1.083   3.280
  791TIP3    H2 2380   0.035   1.039   3.289
  792TIP3   OH2 2381   0.999   4.203   0.688
  792TIP3    H1 2382   0.924   4.217   0.745
  792TIP3    H2 2383   1.010   4.108   0.685
  793TIP3   OH2 2384   3.116   3.756   3.131
  793TIP3    H1 2385   3.185   3.770   3.066
  793TIP3    H2 2386   3.094   3.844   3.162
  794TIP3   OH2 2387   4.872   2.757   2.009
  794TIP3    H1 2388   4.877   2.852   2.006
  794TIP3    H2 2389   4.830   2.738   2.093
  795TIP3   OH2 2390   1.015   5.208   1.027
  795TIP3    H1 2391   1.024   5.201   0.932
  795TIP3    H2 2392   0.989   5.121   1.055
  796TIP3   OH2 2393   1.364   5.634   4.742
  796TIP3    H1 2394   1.271   5.617   4.751
  796TIP3    H2 2395   1.403   5.549   4.720
  797TIP3   OH2 2396   0.643   1.780   1.950
  797TIP3    H1 2397   0.586   1.713   1.987
  797TIP3    H2 2398   0.699   1.732   1.888
  798TIP3   OH2 2399   2.734   0.253   5.156
  798TIP3    H1 2400   2.767   0.211   5.236
  798TIP3    H2 2401   2.804   0.240   5.092
  799TIP3   OH2 2402   5.034   5.339   3.626
  799TIP3    H1 2403   5.103   5.276   3.645
  799TIP3    H2 2404   5.070   5.393   3.555
  800TIP3   OH2 2405   2.940   5.807   3.963
  800TIP3    H1 2406   3.029   5.837   3.948
  800TIP3    H2 2407   2.892   5.836   3.885
  801TIP3   OH2 2408   1.277   0.698   4.714
  801TIP3    H1 2409   1.332   0.682   4.791
  801TIP3    H2 2410   1.337   0.690   4.640
  802TIP3   OH2 2411   5.723   3.239   0.258
  802TIP3    H1 2412   5.731   3.200   0.172
  802TIP3    H2 2413   5.724   3.333   0.242
  803TIP3   OH2 2414   3.819   2.994   2.088
  803TIP3    H1 2415   3.839   2.901   2.082
  803TIP3    H2 2416   3.771   3.014   2.008
  804TIP3   OH2 2417   1.050   3.274   4.194
  804TIP3    H1 2418   1.067   3.362   4.227
  804TIP3    H2 2419   0.962   3.254   4.225
  805TIP3   OH2 2420   1.423   4.989   0.498
  805TIP3    H1 2421   1.478   4.916   0.467
  805TIP3    H2 2422   1.428   5.054   0.428
  806TIP3   OH2 2423   3.036   4.320   2.227
  806TIP3    H1 2424   3.085   4.247   2.189
  806TIP3    H2 2425   2.982   4.279   2.295
  807TIP3   OH2 2426   3.703   5.659   3.083
  807TIP3    H1 2427   3.751   5.726   3.034
  807TIP3    H2 2428   3.686   5.699   3.168
  808TIP3   OH2 2429   2.845   5.806   0.440
  808TIP3    H1 2430   2.880   5.874   0.497
  808TIP3    H2 2431   2.806   5.742   0.500
  809TIP3   OH2 2432   5.834   5.920   5.112
  809TIP3    H1 2433   5.839   5.948   5.203
  809TIP3    H2 2434   5.859   5.999   5.062
  810TIP3   OH2 2435   0.227   2.083   1.374
  810TIP3    H1 2436   0.150   2.028   1.390
  810TIP3    H2 2437   0.294   2.047   1.432
  811TIP3   OH2 2438   2.479   3.492   0.177
  811TIP3    H1 2439   2.570   3.522   0.182
  811TIP3    H2 2440   2.439   3.548   0.111
  812TIP3   OH2 2441   0.930   2.686   0.189
  812TIP3    H1 2442   0.972   2.730   0.262
  812TIP3    H2 2443   0.857   2.639   0.228
  813TIP3   OH2 2444   3.519   0.376   2.443
  813TIP3    H1 2445   3.535   0.308   2.508
  813TIP3    H2 2446   3.600   0.425   2.439
  814TIP3   OH2 2447   3.936   4.777   3.384
  814TIP3    H1 2448   3.925   4.696   3.335
  814TIP3    H2 2449   3.963   4.841   3.319
  815TIP3   OH2 2450   2.410   1.700   0.099
  815TIP3    H1 2451   2.405   1.793   0.078
  815TIP3    H2 2452   2.472   1.695   0.172
  816TIP3   OH2 2453   2.674   3.835   2.124
  816TIP3    H1 2454   2.729   3.844   2.202
  816TIP3    H2 2455   2.587   3.814   2.157
  817TIP3   OH2 2456   1.384   1.612   1.534
  817TIP3    H1 2457   1.427   1.607   1.449
  817TIP3    H2 2458   1.349   1.523   1.548
  818TIP3   OH2 2459   0.278   4.720   3.268
  818TIP3    H1 2460   0.335   4.657   3.225
  818TIP3    H2 2461   0.245   4.775   3.197
  819TIP3   OH2 2462   0.973   4.964   0.853
  819TIP3    H1 2463   1.026   4.884   0.852
  819TIP3    H2 2464   0.944   4.975   0.763
  820TIP3   OH2 2465   3.890   3.367   0.987
  820TIP3    H1 2466   3.833   3.443   0.986
  820TIP3    H2 2467   3.966   3.394   1.038
  821TIP3   OH2 2468   1.421  -0.006   4.510
  821TIP3    H1 2469   1.424   0.079   4.468
  821TIP3    H2 2470   1.374   0.009   4.592
  822TIP3   OH2 2471   3.451   5.234   1.094
  822TIP3    H1 2472   3.403   5.305   1.052
  822TIP3    H2 2473   3.433   5.157   1.040
  823TIP3   OH2 2474   0.738   3.113   4.356
  823TIP3    H1 2475   0.702   3.194   4.320
  823TIP3    H2 2476   0.706   3.045   4.297
  824TIP3   OH2 2477   1.383   3.033   0.163
  824TIP3    H1 2478   1.287   3.029   0.170
  824TIP3    H2 2479   1.403   2.984   0.083
  825TIP3   OH2 2480   3.555   4.672   3.942
  825TIP3    H1 2481   3.548   4.577   3.934
  825TIP3    H2 2482   3.643   4.692   3.909
  826TIP3   OH2 2483   0.946   2.997   3.883
  826TIP3    H1 2484   0.893   3.063   3.929
  826TIP3    H2 2485   1.011   2.969   3.947
  827TIP3   OH2 2486   1.469   5.802   0.517
  827TIP3    H1 2487   1.539   5.750   0.556
  827TIP3    H2 2488   1.499   5.893   0.523
  828TIP3   OH2 2489   4.482   3.855   0.926
  828TIP3    H1 2490   4.511   3.802   1.001
  828TIP3    H2 2491   4.533   3.936   0.933
  829TIP3   OH2 2492   2.954   5.399   4.949
  829TIP3    H1 2493   2.995   5.381   4.864
  829TIP3    H2 2494   2.944   5.494   4.951
  830TIP3   OH2 2495   4.981   5.082   3.331
  830TIP3    H1 2496   4.920   5.010   3.349
  830TIP3    H2 2497   4.976   5.094   3.237
  831TIP3   OH2 2498   1.623   0.428   4.897
  831TIP3    H1 2499   1.615   0.364   4.825
  831TIP3    H2 2500   1.562   0.497   4.874
  832TIP3   OH2 2501   6.195   5.657   4.264
  832TIP3    H1 2502   6.202   5.617   4.177
  832TIP3    H2 2503   6.142   5.595   4.314
  833TIP3   OH2 2504   5.621   1.891   2.179
  833TIP3    H1 2505   5.625   1.916   2.087
  833TIP3    H2 2506   5.711   1.895   2.210
  834TIP3   OH2 2507   5.374   3.134   1.575
  834TIP3    H1 2508   5.425   3.204   1.536
  834TIP3    H2 2509   5.398   3.056   1.525
  835TIP3   OH2 2510   5.513   3.334   1.883
  835TIP3    H1 2511   5.444   3.387   1.923
  835TIP3    H2 2512   5.497   3.245   1.917
  836TIP3   OH2 2513   4.038   5.244   5.033
  836TIP3    H1 2514   4.098   5.222   4.962
  836TIP3    H2 2515   3.977   5.170   5.036
  837TIP3   OH2 2516   2.932   3.926   5.041
  837TIP3    H1 2517   2.942   3.947   4.948
  837TIP3    H2 2518   3.017   3.947   5.080
  838TIP3   OH2 2519   4.089   0.358   1.883
  838TIP3    H1 2520   4.076   0.379   1.790
  838TIP3    H2 2521   4.019   0.405   1.928
  839TIP3   OH2 2522   2.053   0.604   2.849
  839TIP3    H1 2523   2.037   0.597   2.754
  839TIP3    H2 2524   2.008   0.528   2.886
  840TIP3   OH2 2525   4.102   0.729   4.498
  840TIP3    H1 2526   4.176   0.723   4.438
  840TIP3    H2 2527   4.076   0.821   4.495
  841TIP3   OH2 2528   4.271   0.101   2.264
  841TIP3    H1 2529   4.264   0.197   2.267
  841TIP3    H2 2530   4.208   0.070   2.328
  842TIP3   OH2 2531   1.140   3.722   2.098
  842TIP3    H1 2532   1.120   3.780   2.025
  842TIP3    H2 2533   1.228   3.749   2.127
  843TIP3   OH2 2534   3.188   5.840   0.716
  843TIP3    H1 2535   3.193   5.883   0.630
  843TIP3    H2 2536   3.241   5.761   0.706
  844TIP3   OH2 2537   3.876   0.024   0.657
  844TIP3    H1 2538   3.884   0.011   0.752
  844TIP3    H2 2539   3.963   0.050   0.629
  845TIP3   OH2 2540   4.650   4.211   0.408
  845TIP3    H1 2541   4.654   4.245   0.498
  845TIP3    H2 2542   4.610   4.282   0.358
  846TIP3   OH2 2543   1.975   3.945   0.477
  846TIP3    H1 2544   1.934   3.859   0.471
  846TIP3    H2 2545   1.925   4.000   0.417
  847TIP3   OH2 2546   2.396   2.504   0.876
  847TIP3    H1 2547   2.377   2.594   0.849
  847TIP3    H2 2548   2.325   2.482   0.937
  848TIP3   OH2 2549   3.042   3.595   2.223
  848TIP3    H1 2550   3.056   3.689   2.211
  848TIP3    H2 2551   3.117   3.553   2.182
  849TIP3   OH2 2552   2.634   4.084   4.352
  849TIP3    H1 2553   2.614   4.127   4.435
  849TIP3    H2 2554   2.634   4.155   4.288
  850TIP3   OH2 2555   4.482   0.874   0.911
  850TIP3    H1 2556   4.553   0.938   0.920
  850TIP3    H2 2557   4.402   0.925   0.929
  851TIP3   OH2 2558   1.731   5.496   3.978
  851TIP3    H1 2559   1.796   5.499   3.907
  851TIP3    H2 2560   1.751   5.415   4.025
  852TIP3   OH2 2561   1.172   2.439   0.552
  852TIP3    H1 2562   1.237   2.389   0.502
  852TIP3    H2 2563   1.092   2.434   0.499
  853TIP3   OH2 2564   0.726   2.589   4.889
  853TIP3    H1 2565   0.793   2.583   4.956
  853TIP3    H2 2566   0.673   2.510   4.900
  854TIP3   OH2 2567   2.847   2.939   3.355
  854TIP3    H1 2568   2.921   2.961   3.411
  854TIP3    H2 2569   2.835   3.017   3.300
  855TIP3   OH2 2570   4.350   2.428   4.450
  855TIP3    H1 2571   4.384   2.508   4.491
  855TIP3    H2 2572   4.401   2.358   4.490
  856TIP3   OH2 2573   1.204   0.859   3.951
  856TIP3    H1 2574   1.270   0.868   3.883
  856TIP3    H2 2575   1.253   0.856   4.033
  857TIP3   OH2 2576   5.402   2.123   4.909
  857TIP3    H1 2577   5.496   2.131   4.927
  857TIP3    H2 2578   5.376   2.211   4.880
  858TIP3   OH2 2579   2.416   2.600   0.531
  858TIP3    H1 2580   2.419   2.633   0.441
  858TIP3    H2 2581   2.338   2.545   0.535
  859TIP3   OH2 2582   2.387   3.348   4.063
  859TIP3    H1 2583   2.481   3.336   4.058
  859TIP3    H2 2584   2.354   3.319   3.978
  860TIP3   OH2 2585   0.247   3.679   0.862
  860TIP3    H1 2586   0.226   3.723   0.780
  860TIP3    H2 2587   0.253   3.586   0.838
  861TIP3   OH2 2588   5.290   1.459   0.638
  861TIP3    H1 2589   5.281   1.465   0.543
  861TIP3    H2 2590   5.374   1.414   0.651
  862TIP3   OH2 2591   3.417   5.893   0.072
  862TIP3    H1 2592   3.407   5.882   0.166
  862TIP3    H2 2593   3.460   5.813   0.042
  863TIP3   OH2 2594   5.286   0.756   1.298
  863TIP3    H1 2595   5.357   0.737   1.360
  863TIP3    H2 2596   5.266   0.672   1.257
  864TIP3   OH2 2597   2.354   3.546   5.061
  864TIP3    H1 2598   2.448   3.527   5.065
  864TIP3    H2 2599   2.338   3.600   5.138
  865TIP3   OH2 2600   3.909   2.021   1.548
  865TIP3    H1 2601   3.947   1.935   1.533
  865TIP3    H2 2602   3.882   2.020   1.639
  866TIP3   OH2 2603   0.720   4.779   1.089
  866TIP3    H1 2604   0.680   4.704   1.134
  866TIP3    H2 2605   0.800   4.743   1.051
  867TIP3   OH2 2606   2.294   5.558   4.118
  867TIP3    H1 2607   2.328   5.554   4.207
  867TIP3    H2 2608   2.365   5.597   4.067
  868TIP3   OH2 2609   2.168   4.012   2.840
  868TIP3    H1 2610   2.122   4.073   2.898
  868TIP3    H2 2611   2.112   3.935   2.837
  869TIP3   OH2 2612   4.105   4.493   3.868
  869TIP3    H1 2613   4.106   4.589   3.868
  869TIP3    H2 2614   4.015   4.470   3.847
  870TIP3   OH2 2615   4.625   2.500   4.615
  870TIP3    H1 2616   4.647   2.414   4.577
  870TIP3    H2 2617   4.705   2.528   4.658
  871TIP3   OH2 2618   2.850   1.998   4.735
  871TIP3    H1 2619   2.845   2.092   4.755
  871TIP3    H2 2620   2.871   1.956   4.818
  872TIP3   OH2 2621   3.403   3.094   0.455
  872TIP3    H1 2622   3.489   3.135   0.453
  872TIP3    H2 2623   3.392   3.066   0.545
  873TIP3   OH2 2624   3.029   4.150   0.971
  873TIP3    H1 2625   2.994   4.164   0.883
  873TIP3    H2 2626   2.997   4.224   1.022
  874TIP3   OH2 2627   4.208   5.596   4.913
  874TIP3    H1 2628   4.146   5.653   4.959
  874TIP3    H2 2629   4.155   5.549   4.848
  875TIP3   OH2 2630   3.002   0.622   4.532
  875TIP3    H1 2631   2.933   0.562   4.505
  875TIP3    H2 2632   3.004   0.690   4.464
  876TIP3   OH2 2633   4.647   3.046   1.699
  876TIP3    H1 2634   4.635   3.122   1.755
  876TIP3    H2 2635   4.579   3.053   1.632
  877TIP3   OH2 2636   1.059   3.492   1.981
  877TIP3    H1 2637   1.078   3.570   2.033
  877TIP3    H2 2638   0.964   3.494   1.969
  878TIP3   OH2 2639   2.521   1.438   4.443
  878TIP3    H1 2640   2.587   1.483   4.496
  878TIP3    H2 2641   2.494   1.502   4.378
  879TIP3   OH2 2642   0.648   5.519   2.266
  879TIP3    H1 2643   0.680   5.491   2.352
  879TIP3    H2 2644   0.565   5.562   2.284
  880TIP3   OH2 2645   4.499   6.026   3.218
  880TIP3    H1 2646   4.455   5.943   3.196
  880TIP3    H2 2647   4.455   6.056   3.297
  881TIP3   OH2 2648   4.040   1.288   4.146
  881TIP3    H1 2649   3.951   1.307   4.177
  881TIP3    H2 2650   4.028   1.222   4.078
  882TIP3   OH2 2651   2.250   1.883   1.158
  882TIP3    H1 2652   2.281   1.873   1.248
  882TIP3    H2 2653   2.327   1.868   1.104
  883TIP3   OH2 2654   6.332   0.984   3.615
  883TIP3    H1 2655   6.247   0.998   3.657
  883TIP3    H2 2656   6.320   1.019   3.526
  884TIP3   OH2 2657  -0.010   1.883   3.908
  884TIP3    H1 2658  -0.005   1.819   3.979
  884TIP3    H2 2659   0.053   1.852   3.843
  885TIP3   OH2 2660   2.358   0.655   2.278
  885TIP3    H1 2661   2.370   0.572   2.324
  885TIP3    H2 2662   2.283   0.696   2.320
  886TIP3   OH2 2663   5.903   2.895   1.087
  886TIP3    H1 2664   5.900   2.799   1.087
  886TIP3    H2 2665   5.933   2.918   1.175
  887TIP3   OH2 2666   5.686   4.824   5.126
  887TIP3    H1 2667   5.676   4.848   5.034
  887TIP3    H2 2668   5.601   4.845   5.166
  888TIP3   OH2 2669   2.730   3.641   3.462
  888TIP3    H1 2670   2.689   3.692   3.532
  888TIP3    H2 2671   2.668   3.646   3.389
  889TIP3   OH2 2672   2.734   5.579   3.044
  889TIP3    H1 2673   2.649   5.536   3.033
  889TIP3    H2 2674   2.714   5.672   3.048
  890TIP3   OH2 2675   5.391   1.589   4.786
  890TIP3    H1 2676   5.350   1.675   4.774
  890TIP3    H2 2677   5.435   1.595   4.871
  891TIP3   OH2 2678   0.048   3.273   4.475
  891TIP3    H1 2679  -0.044   3.259   4.452
  891TIP3    H2 2680   0.070   3.199   4.532
  892TIP3   OH2 2681   3.559   2.740   2.032
  892TIP3    H1 2682   3.501   2.758   2.106
  892TIP3    H2 2683   3.531   2.801   1.964
  893TIP3   OH2 2684   2.117   1.787   4.993
  893TIP3    H1 2685   2.189   1.747   5.043
  893TIP3    H2 2686   2.159   1.858   4.944
  894TIP3   OH2 2687   5.229   3.157   2.527
  894TIP3    H1 2688   5.192   3.143   2.440
  894TIP3    H2 2689   5.323   3.149   2.515
  895TIP3   OH2 2690   6.150   4.538   2.278
  895TIP3    H1 2691   6.120   4.525   2.368
  895TIP3    H2 2692   6.080   4.501   2.223
  896TIP3   OH2 2693   2.912   1.195   1.837
  896TIP3    H1 2694   2.824   1.161   1.854
  896TIP3    H2 2695   2.962   1.118   1.809
  897TIP3   OH2 2696   0.060   4.425   4.626
  897TIP3    H1 2697  -0.008   4.491   4.620
  897TIP3    H2 2698   0.135   4.463   4.581
  898TIP3   OH2 2699   2.262   2.832   2.356
  898TIP3    H1 2700   2.228   2.807   2.270
  898TIP3    H2 2701   2.248   2.754   2.410
  899TIP3   OH2 2702   0.236   3.435   4.601
  899TIP3    H1 2703   0.171   3.503   4.623
  899TIP3    H2 2704   0.184   3.362   4.569
  900TIP3   OH2 2705   1.523   1.829   2.102
  900TIP3    H1 2706   1.510   1.785   2.185
  900TIP3    H2 2707   1.439   1.870   2.082
  901TIP3   OH2 2708   1.427   0.192   2.842
  901TIP3    H1 2709   1.501   0.213   2.899
  901TIP3    H2 2710   1.379   0.275   2.834
  902TIP3   OH2 2711   6.117   4.569   5.080
  902TIP3    H1 2712   6.092   4.550   5.170
  902TIP3    H2 2713   6.140   4.483   5.043
  903TIP3   OH2 2714   4.519   4.771   1.385
  903TIP3    H1 2715   4.590   4.782   1.321
  903TIP3    H2 2716   4.491   4.680   1.375
  904TIP3   OH2 2717   3.002   3.125   1.286
  904TIP3    H1 2718   2.956   3.209   1.289
  904TIP3    H2 2719   2.969   3.084   1.206
  905TIP3   OH2 2720   5.005   5.615   4.629
  905TIP3    H1 2721   4.948   5.688   4.656
  905TIP3    H2 2722   4.977   5.596   4.540
  906TIP3   OH2 2723   5.701   1.609   3.965
  906TIP3    H1 2724   5.763   1.560   3.911
  906TIP3    H2 2725   5.619   1.560   3.957
  907TIP3   OH2 2726   0.078   0.119   4.313
  907TIP3    H1 2727   0.066   0.207   4.351
  907TIP3    H2 2728  -0.010   0.095   4.283
  908TIP3   OH2 2729   2.818   3.850   0.451
  908TIP3    H1 2730   2.905   3.831   0.486
  908TIP3    H2 2731   2.826   3.831   0.358
  909TIP3   OH2 2732   4.061   3.289   2.926
  909TIP3    H1 2733   4.133   3.311   2.867
  909TIP3    H2 2734   4.062   3.193   2.931
  910TIP3   OH2 2735   5.924   5.207   0.931
  910TIP3    H1 2736   5.829   5.209   0.923
  910TIP3    H2 2737   5.949   5.123   0.892
  911TIP3   OH2 2738   1.144   1.505   4.679
  911TIP3    H1 2739   1.187   1.583   4.645
  911TIP3    H2 2740   1.208   1.435   4.666
  912TIP3   OH2 2741   0.444   1.980   3.606
  912TIP3    H1 2742   0.485   1.968   3.692
  912TIP3    H2 2743   0.385   2.055   3.618
  913TIP3   OH2 2744   0.330   5.467   5.074
  913TIP3    H1 2745   0.241   5.477   5.109
  913TIP3    H2 2746   0.333   5.527   5.000
  914TIP3   OH2 2747   0.826   0.407   5.246
  914TIP3    H1 2748   0.840   0.403   5.151
  914TIP3    H2 2749   0.908   0.444   5.280
  915TIP3   OH2 2750   2.117   2.037   0.207
  915TIP3    H1 2751   2.203   2.077   0.211
  915TIP3    H2 2752   2.126   1.965   0.145
  916TIP3   OH2 2753   4.150   5.709   3.913
  916TIP3    H1 2754   4.149   5.650   3.988
  916TIP3    H2 2755   4.139   5.651   3.837
  917TIP3   OH2 2756   2.169   4.687   0.994
  917TIP3    H1 2757   2.137   4.648   1.076
  917TIP3    H2 2758   2.090   4.717   0.949
  918TIP3   OH2 2759   2.577   1.938   2.620
  918TIP3    H1 2760   2.601   1.949   2.528
  918TIP3    H2 2761   2.649   1.977   2.669
  919TIP3   OH2 2762   2.103   2.961   5.077
  919TIP3    H1 2763   2.160   2.905   5.025
  919TIP3    H2 2764   2.016   2.952   5.037
  920TIP3   OH2 2765   3.758   3.528   0.063
  920TIP3    H1 2766   3.666   3.527   0.035
  920TIP3    H2 2767   3.758   3.483   0.147
  921TIP3   OH2 2768   3.298   5.117   3.846
  921TIP3    H1 2769   3.222   5.097   3.792
  921TIP3    H2 2770   3.369   5.065   3.808
  922TIP3   OH2 2771   5.372   5.480   4.030
  922TIP3    H1 2772   5.325   5.469   3.948
  922TIP3    H2 2773   5.433   5.552   4.013
  923TIP3   OH2 2774   1.656   3.492   4.764
  923TIP3    H1 2775   1.583   3.443   4.728
  923TIP3    H2 2776   1.640   3.583   4.737
  924TIP3   OH2 2777   5.252   1.659   2.455
  924TIP3    H1 2778   5.161   1.658   2.424
  924TIP3    H2 2779   5.257   1.584   2.515
  925TIP3   OH2 2780   5.697   2.187   1.140
  925TIP3    H1 2781   5.619   2.234   1.108
  925TIP3    H2 2782   5.764   2.206   1.075
  926TIP3   OH2 2783   2.136   1.388   2.081
  926TIP3    H1 2784   2.220   1.340   2.079
  926TIP3    H2 2785   2.133   1.434   1.998
  927TIP3   OH2 2786   3.252   0.160   3.301
  927TIP3    H1 2787   3.167   0.186   3.266
  927TIP3    H2 2788   3.260   0.208   3.383
  928TIP3   OH2 2789   5.283   2.303   2.768
  928TIP3    H1 2790   5.302   2.394   2.789
  928TIP3    H2 2791   5.245   2.305   2.681
  929TIP3   OH2 2792   4.242   3.527   4.550
  929TIP3    H1 2793   4.204   3.614   4.552
  929TIP3    H2 2794   4.167   3.467   4.551
  930TIP3   OH2 2795   2.784   4.223   0.135
  930TIP3    H1 2796   2.726   4.263   0.200
  930TIP3    H2 2797   2.728   4.204   0.060
  931TIP3   OH2 2798   3.115   0.218   0.975
  931TIP3    H1 2799   3.071   0.149   1.025
  931TIP3    H2 2800   3.045   0.260   0.925
  932TIP3   OH2 2801   3.774   0.740   0.487
  932TIP3    H1 2802   3.734   0.674   0.544
  932TIP3    H2 2803   3.729   0.729   0.403
  933TIP3   OH2 2804   5.283   5.961   3.055
  933TIP3    H1 2805   5.322   6.013   2.984
  933TIP3    H2 2806   5.237   5.890   3.011
  934TIP3   OH2 2807   1.484   1.562   1.271
  934TIP3    H1 2808   1.505   1.484   1.322
  934TIP3    H2 2809   1.567   1.589   1.234
  935TIP3   OH2 2810   1.612   4.788   0.407
  935TIP3    H1 2811   1.698   4.830   0.410
  935TIP3    H2 2812   1.621   4.719   0.341
  936TIP3   OH2 2813   2.987   3.902   1.081
  936TIP3    H1 2814   3.024   3.983   1.046
  936TIP3    H2 2815   2.976   3.845   1.005
  937TIP3   OH2 2816   1.492   4.462   4.059
  937TIP3    H1 2817   1.406   4.425   4.037
  937TIP3    H2 2818   1.546   4.385   4.079
  938TIP3   OH2 2819   4.157   1.288   5.065
  938TIP3    H1 2820   4.140   1.337   4.984
  938TIP3    H2 2821   4.130   1.199   5.045
  939TIP3   OH2 2822   0.466   0.969   4.701
  939TIP3    H1 2823   0.506   0.884   4.686
  939TIP3    H2 2824   0.525   1.031   4.659
  940TIP3   OH2 2825   4.781   0.901   3.462
  940TIP3    H1 2826   4.861   0.869   3.502
  940TIP3    H2 2827   4.732   0.822   3.439
  941TIP3   OH2 2828   5.526   0.813   3.708
  941TIP3    H1 2829   5.510   0.757   3.632
  941TIP3    H2 2830   5.444   0.861   3.720
  942TIP3   OH2 2831   2.878   1.373   4.439
  942TIP3    H1 2832   2.825   1.429   4.495
  942TIP3    H2 2833   2.958   1.423   4.423
  943TIP3   OH2 2834   3.503   1.767   2.865
  943TIP3    H1 2835   3.507   1.699   2.798
  943TIP3    H2 2836   3.416   1.758   2.904
  944TIP3   OH2 2837   2.865   1.720   1.000
  944TIP3    H1 2838   2.871   1.768   0.917
  944TIP3    H2 2839   2.825   1.783   1.060
  945TIP3   OH2 2840   0.552   5.058   5.235
  945TIP3    H1 2841   0.524   5.142   5.270
  945TIP3    H2 2842   0.490   5.038   5.166
  946TIP3   OH2 2843   1.093   4.310   4.863
  946TIP3    H1 2844   1.031   4.346   4.926
  946TIP3    H2 2845   1.179   4.317   4.905
  947TIP3   OH2 2846   1.863   0.272   4.171
  947TIP3    H1 2847   1.941   0.301   4.124
  947TIP3    H2 2848   1.829   0.200   4.118
  948TIP3   OH2 2849   4.230   3.407   0.553
  948TIP3    H1 2850   4.304   3.458   0.520
  948TIP3    H2 2851   4.176   3.470   0.601
  949TIP3   OH2 2852   3.677   3.132   0.535
  949TIP3    H1 2853   3.707   3.053   0.490
  949TIP3    H2 2854   3.757   3.178   0.559
  950TIP3   OH2 2855   0.301   4.462   5.113
  950TIP3    H1 2856   0.283   4.441   5.205
  950TIP3    H2 2857   0.219   4.499   5.080
  951TIP3   OH2 2858   1.663   2.885   1.650
  951TIP3    H1 2859   1.648   2.836   1.569
  951TIP3    H2 2860   1.594   2.855   1.710
  952TIP3   OH2 2861   2.324   5.198   4.322
  952TIP3    H1 2862   2.320   5.104   4.304
  952TIP3    H2 2863   2.409   5.211   4.363
  953TIP3   OH2 2864   0.919   0.699   0.938
  953TIP3    H1 2865   0.910   0.609   0.966
  953TIP3    H2 2866   1.008   0.724   0.964
  954TIP3   OH2 2867   6.251   3.394   3.965
  954TIP3    H1 2868   6.262   3.316   3.910
  954TIP3    H2 2869   6.272   3.364   4.053
  955TIP3   OH2 2870   4.021   2.157   4.161
  955TIP3    H1 2871   4.068   2.188   4.083
  955TIP3    H2 2872   3.929   2.156   4.134
  956TIP3   OH2 2873   2.551   2.878   0.505
  956TIP3    H1 2874   2.646   2.872   0.500
  956TIP3    H2 2875   2.519   2.807   0.448
  957TIP3   OH2 2876   1.234   5.441   2.635
  957TIP3    H1 2877   1.240   5.444   2.540
  957TIP3    H2 2878   1.213   5.349   2.655
  958TIP3   OH2 2879   5.197   2.530   4.603
  958TIP3    H1 2880   5.252   2.554   4.529
  958TIP3    H2 2881   5.176   2.614   4.646
  959TIP3   OH2 2882   1.686   2.218   0.788
  959TIP3    H1 2883   1.684   2.311   0.767
  959TIP3    H2 2884   1.779   2.199   0.804
  960TIP3   OH2 2885   4.710   3.374   1.563
  960TIP3    H1 2886   4.723   3.302   1.502
  960TIP3    H2 2887   4.728   3.453   1.511
  961TIP3   OH2 2888   2.846   5.364   2.577
  961TIP3    H1 2889   2.788   5.392   2.648
  961TIP3    H2 2890   2.915   5.430   2.574
  962TIP3   OH2 2891   1.679   3.552   5.031
  962TIP3    H1 2892   1.767   3.528   5.061
  962TIP3    H2 2893   1.676   3.526   4.939
  963TIP3   OH2 2894   3.943   1.638   0.578
  963TIP3    H1 2895   3.905   1.662   0.493
  963TIP3    H2 2896   3.894   1.690   0.642
  964TIP3   OH2 2897   0.799   4.737   0.004
  964TIP3    H1 2898   0.712   4.705   0.029
  964TIP3    H2 2899   0.814   4.700  -0.082
  965TIP3   OH2 2900   6.076   0.666   4.733
  965TIP3    H1 2901   6.027   0.713   4.665
  965TIP3    H2 2902   6.145   0.727   4.759
  966TIP3   OH2 2903   4.274   2.744   3.749
  966TIP3    H1 2904   4.281   2.820   3.807
  966TIP3    H2 2905   4.265   2.781   3.661
  967TIP3   OH2 2906   4.583   0.185   4.786
  967TIP3    H1 2907   4.495   0.215   4.810
  967TIP3    H2 2908   4.628   0.265   4.759
  968TIP3   OH2 2909   5.108   0.226   4.712
  968TIP3    H1 2910   5.082   0.185   4.795
  968TIP3    H2 2911   5.058   0.307   4.709
  969TIP3   OH2 2912   5.350   2.546   3.934
  969TIP3    H1 2913   5.342   2.458   3.971
  969TIP3    H2 2914   5.269   2.591   3.961
  970TIP3   OH2 2915   5.468   1.466   4.025
  970TIP3    H1 2916   5.487   1.381   4.065
  970TIP3    H2 2917   5.375   1.461   4.001
  971TIP3   OH2 2918   3.886   0.863   5.034
  971TIP3    H1 2919   3.806   0.908   5.063
  971TIP3    H2 2920   3.876   0.774   5.069
  972TIP3   OH2 2921   3.664   5.843   4.058
  972TIP3    H1 2922   3.702   5.895   4.129
  972TIP3    H2 2923   3.615   5.906   4.005
  973TIP3   OH2 2924   6.081   5.400   0.645
  973TIP3    H1 2925   6.022   5.442   0.582
  973TIP3    H2 2926   6.055   5.308   0.644
  974TIP3   OH2 2927   1.605   5.722   1.953
  974TIP3    H1 2928   1.556   5.645   1.925
  974TIP3    H2 2929   1.542   5.794   1.948
  975TIP3   OH2 2930   3.404   4.502   1.729
  975TIP3    H1 2931   3.320   4.544   1.712
  975TIP3    H2 2932   3.381   4.414   1.760
  976TIP3   OH2 2933   2.607   3.555   2.465
  976TIP3    H1 2934   2.594   3.519   2.553
  976TIP3    H2 2935   2.624   3.648   2.479
  977TIP3   OH2 2936   0.802   2.823   4.766
  977TIP3    H1 2937   0.832   2.884   4.833
  977TIP3    H2 2938   0.781   2.743   4.814
  978TIP3   OH2 2939   1.234   0.482   2.011
  978TIP3    H1 2940   1.145   0.475   1.976
  978TIP3    H2 2941   1.248   0.576   2.023
  979TIP3   OH2 2942   3.710   5.158   0.504
  979TIP3    H1 2943   3.645   5.204   0.450
  979TIP3    H2 2944   3.794   5.195   0.477
  980TIP3   OH2 2945   4.958   4.509   4.643
  980TIP3    H1 2946   5.008   4.543   4.569
  980TIP3    H2 2947   4.878   4.474   4.604
  981TIP3   OH2 2948   4.843   1.140   4.679
  981TIP3    H1 2949   4.814   1.226   4.710
  981TIP3    H2 2950   4.867   1.094   4.759
  982TIP3   OH2 2951   5.730   1.151   4.638
  982TIP3    H1 2952   5.707   1.130   4.548
  982TIP3    H2 2953   5.736   1.067   4.682
  983TIP3   OH2 2954   0.473   4.682   3.563
  983TIP3    H1 2955   0.409   4.634   3.509
  983TIP3    H2 2956   0.420   4.726   3.629
  984TIP3   OH2 2957   1.978   1.936   2.199
  984TIP3    H1 2958   1.903   1.930   2.140
  984TIP3    H2 2959   1.998   2.030   2.202
  985TIP3   OH2 2960   2.444   4.129   0.393
  985TIP3    H1 2961   2.490   4.103   0.472
  985TIP3    H2 2962   2.492   4.087   0.322
  986TIP3   OH2 2963   0.637   0.043   1.411
  986TIP3    H1 2964   0.638  -0.046   1.374
  986TIP3    H2 2965   0.724   0.078   1.391
  987TIP3   OH2 2966   3.255   2.861   4.093
  987TIP3    H1 2967   3.303   2.823   4.167
  987TIP3    H2 2968   3.228   2.786   4.041
  988TIP3   OH2 2969   1.198   4.893   3.775
  988TIP3    H1 2970   1.244   4.858   3.699
  988TIP3    H2 2971   1.236   4.846   3.849
  989TIP3   OH2 2972   3.635   5.773   2.551
  989TIP3    H1 2973   3.645   5.734   2.638
  989TIP3    H2 2974   3.542   5.795   2.544
  990TIP3   OH2 2975  -0.003   2.629   4.941
  990TIP3    H1 2976  -0.025   2.536   4.929
  990TIP3    H2 2977   0.078   2.627   4.992
  991TIP3   OH2 2978   2.860   0.619   1.521
  991TIP3    H1 2979   2.789   0.678   1.547
  991TIP3    H2 2980   2.816   0.541   1.490
  992TIP3   OH2 2981   2.695   3.262   2.551
  992TIP3    H1 2982   2.642   3.232   2.626
  992TIP3    H2 2983   2.634   3.312   2.497
  993TIP3   OH2 2984   5.769   3.862   3.531
  993TIP3    H1 2985   5.812   3.797   3.587
  993TIP3    H2 2986   5.681   3.870   3.565
  994TIP3   OH2 2987   6.196   5.679   1.671
  994TIP3    H1 2988   6.132   5.730   1.721
  994TIP3    H2 2989   6.253   5.745   1.631
  995TIP3   OH2 2990   3.323   0.316   3.520
  995TIP3    H1 2991   3.278   0.270   3.591
  995TIP3    H2 2992   3.397   0.359   3.563
  996TIP3   OH2 2993   2.049   3.610   4.652
  996TIP3    H1 2994   1.969   3.644   4.692
  996TIP3    H2 2995   2.021   3.532   4.604
  997TIP3   OH2 2996   1.020   5.035   0.541
  997TIP3    H1 2997   1.023   4.946   0.507
  997TIP3    H2 2998   0.927   5.057   0.543
  998TIP3   OH2 2999   2.615   1.037   4.201
  998TIP3    H1 3000   2.693   1.092   4.200
  998TIP3    H2 3001   2.649   0.948   4.209
  999TIP3   OH2 3002   6.086   2.197   1.105
  999TIP3    H1 3003   6.035   2.118   1.087
  999TIP3    H2 3004   6.053   2.228   1.190
 1000TIP3   OH2 3005   3.234   2.622   2.598
 1000TIP3    H1 3006   3.285   2.695   2.634
 1000TIP3    H2 3007   3.228   2.641   2.504
 1001TIP3   OH2 3008   3.110   2.818   0.431
 1001TIP3    H1 3009   3.098   2.875   0.507
 1001TIP3    H2 3010   3.200   2.787   0.438
 1002TIP3   OH2 3011   2.230   0.305   2.006
 1002TIP3    H1 3012   2.301   0.352   1.963
 1002TIP3    H2 3013   2.156   0.311   1.945
 1003TIP3   OH2 3014   4.635   5.849   4.380
 1003TIP3    H1 3015   4.721   5.810   4.364
 1003TIP3    H2 3016   4.654   5.939   4.404
 1004TIP3   OH2 3017   6.017   1.087   3.479
 1004TIP3    H1 3018   6.040   0.998   3.452
 1004TIP3    H2 3019   6.054   1.096   3.567
 1005TIP3   OH2 3020   4.355   1.303   2.354
 1005TIP3    H1 3021   4.263   1.314   2.378
 1005TIP3    H2 3022   4.361   1.211   2.326
 1006TIP3   OH2 3023   3.337   0.728   1.608
 1006TIP3    H1 3024   3.244   0.735   1.629
 1006TIP3    H2 3025   3.359   0.636   1.626
 1007TIP3   OH2 3026   4.267   4.919   0.185
 1007TIP3    H1 3027   4.175   4.946   0.183
 1007TIP3    H2 3028   4.264   4.827   0.211
 1008TIP3   OH2 3029   3.895   5.071   1.405
 1008TIP3    H1 3030   3.957   5.031   1.465
 1008TIP3    H2 3031   3.852   5.139   1.456
 1009TIP3   OH2 3032   0.420   0.557   4.462
 1009TIP3    H1 3033   0.430   0.601   4.377
 1009TIP3    H2 3034   0.480   0.604   4.520
 1010TIP3   OH2 3035   2.061   1.399   2.436
 1010TIP3    H1 3036   2.019   1.468   2.487
 1010TIP3    H2 3037   1.989   1.357   2.389
 1011TIP3   OH2 3038   3.156   3.465   4.460
 1011TIP3    H1 3039   3.208   3.468   4.380
 1011TIP3    H2 3040   3.096   3.540   4.453
 1012TIP3   OH2 3041   0.505   2.320   2.878
 1012TIP3    H1 3042   0.435   2.326   2.813
 1012TIP3    H2 3043   0.503   2.229   2.907
 1013TIP3   OH2 3044   3.121   4.145   1.307
 1013TIP3    H1 3045   3.083   4.227   1.276
 1013TIP3    H2 3046   3.202   4.171   1.351
 1014TIP3   OH2 3047   2.427   1.317   1.016
 1014TIP3    H1 3048   2.410   1.244   0.957
 1014TIP3    H2 3049   2.340   1.349   1.041
 1015TIP3   OH2 3050   6.181   5.183   4.368
 1015TIP3    H1 3051   6.154   5.274   4.352
 1015TIP3    H2 3052   6.106   5.143   4.411
 1016TIP3   OH2 3053   4.828   5.243   4.568
 1016TIP3    H1 3054   4.752   5.299   4.586
 1016TIP3    H2 3055   4.804   5.195   4.489
 1017TIP3   OH2 3056   3.114   2.374   0.150
 1017TIP3    H1 3057   3.204   2.382   0.182
 1017TIP3    H2 3058   3.121   2.384   0.055
 1018TIP3   OH2 3059   0.628   0.806   3.581
 1018TIP3    H1 3060   0.533   0.815   3.594
 1018TIP3    H2 3061   0.665   0.886   3.617
 1019TIP3   OH2 3062   4.044   4.234   4.403
 1019TIP3    H1 3063   4.056   4.181   4.482
 1019TIP3    H2 3064   4.045   4.171   4.332
 1020TIP3   OH2 3065   5.463   5.611   4.307
 1020TIP3    H1 3066   5.508   5.530   4.282
 1020TIP3    H2 3067   5.532   5.667   4.342
 1021TIP3   OH2 3068   3.749   5.524   3.762
 1021TIP3    H1 3069   3.759   5.607   3.715
 1021TIP3    H2 3070   3.827   5.518   3.818
 1022TIP3   OH2 3071   2.022   2.552   1.722
 1022TIP3    H1 3072   1.985   2.612   1.786
 1022TIP3    H2 3073   1.960   2.479   1.719
 1023TIP3   OH2 3074   2.373   3.801   3.080
 1023TIP3    H1 3075   2.349   3.748   3.003
 1023TIP3    H2 3076   2.305   3.780   3.145
 1024TIP3   OH2 3077   4.868   1.244   1.748
 1024TIP3    H1 3078   4.773   1.240   1.763
 1024TIP3    H2 3079   4.905   1.185   1.814
 1025TIP3   OH2 3080   0.037   4.294   0.786
 1025TIP3    H1 3081  -0.009   4.238   0.722
 1025TIP3    H2 3082   0.110   4.240   0.816
 1026TIP3   OH2 3083   5.063   3.420   3.749
 1026TIP3    H1 3084   5.076   3.397   3.657
 1026TIP3    H2 3085   5.066   3.516   3.751
 1027TIP3   OH2 3086   1.334   3.392   1.438
 1027TIP3    H1 3087   1.294   3.479   1.439
 1027TIP3    H2 3088   1.351   3.372   1.530
 1028TIP3   OH2 3089   4.949   2.604   2.460
 1028TIP3    H1 3090   4.881   2.655   2.504
 1028TIP3    H2 3091   5.028   2.658   2.467
 1029TIP3   OH2 3092   0.965   5.797   3.213
 1029TIP3    H1 3093   1.041   5.845   3.180
 1029TIP3    H2 3094   0.995   5.706   3.219
 1030TIP3   OH2 3095   5.364   0.839   2.102
 1030TIP3    H1 3096   5.451   0.799   2.110
 1030TIP3    H2 3097   5.334   0.848   2.193
 1031TIP3   OH2 3098   0.451   3.900   0.837
 1031TIP3    H1 3099   0.418   3.833   0.897
 1031TIP3    H2 3100   0.416   3.875   0.751
 1032TIP3   OH2 3101   5.825   2.537   1.087
 1032TIP3    H1 3102   5.819   2.495   1.173
 1032TIP3    H2 3103   5.745   2.590   1.081
 1033TIP3   OH2 3104   4.488   2.707   4.506
 1033TIP3    H1 3105   4.479   2.785   4.562
 1033TIP3    H2 3106   4.538   2.645   4.560
 1034TIP3   OH2 3107   5.272   1.096   1.981
 1034TIP3    H1 3108   5.303   1.013   2.016
 1034TIP3    H2 3109   5.351   1.150   1.973
 1035TIP3   OH2 3110   6.287   3.898   4.525
 1035TIP3    H1 3111   6.251   3.987   4.518
 1035TIP3    H2 3112   6.274   3.860   4.438
 1036TIP3   OH2 3113   4.445   1.768   2.032
 1036TIP3    H1 3114   4.424   1.687   2.079
 1036TIP3    H2 3115   4.529   1.749   1.989
 1037TIP3   OH2 3116   0.741   0.796   3.043
 1037TIP3    H1 3117   0.756   0.850   3.121
 1037TIP3    H2 3118   0.649   0.771   3.050
 1038TIP3   OH2 3119   3.154   4.085   2.142
 1038TIP3    H1 3120   3.227   4.111   2.086
 1038TIP3    H2 3121   3.196   4.045   2.218
 1039TIP3   OH2 3122   4.017   3.962   3.735
 1039TIP3    H1 3123   4.032   3.873   3.704
 1039TIP3    H2 3124   4.091   3.980   3.793
 1040TIP3   OH2 3125   3.410   4.748   0.520
 1040TIP3    H1 3126   3.432   4.731   0.612
 1040TIP3    H2 3127   3.493   4.777   0.481
 1041TIP3   OH2 3128   3.435   3.993   4.188
 1041TIP3    H1 3129   3.351   3.951   4.172
 1041TIP3    H2 3130   3.496   3.946   4.131
 1042TIP3   OH2 3131   3.956   0.601   1.428
 1042TIP3    H1 3132   4.031   0.660   1.420
 1042TIP3    H2 3133   3.882   0.659   1.446
 1043TIP3   OH2 3134   2.410   2.541   2.304
 1043TIP3    H1 3135   2.362   2.468   2.264
 1043TIP3    H2 3136   2.353   2.572   2.373
 1044TIP3   OH2 3137   0.855   0.264   4.573
 1044TIP3    H1 3138   0.826   0.215   4.496
 1044TIP3    H2 3139   0.847   0.202   4.645
 1045TIP3   OH2 3140   3.830   0.137   0.222
 1045TIP3    H1 3141   3.771   0.192   0.274
 1045TIP3    H2 3142   3.863   0.194   0.153
 1046TIP3   OH2 3143   0.149   5.809   5.136
 1046TIP3    H1 3144   0.100   5.777   5.212
 1046TIP3    H2 3145   0.083   5.846   5.078
 1047TIP3   OH2 3146   4.137   2.182   1.605
 1047TIP3    H1 3147   4.077   2.115   1.571
 1047TIP3    H2 3148   4.175   2.142   1.683
 1048TIP3   OH2 3149   2.308   0.122   0.274
 1048TIP3    H1 3150   2.246   0.176   0.323
 1048TIP3    H2 3151   2.339   0.179   0.203
 1049TIP3   OH2 3152   5.341   3.685   4.920
 1049TIP3    H1 3153   5.432   3.680   4.948
 1049TIP3    H2 3154   5.297   3.612   4.964
 1050TIP3   OH2 3155   4.536   0.641   2.361
 1050TIP3    H1 3156   4.536   0.705   2.289
 1050TIP3    H2 3157   4.620   0.653   2.404
 1051TIP3   OH2 3158   4.785   0.644   4.460
 1051TIP3    H1 3159   4.738   0.673   4.382
 1051TIP3    H2 3160   4.794   0.723   4.513
 1052TIP3   OH2 3161   3.503   0.656   3.413
 1052TIP3    H1 3162   3.551   0.590   3.363
 1052TIP3    H2 3163   3.479   0.611   3.495
 1053TIP3   OH2 3164   3.296   4.069   3.023
 1053TIP3    H1 3165   3.304   3.985   2.978
 1053TIP3    H2 3166   3.229   4.054   3.090
 1054TIP3   OH2 3167   4.698   3.337   4.979
 1054TIP3    H1 3168   4.684   3.246   4.955
 1054TIP3    H2 3169   4.643   3.387   4.919
 1055TIP3   OH2 3170   2.423   3.671   1.661
 1055TIP3    H1 3171   2.483   3.626   1.601
 1055TIP3    H2 3172   2.368   3.724   1.604
 1056TIP3   OH2 3173   0.341   2.351   4.158
 1056TIP3    H1 3174   0.374   2.422   4.212
 1056TIP3    H2 3175   0.419   2.308   4.124
 1057TIP3   OH2 3176   0.955   4.938   4.287
 1057TIP3    H1 3177   0.941   4.874   4.216
 1057TIP3    H2 3178   1.050   4.955   4.284
 1058TIP3   OH2 3179   2.461   4.678   1.037
 1058TIP3    H1 3180   2.490   4.747   1.097
 1058TIP3    H2 3181   2.368   4.695   1.024
 1059TIP3   OH2 3182   5.881   3.281   3.896
 1059TIP3    H1 3183   5.952   3.217   3.889
 1059TIP3    H2 3184   5.802   3.231   3.876
 1060TIP3   OH2 3185   3.512   2.410   3.731
 1060TIP3    H1 3186   3.441   2.470   3.710
 1060TIP3    H2 3187   3.552   2.388   3.647
 1061TIP3   OH2 3188   1.761   2.517   1.537
 1061TIP3    H1 3189   1.716   2.446   1.491
 1061TIP3    H2 3190   1.742   2.595   1.484
 1062TIP3   OH2 3191   0.277   4.016   2.700
 1062TIP3    H1 3192   0.186   4.023   2.726
 1062TIP3    H2 3193   0.288   3.924   2.674
 1063TIP3   OH2 3194   4.990   4.099   4.030
 1063TIP3    H1 3195   5.063   4.081   3.972
 1063TIP3    H2 3196   4.963   4.013   4.062
 1064TIP3   OH2 3197   0.245   4.097   2.024
 1064TIP3    H1 3198   0.205   4.052   2.098
 1064TIP3    H2 3199   0.312   4.153   2.064
 1065TIP3   OH2 3200   0.950   0.506   1.294
 1065TIP3    H1 3201   0.953   0.598   1.269
 1065TIP3    H2 3202   0.934   0.507   1.389
 1066TIP3   OH2 3203   5.019   3.286   4.725
 1066TIP3    H1 3204   5.092   3.312   4.781
 1066TIP3    H2 3205   4.961   3.237   4.783
 1067TIP3   OH2 3206   2.325   5.368   0.283
 1067TIP3    H1 3207   2.250   5.399   0.233
 1067TIP3    H2 3208   2.383   5.444   0.290
 1068TIP3   OH2 3209   5.120   4.494   4.398
 1068TIP3    H1 3210   5.105   4.420   4.340
 1068TIP3    H2 3211   5.138   4.567   4.339
 1069TIP3   OH2 3212   3.538   2.232   4.822
 1069TIP3    H1 3213   3.599   2.158   4.813
 1069TIP3    H2 3214   3.460   2.193   4.863
 1070TIP3   OH2 3215   6.237   4.539   0.635
 1070TIP3    H1 3216   6.190   4.456   0.633
 1070TIP3    H2 3217   6.183   4.598   0.581
 1071TIP3   OH2 3218   5.993   1.516   2.644
 1071TIP3    H1 3219   5.969   1.494   2.734
 1071TIP3    H2 3220   6.080   1.556   2.652
 1072TIP3   OH2 3221   0.706   2.289   1.995
 1072TIP3    H1 3222   0.618   2.302   2.031
 1072TIP3    H2 3223   0.721   2.194   2.002
 1073TIP3   OH2 3224   0.994   3.053   4.598
 1073TIP3    H1 3225   0.947   3.022   4.676
 1073TIP3    H2 3226   0.938   3.029   4.525
 1074TIP3   OH2 3227   4.768   4.153   3.755
 1074TIP3    H1 3228   4.781   4.193   3.841
 1074TIP3    H2 3229   4.766   4.059   3.772
 1075TIP3   OH2 3230   2.361   5.752   2.915
 1075TIP3    H1 3231   2.397   5.788   2.996
 1075TIP3    H2 3232   2.382   5.818   2.849
 1076TIP3   OH2 3233   3.448   4.917   1.428
 1076TIP3    H1 3234   3.469   4.902   1.520
 1076TIP3    H2 3235   3.528   4.892   1.380
 1077TIP3   OH2 3236   2.495   2.095   0.293
 1077TIP3    H1 3237   2.457   2.056   0.372
 1077TIP3    H2 3238   2.584   2.061   0.290
 1078TIP3   OH2 3239   2.123   5.755   3.077
 1078TIP3    H1 3240   2.066   5.824   3.041
 1078TIP3    H2 3241   2.155   5.709   2.999
 1079TIP3   OH2 3242   0.940   3.965   0.226
 1079TIP3    H1 3243   1.019   3.956   0.279
 1079TIP3    H2 3244   0.869   3.940   0.286
 1080TIP3   OH2 3245   5.567   1.566   0.546
 1080TIP3    H1 3246   5.528   1.529   0.625
 1080TIP3    H2 3247   5.572   1.492   0.485
 1081TIP3   OH2 3248   4.400   2.622   3.018
 1081TIP3    H1 3249   4.422   2.560   2.949
 1081TIP3    H2 3250   4.392   2.706   2.974
 1082TIP3   OH2 3251   1.071   3.679   2.452
 1082TIP3    H1 3252   1.115   3.594   2.448
 1082TIP3    H2 3253   1.140   3.740   2.477
 1083TIP3   OH2 3254   3.503   3.596   4.935
 1083TIP3    H1 3255   3.479   3.680   4.975
 1083TIP3    H2 3256   3.579   3.566   4.984
 1084TIP3   OH2 3257   4.054   0.107   2.444
 1084TIP3    H1 3258   4.012   0.159   2.375
 1084TIP3    H2 3259   3.985   0.048   2.475
 1085TIP3   OH2 3260   0.809   2.579   2.453
 1085TIP3    H1 3261   0.837   2.649   2.394
 1085TIP3    H2 3262   0.889   2.553   2.499
 1086TIP3   OH2 3263   0.620   0.500   3.176
 1086TIP3    H1 3264   0.666   0.521   3.256
 1086TIP3    H2 3265   0.580   0.582   3.148
 1087TIP3   OH2 3266   0.710   3.694   1.894
 1087TIP3    H1 3267   0.621   3.714   1.923
 1087TIP3    H2 3268   0.764   3.764   1.933
 1088TIP3   OH2 3269   0.092   1.399   0.606
 1088TIP3    H1 3270   0.185   1.385   0.589
 1088TIP3    H2 3271   0.073   1.484   0.568
 1089TIP3   OH2 3272   4.339   1.905   0.140
 1089TIP3    H1 3273   4.362   1.844   0.069
 1089TIP3    H2 3274   4.369   1.861   0.220
 1090TIP3   OH2 3275   5.362   5.648   3.566
 1090TIP3    H1 3276   5.335   5.714   3.502
 1090TIP3    H2 3277   5.435   5.602   3.525
 1091TIP3   OH2 3278   2.375   5.879   1.918
 1091TIP3    H1 3279   2.388   5.864   1.824
 1091TIP3    H2 3280   2.284   5.851   1.934
 1092TIP3   OH2 3281   4.961   0.986   3.130
 1092TIP3    H1 3282   4.911   1.012   3.052
 1092TIP3    H2 3283   4.942   0.893   3.141
 1093TIP3   OH2 3284   5.526   0.853   4.612
 1093TIP3    H1 3285   5.577   0.825   4.688
 1093TIP3    H2 3286   5.438   0.867   4.647
 1094TIP3   OH2 3287   1.245   5.908   4.211
 1094TIP3    H1 3288   1.224   5.840   4.275
 1094TIP3    H2 3289   1.255   5.861   4.129
 1095TIP3   OH2 3290   4.640   0.421   1.919
 1095TIP3    H1 3291   4.732   0.426   1.942
 1095TIP3    H2 3292   4.619   0.328   1.918
 1096TIP3   OH2 3293   5.817   1.545   3.150
 1096TIP3    H1 3294   5.729   1.526   3.118
 1096TIP3    H2 3295   5.815   1.518   3.242
 1097TIP3   OH2 3296   1.842   3.729   4.779
 1097TIP3    H1 3297   1.866   3.759   4.866
 1097TIP3    H2 3298   1.754   3.764   4.764
 1098TIP3   OH2 3299   4.307   5.417   3.525
 1098TIP3    H1 3300   4.373   5.357   3.560
 1098TIP3    H2 3301   4.302   5.397   3.432
 1099TIP3   OH2 3302   2.795   2.810   0.733
 1099TIP3    H1 3303   2.715   2.759   0.746
 1099TIP3    H2 3304   2.796   2.829   0.639
 1100TIP3   OH2 3305   6.281   2.194   3.703
 1100TIP3    H1 3306   6.352   2.169   3.762
 1100TIP3    H2 3307   6.221   2.120   3.706
 1101TIP3   OH2 3308   4.993   4.852   1.175
 1101TIP3    H1 3309   5.057   4.912   1.136
 1101TIP3    H2 3310   5.013   4.768   1.134
 1102TIP3   OH2 3311   4.677   4.848   0.582
 1102TIP3    H1 3312   4.656   4.825   0.672
 1102TIP3    H2 3313   4.764   4.889   0.587
 1103TIP3   OH2 3314   4.018   0.670   1.958
 1103TIP3    H1 3315   4.017   0.679   1.862
 1103TIP3    H2 3316   3.947   0.608   1.976
 1104TIP3   OH2 3317   2.831   5.640   0.004
 1104TIP3    H1 3318   2.794   5.703  -0.058
 1104TIP3    H2 3319   2.863   5.694   0.076
 1105TIP3   OH2 3320   5.772   1.735   4.690
 1105TIP3    H1 3321   5.688   1.741   4.644
 1105TIP3    H2 3322   5.760   1.664   4.753
 1106TIP3   OH2 3323   0.898   2.528   4.575
 1106TIP3    H1 3324   0.814   2.507   4.615
 1106TIP3    H2 3325   0.938   2.592   4.634
 1107TIP3   OH2 3326   4.992   2.715   1.582
 1107TIP3    H1 3327   4.962   2.793   1.629
 1107TIP3    H2 3328   4.986   2.739   1.489
 1108TIP3   OH2 3329   2.471   4.920   2.675
 1108TIP3    H1 3330   2.415   4.898   2.601
 1108TIP3    H2 3331   2.411   4.952   2.742
 1109TIP3   OH2 3332   1.814   5.995   0.946
 1109TIP3    H1 3333   1.779   5.920   0.995
 1109TIP3    H2 3334   1.749   6.064   0.957
 1110TIP3   OH2 3335   3.247   1.436   1.692
 1110TIP3    H1 3336   3.155   1.426   1.718
 1110TIP3    H2 3337   3.246   1.509   1.630
 1111TIP3   OH2 3338   1.121   3.670   0.773
 1111TIP3    H1 3339   1.206   3.631   0.795
 1111TIP3    H2 3340   1.143   3.752   0.730
 1112TIP3   OH2 3341   1.072   0.740   4.893
 1112TIP3    H1 3342   1.099   0.832   4.899
 1112TIP3    H2 3343   1.125   0.703   4.823
 1113TIP3   OH2 3344   4.607   5.087   2.410
 1113TIP3    H1 3345   4.552   5.140   2.467
 1113TIP3    H2 3346   4.627   5.009   2.461
 1114TIP3   OH2 3347   0.693   5.305   2.081
 1114TIP3    H1 3348   0.772   5.307   2.136
 1114TIP3    H2 3349   0.647   5.387   2.102
 1115TIP3   OH2 3350   4.099   4.149   0.916
 1115TIP3    H1 3351   4.157   4.126   0.844
 1115TIP3    H2 3352   4.046   4.221   0.882
 1116TIP3   OH2 3353   4.194   2.045   2.391
 1116TIP3    H1 3354   4.244   2.022   2.312
 1116TIP3    H2 3355   4.232   1.991   2.460
 1117TIP3   OH2 3356   3.012   3.656   4.743
 1117TIP3    H1 3357   2.981   3.566   4.742
 1117TIP3    H2 3358   3.106   3.649   4.758
 1118TIP3   OH2 3359   5.960   2.524   2.998
 1118TIP3    H1 3360   5.892   2.463   3.027
 1118TIP3    H2 3361   5.915   2.609   2.992
 1119TIP3   OH2 3362   3.621   5.012   2.909
 1119TIP3    H1 3363   3.671   5.093   2.893
 1119TIP3    H2 3364   3.633   4.961   2.829
 1120TIP3   OH2 3365   0.542   5.348   1.654
 1120TIP3    H1 3366   0.499   5.270   1.617
 1120TIP3    H2 3367   0.620   5.360   1.599
 1121TIP3   OH2 3368   3.488   3.549   0.016
 1121TIP3    H1 3369   3.477   3.624   0.074
 1121TIP3    H2 3370   3.403   3.504   0.018
 1122TIP3   OH2 3371   0.449   0.077   1.708
 1122TIP3    H1 3372   0.368   0.037   1.676
 1122TIP3    H2 3373   0.468   0.146   1.646
 1123TIP3   OH2 3374   6.017   4.442   4.287
 1123TIP3    H1 3375   5.972   4.380   4.230
 1123TIP3    H2 3376   6.083   4.484   4.231
 1124TIP3   OH2 3377   2.766   2.088   2.758
 1124TIP3    H1 3378   2.759   2.183   2.769
 1124TIP3    H2 3379   2.723   2.053   2.836
 1125TIP3   OH2 3380   5.183   4.744   0.973
 1125TIP3    H1 3381   5.249   4.786   1.028
 1125TIP3    H2 3382   5.232   4.711   0.898
 1126TIP3   OH2 3383   3.681   4.399   2.166
 1126TIP3    H1 3384   3.649   4.320   2.209
 1126TIP3    H2 3385   3.764   4.418   2.209
 1127TIP3   OH2 3386   4.832   2.049   0.326
 1127TIP3    H1 3387   4.850   2.025   0.235
 1127TIP3    H2 3388   4.905   2.105   0.351
 1128TIP3   OH2 3389   3.360   5.885   4.709
 1128TIP3    H1 3390   3.308   5.878   4.789
 1128TIP3    H2 3391   3.360   5.979   4.689
 1129TIP3   OH2 3392   1.056   1.388   1.996
 1129TIP3    H1 3393   0.980   1.411   2.049
 1129TIP3    H2 3394   1.043   1.436   1.914
 1130TIP3   OH2 3395   2.480   1.553   4.184
 1130TIP3    H1 3396   2.499   1.620   4.118
 1130TIP3    H2 3397   2.506   1.471   4.144
 1131TIP3   OH2 3398   1.824   1.084   4.044
 1131TIP3    H1 3399   1.811   1.108   4.136
 1131TIP3    H2 3400   1.916   1.055   4.040
 1132TIP3   OH2 3401   0.763   0.550   3.423
 1132TIP3    H1 3402   0.829   0.492   3.460
 1132TIP3    H2 3403   0.773   0.633   3.470
 1133TIP3   OH2 3404   5.620   1.855   1.312
 1133TIP3    H1 3405   5.541   1.854   1.365
 1133TIP3    H2 3406   5.651   1.764   1.313
 1134TIP3   OH2 3407   2.516   5.057   1.248
 1134TIP3    H1 3408   2.484   5.143   1.274
 1134TIP3    H2 3409   2.468   5.037   1.168
 1135TIP3   OH2 3410   1.095   2.501   1.004
 1135TIP3    H1 3411   1.165   2.438   0.991
 1135TIP3    H2 3412   1.140   2.583   1.023
 1136TIP3   OH2 3413   3.517   2.782   1.113
 1136TIP3    H1 3414   3.548   2.693   1.127
 1136TIP3    H2 3415   3.452   2.774   1.043
 1137TIP3   OH2 3416   2.086   4.770   1.580
 1137TIP3    H1 3417   2.133   4.835   1.632
 1137TIP3    H2 3418   2.012   4.817   1.542
 1138TIP3   OH2 3419   1.942   5.371   0.570
 1138TIP3    H1 3420   1.962   5.452   0.617
 1138TIP3    H2 3421   1.851   5.353   0.592
 1139TIP3   OH2 3422   0.135   1.775   4.256
 1139TIP3    H1 3423   0.177   1.861   4.258
 1139TIP3    H2 3424   0.134   1.746   4.347
 1140TIP3   OH2 3425   5.176   2.940   0.460
 1140TIP3    H1 3426   5.105   2.992   0.421
 1140TIP3    H2 3427   5.132   2.863   0.497
 1141TIP3   OH2 3428   2.990   0.527   0.713
 1141TIP3    H1 3429   3.028   0.605   0.672
 1141TIP3    H2 3430   2.990   0.462   0.644
 1142TIP3   OH2 3431   5.608   0.867   1.706
 1142TIP3    H1 3432   5.656   0.846   1.626
 1142TIP3    H2 3433   5.576   0.956   1.692
 1143TIP3   OH2 3434   6.115   1.400   0.370
 1143TIP3    H1 3435   6.029   1.388   0.329
 1143TIP3    H2 3436   6.146   1.312   0.386
 1144TIP3   OH2 3437   3.653   3.451   2.388
 1144TIP3    H1 3438   3.626   3.412   2.305
 1144TIP3    H2 3439   3.700   3.381   2.434
 1145TIP3   OH2 3440   2.625   2.187   2.977
 1145TIP3    H1 3441   2.588   2.159   3.061
 1145TIP3    H2 3442   2.695   2.248   3.001
 1146TIP3   OH2 3443   2.049   4.450   1.713
 1146TIP3    H1 3444   2.078   4.493   1.793
 1146TIP3    H2 3445   1.971   4.499   1.685
 1147TIP3   OH2 3446   3.254   4.433   0.050
 1147TIP3    H1 3447   3.292   4.520   0.060
 1147TIP3    H2 3448   3.159   4.446   0.061
 1148TIP3   OH2 3449   5.679   1.408   4.384
 1148TIP3    H1 3450   5.685   1.424   4.478
 1148TIP3    H2 3451   5.672   1.495   4.345
 1149TIP3   OH2 3452   3.690   0.862   3.468
 1149TIP3    H1 3453   3.655   0.802   3.402
 1149TIP3    H2 3454   3.695   0.946   3.423
 1150TIP3   OH2 3455   2.137   2.897   1.299
 1150TIP3    H1 3456   2.158   2.899   1.392
 1150TIP3    H2 3457   2.208   2.845   1.260
 1151TIP3   OH2 3458   4.900   3.760   3.674
 1151TIP3    H1 3459   4.893   3.687   3.613
 1151TIP3    H2 3460   4.825   3.751   3.732
 1152TIP3   OH2 3461   2.445   5.671   0.410
 1152TIP3    H1 3462   2.358   5.644   0.441
 1152TIP3    H2 3463   2.499   5.674   0.488
 1153TIP3   OH2 3464   5.442   0.962   1.242
 1153TIP3    H1 3465   5.369   0.914   1.204
 1153TIP3    H2 3466   5.422   0.968   1.335
 1154TIP3   OH2 3467   1.935   5.700   0.351
 1154TIP3    H1 3468   1.893   5.618   0.328
 1154TIP3    H2 3469   1.865   5.765   0.346
 1155TIP3   OH2 3470   4.350   4.565   1.278
 1155TIP3    H1 3471   4.255   4.575   1.274
 1155TIP3    H2 3472   4.374   4.535   1.190
 1156TIP3   OH2 3473   4.322   0.127   0.927
 1156TIP3    H1 3474   4.310   0.206   0.874
 1156TIP3    H2 3475   4.416   0.121   0.942
 1157TIP3   OH2 3476   0.329   2.059   3.353
 1157TIP3    H1 3477   0.388   2.053   3.428
 1157TIP3    H2 3478   0.381   2.028   3.279
 1158TIP3   OH2 3479   5.163   3.743   2.639
 1158TIP3    H1 3480   5.133   3.748   2.730
 1158TIP3    H2 3481   5.185   3.651   2.626
 1159TIP3   OH2 3482   5.104   1.529   3.138
 1159TIP3    H1 3483   5.063   1.498   3.057
 1159TIP3    H2 3484   5.064   1.477   3.207
 1160TIP3   OH2 3485   1.381   2.154   1.430
 1160TIP3    H1 3486   1.311   2.214   1.458
 1160TIP3    H2 3487   1.415   2.117   1.511
 1161TIP3   OH2 3488   4.186   0.205   3.146
 1161TIP3    H1 3489   4.227   0.237   3.226
 1161TIP3    H2 3490   4.176   0.282   3.092
 1162TIP3   OH2 3491   2.459   2.188   2.739
 1162TIP3    H1 3492   2.509   2.128   2.684
 1162TIP3    H2 3493   2.506   2.188   2.823
 1163TIP3   OH2 3494   5.206   5.282   0.009
 1163TIP3    H1 3495   5.153   5.214   0.050
 1163TIP3    H2 3496   5.167   5.364   0.039
 1164TIP3   OH2 3497   2.442   2.020   2.059
 1164TIP3    H1 3498   2.357   1.981   2.078
 1164TIP3    H2 3499   2.503   1.946   2.061
 1165TIP3   OH2 3500   2.832   0.421   4.427
 1165TIP3    H1 3501   2.890   0.349   4.400
 1165TIP3    H2 3502   2.792   0.451   4.345
 1166TIP3   OH2 3503   5.194   0.193   0.739
 1166TIP3    H1 3504   5.269   0.243   0.770
 1166TIP3    H2 3505   5.221   0.159   0.654
 1167TIP3   OH2 3506   3.090   1.738   4.133
 1167TIP3    H1 3507   3.175   1.771   4.104
 1167TIP3    H2 3508   3.057   1.806   4.192
 1168TIP3   OH2 3509   3.799   4.259   0.968
 1168TIP3    H1 3510   3.851   4.278   0.889
 1168TIP3    H2 3511   3.766   4.344   0.996
 1169TIP3   OH2 3512   3.119   2.907   4.615
 1169TIP3    H1 3513   3.109   2.918   4.520
 1169TIP3    H2 3514   3.193   2.962   4.638
 1170TIP3   OH2 3515   4.344   3.479   2.684
 1170TIP3    H1 3516   4.293   3.398   2.686
 1170TIP3    H2 3517   4.435   3.450   2.693
 1171TIP3   OH2 3518   3.160   3.700   1.169
 1171TIP3    H1 3519   3.139   3.613   1.134
 1171TIP3    H2 3520   3.161   3.757   1.093
 1172TIP3   OH2 3521   2.109   4.547   2.006
 1172TIP3    H1 3522   2.112   4.639   2.029
 1172TIP3    H2 3523   2.187   4.509   2.046
 1173TIP3   OH2 3524   3.497   5.861   0.364
 1173TIP3    H1 3525   3.578   5.818   0.389
 1173TIP3    H2 3526   3.516   5.955   0.373
 1174TIP3   OH2 3527   1.495   4.116   2.229
 1174TIP3    H1 3528   1.534   4.030   2.246
 1174TIP3    H2 3529   1.493   4.158   2.315
 1175TIP3   OH2 3530   1.851   1.560   4.130
 1175TIP3    H1 3531   1.857   1.469   4.160
 1175TIP3    H2 3532   1.766   1.566   4.088
 1176TIP3   OH2 3533   4.660   5.315   4.939
 1176TIP3    H1 3534   4.749   5.286   4.958
 1176TIP3    H2 3535   4.658   5.407   4.964
 1177TIP3   OH2 3536   0.074   0.661   1.953
 1177TIP3    H1 3537   0.158   0.614   1.957
 1177TIP3    H2 3538   0.093   0.746   1.993
 1178TIP3   OH2 3539   2.431   1.566   4.988
 1178TIP3    H1 3540   2.433   1.577   4.893
 1178TIP3    H2 3541   2.403   1.652   5.021
 1179TIP3   OH2 3542   0.262   3.452   3.824
 1179TIP3    H1 3543   0.339   3.398   3.804
 1179TIP3    H2 3544   0.192   3.413   3.773
 1180TIP3   OH2 3545   3.430   2.877   1.839
 1180TIP3    H1 3546   3.346   2.922   1.842
 1180TIP3    H2 3547   3.477   2.917   1.766
 1181TIP3   OH2 3548   4.216   3.020   4.733
 1181TIP3    H1 3549   4.190   2.985   4.648
 1181TIP3    H2 3550   4.140   3.006   4.789
 1182TIP3   OH2 3551   4.578   1.284   2.021
 1182TIP3    H1 3552   4.599   1.279   1.927
 1182TIP3    H2 3553   4.489   1.251   2.028
 1183TIP3   OH2 3554   2.433   1.514   2.509
 1183TIP3    H1 3555   2.397   1.594   2.549
 1183TIP3    H2 3556   2.383   1.503   2.428
 1184TIP3   OH2 3557   6.257   1.923   3.233
 1184TIP3    H1 3558   6.336   1.875   3.208
 1184TIP3    H2 3559   6.241   1.897   3.324
 1185TIP3   OH2 3560   1.674   2.976   5.072
 1185TIP3    H1 3561   1.675   2.979   5.167
 1185TIP3    H2 3562   1.680   3.067   5.045
 1186TIP3   OH2 3563   0.381   4.127   3.684
 1186TIP3    H1 3564   0.402   4.091   3.770
 1186TIP3    H2 3565   0.334   4.056   3.639
 1187TIP3   OH2 3566   6.157   4.391   1.563
 1187TIP3    H1 3567   6.206   4.426   1.638
 1187TIP3    H2 3568   6.111   4.315   1.598
 1188TIP3   OH2 3569   2.153   5.153   1.418
 1188TIP3    H1 3570   2.178   5.064   1.393
 1188TIP3    H2 3571   2.083   5.175   1.356
 1189TIP3   OH2 3572   2.851   4.988   2.408
 1189TIP3    H1 3573   2.832   5.058   2.345
 1189TIP3    H2 3574   2.767   4.944   2.419
 1190TIP3   OH2 3575   1.165   0.930   4.629
 1190TIP3    H1 3576   1.071   0.935   4.646
 1190TIP3    H2 3577   1.194   0.853   4.677
 1191TIP3   OH2 3578   1.606   0.535   0.286
 1191TIP3    H1 3579   1.530   0.593   0.291
 1191TIP3    H2 3580   1.673   0.578   0.338
 1192TIP3   OH2 3581   5.142   0.860   4.026
 1192TIP3    H1 3582   5.092   0.781   4.048
 1192TIP3    H2 3583   5.143   0.861   3.930
 1193TIP3   OH2 3584   4.417   4.104   4.679
 1193TIP3    H1 3585   4.376   4.017   4.685
 1193TIP3    H2 3586   4.470   4.111   4.758
 1194TIP3   OH2 3587   4.661   3.442   2.723
 1194TIP3    H1 3588   4.738   3.476   2.678
 1194TIP3    H2 3589   4.671   3.347   2.721
 1195TIP3   OH2 3590   0.715   4.747   2.231
 1195TIP3    H1 3591   0.733   4.815   2.297
 1195TIP3    H2 3592   0.648   4.692   2.273
 1196TIP3   OH2 3593   0.391   3.709   3.792
 1196TIP3    H1 3594   0.440   3.692   3.712
 1196TIP3    H2 3595   0.343   3.627   3.808
 1197TIP3   OH2 3596   4.603   3.566   1.924
 1197TIP3    H1 3597   4.574   3.603   2.007
 1197TIP3    H2 3598   4.698   3.559   1.932
 1198TIP3   OH2 3599   4.792   5.520   0.633
 1198TIP3    H1 3600   4.704   5.544   0.603
 1198TIP3    H2 3601   4.796   5.548   0.724
 1199TIP3   OH2 3602   3.574   5.114   2.379
 1199TIP3    H1 3603   3.542   5.035   2.423
 1199TIP3    H2 3604   3.584   5.179   2.449
 1200TIP3   OH2 3605   3.335   5.856   2.512
 1200TIP3    H1 3606   3.298   5.780   2.467
 1200TIP3    H2 3607   3.318   5.929   2.453
 1201TIP3   OH2 3608   1.680   4.202   3.162
 1201TIP3    H1 3609   1.710   4.271   3.221
 1201TIP3    H2 3610   1.625   4.247   3.099
 1202TIP3   OH2 3611   1.707   0.319   0.917
 1202TIP3    H1 3612   1.703   0.403   0.872
 1202TIP3    H2 3613   1.741   0.258   0.851
 1203TIP3   OH2 3614   1.658   3.875   1.978
 1203TIP3    H1 3615   1.607   3.949   1.944
 1203TIP3    H2 3616   1.725   3.916   2.033
 1204TIP3   OH2 3617   1.210   3.621   1.516
 1204TIP3    H1 3618   1.148   3.622   1.589
 1204TIP3    H2 3619   1.244   3.710   1.511
 1205TIP3   OH2 3620   0.644   5.591   3.532
 1205TIP3    H1 3621   0.597   5.671   3.556
 1205TIP3    H2 3622   0.623   5.529   3.602
 1206TIP3   OH2 3623   4.158   3.116   1.823
 1206TIP3    H1 3624   4.075   3.148   1.859
 1206TIP3    H2 3625   4.202   3.195   1.793
 1207TIP3   OH2 3626   0.556   3.121   4.869
 1207TIP3    H1 3627   0.505   3.198   4.891
 1207TIP3    H2 3628   0.602   3.145   4.788
 1208TIP3   OH2 3629   3.226   0.257   2.940
 1208TIP3    H1 3630   3.291   0.188   2.924
 1208TIP3    H2 3631   3.251   0.328   2.881
 1209TIP3   OH2 3632   4.517   2.127   0.149
 1209TIP3    H1 3633   4.535   2.141   0.242
 1209TIP3    H2 3634   4.464   2.047   0.147
 1210TIP3   OH2 3635   1.210   2.787   4.570
 1210TIP3    H1 3636   1.281   2.849   4.589
 1210TIP3    H2 3637   1.136   2.842   4.546
 1211TIP3   OH2 3638   5.628   3.601   4.076
 1211TIP3    H1 3639   5.559   3.542   4.044
 1211TIP3    H2 3640   5.682   3.619   3.999
 1212TIP3   OH2 3641   3.574   5.025   3.797
 1212TIP3    H1 3642   3.657   4.979   3.791
 1212TIP3    H2 3643   3.594   5.116   3.776
 1213TIP3   OH2 3644   5.977   5.238   3.104
 1213TIP3    H1 3645   5.942   5.209   3.019
 1213TIP3    H2 3646   6.012   5.325   3.086
 1214TIP3   OH2 3647   1.306   1.598   4.295
 1214TIP3    H1 3648   1.278   1.535   4.228
 1214TIP3    H2 3649   1.364   1.658   4.248
 1215TIP3   OH2 3650   3.190   4.426   0.867
 1215TIP3    H1 3651   3.096   4.422   0.885
 1215TIP3    H2 3652   3.219   4.335   0.866
 1216TIP3   OH2 3653   6.057   3.518   1.790
 1216TIP3    H1 3654   6.009   3.588   1.744
 1216TIP3    H2 3655   6.081   3.457   1.721
 1217TIP3   OH2 3656   1.382   5.519   3.062
 1217TIP3    H1 3657   1.411   5.587   3.123
 1217TIP3    H2 3658   1.355   5.568   2.984
 1218TIP3   OH2 3659   0.206   0.799   3.954
 1218TIP3    H1 3660   0.260   0.813   4.032
 1218TIP3    H2 3661   0.195   0.886   3.917
 1219TIP3   OH2 3662   1.304   5.278   1.047
 1219TIP3    H1 3663   1.216   5.244   1.030
 1219TIP3    H2 3664   1.303   5.367   1.011
 1220TIP3   OH2 3665   0.865   2.940   1.609
 1220TIP3    H1 3666   0.943   2.915   1.559
 1220TIP3    H2 3667   0.861   3.035   1.600
 1221TIP3   OH2 3668   3.989   0.289   0.831
 1221TIP3    H1 3669   3.952   0.363   0.879
 1221TIP3    H2 3670   3.987   0.216   0.893
 1222TIP3   OH2 3671   0.035   1.294   0.128
 1222TIP3    H1 3672   0.057   1.271   0.218
 1222TIP3    H2 3673  -0.058   1.274   0.120
 1223TIP3   OH2 3674   4.248   1.543   2.646
 1223TIP3    H1 3675   4.169   1.562   2.595
 1223TIP3    H2 3676   4.229   1.580   2.733
 1224TIP3   OH2 3677   4.101   1.581   5.157
 1224TIP3    H1 3678   4.097   1.485   5.166
 1224TIP3    H2 3679   4.011   1.607   5.142
 1225TIP3   OH2 3680   1.888   4.795   4.478
 1225TIP3    H1 3681   1.905   4.835   4.392
 1225TIP3    H2 3682   1.872   4.870   4.536
 1226TIP3   OH2 3683   3.799   5.040   5.090
 1226TIP3    H1 3684   3.842   4.958   5.113
 1226TIP3    H2 3685   3.749   5.063   5.168
 1227TIP3   OH2 3686   5.243   2.763   0.940
 1227TIP3    H1 3687   5.222   2.733   1.029
 1227TIP3    H2 3688   5.278   2.851   0.952
 1228TIP3   OH2 3689   5.484   2.646   0.508
 1228TIP3    H1 3690   5.430   2.677   0.581
 1228TIP3    H2 3691   5.433   2.575   0.469
 1229TIP3   OH2 3692   3.055   3.715   4.444
 1229TIP3    H1 3693   3.034   3.702   4.537
 1229TIP3    H2 3694   2.978   3.759   4.408
 1230TIP3   OH2 3695   2.544   0.468   2.880
 1230TIP3    H1 3696   2.557   0.374   2.865
 1230TIP3    H2 3697   2.483   0.472   2.954
 1231TIP3   OH2 3698   0.457   5.736   2.865
 1231TIP3    H1 3699   0.385   5.744   2.927
 1231TIP3    H2 3700   0.521   5.800   2.895
 1232TIP3   OH2 3701   4.008   4.233   4.009
 1232TIP3    H1 3702   4.025   4.168   4.078
 1232TIP3    H2 3703   4.059   4.202   3.934
 1233TIP3   OH2 3704   1.217   0.427   4.479
 1233TIP3    H1 3705   1.192   0.400   4.568
 1233TIP3    H2 3706   1.143   0.401   4.424
 1234TIP3   OH2 3707   6.295   5.577   2.261
 1234TIP3    H1 3708   6.346   5.497   2.270
 1234TIP3    H2 3709   6.341   5.641   2.316
 1235TIP3   OH2 3710   1.498   1.747   0.569
 1235TIP3    H1 3711   1.411   1.707   0.559
 1235TIP3    H2 3712   1.540   1.736   0.484
 1236TIP3   OH2 3713   4.758   4.814   0.218
 1236TIP3    H1 3714   4.763   4.754   0.144
 1236TIP3    H2 3715   4.683   4.870   0.198
 1237TIP3   OH2 3716   3.341   0.355   4.708
 1237TIP3    H1 3717   3.431   0.326   4.693
 1237TIP3    H2 3718   3.330   0.352   4.803
 1238TIP3   OH2 3719   6.255   2.518   1.871
 1238TIP3    H1 3720   6.286   2.427   1.872
 1238TIP3    H2 3721   6.209   2.527   1.787
 1239TIP3   OH2 3722   0.699   2.314   0.582
 1239TIP3    H1 3723   0.705   2.222   0.554
 1239TIP3    H2 3724   0.633   2.314   0.651
 1240TIP3   OH2 3725   2.352   0.354   1.064
 1240TIP3    H1 3726   2.317   0.443   1.067
 1240TIP3    H2 3727   2.279   0.298   1.092
 1241TIP3   OH2 3728   5.201   0.194   4.476
 1241TIP3    H1 3729   5.271   0.130   4.483
 1241TIP3    H2 3730   5.168   0.204   4.565
 1242TIP3   OH2 3731   6.229   1.486   2.969
 1242TIP3    H1 3732   6.293   1.415   2.966
 1242TIP3    H2 3733   6.145   1.443   2.951
 1243TIP3   OH2 3734   1.577   0.319   3.389
 1243TIP3    H1 3735   1.656   0.362   3.422
 1243TIP3    H2 3736   1.543   0.379   3.323
 1244TIP3   OH2 3737   1.006   5.975   3.984
 1244TIP3    H1 3738   1.076   5.959   3.922
 1244TIP3    H2 3739   0.950   6.041   3.942
 1245TIP3   OH2 3740   1.006   2.591   0.759
 1245TIP3    H1 3741   1.029   2.571   0.849
 1245TIP3    H2 3742   1.050   2.524   0.707
 1246TIP3   OH2 3743   0.114   0.351   2.096
 1246TIP3    H1 3744   0.163   0.325   2.174
 1246TIP3    H2 3745   0.181   0.377   2.033
 1247TIP3   OH2 3746   4.649   3.167   0.812
 1247TIP3    H1 3747   4.684   3.098   0.756
 1247TIP3    H2 3748   4.638   3.242   0.753
 1248TIP3   OH2 3749   0.198   4.518   2.618
 1248TIP3    H1 3750   0.220   4.541   2.528
 1248TIP3    H2 3751   0.207   4.423   2.622
 1249TIP3   OH2 3752   5.999   3.826   2.486
 1249TIP3    H1 3753   6.067   3.847   2.549
 1249TIP3    H2 3754   6.039   3.762   2.427
 1250TIP3   OH2 3755   1.921   1.942   0.632
 1250TIP3    H1 3756   1.944   1.906   0.718
 1250TIP3    H2 3757   1.837   1.900   0.611
 1251TIP3   OH2 3758   0.151   1.052   1.204
 1251TIP3    H1 3759   0.182   1.124   1.260
 1251TIP3    H2 3760   0.157   0.974   1.259
 1252TIP3   OH2 3761   1.224   0.315   1.366
 1252TIP3    H1 3762   1.162   0.257   1.322
 1252TIP3    H2 3763   1.285   0.341   1.298
 1253TIP3   OH2 3764   5.085   3.158   2.270
 1253TIP3    H1 3765   5.165   3.174   2.221
 1253TIP3    H2 3766   5.047   3.245   2.283
 1254TIP3   OH2 3767   5.558   4.492   1.194
 1254TIP3    H1 3768   5.541   4.479   1.101
 1254TIP3    H2 3769   5.573   4.404   1.228
 1255TIP3   OH2 3770   5.876   2.433   1.524
 1255TIP3    H1 3771   5.954   2.487   1.533
 1255TIP3    H2 3772   5.879   2.401   1.434
 1256TIP3   OH2 3773   4.162   2.191   3.702
 1256TIP3    H1 3774   4.221   2.245   3.650
 1256TIP3    H2 3775   4.163   2.232   3.789
 1257TIP3   OH2 3776   2.838   4.142   1.668
 1257TIP3    H1 3777   2.865   4.192   1.591
 1257TIP3    H2 3778   2.745   4.127   1.656
 1258TIP3   OH2 3779   3.406   3.321   4.873
 1258TIP3    H1 3780   3.402   3.327   4.778
 1258TIP3    H2 3781   3.480   3.376   4.898
 1259TIP3   OH2 3782   5.698   5.344   0.770
 1259TIP3    H1 3783   5.654   5.265   0.802
 1259TIP3    H2 3784   5.717   5.394   0.849
 1260TIP3   OH2 3785   5.404   4.283   2.965
 1260TIP3    H1 3786   5.415   4.313   3.055
 1260TIP3    H2 3787   5.493   4.277   2.929
 1261TIP3   OH2 3788   1.169   4.728   2.792
 1261TIP3    H1 3789   1.243   4.692   2.842
 1261TIP3    H2 3790   1.093   4.714   2.849
 1262TIP3   OH2 3791   0.144   3.700   2.919
 1262TIP3    H1 3792   0.157   3.692   3.014
 1262TIP3    H2 3793   0.230   3.677   2.882
 1263TIP3   OH2 3794   1.846   2.372   2.826
 1263TIP3    H1 3795   1.812   2.369   2.736
 1263TIP3    H2 3796   1.826   2.285   2.862
 1264TIP3   OH2 3797   1.528   2.144   0.081
 1264TIP3    H1 3798   1.569   2.186   0.156
 1264TIP3    H2 3799   1.438   2.127   0.109
 1265TIP3   OH2 3800   0.802   2.321   0.984
 1265TIP3    H1 3801   0.783   2.233   0.949
 1265TIP3    H2 3802   0.898   2.325   0.988
 1266TIP3   OH2 3803   4.524   2.281   0.596
 1266TIP3    H1 3804   4.603   2.334   0.588
 1266TIP3    H2 3805   4.504   2.281   0.690
 1267TIP3   OH2 3806   1.098   4.023   0.462
 1267TIP3    H1 3807   1.152   3.948   0.487
 1267TIP3    H2 3808   1.146   4.099   0.493
 1268TIP3   OH2 3809   3.560   0.215   2.670
 1268TIP3    H1 3810   3.654   0.202   2.677
 1268TIP3    H2 3811   3.524   0.128   2.651
 1269TIP3   OH2 3812   1.964   0.977   2.335
 1269TIP3    H1 3813   1.982   1.034   2.260
 1269TIP3    H2 3814   1.874   0.999   2.360
 1270TIP3   OH2 3815   1.153   3.651   4.977
 1270TIP3    H1 3816   1.098   3.638   4.900
 1270TIP3    H2 3817   1.214   3.577   4.976
 1271TIP3   OH2 3818   4.989   3.912   5.161
 1271TIP3    H1 3819   5.082   3.918   5.183
 1271TIP3    H2 3820   4.973   3.819   5.148
 1272TIP3   OH2 3821   2.394   4.115   3.976
 1272TIP3    H1 3822   2.480   4.143   3.945
 1272TIP3    H2 3823   2.373   4.176   4.047
 1273TIP3   OH2 3824   2.818   3.784   3.037
 1273TIP3    H1 3825   2.911   3.765   3.052
 1273TIP3    H2 3826   2.803   3.758   2.946
 1274TIP3   OH2 3827   6.290   0.206   4.809
 1274TIP3    H1 3828   6.258   0.198   4.899
 1274TIP3    H2 3829   6.307   0.116   4.781
 1275TIP3   OH2 3830   2.400   2.658   1.801
 1275TIP3    H1 3831   2.398   2.741   1.753
 1275TIP3    H2 3832   2.492   2.646   1.823
 1276TIP3   OH2 3833   5.113   2.938   4.436
 1276TIP3    H1 3834   5.088   3.013   4.382
 1276TIP3    H2 3835   5.043   2.932   4.501
 1277TIP3   OH2 3836   6.057   4.568   1.851
 1277TIP3    H1 3837   6.085   4.641   1.906
 1277TIP3    H2 3838   6.031   4.610   1.769
 1278TIP3   OH2 3839   3.086   2.386   1.936
 1278TIP3    H1 3840   3.044   2.421   2.014
 1278TIP3    H2 3841   3.118   2.463   1.889
 1279TIP3   OH2 3842   3.128   3.217   0.379
 1279TIP3    H1 3843   3.201   3.168   0.418
 1279TIP3    H2 3844   3.055   3.155   0.378
 1280TIP3   OH2 3845   2.696   5.458   3.770
 1280TIP3    H1 3846   2.677   5.496   3.684
 1280TIP3    H2 3847   2.701   5.364   3.753
 1281TIP3   OH2 3848   1.409   1.699   1.800
 1281TIP3    H1 3849   1.367   1.642   1.864
 1281TIP3    H2 3850   1.413   1.645   1.720
 1282TIP3   OH2 3851   2.411   1.093   2.328
 1282TIP3    H1 3852   2.471   1.018   2.330
 1282TIP3    H2 3853   2.331   1.060   2.368
 1283TIP3   OH2 3854   5.902   5.048   4.768
 1283TIP3    H1 3855   5.808   5.040   4.753
 1283TIP3    H2 3856   5.917   5.003   4.851
 1284TIP3   OH2 3857   6.150   2.154   2.599
 1284TIP3    H1 3858   6.232   2.188   2.562
 1284TIP3    H2 3859   6.156   2.172   2.692
 1285TIP3   OH2 3860   1.030   1.812   3.894
 1285TIP3    H1 3861   0.989   1.732   3.927
 1285TIP3    H2 3862   0.983   1.883   3.937
 1286TIP3   OH2 3863   3.656   3.259   5.140
 1286TIP3    H1 3864   3.563   3.243   5.156
 1286TIP3    H2 3865   3.688   3.178   5.099
 1287TIP3   OH2 3866   0.889   0.867   4.651
 1287TIP3    H1 3867   0.799   0.892   4.632
 1287TIP3    H2 3868   0.882   0.781   4.693
 1288TIP3   OH2 3869   4.170   5.919   1.116
 1288TIP3    H1 3870   4.198   5.940   1.027
 1288TIP3    H2 3871   4.188   5.999   1.166
 1289TIP3   OH2 3872   4.887   5.127   4.301
 1289TIP3    H1 3873   4.914   5.207   4.256
 1289TIP3    H2 3874   4.949   5.060   4.269
 1290TIP3   OH2 3875   0.247   4.822   0.376
 1290TIP3    H1 3876   0.173   4.823   0.316
 1290TIP3    H2 3877   0.263   4.729   0.394
 1291TIP3   OH2 3878   4.223   0.300   1.447
 1291TIP3    H1 3879   4.274   0.370   1.407
 1291TIP3    H2 3880   4.288   0.245   1.491
 1292TIP3   OH2 3881   4.173   4.024   2.086
 1292TIP3    H1 3882   4.169   4.113   2.122
 1292TIP3    H2 3883   4.082   4.004   2.062
 1293TIP3   OH2 3884   3.245   5.435   2.032
 1293TIP3    H1 3885   3.269   5.362   2.089
 1293TIP3    H2 3886   3.309   5.432   1.961
 1294TIP3   OH2 3887   2.236   1.728   4.365
 1294TIP3    H1 3888   2.278   1.650   4.328
 1294TIP3    H2 3889   2.180   1.761   4.295
 1295TIP3   OH2 3890   3.517   2.411   1.141
 1295TIP3    H1 3891   3.535   2.464   1.219
 1295TIP3    H2 3892   3.515   2.321   1.174
 1296TIP3   OH2 3893   0.358   4.603   2.086
 1296TIP3    H1 3894   0.402   4.598   2.001
 1296TIP3    H2 3895   0.273   4.643   2.067
 1297TIP3   OH2 3896   5.947   1.790   5.134
 1297TIP3    H1 3897   5.964   1.870   5.085
 1297TIP3    H2 3898   6.009   1.726   5.099
 1298TIP3   OH2 3899   0.599   4.024   4.821
 1298TIP3    H1 3900   0.662   4.095   4.837
 1298TIP3    H2 3901   0.553   4.050   4.741
 1299TIP3   OH2 3902   1.556   4.867   3.891
 1299TIP3    H1 3903   1.531   4.959   3.881
 1299TIP3    H2 3904   1.539   4.847   3.983
 1300TIP3   OH2 3905   2.128   5.349   5.156
 1300TIP3    H1 3906   2.107   5.259   5.130
 1300TIP3    H2 3907   2.045   5.386   5.185
 1301TIP3   OH2 3908   2.754   4.604   3.496
 1301TIP3    H1 3909   2.782   4.540   3.430
 1301TIP3    H2 3910   2.659   4.612   3.482
 1302TIP3   OH2 3911   3.249   5.070   0.592
 1302TIP3    H1 3912   3.182   5.008   0.622
 1302TIP3    H2 3913   3.332   5.034   0.626
 1303TIP3   OH2 3914   2.909   0.197   2.724
 1303TIP3    H1 3915   2.821   0.171   2.698
 1303TIP3    H2 3916   2.897   0.283   2.764
 1304TIP3   OH2 3917   2.094   2.262   1.430
 1304TIP3    H1 3918   2.015   2.296   1.386
 1304TIP3    H2 3919   2.061   2.222   1.510
 1305TIP3   OH2 3920   0.509   2.206   3.974
 1305TIP3    H1 3921   0.601   2.182   3.983
 1305TIP3    H2 3922   0.503   2.245   3.887
 1306TIP3   OH2 3923   2.533   3.859   4.238
 1306TIP3    H1 3924   2.442   3.875   4.213
 1306TIP3    H2 3925   2.559   3.937   4.287
 1307TIP3   OH2 3926   2.188   1.820   1.428
 1307TIP3    H1 3927   2.194   1.853   1.517
 1307TIP3    H2 3928   2.165   1.728   1.438
 1308TIP3   OH2 3929   6.250   4.333   3.272
 1308TIP3    H1 3930   6.271   4.240   3.275
 1308TIP3    H2 3931   6.329   4.376   3.303
 1309TIP3   OH2 3932   4.183   1.650   0.895
 1309TIP3    H1 3933   4.212   1.736   0.925
 1309TIP3    H2 3934   4.196   1.653   0.800
 1310TIP3   OH2 3935   3.319   4.194   0.805
 1310TIP3    H1 3936   3.367   4.170   0.725
 1310TIP3    H2 3937   3.241   4.139   0.804
 1311TIP3   OH2 3938   0.811   3.070   1.202
 1311TIP3    H1 3939   0.889   3.101   1.156
 1311TIP3    H2 3940   0.749   3.049   1.132
 1312TIP3   OH2 3941   2.610   2.265   2.082
 1312TIP3    H1 3942   2.610   2.359   2.103
 1312TIP3    H2 3943   2.659   2.225   2.154
 1313TIP3   OH2 3944   5.948   5.827   2.763
 1313TIP3    H1 3945   5.905   5.889   2.705
 1313TIP3    H2 3946   5.958   5.875   2.846
 1314TIP3   OH2 3947   0.831   4.255   2.777
 1314TIP3    H1 3948   0.822   4.250   2.872
 1314TIP3    H2 3949   0.780   4.332   2.752
 1315TIP3   OH2 3950   5.322   2.158   5.182
 1315TIP3    H1 3951   5.344   2.113   5.101
 1315TIP3    H2 3952   5.383   2.233   5.185
 1316TIP3   OH2 3953   0.157   4.197   4.525
 1316TIP3    H1 3954   0.127   4.284   4.549
 1316TIP3    H2 3955   0.103   4.138   4.577
 1317TIP3   OH2 3956   6.331   1.407   4.726
 1317TIP3    H1 3957   6.340   1.502   4.740
 1317TIP3    H2 3958   6.414   1.370   4.756
 1318TIP3   OH2 3959   2.872   2.318   0.324
 1318TIP3    H1 3960   2.945   2.370   0.290
 1318TIP3    H2 3961   2.817   2.381   0.370
 1319TIP3   OH2 3962   0.738   2.567   0.858
 1319TIP3    H1 3963   0.730   2.473   0.844
 1319TIP3    H2 3964   0.827   2.588   0.829
 1320TIP3   OH2 3965   5.086   2.726   2.914
 1320TIP3    H1 3966   5.094   2.650   2.857
 1320TIP3    H2 3967   5.066   2.688   3.000
 1321TIP3   OH2 3968   1.667   1.443   0.301
 1321TIP3    H1 3969   1.595   1.462   0.241
 1321TIP3    H2 3970   1.648   1.355   0.334
 1322TIP3   OH2 3971   5.187   1.050   0.929
 1322TIP3    H1 3972   5.272   1.007   0.919
 1322TIP3    H2 3973   5.137   0.993   0.987
 1323TIP3   OH2 3974   3.083   1.254   0.501
 1323TIP3    H1 3975   3.010   1.192   0.510
 1323TIP3    H2 3976   3.153   1.203   0.459
 1324TIP3   OH2 3977   5.471   0.313   5.151
 1324TIP3    H1 3978   5.559   0.346   5.135
 1324TIP3    H2 3979   5.412   0.379   5.113
 1325TIP3   OH2 3980   5.034   3.469   1.816
 1325TIP3    H1 3981   5.032   3.375   1.829
 1325TIP3    H2 3982   5.126   3.489   1.797
 1326TIP3   OH2 3983   4.736   2.693   3.950
 1326TIP3    H1 3984   4.666   2.688   3.885
 1326TIP3    H2 3985   4.708   2.635   4.021
 1327TIP3   OH2 3986   3.881   4.793   0.720
 1327TIP3    H1 3987   3.813   4.855   0.695
 1327TIP3    H2 3988   3.841   4.707   0.710
 1328TIP3   OH2 3989   3.022   5.827   3.562
 1328TIP3    H1 3990   2.986   5.812   3.475
 1328TIP3    H2 3991   3.068   5.910   3.556
 1329TIP3   OH2 3992   0.269   1.738   2.259
 1329TIP3    H1 3993   0.272   1.832   2.239
 1329TIP3    H2 3994   0.350   1.703   2.223
 1330TIP3   OH2 3995   2.596   1.293   2.714
 1330TIP3    H1 3996   2.644   1.286   2.632
 1330TIP3    H2 3997   2.652   1.252   2.780
 1331TIP3   OH2 3998   1.558   2.510   2.819
 1331TIP3    H1 3999   1.630   2.454   2.852
 1331TIP3    H2 4000   1.602   2.587   2.784
 1332TIP3   OH2 4001   6.343   0.730   5.098
 1332TIP3    H1 4002   6.419   0.788   5.093
 1332TIP3    H2 4003   6.322   0.726   5.192
 1333TIP3   OH2 4004   0.350   2.435   0.679
 1333TIP3    H1 4005   0.363   2.478   0.594
 1333TIP3    H2 4006   0.289   2.492   0.726
 1334TIP3   OH2 4007   2.908   5.129   1.959
 1334TIP3    H1 4008   2.821   5.160   1.932
 1334TIP3    H2 4009   2.936   5.192   2.026
 1335TIP3   OH2 4010   5.729   4.487   0.527
 1335TIP3    H1 4011   5.704   4.577   0.508
 1335TIP3    H2 4012   5.656   4.451   0.576
 1336TIP3   OH2 4013   2.767   1.562   0.398
 1336TIP3    H1 4014   2.764   1.540   0.305
 1336TIP3    H2 4015   2.860   1.566   0.419
 1337TIP3   OH2 4016   0.000   0.199   0.060
 1337TIP3    H1 4017   0.094   0.186   0.067
 1337TIP3    H2 4018  -0.031   0.122   0.012
 1338TIP3   OH2 4019   0.040   2.732   4.215
 1338TIP3    H1 4020  -0.016   2.655   4.208
 1338TIP3    H2 4021   0.014   2.774   4.298
 1339TIP3   OH2 4022   0.116   1.380   4.349
 1339TIP3    H1 4023   0.080   1.469   4.355
 1339TIP3    H2 4024   0.065   1.330   4.412
 1340TIP3   OH2 4025   1.818   1.347   4.565
 1340TIP3    H1 4026   1.776   1.336   4.650
 1340TIP3    H2 4027   1.843   1.258   4.539
 1341TIP3   OH2 4028   5.161   5.937   1.438
 1341TIP3    H1 4029   5.165   5.868   1.372
 1341TIP3    H2 4030   5.124   5.895   1.515
 1342TIP3   OH2 4031   6.340   0.208   2.652
 1342TIP3    H1 4032   6.273   0.254   2.602
 1342TIP3    H2 4033   6.361   0.131   2.598
 1343TIP3   OH2 4034   0.843   3.625   1.569
 1343TIP3    H1 4035   0.890   3.641   1.651
 1343TIP3    H2 4036   0.754   3.602   1.596
 1344TIP3   OH2 4037   3.890   1.590   4.713
 1344TIP3    H1 4038   3.806   1.622   4.745
 1344TIP3    H2 4039   3.943   1.669   4.703
 1345TIP3   OH2 4040   1.836   3.023   1.802
 1345TIP3    H1 4041   1.791   3.078   1.867
 1345TIP3    H2 4042   1.769   2.963   1.770
 1346TIP3   OH2 4043   5.356   2.364   4.798
 1346TIP3    H1 4044   5.270   2.404   4.788
 1346TIP3    H2 4045   5.394   2.368   4.710
 1347TIP3   OH2 4046   4.592   4.722   0.816
 1347TIP3    H1 4047   4.536   4.677   0.752
 1347TIP3    H2 4048   4.634   4.652   0.866
 1348TIP3   OH2 4049   1.411   2.446   1.746
 1348TIP3    H1 4050   1.318   2.443   1.768
 1348TIP3    H2 4051   1.413   2.444   1.650
 1349TIP3   OH2 4052   1.852   5.758   2.034
 1349TIP3    H1 4053   1.854   5.684   2.095
 1349TIP3    H2 4054   1.771   5.744   1.984
 1350TIP3   OH2 4055   0.175   5.801   4.580
 1350TIP3    H1 4056   0.250   5.742   4.580
 1350TIP3    H2 4057   0.191   5.860   4.507
 1351TIP3   OH2 4058   6.070   0.003   4.431
 1351TIP3    H1 4059   5.989  -0.038   4.459
 1351TIP3    H2 4060   6.054   0.097   4.441
 1352TIP3   OH2 4061   1.035   4.813   4.051
 1352TIP3    H1 4062   1.014   4.834   3.960
 1352TIP3    H2 4063   1.128   4.789   4.050
 1353TIP3   OH2 4064   3.377   0.160   3.886
 1353TIP3    H1 4065   3.371   0.187   3.978
 1353TIP3    H2 4066   3.293   0.187   3.848
 1354TIP3   OH2 4067   0.290   4.261   2.589
 1354TIP3    H1 4068   0.306   4.182   2.640
 1354TIP3    H2 4069   0.246   4.229   2.510
 1355TIP3   OH2 4070   0.392   5.680   2.330
 1355TIP3    H1 4071   0.314   5.730   2.352
 1355TIP3    H2 4072   0.361   5.608   2.276
 1356TIP3   OH2 4073   2.369   1.836   2.364
 1356TIP3    H1 4074   2.448   1.876   2.328
 1356TIP3    H2 4075   2.320   1.807   2.287
 1357TIP3   OH2 4076   3.575   1.939   5.165
 1357TIP3    H1 4077   3.585   2.033   5.174
 1357TIP3    H2 4078   3.587   1.905   5.254
 1358TIP3   OH2 4079   5.537   3.055   4.579
 1358TIP3    H1 4080   5.538   3.024   4.488
 1358TIP3    H2 4081   5.447   3.042   4.608
 1359TIP3   OH2 4082   6.300   1.582   2.021
 1359TIP3    H1 4083   6.371   1.574   2.085
 1359TIP3    H2 4084   6.227   1.619   2.072
 1360TIP3   OH2 4085   1.678   0.387   4.596
 1360TIP3    H1 4086   1.725   0.374   4.514
 1360TIP3    H2 4087   1.598   0.336   4.585
 1361TIP3   OH2 4088   5.050   2.891   4.102
 1361TIP3    H1 4089   5.014   2.963   4.154
 1361TIP3    H2 4090   5.042   2.920   4.011
 1362TIP3   OH2 4091   0.893   3.038   4.893
 1362TIP3    H1 4092   0.915   3.019   4.984
 1362TIP3    H2 4093   0.832   3.112   4.898
 1363TIP3   OH2 4094   5.873   0.167   1.498
 1363TIP3    H1 4095   5.792   0.122   1.523
 1363TIP3    H2 4096   5.887   0.232   1.567
 1364TIP3   OH2 4097   0.417   4.178   0.476
 1364TIP3    H1 4098   0.358   4.252   0.462
 1364TIP3    H2 4099   0.483   4.187   0.408
 1365TIP3   OH2 4100   5.088   1.085   0.625
 1365TIP3    H1 4101   5.004   1.112   0.590
 1365TIP3    H2 4102   5.138   1.056   0.548
 1366TIP3   OH2 4103   1.841   4.446   4.119
 1366TIP3    H1 4104   1.859   4.357   4.088
 1366TIP3    H2 4105   1.757   4.438   4.165
 1367TIP3   OH2 4106   5.990   4.089   3.876
 1367TIP3    H1 4107   5.956   4.112   3.790
 1367TIP3    H2 4108   6.073   4.044   3.857
 1368TIP3   OH2 4109   3.398   5.205   4.779
 1368TIP3    H1 4110   3.416   5.151   4.856
 1368TIP3    H2 4111   3.405   5.145   4.705
 1369TIP3   OH2 4112   2.397   4.320   2.953
 1369TIP3    H1 4113   2.419   4.227   2.952
 1369TIP3    H2 4114   2.373   4.340   2.863
 1370TIP3   OH2 4115   0.449   2.278   1.536
 1370TIP3    H1 4116   0.498   2.299   1.615
 1370TIP3    H2 4117   0.502   2.312   1.464
 1371TIP3   OH2 4118   2.524   3.213   1.419
 1371TIP3    H1 4119   2.613   3.212   1.454
 1371TIP3    H2 4120   2.474   3.266   1.480
 1372TIP3   OH2 4121   3.701   5.688   1.138
 1372TIP3    H1 4122   3.631   5.709   1.078
 1372TIP3    H2 4123   3.689   5.594   1.157
 1373TIP3   OH2 4124   1.369   1.362   4.553
 1373TIP3    H1 4125   1.317   1.401   4.482
 1373TIP3    H2 4126   1.453   1.341   4.512
 1374TIP3   OH2 4127   3.006   1.784   4.621
 1374TIP3    H1 4128   2.924   1.738   4.606
 1374TIP3    H2 4129   2.984   1.877   4.614
 1375TIP3   OH2 4130   3.337   0.868   3.619
 1375TIP3    H1 4131   3.404   0.847   3.685
 1375TIP3    H2 4132   3.280   0.791   3.618
 1376TIP3   OH2 4133   4.308   2.757   1.217
 1376TIP3    H1 4134   4.367   2.685   1.237
 1376TIP3    H2 4135   4.365   2.828   1.188
 1377TIP3   OH2 4136   0.341   1.105   4.916
 1377TIP3    H1 4137   0.394   1.059   4.851
 1377TIP3    H2 4138   0.272   1.147   4.865
 1378TIP3   OH2 4139   4.975   4.539   1.155
 1378TIP3    H1 4140   4.925   4.507   1.230
 1378TIP3    H2 4141   5.052   4.482   1.152
 1379TIP3   OH2 4142   0.613   3.507   0.569
 1379TIP3    H1 4143   0.687   3.544   0.618
 1379TIP3    H2 4144   0.584   3.432   0.622
 1380TIP3   OH2 4145   5.008   5.501   0.103
 1380TIP3    H1 4146   4.952   5.565   0.058
 1380TIP3    H2 4147   4.947   5.448   0.155
 1381TIP3   OH2 4148   0.263   1.818   4.740
 1381TIP3    H1 4149   0.347   1.789   4.774
 1381TIP3    H2 4150   0.226   1.872   4.810
 1382TIP3   OH2 4151   3.834   3.842   3.047
 1382TIP3    H1 4152   3.763   3.828   3.109
 1382TIP3    H2 4153   3.792   3.883   2.971
 1383TIP3   OH2 4154   6.331   3.923   2.435
 1383TIP3    H1 4155   6.312   3.831   2.452
 1383TIP3    H2 4156   6.342   3.962   2.522
 1384TIP3   OH2 4157   1.175   5.960   2.882
 1384TIP3    H1 4158   1.146   5.869   2.882
 1384TIP3    H2 4159   1.187   5.982   2.790
 1385TIP3   OH2 4160   5.732   0.340   0.865
 1385TIP3    H1 4161   5.817   0.306   0.837
 1385TIP3    H2 4162   5.751   0.428   0.898
 1386TIP3   OH2 4163   5.382   0.854   0.842
 1386TIP3    H1 4164   5.300   0.816   0.811
 1386TIP3    H2 4165   5.412   0.794   0.911
 1387TIP3   OH2 4166   3.146   2.845   1.104
 1387TIP3    H1 4167   3.205   2.821   1.032
 1387TIP3    H2 4168   3.116   2.761   1.139
 1388TIP3   OH2 4169   1.786   0.755   4.854
 1388TIP3    H1 4170   1.751   0.839   4.826
 1388TIP3    H2 4171   1.771   0.753   4.949
 1389TIP3   OH2 4172   3.497   0.506   3.653
 1389TIP3    H1 4173   3.533   0.435   3.706
 1389TIP3    H2 4174   3.419   0.535   3.701
 1390TIP3   OH2 4175   4.370   4.957   1.503
 1390TIP3    H1 4176   4.424   5.033   1.525
 1390TIP3    H2 4177   4.428   4.899   1.453
 1391TIP3   OH2 4178   3.096   4.160   0.458
 1391TIP3    H1 4179   3.048   4.243   0.465
 1391TIP3    H2 4180   3.092   4.138   0.365
 1392TIP3   OH2 4181   1.753   2.937   3.406
 1392TIP3    H1 4182   1.675   2.945   3.460
 1392TIP3    H2 4183   1.817   2.894   3.462
 1393TIP3   OH2 4184   4.104   2.319   0.040
 1393TIP3    H1 4185   4.110   2.223   0.037
 1393TIP3    H2 4186   4.039   2.341  -0.027
 1394TIP3   OH2 4187   2.785   4.239   1.330
 1394TIP3    H1 4188   2.770   4.161   1.276
 1394TIP3    H2 4189   2.701   4.285   1.328
 1395TIP3   OH2 4190   4.565   2.329   2.336
 1395TIP3    H1 4191   4.603   2.344   2.249
 1395TIP3    H2 4192   4.513   2.407   2.353
 1396TIP3   OH2 4193   5.070   2.518   0.756
 1396TIP3    H1 4194   5.150   2.503   0.804
 1396TIP3    H2 4195   5.061   2.442   0.699
 1397TIP3   OH2 4196   0.412   1.475   2.825
 1397TIP3    H1 4197   0.335   1.493   2.879
 1397TIP3    H2 4198   0.478   1.537   2.857
 1398TIP3   OH2 4199   3.816   4.406   5.142
 1398TIP3    H1 4200   3.887   4.342   5.136
 1398TIP3    H2 4201   3.775   4.405   5.056
 1399TIP3   OH2 4202   5.033   0.400   3.520
 1399TIP3    H1 4203   5.043   0.346   3.442
 1399TIP3    H2 4204   4.985   0.345   3.582
 1400TIP3   OH2 4205   4.609   2.886   2.994
 1400TIP3    H1 4206   4.697   2.897   2.958
 1400TIP3    H2 4207   4.551   2.901   2.919
 1401TIP3   OH2 4208   0.994   5.544   3.138
 1401TIP3    H1 4209   1.032   5.458   3.121
 1401TIP3    H2 4210   0.943   5.532   3.219
 1402TIP3   OH2 4211   4.400   5.760   3.147
 1402TIP3    H1 4212   4.481   5.723   3.182
 1402TIP3    H2 4213   4.370   5.697   3.082
 1403TIP3   OH2 4214   2.012   5.608   2.301
 1403TIP3    H1 4215   1.921   5.583   2.285
 1403TIP3    H2 4216   2.011   5.704   2.298
 1404TIP3   OH2 4217   0.324   2.464   0.326
 1404TIP3    H1 4218   0.251   2.470   0.265
 1404TIP3    H2 4219   0.374   2.544   0.313
 1405TIP3   OH2 4220   4.411   1.763   4.734
 1405TIP3    H1 4221   4.331   1.746   4.785
 1405TIP3    H2 4222   4.378   1.797   4.651
 1406TIP3   OH2 4223   5.197   1.387   4.736
 1406TIP3    H1 4224   5.266   1.450   4.759
 1406TIP3    H2 4225   5.164   1.418   4.652
 1407TIP3   OH2 4226   2.999   1.933   4.331
 1407TIP3    H1 4227   3.054   1.951   4.407
 1407TIP3    H2 4228   2.910   1.951   4.360
 1408TIP3   OH2 4229   3.811   2.233   1.385
 1408TIP3    H1 4230   3.786   2.291   1.458
 1408TIP3    H2 4231   3.838   2.152   1.427
 1409TIP3   OH2 4232   2.704   5.738   1.924
 1409TIP3    H1 4233   2.784   5.695   1.953
 1409TIP3    H2 4234   2.731   5.827   1.902
 1410TIP3   OH2 4235   1.962   3.623   3.092
 1410TIP3    H1 4236   1.976   3.668   3.009
 1410TIP3    H2 4237   1.869   3.600   3.092
 1411TIP3   OH2 4238   2.742   0.965   4.913
 1411TIP3    H1 4239   2.675   1.018   4.870
 1411TIP3    H2 4240   2.800   0.938   4.841
 1412TIP3   OH2 4241   1.362   3.443   4.973
 1412TIP3    H1 4242   1.457   3.435   4.962
 1412TIP3    H2 4243   1.328   3.357   4.947
 1413TIP3   OH2 4244   0.419   5.240   2.210
 1413TIP3    H1 4245   0.421   5.212   2.119
 1413TIP3    H2 4246   0.384   5.329   2.208
 1414TIP3   OH2 4247   3.695   2.742   0.454
 1414TIP3    H1 4248   3.743   2.818   0.420
 1414TIP3    H2 4249   3.652   2.705   0.377
 1415TIP3   OH2 4250   0.263   3.195   3.366
 1415TIP3    H1 4251   0.248   3.101   3.356
 1415TIP3    H2 4252   0.176   3.234   3.356
 1416TIP3   OH2 4253   3.500   1.762   0.682
 1416TIP3    H1 4254   3.518   1.826   0.613
 1416TIP3    H2 4255   3.463   1.687   0.635
 1417TIP3   OH2 4256   3.004   2.475   2.660
 1417TIP3    H1 4257   2.996   2.384   2.628
 1417TIP3    H2 4258   3.095   2.482   2.689
 1418TIP3   OH2 4259   3.137   4.603   0.376
 1418TIP3    H1 4260   3.201   4.619   0.446
 1418TIP3    H2 4261   3.178   4.640   0.297
 1419TIP3   OH2 4262   0.489   3.052   3.982
 1419TIP3    H1 4263   0.399   3.078   3.999
 1419TIP3    H2 4264   0.485   3.001   3.901
 1420TIP3   OH2 4265   2.399   1.817   5.076
 1420TIP3    H1 4266   2.401   1.865   5.158
 1420TIP3    H2 4267   2.426   1.881   5.010
 1421TIP3   OH2 4268   3.431   0.501   0.700
 1421TIP3    H1 4269   3.412   0.588   0.667
 1421TIP3    H2 4270   3.381   0.495   0.782
 1422TIP3   OH2 4271   6.178   2.502   2.144
 1422TIP3    H1 4272   6.164   2.409   2.161
 1422TIP3    H2 4273   6.199   2.507   2.051
 1423TIP3   OH2 4274   0.598   0.659   0.794
 1423TIP3    H1 4275   0.550   0.591   0.746
 1423TIP3    H2 4276   0.540   0.735   0.792
 1424TIP3   OH2 4277   4.460   3.866   4.290
 1424TIP3    H1 4278   4.411   3.784   4.282
 1424TIP3    H2 4279   4.393   3.934   4.284
 1425TIP3   OH2 4280   4.123   1.043   2.375
 1425TIP3    H1 4281   4.139   1.050   2.469
 1425TIP3    H2 4282   4.209   1.022   2.338
 1426TIP3   OH2 4283   2.280   4.398   2.715
 1426TIP3    H1 4284   2.189   4.391   2.687
 1426TIP3    H2 4285   2.323   4.323   2.673
 1427TIP3   OH2 4286   5.135   2.248   4.495
 1427TIP3    H1 4287   5.119   2.271   4.403
 1427TIP3    H2 4288   5.177   2.325   4.532
 1428TIP3   OH2 4289   5.499   2.072   2.389
 1428TIP3    H1 4290   5.553   2.036   2.459
 1428TIP3    H2 4291   5.482   2.162   2.416
 1429TIP3   OH2 4292   0.931   3.683   3.237
 1429TIP3    H1 4293   0.862   3.692   3.303
 1429TIP3    H2 4294   0.922   3.595   3.203
 1430TIP3   OH2 4295   0.368   5.199   3.998
 1430TIP3    H1 4296   0.319   5.280   3.984
 1430TIP3    H2 4297   0.397   5.204   4.090
 1431TIP3   OH2 4298   1.283   1.446   3.245
 1431TIP3    H1 4299   1.379   1.442   3.248
 1431TIP3    H2 4300   1.253   1.369   3.293
 1432TIP3   OH2 4301   2.671   0.073   4.066
 1432TIP3    H1 4302   2.597   0.025   4.030
 1432TIP3    H2 4303   2.736   0.074   3.996
 1433TIP3   OH2 4304   2.105   4.505   4.850
 1433TIP3    H1 4305   2.092   4.434   4.787
 1433TIP3    H2 4306   2.061   4.581   4.810
 1434TIP3   OH2 4307   6.130   1.482   4.218
 1434TIP3    H1 4308   6.188   1.435   4.158
 1434TIP3    H2 4309   6.183   1.497   4.297
 1435TIP3   OH2 4310   3.060   0.432   0.068
 1435TIP3    H1 4311   2.979   0.383   0.065
 1435TIP3    H2 4312   3.114   0.386   0.132
 1436TIP3   OH2 4313   5.013   2.834   5.194
 1436TIP3    H1 4314   4.942   2.830   5.130
 1436TIP3    H2 4315   5.072   2.902   5.162
 1437TIP3   OH2 4316   1.726   1.423   1.861
 1437TIP3    H1 4317   1.703   1.513   1.885
 1437TIP3    H2 4318   1.734   1.377   1.945
 1438TIP3   OH2 4319   5.295   2.464   4.224
 1438TIP3    H1 4320   5.316   2.516   4.301
 1438TIP3    H2 4321   5.359   2.392   4.226
 1439TIP3   OH2 4322   6.349   4.956   3.567
 1439TIP3    H1 4323   6.284   5.002   3.515
 1439TIP3    H2 4324   6.433   4.988   3.534
 1440TIP3   OH2 4325   4.784   0.904   0.356
 1440TIP3    H1 4326   4.840   0.838   0.316
 1440TIP3    H2 4327   4.695   0.880   0.329
 1441TIP3   OH2 4328   3.609   4.127   2.220
 1441TIP3    H1 4329   3.550   4.181   2.272
 1441TIP3    H2 4330   3.564   4.043   2.210
 1442TIP3   OH2 4331   1.343   4.321   1.375
 1442TIP3    H1 4332   1.305   4.264   1.307
 1442TIP3    H2 4333   1.269   4.341   1.432
 1443TIP3   OH2 4334   2.917   2.908   1.456
 1443TIP3    H1 4335   2.941   2.973   1.390
 1443TIP3    H2 4336   2.868   2.842   1.407
 1444TIP3   OH2 4337   1.803   0.105   3.770
 1444TIP3    H1 4338   1.857   0.085   3.694
 1444TIP3    H2 4339   1.769   0.193   3.753
 1445TIP3   OH2 4340   0.720   0.101   3.366
 1445TIP3    H1 4341   0.780   0.158   3.319
 1445TIP3    H2 4342   0.643   0.155   3.383
 1446TIP3   OH2 4343   4.678   0.144   3.944
 1446TIP3    H1 4344   4.647   0.057   3.972
 1446TIP3    H2 4345   4.665   0.200   4.021
 1447TIP3   OH2 4346   4.844   4.707   3.796
 1447TIP3    H1 4347   4.818   4.627   3.842
 1447TIP3    H2 4348   4.940   4.700   3.788
 1448TIP3   OH2 4349   1.896   2.552   3.693
 1448TIP3    H1 4350   1.971   2.494   3.677
 1448TIP3    H2 4351   1.820   2.503   3.661
 1449TIP3   OH2 4352   2.593   0.227   0.158
 1449TIP3    H1 4353   2.560   0.168   0.090
 1449TIP3    H2 4354   2.520   0.286   0.177
 1450TIP3   OH2 4355   0.194   4.395   0.479
 1450TIP3    H1 4356   0.247   4.473   0.490
 1450TIP3    H2 4357   0.136   4.394   0.555
 1451TIP3   OH2 4358   2.170   3.442   2.627
 1451TIP3    H1 4359   2.099   3.439   2.691
 1451TIP3    H2 4360   2.131   3.411   2.545
 1452TIP3   OH2 4361   2.264   4.989   3.516
 1452TIP3    H1 4362   2.187   5.040   3.541
 1452TIP3    H2 4363   2.261   4.912   3.572
 1453TIP3   OH2 4364   2.699   4.890   3.265
 1453TIP3    H1 4365   2.776   4.856   3.311
 1453TIP3    H2 4366   2.679   4.823   3.199
 1454TIP3   OH2 4367   1.917   0.098   0.997
 1454TIP3    H1 4368   1.822   0.089   1.012
 1454TIP3    H2 4369   1.937   0.031   0.933
 1455TIP3   OH2 4370   1.849   1.080   4.588
 1455TIP3    H1 4371   1.772   1.048   4.635
 1455TIP3    H2 4372   1.921   1.072   4.651
 1456TIP3   OH2 4373   0.431   4.124   2.325
 1456TIP3    H1 4374   0.404   4.034   2.345
 1456TIP3    H2 4375   0.359   4.179   2.357
 1457TIP3   OH2 4376   3.260   4.527   2.481
 1457TIP3    H1 4377   3.264   4.447   2.534
 1457TIP3    H2 4378   3.265   4.598   2.545
 1458TIP3   OH2 4379   5.240   3.828   3.660
 1458TIP3    H1 4380   5.235   3.734   3.643
 1458TIP3    H2 4381   5.203   3.868   3.582
 1459TIP3   OH2 4382   2.616   3.562   1.481
 1459TIP3    H1 4383   2.654   3.649   1.496
 1459TIP3    H2 4384   2.678   3.502   1.522
 1460TIP3   OH2 4385   2.757   2.261   4.496
 1460TIP3    H1 4386   2.795   2.344   4.523
 1460TIP3    H2 4387   2.751   2.267   4.400
 1461TIP3   OH2 4388   3.962   4.452   4.531
 1461TIP3    H1 4389   3.992   4.378   4.478
 1461TIP3    H2 4390   3.910   4.412   4.601
 1462TIP3   OH2 4391   0.838   4.247   3.070
 1462TIP3    H1 4392   0.776   4.174   3.060
 1462TIP3    H2 4393   0.851   4.254   3.164
 1463TIP3   OH2 4394   4.237   4.724   3.741
 1463TIP3    H1 4395   4.226   4.709   3.647
 1463TIP3    H2 4396   4.331   4.727   3.754
 1464TIP3   OH2 4397   3.387   1.188   4.258
 1464TIP3    H1 4398   3.319   1.246   4.223
 1464TIP3    H2 4399   3.468   1.220   4.217
 1465TIP3   OH2 4400   1.295   0.805   2.017
 1465TIP3    H1 4401   1.209   0.835   2.046
 1465TIP3    H2 4402   1.286   0.794   1.922
 1466TIP3   OH2 4403   3.465   5.248   0.408
 1466TIP3    H1 4404   3.376   5.236   0.441
 1466TIP3    H2 4405   3.461   5.326   0.353
 1467TIP3   OH2 4406   4.574   0.541   4.738
 1467TIP3    H1 4407   4.479   0.554   4.739
 1467TIP3    H2 4408   4.601   0.569   4.650
 1468TIP3   OH2 4409   1.136   2.934   0.270
 1468TIP3    H1 4410   1.049   2.958   0.302
 1468TIP3    H2 4411   1.159   2.855   0.319
 1469TIP3   OH2 4412   3.175   0.347   0.299
 1469TIP3    H1 4413   3.138   0.262   0.274
 1469TIP3    H2 4414   3.115   0.381   0.365
 1470TIP3   OH2 4415   5.744   0.994   4.223
 1470TIP3    H1 4416   5.698   1.075   4.204
 1470TIP3    H2 4417   5.803   1.016   4.294
 1471TIP3   OH2 4418   1.887   5.587   4.385
 1471TIP3    H1 4419   1.963   5.550   4.430
 1471TIP3    H2 4420   1.900   5.565   4.293
 1472TIP3   OH2 4421   4.118   4.812   0.533
 1472TIP3    H1 4422   4.138   4.901   0.503
 1472TIP3    H2 4423   4.032   4.818   0.574
 1473TIP3   OH2 4424   1.786   2.395   3.209
 1473TIP3    H1 4425   1.859   2.334   3.220
 1473TIP3    H2 4426   1.708   2.340   3.213
 1474TIP3   OH2 4427   0.182   4.375   0.206
 1474TIP3    H1 4428   0.237   4.449   0.181
 1474TIP3    H2 4429   0.171   4.385   0.301
 1475TIP3   OH2 4430   2.545   4.170   1.598
 1475TIP3    H1 4431   2.485   4.160   1.524
 1475TIP3    H2 4432   2.524   4.255   1.636
 1476TIP3   OH2 4433   2.256   1.455   3.314
 1476TIP3    H1 4434   2.209   1.396   3.255
 1476TIP3    H2 4435   2.253   1.540   3.269
 1477TIP3   OH2 4436   3.319   1.387   2.242
 1477TIP3    H1 4437   3.413   1.372   2.231
 1477TIP3    H2 4438   3.306   1.476   2.208
 1478TIP3   OH2 4439   0.707   4.697   4.544
 1478TIP3    H1 4440   0.656   4.710   4.624
 1478TIP3    H2 4441   0.716   4.785   4.507
 1479TIP3   OH2 4442   6.310   1.226   2.840
 1479TIP3    H1 4443   6.309   1.253   2.748
 1479TIP3    H2 4444   6.282   1.135   2.839
 1480TIP3   OH2 4445   0.559   2.950   2.699
 1480TIP3    H1 4446   0.506   2.922   2.625
 1480TIP3    H2 4447   0.635   2.891   2.698
 1481TIP3   OH2 4448   2.092   5.486   4.542
 1481TIP3    H1 4449   2.043   5.493   4.624
 1481TIP3    H2 4450   2.178   5.453   4.568
 1482TIP3   OH2 4451   3.854   2.110   2.337
 1482TIP3    H1 4452   3.912   2.034   2.326
 1482TIP3    H2 4453   3.854   2.127   2.431
 1483TIP3   OH2 4454   3.166   4.883   3.648
 1483TIP3    H1 4455   3.099   4.821   3.675
 1483TIP3    H2 4456   3.246   4.852   3.690
 1484TIP3   OH2 4457   4.741   1.098   2.927
 1484TIP3    H1 4458   4.661   1.107   2.875
 1484TIP3    H2 4459   4.714   1.044   3.002
 1485TIP3   OH2 4460   1.754   5.872   5.062
 1485TIP3    H1 4461   1.664   5.877   5.030
 1485TIP3    H2 4462   1.796   5.949   5.026
 1486TIP3   OH2 4463   3.254   3.918   4.435
 1486TIP3    H1 4464   3.248   4.011   4.413
 1486TIP3    H2 4465   3.172   3.880   4.404
 1487TIP3   OH2 4466   3.122   2.685   3.749
 1487TIP3    H1 4467   3.034   2.725   3.745
 1487TIP3    H2 4468   3.179   2.756   3.779
 1488TIP3   OH2 4469   4.012   3.269   0.445
 1488TIP3    H1 4470   4.100   3.291   0.478
 1488TIP3    H2 4471   3.960   3.256   0.525
 1489TIP3   OH2 4472   4.823   4.757   2.069
 1489TIP3    H1 4473   4.819   4.709   2.152
 1489TIP3    H2 4474   4.767   4.707   2.010
 1490TIP3   OH2 4475   4.952   0.406   0.968
 1490TIP3    H1 4476   4.857   0.419   0.966
 1490TIP3    H2 4477   4.988   0.493   0.979
 1491TIP3   OH2 4478   2.865   2.523   3.588
 1491TIP3    H1 4479   2.866   2.596   3.650
 1491TIP3    H2 4480   2.937   2.467   3.616
 1492TIP3   OH2 4481   0.941   0.510   1.966
 1492TIP3    H1 4482   0.947   0.602   1.994
 1492TIP3    H2 4483   0.856   0.503   1.924
 1493TIP3   OH2 4484   5.580   2.180   2.900
 1493TIP3    H1 4485   5.590   2.085   2.892
 1493TIP3    H2 4486   5.507   2.202   2.842
 1494TIP3   OH2 4487   5.616   5.109   0.903
 1494TIP3    H1 4488   5.552   5.138   0.967
 1494TIP3    H2 4489   5.639   5.020   0.931
 1495TIP3   OH2 4490   5.778   4.618   3.379
 1495TIP3    H1 4491   5.767   4.526   3.403
 1495TIP3    H2 4492   5.873   4.630   3.373
 1496TIP3   OH2 4493   5.410   2.531   0.118
 1496TIP3    H1 4494   5.441   2.462   0.177
 1496TIP3    H2 4495   5.331   2.564   0.161
 1497TIP3   OH2 4496   0.149   1.880   5.042
 1497TIP3    H1 4497   0.117   1.872   5.132
 1497TIP3    H2 4498   0.200   1.961   5.042
 1498TIP3   OH2 4499   0.073   2.394   2.108
 1498TIP3    H1 4500  -0.001   2.347   2.145
 1498TIP3    H2 4501   0.138   2.396   2.179
 1499TIP3   OH2 4502   3.590   2.502   4.546
 1499TIP3    H1 4503   3.519   2.560   4.519
 1499TIP3    H2 4504   3.605   2.525   4.638
 1500TIP3   OH2 4505   3.818   5.217   0.228
 1500TIP3    H1 4506   3.854   5.305   0.242
 1500TIP3    H2 4507   3.737   5.231   0.179
 1501TIP3   OH2 4508   1.206   1.198   4.718
 1501TIP3    H1 4509   1.266   1.247   4.662
 1501TIP3    H2 4510   1.219   1.107   4.693
 1502TIP3   OH2 4511   5.650   0.379   4.687
 1502TIP3    H1 4512   5.560   0.412   4.686
 1502TIP3    H2 4513   5.665   0.353   4.778
 1503TIP3   OH2 4514   2.773   4.816   0.887
 1503TIP3    H1 4515   2.786   4.821   0.793
 1503TIP3    H2 4516   2.691   4.862   0.903
 1504TIP3   OH2 4517   0.837   3.527   4.494
 1504TIP3    H1 4518   0.832   3.485   4.580
 1504TIP3    H2 4519   0.825   3.620   4.512
 1505TIP3   OH2 4520   5.847   1.552   4.909
 1505TIP3    H1 4521   5.865   1.474   4.857
 1505TIP3    H2 4522   5.933   1.586   4.932
 1506TIP3   OH2 4523   4.183   0.249   4.404
 1506TIP3    H1 4524   4.196   0.162   4.440
 1506TIP3    H2 4525   4.256   0.300   4.438
 1507TIP3   OH2 4526   0.713   5.889   0.269
 1507TIP3    H1 4527   0.715   5.872   0.175
 1507TIP3    H2 4528   0.625   5.925   0.284
 1508TIP3   OH2 4529   3.813   3.034   1.518
 1508TIP3    H1 4530   3.894   2.992   1.546
 1508TIP3    H2 4531   3.796   2.996   1.431
 1509TIP3   OH2 4532   5.005   3.172   4.259
 1509TIP3    H1 4533   4.932   3.213   4.305
 1509TIP3    H2 4534   5.030   3.235   4.191
 1510TIP3   OH2 4535   0.497   2.816   1.711
 1510TIP3    H1 4536   0.454   2.778   1.635
 1510TIP3    H2 4537   0.464   2.905   1.716
 1511TIP3   OH2 4538   5.345   1.994   3.418
 1511TIP3    H1 4539   5.355   2.022   3.327
 1511TIP3    H2 4540   5.410   2.046   3.466
 1512TIP3   OH2 4541   2.139   3.014   3.810
 1512TIP3    H1 4542   2.177   3.095   3.776
 1512TIP3    H2 4543   2.085   3.043   3.884
 1513TIP3   OH2 4544   1.944   3.754   2.127
 1513TIP3    H1 4545   2.034   3.748   2.157
 1513TIP3    H2 4546   1.932   3.846   2.105
 1514TIP3   OH2 4547   3.182   1.941   5.104
 1514TIP3    H1 4548   3.147   1.854   5.120
 1514TIP3    H2 4549   3.104   1.998   5.099
 1515TIP3   OH2 4550   4.886   2.466   1.611
 1515TIP3    H1 4551   4.920   2.556   1.616
 1515TIP3    H2 4552   4.792   2.477   1.598
 1516TIP3   OH2 4553   5.264   0.775   2.340
 1516TIP3    H1 4554   5.256   0.680   2.353
 1516TIP3    H2 4555   5.246   0.813   2.426
 1517TIP3   OH2 4556   5.181   5.630   1.184
 1517TIP3    H1 4557   5.219   5.714   1.158
 1517TIP3    H2 4558   5.236   5.600   1.256
 1518TIP3   OH2 4559   0.585   0.645   5.199
 1518TIP3    H1 4560   0.570   0.557   5.165
 1518TIP3    H2 4561   0.662   0.636   5.255
 1519TIP3   OH2 4562   1.687   1.044   0.733
 1519TIP3    H1 4563   1.743   1.107   0.686
 1519TIP3    H2 4564   1.602   1.087   0.738
 1520TIP3   OH2 4565   0.713   3.250   5.076
 1520TIP3    H1 4566   0.672   3.176   5.121
 1520TIP3    H2 4567   0.805   3.244   5.100
 1521TIP3   OH2 4568   2.495   4.095   5.114
 1521TIP3    H1 4569   2.581   4.066   5.145
 1521TIP3    H2 4570   2.439   4.019   5.125
 1522TIP3   OH2 4571   1.156   0.987   1.168
 1522TIP3    H1 4572   1.169   1.080   1.151
 1522TIP3    H2 4573   1.190   0.943   1.090
 1523TIP3   OH2 4574   3.134   4.406   3.292
 1523TIP3    H1 4575   3.116   4.325   3.339
 1523TIP3    H2 4576   3.135   4.474   3.359
 1524TIP3   OH2 4577   4.456   4.842   2.049
 1524TIP3    H1 4578   4.474   4.835   2.143
 1524TIP3    H2 4579   4.418   4.757   2.026
 1525TIP3   OH2 4580   5.137   2.759   4.780
 1525TIP3    H1 4581   5.058   2.801   4.814
 1525TIP3    H2 4582   5.191   2.831   4.748
 1526TIP3   OH2 4583   0.634   5.720   4.883
 1526TIP3    H1 4584   0.547   5.718   4.923
 1526TIP3    H2 4585   0.652   5.628   4.861
 1527TIP3   OH2 4586   1.539   5.886   3.869
 1527TIP3    H1 4587   1.531   5.976   3.901
 1527TIP3    H2 4588   1.598   5.844   3.931
 1528TIP3   OH2 4589   5.870   3.019   2.730
 1528TIP3    H1 4590   5.879   3.018   2.826
 1528TIP3    H2 4591   5.949   2.976   2.698
 1529TIP3   OH2 4592   4.316   5.288   0.887
 1529TIP3    H1 4593   4.239   5.292   0.944
 1529TIP3    H2 4594   4.385   5.332   0.936
 1530TIP3   OH2 4595   0.679   5.198   4.890
 1530TIP3    H1 4596   0.674   5.252   4.811
 1530TIP3    H2 4597   0.594   5.210   4.932
 1531TIP3   OH2 4598   1.136   2.962   4.135
 1531TIP3    H1 4599   1.137   3.054   4.161
 1531TIP3    H2 4600   1.177   2.916   4.208
 1532TIP3   OH2 4601   2.545   4.924   3.565
 1532TIP3    H1 4602   2.571   4.936   3.474
 1532TIP3    H2 4603   2.456   4.958   3.569
 1533TIP3   OH2 4604   4.429   3.369   1.335
 1533TIP3    H1 4605   4.418   3.315   1.256
 1533TIP3    H2 4606   4.484   3.315   1.392
 1534TIP3   OH2 4607   1.363   2.845   3.163
 1534TIP3    H1 4608   1.443   2.867   3.210
 1534TIP3    H2 4609   1.293   2.866   3.225
 1535TIP3   OH2 4610   1.109   2.535   3.033
 1535TIP3    H1 4611   1.016   2.537   3.057
 1535TIP3    H2 4612   1.110   2.512   2.940
 1536TIP3   OH2 4613   1.467   4.542   5.002
 1536TIP3    H1 4614   1.560   4.539   4.978
 1536TIP3    H2 4615   1.464   4.604   5.076
 1537TIP3   OH2 4616   4.131   0.536   4.901
 1537TIP3    H1 4617   4.044   0.572   4.887
 1537TIP3    H2 4618   4.120   0.471   4.970
 1538TIP3   OH2 4619   5.801   2.426   4.038
 1538TIP3    H1 4620   5.862   2.368   4.084
 1538TIP3    H2 4621   5.732   2.368   4.006
 1539TIP3   OH2 4622   1.502   5.476   1.886
 1539TIP3    H1 4623   1.407   5.491   1.895
 1539TIP3    H2 4624   1.509   5.383   1.864
 1540TIP3   OH2 4625   1.612   2.757   0.118
 1540TIP3    H1 4626   1.547   2.719   0.060
 1540TIP3    H2 4627   1.635   2.686   0.179
 1541TIP3   OH2 4628   0.753   2.889   0.804
 1541TIP3    H1 4629   0.817   2.845   0.861
 1541TIP3    H2 4630   0.693   2.819   0.777
 1542TIP3   OH2 4631   6.341   3.481   3.655
 1542TIP3    H1 4632   6.312   3.390   3.654
 1542TIP3    H2 4633   6.330   3.508   3.746
 1543TIP3   OH2 4634   0.701   0.375   2.487
 1543TIP3    H1 4635   0.766   0.307   2.505
 1543TIP3    H2 4636   0.666   0.352   2.400
 1544TIP3   OH2 4637   4.836   4.200   4.748
 1544TIP3    H1 4638   4.819   4.125   4.690
 1544TIP3    H2 4639   4.790   4.272   4.706
 1545TIP3   OH2 4640   0.181   1.494   3.449
 1545TIP3    H1 4641   0.185   1.572   3.505
 1545TIP3    H2 4642   0.231   1.518   3.371
 1546TIP3   OH2 4643   1.032   0.507   2.820
 1546TIP3    H1 4644   1.030   0.594   2.861
 1546TIP3    H2 4645   1.021   0.525   2.727
 1547TIP3   OH2 4646   6.054   5.771   5.017
 1547TIP3    H1 4647   5.966   5.784   5.054
 1547TIP3    H2 4648   6.051   5.682   4.981
 1548TIP3   OH2 4649   2.273   3.715   4.408
 1548TIP3    H1 4650   2.268   3.622   4.385
 1548TIP3    H2 4651   2.264   3.717   4.503
 1549TIP3   OH2 4652   0.454   3.042   3.691
 1549TIP3    H1 4653   0.430   2.953   3.667
 1549TIP3    H2 4654   0.534   3.059   3.641
 1550TIP3   OH2 4655   3.117   3.855   1.626
 1550TIP3    H1 4656   3.101   3.848   1.532
 1550TIP3    H2 4657   3.212   3.868   1.633
 1551TIP3   OH2 4658   4.924   2.866   3.827
 1551TIP3    H1 4659   5.010   2.839   3.795
 1551TIP3    H2 4660   4.892   2.792   3.878
 1552TIP3   OH2 4661   1.253   2.589   0.113
 1552TIP3    H1 4662   1.214   2.660   0.062
 1552TIP3    H2 4663   1.221   2.603   0.203
 1553TIP3   OH2 4664   4.472   5.905   1.634
 1553TIP3    H1 4665   4.453   5.811   1.636
 1553TIP3    H2 4666   4.390   5.946   1.663
 1554TIP3   OH2 4667   1.711   3.449   1.390
 1554TIP3    H1 4668   1.704   3.435   1.485
 1554TIP3    H2 4669   1.649   3.519   1.371
 1555TIP3   OH2 4670   1.025   4.098   0.011
 1555TIP3    H1 4671   0.979   4.062   0.087
 1555TIP3    H2 4672   1.065   4.179   0.044
 1556TIP3   OH2 4673   6.331   1.804   0.064
 1556TIP3    H1 4674   6.290   1.726   0.101
 1556TIP3    H2 4675   6.331   1.868   0.136
 1557TIP3   OH2 4676   3.033   1.583   2.386
 1557TIP3    H1 4677   2.962   1.519   2.384
 1557TIP3    H2 4678   3.079   1.566   2.468
 1558TIP3   OH2 4679   1.279   4.712   3.982
 1558TIP3    H1 4680   1.273   4.617   3.975
 1558TIP3    H2 4681   1.361   4.728   4.029
 1559TIP3   OH2 4682   0.602   4.488   2.389
 1559TIP3    H1 4683   0.692   4.517   2.400
 1559TIP3    H2 4684   0.610   4.398   2.355
 1560TIP3   OH2 4685   1.419   1.819   4.144
 1560TIP3    H1 4686   1.418   1.786   4.054
 1560TIP3    H2 4687   1.490   1.771   4.187
 1561TIP3   OH2 4688   5.896   2.026   4.690
 1561TIP3    H1 4689   5.867   1.935   4.684
 1561TIP3    H2 4690   5.985   2.020   4.725
 1562TIP3   OH2 4691   4.133   1.522   3.297
 1562TIP3    H1 4692   4.052   1.476   3.277
 1562TIP3    H2 4693   4.158   1.492   3.384
 1563TIP3   OH2 4694   1.134   5.608   4.544
 1563TIP3    H1 4695   1.095   5.528   4.508
 1563TIP3    H2 4696   1.220   5.613   4.503
 1564TIP3   OH2 4697   6.006   1.255   3.272
 1564TIP3    H1 4698   5.995   1.199   3.349
 1564TIP3    H2 4699   6.059   1.328   3.304
 1565TIP3   OH2 4700   2.082   0.189   0.414
 1565TIP3    H1 4701   1.996   0.152   0.391
 1565TIP3    H2 4702   2.063   0.251   0.484
 1566TIP3   OH2 4703   0.632   0.277   0.376
 1566TIP3    H1 4704   0.658   0.217   0.446
 1566TIP3    H2 4705   0.649   0.364   0.412
 1567TIP3   OH2 4706   4.557   0.275   2.947
 1567TIP3    H1 4707   4.513   0.278   3.032
 1567TIP3    H2 4708   4.575   0.182   2.933
 1568TIP3   OH2 4709   0.639   1.005   4.293
 1568TIP3    H1 4710   0.655   0.944   4.221
 1568TIP3    H2 4711   0.634   1.091   4.252
 1569TIP3   OH2 4712   4.601   4.391   4.301
 1569TIP3    H1 4713   4.552   4.471   4.318
 1569TIP3    H2 4714   4.551   4.322   4.344
 1570TIP3   OH2 4715   1.087   5.660   3.452
 1570TIP3    H1 4716   1.006   5.612   3.431
 1570TIP3    H2 4717   1.156   5.613   3.404
 1571TIP3   OH2 4718   0.028   5.521   4.885
 1571TIP3    H1 4719   0.040   5.437   4.929
 1571TIP3    H2 4720   0.117   5.555   4.874
 1572TIP3   OH2 4721   4.815   3.571   2.452
 1572TIP3    H1 4722   4.725   3.586   2.480
 1572TIP3    H2 4723   4.860   3.653   2.469
 1573TIP3   OH2 4724   2.903   4.617   1.282
 1573TIP3    H1 4725   2.934   4.693   1.233
 1573TIP3    H2 4726   2.828   4.650   1.332
 1574TIP3   OH2 4727   1.396   3.377   0.529
 1574TIP3    H1 4728   1.422   3.285   0.519
 1574TIP3    H2 4729   1.302   3.376   0.512
 1575TIP3   OH2 4730  -0.020   3.303   2.003
 1575TIP3    H1 4731  -0.038   3.247   2.078
 1575TIP3    H2 4732   0.073   3.286   1.983
 1576TIP3   OH2 4733   4.771   0.483   1.644
 1576TIP3    H1 4734   4.776   0.578   1.634
 1576TIP3    H2 4735   4.716   0.470   1.721
 1577TIP3   OH2 4736   5.981   5.404   1.229
 1577TIP3    H1 4737   6.011   5.348   1.301
 1577TIP3    H2 4738   6.041   5.479   1.230
 1578TIP3   OH2 4739   3.759   2.407   1.571
 1578TIP3    H1 4740   3.801   2.490   1.592
 1578TIP3    H2 4741   3.751   2.362   1.655
 1579TIP3   OH2 4742   6.234   2.736   3.393
 1579TIP3    H1 4743   6.201   2.646   3.386
 1579TIP3    H2 4744   6.200   2.780   3.314
 1580TIP3   OH2 4745   3.681   3.115   4.094
 1580TIP3    H1 4746   3.662   3.070   4.176
 1580TIP3    H2 4747   3.608   3.175   4.081
 1581TIP3   OH2 4748   5.292   1.852   1.802
 1581TIP3    H1 4749   5.310   1.767   1.841
 1581TIP3    H2 4750   5.197   1.861   1.808
 1582TIP3   OH2 4751   2.572   1.799   2.013
 1582TIP3    H1 4752   2.521   1.720   2.030
 1582TIP3    H2 4753   2.632   1.774   1.942
 1583TIP3   OH2 4754   5.604   4.267   2.222
 1583TIP3    H1 4755   5.550   4.190   2.239
 1583TIP3    H2 4756   5.619   4.304   2.309
 1584TIP3   OH2 4757   2.232   3.508   1.449
 1584TIP3    H1 4758   2.176   3.557   1.509
 1584TIP3    H2 4759   2.256   3.571   1.381
 1585TIP3   OH2 4760   5.629   3.532   1.279
 1585TIP3    H1 4761   5.604   3.613   1.235
 1585TIP3    H2 4762   5.720   3.547   1.306
 1586TIP3   OH2 4763   1.445   1.529   0.164
 1586TIP3    H1 4764   1.516   1.585   0.135
 1586TIP3    H2 4765   1.382   1.589   0.205
 1587TIP3   OH2 4766   2.158   4.205   0.777
 1587TIP3    H1 4767   2.161   4.118   0.736
 1587TIP3    H2 4768   2.092   4.197   0.846
 1588TIP3   OH2 4769   2.322   2.997   4.626
 1588TIP3    H1 4770   2.266   3.052   4.572
 1588TIP3    H2 4771   2.409   3.035   4.617
 1589TIP3   OH2 4772   2.381   2.463   4.186
 1589TIP3    H1 4773   2.361   2.396   4.121
 1589TIP3    H2 4774   2.363   2.420   4.270
 1590TIP3   OH2 4775   1.705   4.339   2.417
 1590TIP3    H1 4776   1.738   4.423   2.447
 1590TIP3    H2 4777   1.773   4.276   2.440
 1591TIP3   OH2 4778   1.631   1.743   4.258
 1591TIP3    H1 4779   1.636   1.703   4.345
 1591TIP3    H2 4780   1.712   1.717   4.215
 1592TIP3   OH2 4781   5.150   1.297   3.563
 1592TIP3    H1 4782   5.219   1.257   3.510
 1592TIP3    H2 4783   5.069   1.259   3.529
 1593TIP3   OH2 4784   3.312   5.467   1.038
 1593TIP3    H1 4785   3.241   5.519   1.075
 1593TIP3    H2 4786   3.271   5.417   0.967
 1594TIP3   OH2 4787   4.044   3.512   1.157
 1594TIP3    H1 4788   4.122   3.496   1.103
 1594TIP3    H2 4789   4.074   3.571   1.226
 1595TIP3   OH2 4790   5.158   4.776   4.308
 1595TIP3    H1 4791   5.247   4.782   4.345
 1595TIP3    H2 4792   5.150   4.854   4.252
 1596TIP3   OH2 4793   6.352  -0.007   1.782
 1596TIP3    H1 4794   6.269   0.003   1.735
 1596TIP3    H2 4795   6.409   0.060   1.744
 1597TIP3   OH2 4796   2.104   4.493   2.504
 1597TIP3    H1 4797   2.016   4.526   2.523
 1597TIP3    H2 4798   2.091   4.433   2.430
 1598TIP3   OH2 4799   0.532   1.494   0.530
 1598TIP3    H1 4800   0.477   1.439   0.586
 1598TIP3    H2 4801   0.502   1.477   0.441
 1599TIP3   OH2 4802   2.418   1.808   4.079
 1599TIP3    H1 4803   2.340   1.839   4.033
 1599TIP3    H2 4804   2.489   1.864   4.045
 1600TIP3   OH2 4805   3.879   0.128   1.504
 1600TIP3    H1 4806   3.851   0.213   1.470
 1600TIP3    H2 4807   3.933   0.092   1.434
 1601TIP3   OH2 4808   5.982   0.227   0.813
 1601TIP3    H1 4809   5.920   0.211   0.742
 1601TIP3    H2 4810   6.042   0.293   0.778
 1602TIP3   OH2 4811   0.364   0.073   2.179
 1602TIP3    H1 4812   0.370   0.117   2.094
 1602TIP3    H2 4813   0.288   0.015   2.171
 1603TIP3   OH2 4814   4.132   0.175   1.135
 1603TIP3    H1 4815   4.203   0.143   1.079
 1603TIP3    H2 4816   4.157   0.264   1.157
 1604TIP3   OH2 4817   4.930   2.538   4.984
 1604TIP3    H1 4818   5.006   2.498   5.025
 1604TIP3    H2 4819   4.896   2.599   5.050
 1605TIP3   OH2 4820   1.733   3.726   3.867
 1605TIP3    H1 4821   1.723   3.679   3.950
 1605TIP3    H2 4822   1.822   3.708   3.839
 1606TIP3   OH2 4823   5.836   5.184   0.576
 1606TIP3    H1 4824   5.809   5.267   0.615
 1606TIP3    H2 4825   5.869   5.132   0.649
 1607TIP3   OH2 4826   1.192   1.173   2.372
 1607TIP3    H1 4827   1.147   1.096   2.407
 1607TIP3    H2 4828   1.206   1.152   2.280
 1608TIP3   OH2 4829   6.219   1.067   5.219
 1608TIP3    H1 4830   6.159   1.006   5.262
 1608TIP3    H2 4831   6.271   1.012   5.161
 1609TIP3   OH2 4832   0.288   4.058   4.885
 1609TIP3    H1 4833   0.225   4.003   4.839
 1609TIP3    H2 4834   0.357   4.075   4.821
 1610TIP3   OH2 4835   4.618   1.185   3.917
 1610TIP3    H1 4836   4.702   1.224   3.890
 1610TIP3    H2 4837   4.561   1.198   3.842
 1611TIP3   OH2 4838   0.037   5.976   0.906
 1611TIP3    H1 4839   0.075   6.007   0.824
 1611TIP3    H2 4840   0.098   6.007   0.974
 1612TIP3   OH2 4841   2.257   1.235   0.836
 1612TIP3    H1 4842   2.202   1.193   0.770
 1612TIP3    H2 4843   2.230   1.327   0.834
 1613TIP3   OH2 4844   3.754   5.496   4.739
 1613TIP3    H1 4845   3.664   5.527   4.735
 1613TIP3    H2 4846   3.752   5.409   4.698
 1614TIP3   OH2 4847   2.130   0.742   2.396
 1614TIP3    H1 4848   2.094   0.830   2.386
 1614TIP3    H2 4849   2.056   0.688   2.424
 1615TIP3   OH2 4850   4.134   4.705   4.071
 1615TIP3    H1 4851   4.215   4.756   4.080
 1615TIP3    H2 4852   4.151   4.625   4.121
 1616TIP3   OH2 4853   4.541   4.011   2.687
 1616TIP3    H1 4854   4.494   3.974   2.612
 1616TIP3    H2 4855   4.496   3.975   2.763
 1617TIP3   OH2 4856   4.773   1.914   2.644
 1617TIP3    H1 4857   4.838   1.906   2.574
 1617TIP3    H2 4858   4.692   1.935   2.598
 1618TIP3   OH2 4859   3.640   3.727   0.711
 1618TIP3    H1 4860   3.645   3.733   0.616
 1618TIP3    H2 4861   3.591   3.805   0.737
 1619TIP3   OH2 4862   2.584   2.320   5.072
 1619TIP3    H1 4863   2.497   2.322   5.033
 1619TIP3    H2 4864   2.642   2.353   5.004
 1620TIP3   OH2 4865   3.619   1.158   0.266
 1620TIP3    H1 4866   3.623   1.203   0.181
 1620TIP3    H2 4867   3.698   1.186   0.312
 1621TIP3   OH2 4868   5.511   3.974   0.217
 1621TIP3    H1 4869   5.494   3.883   0.239
 1621TIP3    H2 4870   5.483   3.984   0.126
 1622TIP3   OH2 4871   0.418   1.154   3.094
 1622TIP3    H1 4872   0.511   1.163   3.077
 1622TIP3    H2 4873   0.380   1.136   3.008
 1623TIP3   OH2 4874   4.825   4.341   3.258
 1623TIP3    H1 4875   4.776   4.356   3.338
 1623TIP3    H2 4876   4.760   4.348   3.188
 1624TIP3   OH2 4877   5.700   1.125   0.055
 1624TIP3    H1 4878   5.716   1.089   0.142
 1624TIP3    H2 4879   5.610   1.100   0.035
 1625TIP3   OH2 4880   1.462   4.394   4.555
 1625TIP3    H1 4881   1.425   4.309   4.531
 1625TIP3    H2 4882   1.503   4.426   4.474
 1626TIP3   OH2 4883   0.543   1.334   3.521
 1626TIP3    H1 4884   0.498   1.337   3.437
 1626TIP3    H2 4885   0.495   1.394   3.577
 1627TIP3   OH2 4886   1.185   5.021   2.117
 1627TIP3    H1 4887   1.134   4.975   2.184
 1627TIP3    H2 4888   1.228   4.951   2.067
 1628TIP3   OH2 4889   5.345   1.877   4.746
 1628TIP3    H1 4890   5.411   1.847   4.684
 1628TIP3    H2 4891   5.377   1.962   4.777
 1629TIP3   OH2 4892   3.493   3.390   3.703
 1629TIP3    H1 4893   3.457   3.382   3.615
 1629TIP3    H2 4894   3.573   3.337   3.701
 1630TIP3   OH2 4895   3.589   4.149   3.699
 1630TIP3    H1 4896   3.555   4.078   3.753
 1630TIP3    H2 4897   3.678   4.121   3.677
 1631TIP3   OH2 4898   1.568   4.754   4.722
 1631TIP3    H1 4899   1.494   4.694   4.737
 1631TIP3    H2 4900   1.645   4.703   4.748
 1632TIP3   OH2 4901   1.144   4.729   4.830
 1632TIP3    H1 4902   1.103   4.660   4.777
 1632TIP3    H2 4903   1.237   4.708   4.828
 1633TIP3   OH2 4904   2.079   4.673   0.427
 1633TIP3    H1 4905   2.111   4.751   0.382
 1633TIP3    H2 4906   2.103   4.687   0.519
 1634TIP3   OH2 4907   0.128   1.777   3.246
 1634TIP3    H1 4908   0.219   1.762   3.272
 1634TIP3    H2 4909   0.090   1.689   3.239
 1635TIP3   OH2 4910   0.072   3.945   2.876
 1635TIP3    H1 4911   0.092   3.851   2.882
 1635TIP3    H2 4912   0.034   3.967   2.961
 1636TIP3   OH2 4913   6.343   4.920   1.530
 1636TIP3    H1 4914   6.268   4.956   1.482
 1636TIP3    H2 4915   6.337   4.960   1.617
 1637TIP3   OH2 4916   4.487   2.570   0.782
 1637TIP3    H1 4917   4.567   2.538   0.823
 1637TIP3    H2 4918   4.421   2.504   0.804
 1638TIP3   OH2 4919   2.507   0.469   4.404
 1638TIP3    H1 4920   2.471   0.557   4.411
 1638TIP3    H2 4921   2.432   0.411   4.412
 1639TIP3   OH2 4922   5.097   0.810   0.721
 1639TIP3    H1 4923   5.050   0.731   0.695
 1639TIP3    H2 4924   5.068   0.877   0.659
 1640TIP3   OH2 4925   0.747   3.155   3.331
 1640TIP3    H1 4926   0.786   3.168   3.244
 1640TIP3    H2 4927   0.654   3.172   3.319
 1641TIP3   OH2 4928   3.846   5.983   5.192
 1641TIP3    H1 4929   3.915   5.976   5.258
 1641TIP3    H2 4930   3.777   5.924   5.223
 1642TIP3   OH2 4931   1.457   3.083   0.456
 1642TIP3    H1 4932   1.446   3.016   0.388
 1642TIP3    H2 4933   1.377   3.078   0.508
 1643TIP3   OH2 4934   6.305   4.259   0.382
 1643TIP3    H1 4935   6.384   4.220   0.420
 1643TIP3    H2 4936   6.233   4.221   0.432
 1644TIP3   OH2 4937   2.546   1.794   3.345
 1644TIP3    H1 4938   2.547   1.772   3.252
 1644TIP3    H2 4939   2.606   1.731   3.385
 1645TIP3   OH2 4940   4.254   1.678   0.635
 1645TIP3    H1 4941   4.283   1.763   0.601
 1645TIP3    H2 4942   4.176   1.657   0.585
 1646TIP3   OH2 4943   1.962   2.759   4.110
 1646TIP3    H1 4944   1.989   2.668   4.100
 1646TIP3    H2 4945   1.915   2.780   4.029
 1647TIP3   OH2 4946   1.954   0.854   0.466
 1647TIP3    H1 4947   1.867   0.821   0.441
 1647TIP3    H2 4948   1.960   0.939   0.423
 1648TIP3   OH2 4949   0.993   4.908   1.472
 1648TIP3    H1 4950   0.950   4.877   1.392
 1648TIP3    H2 4951   0.993   5.003   1.463
 1649TIP3   OH2 4952   5.155   1.313   0.826
 1649TIP3    H1 4953   5.233   1.293   0.877
 1649TIP3    H2 4954   5.185   1.375   0.759
 1650TIP3   OH2 4955   3.547   0.798   3.862
 1650TIP3    H1 4956   3.580   0.776   3.950
 1650TIP3    H2 4957   3.599   0.745   3.803
 1651TIP3   OH2 4958   2.779   3.589   3.891
 1651TIP3    H1 4959   2.837   3.525   3.931
 1651TIP3    H2 4960   2.713   3.607   3.958
 1652TIP3   OH2 4961   2.125   3.641   4.924
 1652TIP3    H1 4962   2.217   3.615   4.915
 1652TIP3    H2 4963   2.085   3.621   4.839
 1653TIP3   OH2 4964   6.216   2.243   2.215
 1653TIP3    H1 4965   6.255   2.190   2.285
 1653TIP3    H2 4966   6.163   2.181   2.164
 1654TIP3   OH2 4967   2.894   4.556   2.453
 1654TIP3    H1 4968   2.868   4.609   2.377
 1654TIP3    H2 4969   2.937   4.480   2.415
 1655TIP3   OH2 4970   0.454   2.212   2.390
 1655TIP3    H1 4971   0.519   2.236   2.324
 1655TIP3    H2 4972   0.492   2.241   2.473
 1656TIP3   OH2 4973   2.953   0.385   2.067
 1656TIP3    H1 4974   2.953   0.326   2.143
 1656TIP3    H2 4975   2.874   0.361   2.018
 1657TIP3   OH2 4976   1.280   2.160   5.012
 1657TIP3    H1 4977   1.269   2.065   5.010
 1657TIP3    H2 4978   1.276   2.183   5.105
 1658TIP3   OH2 4979   2.341   0.557   0.558
 1658TIP3    H1 4980   2.267   0.616   0.569
 1658TIP3    H2 4981   2.322   0.510   0.476
 1659TIP3   OH2 4982   5.124   1.663   0.081
 1659TIP3    H1 4983   5.187   1.696   0.146
 1659TIP3    H2 4984   5.061   1.734   0.071
 1660TIP3   OH2 4985   6.028   3.499   3.001
 1660TIP3    H1 4986   6.058   3.476   2.914
 1660TIP3    H2 4987   6.044   3.421   3.054
 1661TIP3   OH2 4988   1.478   4.190   3.633
 1661TIP3    H1 4989   1.389   4.193   3.669
 1661TIP3    H2 4990   1.494   4.098   3.615
 1662TIP3   OH2 4991   3.971   4.348   3.084
 1662TIP3    H1 4992   3.971   4.347   3.179
 1662TIP3    H2 4993   4.022   4.426   3.061
 1663TIP3   OH2 4994   3.868   5.828   1.937
 1663TIP3    H1 4995   3.839   5.910   1.898
 1663TIP3    H2 4996   3.845   5.761   1.872
 1664TIP3   OH2 4997   0.149   2.602   2.605
 1664TIP3    H1 4998   0.100   2.562   2.533
 1664TIP3    H2 4999   0.240   2.601   2.575
 1665TIP3   OH2 5000   1.966   4.017   3.843
 1665TIP3    H1 5001   1.908   4.015   3.767
 1665TIP3    H2 5002   2.050   3.984   3.810
 1666TIP3   OH2 5003   5.358   1.661   3.802
 1666TIP3    H1 5004   5.306   1.686   3.878
 1666TIP3    H2 5005   5.294   1.635   3.736
 1667TIP3   OH2 5006   2.817   5.097   4.203
 1667TIP3    H1 5007   2.723   5.077   4.207
 1667TIP3    H2 5008   2.856   5.019   4.164
 1668TIP3   OH2 5009   3.962   1.509   2.532
 1668TIP3    H1 5010   3.890   1.493   2.471
 1668TIP3    H2 5011   3.921   1.554   2.606
 1669TIP3   OH2 5012   1.482   0.176   1.390
 1669TIP3    H1 5013   1.399   0.207   1.427
 1669TIP3    H2 5014   1.486   0.217   1.303
 1670TIP3   OH2 5015   0.500   1.175   3.904
 1670TIP3    H1 5016   0.431   1.221   3.856
 1670TIP3    H2 5017   0.572   1.167   3.842
 1671TIP3   OH2 5018   5.172   1.046   4.213
 1671TIP3    H1 5019   5.154   0.991   4.136
 1671TIP3    H2 5020   5.180   1.134   4.178
 1672TIP3   OH2 5021   5.919   1.336   4.083
 1672TIP3    H1 5022   5.977   1.387   4.139
 1672TIP3    H2 5023   5.978   1.274   4.039
 1673TIP3   OH2 5024   5.092   4.866   0.572
 1673TIP3    H1 5025   5.032   4.801   0.535
 1673TIP3    H2 5026   5.082   4.856   0.667
 1674TIP3   OH2 5027   1.473   2.817   3.499
 1674TIP3    H1 5028   1.444   2.897   3.456
 1674TIP3    H2 5029   1.406   2.752   3.478
 1675TIP3   OH2 5030   4.230   0.926   2.649
 1675TIP3    H1 5031   4.174   0.858   2.687
 1675TIP3    H2 5032   4.214   1.003   2.703
 1676TIP3   OH2 5033   5.230   3.916   2.175
 1676TIP3    H1 5034   5.149   3.939   2.129
 1676TIP3    H2 5035   5.204   3.846   2.235
 1677TIP3   OH2 5036   3.814   4.645   4.852
 1677TIP3    H1 5037   3.896   4.657   4.899
 1677TIP3    H2 5038   3.751   4.699   4.900
 1678TIP3   OH2 5039   4.671   2.661   4.306
 1678TIP3    H1 5040   4.746   2.696   4.355
 1678TIP3    H2 5041   4.596   2.683   4.361
 1679TIP3   OH2 5042   2.795   1.519   4.131
 1679TIP3    H1 5043   2.810   1.582   4.201
 1679TIP3    H2 5044   2.703   1.492   4.143
 1680TIP3   OH2 5045   5.120   3.224   1.564
 1680TIP3    H1 5046   5.208   3.194   1.587
 1680TIP3    H2 5047   5.104   3.188   1.477
 1681TIP3   OH2 5048   3.646   4.326   4.913
 1681TIP3    H1 5049   3.607   4.390   4.854
 1681TIP3    H2 5050   3.575   4.299   4.971
 1682TIP3   OH2 5051   5.066   1.801   4.627
 1682TIP3    H1 5052   4.981   1.762   4.648
 1682TIP3    H2 5053   5.093   1.845   4.708
 1683TIP3   OH2 5054   4.887   4.049   0.517
 1683TIP3    H1 5055   4.978   4.035   0.492
 1683TIP3    H2 5056   4.872   4.143   0.504
 1684TIP3   OH2 5057   0.189   5.275   3.059
 1684TIP3    H1 5058   0.208   5.368   3.056
 1684TIP3    H2 5059   0.094   5.269   3.047
 1685TIP3   OH2 5060   4.095   2.597   2.977
 1685TIP3    H1 5061   4.170   2.577   2.922
 1685TIP3    H2 5062   4.109   2.687   3.005
 1686TIP3   OH2 5063   2.679   5.727   2.579
 1686TIP3    H1 5064   2.666   5.742   2.486
 1686TIP3    H2 5065   2.770   5.749   2.595
 1687TIP3   OH2 5066   5.662   5.683   4.664
 1687TIP3    H1 5067   5.572   5.710   4.646
 1687TIP3    H2 5068   5.683   5.725   4.748
 1688TIP3   OH2 5069   3.450   3.428   4.571
 1688TIP3    H1 5070   3.466   3.485   4.496
 1688TIP3    H2 5071   3.385   3.365   4.539
 1689TIP3   OH2 5072   4.279   3.072   0.334
 1689TIP3    H1 5073   4.199   3.052   0.286
 1689TIP3    H2 5074   4.299   3.163   0.311
 1690TIP3   OH2 5075   5.610   4.655   4.545
 1690TIP3    H1 5076   5.686   4.604   4.517
 1690TIP3    H2 5077   5.549   4.590   4.579
 1691TIP3   OH2 5078   5.226   3.477   2.586
 1691TIP3    H1 5079   5.307   3.482   2.636
 1691TIP3    H2 5080   5.188   3.392   2.610
 1692TIP3   OH2 5081   0.238   3.997   0.592
 1692TIP3    H1 5082   0.169   3.992   0.526
 1692TIP3    H2 5083   0.312   4.037   0.546
 1693TIP3   OH2 5084   4.974   4.203   1.020
 1693TIP3    H1 5085   4.889   4.237   0.992
 1693TIP3    H2 5086   5.006   4.153   0.945
 1694TIP3   OH2 5087   4.663   3.476   4.407
 1694TIP3    H1 5088   4.733   3.463   4.471
 1694TIP3    H2 5089   4.679   3.411   4.339
 1695TIP3   OH2 5090   4.266   5.287   4.281
 1695TIP3    H1 5091   4.356   5.309   4.306
 1695TIP3    H2 5092   4.259   5.193   4.297
 1696TIP3   OH2 5093   6.036   5.440   4.348
 1696TIP3    H1 5094   5.965   5.440   4.284
 1696TIP3    H2 5095   5.994   5.460   4.432
 1697TIP3   OH2 5096   4.013   3.626   4.836
 1697TIP3    H1 5097   3.976   3.544   4.869
 1697TIP3    H2 5098   3.948   3.692   4.859
 1698TIP3   OH2 5099   5.928   0.722   4.505
 1698TIP3    H1 5100   5.860   0.681   4.452
 1698TIP3    H2 5101   5.971   0.785   4.447
 1699TIP3   OH2 5102   0.206   4.798   4.512
 1699TIP3    H1 5103   0.215   4.707   4.540
 1699TIP3    H2 5104   0.173   4.792   4.422
 1700TIP3   OH2 5105   6.280   3.061   3.350
 1700TIP3    H1 5106   6.313   2.984   3.395
 1700TIP3    H2 5107   6.299   3.134   3.409
 1701TIP3   OH2 5108   6.263   2.474   2.410
 1701TIP3    H1 5109   6.280   2.384   2.438
 1701TIP3    H2 5110   6.260   2.469   2.314
 1702TIP3   OH2 5111   6.086   1.136   1.308
 1702TIP3    H1 5112   6.137   1.158   1.386
 1702TIP3    H2 5113   6.095   1.212   1.251
 1703TIP3   OH2 5114   1.038   3.978   3.862
 1703TIP3    H1 5115   1.031   3.885   3.843
 1703TIP3    H2 5116   0.950   4.013   3.844
 1704TIP3   OH2 5117   0.802   1.485   0.546
 1704TIP3    H1 5118   0.708   1.480   0.562
 1704TIP3    H2 5119   0.825   1.577   0.562
 1705TIP3   OH2 5120   4.996   2.646   0.282
 1705TIP3    H1 5121   4.961   2.560   0.306
 1705TIP3    H2 5122   4.941   2.708   0.329
 1706TIP3   OH2 5123   2.441   0.783   0.765
 1706TIP3    H1 5124   2.361   0.789   0.713
 1706TIP3    H2 5125   2.449   0.690   0.787
 1707TIP3   OH2 5126   5.890   1.308   0.635
 1707TIP3    H1 5127   5.922   1.394   0.607
 1707TIP3    H2 5128   5.840   1.326   0.715
 1708TIP3   OH2 5129   4.719   4.316   0.953
 1708TIP3    H1 5130   4.625   4.299   0.958
 1708TIP3    H2 5131   4.726   4.411   0.954
 1709TIP3   OH2 5132   2.696   0.344   3.132
 1709TIP3    H1 5133   2.645   0.423   3.152
 1709TIP3    H2 5134   2.746   0.327   3.212
 1710TIP3   OH2 5135   5.506   3.849   3.664
 1710TIP3    H1 5136   5.411   3.840   3.664
 1710TIP3    H2 5137   5.526   3.890   3.749
 1711TIP3   OH2 5138   5.200   1.296   4.139
 1711TIP3    H1 5139   5.164   1.367   4.193
 1711TIP3    H2 5140   5.176   1.320   4.049
 1712TIP3   OH2 5141   3.064   5.192   1.734
 1712TIP3    H1 5142   3.001   5.226   1.671
 1712TIP3    H2 5143   3.016   5.188   1.817
 1713TIP3   OH2 5144   1.480   0.697   2.418
 1713TIP3    H1 5145   1.458   0.604   2.428
 1713TIP3    H2 5146   1.505   0.724   2.507
 1714TIP3   OH2 5147   4.392   2.828   2.830
 1714TIP3    H1 5148   4.321   2.811   2.767
 1714TIP3    H2 5149   4.364   2.906   2.877
 1715TIP3   OH2 5150   3.909   5.580   0.520
 1715TIP3    H1 5151   3.969   5.655   0.529
 1715TIP3    H2 5152   3.966   5.503   0.527
 1716TIP3   OH2 5153   0.324   5.420   4.562
 1716TIP3    H1 5154   0.420   5.423   4.570
 1716TIP3    H2 5155   0.302   5.490   4.501
 1717TIP3   OH2 5156   2.037   0.901   1.811
 1717TIP3    H1 5157   1.996   0.936   1.731
 1717TIP3    H2 5158   2.120   0.865   1.781
 1718TIP3   OH2 5159   4.649   3.049   3.244
 1718TIP3    H1 5160   4.657   3.002   3.161
 1718TIP3    H2 5161   4.732   3.033   3.289
 1719TIP3   OH2 5162   4.245   0.403   3.355
 1719TIP3    H1 5163   4.304   0.356   3.415
 1719TIP3    H2 5164   4.160   0.403   3.399
 1720TIP3   OH2 5165   1.937   0.419   1.620
 1720TIP3    H1 5166   1.895   0.350   1.569
 1720TIP3    H2 5167   1.902   0.501   1.585
 1721TIP3   OH2 5168   1.473   3.439   2.318
 1721TIP3    H1 5169   1.492   3.473   2.230
 1721TIP3    H2 5170   1.547   3.467   2.371
 1722TIP3   OH2 5171   4.078   5.339   4.487
 1722TIP3    H1 5172   4.126   5.259   4.465
 1722TIP3    H2 5173   3.992   5.308   4.517
 1723TIP3   OH2 5174   0.634   2.790   4.035
 1723TIP3    H1 5175   0.606   2.880   4.017
 1723TIP3    H2 5176   0.721   2.784   3.997
 1724TIP3   OH2 5177   4.875   3.008   2.383
 1724TIP3    H1 5178   4.830   3.085   2.417
 1724TIP3    H2 5179   4.955   3.042   2.343
 1725TIP3   OH2 5180   4.441   1.209   4.119
 1725TIP3    H1 5181   4.523   1.207   4.068
 1725TIP3    H2 5182   4.380   1.256   4.062
 1726TIP3   OH2 5183   4.413   3.609   0.492
 1726TIP3    H1 5184   4.394   3.701   0.510
 1726TIP3    H2 5185   4.487   3.612   0.430
 1727TIP3   OH2 5186   2.621   2.428   3.530
 1727TIP3    H1 5187   2.640   2.389   3.444
 1727TIP3    H2 5188   2.697   2.482   3.549
 1728TIP3   OH2 5189   3.622   4.064   0.972
 1728TIP3    H1 5190   3.666   4.145   0.946
 1728TIP3    H2 5191   3.593   4.081   1.062
 1729TIP3   OH2 5192   5.693   4.101   2.639
 1729TIP3    H1 5193   5.733   4.065   2.560
 1729TIP3    H2 5194   5.601   4.075   2.633
 1730TIP3   OH2 5195   1.739   2.142   4.924
 1730TIP3    H1 5196   1.788   2.199   4.865
 1730TIP3    H2 5197   1.647   2.166   4.910
 1731TIP3   OH2 5198   0.287   4.623   0.075
 1731TIP3    H1 5199   0.313   4.700   0.024
 1731TIP3    H2 5200   0.197   4.640   0.100
 1732TIP3   OH2 5201   3.363   5.834   2.917
 1732TIP3    H1 5202   3.432   5.882   2.963
 1732TIP3    H2 5203   3.328   5.897   2.854
 1733TIP3   OH2 5204   5.046   2.194   0.747
 1733TIP3    H1 5205   5.018   2.246   0.672
 1733TIP3    H2 5206   5.126   2.237   0.778
 1734TIP3   OH2 5207   5.118   1.906   4.928
 1734TIP3    H1 5208   5.177   1.977   4.904
 1734TIP3    H2 5209   5.170   1.826   4.913
 1735TIP3   OH2 5210   5.137   0.523   4.859
 1735TIP3    H1 5211   5.047   0.515   4.891
 1735TIP3    H2 5212   5.192   0.503   4.935
 1736TIP3   OH2 5213   0.853   5.511   4.623
 1736TIP3    H1 5214   0.912   5.449   4.580
 1736TIP3    H2 5215   0.883   5.513   4.714
 1737TIP3   OH2 5216   6.044   0.511   3.591
 1737TIP3    H1 5217   6.011   0.477   3.508
 1737TIP3    H2 5218   6.135   0.480   3.595
 1738TIP3   OH2 5219   0.842   1.344   4.045
 1738TIP3    H1 5220   0.759   1.304   4.071
 1738TIP3    H2 5221   0.906   1.273   4.049
 1739TIP3   OH2 5222   1.478   4.118   0.345
 1739TIP3    H1 5223   1.509   4.027   0.351
 1739TIP3    H2 5224   1.510   4.148   0.260
 1740TIP3   OH2 5225   4.296   4.652   0.216
 1740TIP3    H1 5226   4.269   4.561   0.229
 1740TIP3    H2 5227   4.357   4.670   0.288
 1741TIP3   OH2 5228   5.970   3.787   2.065
 1741TIP3    H1 5229   5.887   3.835   2.068
 1741TIP3    H2 5230   5.947   3.698   2.092
 1742TIP3   OH2 5231   1.989   5.134   0.399
 1742TIP3    H1 5232   1.962   5.212   0.448
 1742TIP3    H2 5233   1.922   5.124   0.332
 1743TIP3   OH2 5234   5.902   4.357   1.854
 1743TIP3    H1 5235   5.940   4.300   1.920
 1743TIP3    H2 5236   5.963   4.431   1.848
 1744TIP3   OH2 5237   1.326   0.466   2.829
 1744TIP3    H1 5238   1.247   0.509   2.798
 1744TIP3    H2 5239   1.327   0.481   2.924
 1745TIP3   OH2 5240   2.357   1.760   2.615
 1745TIP3    H1 5241   2.324   1.801   2.536
 1745TIP3    H2 5242   2.442   1.802   2.631
 1746TIP3   OH2 5243   0.813   4.557   3.314
 1746TIP3    H1 5244   0.820   4.561   3.409
 1746TIP3    H2 5245   0.900   4.578   3.282
 1747TIP3   OH2 5246   6.328   4.659   1.460
 1747TIP3    H1 5247   6.327   4.751   1.486
 1747TIP3    H2 5248   6.419   4.632   1.469
 1748TIP3   OH2 5249   2.021   2.682   1.159
 1748TIP3    H1 5250   2.046   2.773   1.177
 1748TIP3    H2 5251   2.036   2.637   1.242
 1749TIP3   OH2 5252   1.402   3.049   3.387
 1749TIP3    H1 5253   1.311   3.031   3.362
 1749TIP3    H2 5254   1.409   3.144   3.381
 1750TIP3   OH2 5255   4.328   4.149   0.731
 1750TIP3    H1 5256   4.272   4.183   0.662
 1750TIP3    H2 5257   4.389   4.091   0.686
 1751TIP3   OH2 5258   4.312   2.371   0.811
 1751TIP3    H1 5259   4.315   2.326   0.895
 1751TIP3    H2 5260   4.248   2.323   0.759
 1752TIP3   OH2 5261   5.703   5.012   4.381
 1752TIP3    H1 5262   5.788   5.048   4.358
 1752TIP3    H2 5263   5.720   4.957   4.458
 1753TIP3   OH2 5264   3.592   2.059   1.560
 1753TIP3    H1 5265   3.570   2.144   1.598
 1753TIP3    H2 5266   3.602   2.000   1.635
 1754TIP3   OH2 5267   2.160   4.245   0.097
 1754TIP3    H1 5268   2.131   4.334   0.117
 1754TIP3    H2 5269   2.082   4.199   0.068
 1755TIP3   OH2 5270   1.950   1.660   0.530
 1755TIP3    H1 5271   1.944   1.690   0.621
 1755TIP3    H2 5272   2.019   1.714   0.492
 1756TIP3   OH2 5273   4.840   3.942   1.193
 1756TIP3    H1 5274   4.903   3.942   1.121
 1756TIP3    H2 5275   4.879   3.886   1.260
 1757TIP3   OH2 5276   2.783   0.562   3.908
 1757TIP3    H1 5277   2.698   0.517   3.912
 1757TIP3    H2 5278   2.763   0.648   3.871
 1758TIP3   OH2 5279   0.598   4.817   3.832
 1758TIP3    H1 5280   0.683   4.854   3.807
 1758TIP3    H2 5281   0.537   4.856   3.769
 1759TIP3   OH2 5282   1.086   1.608   1.728
 1759TIP3    H1 5283   1.161   1.666   1.721
 1759TIP3    H2 5284   1.122   1.520   1.712
 1760TIP3   OH2 5285   4.982   1.592   2.401
 1760TIP3    H1 5286   4.973   1.551   2.487
 1760TIP3    H2 5287   4.941   1.678   2.412
 1761TIP3   OH2 5288   3.497   2.548   5.072
 1761TIP3    H1 5289   3.556   2.529   5.145
 1761TIP3    H2 5290   3.556   2.562   4.998
 1762TIP3   OH2 5291   1.777   2.163   2.180
 1762TIP3    H1 5292   1.864   2.201   2.173
 1762TIP3    H2 5293   1.722   2.235   2.212
 1763TIP3   OH2 5294   1.704   5.012   4.373
 1763TIP3    H1 5295   1.714   4.944   4.307
 1763TIP3    H2 5296   1.632   4.982   4.428
 1764TIP3   OH2 5297   4.061   0.676   3.495
 1764TIP3    H1 5298   4.072   0.690   3.401
 1764TIP3    H2 5299   4.021   0.589   3.501
 1765TIP3   OH2 5300   2.181   3.730   0.158
 1765TIP3    H1 5301   2.210   3.791   0.226
 1765TIP3    H2 5302   2.261   3.707   0.111
 1766TIP3   OH2 5303   6.242   3.040   0.940
 1766TIP3    H1 5304   6.230   3.062   1.032
 1766TIP3    H2 5305   6.165   2.989   0.917
 1767TIP3   OH2 5306   5.645   0.267   2.715
 1767TIP3    H1 5307   5.624   0.350   2.672
 1767TIP3    H2 5308   5.719   0.288   2.772
 1768TIP3   OH2 5309   2.194   3.880   2.084
 1768TIP3    H1 5310   2.227   3.931   2.158
 1768TIP3    H2 5311   2.200   3.939   2.010
 1769TIP3   OH2 5312   1.568   5.455   3.494
 1769TIP3    H1 5313   1.521   5.396   3.435
 1769TIP3    H2 5314   1.544   5.543   3.465
 1770TIP3   OH2 5315   5.714   3.051   5.149
 1770TIP3    H1 5316   5.679   3.104   5.220
 1770TIP3    H2 5317   5.644   2.989   5.129
 1771TIP3   OH2 5318   0.062   4.236   1.858
 1771TIP3    H1 5319   0.075   4.154   1.810
 1771TIP3    H2 5320   0.121   4.229   1.933
 1772TIP3   OH2 5321   2.073   1.004   3.180
 1772TIP3    H1 5322   2.024   0.963   3.252
 1772TIP3    H2 5323   2.066   0.941   3.108
 1773TIP3   OH2 5324   2.370   2.383   4.895
 1773TIP3    H1 5325   2.276   2.365   4.886
 1773TIP3    H2 5326   2.412   2.311   4.847
 1774TIP3   OH2 5327   5.502   4.343   3.251
 1774TIP3    H1 5328   5.551   4.271   3.292
 1774TIP3    H2 5329   5.427   4.357   3.310
 1775TIP3   OH2 5330   5.370   5.609   4.751
 1775TIP3    H1 5331   5.374   5.528   4.801
 1775TIP3    H2 5332   5.368   5.581   4.659
 1776TIP3   OH2 5333   1.773   0.200   0.683
 1776TIP3    H1 5334   1.796   0.111   0.658
 1776TIP3    H2 5335   1.748   0.242   0.601
 1777TIP3   OH2 5336   1.753   0.836   2.655
 1777TIP3    H1 5337   1.758   0.875   2.567
 1777TIP3    H2 5338   1.813   0.888   2.708
 1778TIP3   OH2 5339   1.791   1.695   4.741
 1778TIP3    H1 5340   1.790   1.732   4.830
 1778TIP3    H2 5341   1.836   1.762   4.689
 1779TIP3   OH2 5342   3.993   5.421   1.657
 1779TIP3    H1 5343   4.048   5.345   1.637
 1779TIP3    H2 5344   3.917   5.411   1.600
 1780TIP3   OH2 5345   1.694   0.343   3.690
 1780TIP3    H1 5346   1.601   0.355   3.709
 1780TIP3    H2 5347   1.717   0.415   3.631
 1781TIP3   OH2 5348   0.978   1.748   1.203
 1781TIP3    H1 5349   0.990   1.842   1.217
 1781TIP3    H2 5350   1.060   1.720   1.163
 1782TIP3   OH2 5351   3.884   5.839   1.010
 1782TIP3    H1 5352   3.952   5.849   1.077
 1782TIP3    H2 5353   3.825   5.772   1.044
 1783TIP3   OH2 5354  -0.010   4.362   1.361
 1783TIP3    H1 5355   0.016   4.273   1.384
 1783TIP3    H2 5356   0.012   4.370   1.269
 1784TIP3   OH2 5357   2.297   4.192   3.699
 1784TIP3    H1 5358   2.205   4.195   3.672
 1784TIP3    H2 5359   2.295   4.165   3.790
 1785TIP3   OH2 5360   0.460   5.776   3.939
 1785TIP3    H1 5361   0.530   5.774   4.005
 1785TIP3    H2 5362   0.472   5.695   3.890
 1786TIP3   OH2 5363   1.773   3.006   2.204
 1786TIP3    H1 5364   1.707   3.073   2.220
 1786TIP3    H2 5365   1.724   2.934   2.164
 1787TIP3   OH2 5366   5.923   4.942   0.761
 1787TIP3    H1 5367   5.974   4.864   0.785
 1787TIP3    H2 5368   5.833   4.910   0.756
 1788TIP3   OH2 5369   4.653   2.841   2.682
 1788TIP3    H1 5370   4.720   2.772   2.678
 1788TIP3    H2 5371   4.598   2.816   2.755
 1789TIP3   OH2 5372   2.784   1.211   5.153
 1789TIP3    H1 5373   2.740   1.250   5.229
 1789TIP3    H2 5374   2.719   1.215   5.083
 1790TIP3   OH2 5375   6.091   0.743   1.053
 1790TIP3    H1 5376   6.096   0.798   1.130
 1790TIP3    H2 5377   6.036   0.669   1.079
 1791TIP3   OH2 5378   6.371   5.478   0.981
 1791TIP3    H1 5379   6.412   5.407   0.931
 1791TIP3    H2 5380   6.277   5.470   0.962
 1792TIP3   OH2 5381   3.268   0.706   5.019
 1792TIP3    H1 5382   3.288   0.708   4.925
 1792TIP3    H2 5383   3.353   0.694   5.062
 1793TIP3   OH2 5384   1.005   0.402   3.358
 1793TIP3    H1 5385   0.950   0.376   3.284
 1793TIP3    H2 5386   1.018   0.322   3.408
 1794TIP3   OH2 5387   5.778   2.727   2.991
 1794TIP3    H1 5388   5.808   2.808   2.950
 1794TIP3    H2 5389   5.729   2.755   3.068
 1795TIP3   OH2 5390   3.191   5.891   4.314
 1795TIP3    H1 5391   3.103   5.909   4.280
 1795TIP3    H2 5392   3.246   5.956   4.271
 1796TIP3   OH2 5393   2.077   4.161   4.166
 1796TIP3    H1 5394   2.061   4.096   4.235
 1796TIP3    H2 5395   2.169   4.187   4.178
 1797TIP3   OH2 5396   4.578   5.225   0.739
 1797TIP3    H1 5397   4.503   5.238   0.681
 1797TIP3    H2 5398   4.630   5.157   0.696
 1798TIP3   OH2 5399   6.121   2.316   3.187
 1798TIP3    H1 5400   6.133   2.386   3.123
 1798TIP3    H2 5401   6.181   2.247   3.159
 1799TIP3   OH2 5402   4.467  -0.018   0.175
 1799TIP3    H1 5403   4.484   0.038   0.251
 1799TIP3    H2 5404   4.385  -0.063   0.196
 1800TIP3   OH2 5405   5.619   1.986   0.913
 1800TIP3    H1 5406   5.650   1.992   1.004
 1800TIP3    H2 5407   5.684   1.932   0.869
 1801TIP3   OH2 5408   2.223   5.506   2.794
 1801TIP3    H1 5409   2.147   5.448   2.797
 1801TIP3    H2 5410   2.186   5.595   2.795
 1802TIP3   OH2 5411   3.576   3.307   2.175
 1802TIP3    H1 5412   3.528   3.228   2.152
 1802TIP3    H2 5413   3.585   3.355   2.092
 1803TIP3   OH2 5414   4.268   0.935   4.779
 1803TIP3    H1 5415   4.174   0.949   4.769
 1803TIP3    H2 5416   4.274   0.851   4.825
 1804TIP3   OH2 5417   3.911   1.136   4.561
 1804TIP3    H1 5418   3.842   1.093   4.510
 1804TIP3    H2 5419   3.875   1.223   4.580
 1805TIP3   OH2 5420   1.888   1.010   1.563
 1805TIP3    H1 5421   1.818   0.952   1.532
 1805TIP3    H2 5422   1.841   1.082   1.606
 1806TIP3   OH2 5423   1.317   3.897   0.748
 1806TIP3    H1 5424   1.330   3.901   0.843
 1806TIP3    H2 5425   1.345   3.983   0.717
 1807TIP3   OH2 5426   0.107   1.087   1.551
 1807TIP3    H1 5427   0.187   1.136   1.532
 1807TIP3    H2 5428   0.124   1.045   1.635
 1808TIP3   OH2 5429   5.293   4.856   1.900
 1808TIP3    H1 5430   5.345   4.935   1.915
 1808TIP3    H2 5431   5.238   4.849   1.979
 1809TIP3   OH2 5432   2.751   0.955   0.940
 1809TIP3    H1 5433   2.834   0.907   0.934
 1809TIP3    H2 5434   2.769   1.026   1.003
 1810TIP3   OH2 5435   5.959   2.293   2.434
 1810TIP3    H1 5436   5.997   2.243   2.506
 1810TIP3    H2 5437   6.024   2.288   2.363
 1811TIP3   OH2 5438   0.109   2.875   0.597
 1811TIP3    H1 5439   0.027   2.920   0.577
 1811TIP3    H2 5440   0.108   2.797   0.542
 1812TIP3   OH2 5441   2.873   3.650   5.147
 1812TIP3    H1 5442   2.930   3.711   5.100
 1812TIP3    H2 5443   2.844   3.698   5.225
 1813TIP3   OH2 5444   3.780   2.465   0.860
 1813TIP3    H1 5445   3.770   2.533   0.793
 1813TIP3    H2 5446   3.824   2.509   0.932
 1814TIP3   OH2 5447   3.131   1.159   4.059
 1814TIP3    H1 5448   3.154   1.246   4.028
 1814TIP3    H2 5449   3.194   1.101   4.015
 1815TIP3   OH2 5450   5.012   4.320   4.200
 1815TIP3    H1 5451   4.997   4.403   4.155
 1815TIP3    H2 5452   4.987   4.253   4.136
 1816TIP3   OH2 5453   2.122   0.660   3.199
 1816TIP3    H1 5454   2.080   0.579   3.173
 1816TIP3    H2 5455   2.050   0.715   3.231
 1817TIP3   OH2 5456   3.918   3.983   1.969
 1817TIP3    H1 5457   3.860   4.058   1.953
 1817TIP3    H2 5458   3.875   3.911   1.924
 1818TIP3   OH2 5459   5.845   4.019   1.816
 1818TIP3    H1 5460   5.770   3.962   1.799
 1818TIP3    H2 5461   5.811   4.091   1.869
 1819TIP3   OH2 5462   5.965   3.938   0.709
 1819TIP3    H1 5463   5.906   3.967   0.640
 1819TIP3    H2 5464   6.035   3.892   0.662
 1820TIP3   OH2 5465   0.341   1.964   0.345
 1820TIP3    H1 5466   0.305   1.907   0.413
 1820TIP3    H2 5467   0.311   2.052   0.370
 1821TIP3   OH2 5468   2.093   5.501   4.812
 1821TIP3    H1 5469   2.035   5.425   4.810
 1821TIP3    H2 5470   2.177   5.467   4.841
 1822TIP3   OH2 5471   2.399   0.416   0.167
 1822TIP3    H1 5472   2.339   0.464   0.225
 1822TIP3    H2 5473   2.395   0.463   0.084
 1823TIP3   OH2 5474   5.383   5.070   3.876
 1823TIP3    H1 5475   5.407   5.089   3.967
 1823TIP3    H2 5476   5.466   5.066   3.830
 1824TIP3   OH2 5477   0.856   5.928   0.499
 1824TIP3    H1 5478   0.944   5.905   0.467
 1824TIP3    H2 5479   0.798   5.903   0.427
 1825TIP3   OH2 5480   4.687   3.796   0.640
 1825TIP3    H1 5481   4.596   3.827   0.637
 1825TIP3    H2 5482   4.697   3.760   0.728
 1826TIP3   OH2 5483   4.851   1.839   4.948
 1826TIP3    H1 5484   4.810   1.925   4.955
 1826TIP3    H2 5485   4.945   1.857   4.952
 1827TIP3   OH2 5486   2.521   4.278   1.991
 1827TIP3    H1 5487   2.614   4.283   2.013
 1827TIP3    H2 5488   2.484   4.220   2.057
 1828TIP3   OH2 5489   5.241   4.612   4.739
 1828TIP3    H1 5490   5.193   4.530   4.728
 1828TIP3    H2 5491   5.333   4.587   4.727
 1829TIP3   OH2 5492   1.412   2.084   1.710
 1829TIP3    H1 5493   1.446   2.120   1.792
 1829TIP3    H2 5494   1.370   2.002   1.736
 1830TIP3   OH2 5495   3.929   1.919   4.473
 1830TIP3    H1 5496   3.945   2.011   4.451
 1830TIP3    H2 5497   3.981   1.904   4.552
 1831TIP3   OH2 5498   0.701   5.690   4.459
 1831TIP3    H1 5499   0.693   5.639   4.379
 1831TIP3    H2 5500   0.782   5.658   4.500
 1832TIP3   OH2 5501   0.358   4.607   0.527
 1832TIP3    H1 5502   0.426   4.668   0.555
 1832TIP3    H2 5503   0.289   4.616   0.593
 1833TIP3   OH2 5504   1.151   2.003   1.847
 1833TIP3    H1 5505   1.176   1.949   1.771
 1833TIP3    H2 5506   1.086   2.064   1.812
 1834TIP3   OH2 5507   4.679   1.877   4.670
 1834TIP3    H1 5508   4.750   1.813   4.672
 1834TIP3    H2 5509   4.600   1.824   4.653
 1835TIP3   OH2 5510   1.214   3.126   5.144
 1835TIP3    H1 5511   1.232   3.039   5.181
 1835TIP3    H2 5512   1.200   3.182   5.221
 1836TIP3   OH2 5513   5.136   3.197   3.268
 1836TIP3    H1 5514   5.229   3.177   3.274
 1836TIP3    H2 5515   5.108   3.154   3.187
 1837TIP3   OH2 5516   3.406   2.740   4.293
 1837TIP3    H1 5517   3.375   2.683   4.364
 1837TIP3    H2 5518   3.460   2.806   4.337
 1838TIP3   OH2 5519   5.094   4.850   4.641
 1838TIP3    H1 5520   5.098   4.816   4.552
 1838TIP3    H2 5521   5.149   4.791   4.692
 1839TIP3   OH2 5522   4.527   0.100   3.720
 1839TIP3    H1 5523   4.578   0.124   3.798
 1839TIP3    H2 5524   4.511   0.006   3.731
 1840TIP3   OH2 5525   0.417   4.583   4.220
 1840TIP3    H1 5526   0.470   4.536   4.155
 1840TIP3    H2 5527   0.448   4.673   4.216
 1841TIP3   OH2 5528   1.130   0.046   1.551
 1841TIP3    H1 5529   1.088   0.123   1.589
 1841TIP3    H2 5530   1.063   0.007   1.495
 1842TIP3   OH2 5531   0.911   4.400   2.387
 1842TIP3    H1 5532   0.828   4.401   2.436
 1842TIP3    H2 5533   0.961   4.474   2.423
 1843TIP3   OH2 5534   5.698   4.205   1.968
 1843TIP3    H1 5535   5.684   4.283   1.915
 1843TIP3    H2 5536   5.672   4.231   2.056
 1844TIP3   OH2 5537   1.313   4.990   3.034
 1844TIP3    H1 5538   1.305   5.080   3.065
 1844TIP3    H2 5539   1.268   4.937   3.100
 1845TIP3   OH2 5540   0.782   4.719   2.655
 1845TIP3    H1 5541   0.812   4.769   2.731
 1845TIP3    H2 5542   0.760   4.785   2.590
 1846TIP3   OH2 5543   3.205   2.289   2.273
 1846TIP3    H1 5544   3.197   2.296   2.368
 1846TIP3    H2 5545   3.133   2.233   2.247
 1847TIP3   OH2 5546   2.187   0.544   1.612
 1847TIP3    H1 5547   2.244   0.484   1.563
 1847TIP3    H2 5548   2.100   0.505   1.606
 1848TIP3   OH2 5549   5.712   5.214   2.035
 1848TIP3    H1 5550   5.726   5.300   1.996
 1848TIP3    H2 5551   5.714   5.230   2.130
 1849TIP3   OH2 5552   2.032   2.362   0.734
 1849TIP3    H1 5553   2.054   2.344   0.642
 1849TIP3    H2 5554   2.060   2.452   0.748
 1850TIP3   OH2 5555   1.039   4.463   4.267
 1850TIP3    H1 5556   1.004   4.490   4.352
 1850TIP3    H2 5557   1.124   4.423   4.288
 1851TIP3   OH2 5558   0.454   3.319   4.274
 1851TIP3    H1 5559   0.400   3.328   4.196
 1851TIP3    H2 5560   0.543   3.339   4.245
 1852TIP3   OH2 5561   1.817   3.845   5.036
 1852TIP3    H1 5562   1.868   3.806   5.107
 1852TIP3    H2 5563   1.730   3.859   5.074
 1853TIP3   OH2 5564   0.304   2.085   4.940
 1853TIP3    H1 5565   0.285   2.169   4.898
 1853TIP3    H2 5566   0.387   2.057   4.902
 1854TIP3   OH2 5567   2.780   5.865   1.509
 1854TIP3    H1 5568   2.805   5.864   1.601
 1854TIP3    H2 5569   2.709   5.930   1.503
 1855TIP3   OH2 5570   5.104   2.209   0.226
 1855TIP3    H1 5571   5.184   2.221   0.278
 1855TIP3    H2 5572   5.134   2.164   0.147
 1856TIP3   OH2 5573   0.071   1.164   2.542
 1856TIP3    H1 5574   0.124   1.238   2.514
 1856TIP3    H2 5575   0.007   1.152   2.472
 1857TIP3   OH2 5576   3.558   2.860   2.633
 1857TIP3    H1 5577   3.583   2.826   2.547
 1857TIP3    H2 5578   3.581   2.953   2.629
 1858TIP3   OH2 5579   3.582   1.342   4.024
 1858TIP3    H1 5580   3.503   1.386   3.995
 1858TIP3    H2 5581   3.572   1.251   3.994
 1859TIP3   OH2 5582   0.260   2.644   4.060
 1859TIP3    H1 5583   0.172   2.650   4.098
 1859TIP3    H2 5584   0.314   2.607   4.130
 1860TIP3   OH2 5585   2.229   2.945   4.114
 1860TIP3    H1 5586   2.155   2.970   4.059
 1860TIP3    H2 5587   2.236   2.850   4.104
 1861TIP3   OH2 5588   1.550   5.281   4.939
 1861TIP3    H1 5589   1.537   5.317   4.852
 1861TIP3    H2 5590   1.609   5.207   4.926
 1862TIP3   OH2 5591   0.175   0.876   4.608
 1862TIP3    H1 5592   0.161   0.946   4.543
 1862TIP3    H2 5593   0.256   0.901   4.653
 1863TIP3   OH2 5594   0.371   4.956   4.305
 1863TIP3    H1 5595   0.284   4.921   4.289
 1863TIP3    H2 5596   0.429   4.900   4.253
 1864TIP3   OH2 5597   0.179   0.484   1.208
 1864TIP3    H1 5598   0.238   0.553   1.178
 1864TIP3    H2 5599   0.096   0.502   1.163
 1865TIP3   OH2 5600   3.558   1.784   2.160
 1865TIP3    H1 5601   3.471   1.823   2.170
 1865TIP3    H2 5602   3.570   1.732   2.239
 1866TIP3   OH2 5603   2.857   3.138   4.848
 1866TIP3    H1 5604   2.945   3.111   4.876
 1866TIP3    H2 5605   2.835   3.077   4.778
 1867TIP3   OH2 5606   2.910   3.162   0.659
 1867TIP3    H1 5607   2.883   3.153   0.751
 1867TIP3    H2 5608   2.840   3.214   0.619
 1868TIP3   OH2 5609   5.992   5.060   0.055
 1868TIP3    H1 5610   5.990   5.016  -0.031
 1868TIP3    H2 5611   6.064   5.122   0.048
 1869TIP3   OH2 5612   5.979   5.054   4.497
 1869TIP3    H1 5613   5.968   5.051   4.592
 1869TIP3    H2 5614   5.982   4.962   4.471
 1870TIP3   OH2 5615   0.245   2.653   3.439
 1870TIP3    H1 5616   0.294   2.596   3.379
 1870TIP3    H2 5617   0.300   2.659   3.517
 1871TIP3   OH2 5618   4.472   2.569   1.278
 1871TIP3    H1 5619   4.553   2.607   1.242
 1871TIP3    H2 5620   4.500   2.526   1.359
 1872TIP3   OH2 5621   5.082   4.881   2.109
 1872TIP3    H1 5622   5.010   4.821   2.127
 1872TIP3    H2 5623   5.040   4.965   2.090
 1873TIP3   OH2 5624   4.067   4.524   3.520
 1873TIP3    H1 5625   3.991   4.559   3.565
 1873TIP3    H2 5626   4.124   4.599   3.507
 1874TIP3   OH2 5627   4.139   2.108   1.077
 1874TIP3    H1 5628   4.086   2.187   1.093
 1874TIP3    H2 5629   4.195   2.101   1.154
 1875TIP3   OH2 5630   6.101   0.229   3.331
 1875TIP3    H1 5631   6.158   0.257   3.403
 1875TIP3    H2 5632   6.089   0.135   3.346
 1876TIP3   OH2 5633   4.149   4.436   4.203
 1876TIP3    H1 5634   4.117   4.372   4.266
 1876TIP3    H2 5635   4.178   4.385   4.128
 1877TIP3   OH2 5636   3.266   0.894   1.150
 1877TIP3    H1 5637   3.195   0.916   1.210
 1877TIP3    H2 5638   3.260   0.799   1.140
 1878TIP3   OH2 5639   1.345   0.616   0.209
 1878TIP3    H1 5640   1.279   0.555   0.176
 1878TIP3    H2 5641   1.304   0.702   0.203
 1879TIP3   OH2 5642   0.743   5.406   2.503
 1879TIP3    H1 5643   0.732   5.389   2.596
 1879TIP3    H2 5644   0.705   5.329   2.460
 1880TIP3   OH2 5645   5.227   5.729   4.245
 1880TIP3    H1 5646   5.222   5.763   4.334
 1880TIP3    H2 5647   5.310   5.683   4.241
 1881TIP3   OH2 5648   3.372   1.390   3.757
 1881TIP3    H1 5649   3.289   1.361   3.795
 1881TIP3    H2 5650   3.362   1.485   3.746
 1882TIP3   OH2 5651   2.302   2.788   1.112
 1882TIP3    H1 5652   2.217   2.779   1.069
 1882TIP3    H2 5653   2.350   2.851   1.058
 1883TIP3   OH2 5654   2.916   5.938   0.661
 1883TIP3    H1 5655   2.963   6.022   0.664
 1883TIP3    H2 5656   2.978   5.874   0.695
 1884TIP3   OH2 5657   4.039   1.085   3.578
 1884TIP3    H1 5658   4.110   1.131   3.624
 1884TIP3    H2 5659   4.079   1.004   3.547
 1885TIP3   OH2 5660   1.074   0.071   0.398
 1885TIP3    H1 5661   0.999   0.032   0.353
 1885TIP3    H2 5662   1.043   0.157   0.427
 1886TIP3   OH2 5663   3.991   0.931   1.444
 1886TIP3    H1 5664   3.942   0.965   1.519
 1886TIP3    H2 5665   4.069   0.986   1.439
 1887TIP3   OH2 5666   5.102   1.522   4.274
 1887TIP3    H1 5667   5.119   1.529   4.368
 1887TIP3    H2 5668   5.036   1.589   4.256
 1888TIP3   OH2 5669   3.593   1.054   3.984
 1888TIP3    H1 5670   3.662   0.992   4.007
 1888TIP3    H2 5671   3.537   1.005   3.923
 1889TIP3   OH2 5672   5.237   3.617   4.662
 1889TIP3    H1 5673   5.281   3.600   4.746
 1889TIP3    H2 5674   5.144   3.627   4.686
 1890TIP3   OH2 5675   1.857   4.624   2.837
 1890TIP3    H1 5676   1.923   4.564   2.873
 1890TIP3    H2 5677   1.792   4.633   2.907
 1891TIP3   OH2 5678   1.703   0.679   4.250
 1891TIP3    H1 5679   1.767   0.717   4.310
 1891TIP3    H2 5680   1.654   0.754   4.217
 1892TIP3   OH2 5681   6.299   2.651   0.131
 1892TIP3    H1 5682   6.234   2.721   0.123
 1892TIP3    H2 5683   6.249   2.570   0.129
 1893TIP3   OH2 5684   1.732   0.687   3.767
 1893TIP3    H1 5685   1.687   0.710   3.849
 1893TIP3    H2 5686   1.799   0.754   3.757
 1894TIP3   OH2 5687   1.502   5.507   4.168
 1894TIP3    H1 5688   1.573   5.571   4.173
 1894TIP3    H2 5689   1.499   5.483   4.075
 1895TIP3   OH2 5690   6.261   4.871   3.099
 1895TIP3    H1 5691   6.269   4.848   3.007
 1895TIP3    H2 5692   6.249   4.787   3.144
 1896TIP3   OH2 5693   3.584   2.686   0.216
 1896TIP3    H1 5694   3.555   2.765   0.172
 1896TIP3    H2 5695   3.628   2.635   0.148
 1897TIP3   OH2 5696   4.709   3.981   4.626
 1897TIP3    H1 5697   4.713   3.894   4.586
 1897TIP3    H2 5698   4.623   3.984   4.669
 1898TIP3   OH2 5699   3.799   2.182   2.590
 1898TIP3    H1 5700   3.877   2.178   2.645
 1898TIP3    H2 5701   3.763   2.269   2.606
 1899TIP3   OH2 5702   5.273   5.324   4.831
 1899TIP3    H1 5703   5.188   5.365   4.848
 1899TIP3    H2 5704   5.251   5.245   4.781
 1900TIP3   OH2 5705   2.503   5.067   3.215
 1900TIP3    H1 5706   2.513   5.101   3.126
 1900TIP3    H2 5707   2.587   5.025   3.235
 1901TIP3   OH2 5708   3.957   5.171   1.159
 1901TIP3    H1 5709   4.037   5.119   1.159
 1901TIP3    H2 5710   3.924   5.164   1.248
 1902TIP3   OH2 5711   0.520   4.948   3.108
 1902TIP3    H1 5712   0.568   4.887   3.164
 1902TIP3    H2 5713   0.506   5.025   3.163
 1903TIP3   OH2 5714   3.065   4.145   0.196
 1903TIP3    H1 5715   3.097   4.108   0.114
 1903TIP3    H2 5716   2.982   4.187   0.172
 1904TIP3   OH2 5717   1.059   2.426   1.266
 1904TIP3    H1 5718   1.136   2.480   1.283
 1904TIP3    H2 5719   1.016   2.469   1.192
 1905TIP3   OH2 5720   5.063   1.706   3.422
 1905TIP3    H1 5721   4.991   1.644   3.405
 1905TIP3    H2 5722   5.118   1.701   3.344
 1906TIP3   OH2 5723   4.852   4.383   2.451
 1906TIP3    H1 5724   4.796   4.307   2.434
 1906TIP3    H2 5725   4.799   4.458   2.423
 1907TIP3   OH2 5726   3.669   0.155   2.241
 1907TIP3    H1 5727   3.699   0.245   2.247
 1907TIP3    H2 5728   3.668   0.136   2.147
 1908TIP3   OH2 5729   3.697   1.047   4.406
 1908TIP3    H1 5730   3.628   1.101   4.444
 1908TIP3    H2 5731   3.715   1.087   4.322
 1909TIP3   OH2 5732   0.886   3.954   1.443
 1909TIP3    H1 5733   0.814   3.902   1.406
 1909TIP3    H2 5734   0.933   3.987   1.367
 1910TIP3   OH2 5735   1.958   4.703   3.300
 1910TIP3    H1 5736   1.905   4.753   3.238
 1910TIP3    H2 5737   1.925   4.613   3.292
 1911TIP3   OH2 5738   0.347   3.736   1.090
 1911TIP3    H1 5739   0.299   3.725   1.008
 1911TIP3    H2 5740   0.374   3.647   1.114
 1912TIP3   OH2 5741   5.897   2.472   2.714
 1912TIP3    H1 5742   5.965   2.534   2.689
 1912TIP3    H2 5743   5.930   2.431   2.794
 1913TIP3   OH2 5744   5.274   3.386   1.289
 1913TIP3    H1 5745   5.278   3.400   1.384
 1913TIP3    H2 5746   5.237   3.467   1.254
 1914TIP3   OH2 5747   5.742   1.474   3.414
 1914TIP3    H1 5748   5.648   1.459   3.410
 1914TIP3    H2 5749   5.778   1.394   3.453
 1915TIP3   OH2 5750   5.260   5.490   3.780
 1915TIP3    H1 5751   5.167   5.513   3.788
 1915TIP3    H2 5752   5.287   5.527   3.696
 1916TIP3   OH2 5753   1.144   0.822   0.151
 1916TIP3    H1 5754   1.105   0.860   0.072
 1916TIP3    H2 5755   1.069   0.795   0.205
 1917TIP3   OH2 5756   5.523   2.185   3.490
 1917TIP3    H1 5757   5.579   2.178   3.412
 1917TIP3    H2 5758   5.557   2.119   3.550
 1918TIP3   OH2 5759   4.468   1.048   5.023
 1918TIP3    H1 5760   4.491   0.966   5.066
 1918TIP3    H2 5761   4.456   1.110   5.094
 1919TIP3   OH2 5762   3.932   3.179   5.041
 1919TIP3    H1 5763   3.971   3.176   5.128
 1919TIP3    H2 5764   3.947   3.092   5.005
 1920TIP3   OH2 5765   2.190   3.661   3.238
 1920TIP3    H1 5766   2.231   3.577   3.259
 1920TIP3    H2 5767   2.113   3.638   3.186
 1921TIP3   OH2 5768   3.512   3.718   1.780
 1921TIP3    H1 5769   3.493   3.627   1.756
 1921TIP3    H2 5770   3.482   3.770   1.706
 1922TIP3   OH2 5771   3.474   5.257   4.385
 1922TIP3    H1 5772   3.481   5.347   4.417
 1922TIP3    H2 5773   3.565   5.228   4.376
 1923TIP3   OH2 5774   4.982   3.668   0.839
 1923TIP3    H1 5775   5.030   3.586   0.847
 1923TIP3    H2 5776   5.010   3.705   0.755
 1924TIP3   OH2 5777   2.942   2.049   0.272
 1924TIP3    H1 5778   2.921   2.141   0.285
 1924TIP3    H2 5779   2.976   2.044   0.183
 1925TIP3   OH2 5780   3.277   1.548   0.262
 1925TIP3    H1 5781   3.348   1.507   0.311
 1925TIP3    H2 5782   3.321   1.600   0.195
 1926TIP3   OH2 5783   6.016   2.606   3.909
 1926TIP3    H1 5784   5.970   2.531   3.948
 1926TIP3    H2 5785   6.082   2.567   3.852
 1927TIP3   OH2 5786   1.929   5.025   2.800
 1927TIP3    H1 5787   1.858   5.070   2.846
 1927TIP3    H2 5788   1.946   5.080   2.723
 1928TIP3   OH2 5789   2.103   2.338   4.907
 1928TIP3    H1 5790   2.039   2.300   4.847
 1928TIP3    H2 5791   2.066   2.324   4.994
 1929TIP3   OH2 5792   5.567   5.339   3.147
 1929TIP3    H1 5793   5.488   5.304   3.106
 1929TIP3    H2 5794   5.635   5.277   3.123
 1930TIP3   OH2 5795   3.804   4.864   0.205
 1930TIP3    H1 5796   3.846   4.937   0.161
 1930TIP3    H2 5797   3.854   4.787   0.178
 1931TIP3   OH2 5798   4.583   4.436   1.701
 1931TIP3    H1 5799   4.675   4.464   1.705
 1931TIP3    H2 5800   4.565   4.429   1.607
 1932TIP3   OH2 5801   4.053   0.773   1.711
 1932TIP3    H1 5802   4.078   0.759   1.620
 1932TIP3    H2 5803   3.985   0.841   1.706
 1933TIP3   OH2 5804   0.715   0.820   4.075
 1933TIP3    H1 5805   0.743   0.875   4.002
 1933TIP3    H2 5806   0.766   0.740   4.067
 1934TIP3   OH2 5807   3.068   4.308   2.789
 1934TIP3    H1 5808   3.065   4.344   2.877
 1934TIP3    H2 5809   3.030   4.376   2.734
 1935TIP3   OH2 5810   1.628   1.822   1.039
 1935TIP3    H1 5811   1.566   1.749   1.034
 1935TIP3    H2 5812   1.703   1.786   1.084
 1936TIP3   OH2 5813   2.854   0.772   4.765
 1936TIP3    H1 5814   2.848   0.689   4.812
 1936TIP3    H2 5815   2.947   0.783   4.748
 1937TIP3   OH2 5816   5.883   1.566   0.237
 1937TIP3    H1 5817   5.926   1.606   0.312
 1937TIP3    H2 5818   5.903   1.624   0.164
 1938TIP3   OH2 5819   5.426   4.730   2.966
 1938TIP3    H1 5820   5.454   4.662   3.027
 1938TIP3    H2 5821   5.447   4.813   3.009
 1939TIP3   OH2 5822   6.098   5.649   0.312
 1939TIP3    H1 5823   6.097   5.555   0.294
 1939TIP3    H2 5824   6.161   5.659   0.383
 1940TIP3   OH2 5825   4.710   1.426   2.643
 1940TIP3    H1 5826   4.675   1.377   2.569
 1940TIP3    H2 5827   4.805   1.417   2.636
 1941TIP3   OH2 5828   0.485   2.481   1.037
 1941TIP3    H1 5829   0.577   2.467   1.060
 1941TIP3    H2 5830   0.459   2.557   1.089
 1942TIP3   OH2 5831   0.683   2.369   2.286
 1942TIP3    H1 5832   0.760   2.319   2.260
 1942TIP3    H2 5833   0.717   2.454   2.312
 1943TIP3   OH2 5834   3.644   2.994   5.071
 1943TIP3    H1 5835   3.562   2.945   5.062
 1943TIP3    H2 5836   3.711   2.926   5.075
 1944TIP3   OH2 5837   0.389   5.104   1.616
 1944TIP3    H1 5838   0.378   5.112   1.521
 1944TIP3    H2 5839   0.384   5.010   1.633
 1945TIP3   OH2 5840   0.759   5.266   1.476
 1945TIP3    H1 5841   0.733   5.280   1.385
 1945TIP3    H2 5842   0.848   5.230   1.470
 1946TIP3   OH2 5843   2.438   3.039   3.969
 1946TIP3    H1 5844   2.471   2.954   3.941
 1946TIP3    H2 5845   2.378   3.020   4.041
 1947TIP3   OH2 5846   0.557   2.321   0.822
 1947TIP3    H1 5847   0.543   2.355   0.910
 1947TIP3    H2 5848   0.494   2.369   0.767
 1948TIP3   OH2 5849   6.320   5.105   3.256
 1948TIP3    H1 5850   6.278   5.173   3.204
 1948TIP3    H2 5851   6.286   5.023   3.221
 1949TIP3   OH2 5852   0.384   5.143   2.935
 1949TIP3    H1 5853   0.310   5.192   2.972
 1949TIP3    H2 5854   0.413   5.087   3.007
 1950TIP3   OH2 5855   5.617   5.969   2.994
 1950TIP3    H1 5856   5.637   6.029   2.923
 1950TIP3    H2 5857   5.563   5.901   2.954
 1951TIP3   OH2 5858   0.519   5.197   3.224
 1951TIP3    H1 5859   0.556   5.270   3.175
 1951TIP3    H2 5860   0.428   5.222   3.239
 1952TIP3   OH2 5861   1.305   2.595   0.721
 1952TIP3    H1 5862   1.294   2.516   0.668
 1952TIP3    H2 5863   1.321   2.665   0.657
 1953TIP3   OH2 5864   6.167   0.164   5.097
 1953TIP3    H1 5865   6.141   0.246   5.138
 1953TIP3    H2 5866   6.118   0.096   5.144
 1954TIP3   OH2 5867   0.337   4.583   2.368
 1954TIP3    H1 5868   0.409   4.535   2.408
 1954TIP3    H2 5869   0.356   4.582   2.275
 1955TIP3   OH2 5870   1.321   4.545   0.476
 1955TIP3    H1 5871   1.304   4.498   0.558
 1955TIP3    H2 5872   1.404   4.508   0.446
 1956TIP3   OH2 5873   2.505   0.512   3.217
 1956TIP3    H1 5874   2.435   0.521   3.153
 1956TIP3    H2 5875   2.527   0.602   3.241
 1957TIP3   OH2 5876   0.271   1.198   5.169
 1957TIP3    H1 5877   0.259   1.146   5.089
 1957TIP3    H2 5878   0.183   1.204   5.206
 1958TIP3   OH2 5879   0.832   4.172   4.922
 1958TIP3    H1 5880   0.763   4.180   4.988
 1958TIP3    H2 5881   0.864   4.261   4.910
 1959TIP3   OH2 5882   2.478   4.639   0.312
 1959TIP3    H1 5883   2.408   4.651   0.376
 1959TIP3    H2 5884   2.483   4.545   0.298
 1960TIP3   OH2 5885   5.333   3.459   2.049
 1960TIP3    H1 5886   5.314   3.372   2.084
 1960TIP3    H2 5887   5.397   3.495   2.109
 1961TIP3   OH2 5888   4.286   1.399   4.657
 1961TIP3    H1 5889   4.304   1.310   4.624
 1961TIP3    H2 5890   4.372   1.441   4.660
 1962TIP3   OH2 5891   0.460   1.319   2.164
 1962TIP3    H1 5892   0.555   1.314   2.174
 1962TIP3    H2 5893   0.426   1.266   2.236
 1963TIP3   OH2 5894   3.426   4.291   2.319
 1963TIP3    H1 5895   3.379   4.254   2.394
 1963TIP3    H2 5896   3.357   4.329   2.265
 1964TIP3   OH2 5897   2.322   0.018   4.415
 1964TIP3    H1 5898   2.336   0.113   4.425
 1964TIP3    H2 5899   2.388  -0.009   4.351
 1965TIP3   OH2 5900   3.081   2.291   4.706
 1965TIP3    H1 5901   2.991   2.287   4.738
 1965TIP3    H2 5902   3.129   2.334   4.776
 1966TIP3   OH2 5903   0.009   2.977   2.592
 1966TIP3    H1 5904  -0.077   2.936   2.598
 1966TIP3    H2 5905   0.059   2.918   2.536
 1967TIP3   OH2 5906   2.716   4.573   3.774
 1967TIP3    H1 5907   2.698   4.592   3.682
 1967TIP3    H2 5908   2.656   4.630   3.823
 1968TIP3   OH2 5909   1.539   1.064   1.812
 1968TIP3    H1 5910   1.537   1.024   1.725
 1968TIP3    H2 5911   1.568   0.993   1.870
 1969TIP3   OH2 5912   1.205   2.309   2.459
 1969TIP3    H1 5913   1.236   2.234   2.409
 1969TIP3    H2 5914   1.281   2.337   2.510
 1970TIP3   OH2 5915   0.869   5.197   3.974
 1970TIP3    H1 5916   0.850   5.291   3.970
 1970TIP3    H2 5917   0.960   5.190   3.943
 1971TIP3   OH2 5918   3.884   2.380   0.366
 1971TIP3    H1 5919   3.802   2.351   0.327
 1971TIP3    H2 5920   3.871   2.370   0.461
 1972TIP3   OH2 5921   3.214   1.020   0.417
 1972TIP3    H1 5922   3.273   0.997   0.345
 1972TIP3    H2 5923   3.132   0.975   0.395
 1973TIP3   OH2 5924   1.710   5.772   4.063
 1973TIP3    H1 5925   1.747   5.781   4.151
 1973TIP3    H2 5926   1.738   5.685   4.035
 1974TIP3   OH2 5927   2.632   1.963   0.940
 1974TIP3    H1 5928   2.618   2.057   0.949
 1974TIP3    H2 5929   2.719   1.957   0.900
 1975TIP3   OH2 5930   2.300   2.406   3.229
 1975TIP3    H1 5931   2.243   2.337   3.260
 1975TIP3    H2 5932   2.248   2.486   3.238
 1976TIP3   OH2 5933   2.087   5.166   3.628
 1976TIP3    H1 5934   2.080   5.254   3.592
 1976TIP3    H2 5935   2.057   5.175   3.719
 1977TIP3   OH2 5936   3.281   1.289   3.047
 1977TIP3    H1 5937   3.240   1.276   3.132
 1977TIP3    H2 5938   3.303   1.382   3.045
 1978TIP3   OH2 5939   1.290   0.442   1.638
 1978TIP3    H1 5940   1.382   0.416   1.624
 1978TIP3    H2 5941   1.251   0.440   1.550
 1979TIP3   OH2 5942   0.235   2.491   4.832
 1979TIP3    H1 5943   0.314   2.452   4.869
 1979TIP3    H2 5944   0.267   2.554   4.768
 1980TIP3   OH2 5945   0.421   5.496   1.295
 1980TIP3    H1 5946   0.334   5.461   1.274
 1980TIP3    H2 5947   0.481   5.422   1.281
 1981TIP3   OH2 5948   0.566   0.514   0.498
 1981TIP3    H1 5949   0.540   0.599   0.464
 1981TIP3    H2 5950   0.503   0.495   0.567
 1982TIP3   OH2 5951   2.855   0.119   1.446
 1982TIP3    H1 5952   2.861   0.025   1.429
 1982TIP3    H2 5953   2.780   0.148   1.394
 1983TIP3   OH2 5954   5.137   0.324   2.435
 1983TIP3    H1 5955   5.140   0.288   2.346
 1983TIP3    H2 5956   5.208   0.388   2.437
 1984TIP3   OH2 5957   5.654   1.755   4.329
 1984TIP3    H1 5958   5.582   1.694   4.312
 1984TIP3    H2 5959   5.720   1.732   4.263
 1985TIP3   OH2 5960   1.021   4.689   3.540
 1985TIP3    H1 5961   0.935   4.695   3.581
 1985TIP3    H2 5962   1.066   4.768   3.569
 1986TIP3   OH2 5963   2.759   4.699   4.297
 1986TIP3    H1 5964   2.842   4.746   4.294
 1986TIP3    H2 5965   2.693   4.768   4.309
 1987TIP3   OH2 5966   4.743   4.149   2.007
 1987TIP3    H1 5967   4.797   4.114   1.936
 1987TIP3    H2 5968   4.710   4.071   2.052
 1988TIP3   OH2 5969   3.874   5.911   2.192
 1988TIP3    H1 5970   3.794   5.863   2.215
 1988TIP3    H2 5971   3.891   5.887   2.101
 1989TIP3   OH2 5972   4.608   1.203   0.556
 1989TIP3    H1 5973   4.552   1.263   0.605
 1989TIP3    H2 5974   4.564   1.118   0.563
 1990TIP3   OH2 5975   1.737   5.919   2.540
 1990TIP3    H1 5976   1.673   5.927   2.469
 1990TIP3    H2 5977   1.742   5.825   2.557
 1991TIP3   OH2 5978   1.488   1.869   4.804
 1991TIP3    H1 5979   1.538   1.944   4.774
 1991TIP3    H2 5980   1.397   1.899   4.804
 1992TIP3   OH2 5981   2.740   1.879   1.229
 1992TIP3    H1 5982   2.827   1.916   1.246
 1992TIP3    H2 5983   2.681   1.954   1.233
 1993TIP3   OH2 5984   2.644   3.744   3.687
 1993TIP3    H1 5985   2.609   3.807   3.750
 1993TIP3    H2 5986   2.665   3.667   3.739
 1994TIP3   OH2 5987   1.608   3.882   0.913
 1994TIP3    H1 5988   1.675   3.949   0.898
 1994TIP3    H2 5989   1.627   3.849   1.001
 1995TIP3   OH2 5990   5.608   1.714   3.655
 1995TIP3    H1 5991   5.543   1.726   3.724
 1995TIP3    H2 5992   5.616   1.619   3.646
 1996TIP3   OH2 5993   3.033   3.483   0.342
 1996TIP3    H1 5994   3.078   3.399   0.350
 1996TIP3    H2 5995   3.001   3.501   0.430
 1997TIP3   OH2 5996   4.267   1.126   0.356
 1997TIP3    H1 5997   4.289   1.212   0.393
 1997TIP3    H2 5998   4.209   1.086   0.421
 1998TIP3   OH2 5999   5.099   5.715   3.190
 1998TIP3    H1 6000   5.122   5.741   3.101
 1998TIP3    H2 6001   5.003   5.712   3.190
 1999TIP3   OH2 6002   4.024   2.235   2.961
 1999TIP3    H1 6003   4.102   2.202   2.917
 1999TIP3    H2 6004   3.993   2.306   2.905
 2000TIP3   OH2 6005   6.104   4.424   2.948
 2000TIP3    H1 6006   6.084   4.510   2.912
 2000TIP3    H2 6007   6.069   4.427   3.037
 2001TIP3   OH2 6008   2.096   5.521   2.018
 2001TIP3    H1 6009   2.177   5.476   2.043
 2001TIP3    H2 6010   2.085   5.589   2.083
 2002TIP3   OH2 6011   5.901   1.757   2.827
 2002TIP3    H1 6012   5.923   1.738   2.918
 2002TIP3    H2 6013   5.822   1.811   2.832
 2003TIP3   OH2 6014   3.178   4.927   1.389
 2003TIP3    H1 6015   3.273   4.930   1.385
 2003TIP3    H2 6016   3.159   4.909   1.481
 2004TIP3   OH2 6017   0.747   2.732   1.724
 2004TIP3    H1 6018   0.800   2.805   1.691
 2004TIP3    H2 6019   0.657   2.764   1.721
 2005TIP3   OH2 6020   6.321   0.927   2.086
 2005TIP3    H1 6021   6.248   0.888   2.134
 2005TIP3    H2 6022   6.394   0.925   2.149
 2006TIP3   OH2 6023   0.246   0.171   3.658
 2006TIP3    H1 6024   0.229   0.191   3.566
 2006TIP3    H2 6025   0.162   0.183   3.702
 2007TIP3   OH2 6026   3.361   2.721   0.477
 2007TIP3    H1 6027   3.421   2.790   0.451
 2007TIP3    H2 6028   3.415   2.659   0.526
 2008TIP3   OH2 6029   2.557   1.271  -0.012
 2008TIP3    H1 6030   2.521   1.342   0.041
 2008TIP3    H2 6031   2.586   1.206   0.052
 2009TIP3   OH2 6032   3.541   3.742   1.084
 2009TIP3    H1 6033   3.606   3.676   1.060
 2009TIP3    H2 6034   3.522   3.788   1.002
 2010TIP3   OH2 6035   6.313   4.864   4.820
 2010TIP3    H1 6036   6.299   4.954   4.791
 2010TIP3    H2 6037   6.348   4.819   4.743
 2011TIP3   OH2 6038   3.209   4.740   4.734
 2011TIP3    H1 6039   3.114   4.742   4.751
 2011TIP3    H2 6040   3.220   4.793   4.655
 2012TIP3   OH2 6041   4.473   3.856   4.817
 2012TIP3    H1 6042   4.453   3.885   4.906
 2012TIP3    H2 6043   4.419   3.778   4.805
 2013TIP3   OH2 6044   6.139   2.769   0.398
 2013TIP3    H1 6045   6.118   2.814   0.316
 2013TIP3    H2 6046   6.079   2.807   0.462
 2014TIP3   OH2 6047   5.073   4.015   4.831
 2014TIP3    H1 6048   5.039   3.998   4.743
 2014TIP3    H2 6049   5.047   3.939   4.882
 2015TIP3   OH2 6050   3.690   4.791   4.526
 2015TIP3    H1 6051   3.732   4.706   4.533
 2015TIP3    H2 6052   3.676   4.804   4.432
 2016TIP3   OH2 6053   0.070   2.426   0.531
 2016TIP3    H1 6054   0.063   2.431   0.626
 2016TIP3    H2 6055   0.050   2.335   0.510
 2017TIP3   OH2 6056   5.047   4.507   0.246
 2017TIP3    H1 6057   4.974   4.548   0.199
 2017TIP3    H2 6058   5.048   4.417   0.215
 2018TIP3   OH2 6059   2.020   4.939   4.715
 2018TIP3    H1 6060   2.082   4.940   4.787
 2018TIP3    H2 6061   2.042   5.017   4.663
 2019TIP3   OH2 6062   2.249   4.799   3.025
 2019TIP3    H1 6063   2.260   4.883   2.979
 2019TIP3    H2 6064   2.244   4.734   2.955
 2020TIP3   OH2 6065   4.126   1.712   1.837
 2020TIP3    H1 6066   4.139   1.779   1.904
 2020TIP3    H2 6067   4.106   1.762   1.757
 2021TIP3   OH2 6068   1.952   4.235   0.989
 2021TIP3    H1 6069   1.925   4.179   1.062
 2021TIP3    H2 6070   1.885   4.304   0.986
 2022TIP3   OH2 6071   1.945   5.557   3.794
 2022TIP3    H1 6072   1.983   5.630   3.745
 2022TIP3    H2 6073   1.907   5.501   3.727
 2023TIP3   OH2 6074   6.074   4.701   0.830
 2023TIP3    H1 6075   6.120   4.622   0.801
 2023TIP3    H2 6076   6.141   4.754   0.872
 2024TIP3   OH2 6077   3.071   3.474   1.060
 2024TIP3    H1 6078   2.991   3.428   1.037
 2024TIP3    H2 6079   3.142   3.416   1.031
 2025TIP3   OH2 6080   0.584   2.605   2.864
 2025TIP3    H1 6081   0.593   2.510   2.858
 2025TIP3    H2 6082   0.503   2.619   2.913
 2026TIP3   OH2 6083   1.060   0.369   0.406
 2026TIP3    H1 6084   1.003   0.431   0.453
 2026TIP3    H2 6085   1.022   0.363   0.319
 2027TIP3   OH2 6086   2.529   5.982   2.429
 2027TIP3    H1 6087   2.462   5.978   2.361
 2027TIP3    H2 6088   2.612   5.976   2.382
 2028TIP3   OH2 6089   2.928   0.606   0.292
 2028TIP3    H1 6090   2.835   0.583   0.297
 2028TIP3    H2 6091   2.973   0.536   0.340
 2029TIP3   OH2 6092   5.784   2.086   0.089
 2029TIP3    H1 6093   5.712   2.067   0.029
 2029TIP3    H2 6094   5.759   2.169   0.131
 2030TIP3   OH2 6095   5.385   0.408   4.739
 2030TIP3    H1 6096   5.372   0.443   4.650
 2030TIP3    H2 6097   5.305   0.434   4.786
 2031TIP3   OH2 6098   2.940   4.854   4.164
 2031TIP3    H1 6099   3.032   4.874   4.147
 2031TIP3    H2 6100   2.912   4.804   4.087
 2032TIP3   OH2 6101   4.283   5.514   0.547
 2032TIP3    H1 6102   4.269   5.476   0.460
 2032TIP3    H2 6103   4.216   5.581   0.555
 2033TIP3   OH2 6104   4.384   5.013   3.497
 2033TIP3    H1 6105   4.457   5.057   3.454
 2033TIP3    H2 6106   4.344   5.081   3.551
 2034TIP3   OH2 6107   6.041   0.527   3.970
 2034TIP3    H1 6108   5.977   0.585   4.012
 2034TIP3    H2 6109   6.077   0.475   4.042
 2035TIP3   OH2 6110   3.395   2.401   3.342
 2035TIP3    H1 6111   3.422   2.410   3.250
 2035TIP3    H2 6112   3.315   2.453   3.349
 2036TIP3   OH2 6113   4.157   1.869   1.597
 2036TIP3    H1 6114   4.159   1.840   1.505
 2036TIP3    H2 6115   4.247   1.858   1.627
 2037TIP3   OH2 6116   2.620   2.036   4.866
 2037TIP3    H1 6117   2.627   2.088   4.786
 2037TIP3    H2 6118   2.539   2.066   4.907
 2038TIP3   OH2 6119   3.589   0.404   1.360
 2038TIP3    H1 6120   3.495   0.402   1.380
 2038TIP3    H2 6121   3.612   0.497   1.359
 2039TIP3   OH2 6122   5.651   1.452   0.310
 2039TIP3    H1 6123   5.684   1.539   0.285
 2039TIP3    H2 6124   5.729   1.403   0.334
 2040TIP3   OH2 6125   3.985   6.052   1.636
 2040TIP3    H1 6126   4.017   5.979   1.583
 2040TIP3    H2 6127   3.903   6.078   1.594
 2041TIP3   OH2 6128   0.707   1.261   1.514
 2041TIP3    H1 6129   0.750   1.179   1.488
 2041TIP3    H2 6130   0.688   1.249   1.607
 2042TIP3   OH2 6131   0.811   0.204   2.075
 2042TIP3    H1 6132   0.831   0.285   2.121
 2042TIP3    H2 6133   0.760   0.231   1.999
 2043TIP3   OH2 6134   0.199   2.393   3.911
 2043TIP3    H1 6135   0.271   2.447   3.879
 2043TIP3    H2 6136   0.232   2.356   3.993
 2044TIP3   OH2 6137   2.735   4.267   4.160
 2044TIP3    H1 6138   2.745   4.350   4.207
 2044TIP3    H2 6139   2.678   4.288   4.086
 2045TIP3   OH2 6140   3.921   0.029   2.076
 2045TIP3    H1 6141   3.977   0.035   1.999
 2045TIP3    H2 6142   3.910  -0.065   2.091
 2046TIP3   OH2 6143   4.540   4.988   4.256
 2046TIP3    H1 6144   4.563   5.050   4.187
 2046TIP3    H2 6145   4.552   5.037   4.338
 2047TIP3   OH2 6146   5.205   5.261   0.449
 2047TIP3    H1 6147   5.144   5.291   0.517
 2047TIP3    H2 6148   5.249   5.341   0.420
 2048TIP3   OH2 6149   2.202   0.347   2.496
 2048TIP3    H1 6150   2.292   0.365   2.469
 2048TIP3    H2 6151   2.151   0.356   2.416
 2049TIP3   OH2 6152   2.659   2.896   2.276
 2049TIP3    H1 6153   2.635   2.877   2.367
 2049TIP3    H2 6154   2.600   2.842   2.224
 2050TIP3   OH2 6155   1.869   2.782   5.038
 2050TIP3    H1 6156   1.791   2.836   5.051
 2050TIP3    H2 6157   1.841   2.694   5.060
 2051TIP3   OH2 6158   5.396   3.616   3.069
 2051TIP3    H1 6159   5.399   3.530   3.109
 2051TIP3    H2 6160   5.303   3.632   3.053
 2052TIP3   OH2 6161   5.632   5.089   3.770
 2052TIP3    H1 6162   5.719   5.091   3.730
 2052TIP3    H2 6163   5.573   5.070   3.697
 2053TIP3   OH2 6164   4.246   5.134   3.108
 2053TIP3    H1 6165   4.238   5.153   3.015
 2053TIP3    H2 6166   4.337   5.156   3.128
 2054TIP3   OH2 6167   3.700   4.858   3.484
 2054TIP3    H1 6168   3.707   4.951   3.463
 2054TIP3    H2 6169   3.784   4.821   3.455
 2055TIP3   OH2 6170   5.276   5.143   1.195
 2055TIP3    H1 6171   5.259   5.193   1.115
 2055TIP3    H2 6172   5.268   5.207   1.266
 2056TIP3   OH2 6173   0.940   1.351   2.767
 2056TIP3    H1 6174   0.944   1.444   2.789
 2056TIP3    H2 6175   0.947   1.306   2.851
 2057TIP3   OH2 6176   6.247   4.002   3.858
 2057TIP3    H1 6177   6.311   4.072   3.872
 2057TIP3    H2 6178   6.260   3.975   3.767
 2058TIP3   OH2 6179   0.234   5.453   4.042
 2058TIP3    H1 6180   0.195   5.538   4.021
 2058TIP3    H2 6181   0.161   5.401   4.075
 2059TIP3   OH2 6182   1.212   1.439   4.093
 2059TIP3    H1 6183   1.228   1.369   4.029
 2059TIP3    H2 6184   1.172   1.395   4.168
 2060TIP3   OH2 6185   2.687   3.839   1.512
 2060TIP3    H1 6186   2.656   3.890   1.437
 2060TIP3    H2 6187   2.770   3.880   1.536
 2061TIP3   OH2 6188   1.278   4.108   1.810
 2061TIP3    H1 6189   1.373   4.106   1.808
 2061TIP3    H2 6190   1.256   4.198   1.835
 2062TIP3   OH2 6191   3.208   1.939   0.297
 2062TIP3    H1 6192   3.262   2.003   0.344
 2062TIP3    H2 6193   3.130   1.988   0.271
 2063TIP3   OH2 6194   0.302   2.578   1.752
 2063TIP3    H1 6195   0.334   2.653   1.803
 2063TIP3    H2 6196   0.341   2.589   1.666
 2064TIP3   OH2 6197   2.312   3.890   5.054
 2064TIP3    H1 6198   2.243   3.830   5.024
 2064TIP3    H2 6199   2.272   3.977   5.046
 2065TIP3   OH2 6200   4.424   1.785   1.448
 2065TIP3    H1 6201   4.412   1.692   1.465
 2065TIP3    H2 6202   4.451   1.789   1.356
 2066TIP3   OH2 6203   6.169   0.705   3.231
 2066TIP3    H1 6204   6.255   0.748   3.224
 2066TIP3    H2 6205   6.138   0.699   3.140
 2067TIP3   OH2 6206   4.776   5.988   3.770
 2067TIP3    H1 6207   4.786   5.917   3.833
 2067TIP3    H2 6208   4.833   5.964   3.697
 2068TIP3   OH2 6209   5.125   0.884   0.340
 2068TIP3    H1 6210   5.110   0.921   0.254
 2068TIP3    H2 6211   5.100   0.791   0.331
 2069TIP3   OH2 6212   2.358   3.199   1.958
 2069TIP3    H1 6213   2.279   3.208   1.904
 2069TIP3    H2 6214   2.429   3.194   1.894
 2070TIP3   OH2 6215   4.431   4.896   1.076
 2070TIP3    H1 6216   4.470   4.834   1.138
 2070TIP3    H2 6217   4.485   4.974   1.083
 2071TIP3   OH2 6218   6.130   5.684   0.669
 2071TIP3    H1 6219   6.109   5.591   0.674
 2071TIP3    H2 6220   6.208   5.688   0.615
 2072TIP3   OH2 6221   0.533   2.728   0.744
 2072TIP3    H1 6222   0.572   2.661   0.799
 2072TIP3    H2 6223   0.459   2.761   0.794
 2073TIP3   OH2 6224   5.467   5.168   0.150
 2073TIP3    H1 6225   5.554   5.207   0.152
 2073TIP3    H2 6226   5.438   5.178   0.060
 2074TIP3   OH2 6227   0.152   4.830   1.173
 2074TIP3    H1 6228   0.156   4.767   1.245
 2074TIP3    H2 6229   0.242   4.860   1.163
 2075TIP3   OH2 6230   2.659   5.371   1.451
 2075TIP3    H1 6231   2.573   5.350   1.415
 2075TIP3    H2 6232   2.717   5.373   1.375
 2076TIP3   OH2 6233   5.595   5.886   4.078
 2076TIP3    H1 6234   5.548   5.906   4.159
 2076TIP3    H2 6235   5.582   5.964   4.023
 2077TIP3   OH2 6236   0.916   4.504   4.514
 2077TIP3    H1 6237   0.845   4.563   4.541
 2077TIP3    H2 6238   0.904   4.426   4.568
 2078TIP3   OH2 6239   3.098   2.999   3.484
 2078TIP3    H1 6240   3.165   2.938   3.454
 2078TIP3    H2 6241   3.137   3.086   3.473
 2079TIP3   OH2 6242   5.808   1.333   1.188
 2079TIP3    H1 6243   5.863   1.372   1.120
 2079TIP3    H2 6244   5.855   1.349   1.270
 2080TIP3   OH2 6245   5.440   0.741   5.004
 2080TIP3    H1 6246   5.447   0.805   5.075
 2080TIP3    H2 6247   5.413   0.792   4.928
 2081TIP3   OH2 6248   4.107   4.053   4.225
 2081TIP3    H1 6249   4.083   3.965   4.254
 2081TIP3    H2 6250   4.196   4.043   4.190
 2082TIP3   OH2 6251   0.444   0.387   1.645
 2082TIP3    H1 6252   0.360   0.433   1.640
 2082TIP3    H2 6253   0.475   0.404   1.734
 2083TIP3   OH2 6254   0.124   0.797   3.202
 2083TIP3    H1 6255   0.177   0.740   3.147
 2083TIP3    H2 6256   0.177   0.876   3.214
 2084TIP3   OH2 6257   5.489   4.453   5.056
 2084TIP3    H1 6258   5.474   4.359   5.065
 2084TIP3    H2 6259   5.532   4.462   4.971
 2085TIP3   OH2 6260   0.767   3.925   2.868
 2085TIP3    H1 6261   0.703   3.964   2.927
 2085TIP3    H2 6262   0.747   3.832   2.868
 2086TIP3   OH2 6263   6.130   4.319   0.181
 2086TIP3    H1 6264   6.204   4.294   0.236
 2086TIP3    H2 6265   6.058   4.334   0.242
 2087TIP3   OH2 6266   6.343   2.085   1.041
 2087TIP3    H1 6267   6.349   2.009   1.098
 2087TIP3    H2 6268   6.258   2.124   1.061
 2088TIP3   OH2 6269   2.263   0.603   1.177
 2088TIP3    H1 6270   2.276   0.570   1.266
 2088TIP3    H2 6271   2.171   0.585   1.158
 2089TIP3   OH2 6272   0.286   3.041   0.478
 2089TIP3    H1 6273   0.211   3.002   0.523
 2089TIP3    H2 6274   0.353   2.972   0.481
 2090TIP3   OH2 6275   4.465   0.794   3.524
 2090TIP3    H1 6276   4.544   0.761   3.481
 2090TIP3    H2 6277   4.415   0.716   3.545
 2091TIP3   OH2 6278   5.828   0.898   2.876
 2091TIP3    H1 6279   5.787   0.937   2.953
 2091TIP3    H2 6280   5.835   0.970   2.814
 2092TIP3   OH2 6281   1.944   2.063   1.569
 2092TIP3    H1 6282   1.913   1.977   1.596
 2092TIP3    H2 6283   1.873   2.123   1.594
 2093TIP3   OH2 6284   0.262   2.231   0.439
 2093TIP3    H1 6285   0.255   2.326   0.447
 2093TIP3    H2 6286   0.313   2.203   0.515
 2094TIP3   OH2 6287   4.346   4.606   1.618
 2094TIP3    H1 6288   4.322   4.514   1.613
 2094TIP3    H2 6289   4.342   4.637   1.527
 2095TIP3   OH2 6290   2.033   3.473   1.816
 2095TIP3    H1 6291   1.959   3.533   1.817
 2095TIP3    H2 6292   2.110   3.528   1.830
 2096TIP3   OH2 6293   3.170   5.266   0.419
 2096TIP3    H1 6294   3.094   5.239   0.367
 2096TIP3    H2 6295   3.186   5.192   0.478
 2097TIP3   OH2 6296   3.358   4.778   4.485
 2097TIP3    H1 6297   3.448   4.750   4.469
 2097TIP3    H2 6298   3.312   4.754   4.404
 2098TIP3   OH2 6299   2.380   0.609   5.142
 2098TIP3    H1 6300   2.441   0.551   5.187
 2098TIP3    H2 6301   2.436   0.676   5.101
 2099TIP3   OH2 6302   2.051   1.987   1.848
 2099TIP3    H1 6303   1.960   1.969   1.825
 2099TIP3    H2 6304   2.053   2.080   1.867
 2100TIP3   OH2 6305   0.934   5.842   2.013
 2100TIP3    H1 6306   0.968   5.764   1.970
 2100TIP3    H2 6307   0.894   5.809   2.093
 2101TIP3   OH2 6308   0.944   2.241   1.417
 2101TIP3    H1 6309   0.854   2.273   1.415
 2101TIP3    H2 6310   0.995   2.309   1.374
 2102TIP3   OH2 6311   2.875   2.112   2.518
 2102TIP3    H1 6312   2.894   2.018   2.516
 2102TIP3    H2 6313   2.830   2.126   2.602
 2103TIP3   OH2 6314   5.701   4.747   2.050
 2103TIP3    H1 6315   5.615   4.717   2.081
 2103TIP3    H2 6316   5.763   4.681   2.084
 2104TIP3   OH2 6317   4.197   2.321   2.430
 2104TIP3    H1 6318   4.274   2.352   2.381
 2104TIP3    H2 6319   4.197   2.226   2.417
 2105TIP3   OH2 6320   6.110   0.324   1.618
 2105TIP3    H1 6321   6.147   0.393   1.673
 2105TIP3    H2 6322   6.151   0.243   1.648
 2106TIP3   OH2 6323   1.286   5.136   3.656
 2106TIP3    H1 6324   1.282   5.044   3.682
 2106TIP3    H2 6325   1.236   5.183   3.723
 2107TIP3   OH2 6326   1.001   2.807   0.987
 2107TIP3    H1 6327   0.993   2.787   1.080
 2107TIP3    H2 6328   1.088   2.848   0.978
 2108TIP3   OH2 6329   0.208   2.157   3.627
 2108TIP3    H1 6330   0.173   2.068   3.617
 2108TIP3    H2 6331   0.144   2.213   3.583
 2109TIP3   OH2 6332   1.429   3.531   2.982
 2109TIP3    H1 6333   1.435   3.622   3.010
 2109TIP3    H2 6334   1.380   3.487   3.053
 2110TIP3   OH2 6335   2.832   3.178   3.219
 2110TIP3    H1 6336   2.764   3.229   3.174
 2110TIP3    H2 6337   2.912   3.197   3.170
 2111TIP3   OH2 6338   5.191   5.018   2.708
 2111TIP3    H1 6339   5.182   4.974   2.793
 2111TIP3    H2 6340   5.268   4.978   2.668
 2112TIP3   OH2 6341   4.216   5.662   1.147
 2112TIP3    H1 6342   4.205   5.757   1.151
 2112TIP3    H2 6343   4.292   5.644   1.202
 2113TIP3   OH2 6344   0.487   3.311   3.823
 2113TIP3    H1 6345   0.492   3.219   3.849
 2113TIP3    H2 6346   0.574   3.332   3.789
 2114TIP3   OH2 6347   0.901   1.097   2.645
 2114TIP3    H1 6348   0.915   1.188   2.673
 2114TIP3    H2 6349   0.813   1.076   2.675
 2115TIP3   OH2 6350   1.978   1.909   1.282
 2115TIP3    H1 6351   1.915   1.845   1.313
 2115TIP3    H2 6352   2.048   1.908   1.346
 2116TIP3   OH2 6353   0.810   0.128   2.752
 2116TIP3    H1 6354   0.872   0.161   2.687
 2116TIP3    H2 6355   0.856   0.138   2.835
 2117TIP3   OH2 6356   1.291   0.450   1.127
 2117TIP3    H1 6357   1.340   0.453   1.044
 2117TIP3    H2 6358   1.303   0.536   1.165
 2118TIP3   OH2 6359   2.115   5.411   1.782
 2118TIP3    H1 6360   2.078   5.323   1.789
 2118TIP3    H2 6361   2.083   5.457   1.859
 2119TIP3   OH2 6362   0.464   4.409   1.451
 2119TIP3    H1 6363   0.421   4.324   1.437
 2119TIP3    H2 6364   0.480   4.413   1.545
 2120TIP3   OH2 6365   3.400   1.214   0.592
 2120TIP3    H1 6366   3.455   1.163   0.533
 2120TIP3    H2 6367   3.311   1.186   0.572
 2121TIP3   OH2 6368   1.740   1.058   3.224
 2121TIP3    H1 6369   1.797   1.115   3.173
 2121TIP3    H2 6370   1.800   0.993   3.262
 2122TIP3   OH2 6371   2.745   0.576   4.933
 2122TIP3    H1 6372   2.702   0.520   4.868
 2122TIP3    H2 6373   2.728   0.533   5.017
 2123TIP3   OH2 6374   4.353   2.264   1.397
 2123TIP3    H1 6375   4.427   2.303   1.442
 2123TIP3    H2 6376   4.277   2.289   1.449
 2124TIP3   OH2 6377   1.992   2.602   2.744
 2124TIP3    H1 6378   1.979   2.601   2.649
 2124TIP3    H2 6379   1.954   2.519   2.774
 2125TIP3   OH2 6380   1.384   2.362   2.241
 2125TIP3    H1 6381   1.384   2.272   2.274
 2125TIP3    H2 6382   1.473   2.393   2.257
 2126TIP3   OH2 6383   3.425   5.144   3.085
 2126TIP3    H1 6384   3.462   5.218   3.133
 2126TIP3    H2 6385   3.499   5.107   3.037
 2127TIP3   OH2 6386   0.953   0.819   3.238
 2127TIP3    H1 6387   0.891   0.754   3.205
 2127TIP3    H2 6388   1.034   0.769   3.252
 2128TIP3   OH2 6389   0.069   4.030   2.224
 2128TIP3    H1 6390  -0.005   4.023   2.164
 2128TIP3    H2 6391   0.044   3.977   2.300
 2129TIP3   OH2 6392   1.129   0.103   2.819
 2129TIP3    H1 6393   1.166   0.190   2.811
 2129TIP3    H2 6394   1.160   0.056   2.741
 2130TIP3   OH2 6395   2.462   2.628   3.641
 2130TIP3    H1 6396   2.508   2.563   3.588
 2130TIP3    H2 6397   2.393   2.578   3.685
 2131TIP3   OH2 6398   1.183   3.136   2.395
 2131TIP3    H1 6399   1.105   3.118   2.342
 2131TIP3    H2 6400   1.240   3.061   2.381
 2132TIP3   OH2 6401   6.107   1.230   0.921
 2132TIP3    H1 6402   6.064   1.149   0.893
 2132TIP3    H2 6403   6.178   1.242   0.859
 2133TIP3   OH2 6404   1.939   5.038   0.857
 2133TIP3    H1 6405   1.991   5.110   0.893
 2133TIP3    H2 6406   1.865   5.081   0.815
 2134TIP3   OH2 6407   0.406   2.534   3.070
 2134TIP3    H1 6408   0.353   2.480   3.012
 2134TIP3    H2 6409   0.405   2.488   3.154
 2135TIP3   OH2 6410   3.711   5.068   4.327
 2135TIP3    H1 6411   3.674   5.001   4.270
 2135TIP3    H2 6412   3.801   5.078   4.298
 2136TIP3   OH2 6413   4.620   0.672   2.065
 2136TIP3    H1 6414   4.646   0.585   2.033
 2136TIP3    H2 6415   4.590   0.719   1.988
 2137TIP3   OH2 6416   3.349   2.484   0.231
 2137TIP3    H1 6417   3.377   2.575   0.225
 2137TIP3    H2 6418   3.431   2.435   0.241
 2138TIP3   OH2 6419   4.374   1.573   3.171
 2138TIP3    H1 6420   4.290   1.561   3.216
 2138TIP3    H2 6421   4.428   1.622   3.234
 2139TIP3   OH2 6422   5.830   3.499   2.474
 2139TIP3    H1 6423   5.840   3.560   2.547
 2139TIP3    H2 6424   5.788   3.422   2.512
 2140TIP3   OH2 6425   0.885   0.560   4.655
 2140TIP3    H1 6426   0.796   0.589   4.672
 2140TIP3    H2 6427   0.877   0.500   4.580
 2141TIP3   OH2 6428   3.743   1.443   3.665
 2141TIP3    H1 6429   3.776   1.436   3.755
 2141TIP3    H2 6430   3.664   1.389   3.664
 2142TIP3   OH2 6431   0.429   2.114   0.085
 2142TIP3    H1 6432   0.470   2.028   0.097
 2142TIP3    H2 6433   0.337   2.100   0.107
 2143TIP3   OH2 6434   0.561   0.967   0.863
 2143TIP3    H1 6435   0.606   1.000   0.786
 2143TIP3    H2 6436   0.631   0.947   0.926
 2144TIP3   OH2 6437   2.173   2.378   0.492
 2144TIP3    H1 6438   2.107   2.317   0.461
 2144TIP3    H2 6439   2.144   2.464   0.461
 2145TIP3   OH2 6440   5.583   4.782   1.238
 2145TIP3    H1 6441   5.588   4.693   1.204
 2145TIP3    H2 6442   5.525   4.828   1.177
 2146TIP3   OH2 6443   3.143   5.272   0.090
 2146TIP3    H1 6444   3.061   5.247   0.046
 2146TIP3    H2 6445   3.197   5.193   0.087
 2147TIP3   OH2 6446   1.245   0.540   4.134
 2147TIP3    H1 6447   1.257   0.631   4.160
 2147TIP3    H2 6448   1.152   0.534   4.111
 2148TIP3   OH2 6449   3.049   0.319   1.339
 2148TIP3    H1 6450   2.986   0.266   1.388
 2148TIP3    H2 6451   2.998   0.355   1.266
 2149TIP3   OH2 6452   6.263   1.557   0.185
 2149TIP3    H1 6453   6.354   1.562   0.216
 2149TIP3    H2 6454   6.221   1.495   0.244
 2150TIP3   OH2 6455   2.856   5.056   2.685
 2150TIP3    H1 6456   2.845   5.027   2.594
 2150TIP3    H2 6457   2.838   5.150   2.682
 2151TIP3   OH2 6458   5.631   1.884   2.879
 2151TIP3    H1 6459   5.582   1.805   2.860
 2151TIP3    H2 6460   5.662   1.872   2.969
 2152TIP3   OH2 6461   3.837   4.689   4.048
 2152TIP3    H1 6462   3.834   4.738   3.966
 2152TIP3    H2 6463   3.931   4.683   4.069
 2153TIP3   OH2 6464   2.850   3.944   0.758
 2153TIP3    H1 6465   2.804   4.004   0.817
 2153TIP3    H2 6466   2.790   3.871   0.745
 2154TIP3   OH2 6467   5.893   1.336   1.472
 2154TIP3    H1 6468   5.900   1.396   1.546
 2154TIP3    H2 6469   5.835   1.267   1.503
 2155TIP3   OH2 6470   4.385   2.094   4.115
 2155TIP3    H1 6471   4.372   2.065   4.025
 2155TIP3    H2 6472   4.398   2.189   4.108
 2156TIP3   OH2 6473   3.166   0.661   3.624
 2156TIP3    H1 6474   3.084   0.705   3.649
 2156TIP3    H2 6475   3.175   0.589   3.686
 2157TIP3   OH2 6476   1.349   5.751   1.612
 2157TIP3    H1 6477   1.415   5.804   1.568
 2157TIP3    H2 6478   1.283   5.733   1.544
 2158TIP3   OH2 6479   3.803   3.561   3.569
 2158TIP3    H1 6480   3.714   3.582   3.542
 2158TIP3    H2 6481   3.842   3.516   3.494
 2159TIP3   OH2 6482   1.940   1.444   3.384
 2159TIP3    H1 6483   1.932   1.417   3.475
 2159TIP3    H2 6484   2.012   1.391   3.349
 2160TIP3   OH2 6485   5.590   5.626   3.940
 2160TIP3    H1 6486   5.670   5.574   3.945
 2160TIP3    H2 6487   5.607   5.701   3.997
 2161TIP3   OH2 6488   1.739   2.643   1.075
 2161TIP3    H1 6489   1.776   2.697   1.005
 2161TIP3    H2 6490   1.813   2.628   1.134
 2162TIP3   OH2 6491   2.530   1.181   4.491
 2162TIP3    H1 6492   2.537   1.275   4.476
 2162TIP3    H2 6493   2.510   1.144   4.404
 2163TIP3   OH2 6494   5.108   0.221   1.560
 2163TIP3    H1 6495   5.183   0.173   1.593
 2163TIP3    H2 6496   5.067   0.161   1.497
 2164TIP3   OH2 6497   2.689   3.994   2.824
 2164TIP3    H1 6498   2.602   3.990   2.863
 2164TIP3    H2 6499   2.732   4.068   2.868
 2165TIP3   OH2 6500   1.475   1.102   3.428
 2165TIP3    H1 6501   1.518   1.164   3.368
 2165TIP3    H2 6502   1.542   1.035   3.444
 2166TIP3   OH2 6503   1.320   2.694   2.730
 2166TIP3    H1 6504   1.379   2.702   2.655
 2166TIP3    H2 6505   1.268   2.774   2.729
 2167TIP3   OH2 6506   3.875   2.599   0.626
 2167TIP3    H1 6507   3.937   2.666   0.657
 2167TIP3    H2 6508   3.803   2.650   0.587
 2168TIP3   OH2 6509   4.924   0.771   1.369
 2168TIP3    H1 6510   4.879   0.849   1.337
 2168TIP3    H2 6511   4.964   0.798   1.451
 2169TIP3   OH2 6512   4.802   2.000   2.088
 2169TIP3    H1 6513   4.857   2.007   2.166
 2169TIP3    H2 6514   4.857   1.953   2.025
 2170TIP3   OH2 6515   5.319   1.144   4.707
 2170TIP3    H1 6516   5.281   1.072   4.657
 2170TIP3    H2 6517   5.278   1.223   4.670
 2171TIP3   OH2 6518   1.740   1.066   2.523
 2171TIP3    H1 6519   1.684   1.040   2.451
 2171TIP3    H2 6520   1.749   1.161   2.513
 2172TIP3   OH2 6521   1.591   5.193   3.194
 2172TIP3    H1 6522   1.531   5.164   3.263
 2172TIP3    H2 6523   1.636   5.269   3.232
 2173TIP3   OH2 6524   0.715   3.795   5.140
 2173TIP3    H1 6525   0.696   3.703   5.122
 2173TIP3    H2 6526   0.659   3.844   5.079
 2174TIP3   OH2 6527   2.062   1.634   1.132
 2174TIP3    H1 6528   1.970   1.658   1.143
 2174TIP3    H2 6529   2.109   1.717   1.145
 2175TIP3   OH2 6530   0.976   2.246   4.132
 2175TIP3    H1 6531   1.048   2.284   4.183
 2175TIP3    H2 6532   0.975   2.297   4.051
 2176TIP3   OH2 6533   3.352   5.684   1.444
 2176TIP3    H1 6534   3.336   5.703   1.352
 2176TIP3    H2 6535   3.276   5.634   1.472
 2177TIP3   OH2 6536   1.009   3.259   3.762
 2177TIP3    H1 6537   0.957   3.329   3.800
 2177TIP3    H2 6538   0.958   3.180   3.775
 2178TIP3   OH2 6539   1.284   4.251   2.151
 2178TIP3    H1 6540   1.363   4.207   2.184
 2178TIP3    H2 6541   1.215   4.225   2.211
 2179TIP3   OH2 6542   5.523   3.173   2.828
 2179TIP3    H1 6543   5.436   3.137   2.815
 2179TIP3    H2 6544   5.556   3.127   2.906
 2180TIP3   OH2 6545   5.929   1.509   2.029
 2180TIP3    H1 6546   5.854   1.527   2.085
 2180TIP3    H2 6547   5.895   1.450   1.962
 2181TIP3   OH2 6548   0.025   5.466   3.708
 2181TIP3    H1 6549   0.074   5.385   3.694
 2181TIP3    H2 6550   0.044   5.519   3.630
 2182TIP3   OH2 6551  -0.019   5.472   2.820
 2182TIP3    H1 6552  -0.028   5.558   2.860
 2182TIP3    H2 6553   0.062   5.477   2.769
 2183TIP3   OH2 6554   0.264   4.946   3.914
 2183TIP3    H1 6555   0.177   4.976   3.888
 2183TIP3    H2 6556   0.295   5.014   3.974
 2184TIP3   OH2 6557   2.026   4.356   3.687
 2184TIP3    H1 6558   1.934   4.331   3.679
 2184TIP3    H2 6559   2.031   4.405   3.769
 2185TIP3   OH2 6560   5.488   3.868   3.999
 2185TIP3    H1 6561   5.527   3.946   3.960
 2185TIP3    H2 6562   5.561   3.805   4.004
 2186TIP3   OH2 6563   5.939   2.601   2.263
 2186TIP3    H1 6564   6.025   2.571   2.233
 2186TIP3    H2 6565   5.905   2.652   2.189
 2187TIP3   OH2 6566   3.309   2.574   3.567
 2187TIP3    H1 6567   3.391   2.619   3.546
 2187TIP3    H2 6568   3.263   2.635   3.624
 2188TIP3   OH2 6569   6.318   4.942   2.522
 2188TIP3    H1 6570   6.351   4.875   2.462
 2188TIP3    H2 6571   6.395   4.967   2.574
 2189TIP3   OH2 6572   2.425   0.865   2.581
 2189TIP3    H1 6573   2.372   0.787   2.597
 2189TIP3    H2 6574   2.496   0.835   2.525
 2190TIP3   OH2 6575   3.901   1.713   0.914
 2190TIP3    H1 6576   3.857   1.758   0.986
 2190TIP3    H2 6577   3.991   1.743   0.918
 2191TIP3   OH2 6578   1.696   5.926  -0.023
 2191TIP3    H1 6579   1.726   5.968   0.058
 2191TIP3    H2 6580   1.628   5.984  -0.056
 2192TIP3   OH2 6581   3.853   1.196   4.884
 2192TIP3    H1 6582   3.905   1.266   4.846
 2192TIP3    H2 6583   3.917   1.130   4.911
 2193TIP3   OH2 6584   1.150   1.549   3.606
 2193TIP3    H1 6585   1.172   1.623   3.550
 2193TIP3    H2 6586   1.218   1.484   3.587
 2194TIP3   OH2 6587   1.986   3.745   1.263
 2194TIP3    H1 6588   1.897   3.724   1.234
 2194TIP3    H2 6589   2.040   3.732   1.185
 2195TIP3   OH2 6590   1.611   3.552   4.392
 2195TIP3    H1 6591   1.521   3.521   4.380
 2195TIP3    H2 6592   1.664   3.472   4.390
 2196TIP3   OH2 6593   3.555   5.455   0.678
 2196TIP3    H1 6594   3.625   5.441   0.742
 2196TIP3    H2 6595   3.561   5.379   0.619
 2197TIP3   OH2 6596   5.866   2.292   5.013
 2197TIP3    H1 6597   5.857   2.305   4.918
 2197TIP3    H2 6598   5.944   2.342   5.036
 2198TIP3   OH2 6599   1.101   3.233   2.927
 2198TIP3    H1 6600   1.076   3.221   2.835
 2198TIP3    H2 6601   1.131   3.323   2.933
 2199TIP3   OH2 6602   3.794   5.248   3.252
 2199TIP3    H1 6603   3.710   5.291   3.235
 2199TIP3    H2 6604   3.839   5.249   3.168
 2200TIP3   OH2 6605   5.813   4.583   5.057
 2200TIP3    H1 6606   5.909   4.580   5.054
 2200TIP3    H2 6607   5.792   4.675   5.066
 2201TIP3   OH2 6608   1.132   4.753   1.646
 2201TIP3    H1 6609   1.206   4.811   1.666
 2201TIP3    H2 6610   1.073   4.806   1.593
 2202TIP3   OH2 6611   1.233   5.883   3.490
 2202TIP3    H1 6612   1.201   5.944   3.424
 2202TIP3    H2 6613   1.179   5.805   3.479
 2203TIP3   OH2 6614   0.905   5.018   3.136
 2203TIP3    H1 6615   0.912   5.106   3.173
 2203TIP3    H2 6616   0.825   4.982   3.174
 2204TIP3   OH2 6617   0.396   5.314   0.372
 2204TIP3    H1 6618   0.388   5.218   0.377
 2204TIP3    H2 6619   0.485   5.332   0.402
 2205TIP3   OH2 6620   3.074   5.857   3.116
 2205TIP3    H1 6621   3.141   5.901   3.168
 2205TIP3    H2 6622   3.084   5.764   3.137
 2206TIP3   OH2 6623   4.005   4.301   1.958
 2206TIP3    H1 6624   4.018   4.367   1.889
 2206TIP3    H2 6625   3.944   4.238   1.919
 2207TIP3   OH2 6626   4.536   0.048   4.542
 2207TIP3    H1 6627   4.564   0.093   4.622
 2207TIP3    H2 6628   4.577  -0.038   4.548
 2208TIP3   OH2 6629   5.181   4.979   1.682
 2208TIP3    H1 6630   5.139   5.034   1.748
 2208TIP3    H2 6631   5.258   4.943   1.725
 2209TIP3   OH2 6632   0.996   3.718   3.773
 2209TIP3    H1 6633   0.913   3.683   3.806
 2209TIP3    H2 6634   1.043   3.641   3.740
 2210TIP3   OH2 6635   4.911   5.177   0.829
 2210TIP3    H1 6636   4.902   5.249   0.890
 2210TIP3    H2 6637   4.850   5.110   0.862
 2211TIP3   OH2 6638   0.637   2.874   5.064
 2211TIP3    H1 6639   0.649   2.941   4.997
 2211TIP3    H2 6640   0.554   2.832   5.041
 2212TIP3   OH2 6641   5.554   5.667   1.773
 2212TIP3    H1 6642   5.646   5.661   1.748
 2212TIP3    H2 6643   5.543   5.757   1.804
 2213TIP3   OH2 6644   2.945   4.686   3.662
 2213TIP3    H1 6645   2.857   4.666   3.628
 2213TIP3    H2 6646   2.982   4.601   3.683
 2214TIP3   OH2 6647   1.736   4.670   1.076
 2214TIP3    H1 6648   1.714   4.618   1.153
 2214TIP3    H2 6649   1.760   4.605   1.010
 2215TIP3   OH2 6650   3.108   4.203   3.518
 2215TIP3    H1 6651   3.070   4.143   3.583
 2215TIP3    H2 6652   3.192   4.228   3.555
 2216TIP3   OH2 6653   1.337   1.334   3.522
 2216TIP3    H1 6654   1.427   1.362   3.505
 2216TIP3    H2 6655   1.341   1.239   3.523
 2217TIP3   OH2 6656   1.647   3.084   4.310
 2217TIP3    H1 6657   1.638   3.157   4.371
 2217TIP3    H2 6658   1.581   3.021   4.339
 2218TIP3   OH2 6659   5.933   1.440   0.955
 2218TIP3    H1 6660   5.958   1.526   0.921
 2218TIP3    H2 6661   6.016   1.394   0.966
 2219TIP3   OH2 6662   5.970   2.905   0.582
 2219TIP3    H1 6663   5.878   2.879   0.580
 2219TIP3    H2 6664   5.992   2.909   0.675
 2220TIP3   OH2 6665   5.668   4.962   2.706
 2220TIP3    H1 6666   5.681   4.984   2.799
 2220TIP3    H2 6667   5.740   5.005   2.661
 2221TIP3   OH2 6668   1.140   1.222   5.053
 2221TIP3    H1 6669   1.113   1.286   4.987
 2221TIP3    H2 6670   1.161   1.275   5.130
 2222TIP3   OH2 6671   5.634   4.312   0.311
 2222TIP3    H1 6672   5.600   4.338   0.396
 2222TIP3    H2 6673   5.605   4.381   0.251
 2223TIP3   OH2 6674   4.644   5.713   1.906
 2223TIP3    H1 6675   4.597   5.787   1.943
 2223TIP3    H2 6676   4.582   5.671   1.847
 2224TIP3   OH2 6677   3.509   4.945   4.095
 2224TIP3    H1 6678   3.564   4.948   4.016
 2224TIP3    H2 6679   3.451   5.020   4.086
 2225TIP3   OH2 6680   2.664   2.520   2.442
 2225TIP3    H1 6681   2.653   2.552   2.531
 2225TIP3    H2 6682   2.581   2.537   2.399
 2226TIP3   OH2 6683   2.452   3.523   1.235
 2226TIP3    H1 6684   2.436   3.433   1.209
 2226TIP3    H2 6685   2.512   3.517   1.309
 2227TIP3   OH2 6686   2.636   3.178   0.222
 2227TIP3    H1 6687   2.657   3.271   0.211
 2227TIP3    H2 6688   2.708   3.132   0.178
 2228TIP3   OH2 6689   1.941   6.005   4.118
 2228TIP3    H1 6690   1.893   5.997   4.201
 2228TIP3    H2 6691   2.004   5.934   4.119
 2229TIP3   OH2 6692   1.444   0.279   4.430
 2229TIP3    H1 6693   1.361   0.326   4.434
 2229TIP3    H2 6694   1.496   0.327   4.366
 2230TIP3   OH2 6695   2.563   0.657   1.382
 2230TIP3    H1 6696   2.617   0.682   1.307
 2230TIP3    H2 6697   2.560   0.735   1.437
 2231TIP3   OH2 6698   6.288   3.585   4.387
 2231TIP3    H1 6699   6.294   3.489   4.394
 2231TIP3    H2 6700   6.307   3.617   4.475
 2232TIP3   OH2 6701   1.863   3.108   0.776
 2232TIP3    H1 6702   1.834   3.169   0.843
 2232TIP3    H2 6703   1.783   3.066   0.745
 2233TIP3   OH2 6704   1.073   4.357   2.997
 2233TIP3    H1 6705   0.998   4.301   3.019
 2233TIP3    H2 6706   1.140   4.295   2.966
 2234TIP3   OH2 6707   1.523   5.402   4.685
 2234TIP3    H1 6708   1.599   5.390   4.628
 2234TIP3    H2 6709   1.452   5.356   4.640
 2235TIP3   OH2 6710   4.918   2.152   2.715
 2235TIP3    H1 6711   4.878   2.220   2.662
 2235TIP3    H2 6712   4.882   2.070   2.681
 2236TIP3   OH2 6713   1.321   2.004   4.510
 2236TIP3    H1 6714   1.355   2.057   4.583
 2236TIP3    H2 6715   1.227   1.996   4.528
 2237TIP3   OH2 6716   4.750   1.519   2.893
 2237TIP3    H1 6717   4.720   1.481   2.810
 2237TIP3    H2 6718   4.774   1.609   2.871
 2238TIP3   OH2 6719   0.000   2.733   2.771
 2238TIP3    H1 6720   0.064   2.702   2.707
 2238TIP3    H2 6721  -0.056   2.657   2.789
 2239TIP3   OH2 6722   1.366   4.564   4.749
 2239TIP3    H1 6723   1.398   4.525   4.831
 2239TIP3    H2 6724   1.373   4.494   4.685
 2240TIP3   OH2 6725   0.793   4.064   4.244
 2240TIP3    H1 6726   0.753   4.151   4.256
 2240TIP3    H2 6727   0.766   4.015   4.322
 2241TIP3   OH2 6728   4.437   1.757   3.913
 2241TIP3    H1 6729   4.431   1.784   4.005
 2241TIP3    H2 6730   4.530   1.767   3.892
 2242TIP3   OH2 6731   2.264   1.962   0.704
 2242TIP3    H1 6732   2.276   2.055   0.686
 2242TIP3    H2 6733   2.198   1.959   0.773
 2243TIP3   OH2 6734   2.794   4.169   3.507
 2243TIP3    H1 6735   2.847   4.093   3.527
 2243TIP3    H2 6736   2.771   4.159   3.415
 2244TIP3   OH2 6737   5.957   5.784   2.449
 2244TIP3    H1 6738   5.870   5.807   2.480
 2244TIP3    H2 6739   6.008   5.768   2.529
 2245TIP3   OH2 6740   1.387   4.399   0.706
 2245TIP3    H1 6741   1.405   4.312   0.672
 2245TIP3    H2 6742   1.472   4.442   0.709
 2246TIP3   OH2 6743   2.694   5.568   2.252
 2246TIP3    H1 6744   2.727   5.498   2.195
 2246TIP3    H2 6745   2.617   5.601   2.205
 2247TIP3   OH2 6746   5.857   3.919   4.225
 2247TIP3    H1 6747   5.788   3.857   4.251
 2247TIP3    H2 6748   5.816   4.005   4.233
 2248TIP3   OH2 6749   4.161   5.172   3.370
 2248TIP3    H1 6750   4.201   5.135   3.291
 2248TIP3    H2 6751   4.116   5.251   3.339
 2249TIP3   OH2 6752   0.419   4.334   2.086
 2249TIP3    H1 6753   0.372   4.414   2.064
 2249TIP3    H2 6754   0.417   4.330   2.182
 2250TIP3   OH2 6755   4.223   5.003   4.652
 2250TIP3    H1 6756   4.154   4.949   4.614
 2250TIP3    H2 6757   4.302   4.978   4.605
 2251TIP3   OH2 6758   5.445   1.025   0.030
 2251TIP3    H1 6759   5.403   0.940   0.043
 2251TIP3    H2 6760   5.374   1.088   0.039
 2252TIP3   OH2 6761   4.733   3.499   0.029
 2252TIP3    H1 6762   4.803   3.537   0.081
 2252TIP3    H2 6763   4.751   3.405   0.029
 2253TIP3   OH2 6764   1.966   5.601   0.736
 2253TIP3    H1 6765   1.883   5.627   0.697
 2253TIP3    H2 6766   1.951   5.607   0.830
 2254TIP3   OH2 6767   1.030   3.706   1.306
 2254TIP3    H1 6768   0.950   3.694   1.356
 2254TIP3    H2 6769   1.093   3.645   1.346
 2255TIP3   OH2 6770   2.917   0.060   1.104
 2255TIP3    H1 6771   2.828   0.038   1.074
 2255TIP3    H2 6772   2.903   0.127   1.171
 2256TIP3   OH2 6773   5.585   4.619   2.763
 2256TIP3    H1 6774   5.504   4.619   2.713
 2256TIP3    H2 6775   5.561   4.652   2.850
 2257TIP3   OH2 6776   2.271   1.031   3.790
 2257TIP3    H1 6777   2.304   0.974   3.720
 2257TIP3    H2 6778   2.282   1.120   3.756
 2258TIP3   OH2 6779   0.260   3.279   2.874
 2258TIP3    H1 6780   0.229   3.203   2.826
 2258TIP3    H2 6781   0.350   3.258   2.898
 2259TIP3   OH2 6782   4.880   2.455   1.335
 2259TIP3    H1 6783   4.788   2.475   1.350
 2259TIP3    H2 6784   4.917   2.445   1.423
 2260TIP3   OH2 6785   4.935   0.172   2.000
 2260TIP3    H1 6786   4.919   0.144   1.910
 2260TIP3    H2 6787   4.922   0.267   1.999
 2261TIP3   OH2 6788   3.316   0.251   4.995
 2261TIP3    H1 6789   3.331   0.173   4.942
 2261TIP3    H2 6790   3.403   0.286   5.011
 2262TIP3   OH2 6791   1.099   2.183   1.095
 2262TIP3    H1 6792   1.091   2.237   1.173
 2262TIP3    H2 6793   1.181   2.211   1.054
 2263TIP3   OH2 6794   1.773   0.086   3.334
 2263TIP3    H1 6795   1.762   0.044   3.419
 2263TIP3    H2 6796   1.711   0.159   3.335
 2264TIP3   OH2 6797   2.279   5.360   3.055
 2264TIP3    H1 6798   2.202   5.365   2.998
 2264TIP3    H2 6799   2.273   5.274   3.096
 2265TIP3   OH2 6800   4.442   2.216   4.599
 2265TIP3    H1 6801   4.530   2.181   4.588
 2265TIP3    H2 6802   4.384   2.141   4.580
 2266TIP3   OH2 6803   3.685   4.291   1.322
 2266TIP3    H1 6804   3.612   4.230   1.324
 2266TIP3    H2 6805   3.666   4.350   1.249
 2267TIP3   OH2 6806   0.158   3.883   4.693
 2267TIP3    H1 6807   0.228   3.858   4.632
 2267TIP3    H2 6808   0.082   3.898   4.638
 2268TIP3   OH2 6809   5.713   4.844   0.203
 2268TIP3    H1 6810   5.677   4.776   0.260
 2268TIP3    H2 6811   5.790   4.876   0.249
 2269TIP3   OH2 6812   0.092   4.246   1.117
 2269TIP3    H1 6813   0.171   4.234   1.169
 2269TIP3    H2 6814   0.059   4.157   1.103
 2270TIP3   OH2 6815   0.805   5.068   2.173
 2270TIP3    H1 6816   0.808   5.074   2.077
 2270TIP3    H2 6817   0.838   4.980   2.193
 2271TIP3   OH2 6818   1.975   5.152   1.659
 2271TIP3    H1 6819   2.042   5.154   1.591
 2271TIP3    H2 6820   1.996   5.074   1.711
 2272TIP3   OH2 6821   5.774   1.032   0.329
 2272TIP3    H1 6822   5.823   0.995   0.255
 2272TIP3    H2 6823   5.822   1.003   0.406
 2273TIP3   OH2 6824   2.915   2.300   3.084
 2273TIP3    H1 6825   2.900   2.370   3.147
 2273TIP3    H2 6826   2.998   2.323   3.042
 2274TIP3   OH2 6827   5.268   5.283   3.371
 2274TIP3    H1 6828   5.283   5.279   3.276
 2274TIP3    H2 6829   5.193   5.226   3.386
 2275TIP3   OH2 6830   4.777   3.248   3.512
 2275TIP3    H1 6831   4.694   3.218   3.477
 2275TIP3    H2 6832   4.842   3.187   3.478
 2276TIP3   OH2 6833   6.346   4.194   5.125
 2276TIP3    H1 6834   6.419   4.240   5.083
 2276TIP3    H2 6835   6.370   4.189   5.217
 2277TIP3   OH2 6836   6.184   4.830   3.987
 2277TIP3    H1 6837   6.115   4.766   3.978
 2277TIP3    H2 6838   6.154   4.905   3.936
 2278TIP3   OH2 6839   0.677   4.224   2.309
 2278TIP3    H1 6840   0.740   4.152   2.306
 2278TIP3    H2 6841   0.592   4.180   2.306
 2279TIP3   OH2 6842   0.762   3.181   3.029
 2279TIP3    H1 6843   0.745   3.195   2.935
 2279TIP3    H2 6844   0.783   3.088   3.037
 2280TIP3   OH2 6845   3.336   4.257   0.275
 2280TIP3    H1 6846   3.308   4.317   0.206
 2280TIP3    H2 6847   3.258   4.245   0.329
 2281TIP3   OH2 6848   1.122   5.878   0.403
 2281TIP3    H1 6849   1.172   5.800   0.429
 2281TIP3    H2 6850   1.187   5.938   0.368
 2282TIP3   OH2 6851   4.204   2.817   2.630
 2282TIP3    H1 6852   4.141   2.744   2.631
 2282TIP3    H2 6853   4.267   2.793   2.562
 2283TIP3   OH2 6854   5.810   0.561   0.504
 2283TIP3    H1 6855   5.775   0.649   0.487
 2283TIP3    H2 6856   5.893   0.559   0.457
 2284TIP3   OH2 6857   2.760   0.729   0.683
 2284TIP3    H1 6858   2.738   0.821   0.697
 2284TIP3    H2 6859   2.849   0.720   0.718
 2285TIP3   OH2 6860   0.920   0.707   0.270
 2285TIP3    H1 6861   0.840   0.759   0.282
 2285TIP3    H2 6862   0.913   0.638   0.336
 2286TIP3   OH2 6863   6.349   1.596   1.756
 2286TIP3    H1 6864   6.402   1.674   1.737
 2286TIP3    H2 6865   6.322   1.607   1.848
 2287TIP3   OH2 6866   0.275   4.637   0.982
 2287TIP3    H1 6867   0.312   4.573   0.921
 2287TIP3    H2 6868   0.207   4.589   1.029
 2288TIP3   OH2 6869   1.576   4.724   2.051
 2288TIP3    H1 6870   1.628   4.653   2.089
 2288TIP3    H2 6871   1.488   4.686   2.040
 2289TIP3   OH2 6872   0.184   3.891   3.341
 2289TIP3    H1 6873   0.089   3.905   3.336
 2289TIP3    H2 6874   0.201   3.877   3.434
 2290TIP3   OH2 6875   5.378   3.688   0.891
 2290TIP3    H1 6876   5.392   3.637   0.811
 2290TIP3    H2 6877   5.326   3.763   0.862
 2291TIP3   OH2 6878   5.094   2.233   3.330
 2291TIP3    H1 6879   5.048   2.293   3.390
 2291TIP3    H2 6880   5.063   2.146   3.355
 2292TIP3   OH2 6881   4.454   4.335   0.952
 2292TIP3    H1 6882   4.399   4.311   0.877
 2292TIP3    H2 6883   4.438   4.428   0.965
 2293TIP3   OH2 6884   5.407   0.022   1.535
 2293TIP3    H1 6885   5.326  -0.028   1.521
 2293TIP3    H2 6886   5.447   0.027   1.449
 2294TIP3   OH2 6887   4.370   4.116   4.164
 2294TIP3    H1 6888   4.409   4.167   4.235
 2294TIP3    H2 6889   4.348   4.181   4.097
 2295TIP3   OH2 6890   3.846   4.132   2.401
 2295TIP3    H1 6891   3.856   4.039   2.425
 2295TIP3    H2 6892   3.765   4.135   2.350
 2296TIP3   OH2 6893   1.052   0.714   5.162
 2296TIP3    H1 6894   1.061   0.720   5.067
 2296TIP3    H2 6895   1.085   0.627   5.184
 2297TIP3   OH2 6896   6.087   2.633   0.997
 2297TIP3    H1 6897   5.993   2.616   1.004
 2297TIP3    H2 6898   6.124   2.549   0.969
 2298TIP3   OH2 6899   0.261   3.543   2.462
 2298TIP3    H1 6900   0.335   3.483   2.454
 2298TIP3    H2 6901   0.230   3.553   2.372
 2299TIP3   OH2 6902   5.705   4.749   1.778
 2299TIP3    H1 6903   5.682   4.838   1.752
 2299TIP3    H2 6904   5.737   4.757   1.868
 2300TIP3   OH2 6905   5.733   4.378   1.654
 2300TIP3    H1 6906   5.747   4.460   1.607
 2300TIP3    H2 6907   5.786   4.386   1.733
 2301TIP3   OH2 6908   0.164   4.877   3.047
 2301TIP3    H1 6909   0.188   4.968   3.029
 2301TIP3    H2 6910   0.074   4.882   3.078
 2302TIP3   OH2 6911   2.912   0.601   2.668
 2302TIP3    H1 6912   2.933   0.607   2.761
 2302TIP3    H2 6913   2.984   0.645   2.624
 2303TIP3   OH2 6914   3.992   5.398   3.937
 2303TIP3    H1 6915   4.027   5.340   3.869
 2303TIP3    H2 6916   3.906   5.363   3.956
 2304TIP3   OH2 6917   5.877   1.446   3.781
 2304TIP3    H1 6918   5.917   1.424   3.865
 2304TIP3    H2 6919   5.864   1.361   3.738
 2305TIP3   OH2 6920   4.317   1.483   2.002
 2305TIP3    H1 6921   4.365   1.518   2.077
 2305TIP3    H2 6922   4.382   1.433   1.953
 2306TIP3   OH2 6923   5.606   2.653   3.920
 2306TIP3    H1 6924   5.524   2.604   3.934
 2306TIP3    H2 6925   5.675   2.588   3.937
 2307TIP3   OH2 6926   2.286   2.569   0.101
 2307TIP3    H1 6927   2.262   2.634   0.035
 2307TIP3    H2 6928   2.213   2.506   0.101
 2308TIP3   OH2 6929   1.636   2.457   0.088
 2308TIP3    H1 6930   1.592   2.418   0.013
 2308TIP3    H2 6931   1.715   2.496   0.052
 2309TIP3   OH2 6932   3.371   3.819   1.292
 2309TIP3    H1 6933   3.432   3.814   1.218
 2309TIP3    H2 6934   3.288   3.787   1.256
 2310TIP3   OH2 6935   4.386   0.198   3.469
 2310TIP3    H1 6936   4.436   0.163   3.543
 2310TIP3    H2 6937   4.303   0.151   3.472
 2311TIP3   OH2 6938   5.354   1.286   3.038
 2311TIP3    H1 6939   5.286   1.291   2.971
 2311TIP3    H2 6940   5.330   1.211   3.091
 2312TIP3   OH2 6941   4.908   5.913   3.537
 2312TIP3    H1 6942   4.815   5.894   3.526
 2312TIP3    H2 6943   4.931   5.964   3.459
 2313TIP3   OH2 6944   4.070   1.346   2.027
 2313TIP3    H1 6945   4.067   1.300   1.943
 2313TIP3    H2 6946   4.148   1.401   2.021
 2314TIP3   OH2 6947   2.966   2.947   4.024
 2314TIP3    H1 6948   3.043   2.923   4.075
 2314TIP3    H2 6949   3.000   2.977   3.940
 2315TIP3   OH2 6950   4.147   2.381   4.660
 2315TIP3    H1 6951   4.124   2.289   4.670
 2315TIP3    H2 6952   4.140   2.398   4.566
 2316TIP3   OH2 6953   5.272   4.358   2.090
 2316TIP3    H1 6954   5.197   4.416   2.104
 2316TIP3    H2 6955   5.265   4.292   2.159
 2317TIP3   OH2 6956   0.061   2.685   2.021
 2317TIP3    H1 6957   0.031   2.604   1.979
 2317TIP3    H2 6958   0.116   2.655   2.094
 2318TIP3   OH2 6959   4.272   5.862   0.323
 2318TIP3    H1 6960   4.300   5.953   0.327
 2318TIP3    H2 6961   4.328   5.823   0.256
 2319TIP3   OH2 6962   5.272   1.261   1.360
 2319TIP3    H1 6963   5.267   1.327   1.429
 2319TIP3    H2 6964   5.356   1.276   1.317
 2320TIP3   OH2 6965   4.691   5.385   3.000
 2320TIP3    H1 6966   4.683   5.464   3.053
 2320TIP3    H2 6967   4.631   5.400   2.926
 2321TIP3   OH2 6968   3.602   0.795   4.348
 2321TIP3    H1 6969   3.634   0.882   4.371
 2321TIP3    H2 6970   3.509   0.808   4.331
 2322TIP3   OH2 6971   0.527   0.457   4.051
 2322TIP3    H1 6972   0.557   0.476   3.963
 2322TIP3    H2 6973   0.439   0.496   4.055
 2323TIP3   OH2 6974   2.221   5.969   1.405
 2323TIP3    H1 6975   2.288   5.909   1.435
 2323TIP3    H2 6976   2.263   6.019   1.335
 2324TIP3   OH2 6977   0.764   0.899   1.078
 2324TIP3    H1 6978   0.823   0.833   1.042
 2324TIP3    H2 6979   0.713   0.852   1.144
 2325TIP3   OH2 6980   0.225   3.291   0.395
 2325TIP3    H1 6981   0.169   3.286   0.473
 2325TIP3    H2 6982   0.292   3.224   0.410
 2326TIP3   OH2 6983   4.607   1.323   1.743
 2326TIP3    H1 6984   4.635   1.404   1.700
 2326TIP3    H2 6985   4.516   1.311   1.714
 2327TIP3   OH2 6986   1.882   5.954   3.843
 2327TIP3    H1 6987   1.817   6.012   3.882
 2327TIP3    H2 6988   1.921   5.909   3.917
 2328TIP3   OH2 6989   4.490   1.318   3.510
 2328TIP3    H1 6990   4.562   1.260   3.532
 2328TIP3    H2 6991   4.473   1.303   3.417
 2329TIP3   OH2 6992   2.132   5.365   2.416
 2329TIP3    H1 6993   2.215   5.407   2.393
 2329TIP3    H2 6994   2.065   5.421   2.378
 2330TIP3   OH2 6995   4.803   5.371   0.981
 2330TIP3    H1 6996   4.729   5.420   0.943
 2330TIP3    H2 6997   4.862   5.438   1.014
 2331TIP3   OH2 6998   0.455   5.015   0.657
 2331TIP3    H1 6999   0.383   5.015   0.719
 2331TIP3    H2 7000   0.461   5.106   0.627
 2332TIP3   OH2 7001   4.127   0.443   3.009
 2332TIP3    H1 7002   4.082   0.434   2.925
 2332TIP3    H2 7003   4.202   0.499   2.990
 2333TIP3   OH2 7004   4.494   4.818   3.796
 2333TIP3    H1 7005   4.530   4.836   3.709
 2333TIP3    H2 7006   4.542   4.740   3.826
 2334TIP3   OH2 7007   1.717   3.454   0.424
 2334TIP3    H1 7008   1.687   3.375   0.380
 2334TIP3    H2 7009   1.774   3.422   0.494
 2335TIP3   OH2 7010   0.361   2.847   1.053
 2335TIP3    H1 7011   0.280   2.823   1.008
 2335TIP3    H2 7012   0.343   2.830   1.146
 2336TIP3   OH2 7013   5.149   4.019   2.603
 2336TIP3    H1 7014   5.135   4.035   2.696
 2336TIP3    H2 7015   5.107   3.934   2.587
 2337TIP3   OH2 7016   4.729   2.481   0.563
 2337TIP3    H1 7017   4.664   2.546   0.538
 2337TIP3    H2 7018   4.752   2.504   0.653
 2338TIP3   OH2 7019   6.282   4.457   1.794
 2338TIP3    H1 7020   6.211   4.474   1.856
 2338TIP3    H2 7021   6.332   4.386   1.833
 2339TIP3   OH2 7022   4.980   3.681   4.750
 2339TIP3    H1 7023   4.924   3.700   4.826
 2339TIP3    H2 7024   4.989   3.765   4.705
 2340TIP3   OH2 7025   3.869   1.677   3.553
 2340TIP3    H1 7026   3.951   1.705   3.595
 2340TIP3    H2 7027   3.858   1.586   3.581
 2341TIP3   OH2 7028   3.391   1.453   5.085
 2341TIP3    H1 7029   3.428   1.380   5.135
 2341TIP3    H2 7030   3.310   1.475   5.131
 2342TIP3   OH2 7031   4.331   0.312   2.775
 2342TIP3    H1 7032   4.386   0.288   2.850
 2342TIP3    H2 7033   4.384   0.374   2.725
 2343TIP3   OH2 7034   3.084   1.465   4.277
 2343TIP3    H1 7035   3.062   1.556   4.256
 2343TIP3    H2 7036   3.040   1.414   4.209
 2344TIP3   OH2 7037   0.435   0.387   2.568
 2344TIP3    H1 7038   0.527   0.391   2.542
 2344TIP3    H2 7039   0.389   0.437   2.501
 2345TIP3   OH2 7040   2.247   5.149   3.262
 2345TIP3    H1 7041   2.276   5.146   3.353
 2345TIP3    H2 7042   2.319   5.110   3.213
 2346TIP3   OH2 7043   5.654   2.285   0.241
 2346TIP3    H1 7044   5.667   2.310   0.332
 2346TIP3    H2 7045   5.571   2.238   0.242
 2347TIP3   OH2 7046   4.465   4.191   1.181
 2347TIP3    H1 7047   4.447   4.251   1.108
 2347TIP3    H2 7048   4.530   4.130   1.147
 2348TIP3   OH2 7049   2.244   3.452   4.282
 2348TIP3    H1 7050   2.183   3.379   4.275
 2348TIP3    H2 7051   2.303   3.441   4.208
 2349TIP3   OH2 7052   2.921   0.127   2.206
 2349TIP3    H1 7053   2.873   0.089   2.279
 2349TIP3    H2 7054   2.887   0.082   2.129
 2350TIP3   OH2 7055   5.940   3.523   4.053
 2350TIP3    H1 7056   5.933   3.608   4.009
 2350TIP3    H2 7057   5.906   3.460   3.989
 2351TIP3   OH2 7058   3.805   1.940   1.108
 2351TIP3    H1 7059   3.751   1.910   1.182
 2351TIP3    H2 7060   3.851   2.017   1.141
 2352TIP3   OH2 7061   1.810   4.599   1.579
 2352TIP3    H1 7062   1.727   4.615   1.533
 2352TIP3    H2 7063   1.799   4.644   1.663
 2353TIP3   OH2 7064   2.873   1.483   2.750
 2353TIP3    H1 7065   2.853   1.391   2.730
 2353TIP3    H2 7066   2.802   1.532   2.709
 2354TIP3   OH2 7067   1.602   2.737   1.420
 2354TIP3    H1 7068   1.550   2.666   1.383
 2354TIP3    H2 7069   1.598   2.807   1.355
 2355TIP3   OH2 7070   0.224   2.355   2.347
 2355TIP3    H1 7071   0.298   2.294   2.341
 2355TIP3    H2 7072   0.161   2.311   2.403
 2356TIP3   OH2 7073   5.167   4.474   3.150
 2356TIP3    H1 7074   5.145   4.381   3.160
 2356TIP3    H2 7075   5.156   4.491   3.057
 2357TIP3   OH2 7076   1.081   1.346   0.716
 2357TIP3    H1 7077   1.013   1.368   0.780
 2357TIP3    H2 7078   1.082   1.250   0.714
 2358TIP3   OH2 7079   4.684   5.020   2.145
 2358TIP3    H1 7080   4.644   5.054   2.226
 2358TIP3    H2 7081   4.708   4.930   2.166
 2359TIP3   OH2 7082   1.632   3.049   0.662
 2359TIP3    H1 7083   1.602   3.005   0.583
 2359TIP3    H2 7084   1.557   3.100   0.691
 2360TIP3   OH2 7085   4.169   1.296   0.753
 2360TIP3    H1 7086   4.102   1.325   0.816
 2360TIP3    H2 7087   4.119   1.257   0.682
 2361TIP3   OH2 7088   1.445   2.209   3.670
 2361TIP3    H1 7089   1.459   2.299   3.699
 2361TIP3    H2 7090   1.479   2.155   3.741
 2362TIP3   OH2 7091   5.255   3.299   2.993
 2362TIP3    H1 7092   5.237   3.214   2.952
 2362TIP3    H2 7093   5.340   3.288   3.035
 2363TIP3   OH2 7094   5.818   0.515   1.591
 2363TIP3    H1 7095   5.877   0.580   1.553
 2363TIP3    H2 7096   5.759   0.491   1.520
 2364TIP3   OH2 7097   5.504   4.475   4.752
 2364TIP3    H1 7098   5.471   4.386   4.765
 2364TIP3    H2 7099   5.594   4.472   4.784
 2365TIP3   OH2 7100   1.539   2.038   0.585
 2365TIP3    H1 7101   1.509   1.950   0.609
 2365TIP3    H2 7102   1.569   2.075   0.668
 2366TIP3   OH2 7103   3.875   5.739   4.796
 2366TIP3    H1 7104   3.855   5.646   4.807
 2366TIP3    H2 7105   3.791   5.780   4.777
 2367TIP3   OH2 7106   3.136   4.680   2.285
 2367TIP3    H1 7107   3.118   4.755   2.341
 2367TIP3    H2 7108   3.183   4.618   2.341
 2368TIP3   OH2 7109   6.203   1.368   2.591
 2368TIP3    H1 7110   6.233   1.361   2.501
 2368TIP3    H2 7111   6.108   1.373   2.585
 2369TIP3   OH2 7112   3.722   1.183   3.211
 2369TIP3    H1 7113   3.648   1.146   3.259
 2369TIP3    H2 7114   3.797   1.130   3.238
 2370TIP3   OH2 7115   3.471   5.543   4.114
 2370TIP3    H1 7116   3.522   5.616   4.147
 2370TIP3    H2 7117   3.385   5.552   4.156
 2371TIP3   OH2 7118   0.604   1.432   0.049
 2371TIP3    H1 7119   0.518   1.401   0.076
 2371TIP3    H2 7120   0.591   1.523   0.023
 2372TIP3   OH2 7121   5.335   1.146   3.755
 2372TIP3    H1 7122   5.349   1.158   3.661
 2372TIP3    H2 7123   5.421   1.164   3.794
 2373TIP3   OH2 7124   0.466   4.815   1.682
 2373TIP3    H1 7125   0.536   4.857   1.632
 2373TIP3    H2 7126   0.479   4.845   1.772
 2374TIP3   OH2 7127   1.470   3.110   1.738
 2374TIP3    H1 7128   1.471   3.082   1.646
 2374TIP3    H2 7129   1.394   3.167   1.745
 2375TIP3   OH2 7130   3.928   2.474   4.000
 2375TIP3    H1 7131   3.971   2.555   3.973
 2375TIP3    H2 7132   3.861   2.458   3.933
 2376TIP3   OH2 7133   1.263   1.238   1.090
 2376TIP3    H1 7134   1.344   1.243   1.141
 2376TIP3    H2 7135   1.257   1.322   1.046
 2377TIP3   OH2 7136   6.272   5.045   5.183
 2377TIP3    H1 7137   6.339   4.985   5.219
 2377TIP3    H2 7138   6.235   4.997   5.109
 2378TIP3   OH2 7139   5.176   3.514  -0.006
 2378TIP3    H1 7140   5.135   3.500   0.080
 2378TIP3    H2 7141   5.212   3.428  -0.029
 2379TIP3   OH2 7142   3.389   3.878   1.587
 2379TIP3    H1 7143   3.389   3.842   1.498
 2379TIP3    H2 7144   3.437   3.960   1.580
 2380TIP3   OH2 7145   4.661   3.115   4.408
 2380TIP3    H1 7146   4.581   3.165   4.426
 2380TIP3    H2 7147   4.700   3.101   4.494
 2381TIP3   OH2 7148   4.132   5.742   0.521
 2381TIP3    H1 7149   4.130   5.808   0.590
 2381TIP3    H2 7150   4.182   5.783   0.450
 2382TIP3   OH2 7151   4.053   1.683   0.270
 2382TIP3    H1 7152   4.056   1.760   0.326
 2382TIP3    H2 7153   4.141   1.644   0.277
 2383TIP3   OH2 7154   3.378   5.438   3.378
 2383TIP3    H1 7155   3.293   5.451   3.335
 2383TIP3    H2 7156   3.366   5.473   3.466
 2384TIP3   OH2 7157   6.094   2.208   2.860
 2384TIP3    H1 7158   6.177   2.251   2.885
 2384TIP3    H2 7159   6.079   2.143   2.929
 2385TIP3   OH2 7160   1.571   0.888   1.177
 2385TIP3    H1 7161   1.623   0.961   1.145
 2385TIP3    H2 7162   1.627   0.844   1.241
 2386TIP3   OH2 7163   0.242   2.377   1.088
 2386TIP3    H1 7164   0.319   2.390   1.033
 2386TIP3    H2 7165   0.251   2.288   1.121
 2387TIP3   OH2 7166   4.910   3.700   1.672
 2387TIP3    H1 7167   4.923   3.606   1.684
 2387TIP3    H2 7168   4.992   3.731   1.632
 2388TIP3   OH2 7169   3.796   5.378   2.004
 2388TIP3    H1 7170   3.808   5.314   2.075
 2388TIP3    H2 7171   3.859   5.448   2.024
 2389TIP3   OH2 7172   3.484   2.429   2.355
 2389TIP3    H1 7173   3.460   2.407   2.445
 2389TIP3    H2 7174   3.537   2.356   2.325
 2390TIP3   OH2 7175   4.415   0.833   1.223
 2390TIP3    H1 7176   4.437   0.841   1.130
 2390TIP3    H2 7177   4.480   0.771   1.257
 2391TIP3   OH2 7178   4.369   5.800   4.305
 2391TIP3    H1 7179   4.463   5.785   4.320
 2391TIP3    H2 7180   4.355   5.891   4.333
 2392TIP3   OH2 7181   0.960   0.778   3.843
 2392TIP3    H1 7182   1.044   0.804   3.882
 2392TIP3    H2 7183   0.909   0.859   3.841
 2393TIP3   OH2 7184   3.618   2.496   4.836
 2393TIP3    H1 7185   3.703   2.452   4.844
 2393TIP3    H2 7186   3.555   2.424   4.832
 2394TIP3   OH2 7187   6.099   2.454   3.415
 2394TIP3    H1 7188   6.030   2.484   3.355
 2394TIP3    H2 7189   6.154   2.397   3.361
 2395TIP3   OH2 7190   3.222   1.624   4.503
 2395TIP3    H1 7191   3.184   1.566   4.436
 2395TIP3    H2 7192   3.146   1.669   4.541
 2396TIP3   OH2 7193   2.636   2.091   3.731
 2396TIP3    H1 7194   2.664   2.094   3.639
 2396TIP3    H2 7195   2.647   2.181   3.762
 2397TIP3   OH2 7196   1.669   1.650   0.067
 2397TIP3    H1 7197   1.692   1.568   0.023
 2397TIP3    H2 7198   1.746   1.706   0.056
 2398TIP3   OH2 7199   5.547   4.161   3.597
 2398TIP3    H1 7200   5.471   4.217   3.611
 2398TIP3    H2 7201   5.524   4.109   3.520
 2399TIP3   OH2 7202   2.936   4.525   4.104
 2399TIP3    H1 7203   2.874   4.590   4.137
 2399TIP3    H2 7204   3.019   4.550   4.145
 2400TIP3   OH2 7205   6.081   3.752   4.700
 2400TIP3    H1 7206   6.014   3.816   4.679
 2400TIP3    H2 7207   6.162   3.791   4.667
 2401TIP3   OH2 7208   2.602   3.131   4.377
 2401TIP3    H1 7209   2.564   3.216   4.353
 2401TIP3    H2 7210   2.695   3.141   4.359
 2402TIP3   OH2 7211   4.986   0.168   3.351
 2402TIP3    H1 7212   4.996   0.219   3.270
 2402TIP3    H2 7213   4.929   0.095   3.325
 2403TIP3   OH2 7214   2.612   4.722   3.059
 2403TIP3    H1 7215   2.693   4.752   3.018
 2403TIP3    H2 7216   2.549   4.718   2.988
 2404TIP3   OH2 7217   1.631   4.264   2.032
 2404TIP3    H1 7218   1.583   4.237   2.109
 2404TIP3    H2 7219   1.723   4.246   2.053
 2405TIP3   OH2 7220   4.116   2.589   1.943
 2405TIP3    H1 7221   4.031   2.550   1.964
 2405TIP3    H2 7222   4.100   2.684   1.944
 2406TIP3   OH2 7223   4.278   1.998   4.583
 2406TIP3    H1 7224   4.193   2.027   4.548
 2406TIP3    H2 7225   4.322   1.957   4.509
 2407TIP3   OH2 7226   1.574   0.488   1.333
 2407TIP3    H1 7227   1.542   0.434   1.406
 2407TIP3    H2 7228   1.503   0.550   1.316
 2408TIP3   OH2 7229   5.032   0.338   2.718
 2408TIP3    H1 7230   5.066   0.306   2.802
 2408TIP3    H2 7231   4.944   0.368   2.738
 2409TIP3   OH2 7232   1.423   0.892   5.101
 2409TIP3    H1 7233   1.516   0.915   5.097
 2409TIP3    H2 7234   1.402   0.895   5.195
 2410TIP3   OH2 7235   0.762   0.326   1.178
 2410TIP3    H1 7236   0.844   0.373   1.196
 2410TIP3    H2 7237   0.701   0.360   1.243
 2411TIP3   OH2 7238   6.223   2.867   2.218
 2411TIP3    H1 7239   6.211   2.786   2.169
 2411TIP3    H2 7240   6.138   2.883   2.260
 2412TIP3   OH2 7241   0.043   3.978   0.375
 2412TIP3    H1 7242  -0.053   3.976   0.372
 2412TIP3    H2 7243   0.070   3.949   0.288
 2413TIP3   OH2 7244   2.355   4.189   4.861
 2413TIP3    H1 7245   2.408   4.156   4.933
 2413TIP3    H2 7246   2.267   4.199   4.898
 2414TIP3   OH2 7247   3.087   0.944   4.402
 2414TIP3    H1 7248   3.029   1.017   4.423
 2414TIP3    H2 7249   3.032   0.881   4.355
 2415TIP3   OH2 7250   3.433   3.101   2.071
 2415TIP3    H1 7251   3.380   3.027   2.103
 2415TIP3    H2 7252   3.369   3.163   2.035
 2416TIP3   OH2 7253   3.608   2.163   4.289
 2416TIP3    H1 7254   3.596   2.174   4.384
 2416TIP3    H2 7255   3.574   2.075   4.271
 2417TIP3   OH2 7256   3.060   3.604   3.565
 2417TIP3    H1 7257   3.128   3.595   3.497
 2417TIP3    H2 7258   2.978   3.585   3.519
 2418TIP3   OH2 7259   0.480   3.647   3.537
 2418TIP3    H1 7260   0.483   3.563   3.493
 2418TIP3    H2 7261   0.564   3.688   3.516
 2419TIP3   OH2 7262   5.168   1.967   0.495
 2419TIP3    H1 7263   5.092   1.933   0.542
 2419TIP3    H2 7264   5.242   1.919   0.531
 2420TIP3   OH2 7265   2.124   5.128   3.932
 2420TIP3    H1 7266   2.179   5.087   3.998
 2420TIP3    H2 7267   2.147   5.220   3.934
 2421TIP3   OH2 7268   5.609   2.652   4.529
 2421TIP3    H1 7269   5.565   2.655   4.614
 2421TIP3    H2 7270   5.673   2.724   4.532
 2422TIP3   OH2 7271   6.281   3.941   3.592
 2422TIP3    H1 7272   6.328   4.010   3.545
 2422TIP3    H2 7273   6.193   3.943   3.555
 2423TIP3   OH2 7274   1.446   3.389   2.739
 2423TIP3    H1 7275   1.392   3.457   2.699
 2423TIP3    H2 7276   1.447   3.411   2.832
 2424TIP3   OH2 7277   5.589   2.122   3.239
 2424TIP3    H1 7278   5.664   2.112   3.181
 2424TIP3    H2 7279   5.520   2.071   3.197
 2425TIP3   OH2 7280   4.019   0.416   1.616
 2425TIP3    H1 7281   4.071   0.359   1.560
 2425TIP3    H2 7282   3.996   0.491   1.560
 2426TIP3   OH2 7283   5.462   2.267   4.316
 2426TIP3    H1 7284   5.416   2.190   4.349
 2426TIP3    H2 7285   5.510   2.235   4.239
 2427TIP3   OH2 7286   3.504   4.585   2.333
 2427TIP3    H1 7287   3.558   4.506   2.338
 2427TIP3    H2 7288   3.420   4.559   2.369
 2428TIP3   OH2 7289   4.600   3.687   1.125
 2428TIP3    H1 7290   4.676   3.679   1.183
 2428TIP3    H2 7291   4.525   3.664   1.179
 2429TIP3   OH2 7292   2.520   2.710   2.122
 2429TIP3    H1 7293   2.468   2.667   2.190
 2429TIP3    H2 7294   2.460   2.773   2.082
 2430TIP3   OH2 7295   3.642   1.246   5.061
 2430TIP3    H1 7296   3.710   1.265   4.996
 2430TIP3    H2 7297   3.577   1.195   5.013
 2431TIP3   OH2 7298   1.563   3.241   3.632
 2431TIP3    H1 7299   1.519   3.269   3.551
 2431TIP3    H2 7300   1.604   3.321   3.665
 2432TIP3   OH2 7301   0.781   1.003   3.875
 2432TIP3    H1 7302   0.861   1.056   3.880
 2432TIP3    H2 7303   0.734   1.036   3.799
 2433TIP3   OH2 7304   5.599   1.316   2.680
 2433TIP3    H1 7305   5.539   1.253   2.718
 2433TIP3    H2 7306   5.573   1.400   2.718
 2434TIP3   OH2 7307   4.810   1.582   0.210
 2434TIP3    H1 7308   4.844   1.554   0.126
 2434TIP3    H2 7309   4.880   1.562   0.273
 2435TIP3   OH2 7310   2.323   0.013   2.876
 2435TIP3    H1 7311   2.269   0.043   2.803
 2435TIP3    H2 7312   2.336   0.091   2.929
 2436TIP3   OH2 7313   5.660   1.851   5.055
 2436TIP3    H1 7314   5.752   1.836   5.078
 2436TIP3    H2 7315   5.645   1.944   5.076
 2437TIP3   OH2 7316   2.969   5.754   4.627
 2437TIP3    H1 7317   3.043   5.721   4.577
 2437TIP3    H2 7318   2.993   5.740   4.718
 2438TIP3   OH2 7319   3.388   1.205   4.927
 2438TIP3    H1 7320   3.354   1.163   4.848
 2438TIP3    H2 7321   3.322   1.270   4.950
 2439TIP3   OH2 7322   3.056   0.974   2.057
 2439TIP3    H1 7323   3.029   0.883   2.072
 2439TIP3    H2 7324   3.036   0.990   1.964
 2440TIP3   OH2 7325   5.682   0.063   3.909
 2440TIP3    H1 7326   5.759   0.082   3.963
 2440TIP3    H2 7327   5.648   0.150   3.885
 2441TIP3   OH2 7328   1.616   1.014   4.726
 2441TIP3    H1 7329   1.574   1.029   4.810
 2441TIP3    H2 7330   1.545   0.988   4.668
 2442TIP3   OH2 7331   3.604   4.357   0.519
 2442TIP3    H1 7332   3.595   4.343   0.425
 2442TIP3    H2 7333   3.647   4.277   0.551
 2443TIP3   OH2 7334   5.315   3.727   1.992
 2443TIP3    H1 7335   5.307   3.768   2.079
 2443TIP3    H2 7336   5.290   3.636   2.006
 2444TIP3   OH2 7337   3.358   2.877   3.399
 2444TIP3    H1 7338   3.387   2.967   3.384
 2444TIP3    H2 7339   3.428   2.839   3.452
 2445TIP3   OH2 7340   0.449   4.626   2.941
 2445TIP3    H1 7341   0.380   4.675   2.897
 2445TIP3    H2 7342   0.490   4.575   2.870
 2446TIP3   OH2 7343   0.129   4.484   3.568
 2446TIP3    H1 7344   0.146   4.467   3.476
 2446TIP3    H2 7345   0.214   4.472   3.611
 2447TIP3   OH2 7346   1.659   2.195   1.609
 2447TIP3    H1 7347   1.641   2.226   1.521
 2447TIP3    H2 7348   1.582   2.143   1.632
 2448TIP3   OH2 7349   2.779   4.337   2.058
 2448TIP3    H1 7350   2.854   4.289   2.023
 2448TIP3    H2 7351   2.798   4.429   2.037
 2449TIP3   OH2 7352   0.705   5.555   1.141
 2449TIP3    H1 7353   0.689   5.552   1.236
 2449TIP3    H2 7354   0.790   5.512   1.131
 2450TIP3   OH2 7355   3.457   3.850   5.077
 2450TIP3    H1 7356   3.457   3.932   5.027
 2450TIP3    H2 7357   3.518   3.867   5.150
 2451TIP3   OH2 7358   0.544   4.824   4.124
 2451TIP3    H1 7359   0.626   4.774   4.127
 2451TIP3    H2 7360   0.536   4.851   4.032
 2452TIP3   OH2 7361   1.805   4.315   2.801
 2452TIP3    H1 7362   1.715   4.344   2.811
 2452TIP3    H2 7363   1.805   4.264   2.720
 2453TIP3   OH2 7364   5.654   2.286   0.525
 2453TIP3    H1 7365   5.649   2.340   0.605
 2453TIP3    H2 7366   5.748   2.275   0.510
 2454TIP3   OH2 7367   0.897   5.631   2.205
 2454TIP3    H1 7368   0.933   5.631   2.294
 2454TIP3    H2 7369   0.804   5.612   2.216
 2455TIP3   OH2 7370   6.149   1.442   1.641
 2455TIP3    H1 7371   6.218   1.507   1.654
 2455TIP3    H2 7372   6.067   1.491   1.649
 2456TIP3   OH2 7373   0.432   5.941   0.292
 2456TIP3    H1 7374   0.396   6.021   0.254
 2456TIP3    H2 7375   0.361   5.877   0.283
 2457TIP3   OH2 7376   0.450   5.042   3.719
 2457TIP3    H1 7377   0.416   5.057   3.808
 2457TIP3    H2 7378   0.422   5.119   3.670
 2458TIP3   OH2 7379   4.030   0.420   3.936
 2458TIP3    H1 7380   4.118   0.415   3.898
 2458TIP3    H2 7381   4.035   0.365   4.014
 2459TIP3   OH2 7382   3.735   4.961   2.660
 2459TIP3    H1 7383   3.692   4.878   2.642
 2459TIP3    H2 7384   3.771   4.989   2.576
 2460TIP3   OH2 7385   0.232   3.026   2.755
 2460TIP3    H1 7386   0.228   2.959   2.823
 2460TIP3    H2 7387   0.160   3.005   2.696
 2461TIP3   OH2 7388   3.449   5.627   3.858
 2461TIP3    H1 7389   3.528   5.604   3.810
 2461TIP3    H2 7390   3.462   5.591   3.946
 2462TIP3   OH2 7391   1.328   3.867   4.909
 2462TIP3    H1 7392   1.272   3.805   4.955
 2462TIP3    H2 7393   1.270   3.940   4.887
 2463TIP3   OH2 7394   3.324   1.149   1.226
 2463TIP3    H1 7395   3.314   1.058   1.199
 2463TIP3    H2 7396   3.416   1.170   1.206
 2464TIP3   OH2 7397   4.256   0.355   0.797
 2464TIP3    H1 7398   4.261   0.450   0.808
 2464TIP3    H2 7399   4.162   0.336   0.797
 2465TIP3   OH2 7400   5.827   1.611   4.201
 2465TIP3    H1 7401   5.904   1.668   4.190
 2465TIP3    H2 7402   5.791   1.601   4.113
 2466TIP3   OH2 7403   4.603   5.578   3.220
 2466TIP3    H1 7404   4.596   5.567   3.314
 2466TIP3    H2 7405   4.697   5.588   3.204
 2467TIP3   OH2 7406   4.270   0.466   0.206
 2467TIP3    H1 7407   4.183   0.437   0.233
 2467TIP3    H2 7408   4.256   0.508   0.122
 2468TIP3   OH2 7409   6.216   3.322   4.741
 2468TIP3    H1 7410   6.242   3.296   4.829
 2468TIP3    H2 7411   6.160   3.250   4.711
 2469TIP3   OH2 7412   3.606   2.018   2.811
 2469TIP3    H1 7413   3.663   2.047   2.741
 2469TIP3    H2 7414   3.606   1.923   2.805
 2470TIP3   OH2 7415   1.413   0.612   4.490
 2470TIP3    H1 7416   1.481   0.594   4.424
 2470TIP3    H2 7417   1.357   0.535   4.488
 2471TIP3   OH2 7418   3.413   5.197   1.381
 2471TIP3    H1 7419   3.388   5.230   1.295
 2471TIP3    H2 7420   3.433   5.104   1.366
 2472TIP3   OH2 7421   3.921   2.192   3.587
 2472TIP3    H1 7422   3.994   2.188   3.648
 2472TIP3    H2 7423   3.959   2.220   3.504
 2473TIP3   OH2 7424   0.725   2.508   0.262
 2473TIP3    H1 7425   0.657   2.566   0.226
 2473TIP3    H2 7426   0.682   2.423   0.270
 2474TIP3   OH2 7427   3.792   2.725   4.353
 2474TIP3    H1 7428   3.878   2.759   4.331
 2474TIP3    H2 7429   3.805   2.632   4.368
 2475TIP3   OH2 7430   5.647   3.428   0.585
 2475TIP3    H1 7431   5.720   3.391   0.634
 2475TIP3    H2 7432   5.625   3.362   0.520
 2476TIP3   OH2 7433   2.530   5.793   0.175
 2476TIP3    H1 7434   2.501   5.761   0.260
 2476TIP3    H2 7435   2.485   5.877   0.165
 2477TIP3   OH2 7436   2.960   4.686   2.979
 2477TIP3    H1 7437   2.909   4.766   2.962
 2477TIP3    H2 7438   2.969   4.644   2.893
 2478TIP3   OH2 7439   2.671   1.162   1.907
 2478TIP3    H1 7440   2.655   1.256   1.917
 2478TIP3    H2 7441   2.585   1.125   1.886
 2479TIP3   OH2 7442   1.931   2.184   0.911
 2479TIP3    H1 7443   1.975   2.103   0.935
 2479TIP3    H2 7444   1.993   2.227   0.851
 2480TIP3   OH2 7445   5.418   3.075   3.270
 2480TIP3    H1 7446   5.449   3.070   3.360
 2480TIP3    H2 7447   5.494   3.050   3.217
 2481TIP3   OH2 7448   3.717   6.048   2.543
 2481TIP3    H1 7449   3.704   5.961   2.579
 2481TIP3    H2 7450   3.629   6.083   2.530
 2482TIP3   OH2 7451   5.306   1.355   2.144
 2482TIP3    H1 7452   5.294   1.265   2.174
 2482TIP3    H2 7453   5.235   1.369   2.081
 2483TIP3   OH2 7454   0.064   4.281   2.752
 2483TIP3    H1 7455   0.030   4.260   2.665
 2483TIP3    H2 7456   0.155   4.307   2.736
 2484TIP3   OH2 7457   0.783   2.562   2.084
 2484TIP3    H1 7458   0.736   2.483   2.108
 2484TIP3    H2 7459   0.835   2.536   2.007
 2485TIP3   OH2 7460   1.602   2.608   4.385
 2485TIP3    H1 7461   1.679   2.551   4.395
 2485TIP3    H2 7462   1.584   2.638   4.474
 2486TIP3   OH2 7463   5.374   1.851   1.215
 2486TIP3    H1 7464   5.457   1.889   1.187
 2486TIP3    H2 7465   5.308   1.904   1.172
 2487TIP3   OH2 7466   3.096   4.012   3.227
 2487TIP3    H1 7467   3.002   4.015   3.247
 2487TIP3    H2 7468   3.138   4.050   3.304
 2488TIP3   OH2 7469   2.995   4.412   3.058
 2488TIP3    H1 7470   3.043   4.388   3.137
 2488TIP3    H2 7471   2.981   4.507   3.067
 2489TIP3   OH2 7472   6.100   3.133   3.980
 2489TIP3    H1 7473   6.051   3.178   4.050
 2489TIP3    H2 7474   6.092   3.040   4.002
 2490TIP3   OH2 7475   2.072   2.089   3.166
 2490TIP3    H1 7476   2.085   2.151   3.095
 2490TIP3    H2 7477   2.141   2.108   3.229
 2491TIP3   OH2 7478   0.052   2.192   4.739
 2491TIP3    H1 7479   0.000   2.239   4.675
 2491TIP3    H2 7480   0.128   2.161   4.690
 2492TIP3   OH2 7481   3.842   0.050   2.790
 2492TIP3    H1 7482   3.892   0.098   2.724
 2492TIP3    H2 7483   3.839  -0.040   2.757
 2493TIP3   OH2 7484   4.103   1.812   3.331
 2493TIP3    H1 7485   4.121   1.719   3.319
 2493TIP3    H2 7486   4.140   1.854   3.254
 2494TIP3   OH2 7487   1.863   3.247   0.542
 2494TIP3    H1 7488   1.846   3.219   0.453
 2494TIP3    H2 7489   1.852   3.168   0.595
 2495TIP3   OH2 7490   3.042   2.984   3.766
 2495TIP3    H1 7491   2.992   3.065   3.780
 2495TIP3    H2 7492   3.055   2.979   3.672
 2496TIP3   OH2 7493   5.803   3.073   0.059
 2496TIP3    H1 7494   5.780   3.006   0.123
 2496TIP3    H2 7495   5.772   3.037  -0.025
 2497TIP3   OH2 7496   5.157   3.098   5.110
 2497TIP3    H1 7497   5.107   3.089   5.029
 2497TIP3    H2 7498   5.101   3.151   5.167
 2498TIP3   OH2 7499   3.014   1.538   3.456
 2498TIP3    H1 7500   3.035   1.627   3.428
 2498TIP3    H2 7501   3.062   1.527   3.538
 2499TIP3   OH2 7502   0.852   5.337   1.828
 2499TIP3    H1 7503   0.827   5.245   1.836
 2499TIP3    H2 7504   0.901   5.355   1.908
 2500TIP3   OH2 7505   2.451   2.355   0.219
 2500TIP3    H1 7506   2.421   2.266   0.238
 2500TIP3    H2 7507   2.371   2.401   0.191
 2501TIP3   OH2 7508   5.453   4.624   2.183
 2501TIP3    H1 7509   5.377   4.599   2.236
 2501TIP3    H2 7510   5.502   4.543   2.171
 2502TIP3   OH2 7511   4.595   0.277  -0.021
 2502TIP3    H1 7512   4.588   0.304   0.071
 2502TIP3    H2 7513   4.682   0.308  -0.048
 2503TIP3   OH2 7514   1.743   5.341   2.501
 2503TIP3    H1 7515   1.727   5.318   2.410
 2503TIP3    H2 7516   1.665   5.313   2.548
 2504TIP3   OH2 7517   5.736   2.505   1.757
 2504TIP3    H1 7518   5.750   2.482   1.666
 2504TIP3    H2 7519   5.802   2.572   1.775
 2505TIP3   OH2 7520   4.865   1.677   0.920
 2505TIP3    H1 7521   4.879   1.714   1.007
 2505TIP3    H2 7522   4.929   1.721   0.864
 2506TIP3   OH2 7523   2.669   0.146   4.757
 2506TIP3    H1 7524   2.640   0.236   4.770
 2506TIP3    H2 7525   2.752   0.141   4.806
 2507TIP3   OH2 7526   4.046   1.248   1.775
 2507TIP3    H1 7527   3.992   1.205   1.708
 2507TIP3    H2 7528   4.044   1.340   1.751
 2508TIP3   OH2 7529   0.594   5.949   2.974
 2508TIP3    H1 7530   0.621   5.921   3.061
 2508TIP3    H2 7531   0.675   5.976   2.931
 2509TIP3   OH2 7532   0.348   5.576   3.676
 2509TIP3    H1 7533   0.340   5.668   3.653
 2509TIP3    H2 7534   0.411   5.574   3.748
 2510TIP3   OH2 7535   4.691   4.637   1.878
 2510TIP3    H1 7536   4.630   4.565   1.862
 2510TIP3    H2 7537   4.664   4.705   1.816
 2511TIP3   OH2 7538   2.751   3.552   4.683
 2511TIP3    H1 7539   2.754   3.619   4.751
 2511TIP3    H2 7540   2.707   3.594   4.610
 2512TIP3   OH2 7541   3.383   4.853   3.826
 2512TIP3    H1 7542   3.423   4.784   3.880
 2512TIP3    H2 7543   3.451   4.920   3.819
 2513TIP3   OH2 7544   1.942   1.737   0.825
 2513TIP3    H1 7545   1.945   1.649   0.864
 2513TIP3    H2 7546   1.849   1.752   0.807
 2514TIP3   OH2 7547   2.658   1.607   2.658
 2514TIP3    H1 7548   2.595   1.603   2.730
 2514TIP3    H2 7549   2.608   1.582   2.580
 2515TIP3   OH2 7550   1.910   4.252   0.506
 2515TIP3    H1 7551   1.916   4.238   0.412
 2515TIP3    H2 7552   1.993   4.219   0.541
 2516TIP3   OH2 7553   5.407   4.864   2.648
 2516TIP3    H1 7554   5.425   4.860   2.554
 2516TIP3    H2 7555   5.493   4.870   2.689
 2517TIP3   OH2 7556   4.128   4.789   4.484
 2517TIP3    H1 7557   4.148   4.844   4.409
 2517TIP3    H2 7558   4.069   4.721   4.449
 2518TIP3   OH2 7559   3.140   1.395   0.744
 2518TIP3    H1 7560   3.167   1.335   0.813
 2518TIP3    H2 7561   3.107   1.338   0.674
 2519TIP3   OH2 7562   5.207   0.134   2.846
 2519TIP3    H1 7563   5.302   0.144   2.847
 2519TIP3    H2 7564   5.185   0.119   2.754
 2520TIP3   OH2 7565   1.623   1.445   2.244
 2520TIP3    H1 7566   1.648   1.357   2.216
 2520TIP3    H2 7567   1.696   1.500   2.219
 2521TIP3   OH2 7568   3.212   2.677   5.074
 2521TIP3    H1 7569   3.254   2.593   5.055
 2521TIP3    H2 7570   3.137   2.680   5.014
 2522TIP3   OH2 7571   2.372   3.850   4.660
 2522TIP3    H1 7572   2.330   3.916   4.605
 2522TIP3    H2 7573   2.400   3.898   4.738
 2523TIP3   OH2 7574   5.198   5.110   0.845
 2523TIP3    H1 7575   5.115   5.157   0.838
 2523TIP3    H2 7576   5.263   5.178   0.858
 2524TIP3   OH2 7577   0.851   2.880   3.633
 2524TIP3    H1 7578   0.880   2.906   3.721
 2524TIP3    H2 7579   0.920   2.912   3.575
 2525TIP3   OH2 7580   1.121   3.714   0.291
 2525TIP3    H1 7581   1.172   3.733   0.370
 2525TIP3    H2 7582   1.187   3.694   0.224
 2526TIP3   OH2 7583   4.175   5.523   1.852
 2526TIP3    H1 7584   4.255   5.546   1.804
 2526TIP3    H2 7585   4.110   5.507   1.783
 2527TIP3   OH2 7586   0.216   4.605   1.352
 2527TIP3    H1 7587   0.280   4.546   1.391
 2527TIP3    H2 7588   0.193   4.564   1.269
 2528TIP3   OH2 7589   4.037   1.433   3.761
 2528TIP3    H1 7590   3.968   1.449   3.825
 2528TIP3    H2 7591   4.107   1.495   3.785
 2529TIP3   OH2 7592   6.063   2.881   4.654
 2529TIP3    H1 7593   6.081   2.896   4.746
 2529TIP3    H2 7594   6.026   2.793   4.650
 2530TIP3   OH2 7595   3.584   0.697   2.421
 2530TIP3    H1 7596   3.673   0.692   2.454
 2530TIP3    H2 7597   3.530   0.717   2.497
 2531TIP3   OH2 7598   5.371   0.692   2.722
 2531TIP3    H1 7599   5.375   0.750   2.646
 2531TIP3    H2 7600   5.462   0.673   2.743
 2532TIP3   OH2 7601   1.020   1.941   0.997
 2532TIP3    H1 7602   1.065   2.004   1.054
 2532TIP3    H2 7603   0.989   1.994   0.923
 2533TIP3   OH2 7604   1.415   5.097   0.246
 2533TIP3    H1 7605   1.388   5.187   0.266
 2533TIP3    H2 7606   1.333   5.052   0.226
 2534TIP3   OH2 7607   3.063   1.554   0.442
 2534TIP3    H1 7608   3.079   1.464   0.471
 2534TIP3    H2 7609   3.118   1.564   0.364
 2535TIP3   OH2 7610   4.459   0.876   3.795
 2535TIP3    H1 7611   4.384   0.923   3.832
 2535TIP3    H2 7612   4.444   0.878   3.700
 2536TIP3   OH2 7613   1.220   0.230   3.675
 2536TIP3    H1 7614   1.284   0.166   3.644
 2536TIP3    H2 7615   1.145   0.220   3.617
 2537TIP3   OH2 7616   4.630   2.785   1.470
 2537TIP3    H1 7617   4.591   2.704   1.505
 2537TIP3    H2 7618   4.690   2.755   1.402
 2538TIP3   OH2 7619   3.748   3.280   4.614
 2538TIP3    H1 7620   3.675   3.336   4.589
 2538TIP3    H2 7621   3.709   3.216   4.674
 2539TIP3   OH2 7622   1.513   4.175   2.658
 2539TIP3    H1 7623   1.596   4.186   2.612
 2539TIP3    H2 7624   1.446   4.200   2.594
 2540TIP3   OH2 7625   4.724   5.942   2.888
 2540TIP3    H1 7626   4.801   5.889   2.867
 2540TIP3    H2 7627   4.750   5.991   2.967
 2541TIP3   OH2 7628   2.451   0.196   1.808
 2541TIP3    H1 7629   2.468   0.130   1.741
 2541TIP3    H2 7630   2.525   0.187   1.869
 2542TIP3   OH2 7631   5.663  -0.001   4.262
 2542TIP3    H1 7632   5.719   0.067   4.226
 2542TIP3    H2 7633   5.577   0.015   4.223
 2543TIP3   OH2 7634   1.712   4.078   4.655
 2543TIP3    H1 7635   1.727   4.173   4.656
 2543TIP3    H2 7636   1.795   4.040   4.680
 2544TIP3   OH2 7637   6.044   4.187   0.828
 2544TIP3    H1 7638   6.015   4.096   0.827
 2544TIP3    H2 7639   6.052   4.209   0.921
 2545TIP3   OH2 7640   2.753   3.426   0.225
 2545TIP3    H1 7641   2.821   3.404   0.161
 2545TIP3    H2 7642   2.802   3.454   0.303
 2546TIP3   OH2 7643   2.550   3.393   4.312
 2546TIP3    H1 7644   2.456   3.405   4.296
 2546TIP3    H2 7645   2.573   3.464   4.372
 2547TIP3   OH2 7646   2.471   1.745   1.597
 2547TIP3    H1 7647   2.463   1.650   1.607
 2547TIP3    H2 7648   2.386   1.780   1.625
 2548TIP3   OH2 7649   2.702   1.009   3.650
 2548TIP3    H1 7650   2.704   1.058   3.568
 2548TIP3    H2 7651   2.732   1.071   3.716
 2549TIP3   OH2 7652   1.946   0.605   2.577
 2549TIP3    H1 7653   1.940   0.517   2.540
 2549TIP3    H2 7654   1.858   0.642   2.564
 2550TIP3   OH2 7655   2.871   0.676   2.342
 2550TIP3    H1 7656   2.948   0.711   2.386
 2550TIP3    H2 7657   2.900   0.657   2.253
 2551TIP3   OH2 7658   6.314   1.987   4.911
 2551TIP3    H1 7659   6.357   2.040   4.845
 2551TIP3    H2 7660   6.385   1.946   4.960
 2552TIP3   OH2 7661   1.764   5.754   2.866
 2552TIP3    H1 7662   1.672   5.769   2.842
 2552TIP3    H2 7663   1.765   5.761   2.962
 2553TIP3   OH2 7664   4.188   4.719   4.743
 2553TIP3    H1 7665   4.155   4.729   4.654
 2553TIP3    H2 7666   4.283   4.720   4.734
 2554TIP3   OH2 7667   5.301   0.412   4.189
 2554TIP3    H1 7668   5.226   0.356   4.207
 2554TIP3    H2 7669   5.268   0.477   4.126
 2555TIP3   OH2 7670   2.691   4.648   4.939
 2555TIP3    H1 7671   2.665   4.663   5.030
 2555TIP3    H2 7672   2.644   4.569   4.914
 2556TIP3   OH2 7673   4.583   1.976   0.880
 2556TIP3    H1 7674   4.520   2.003   0.813
 2556TIP3    H2 7675   4.590   2.051   0.939
 2557TIP3   OH2 7676   0.438   0.759   0.448
 2557TIP3    H1 7677   0.374   0.710   0.397
 2557TIP3    H2 7678   0.385   0.816   0.504
 2558TIP3   OH2 7679   3.238   4.132   1.756
 2558TIP3    H1 7680   3.288   4.102   1.832
 2558TIP3    H2 7681   3.301   4.131   1.684
 2559TIP3   OH2 7682   4.906   5.894   4.582
 2559TIP3    H1 7683   4.909   5.861   4.492
 2559TIP3    H2 7684   4.836   5.960   4.582
 2560TIP3   OH2 7685   2.029   5.773   2.714
 2560TIP3    H1 7686   1.943   5.755   2.750
 2560TIP3    H2 7687   2.037   5.869   2.716
 2561TIP3   OH2 7688   2.115   2.247   1.910
 2561TIP3    H1 7689   2.165   2.320   1.945
 2561TIP3    H2 7690   2.044   2.287   1.860
 2562TIP3   OH2 7691   1.489   6.046   4.532
 2562TIP3    H1 7692   1.495   6.041   4.437
 2562TIP3    H2 7693   1.528   5.964   4.563
 2563TIP3   OH2 7694   6.019   5.931   0.619
 2563TIP3    H1 7695   6.064   5.857   0.660
 2563TIP3    H2 7696   5.929   5.926   0.651
 2564TIP3   OH2 7697   6.142   2.182   1.433
 2564TIP3    H1 7698   6.102   2.177   1.520
 2564TIP3    H2 7699   6.232   2.209   1.450
 2565TIP3   OH2 7700   0.185   0.598   4.579
 2565TIP3    H1 7701   0.178   0.691   4.603
 2565TIP3    H2 7702   0.268   0.593   4.530
 2566TIP3   OH2 7703   0.369   3.843   3.145
 2566TIP3    H1 7704   0.355   3.910   3.078
 2566TIP3    H2 7705   0.296   3.854   3.205
 2567TIP3   OH2 7706   1.663   2.462   2.006
 2567TIP3    H1 7707   1.581   2.510   1.995
 2567TIP3    H2 7708   1.690   2.482   2.096
 2568TIP3   OH2 7709   4.232   3.508   3.051
 2568TIP3    H1 7710   4.192   3.593   3.030
 2568TIP3    H2 7711   4.166   3.444   3.025
 2569TIP3   OH2 7712   0.164   1.140   4.497
 2569TIP3    H1 7713   0.078   1.152   4.458
 2569TIP3    H2 7714   0.222   1.120   4.423
 2570TIP3   OH2 7715   5.654   1.021   3.396
 2570TIP3    H1 7716   5.677   0.942   3.444
 2570TIP3    H2 7717   5.700   1.014   3.313
 2571TIP3   OH2 7718   1.871   5.624   5.026
 2571TIP3    H1 7719   1.824   5.707   5.035
 2571TIP3    H2 7720   1.961   5.649   5.004
 2572TIP3   OH2 7721   4.700   5.687   5.073
 2572TIP3    H1 7722   4.768   5.700   5.007
 2572TIP3    H2 7723   4.626   5.651   5.024
 2573TIP3   OH2 7724   0.419   2.722   5.024
 2573TIP3    H1 7725   0.346   2.766   5.068
 2573TIP3    H2 7726   0.408   2.629   5.045
 2574TIP3   OH2 7727   0.204   0.587   0.310
 2574TIP3    H1 7728   0.166   0.655   0.254
 2574TIP3    H2 7729   0.285   0.563   0.266
 2575TIP3   OH2 7730   3.722   4.112   0.560
 2575TIP3    H1 7731   3.661   4.072   0.497
 2575TIP3    H2 7732   3.806   4.068   0.543
 2576TIP3   OH2 7733   4.368   2.501   4.774
 2576TIP3    H1 7734   4.279   2.475   4.749
 2576TIP3    H2 7735   4.423   2.428   4.745
 2577TIP3   OH2 7736   1.402   5.032   5.052
 2577TIP3    H1 7737   1.320   4.985   5.071
 2577TIP3    H2 7738   1.377   5.124   5.056
 2578TIP3   OH2 7739   0.458   4.210   4.267
 2578TIP3    H1 7740   0.549   4.239   4.267
 2578TIP3    H2 7741   0.411   4.278   4.316
 2579TIP3   OH2 7742   3.877   5.139   0.905
 2579TIP3    H1 7743   3.891   5.154   0.998
 2579TIP3    H2 7744   3.950   5.082   0.879
 2580TIP3   OH2 7745   3.542   2.056   0.990
 2580TIP3    H1 7746   3.605   1.990   0.962
 2580TIP3    H2 7747   3.525   2.037   1.082
 2581TIP3   OH2 7748   5.235   0.900   1.593
 2581TIP3    H1 7749   5.189   0.959   1.532
 2581TIP3    H2 7750   5.323   0.937   1.598
 2582TIP3   OH2 7751   0.170   1.791   2.880
 2582TIP3    H1 7752   0.168   1.710   2.932
 2582TIP3    H2 7753   0.232   1.772   2.810
 2583TIP3   OH2 7754   4.832   0.618   0.542
 2583TIP3    H1 7755   4.860   0.545   0.597
 2583TIP3    H2 7756   4.872   0.600   0.456
 2584TIP3   OH2 7757   4.239   2.235   2.112
 2584TIP3    H1 7758   4.303   2.305   2.105
 2584TIP3    H2 7759   4.291   2.157   2.134
 2585TIP3   OH2 7760   5.722   2.404   2.299
 2585TIP3    H1 7761   5.779   2.479   2.282
 2585TIP3    H2 7762   5.767   2.355   2.368
 2586TIP3   OH2 7763   3.131   2.219   2.575
 2586TIP3    H1 7764   3.049   2.194   2.533
 2586TIP3    H2 7765   3.162   2.138   2.617
 2587TIP3   OH2 7766   5.141   5.447   4.206
 2587TIP3    H1 7767   5.214   5.499   4.172
 2587TIP3    H2 7768   5.176   5.359   4.214
 2588TIP3   OH2 7769   1.658   1.602   4.482
 2588TIP3    H1 7770   1.699   1.515   4.474
 2588TIP3    H2 7771   1.668   1.624   4.575
 2589TIP3   OH2 7772   4.876   2.174   4.418
 2589TIP3    H1 7773   4.929   2.238   4.465
 2589TIP3    H2 7774   4.939   2.105   4.393
 2590TIP3   OH2 7775   2.152   4.223   1.357
 2590TIP3    H1 7776   2.137   4.258   1.445
 2590TIP3    H2 7777   2.111   4.137   1.357
 2591TIP3   OH2 7778   5.405   4.516   0.943
 2591TIP3    H1 7779   5.362   4.467   0.873
 2591TIP3    H2 7780   5.354   4.497   1.021
 2592TIP3   OH2 7781   5.457   0.845   3.167
 2592TIP3    H1 7782   5.471   0.855   3.072
 2592TIP3    H2 7783   5.530   0.892   3.207
 2593TIP3   OH2 7784   1.327   4.175   2.955
 2593TIP3    H1 7785   1.318   4.090   2.998
 2593TIP3    H2 7786   1.374   4.156   2.874
 2594TIP3   OH2 7787   3.865   1.382   5.160
 2594TIP3    H1 7788   3.924   1.351   5.229
 2594TIP3    H2 7789   3.792   1.320   5.162
 2595TIP3   OH2 7790   3.616   1.126   1.124
 2595TIP3    H1 7791   3.659   1.049   1.086
 2595TIP3    H2 7792   3.596   1.182   1.048
 2596TIP3   OH2 7793   2.502   5.039   2.131
 2596TIP3    H1 7794   2.565   4.971   2.104
 2596TIP3    H2 7795   2.543   5.080   2.207
 2597TIP3   OH2 7796   1.972   0.447   3.110
 2597TIP3    H1 7797   1.975   0.364   3.061
 2597TIP3    H2 7798   1.881   0.454   3.138
 2598TIP3   OH2 7799   4.649   2.207   3.882
 2598TIP3    H1 7800   4.605   2.284   3.917
 2598TIP3    H2 7801   4.584   2.137   3.887
 2599TIP3   OH2 7802   3.858   5.082   3.777
 2599TIP3    H1 7803   3.807   5.067   3.698
 2599TIP3    H2 7804   3.942   5.114   3.746
 2600TIP3   OH2 7805   4.559   2.686   3.719
 2600TIP3    H1 7806   4.568   2.743   3.642
 2600TIP3    H2 7807   4.466   2.663   3.721
 2601TIP3   OH2 7808   1.214   5.387   4.154
 2601TIP3    H1 7809   1.291   5.389   4.210
 2601TIP3    H2 7810   1.247   5.364   4.067
 2602TIP3   OH2 7811   2.726   5.133   0.045
 2602TIP3    H1 7812   2.818   5.114   0.062
 2602TIP3    H2 7813   2.684   5.129   0.130
 2603TIP3   OH2 7814   1.873   5.799   3.385
 2603TIP3    H1 7815   1.841   5.786   3.475
 2603TIP3    H2 7816   1.874   5.894   3.374
 2604TIP3   OH2 7817   4.126   1.510   1.649
 2604TIP3    H1 7818   4.128   1.566   1.727
 2604TIP3    H2 7819   4.216   1.510   1.617
 2605TIP3   OH2 7820   3.014   4.592   2.713
 2605TIP3    H1 7821   2.958   4.589   2.636
 2605TIP3    H2 7822   3.077   4.661   2.695
 2606TIP3   OH2 7823   1.030   5.743   4.776
 2606TIP3    H1 7824   0.938   5.769   4.775
 2606TIP3    H2 7825   1.042   5.693   4.695
 2607TIP3   OH2 7826   1.589   3.031   2.933
 2607TIP3    H1 7827   1.643   2.986   2.998
 2607TIP3    H2 7828   1.511   3.059   2.982
 2608TIP3   OH2 7829   5.181   0.076   2.565
 2608TIP3    H1 7830   5.267   0.067   2.525
 2608TIP3    H2 7831   5.160   0.169   2.556
 2609TIP3   OH2 7832   2.360   5.842   3.797
 2609TIP3    H1 7833   2.441   5.799   3.770
 2609TIP3    H2 7834   2.368   5.853   3.891
 2610TIP3   OH2 7835   0.142   0.172   0.970
 2610TIP3    H1 7836   0.084   0.101   0.943
 2610TIP3    H2 7837   0.084   0.247   0.983
 2611TIP3   OH2 7838   5.153   5.895   0.115
 2611TIP3    H1 7839   5.179   5.811   0.153
 2611TIP3    H2 7840   5.234   5.933   0.082
 2612TIP3   OH2 7841   4.606   4.356   2.135
 2612TIP3    H1 7842   4.662   4.284   2.106
 2612TIP3    H2 7843   4.541   4.365   2.066
 2613TIP3   OH2 7844   5.406   1.847   1.540
 2613TIP3    H1 7845   5.354   1.834   1.619
 2613TIP3    H2 7846   5.344   1.830   1.468
 2614TIP3   OH2 7847   0.271   4.402   3.930
 2614TIP3    H1 7848   0.339   4.392   3.864
 2614TIP3    H2 7849   0.281   4.492   3.962
 2615TIP3   OH2 7850   1.731   3.482   3.048
 2615TIP3    H1 7851   1.741   3.388   3.064
 2615TIP3    H2 7852   1.645   3.504   3.083
 2616TIP3   OH2 7853   0.029   3.330   3.383
 2616TIP3    H1 7854   0.005   3.399   3.444
 2616TIP3    H2 7855  -0.032   3.341   3.309
 2617TIP3   OH2 7856   3.309   1.554   3.195
 2617TIP3    H1 7857   3.333   1.479   3.250
 2617TIP3    H2 7858   3.337   1.630   3.246
 2618TIP3   OH2 7859   1.976   5.288   1.023
 2618TIP3    H1 7860   2.010   5.362   1.074
 2618TIP3    H2 7861   1.883   5.308   1.011
 2619TIP3   OH2 7862   3.541   4.064   0.285
 2619TIP3    H1 7863   3.625   4.062   0.240
 2619TIP3    H2 7864   3.506   4.151   0.266
 2620TIP3   OH2 7865   3.590   2.229   0.760
 2620TIP3    H1 7866   3.684   2.226   0.747
 2620TIP3    H2 7867   3.572   2.157   0.821
 2621TIP3   OH2 7868   5.139   4.286   4.757
 2621TIP3    H1 7869   5.073   4.315   4.694
 2621TIP3    H2 7870   5.097   4.213   4.803
 2622TIP3   OH2 7871   2.482   4.226   1.029
 2622TIP3    H1 7872   2.520   4.314   1.025
 2622TIP3    H2 7873   2.418   4.225   0.958
 2623TIP3   OH2 7874   3.860   2.479   2.911
 2623TIP3    H1 7875   3.814   2.527   2.980
 2623TIP3    H2 7876   3.950   2.510   2.917
 2624TIP3   OH2 7877   5.259   4.462   4.030
 2624TIP3    H1 7878   5.181   4.506   4.064
 2624TIP3    H2 7879   5.297   4.419   4.107
 2625TIP3   OH2 7880   1.369   3.657   0.975
 2625TIP3    H1 7881   1.434   3.629   0.911
 2625TIP3    H2 7882   1.407   3.634   1.060
 2626TIP3   OH2 7883   6.322   3.292   1.206
 2626TIP3    H1 7884   6.264   3.216   1.207
 2626TIP3    H2 7885   6.350   3.301   1.298
 2627TIP3   OH2 7886   0.098   1.720   0.843
 2627TIP3    H1 7887   0.173   1.763   0.883
 2627TIP3    H2 7888   0.119   1.716   0.750
 2628TIP3   OH2 7889   2.287   1.573   0.525
 2628TIP3    H1 7890   2.267   1.648   0.469
 2628TIP3    H2 7891   2.354   1.525   0.476
 2629TIP3   OH2 7892   4.445   5.215   2.583
 2629TIP3    H1 7893   4.421   5.305   2.604
 2629TIP3    H2 7894   4.448   5.170   2.667
 2630TIP3   OH2 7895   5.560   5.076   1.198
 2630TIP3    H1 7896   5.470   5.106   1.210
 2630TIP3    H2 7897   5.581   5.028   1.278
 2631TIP3   OH2 7898   5.324   2.659   4.980
 2631TIP3    H1 7899   5.263   2.674   4.908
 2631TIP3    H2 7900   5.291   2.581   5.024
 2632TIP3   OH2 7901   1.417   4.508   3.079
 2632TIP3    H1 7902   1.361   4.538   3.151
 2632TIP3    H2 7903   1.506   4.528   3.107
 2633TIP3   OH2 7904   4.064   5.423   2.655
 2633TIP3    H1 7905   4.138   5.363   2.664
 2633TIP3    H2 7906   4.093   5.487   2.590
 2634TIP3   OH2 7907   6.266   0.880   0.393
 2634TIP3    H1 7908   6.311   0.961   0.371
 2634TIP3    H2 7909   6.261   0.832   0.310
 2635TIP3   OH2 7910   4.438   0.599   3.914
 2635TIP3    H1 7911   4.365   0.633   3.966
 2635TIP3    H2 7912   4.442   0.657   3.838
 2636TIP3   OH2 7913   4.611   3.197   4.150
 2636TIP3    H1 7914   4.608   3.156   4.237
 2636TIP3    H2 7915   4.618   3.123   4.089
 2637TIP3   OH2 7916   0.693   1.084   4.560
 2637TIP3    H1 7917   0.785   1.107   4.571
 2637TIP3    H2 7918   0.683   1.065   4.467
 2638TIP3   OH2 7919   3.415   3.735   4.531
 2638TIP3    H1 7920   3.349   3.696   4.588
 2638TIP3    H2 7921   3.369   3.806   4.486
 2639TIP3   OH2 7922   0.697   0.866   0.335
 2639TIP3    H1 7923   0.649   0.821   0.404
 2639TIP3    H2 7924   0.684   0.959   0.353
 2640TIP3   OH2 7925   2.803   0.440   1.151
 2640TIP3    H1 7926   2.711   0.415   1.143
 2640TIP3    H2 7927   2.801   0.535   1.160
 2641TIP3   OH2 7928   2.255   4.963   1.767
 2641TIP3    H1 7929   2.187   5.021   1.801
 2641TIP3    H2 7930   2.317   5.022   1.724
 2642TIP3   OH2 7931   2.473   0.209   0.759
 2642TIP3    H1 7932   2.509   0.298   0.766
 2642TIP3    H2 7933   2.544   0.158   0.720
 2643TIP3   OH2 7934   6.121  -0.008   2.403
 2643TIP3    H1 7935   6.068  -0.034   2.327
 2643TIP3    H2 7936   6.061   0.042   2.458
 2644TIP3   OH2 7937   0.535   1.583   4.411
 2644TIP3    H1 7938   0.475   1.547   4.346
 2644TIP3    H2 7939   0.604   1.624   4.360
 2645TIP3   OH2 7940   1.198   5.806   1.028
 2645TIP3    H1 7941   1.230   5.895   1.020
 2645TIP3    H2 7942   1.103   5.815   1.037
 2646TIP3   OH2 7943   5.767   4.131   4.532
 2646TIP3    H1 7944   5.686   4.081   4.539
 2646TIP3    H2 7945   5.770   4.158   4.440
 2647TIP3   OH2 7946   3.418   2.587   3.956
 2647TIP3    H1 7947   3.489   2.621   4.010
 2647TIP3    H2 7948   3.455   2.509   3.915
 2648TIP3   OH2 7949   1.644   1.974   3.090
 2648TIP3    H1 7950   1.629   1.913   3.017
 2648TIP3    H2 7951   1.739   1.972   3.103
 2649TIP3   OH2 7952   4.048   2.813   0.718
 2649TIP3    H1 7953   3.979   2.865   0.761
 2649TIP3    H2 7954   4.084   2.759   0.788
 2650TIP3   OH2 7955   5.252   0.865   4.611
 2650TIP3    H1 7956   5.202   0.878   4.692
 2650TIP3    H2 7957   5.215   0.928   4.549
 2651TIP3   OH2 7958   4.404   2.690   1.662
 2651TIP3    H1 7959   4.444   2.606   1.638
 2651TIP3    H2 7960   4.476   2.741   1.700
 2652TIP3   OH2 7961   3.096   0.686   3.173
 2652TIP3    H1 7962   3.145   0.765   3.149
 2652TIP3    H2 7963   3.160   0.615   3.168
 2653TIP3   OH2 7964   4.867   1.398   0.869
 2653TIP3    H1 7965   4.852   1.487   0.902
 2653TIP3    H2 7966   4.891   1.411   0.777
 2654TIP3   OH2 7967   5.385   1.030   4.973
 2654TIP3    H1 7968   5.357   1.094   4.908
 2654TIP3    H2 7969   5.325   1.043   5.047
 2655TIP3   OH2 7970   4.608   4.503   0.409
 2655TIP3    H1 7971   4.600   4.549   0.326
 2655TIP3    H2 7972   4.576   4.566   0.474
 2656TIP3   OH2 7973   1.880   3.250   2.663
 2656TIP3    H1 7974   1.871   3.268   2.569
 2656TIP3    H2 7975   1.875   3.336   2.705
 2657TIP3   OH2 7976   5.997   4.605   4.018
 2657TIP3    H1 7977   5.928   4.660   4.055
 2657TIP3    H2 7978   5.955   4.556   3.948
 2658TIP3   OH2 7979   4.098   4.739   1.814
 2658TIP3    H1 7980   4.156   4.811   1.837
 2658TIP3    H2 7981   4.028   4.780   1.764
 2659TIP3   OH2 7982   1.293   1.248   3.908
 2659TIP3    H1 7983   1.366   1.192   3.881
 2659TIP3    H2 7984   1.219   1.216   3.855
 2660TIP3   OH2 7985   0.069   3.416   3.029
 2660TIP3    H1 7986   0.025   3.452   2.952
 2660TIP3    H2 7987   0.148   3.375   2.993
 2661TIP3   OH2 7988   4.944   1.247   1.115
 2661TIP3    H1 7989   5.029   1.290   1.127
 2661TIP3    H2 7990   4.905   1.294   1.041
 2662TIP3   OH2 7991   5.182   0.633   2.083
 2662TIP3    H1 7992   5.273   0.660   2.098
 2662TIP3    H2 7993   5.186   0.538   2.079
 2663TIP3   OH2 7994   1.054   0.215   4.179
 2663TIP3    H1 7995   1.037   0.309   4.177
 2663TIP3    H2 7996   1.117   0.200   4.108
 2664TIP3   OH2 7997   0.935   1.257   4.528
 2664TIP3    H1 7998   0.904   1.321   4.592
 2664TIP3    H2 7999   1.022   1.233   4.559
 2665TIP3   OH2 8000   3.354   1.966   2.648
 2665TIP3    H1 8001   3.396   2.019   2.579
 2665TIP3    H2 8002   3.423   1.951   2.712
 2666TIP3   OH2 8003   0.061   1.622   1.461
 2666TIP3    H1 8004   0.156   1.621   1.473
 2666TIP3    H2 8005   0.039   1.531   1.438
 2667TIP3   OH2 8006   1.779   0.917   1.978
 2667TIP3    H1 8007   1.871   0.916   1.950
 2667TIP3    H2 8008   1.760   0.826   2.001
 2668TIP3   OH2 8009   6.351   2.910   2.995
 2668TIP3    H1 8010   6.266   2.901   3.039
 2668TIP3    H2 8011   6.331   2.903   2.902
 2669TIP3   OH2 8012   1.035   5.938   1.585
 2669TIP3    H1 8013   1.040   5.868   1.650
 2669TIP3    H2 8014   1.102   5.916   1.521
 2670TIP3   OH2 8015   4.898   2.372   0.276
 2670TIP3    H1 8016   4.966   2.308   0.256
 2670TIP3    H2 8017   4.838   2.367   0.201
 2671TIP3   OH2 8018   2.872   4.656   2.178
 2671TIP3    H1 8019   2.900   4.639   2.087
 2671TIP3    H2 8020   2.953   4.682   2.223
 2672TIP3   OH2 8021   0.487   0.410   2.876
 2672TIP3    H1 8022   0.455   0.434   2.963
 2672TIP3    H2 8023   0.575   0.447   2.872
 2673TIP3   OH2 8024   0.505   4.392   4.508
 2673TIP3    H1 8025   0.433   4.454   4.502
 2673TIP3    H2 8026   0.561   4.426   4.578
 2674TIP3   OH2 8027   2.312   0.509   3.477
 2674TIP3    H1 8028   2.378   0.557   3.527
 2674TIP3    H2 8029   2.357   0.481   3.397
 2675TIP3   OH2 8030   6.015   0.250   3.886
 2675TIP3    H1 8031   6.058   0.249   3.801
 2675TIP3    H2 8032   6.015   0.342   3.911
 2676TIP3   OH2 8033   6.326   0.448   0.235
 2676TIP3    H1 8034   6.289   0.522   0.186
 2676TIP3    H2 8035   6.406   0.484   0.275
 2677TIP3   OH2 8036   4.950   0.328   0.327
 2677TIP3    H1 8037   5.014   0.399   0.331
 2677TIP3    H2 8038   4.998   0.254   0.289
 2678TIP3   OH2 8039   5.067   1.439   1.929
 2678TIP3    H1 8040   4.998   1.374   1.913
 2678TIP3    H2 8041   5.026   1.504   1.986
 2679TIP3   OH2 8042   6.052   2.629   2.542
 2679TIP3    H1 8043   6.126   2.581   2.505
 2679TIP3    H2 8044   5.990   2.637   2.469
 2680TIP3   OH2 8045   1.174   0.990   2.675
 2680TIP3    H1 8046   1.084   1.018   2.687
 2680TIP3    H2 8047   1.222   1.031   2.747
 2681TIP3   OH2 8048   3.901   3.382   4.868
 2681TIP3    H1 8049   3.851   3.336   4.801
 2681TIP3    H2 8050   3.905   3.321   4.942
 2682TIP3   OH2 8051   5.349   0.027   3.950
 2682TIP3    H1 8052   5.404   0.045   3.874
 2682TIP3    H2 8053   5.361  -0.067   3.966
 2683TIP3   OH2 8054   2.615   1.514   0.956
 2683TIP3    H1 8055   2.539   1.458   0.939
 2683TIP3    H2 8056   2.582   1.579   1.019
 2684TIP3   OH2 8057   2.159   3.940   1.715
 2684TIP3    H1 8058   2.154   3.888   1.635
 2684TIP3    H2 8059   2.238   3.910   1.759
 2685TIP3   OH2 8060   0.216   0.012   0.019
 2685TIP3    H1 8061   0.135  -0.011  -0.026
 2685TIP3    H2 8062   0.260   0.074  -0.039
 2686TIP3   OH2 8063   4.727   2.724   1.229
 2686TIP3    H1 8064   4.814   2.730   1.266
 2686TIP3    H2 8065   4.719   2.803   1.174
 2687TIP3   OH2 8066   3.449   0.697   3.078
 2687TIP3    H1 8067   3.409   0.743   3.152
 2687TIP3    H2 8068   3.516   0.641   3.118
 2688TIP3   OH2 8069   1.021   1.929   2.055
 2688TIP3    H1 8070   1.051   1.941   1.965
 2688TIP3    H2 8071   1.088   1.874   2.095
 2689TIP3   OH2 8072   5.185   3.587   0.294
 2689TIP3    H1 8073   5.205   3.640   0.371
 2689TIP3    H2 8074   5.182   3.497   0.327
 2690TIP3   OH2 8075   0.518   4.304   3.371
 2690TIP3    H1 8076   0.433   4.274   3.404
 2690TIP3    H2 8077   0.497   4.359   3.295
 2691TIP3   OH2 8078   1.171   5.200   2.715
 2691TIP3    H1 8079   1.187   5.128   2.654
 2691TIP3    H2 8080   1.099   5.169   2.771
 2692TIP3   OH2 8081   5.794   5.927   1.933
 2692TIP3    H1 8082   5.798   5.891   1.844
 2692TIP3    H2 8083   5.725   5.992   1.930
 2693TIP3   OH2 8084   3.353   4.539   1.172
 2693TIP3    H1 8085   3.267   4.565   1.205
 2693TIP3    H2 8086   3.405   4.619   1.172
 2694TIP3   OH2 8087   3.888   1.350   3.046
 2694TIP3    H1 8088   3.837   1.430   3.037
 2694TIP3    H2 8089   3.854   1.308   3.124
 2695TIP3   OH2 8090   3.720   4.787   2.288
 2695TIP3    H1 8091   3.713   4.835   2.206
 2695TIP3    H2 8092   3.652   4.720   2.283
 2696TIP3   OH2 8093   2.266   1.687   3.150
 2696TIP3    H1 8094   2.246   1.706   3.058
 2696TIP3    H2 8095   2.362   1.683   3.153
 2697TIP3   OH2 8096   2.744   2.543   2.059
 2697TIP3    H1 8097   2.680   2.608   2.087
 2697TIP3    H2 8098   2.729   2.533   1.965
 2698TIP3   OH2 8099   2.628   5.151   1.911
 2698TIP3    H1 8100   2.612   5.090   1.839
 2698TIP3    H2 8101   2.547   5.147   1.963
 2699TIP3   OH2 8102   2.951   0.522   4.124
 2699TIP3    H1 8103   2.870   0.535   4.075
 2699TIP3    H2 8104   2.966   0.427   4.120
 2700TIP3   OH2 8105   1.044   5.203   1.444
 2700TIP3    H1 8106   1.100   5.178   1.371
 2700TIP3    H2 8107   1.103   5.247   1.506
 2701TIP3   OH2 8108   2.674   0.397   0.476
 2701TIP3    H1 8109   2.648   0.459   0.408
 2701TIP3    H2 8110   2.655   0.442   0.559
 2702TIP3   OH2 8111   6.033   4.069   2.280
 2702TIP3    H1 8112   5.973   3.998   2.302
 2702TIP3    H2 8113   6.103   4.028   2.230
 2703TIP3   OH2 8114   2.858   2.323   3.384
 2703TIP3    H1 8115   2.843   2.401   3.438
 2703TIP3    H2 8116   2.948   2.296   3.406
 2704TIP3   OH2 8117   6.062   0.219   2.186
 2704TIP3    H1 8118   6.116   0.167   2.245
 2704TIP3    H2 8119   6.109   0.220   2.104
 2705TIP3   OH2 8120   0.136   1.171   2.257
 2705TIP3    H1 8121   0.189   1.217   2.322
 2705TIP3    H2 8122   0.169   1.081   2.259
 2706TIP3   OH2 8123   4.094   2.258   5.235
 2706TIP3    H1 8124   4.173   2.215   5.202
 2706TIP3    H2 8125   4.069   2.318   5.165
 2707TIP3   OH2 8126   1.547   2.306   4.039
 2707TIP3    H1 8127   1.596   2.384   4.014
 2707TIP3    H2 8128   1.504   2.331   4.121
 2708TIP3   OH2 8129   3.781   3.768   2.211
 2708TIP3    H1 8130   3.863   3.809   2.182
 2708TIP3    H2 8131   3.759   3.706   2.141
 2709TIP3   OH2 8132   0.641   3.699   4.754
 2709TIP3    H1 8133   0.678   3.724   4.669
 2709TIP3    H2 8134   0.651   3.777   4.808
 2710TIP3   OH2 8135   1.804   2.533   4.808
 2710TIP3    H1 8136   1.811   2.535   4.903
 2710TIP3    H2 8137   1.862   2.604   4.779
 2711TIP3   OH2 8138   3.923   0.065   4.620
 2711TIP3    H1 8139   3.925  -0.011   4.677
 2711TIP3    H2 8140   3.864   0.127   4.664
 2712TIP3   OH2 8141   2.022   2.832   0.572
 2712TIP3    H1 8142   1.930   2.855   0.562
 2712TIP3    H2 8143   2.069   2.912   0.546
 2713TIP3   OH2 8144   4.481   0.808   2.726
 2713TIP3    H1 8145   4.416   0.869   2.694
 2713TIP3    H2 8146   4.561   0.830   2.677
 2714TIP3   OH2 8147   0.698   6.018   1.960
 2714TIP3    H1 8148   0.761   5.947   1.976
 2714TIP3    H2 8149   0.613   5.979   1.983
 2715TIP3   OH2 8150   5.628   5.726   0.407
 2715TIP3    H1 8151   5.705   5.740   0.353
 2715TIP3    H2 8152   5.603   5.635   0.391
 2716TIP3   OH2 8153   3.563   4.716   1.157
 2716TIP3    H1 8154   3.557   4.772   1.080
 2716TIP3    H2 8155   3.597   4.773   1.226
 2717TIP3   OH2 8156   3.528   3.389   3.995
 2717TIP3    H1 8157   3.559   3.389   3.905
 2717TIP3    H2 8158   3.577   3.460   4.037
 2718TIP3   OH2 8159   1.524   5.739   0.198
 2718TIP3    H1 8160   1.493   5.668   0.141
 2718TIP3    H2 8161   1.573   5.695   0.267
 2719TIP3   OH2 8162   6.203   4.435   0.992
 2719TIP3    H1 8163   6.217   4.343   1.014
 2719TIP3    H2 8164   6.248   4.447   0.908
 2720TIP3   OH2 8165   4.949   4.967   0.093
 2720TIP3    H1 8166   4.964   5.046   0.145
 2720TIP3    H2 8167   4.890   4.913   0.147
 2721TIP3   OH2 8168   2.098   3.617   0.964
 2721TIP3    H1 8169   2.078   3.533   1.006
 2721TIP3    H2 8170   2.189   3.607   0.934
 2722TIP3   OH2 8171   3.755   3.043   2.667
 2722TIP3    H1 8172   3.773   3.019   2.577
 2722TIP3    H2 8173   3.835   3.023   2.714
 2723TIP3   OH2 8174   6.352   5.045   0.548
 2723TIP3    H1 8175   6.408   5.096   0.489
 2723TIP3    H2 8176   6.346   4.959   0.506
 2724TIP3   OH2 8177   2.345   4.265   4.208
 2724TIP3    H1 8178   2.320   4.358   4.216
 2724TIP3    H2 8179   2.413   4.253   4.274
 2725TIP3   OH2 8180   3.142   2.338   2.952
 2725TIP3    H1 8181   3.208   2.289   2.902
 2725TIP3    H2 8182   3.181   2.424   2.967
 2726TIP3   OH2 8183   0.417   1.794   1.316
 2726TIP3    H1 8184   0.402   1.867   1.376
 2726TIP3    H2 8185   0.492   1.822   1.262
 2727TIP3   OH2 8186   3.304   3.326   1.927
 2727TIP3    H1 8187   3.223   3.363   1.892
 2727TIP3    H2 8188   3.368   3.333   1.856
 2728TIP3   OH2 8189   4.128   4.111   1.677
 2728TIP3    H1 8190   4.152   4.050   1.747
 2728TIP3    H2 8191   4.035   4.097   1.664
 2729TIP3   OH2 8192   4.851   3.286   0.985
 2729TIP3    H1 8193   4.903   3.213   1.019
 2729TIP3    H2 8194   4.800   3.248   0.913
 2730TIP3   OH2 8195   5.971   3.772   4.958
 2730TIP3    H1 8196   6.053   3.805   4.996
 2730TIP3    H2 8197   5.996   3.742   4.871
 2731TIP3   OH2 8198   0.817   3.618   3.510
 2731TIP3    H1 8199   0.908   3.606   3.537
 2731TIP3    H2 8200   0.772   3.539   3.542
 2732TIP3   OH2 8201   4.798   5.311   3.373
 2732TIP3    H1 8202   4.871   5.288   3.431
 2732TIP3    H2 8203   4.822   5.272   3.289
 2733TIP3   OH2 8204   4.383   3.260   4.465
 2733TIP3    H1 8205   4.291   3.234   4.470
 2733TIP3    H2 8206   4.380   3.356   4.459
 2734TIP3   OH2 8207   0.393   2.660   1.498
 2734TIP3    H1 8208   0.314   2.700   1.461
 2734TIP3    H2 8209   0.449   2.645   1.422
 2735TIP3   OH2 8210   1.220   1.890   5.031
 2735TIP3    H1 8211   1.126   1.886   5.047
 2735TIP3    H2 8212   1.251   1.801   5.043
 2736TIP3   OH2 8213   1.420   0.758   4.166
 2736TIP3    H1 8214   1.465   0.843   4.162
 2736TIP3    H2 8215   1.482   0.697   4.126
 2737TIP3   OH2 8216   2.452   4.709   2.033
 2737TIP3    H1 8217   2.540   4.735   2.061
 2737TIP3    H2 8218   2.461   4.695   1.938
 2738TIP3   OH2 8219   2.958   1.171   0.882
 2738TIP3    H1 8220   3.041   1.127   0.897
 2738TIP3    H2 8221   2.916   1.175   0.968
 2739TIP3   OH2 8222   4.033   2.462   1.347
 2739TIP3    H1 8223   3.961   2.524   1.333
 2739TIP3    H2 8224   3.996   2.377   1.323
 2740TIP3   OH2 8225   2.696   5.820   3.109
 2740TIP3    H1 8226   2.606   5.846   3.129
 2740TIP3    H2 8227   2.728   5.888   3.050
 2741TIP3   OH2 8228   4.068   3.011   0.197
 2741TIP3    H1 8229   4.090   3.015   0.104
 2741TIP3    H2 8230   4.000   3.077   0.208
 2742TIP3   OH2 8231   1.977   4.089   3.457
 2742TIP3    H1 8232   1.919   4.052   3.524
 2742TIP3    H2 8233   2.021   4.014   3.418
 2743TIP3   OH2 8234   3.292   4.368   1.425
 2743TIP3    H1 8235   3.284   4.455   1.386
 2743TIP3    H2 8236   3.205   4.349   1.460
 2744TIP3   OH2 8237   5.299   4.866   1.178
 2744TIP3    H1 8238   5.303   4.961   1.173
 2744TIP3    H2 8239   5.305   4.846   1.271
 2745TIP3   OH2 8240   1.964   2.485   2.163
 2745TIP3    H1 8241   1.896   2.452   2.222
 2745TIP3    H2 8242   1.916   2.529   2.093
 2746TIP3   OH2 8243   3.080   3.289   3.428
 2746TIP3    H1 8244   3.038   3.375   3.435
 2746TIP3    H2 8245   3.061   3.260   3.339
 2747TIP3   OH2 8246   5.432   5.958   2.580
 2747TIP3    H1 8247   5.468   5.871   2.601
 2747TIP3    H2 8248   5.483   5.987   2.505
 2748TIP3   OH2 8249   2.097   0.726   3.544
 2748TIP3    H1 8250   2.031   0.759   3.483
 2748TIP3    H2 8251   2.089   0.631   3.538
 2749TIP3   OH2 8252   3.125   4.839   0.682
 2749TIP3    H1 8253   3.069   4.762   0.695
 2749TIP3    H2 8254   3.212   4.809   0.706
 2750TIP3   OH2 8255   3.267   1.693   2.968
 2750TIP3    H1 8256   3.258   1.631   3.041
 2750TIP3    H2 8257   3.228   1.648   2.893
 2751TIP3   OH2 8258   0.196   5.979   1.597
 2751TIP3    H1 8259   0.167   5.954   1.685
 2751TIP3    H2 8260   0.230   5.898   1.560
 2752TIP3   OH2 8261   5.259   5.720   2.335
 2752TIP3    H1 8262   5.330   5.744   2.275
 2752TIP3    H2 8263   5.179   5.738   2.286
 2753TIP3   OH2 8264   6.032   2.016   0.025
 2753TIP3    H1 8265   5.949   2.063   0.035
 2753TIP3    H2 8266   6.008   1.924   0.037
 2754TIP3   OH2 8267   0.442   2.312   3.698
 2754TIP3    H1 8268   0.351   2.293   3.676
 2754TIP3    H2 8269   0.437   2.380   3.765
 2755TIP3   OH2 8270   5.542   0.497   2.030
 2755TIP3    H1 8271   5.509   0.522   1.943
 2755TIP3    H2 8272   5.636   0.511   2.025
 2756TIP3   OH2 8273   2.733   4.096   0.977
 2756TIP3    H1 8274   2.777   4.137   1.052
 2756TIP3    H2 8275   2.653   4.147   0.965
 2757TIP3   OH2 8276   0.138   1.334   1.741
 2757TIP3    H1 8277   0.044   1.338   1.725
 2757TIP3    H2 8278   0.146   1.302   1.830
 2758TIP3   OH2 8279   5.718   4.815   4.738
 2758TIP3    H1 8280   5.802   4.770   4.745
 2758TIP3    H2 8281   5.669   4.764   4.674
 2759TIP3   OH2 8282   4.425   5.233   5.108
 2759TIP3    H1 8283   4.474   5.315   5.117
 2759TIP3    H2 8284   4.358   5.252   5.042
 2760TIP3   OH2 8285   2.272   0.924   5.134
 2760TIP3    H1 8286   2.366   0.930   5.116
 2760TIP3    H2 8287   2.234   0.891   5.052
 2761TIP3   OH2 8288   4.406   1.885   1.759
 2761TIP3    H1 8289   4.354   1.954   1.800
 2761TIP3    H2 8290   4.484   1.879   1.814
 2762TIP3   OH2 8291   1.273   0.325   0.160
 2762TIP3    H1 8292   1.238   0.286   0.081
 2762TIP3    H2 8293   1.201   0.378   0.195
 2763TIP3   OH2 8294   0.892   4.248   0.438
 2763TIP3    H1 8295   0.881   4.230   0.531
 2763TIP3    H2 8296   0.971   4.199   0.413
 2764TIP3   OH2 8297   4.411   1.271   1.557
 2764TIP3    H1 8298   4.367   1.206   1.501
 2764TIP3    H2 8299   4.441   1.338   1.496
 2765TIP3   OH2 8300   2.008   4.815   2.050
 2765TIP3    H1 8301   2.092   4.821   2.095
 2765TIP3    H2 8302   1.951   4.767   2.111
 2766TIP3   OH2 8303   2.875   1.207   2.593
 2766TIP3    H1 8304   2.906   1.276   2.535
 2766TIP3    H2 8305   2.849   1.136   2.535
 2767TIP3   OH2 8306   2.358   2.364   3.771
 2767TIP3    H1 8307   2.342   2.318   3.854
 2767TIP3    H2 8308   2.444   2.333   3.743
 2768TIP3   OH2 8309   5.124   4.119   1.246
 2768TIP3    H1 8310   5.187   4.058   1.207
 2768TIP3    H2 8311   5.077   4.156   1.172
 2769TIP3   OH2 8312   2.708   3.128   2.901
 2769TIP3    H1 8313   2.743   3.212   2.870
 2769TIP3    H2 8314   2.785   3.078   2.928
 2770TIP3   OH2 8315   3.672   5.681   0.144
 2770TIP3    H1 8316   3.696   5.772   0.161
 2770TIP3    H2 8317   3.706   5.663   0.056
 2771TIP3   OH2 8318   1.657   3.785   0.658
 2771TIP3    H1 8319   1.638   3.812   0.748
 2771TIP3    H2 8320   1.752   3.771   0.657
 2772TIP3   OH2 8321   0.338   3.673   4.801
 2772TIP3    H1 8322   0.431   3.666   4.780
 2772TIP3    H2 8323   0.299   3.713   4.724
 2773TIP3   OH2 8324   5.578   0.437   4.072
 2773TIP3    H1 8325   5.492   0.420   4.111
 2773TIP3    H2 8326   5.627   0.480   4.142
 2774TIP3   OH2 8327   0.224   3.386   1.907
 2774TIP3    H1 8328   0.273   3.359   1.985
 2774TIP3    H2 8329   0.256   3.475   1.889
 2775TIP3   OH2 8330   1.613   0.010   0.201
 2775TIP3    H1 8331   1.593   0.007   0.107
 2775TIP3    H2 8332   1.569   0.089   0.232
 2776TIP3   OH2 8333   4.173   5.945   4.777
 2776TIP3    H1 8334   4.137   5.883   4.714
 2776TIP3    H2 8335   4.131   5.921   4.860
 2777TIP3   OH2 8336   4.370   1.580   3.562
 2777TIP3    H1 8337   4.438   1.600   3.625
 2777TIP3    H2 8338   4.385   1.488   3.539
 2778TIP3   OH2 8339   4.346   5.433   1.335
 2778TIP3    H1 8340   4.272   5.373   1.338
 2778TIP3    H2 8341   4.358   5.461   1.426
 2779TIP3   OH2 8342   4.843   5.666   2.212
 2779TIP3    H1 8343   4.797   5.636   2.134
 2779TIP3    H2 8344   4.914   5.721   2.179
 2780TIP3   OH2 8345   3.769   5.114   4.818
 2780TIP3    H1 8346   3.747   5.106   4.911
 2780TIP3    H2 8347   3.843   5.056   4.806
 2781TIP3   OH2 8348   4.243   1.907   0.907
 2781TIP3    H1 8349   4.324   1.941   0.867
 2781TIP3    H2 8350   4.215   1.976   0.967
 2782TIP3   OH2 8351   0.268   5.803   3.052
 2782TIP3    H1 8352   0.185   5.817   3.097
 2782TIP3    H2 8353   0.276   5.878   2.993
 2783TIP3   OH2 8354   1.223   0.845   3.384
 2783TIP3    H1 8355   1.298   0.849   3.444
 2783TIP3    H2 8356   1.263   0.839   3.297
 2784TIP3   OH2 8357   1.665   0.020   1.564
 2784TIP3    H1 8358   1.597   0.079   1.534
 2784TIP3    H2 8359   1.733   0.024   1.496
 2785TIP3   OH2 8360   5.483   3.701   0.257
 2785TIP3    H1 8361   5.466   3.607   0.247
 2785TIP3    H2 8362   5.438   3.725   0.338
 2786TIP3   OH2 8363   4.697   0.819   4.248
 2786TIP3    H1 8364   4.717   0.830   4.155
 2786TIP3    H2 8365   4.665   0.905   4.276
 2787TIP3   OH2 8366   4.854   3.511   2.013
 2787TIP3    H1 8367   4.917   3.497   1.942
 2787TIP3    H2 8368   4.827   3.423   2.038
 2788TIP3   OH2 8369   3.171   3.181   4.202
 2788TIP3    H1 8370   3.180   3.276   4.203
 2788TIP3    H2 8371   3.213   3.154   4.120
 2789TIP3   OH2 8372   1.758   3.906   4.154
 2789TIP3    H1 8373   1.720   3.819   4.142
 2789TIP3    H2 8374   1.768   3.915   4.249
 2790TIP3   OH2 8375   2.151   3.084   3.028
 2790TIP3    H1 8376   2.117   3.008   2.980
 2790TIP3    H2 8377   2.228   3.111   2.976
 2791TIP3   OH2 8378   4.585   5.668   3.811
 2791TIP3    H1 8379   4.526   5.692   3.883
 2791TIP3    H2 8380   4.672   5.669   3.850
 2792TIP3   OH2 8381   5.185   1.332   1.704
 2792TIP3    H1 8382   5.141   1.249   1.685
 2792TIP3    H2 8383   5.136   1.368   1.778
 2793TIP3   OH2 8384   5.318   4.116   1.005
 2793TIP3    H1 8385   5.404   4.128   0.967
 2793TIP3    H2 8386   5.260   4.103   0.930
 2794TIP3   OH2 8387   4.970   2.372   0.544
 2794TIP3    H1 8388   4.935   2.345   0.459
 2794TIP3    H2 8389   4.917   2.448   0.569
 2795TIP3   OH2 8390   0.348   0.033   1.411
 2795TIP3    H1 8391   0.329  -0.025   1.485
 2795TIP3    H2 8392   0.443   0.045   1.414
 2796TIP3   OH2 8393   6.163   4.195   4.616
 2796TIP3    H1 8394   6.098   4.169   4.552
 2796TIP3    H2 8395   6.159   4.290   4.618
 2797TIP3   OH2 8396   3.620   5.276   3.697
 2797TIP3    H1 8397   3.686   5.269   3.629
 2797TIP3    H2 8398   3.635   5.362   3.737
 2798TIP3   OH2 8399   0.166   0.893   5.018
 2798TIP3    H1 8400   0.217   0.812   5.025
 2798TIP3    H2 8401   0.228   0.958   4.987
 2799TIP3   OH2 8402   3.095   1.367   1.995
 2799TIP3    H1 8403   3.034   1.380   1.923
 2799TIP3    H2 8404   3.086   1.274   2.017
 2800TIP3   OH2 8405   5.350   1.860   2.277
 2800TIP3    H1 8406   5.292   1.808   2.222
 2800TIP3    H2 8407   5.338   1.823   2.365
 2801TIP3   OH2 8408   5.088   0.568   2.582
 2801TIP3    H1 8409   5.142   0.588   2.658
 2801TIP3    H2 8410   5.090   0.473   2.575
 2802TIP3   OH2 8411   5.365   0.101   2.360
 2802TIP3    H1 8412   5.406   0.163   2.299
 2802TIP3    H2 8413   5.302   0.053   2.306
 2803TIP3   OH2 8414   5.071   1.631   2.845
 2803TIP3    H1 8415   4.993   1.681   2.867
 2803TIP3    H2 8416   5.144   1.691   2.860
 2804TIP3   OH2 8417   4.226   5.591   2.440
 2804TIP3    H1 8418   4.244   5.685   2.438
 2804TIP3    H2 8419   4.304   5.552   2.479
 2805TIP3   OH2 8420   0.297   4.922   2.221
 2805TIP3    H1 8421   0.295   4.981   2.145
 2805TIP3    H2 8422   0.276   4.836   2.184
 2806TIP3   OH2 8423   5.003   2.784   1.296
 2806TIP3    H1 8424   5.055   2.857   1.328
 2806TIP3    H2 8425   5.067   2.727   1.252
 2807TIP3   OH2 8426   0.275   1.555   3.990
 2807TIP3    H1 8427   0.256   1.633   3.938
 2807TIP3    H2 8428   0.352   1.580   4.042
 2808TIP3   OH2 8429   3.986   4.499   0.496
 2808TIP3    H1 8430   4.075   4.472   0.471
 2808TIP3    H2 8431   3.950   4.540   0.417
 2809TIP3   OH2 8432   6.253   3.242   5.006
 2809TIP3    H1 8433   6.254   3.167   5.065
 2809TIP3    H2 8434   6.343   3.276   5.009
 2810TIP3   OH2 8435   4.137   3.150   4.384
 2810TIP3    H1 8436   4.213   3.095   4.370
 2810TIP3    H2 8437   4.063   3.099   4.351
 2811TIP3   OH2 8438   2.150   3.187   4.267
 2811TIP3    H1 8439   2.186   3.152   4.185
 2811TIP3    H2 8440   2.080   3.126   4.290
 2812TIP3   OH2 8441   0.952   1.843   5.046
 2812TIP3    H1 8442   0.957   1.823   4.952
 2812TIP3    H2 8443   0.889   1.781   5.081
 2813TIP3   OH2 8444   1.425   3.774   3.108
 2813TIP3    H1 8445   1.346   3.828   3.103
 2813TIP3    H2 8446   1.496   3.834   3.086
 2814TIP3   OH2 8447   4.607   0.848   1.837
 2814TIP3    H1 8448   4.512   0.854   1.841
 2814TIP3    H2 8449   4.638   0.929   1.878
 2815TIP3   OH2 8450   1.798   1.851   1.673
 2815TIP3    H1 8451   1.720   1.887   1.631
 2815TIP3    H2 8452   1.766   1.812   1.755
 2816TIP3   OH2 8453   0.096   0.504   0.572
 2816TIP3    H1 8454   0.110   0.563   0.498
 2816TIP3    H2 8455   0.153   0.429   0.554
 2817TIP3   OH2 8456   3.878   2.282   0.659
 2817TIP3    H1 8457   3.877   2.375   0.682
 2817TIP3    H2 8458   3.898   2.237   0.741
 2818TIP3   OH2 8459   6.205   6.049   0.021
 2818TIP3    H1 8460   6.222   6.001   0.103
 2818TIP3    H2 8461   6.247   5.996  -0.046
 2819TIP3   OH2 8462   5.463   0.136   4.686
 2819TIP3    H1 8463   5.538   0.192   4.667
 2819TIP3    H2 8464   5.387   0.195   4.679
 2820TIP3   OH2 8465   5.728   1.310   0.856
 2820TIP3    H1 8466   5.661   1.286   0.919
 2820TIP3    H2 8467   5.800   1.344   0.909
 2821TIP3   OH2 8468   1.562   4.193   0.091
 2821TIP3    H1 8469   1.641   4.221   0.044
 2821TIP3    H2 8470   1.514   4.140   0.027
 2822TIP3   OH2 8471   4.438   5.767   0.145
 2822TIP3    H1 8472   4.448   5.861   0.129
 2822TIP3    H2 8473   4.522   5.739   0.181
 2823TIP3   OH2 8474   5.339  -0.007   3.290
 2823TIP3    H1 8475   5.263   0.043   3.320
 2823TIP3    H2 8476   5.407   0.012   3.355
 2824TIP3   OH2 8477   4.374   1.037   2.268
 2824TIP3    H1 8478   4.444   0.977   2.244
 2824TIP3    H2 8479   4.337   1.066   2.185
 2825TIP3   OH2 8480   2.725   2.237   2.327
 2825TIP3    H1 8481   2.796   2.214   2.386
 2825TIP3    H2 8482   2.697   2.324   2.356
 2826TIP3   OH2 8483   1.162   1.706   2.100
 2826TIP3    H1 8484   1.100   1.654   2.150
 2826TIP3    H2 8485   1.229   1.644   2.071
 2827TIP3   OH2 8486   2.440   4.369   3.341
 2827TIP3    H1 8487   2.504   4.328   3.284
 2827TIP3    H2 8488   2.488   4.442   3.382
 2828TIP3   OH2 8489   1.875   0.782   4.423
 2828TIP3    H1 8490   1.890   0.712   4.487
 2828TIP3    H2 8491   1.909   0.861   4.466
 2829TIP3   OH2 8492   5.090   3.439   0.910
 2829TIP3    H1 8493   5.144   3.381   0.857
 2829TIP3    H2 8494   5.003   3.402   0.906
 2830TIP3   OH2 8495   0.038   1.941   3.498
 2830TIP3    H1 8496   0.062   1.938   3.405
 2830TIP3    H2 8497  -0.055   1.962   3.498
 2831TIP3   OH2 8498   4.520   5.204   4.436
 2831TIP3    H1 8499   4.474   5.145   4.497
 2831TIP3    H2 8500   4.548   5.278   4.491
 2832TIP3   OH2 8501   2.124   0.230   3.624
 2832TIP3    H1 8502   2.108   0.136   3.622
 2832TIP3    H2 8503   2.220   0.238   3.617
 2833TIP3   OH2 8504   6.049   1.273   5.164
 2833TIP3    H1 8505   6.070   1.312   5.079
 2833TIP3    H2 8506   6.123   1.215   5.183
 2834TIP3   OH2 8507   2.524   0.645   3.607
 2834TIP3    H1 8508   2.596   0.666   3.547
 2834TIP3    H2 8509   2.557   0.671   3.694
 2835TIP3   OH2 8510   4.254   5.536   2.960
 2835TIP3    H1 8511   4.221   5.451   2.989
 2835TIP3    H2 8512   4.204   5.555   2.881
 2836TIP3   OH2 8513   6.107   5.410   0.915
 2836TIP3    H1 8514   6.090   5.421   0.821
 2836TIP3    H2 8515   6.055   5.333   0.938
 2837TIP3   OH2 8516   4.357   2.271   5.156
 2837TIP3    H1 8517   4.350   2.329   5.232
 2837TIP3    H2 8518   4.444   2.289   5.120
 2838TIP3   OH2 8519   4.627   5.214   4.104
 2838TIP3    H1 8520   4.689   5.155   4.061
 2838TIP3    H2 8521   4.674   5.245   4.181
 2839TIP3   OH2 8522   4.411   5.942   2.870
 2839TIP3    H1 8523   4.464   6.017   2.897
 2839TIP3    H2 8524   4.434   5.873   2.932
 2840TIP3   OH2 8525   3.067   1.676   5.151
 2840TIP3    H1 8526   2.980   1.639   5.134
 2840TIP3    H2 8527   3.107   1.615   5.213
 2841TIP3   OH2 8528   3.167   1.589   2.142
 2841TIP3    H1 8529   3.155   1.501   2.108
 2841TIP3    H2 8530   3.102   1.597   2.212
 2842TIP3   OH2 8531   5.562   1.457   1.534
 2842TIP3    H1 8532   5.598   1.370   1.551
 2842TIP3    H2 8533   5.613   1.490   1.460
 2843TIP3   OH2 8534   6.127   1.575   4.970
 2843TIP3    H1 8535   6.222   1.581   4.979
 2843TIP3    H2 8536   6.112   1.490   4.929
 2844TIP3   OH2 8537   3.961   2.088   0.838
 2844TIP3    H1 8538   3.905   2.011   0.847
 2844TIP3    H2 8539   4.015   2.088   0.917
 2845TIP3   OH2 8540   2.644   2.586   0.762
 2845TIP3    H1 8541   2.688   2.535   0.695
 2845TIP3    H2 8542   2.561   2.541   0.776
 2846TIP3   OH2 8543   6.256   3.683   2.825
 2846TIP3    H1 8544   6.266   3.675   2.730
 2846TIP3    H2 8545   6.345   3.696   2.858
 2847TIP3   OH2 8546   2.935   2.976   2.990
 2847TIP3    H1 8547   3.027   2.984   2.966
 2847TIP3    H2 8548   2.936   2.927   3.073
 2848TIP3   OH2 8549   1.200   3.134   1.635
 2848TIP3    H1 8550   1.123   3.134   1.693
 2848TIP3    H2 8551   1.179   3.070   1.567
 2849TIP3   OH2 8552   2.055   0.456   3.466
 2849TIP3    H1 8553   2.144   0.490   3.475
 2849TIP3    H2 8554   2.054   0.378   3.521
 2850TIP3   OH2 8555   4.009   0.748   2.284
 2850TIP3    H1 8556   4.028   0.723   2.194
 2850TIP3    H2 8557   4.087   0.797   2.312
 2851TIP3   OH2 8558   0.275   3.552   0.100
 2851TIP3    H1 8559   0.371   3.545   0.097
 2851TIP3    H2 8560   0.244   3.475   0.053
 2852TIP3   OH2 8561   4.484   5.521   2.565
 2852TIP3    H1 8562   4.520   5.610   2.566
 2852TIP3    H2 8563   4.530   5.477   2.494
 2853TIP3   OH2 8564   4.586   1.420   0.891
 2853TIP3    H1 8565   4.680   1.408   0.876
 2853TIP3    H2 8566   4.547   1.413   0.803
 2854TIP3   OH2 8567   4.690   3.758   4.449
 2854TIP3    H1 8568   4.626   3.793   4.388
 2854TIP3    H2 8569   4.669   3.665   4.456
 2855TIP3   OH2 8570   5.108   2.613   4.043
 2855TIP3    H1 8571   5.059   2.532   4.055
 2855TIP3    H2 8572   5.062   2.678   4.096
 2856TIP3   OH2 8573   6.348   0.958   2.960
 2856TIP3    H1 8574   6.339   0.863   2.957
 2856TIP3    H2 8575   6.261   0.990   2.984
 2857TIP3   OH2 8576   5.703   2.777   4.989
 2857TIP3    H1 8577   5.678   2.844   4.926
 2857TIP3    H2 8578   5.625   2.764   5.043
 2858TIP3   OH2 8579   4.361   5.579   4.492
 2858TIP3    H1 8580   4.314   5.613   4.416
 2858TIP3    H2 8581   4.314   5.498   4.515
 2859TIP3   OH2 8582   2.429   1.201   3.188
 2859TIP3    H1 8583   2.406   1.259   3.116
 2859TIP3    H2 8584   2.524   1.214   3.200
 2860TIP3   OH2 8585   4.561   5.363   3.669
 2860TIP3    H1 8586   4.639   5.312   3.692
 2860TIP3    H2 8587   4.520   5.383   3.754
 2861TIP3   OH2 8588   2.409   3.197   2.951
 2861TIP3    H1 8589   2.505   3.190   2.945
 2861TIP3    H2 8590   2.394   3.268   3.013
 2862TIP3   OH2 8591   4.620   1.930   3.484
 2862TIP3    H1 8592   4.668   2.005   3.519
 2862TIP3    H2 8593   4.679   1.892   3.419
 2863TIP3   OH2 8594   4.570   2.854   4.150
 2863TIP3    H1 8595   4.623   2.800   4.208
 2863TIP3    H2 8596   4.634   2.895   4.091
 2864TIP3   OH2 8597   2.412   1.468   1.689
 2864TIP3    H1 8598   2.340   1.406   1.693
 2864TIP3    H2 8599   2.490   1.415   1.674
 2865TIP3   OH2 8600   1.938   3.600   0.176
 2865TIP3    H1 8601   2.028   3.631   0.185
 2865TIP3    H2 8602   1.907   3.588   0.266
 2866TIP3   OH2 8603   0.750   1.962   3.401
 2866TIP3    H1 8604   0.748   1.900   3.475
 2866TIP3    H2 8605   0.839   1.997   3.401
 2867TIP3   OH2 8606   5.210   5.653   0.233
 2867TIP3    H1 8607   5.285   5.594   0.239
 2867TIP3    H2 8608   5.138   5.597   0.202
 2868TIP3   OH2 8609   1.099   3.623   1.749
 2868TIP3    H1 8610   1.091   3.712   1.783
 2868TIP3    H2 8611   1.116   3.569   1.826
 2869TIP3   OH2 8612   1.123   3.372   1.057
 2869TIP3    H1 8613   1.190   3.304   1.051
 2869TIP3    H2 8614   1.073   3.364   0.975
 2870TIP3   OH2 8615   5.800   2.873   0.265
 2870TIP3    H1 8616   5.789   2.867   0.360
 2870TIP3    H2 8617   5.714   2.848   0.229
 2871TIP3   OH2 8618   0.098   2.664   0.415
 2871TIP3    H1 8619   0.036   2.670   0.342
 2871TIP3    H2 8620   0.085   2.576   0.450
 2872TIP3   OH2 8621   5.379   5.389   2.261
 2872TIP3    H1 8622   5.396   5.434   2.178
 2872TIP3    H2 8623   5.458   5.402   2.312
 2873TIP3   OH2 8624   4.067   1.809   1.339
 2873TIP3    H1 8625   3.982   1.826   1.298
 2873TIP3    H2 8626   4.126   1.872   1.299
 2874TIP3   OH2 8627   3.322   3.470   2.173
 2874TIP3    H1 8628   3.300   3.393   2.121
 2874TIP3    H2 8629   3.359   3.532   2.110
 2875TIP3   OH2 8630   4.086   4.049   2.926
 2875TIP3    H1 8631   4.045   4.007   3.001
 2875TIP3    H2 8632   4.164   3.996   2.909
 2876TIP3   OH2 8633   2.188   4.599   4.004
 2876TIP3    H1 8634   2.160   4.678   3.957
 2876TIP3    H2 8635   2.140   4.528   3.962
 2877TIP3   OH2 8636   4.623   4.602   2.674
 2877TIP3    H1 8637   4.652   4.616   2.584
 2877TIP3    H2 8638   4.527   4.608   2.669
 2878TIP3   OH2 8639   0.041   5.496   4.407
 2878TIP3    H1 8640   0.096   5.563   4.367
 2878TIP3    H2 8641  -0.011   5.543   4.472
 2879TIP3   OH2 8642   5.458   0.564   0.679
 2879TIP3    H1 8643   5.502   0.635   0.726
 2879TIP3    H2 8644   5.421   0.606   0.601
 2880TIP3   OH2 8645   2.649   3.713   4.899
 2880TIP3    H1 8646   2.594   3.776   4.853
 2880TIP3    H2 8647   2.729   3.761   4.920
 2881TIP3   OH2 8648   2.018   1.385   0.491
 2881TIP3    H1 8649   2.107   1.411   0.469
 2881TIP3    H2 8650   1.972   1.468   0.505
 2882TIP3   OH2 8651   0.777   5.716   3.915
 2882TIP3    H1 8652   0.755   5.778   3.984
 2882TIP3    H2 8653   0.864   5.742   3.886
 2883TIP3   OH2 8654   5.114   5.255   1.820
 2883TIP3    H1 8655   5.026   5.217   1.819
 2883TIP3    H2 8656   5.139   5.255   1.912
 2884TIP3   OH2 8657   2.980   0.833   3.688
 2884TIP3    H1 8658   2.959   0.873   3.604
 2884TIP3    H2 8659   2.919   0.873   3.750
 2885TIP3   OH2 8660   3.296   2.807   3.157
 2885TIP3    H1 8661   3.324   2.817   3.248
 2885TIP3    H2 8662   3.254   2.721   3.155
 2886TIP3   OH2 8663   2.310   4.561   0.072
 2886TIP3    H1 8664   2.368   4.539   0.145
 2886TIP3    H2 8665   2.363   4.547  -0.007
 2887TIP3   OH2 8666   5.742   0.943   2.576
 2887TIP3    H1 8667   5.772   0.857   2.606
 2887TIP3    H2 8668   5.786   0.956   2.492
 2888TIP3   OH2 8669   4.675   0.645   3.390
 2888TIP3    H1 8670   4.752   0.590   3.378
 2888TIP3    H2 8671   4.610   0.608   3.330
 2889TIP3   OH2 8672   5.518   5.304   4.654
 2889TIP3    H1 8673   5.451   5.239   4.677
 2889TIP3    H2 8674   5.470   5.372   4.607
 2890TIP3   OH2 8675   1.512   5.326   3.734
 2890TIP3    H1 8676   1.547   5.382   3.665
 2890TIP3    H2 8677   1.443   5.275   3.690
 2891TIP3   OH2 8678   6.278   3.615   2.557
 2891TIP3    H1 8679   6.328   3.536   2.578
 2891TIP3    H2 8680   6.221   3.589   2.484
 2892TIP3   OH2 8681   0.997   3.728   4.740
 2892TIP3    H1 8682   0.979   3.803   4.798
 2892TIP3    H2 8683   0.930   3.732   4.673
 2893TIP3   OH2 8684   2.839   1.079   0.436
 2893TIP3    H1 8685   2.879   0.992   0.428
 2893TIP3    H2 8686   2.750   1.068   0.404
 2894TIP3   OH2 8687   5.636   0.857   4.022
 2894TIP3    H1 8688   5.686   0.879   3.944
 2894TIP3    H2 8689   5.689   0.891   4.095
 2895TIP3   OH2 8690   6.228   4.306   3.732
 2895TIP3    H1 8691   6.161   4.341   3.672
 2895TIP3    H2 8692   6.220   4.359   3.811
 2896TIP3   OH2 8693   3.778   1.807   0.705
 2896TIP3    H1 8694   3.687   1.783   0.722
 2896TIP3    H2 8695   3.825   1.782   0.784
 2897TIP3   OH2 8696   1.009   2.539   5.186
 2897TIP3    H1 8697   1.025   2.516   5.278
 2897TIP3    H2 8698   0.916   2.561   5.183
 2898TIP3   OH2 8699   1.015   2.145   0.291
 2898TIP3    H1 8700   0.929   2.145   0.249
 2898TIP3    H2 8701   1.070   2.094   0.232
 2899TIP3   OH2 8702   2.335   3.426   3.594
 2899TIP3    H1 8703   2.266   3.405   3.531
 2899TIP3    H2 8704   2.346   3.521   3.587
 2900TIP3   OH2 8705   4.307   5.061   2.146
 2900TIP3    H1 8706   4.373   4.997   2.119
 2900TIP3    H2 8707   4.295   5.045   2.240
 2901TIP3   OH2 8708   5.303   3.211   0.342
 2901TIP3    H1 8709   5.310   3.128   0.295
 2901TIP3    H2 8710   5.213   3.241   0.325
 2902TIP3   OH2 8711   0.556   1.884   4.208
 2902TIP3    H1 8712   0.569   1.909   4.300
 2902TIP3    H2 8713   0.538   1.966   4.163
 2903TIP3   OH2 8714   5.998   3.510   4.675
 2903TIP3    H1 8715   6.076   3.456   4.687
 2903TIP3    H2 8716   6.033   3.598   4.660
 2904TIP3   OH2 8717   2.189   1.813   0.411
 2904TIP3    H1 8718   2.255   1.858   0.463
 2904TIP3    H2 8719   2.159   1.879   0.348
 2905TIP3   OH2 8720   5.427   1.634   3.287
 2905TIP3    H1 8721   5.437   1.551   3.333
 2905TIP3    H2 8722   5.494   1.691   3.325
 2906TIP3   OH2 8723   3.836   5.476   5.013
 2906TIP3    H1 8724   3.815   5.474   4.920
 2906TIP3    H2 8725   3.911   5.417   5.022
 2907TIP3   OH2 8726   5.874   4.998   2.013
 2907TIP3    H1 8727   5.814   4.924   2.009
 2907TIP3    H2 8728   5.820   5.074   1.989
 2908TIP3   OH2 8729   1.991   3.363   2.116
 2908TIP3    H1 8730   1.993   3.269   2.100
 2908TIP3    H2 8731   1.910   3.392   2.075
 2909TIP3   OH2 8732   1.740   2.876   2.463
 2909TIP3    H1 8733   1.736   2.969   2.441
 2909TIP3    H2 8734   1.750   2.831   2.379
 2910TIP3   OH2 8735   4.835   5.725   3.085
 2910TIP3    H1 8736   4.827   5.702   2.993
 2910TIP3    H2 8737   4.825   5.820   3.087
 2911TIP3   OH2 8738   6.056   1.028   4.829
 2911TIP3    H1 8739   5.980   1.032   4.886
 2911TIP3    H2 8740   6.128   1.000   4.886
 2912TIP3   OH2 8741   0.430   1.964   1.539
 2912TIP3    H1 8742   0.472   2.044   1.573
 2912TIP3    H2 8743   0.407   1.915   1.618
 2913TIP3   OH2 8744   1.241   4.529   1.548
 2913TIP3    H1 8745   1.215   4.520   1.457
 2913TIP3    H2 8746   1.179   4.593   1.584
 2914TIP3   OH2 8747   5.899   5.587   1.478
 2914TIP3    H1 8748   5.976   5.592   1.422
 2914TIP3    H2 8749   5.886   5.493   1.494
 2915TIP3   OH2 8750   1.883   3.381   4.641
 2915TIP3    H1 8751   1.806   3.402   4.694
 2915TIP3    H2 8752   1.847   3.359   4.555
 2916TIP3   OH2 8753   1.660   2.156   0.346
 2916TIP3    H1 8754   1.617   2.121   0.424
 2916TIP3    H2 8755   1.734   2.097   0.330
 2917TIP3   OH2 8756   6.002   5.896   4.344
 2917TIP3    H1 8757   5.977   5.987   4.359
 2917TIP3    H2 8758   5.937   5.845   4.393
 2918TIP3   OH2 8759   0.124   2.232   3.276
 2918TIP3    H1 8760   0.165   2.153   3.311
 2918TIP3    H2 8761   0.118   2.291   3.351
 2919TIP3   OH2 8762   3.679   5.399   1.170
 2919TIP3    H1 8763   3.731   5.352   1.236
 2919TIP3    H2 8764   3.594   5.356   1.172
 2920TIP3   OH2 8765   5.520   2.128   1.711
 2920TIP3    H1 8766   5.536   2.221   1.731
 2920TIP3    H2 8767   5.443   2.129   1.654
 2921TIP3   OH2 8768   2.049   3.879   4.075
 2921TIP3    H1 8769   2.055   3.948   4.009
 2921TIP3    H2 8770   1.956   3.860   4.082
 2922TIP3   OH2 8771   4.829   0.663   2.858
 2922TIP3    H1 8772   4.784   0.586   2.822
 2922TIP3    H2 8773   4.906   0.627   2.902
 2923TIP3   OH2 8774   0.252   1.998   3.069
 2923TIP3    H1 8775   0.257   1.946   3.150
 2923TIP3    H2 8776   0.205   1.941   3.008
 2924TIP3   OH2 8777   0.767   1.851   0.388
 2924TIP3    H1 8778   0.700   1.803   0.437
 2924TIP3    H2 8779   0.720   1.892   0.316
 2925TIP3   OH2 8780   2.118   1.567   4.037
 2925TIP3    H1 8781   2.173   1.489   4.032
 2925TIP3    H2 8782   2.037   1.537   4.077
 2926TIP3   OH2 8783   2.871   0.249   3.355
 2926TIP3    H1 8784   2.922   0.234   3.276
 2926TIP3    H2 8785   2.927   0.305   3.409
 2927TIP3   OH2 8786   3.868   0.922   2.036
 2927TIP3    H1 8787   3.873   0.833   2.002
 2927TIP3    H2 8788   3.814   0.914   2.115
 2928TIP3   OH2 8789   3.229   3.468   5.059
 2928TIP3    H1 8790   3.297   3.503   5.002
 2928TIP3    H2 8791   3.160   3.439   4.999
 2929TIP3   OH2 8792   4.735   4.536   4.111
 2929TIP3    H1 8793   4.713   4.629   4.111
 2929TIP3    H2 8794   4.694   4.501   4.190
 2930TIP3   OH2 8795   6.358   3.551   4.684
 2930TIP3    H1 8796   6.326   3.602   4.759
 2930TIP3    H2 8797   6.330   3.461   4.703
 2931TIP3   OH2 8798   5.265   3.777   0.091
 2931TIP3    H1 8799   5.211   3.854   0.110
 2931TIP3    H2 8800   5.276   3.734   0.175
 2932TIP3   OH2 8801   2.144   2.195   1.180
 2932TIP3    H1 8802   2.129   2.176   1.273
 2932TIP3    H2 8803   2.211   2.132   1.154
 2933TIP3   OH2 8804   2.223   1.552   3.599
 2933TIP3    H1 8805   2.245   1.563   3.507
 2933TIP3    H2 8806   2.132   1.524   3.599
 2934TIP3   OH2 8807   1.636   0.419   4.225
 2934TIP3    H1 8808   1.671   0.508   4.229
 2934TIP3    H2 8809   1.713   0.363   4.218
 2935TIP3   OH2 8810   2.521   4.397   1.260
 2935TIP3    H1 8811   2.575   4.421   1.185
 2935TIP3    H2 8812   2.455   4.466   1.265
 2936TIP3   OH2 8813   5.933   4.789   4.441
 2936TIP3    H1 8814   6.015   4.741   4.446
 2936TIP3    H2 8815   5.870   4.726   4.404
 2937TIP3   OH2 8816   6.112   2.951   4.925
 2937TIP3    H1 8817   6.046   2.962   4.993
 2937TIP3    H2 8818   6.169   3.027   4.934
 2938TIP3   OH2 8819   2.255   1.848   1.747
 2938TIP3    H1 8820   2.304   1.861   1.828
 2938TIP3    H2 8821   2.173   1.897   1.760
 2939TIP3   OH2 8822   4.896   1.820   0.042
 2939TIP3    H1 8823   4.809   1.785   0.022
 2939TIP3    H2 8824   4.881   1.914   0.056
 2940TIP3   OH2 8825   2.608   0.763   2.348
 2940TIP3    H1 8826   2.559   0.688   2.314
 2940TIP3    H2 8827   2.699   0.742   2.329
 2941TIP3   OH2 8828   5.902   1.313   4.777
 2941TIP3    H1 8829   5.841   1.242   4.755
 2941TIP3    H2 8830   5.925   1.352   4.692
 2942TIP3   OH2 8831   4.306   4.746   3.451
 2942TIP3    H1 8832   4.385   4.702   3.420
 2942TIP3    H2 8833   4.329   4.839   3.451
 2943TIP3   OH2 8834   5.028   2.536   2.166
 2943TIP3    H1 8835   4.984   2.561   2.247
 2943TIP3    H2 8836   4.971   2.470   2.126
 2944TIP3   OH2 8837   4.224   3.694   2.189
 2944TIP3    H1 8838   4.249   3.768   2.244
 2944TIP3    H2 8839   4.163   3.643   2.243
 2945TIP3   OH2 8840   4.793   0.629   1.178
 2945TIP3    H1 8841   4.841   0.664   1.253
 2945TIP3    H2 8842   4.831   0.673   1.102
 2946TIP3   OH2 8843   3.608   4.710   0.845
 2946TIP3    H1 8844   3.530   4.655   0.843
 2946TIP3    H2 8845   3.675   4.657   0.801
 2947TIP3   OH2 8846   0.380   1.295   0.867
 2947TIP3    H1 8847   0.307   1.340   0.909
 2947TIP3    H2 8848   0.457   1.322   0.917
 2948TIP3   OH2 8849   3.407   4.544   3.309
 2948TIP3    H1 8850   3.382   4.598   3.234
 2948TIP3    H2 8851   3.333   4.550   3.369
 2949TIP3   OH2 8852   4.932   0.925   1.645
 2949TIP3    H1 8853   4.958   0.983   1.716
 2949TIP3    H2 8854   5.014   0.886   1.615
 2950TIP3   OH2 8855   4.376   1.273   1.032
 2950TIP3    H1 8856   4.430   1.320   0.969
 2950TIP3    H2 8857   4.291   1.318   1.029
 2951TIP3   OH2 8858   3.876   1.147   0.393
 2951TIP3    H1 8859   3.926   1.113   0.320
 2951TIP3    H2 8860   3.926   1.222   0.425
 2952TIP3   OH2 8861   6.135   5.599   3.604
 2952TIP3    H1 8862   6.217   5.624   3.560
 2952TIP3    H2 8863   6.133   5.652   3.683
 2953TIP3   OH2 8864   2.156   0.517   0.329
 2953TIP3    H1 8865   2.111   0.473   0.257
 2953TIP3    H2 8866   2.126   0.471   0.408
 2954TIP3   OH2 8867   1.973   3.091   4.038
 2954TIP3    H1 8868   1.883   3.077   4.009
 2954TIP3    H2 8869   1.969   3.082   4.134
 2955TIP3   OH2 8870   6.136   1.211   3.935
 2955TIP3    H1 8871   6.176   1.218   3.849
 2955TIP3    H2 8872   6.205   1.237   3.996
 2956TIP3   OH2 8873   6.361   3.629   3.290
 2956TIP3    H1 8874   6.401   3.562   3.234
 2956TIP3    H2 8875   6.280   3.652   3.245
 2957TIP3   OH2 8876   4.998   5.287   1.368
 2957TIP3    H1 8877   5.030   5.291   1.458
 2957TIP3    H2 8878   5.066   5.333   1.317
 2958TIP3   OH2 8879   0.454   0.202   1.947
 2958TIP3    H1 8880   0.427   0.293   1.932
 2958TIP3    H2 8881   0.454   0.163   1.859
 2959TIP3   OH2 8882   0.202   2.158   1.685
 2959TIP3    H1 8883   0.224   2.215   1.759
 2959TIP3    H2 8884   0.261   2.186   1.615
 2960TIP3   OH2 8885   0.206   4.686   2.845
 2960TIP3    H1 8886   0.146   4.677   2.920
 2960TIP3    H2 8887   0.190   4.608   2.792
 2961TIP3   OH2 8888   5.785   5.994   3.749
 2961TIP3    H1 8889   5.862   6.019   3.698
 2961TIP3    H2 8890   5.711   6.009   3.690
 2962TIP3   OH2 8891   5.992   4.264   1.284
 2962TIP3    H1 8892   5.964   4.215   1.361
 2962TIP3    H2 8893   5.953   4.350   1.294
 2963TIP3   OH2 8894   2.998   4.279   1.857
 2963TIP3    H1 8895   3.084   4.248   1.830
 2963TIP3    H2 8896   2.936   4.232   1.801
 2964TIP3   OH2 8897   2.176   3.940   1.165
 2964TIP3    H1 8898   2.240   3.869   1.158
 2964TIP3    H2 8899   2.228   4.020   1.170
 2965TIP3   OH2 8900   5.312   0.703   4.377
 2965TIP3    H1 8901   5.283   0.739   4.461
 2965TIP3    H2 8902   5.383   0.762   4.350
 2966TIP3   OH2 8903   2.828   2.995   4.607
 2966TIP3    H1 8904   2.913   2.951   4.619
 2966TIP3    H2 8905   2.845   3.061   4.540
 2967TIP3   OH2 8906   3.899   5.004   2.406
 2967TIP3    H1 8907   3.900   5.092   2.368
 2967TIP3    H2 8908   3.893   4.945   2.330
 2968TIP3   OH2 8909   3.522   1.913   4.272
 2968TIP3    H1 8910   3.559   1.853   4.208
 2968TIP3    H2 8911   3.563   1.889   4.355
 2969TIP3   OH2 8912   3.422   5.486   5.063
 2969TIP3    H1 8913   3.370   5.406   5.065
 2969TIP3    H2 8914   3.417   5.519   5.153
 2970TIP3   OH2 8915   1.632   2.886   0.391
 2970TIP3    H1 8916   1.602   2.867   0.302
 2970TIP3    H2 8917   1.709   2.831   0.402
 2971TIP3   OH2 8918   0.903   0.404   2.235
 2971TIP3    H1 8919   0.982   0.393   2.288
 2971TIP3    H2 8920   0.933   0.444   2.154
 2972TIP3   OH2 8921   0.937   4.840   1.983
 2972TIP3    H1 8922   0.952   4.780   2.056
 2972TIP3    H2 8923   0.888   4.789   1.918
 2973TIP3   OH2 8924   4.279   4.939   1.815
 2973TIP3    H1 8925   4.289   5.023   1.772
 2973TIP3    H2 8926   4.367   4.901   1.816
 2974TIP3   OH2 8927   1.017   2.001   4.578
 2974TIP3    H1 8928   0.988   1.980   4.490
 2974TIP3    H2 8929   1.002   2.095   4.586
 2975TIP3   OH2 8930   1.705   1.811   0.755
 2975TIP3    H1 8931   1.671   1.806   0.845
 2975TIP3    H2 8932   1.639   1.766   0.702
 2976TIP3   OH2 8933   3.255   3.286   3.957
 2976TIP3    H1 8934   3.173   3.312   3.914
 2976TIP3    H2 8935   3.315   3.359   3.940
 2977TIP3   OH2 8936   1.901   3.657   0.748
 2977TIP3    H1 8937   1.831   3.623   0.804
 2977TIP3    H2 8938   1.981   3.615   0.780
 2978TIP3   OH2 8939   3.227   4.444   2.051
 2978TIP3    H1 8940   3.205   4.391   1.974
 2978TIP3    H2 8941   3.168   4.413   2.119
 2979TIP3   OH2 8942   3.649   1.039   2.733
 2979TIP3    H1 8943   3.618   1.106   2.793
 2979TIP3    H2 8944   3.743   1.057   2.724
 2980TIP3   OH2 8945   1.554   2.565   4.683
 2980TIP3    H1 8946   1.480   2.521   4.726
 2980TIP3    H2 8947   1.631   2.535   4.731
 2981TIP3   OH2 8948   4.193   1.619   3.874
 2981TIP3    H1 8949   4.267   1.664   3.915
 2981TIP3    H2 8950   4.158   1.683   3.811
 2982TIP3   OH2 8951   3.730   5.802   1.396
 2982TIP3    H1 8952   3.822   5.780   1.414
 2982TIP3    H2 8953   3.709   5.753   1.316
 2983TIP3   OH2 8954   5.263   4.409   0.049
 2983TIP3    H1 8955   5.244   4.351  -0.024
 2983TIP3    H2 8956   5.222   4.367   0.125
 2984TIP3   OH2 8957   1.252   2.037   3.905
 2984TIP3    H1 8958   1.236   1.951   3.865
 2984TIP3    H2 8959   1.172   2.087   3.888
 2985TIP3   OH2 8960   3.539  -0.015   0.289
 2985TIP3    H1 8961   3.589   0.003   0.369
 2985TIP3    H2 8962   3.566  -0.104   0.263
 2986TIP3   OH2 8963   2.381   1.990   0.045
 2986TIP3    H1 8964   2.356   2.073   0.005
 2986TIP3    H2 8965   2.416   2.014   0.131
 2987TIP3   OH2 8966   1.240   0.184   3.129
 2987TIP3    H1 8967   1.154   0.167   3.168
 2987TIP3    H2 8968   1.277   0.097   3.113
 2988TIP3   OH2 8969   0.755   2.314   3.775
 2988TIP3    H1 8970   0.754   2.383   3.842
 2988TIP3    H2 8971   0.843   2.321   3.737
 2989TIP3   OH2 8972   1.166   4.231   0.221
 2989TIP3    H1 8973   1.173   4.323   0.246
 2989TIP3    H2 8974   1.255   4.196   0.233
 2990TIP3   OH2 8975   4.334   4.745   0.672
 2990TIP3    H1 8976   4.362   4.831   0.704
 2990TIP3    H2 8977   4.246   4.759   0.638
 2991TIP3   OH2 8978   1.310   0.965   0.888
 2991TIP3    H1 8979   1.229   1.008   0.858
 2991TIP3    H2 8980   1.380   1.017   0.850
 2992TIP3   OH2 8981   2.106   4.842   3.845
 2992TIP3    H1 8982   2.048   4.827   3.770
 2992TIP3    H2 8983   2.092   4.934   3.867
 2993TIP3   OH2 8984   0.160   2.127   0.130
 2993TIP3    H1 8985   0.099   2.197   0.108
 2993TIP3    H2 8986   0.109   2.067   0.184
 2994TIP3   OH2 8987   3.392   4.087   2.006
 2994TIP3    H1 8988   3.409   4.013   2.063
 2994TIP3    H2 8989   3.475   4.104   1.963
 2995TIP3   OH2 8990   1.275   3.114   4.612
 2995TIP3    H1 8991   1.272   3.107   4.708
 2995TIP3    H2 8992   1.183   3.119   4.586
 2996TIP3   OH2 8993   3.209   3.812   4.081
 2996TIP3    H1 8994   3.122   3.826   4.045
 2996TIP3    H2 8995   3.240   3.732   4.038
 2997TIP3   OH2 8996   3.146   1.368   4.928
 2997TIP3    H1 8997   3.180   1.457   4.922
 2997TIP3    H2 8998   3.054   1.376   4.904
 2998TIP3   OH2 8999   2.276   0.273   1.609
 2998TIP3    H1 9000   2.257   0.189   1.565
 2998TIP3    H2 9001   2.341   0.250   1.676
 2999TIP3   OH2 9002   2.636   5.640   1.202
 2999TIP3    H1 9003   2.678   5.726   1.203
 2999TIP3    H2 9004   2.706   5.579   1.225
 3000TIP3   OH2 9005   5.370   5.765   3.857
 3000TIP3    H1 9006   5.449   5.719   3.885
 3000TIP3    H2 9007   5.358   5.738   3.766
 3001TIP3   OH2 9008   3.443   4.177   1.596
 3001TIP3    H1 9009   3.536   4.189   1.615
 3001TIP3    H2 9010   3.418   4.257   1.550
 3002TIP3   OH2 9011   5.055   2.127   1.379
 3002TIP3    H1 9012   5.000   2.120   1.300
 3002TIP3    H2 9013   4.994   2.153   1.448
 3003TIP3   OH2 9014   3.802   4.408   4.092
 3003TIP3    H1 9015   3.838   4.488   4.054
 3003TIP3    H2 9016   3.848   4.337   4.047
 3004TIP3   OH2 9017   0.978   3.273   5.063
 3004TIP3    H1 9018   1.011   3.354   5.023
 3004TIP3    H2 9019   1.056   3.219   5.075
 3005TIP3   OH2 9020   0.256   3.764   5.201
 3005TIP3    H1 9021   0.179   3.759   5.145
 3005TIP3    H2 9022   0.272   3.858   5.209
 3006TIP3   OH2 9023   0.075   4.334   4.904
 3006TIP3    H1 9024  -0.018   4.334   4.925
 3006TIP3    H2 9025   0.080   4.377   4.819
 3007TIP3   OH2 9026   4.869   1.451   0.571
 3007TIP3    H1 9027   4.860   1.361   0.540
 3007TIP3    H2 9028   4.905   1.499   0.497
 3008TIP3   OH2 9029   5.490   0.850   2.529
 3008TIP3    H1 9030   5.567   0.903   2.548
 3008TIP3    H2 9031   5.505   0.816   2.441
 3009TIP3   OH2 9032   1.225   3.893   0.049
 3009TIP3    H1 9033   1.219   3.988   0.039
 3009TIP3    H2 9034   1.168   3.874   0.123
 3010TIP3   OH2 9035   3.901   3.727   2.616
 3010TIP3    H1 9036   3.833   3.740   2.550
 3010TIP3    H2 9037   3.902   3.809   2.666
 3011TIP3   OH2 9038   0.137   3.317   5.030
 3011TIP3    H1 9039   0.175   3.374   4.962
 3011TIP3    H2 9040   0.208   3.302   5.091
 3012TIP3   OH2 9041   0.746   2.135   2.643
 3012TIP3    H1 9042   0.801   2.099   2.713
 3012TIP3    H2 9043   0.806   2.185   2.588
 3013TIP3   OH2 9044   2.370   5.037   0.575
 3013TIP3    H1 9045   2.357   4.965   0.635
 3013TIP3    H2 9046   2.330   5.113   0.619
 3014TIP3   OH2 9047   6.352   0.089   1.330
 3014TIP3    H1 9048   6.297   0.167   1.339
 3014TIP3    H2 9049   6.431   0.111   1.380
 3015TIP3   OH2 9050   6.401   5.808   3.208
 3015TIP3    H1 9051   6.346   5.732   3.186
 3015TIP3    H2 9052   6.340   5.882   3.210
 3016TIP3   OH2 9053   3.619   0.342   1.823
 3016TIP3    H1 9054   3.651   0.287   1.895
 3016TIP3    H2 9055   3.527   0.317   1.813
 3017TIP3   OH2 9056   3.571   2.586   1.348
 3017TIP3    H1 9057   3.666   2.587   1.339
 3017TIP3    H2 9058   3.553   2.647   1.420
 3018TIP3   OH2 9059   4.779   1.575   4.434
 3018TIP3    H1 9060   4.730   1.618   4.364
 3018TIP3    H2 9061   4.716   1.517   4.476
 3019TIP3   OH2 9062   5.029   5.438   2.206
 3019TIP3    H1 9063   4.951   5.491   2.219
 3019TIP3    H2 9064   5.060   5.419   2.295
 3020TIP3   OH2 9065   3.636   3.027   0.987
 3020TIP3    H1 9066   3.658   3.092   1.054
 3020TIP3    H2 9067   3.557   2.984   1.020
 3021TIP3   OH2 9068   4.789   2.572   3.310
 3021TIP3    H1 9069   4.752   2.492   3.347
 3021TIP3    H2 9070   4.735   2.642   3.347
 3022TIP3   OH2 9071   6.398   5.270   4.993
 3022TIP3    H1 9072   6.370   5.261   5.085
 3022TIP3    H2 9073   6.343   5.208   4.945
 3023TIP3   OH2 9074   1.302   5.294   4.574
 3023TIP3    H1 9075   1.265   5.223   4.626
 3023TIP3    H2 9076   1.226   5.335   4.532
 3024TIP3   OH2 9077   3.204   1.175   2.369
 3024TIP3    H1 9078   3.136   1.182   2.303
 3024TIP3    H2 9079   3.278   1.225   2.333
 3025TIP3   OH2 9080   5.628   3.408   5.171
 3025TIP3    H1 9081   5.557   3.472   5.176
 3025TIP3    H2 9082   5.597   3.334   5.223
 3026TIP3   OH2 9083   0.618   5.284   3.908
 3026TIP3    H1 9084   0.676   5.214   3.938
 3026TIP3    H2 9085   0.534   5.265   3.948
 3027TIP3   OH2 9086   1.483   2.252   1.924
 3027TIP3    H1 9087   1.456   2.305   1.848
 3027TIP3    H2 9088   1.546   2.307   1.970
 3028TIP3   OH2 9089   4.179   0.662   1.259
 3028TIP3    H1 9090   4.205   0.572   1.279
 3028TIP3    H2 9091   4.245   0.716   1.301
 3029TIP3   OH2 9092   0.640   5.320   4.620
 3029TIP3    H1 9093   0.602   5.266   4.550
 3029TIP3    H2 9094   0.716   5.361   4.580
 3030TIP3   OH2 9095   4.846   1.518   3.382
 3030TIP3    H1 9096   4.862   1.447   3.321
 3030TIP3    H2 9097   4.756   1.546   3.363
 3031TIP3   OH2 9098   1.881   2.310   0.231
 3031TIP3    H1 9099   1.873   2.215   0.234
 3031TIP3    H2 9100   1.794   2.343   0.251
 3032TIP3   OH2 9101   6.255   0.484   1.828
 3032TIP3    H1 9102   6.301   0.553   1.874
 3032TIP3    H2 9103   6.168   0.482   1.868
 3033TIP3   OH2 9104   5.946   2.287   0.474
 3033TIP3    H1 9105   6.005   2.252   0.541
 3033TIP3    H2 9106   6.004   2.321   0.406
 3034TIP3   OH2 9107   3.545   3.612   4.334
 3034TIP3    H1 9108   3.526   3.650   4.420
 3034TIP3    H2 9109   3.576   3.686   4.281
 3035TIP3   OH2 9110   6.191   3.041   1.214
 3035TIP3    H1 9111   6.216   2.949   1.203
 3035TIP3    H2 9112   6.123   3.039   1.282
 3036TIP3   OH2 9113   2.206   4.253   1.627
 3036TIP3    H1 9114   2.145   4.308   1.676
 3036TIP3    H2 9115   2.187   4.164   1.655
 3037TIP3   OH2 9116   0.245   4.650   1.731
 3037TIP3    H1 9117   0.311   4.714   1.703
 3037TIP3    H2 9118   0.275   4.567   1.695
 3038TIP3   OH2 9119   0.896   1.697   3.248
 3038TIP3    H1 9120   0.909   1.745   3.331
 3038TIP3    H2 9121   0.828   1.633   3.268
 3039TIP3   OH2 9122   3.481   2.807   1.497
 3039TIP3    H1 9123   3.501   2.878   1.558
 3039TIP3    H2 9124   3.408   2.840   1.446
 3040TIP3   OH2 9125   4.149   2.312   3.928
 3040TIP3    H1 9126   4.206   2.388   3.941
 3040TIP3    H2 9127   4.061   2.347   3.935
 3041TIP3   OH2 9128   2.482   3.009   3.201
 3041TIP3    H1 9129   2.389   2.990   3.212
 3041TIP3    H2 9130   2.485   3.099   3.171
 3042TIP3   OH2 9131   2.434   0.006   1.093
 3042TIP3    H1 9132   2.520  -0.001   1.051
 3042TIP3    H2 9133   2.415   0.100   1.093
 3043TIP3   OH2 9134   2.044   5.940   5.074
 3043TIP3    H1 9135   2.019   5.874   5.009
 3043TIP3    H2 9136   2.028   6.024   5.031
 3044TIP3   OH2 9137   4.860   2.922   2.881
 3044TIP3    H1 9138   4.844   2.946   2.789
 3044TIP3    H2 9139   4.946   2.880   2.880
 3045TIP3   OH2 9140   0.408   1.156   2.439
 3045TIP3    H1 9141   0.375   1.208   2.512
 3045TIP3    H2 9142   0.437   1.074   2.479
 3046TIP3   OH2 9143   3.219   1.736   2.550
 3046TIP3    H1 9144   3.268   1.795   2.607
 3046TIP3    H2 9145   3.171   1.679   2.610
 3047TIP3   OH2 9146   3.220   1.711   3.842
 3047TIP3    H1 9147   3.189   1.801   3.836
 3047TIP3    H2 9148   3.147   1.662   3.880
 3048TIP3   OH2 9149   3.187   5.502   0.260
 3048TIP3    H1 9150   3.187   5.413   0.224
 3048TIP3    H2 9151   3.096   5.516   0.288
 3049TIP3   OH2 9152   5.462   2.692   4.743
 3049TIP3    H1 9153   5.447   2.669   4.835
 3049TIP3    H2 9154   5.434   2.782   4.735
 3050TIP3   OH2 9155   4.939   5.846   2.781
 3050TIP3    H1 9156   4.959   5.931   2.743
 3050TIP3    H2 9157   4.947   5.785   2.707
 3051TIP3   OH2 9158   1.689   3.207   2.456
 3051TIP3    H1 9159   1.680   3.302   2.462
 3051TIP3    H2 9160   1.602   3.173   2.476
 3052TIP3   OH2 9161   1.223   3.563   4.563
 3052TIP3    H1 9162   1.189   3.609   4.487
 3052TIP3    H2 9163   1.199   3.618   4.638
 3053TIP3   OH2 9164   3.180   3.329   4.686
 3053TIP3    H1 9165   3.114   3.374   4.739
 3053TIP3    H2 9166   3.173   3.370   4.600
 3054TIP3   OH2 9167   5.039   5.953   0.346
 3054TIP3    H1 9168   4.977   5.883   0.365
 3054TIP3    H2 9169   5.085   5.924   0.267
 3055TIP3   OH2 9170   5.634   0.034   3.067
 3055TIP3    H1 9171   5.685   0.110   3.038
 3055TIP3    H2 9172   5.579   0.068   3.137
 3056TIP3   OH2 9173   5.459   0.287   0.828
 3056TIP3    H1 9174   5.442   0.373   0.788
 3056TIP3    H2 9175   5.553   0.288   0.848
 3057TIP3   OH2 9176   0.274   1.578   1.820
 3057TIP3    H1 9177   0.224   1.500   1.796
 3057TIP3    H2 9178   0.232   1.610   1.900
 3058TIP3   OH2 9179   3.610   0.283   3.791
 3058TIP3    H1 9180   3.528   0.247   3.824
 3058TIP3    H2 9181   3.678   0.246   3.848
 3059TIP3   OH2 9182   4.900   5.060   0.536
 3059TIP3    H1 9183   4.930   5.141   0.576
 3059TIP3    H2 9184   4.976   5.001   0.539
 3060TIP3   OH2 9185   5.759   4.981   2.422
 3060TIP3    H1 9186   5.765   4.889   2.447
 3060TIP3    H2 9187   5.667   4.994   2.398
 3061TIP3   OH2 9188   0.124   4.328   4.255
 3061TIP3    H1 9189   0.174   4.315   4.175
 3061TIP3    H2 9190   0.062   4.256   4.257
 3062TIP3   OH2 9191   0.959   2.919   5.138
 3062TIP3    H1 9192   1.033   2.876   5.180
 3062TIP3    H2 9193   0.882   2.883   5.182
 3063TIP3   OH2 9194   5.125   5.514   1.958
 3063TIP3    H1 9195   5.108   5.497   2.050
 3063TIP3    H2 9196   5.039   5.518   1.917
 3064TIP3   OH2 9197   2.340   5.742   1.515
 3064TIP3    H1 9198   2.273   5.684   1.479
 3064TIP3    H2 9199   2.349   5.713   1.606
 3065TIP3   OH2 9200   0.682   1.371   2.593
 3065TIP3    H1 9201   0.663   1.280   2.614
 3065TIP3    H2 9202   0.773   1.383   2.621
 3066TIP3   OH2 9203   2.310   4.481   3.745
 3066TIP3    H1 9204   2.373   4.413   3.720
 3066TIP3    H2 9205   2.231   4.433   3.768
 3067TIP3   OH2 9206   1.020   5.328   4.496
 3067TIP3    H1 9207   0.984   5.305   4.410
 3067TIP3    H2 9208   0.976   5.269   4.557
 3068TIP3   OH2 9209   6.208   3.919   1.210
 3068TIP3    H1 9210   6.141   3.858   1.177
 3068TIP3    H2 9211   6.286   3.864   1.222
 3069TIP3   OH2 9212   2.318   2.449   2.956
 3069TIP3    H1 9213   2.381   2.516   2.928
 3069TIP3    H2 9214   2.333   2.442   3.051
 3070TIP3   OH2 9215   0.630   1.880   5.046
 3070TIP3    H1 9216   0.606   1.936   5.120
 3070TIP3    H2 9217   0.682   1.810   5.084
 3071TIP3   OH2 9218   5.822   0.284   3.518
 3071TIP3    H1 9219   5.915   0.272   3.501
 3071TIP3    H2 9220   5.797   0.206   3.569
 3072TIP3   OH2 9221   4.466   2.606   0.509
 3072TIP3    H1 9222   4.462   2.608   0.604
 3072TIP3    H2 9223   4.384   2.648   0.481
 3073TIP3   OH2 9224   3.401   5.655   0.580
 3073TIP3    H1 9225   3.468   5.718   0.554
 3073TIP3    H2 9226   3.447   5.593   0.637
 3074TIP3   OH2 9227   1.242   1.516   2.642
 3074TIP3    H1 9228   1.177   1.558   2.587
 3074TIP3    H2 9229   1.200   1.510   2.728
 3075TIP3   OH2 9230   3.700   3.909   3.540
 3075TIP3    H1 9231   3.786   3.915   3.498
 3075TIP3    H2 9232   3.660   3.995   3.526
 3076TIP3   OH2 9233   6.312   4.804   0.418
 3076TIP3    H1 9234   6.331   4.836   0.330
 3076TIP3    H2 9235   6.271   4.719   0.403
 3077TIP3   OH2 9236   4.256   4.389   2.469
 3077TIP3    H1 9237   4.242   4.475   2.506
 3077TIP3    H2 9238   4.350   4.373   2.481
 3078TIP3   OH2 9239   5.067   5.187   4.006
 3078TIP3    H1 9240   5.005   5.260   4.014
 3078TIP3    H2 9241   5.101   5.194   3.917
 3079TIP3   OH2 9242   0.250   2.151   2.763
 3079TIP3    H1 9243   0.325   2.119   2.713
 3079TIP3    H2 9244   0.190   2.076   2.767
 3080TIP3   OH2 9245   1.619   4.435   3.339
 3080TIP3    H1 9246   1.529   4.408   3.353
 3080TIP3    H2 9247   1.636   4.501   3.406
 3081TIP3   OH2 9248   3.636   1.801   3.590
 3081TIP3    H1 9249   3.714   1.751   3.568
 3081TIP3    H2 9250   3.667   1.891   3.600
 3082TIP3   OH2 9251   0.634   3.791   3.180
 3082TIP3    H1 9252   0.654   3.700   3.160
 3082TIP3    H2 9253   0.540   3.799   3.167
 3083TIP3   OH2 9254   2.241   0.282   4.896
 3083TIP3    H1 9255   2.254   0.377   4.890
 3083TIP3    H2 9256   2.250   0.250   4.806
 3084TIP3   OH2 9257   3.005   5.030   0.042
 3084TIP3    H1 9258   3.027   4.958  -0.018
 3084TIP3    H2 9259   3.012   4.991   0.129
 3085TIP3   OH2 9260   5.244   2.817   3.255
 3085TIP3    H1 9261   5.289   2.900   3.273
 3085TIP3    H2 9262   5.295   2.752   3.303
 3086TIP3   OH2 9263   3.432   3.654   3.802
 3086TIP3    H1 9264   3.444   3.559   3.809
 3086TIP3    H2 9265   3.338   3.667   3.817
 3087TIP3   OH2 9266   3.408   3.076   3.734
 3087TIP3    H1 9267   3.371   3.132   3.802
 3087TIP3    H2 9268   3.348   3.002   3.729
 3088TIP3   OH2 9269   4.252   0.758   0.304
 3088TIP3    H1 9270   4.203   0.721   0.230
 3088TIP3    H2 9271   4.335   0.787   0.265
 3089TIP3   OH2 9272   1.295   4.818   1.939
 3089TIP3    H1 9273   1.301   4.763   1.861
 3089TIP3    H2 9274   1.246   4.765   2.002
 3090TIP3   OH2 9275   2.675   5.448   0.325
 3090TIP3    H1 9276   2.623   5.471   0.247
 3090TIP3    H2 9277   2.617   5.466   0.399
 3091TIP3   OH2 9278   0.323   4.067   2.977
 3091TIP3    H1 9279   0.292   4.056   2.888
 3091TIP3    H2 9280   0.247   4.101   3.025
 3092TIP3   OH2 9281   4.357   3.776   1.985
 3092TIP3    H1 9282   4.297   3.730   2.044
 3092TIP3    H2 9283   4.310   3.855   1.959
 3093TIP3   OH2 9284   0.090   3.809   1.884
 3093TIP3    H1 9285   0.179   3.774   1.887
 3093TIP3    H2 9286   0.034   3.733   1.893
 3094TIP3   OH2 9287   1.768   5.806   1.291
 3094TIP3    H1 9288   1.854   5.840   1.317
 3094TIP3    H2 9289   1.726   5.781   1.374
 3095TIP3   OH2 9290   3.336   0.913   4.326
 3095TIP3    H1 9291   3.242   0.920   4.343
 3095TIP3    H2 9292   3.363   1.003   4.306
 3096TIP3   OH2 9293   0.573   4.777   0.622
 3096TIP3    H1 9294   0.523   4.858   0.637
 3096TIP3    H2 9295   0.648   4.785   0.680
 3097TIP3   OH2 9296   6.009   3.263   5.173
 3097TIP3    H1 9297   6.049   3.282   5.088
 3097TIP3    H2 9298   5.926   3.220   5.152
 3098TIP3   OH2 9299   5.200   4.154   5.033
 3098TIP3    H1 9300   5.154   4.104   4.966
 3098TIP3    H2 9301   5.134   4.214   5.068
 3099TIP3   OH2 9302   5.163   3.360   3.497
 3099TIP3    H1 9303   5.142   3.307   3.420
 3099TIP3    H2 9304   5.174   3.449   3.464
 3100TIP3   OH2 9305   3.301   2.887   2.674
 3100TIP3    H1 9306   3.394   2.903   2.657
 3100TIP3    H2 9307   3.257   2.962   2.635
 3101TIP3   OH2 9308   3.970   5.642   3.172
 3101TIP3    H1 9309   3.883   5.608   3.155
 3101TIP3    H2 9310   3.990   5.697   3.096
 3102TIP3   OH2 9311   0.455   3.430   0.332
 3102TIP3    H1 9312   0.382   3.372   0.353
 3102TIP3    H2 9313   0.438   3.510   0.382
 3103TIP3   OH2 9314   0.029   5.744   2.823
 3103TIP3    H1 9315  -0.015   5.728   2.740
 3103TIP3    H2 9316   0.084   5.821   2.807
 3104TIP3   OH2 9317   6.232   2.356   3.988
 3104TIP3    H1 9318   6.285   2.435   3.987
 3104TIP3    H2 9319   6.231   2.325   3.898
 3105TIP3   OH2 9320   3.094   3.645   0.834
 3105TIP3    H1 9321   3.165   3.707   0.852
 3105TIP3    H2 9322   3.119   3.565   0.880
 3106TIP3   OH2 9323   3.756   0.125   3.988
 3106TIP3    H1 9324   3.715   0.097   4.070
 3106TIP3    H2 9325   3.793   0.211   4.008
 3107TIP3   OH2 9326   2.752   3.268   1.261
 3107TIP3    H1 9327   2.751   3.315   1.344
 3107TIP3    H2 9328   2.663   3.234   1.252
 3108TIP3   OH2 9329   1.486   5.995   5.023
 3108TIP3    H1 9330   1.426   5.927   4.993
 3108TIP3    H2 9331   1.497   6.053   4.948
 3109TIP3   OH2 9332   1.819   0.121   2.432
 3109TIP3    H1 9333   1.750   0.183   2.455
 3109TIP3    H2 9334   1.803   0.045   2.488
 3110TIP3   OH2 9335   1.705   3.460   3.774
 3110TIP3    H1 9336   1.718   3.541   3.725
 3110TIP3    H2 9337   1.623   3.473   3.822
 3111TIP3   OH2 9338   4.192   1.709   4.916
 3111TIP3    H1 9339   4.210   1.641   4.982
 3111TIP3    H2 9340   4.182   1.789   4.967
 3112TIP3   OH2 9341   1.195   5.821   2.061
 3112TIP3    H1 9342   1.112   5.856   2.027
 3112TIP3    H2 9343   1.210   5.870   2.143
 3113TIP3   OH2 9344   6.168   2.612   4.404
 3113TIP3    H1 9345   6.224   2.687   4.426
 3113TIP3    H2 9346   6.230   2.546   4.372
 3114TIP3   OH2 9347   3.351   3.203   4.398
 3114TIP3    H1 9348   3.258   3.179   4.403
 3114TIP3    H2 9349   3.354   3.271   4.331
 3115TIP3   OH2 9350   5.203   0.419   1.361
 3115TIP3    H1 9351   5.159   0.368   1.292
 3115TIP3    H2 9352   5.170   0.383   1.443
 3116TIP3   OH2 9353   0.350   0.661   4.953
 3116TIP3    H1 9354   0.422   0.691   4.898
 3116TIP3    H2 9355   0.320   0.580   4.913
 3117TIP3   OH2 9356   2.025   0.362   0.150
 3117TIP3    H1 9357   1.938   0.348   0.187
 3117TIP3    H2 9358   2.043   0.283   0.099
 3118TIP3   OH2 9359   3.388   1.616   4.037
 3118TIP3    H1 9360   3.456   1.665   4.085
 3118TIP3    H2 9361   3.348   1.681   3.979
 3119TIP3   OH2 9362   5.838   4.539   3.024
 3119TIP3    H1 9363   5.884   4.500   3.098
 3119TIP3    H2 9364   5.747   4.545   3.054
 3120TIP3   OH2 9365   3.122   4.046   2.677
 3120TIP3    H1 9366   3.114   4.131   2.720
 3120TIP3    H2 9367   3.121   3.983   2.749
 3121TIP3   OH2 9368   1.847   4.913   0.553
 3121TIP3    H1 9369   1.814   4.976   0.616
 3121TIP3    H2 9370   1.895   4.966   0.489
 3122TIP3   OH2 9371   5.320   4.323   4.250
 3122TIP3    H1 9372   5.293   4.233   4.234
 3122TIP3    H2 9373   5.344   4.325   4.343
 3123TIP3   OH2 9374   3.782   3.379   3.808
 3123TIP3    H1 9375   3.787   3.440   3.734
 3123TIP3    H2 9376   3.742   3.300   3.772
 3124TIP3   OH2 9377   3.762   0.779   2.766
 3124TIP3    H1 9378   3.819   0.851   2.740
 3124TIP3    H2 9379   3.674   0.818   2.770
 3125TIP3   OH2 9380   2.898   1.973   0.807
 3125TIP3    H1 9381   2.948   2.050   0.832
 3125TIP3    H2 9382   2.901   1.971   0.711
 3126TIP3   OH2 9383   1.025   3.120   2.650
 3126TIP3    H1 9384   0.954   3.131   2.586
 3126TIP3    H2 9385   1.105   3.121   2.597
 3127TIP3   OH2 9386   2.707   0.880   1.440
 3127TIP3    H1 9387   2.705   0.848   1.531
 3127TIP3    H2 9388   2.773   0.949   1.441
 3128TIP3   OH2 9389   5.911   5.722   3.777
 3128TIP3    H1 9390   5.929   5.720   3.871
 3128TIP3    H2 9391   5.825   5.765   3.770
 3129TIP3   OH2 9392   6.095   3.712   3.185
 3129TIP3    H1 9393   6.116   3.772   3.114
 3129TIP3    H2 9394   6.074   3.630   3.142
 3130TIP3   OH2 9395   2.468   4.648   3.470
 3130TIP3    H1 9396   2.408   4.701   3.522
 3130TIP3    H2 9397   2.457   4.681   3.380
 3131TIP3   OH2 9398   1.973   1.441   3.646
 3131TIP3    H1 9399   1.974   1.378   3.718
 3131TIP3    H2 9400   1.909   1.507   3.672
 3132TIP3   OH2 9401   2.787   5.182   4.907
 3132TIP3    H1 9402   2.814   5.272   4.925
 3132TIP3    H2 9403   2.863   5.141   4.867
 3133TIP3   OH2 9404   2.284   4.742   3.676
 3133TIP3    H1 9405   2.239   4.780   3.752
 3133TIP3    H2 9406   2.311   4.655   3.706
 3134TIP3   OH2 9407   4.319   4.562   3.127
 3134TIP3    H1 9408   4.368   4.518   3.057
 3134TIP3    H2 9409   4.232   4.577   3.089
 3135TIP3   OH2 9410   6.133   1.666   2.387
 3135TIP3    H1 9411   6.227   1.647   2.394
 3135TIP3    H2 9412   6.122   1.752   2.428
 3136TIP3   OH2 9413   2.388   2.512   1.199
 3136TIP3    H1 9414   2.318   2.448   1.208
 3136TIP3    H2 9415   2.345   2.593   1.172
 3137TIP3   OH2 9416   3.177   5.494   0.587
 3137TIP3    H1 9417   3.259   5.533   0.556
 3137TIP3    H2 9418   3.165   5.417   0.531
 3138TIP3   OH2 9419   0.356   4.360   1.731
 3138TIP3    H1 9420   0.382   4.370   1.823
 3138TIP3    H2 9421   0.338   4.266   1.722
 3139TIP3   OH2 9422   0.686   5.849   3.211
 3139TIP3    H1 9423   0.672   5.914   3.280
 3139TIP3    H2 9424   0.779   5.830   3.214
 3140TIP3   OH2 9425   4.179   4.993   4.310
 3140TIP3    H1 9426   4.110   5.046   4.272
 3140TIP3    H2 9427   4.214   4.943   4.237
 3141TIP3   OH2 9428   2.976   5.014   4.796
 3141TIP3    H1 9429   3.041   5.046   4.733
 3141TIP3    H2 9430   3.019   5.022   4.881
 3142TIP3   OH2 9431   3.638   4.146   5.184
 3142TIP3    H1 9432   3.611   4.109   5.269
 3142TIP3    H2 9433   3.733   4.138   5.183
 3143TIP3   OH2 9434   2.984   4.309   4.536
 3143TIP3    H1 9435   3.042   4.340   4.466
 3143TIP3    H2 9436   3.022   4.344   4.616
 3144TIP3   OH2 9437   6.130   3.756   0.570
 3144TIP3    H1 9438   6.214   3.792   0.542
 3144TIP3    H2 9439   6.139   3.661   0.558
 3145TIP3   OH2 9440   2.738   5.209   2.280
 3145TIP3    H1 9441   2.779   5.266   2.344
 3145TIP3    H2 9442   2.712   5.268   2.209
 3146TIP3   OH2 9443   3.648   5.892   4.734
 3146TIP3    H1 9444   3.664   5.951   4.807
 3146TIP3    H2 9445   3.553   5.893   4.721
 3147TIP3   OH2 9446   2.745   5.368   2.060
 3147TIP3    H1 9447   2.670   5.327   2.017
 3147TIP3    H2 9448   2.777   5.432   1.997
 3148TIP3   OH2 9449   2.072   5.869   4.375
 3148TIP3    H1 9450   1.989   5.915   4.388
 3148TIP3    H2 9451   2.047   5.787   4.332
 3149TIP3   OH2 9452   2.685   4.797   0.418
 3149TIP3    H1 9453   2.652   4.887   0.422
 3149TIP3    H2 9454   2.614   4.748   0.377
 3150TIP3   OH2 9455   0.104   4.988   2.019
 3150TIP3    H1 9456   0.035   4.948   1.965
 3150TIP3    H2 9457   0.180   4.991   1.961
 3151TIP3   OH2 9458   2.856   0.408   2.923
 3151TIP3    H1 9459   2.891   0.492   2.951
 3151TIP3    H2 9460   2.787   0.388   2.986
 3152TIP3   OH2 9461   0.378   1.571   1.468
 3152TIP3    H1 9462   0.389   1.649   1.414
 3152TIP3    H2 9463   0.414   1.595   1.553
 3153TIP3   OH2 9464   2.933   0.754   5.048
 3153TIP3    H1 9465   2.859   0.701   5.019
 3153TIP3    H2 9466   2.902   0.844   5.042
 3154TIP3   OH2 9467   4.282   1.196   3.695
 3154TIP3    H1 9468   4.289   1.254   3.771
 3154TIP3    H2 9469   4.349   1.227   3.634
 3155TIP3   OH2 9470   0.297   2.004   2.198
 3155TIP3    H1 9471   0.364   2.072   2.207
 3155TIP3    H2 9472   0.284   1.997   2.103
 3156TIP3   OH2 9473   0.553   2.063   4.456
 3156TIP3    H1 9474   0.569   2.147   4.499
 3156TIP3    H2 9475   0.566   1.998   4.525
 3157TIP3   OH2 9476   4.719   4.052   1.419
 3157TIP3    H1 9477   4.757   4.041   1.332
 3157TIP3    H2 9478   4.645   3.992   1.421
 3158TIP3   OH2 9479   3.404   0.112   2.211
 3158TIP3    H1 9480   3.496   0.124   2.236
 3158TIP3    H2 9481   3.373   0.201   2.193
 3159TIP3   OH2 9482   5.802   5.068   1.490
 3159TIP3    H1 9483   5.835   5.067   1.580
 3159TIP3    H2 9484   5.722   5.015   1.494
 3160TIP3   OH2 9485   2.663   4.091   2.416
 3160TIP3    H1 9486   2.729   4.042   2.367
 3160TIP3    H2 9487   2.683   4.183   2.399
 3161TIP3   OH2 9488   2.937   0.752   0.989
 3161TIP3    H1 9489   2.944   0.734   1.082
 3161TIP3    H2 9490   3.019   0.721   0.952
 3162TIP3   OH2 9491   4.880   3.037   2.034
 3162TIP3    H1 9492   4.828   3.110   2.001
 3162TIP3    H2 9493   4.951   3.078   2.084
 3163TIP3   OH2 9494   0.492   5.848   0.549
 3163TIP3    H1 9495   0.410   5.804   0.567
 3163TIP3    H2 9496   0.478   5.894   0.466
 3164TIP3   OH2 9497   2.466   5.594   0.846
 3164TIP3    H1 9498   2.395   5.556   0.898
 3164TIP3    H2 9499   2.433   5.681   0.821
 3165TIP3   OH2 9500   4.992   4.577   4.035
 3165TIP3    H1 9501   5.014   4.670   4.033
 3165TIP3    H2 9502   4.900   4.574   4.063
 3166TIP3   OH2 9503   5.248   3.618   3.391
 3166TIP3    H1 9504   5.316   3.619   3.323
 3166TIP3    H2 9505   5.226   3.710   3.403
 3167TIP3   OH2 9506   2.578   2.986   4.734
 3167TIP3    H1 9507   2.578   3.081   4.729
 3167TIP3    H2 9508   2.649   2.959   4.674
 3168TIP3   OH2 9509   2.601   5.571   4.219
 3168TIP3    H1 9510   2.538   5.557   4.289
 3168TIP3    H2 9511   2.684   5.542   4.255
 3169TIP3   OH2 9512   1.477   5.128   3.966
 3169TIP3    H1 9513   1.523   5.209   3.943
 3169TIP3    H2 9514   1.500   5.113   4.057
 3170TIP3   OH2 9515   0.831   4.532   3.022
 3170TIP3    H1 9516   0.804   4.537   3.114
 3170TIP3    H2 9517   0.909   4.476   3.024
 3171TIP3   OH2 9518   4.886   3.050   3.359
 3171TIP3    H1 9519   4.906   2.961   3.389
 3171TIP3    H2 9520   4.950   3.067   3.290
 3172TIP3   OH2 9521   4.663   5.553   3.498
 3172TIP3    H1 9522   4.622   5.495   3.563
 3172TIP3    H2 9523   4.716   5.494   3.445
 3173TIP3   OH2 9524   3.408   0.145   1.799
 3173TIP3    H1 9525   3.339   0.133   1.864
 3173TIP3    H2 9526   3.459   0.064   1.803
 3174TIP3   OH2 9527   3.862   1.877   2.143
 3174TIP3    H1 9528   3.872   1.782   2.153
 3174TIP3    H2 9529   3.769   1.893   2.159
 3175TIP3   OH2 9530   1.273   5.623   2.835
 3175TIP3    H1 9531   1.192   5.660   2.871
 3175TIP3    H2 9532   1.244   5.551   2.779
 3176TIP3   OH2 9533   5.372   2.655   4.404
 3176TIP3    H1 9534   5.462   2.638   4.430
 3176TIP3    H2 9535   5.379   2.720   4.334
 3177TIP3   OH2 9536   4.403   1.120   4.569
 3177TIP3    H1 9537   4.317   1.085   4.546
 3177TIP3    H2 9538   4.456   1.109   4.490
 3178TIP3   OH2 9539   5.299   3.622   3.904
 3178TIP3    H1 9540   5.328   3.700   3.952
 3178TIP3    H2 9541   5.204   3.624   3.909
 3179TIP3   OH2 9542   5.303   5.360   1.360
 3179TIP3    H1 9543   5.360   5.436   1.350
 3179TIP3    H2 9544   5.279   5.361   1.453
 3180TIP3   OH2 9545   6.313   5.911   4.408
 3180TIP3    H1 9546   6.310   5.954   4.493
 3180TIP3    H2 9547   6.400   5.929   4.375
 3181TIP3   OH2 9548   5.306   5.622   1.620
 3181TIP3    H1 9549   5.236   5.681   1.650
 3181TIP3    H2 9550   5.376   5.633   1.685
 3182TIP3   OH2 9551   3.314   3.073   4.672
 3182TIP3    H1 9552   3.298   3.161   4.637
 3182TIP3    H2 9553   3.409   3.067   4.681
 3183TIP3   OH2 9554   0.084   2.356   2.724
 3183TIP3    H1 9555   0.118   2.424   2.667
 3183TIP3    H2 9556   0.154   2.291   2.731
 3184TIP3   OH2 9557   5.576   1.635   0.014
 3184TIP3    H1 9558   5.492   1.610  -0.025
 3184TIP3    H2 9559   5.553   1.672   0.099
 3185TIP3   OH2 9560   0.762   2.519   1.177
 3185TIP3    H1 9561   0.771   2.471   1.095
 3185TIP3    H2 9562   0.826   2.589   1.171
 3186TIP3   OH2 9563   4.357   1.840   0.412
 3186TIP3    H1 9564   4.275   1.887   0.424
 3186TIP3    H2 9565   4.425   1.899   0.444
 3187TIP3   OH2 9566   2.279   4.551   4.630
 3187TIP3    H1 9567   2.267   4.471   4.681
 3187TIP3    H2 9568   2.191   4.578   4.605
 3188TIP3   OH2 9569   4.961   4.163   2.969
 3188TIP3    H1 9570   5.046   4.165   2.926
 3188TIP3    H2 9571   4.909   4.228   2.922
 3189TIP3   OH2 9572   0.523   5.204   1.879
 3189TIP3    H1 9573   0.525   5.254   1.798
 3189TIP3    H2 9574   0.577   5.255   1.940
 3190TIP3   OH2 9575   2.083   2.307   2.945
 3190TIP3    H1 9576   2.154   2.372   2.948
 3190TIP3    H2 9577   2.012   2.352   2.899
 3191TIP3   OH2 9578   5.026   2.451   4.299
 3191TIP3    H1 9579   4.993   2.418   4.215
 3191TIP3    H2 9580   5.117   2.477   4.280
 3192TIP3   OH2 9581   2.570   0.076   2.051
 3192TIP3    H1 9582   2.571   0.065   2.146
 3192TIP3    H2 9583   2.478   0.061   2.027
 3193TIP3   OH2 9584   6.253   4.932   4.238
 3193TIP3    H1 9585   6.225   4.889   4.157
 3193TIP3    H2 9586   6.229   5.024   4.226
 3194TIP3   OH2 9587   5.535   1.442   3.731
 3194TIP3    H1 9588   5.473   1.503   3.772
 3194TIP3    H2 9589   5.535   1.365   3.788
 3195TIP3   OH2 9590   1.859   1.562   2.644
 3195TIP3    H1 9591   1.914   1.640   2.650
 3195TIP3    H2 9592   1.770   1.595   2.655
 3196TIP3   OH2 9593   0.990   4.692   1.048
 3196TIP3    H1 9594   1.054   4.704   0.978
 3196TIP3    H2 9595   0.993   4.598   1.067
 3197TIP3   OH2 9596   1.019   0.486   0.780
 3197TIP3    H1 9597   1.055   0.448   0.860
 3197TIP3    H2 9598   1.083   0.552   0.755
 3198TIP3   OH2 9599   5.840   1.800   1.072
 3198TIP3    H1 9600   5.914   1.851   1.038
 3198TIP3    H2 9601   5.794   1.769   0.994
 3199TIP3   OH2 9602   5.647   3.779   0.597
 3199TIP3    H1 9603   5.699   3.855   0.574
 3199TIP3    H2 9604   5.557   3.801   0.570
 3200TIP3   OH2 9605   4.141   2.508   3.657
 3200TIP3    H1 9606   4.217   2.462   3.622
 3200TIP3    H2 9607   4.173   2.549   3.737
 3201TIP3   OH2 9608   3.798   5.107   3.514
 3201TIP3    H1 9609   3.793   5.164   3.437
 3201TIP3    H2 9610   3.890   5.077   3.515
 3202TIP3   OH2 9611   2.535   3.367   3.391
 3202TIP3    H1 9612   2.535   3.404   3.479
 3202TIP3    H2 9613   2.444   3.370   3.363
 3203TIP3   OH2 9614   0.260   0.204   3.002
 3203TIP3    H1 9615   0.265   0.162   3.089
 3203TIP3    H2 9616   0.208   0.283   3.017
 3204TIP3   OH2 9617   2.324   0.968   1.471
 3204TIP3    H1 9618   2.242   1.017   1.470
 3204TIP3    H2 9619   2.353   0.966   1.380
 3205TIP3   OH2 9620   5.874   1.827   2.255
 3205TIP3    H1 9621   5.959   1.871   2.251
 3205TIP3    H2 9622   5.878   1.774   2.334
 3206TIP3   OH2 9623   5.275   2.946   4.653
 3206TIP3    H1 9624   5.238   2.921   4.569
 3206TIP3    H2 9625   5.226   3.023   4.680
 3207TIP3   OH2 9626   5.061   3.318   0.226
 3207TIP3    H1 9627   5.023   3.251   0.170
 3207TIP3    H2 9628   5.001   3.325   0.300
 3208TIP3   OH2 9629   6.185   5.379   0.300
 3208TIP3    H1 9630   6.202   5.364   0.207
 3208TIP3    H2 9631   6.164   5.292   0.335
 3209TIP3   OH2 9632   4.126   0.988   5.089
 3209TIP3    H1 9633   4.192   0.925   5.061
 3209TIP3    H2 9634   4.043   0.954   5.055
 3210TIP3   OH2 9635   3.108   5.735   1.704
 3210TIP3    H1 9636   3.031   5.679   1.697
 3210TIP3    H2 9637   3.116   5.777   1.618
 3211TIP3   OH2 9638   0.443   2.543   3.857
 3211TIP3    H1 9639   0.538   2.551   3.872
 3211TIP3    H2 9640   0.404   2.605   3.918
 3212TIP3   OH2 9641   3.722   5.797   3.336
 3212TIP3    H1 9642   3.765   5.733   3.393
 3212TIP3    H2 9643   3.631   5.798   3.366
 3213TIP3   OH2 9644   5.057   5.788   2.127
 3213TIP3    H1 9645   5.042   5.877   2.158
 3213TIP3    H2 9646   5.140   5.793   2.079
 3214TIP3   OH2 9647   3.956   1.928   2.923
 3214TIP3    H1 9648   3.909   1.951   3.003
 3214TIP3    H2 9649   3.943   2.003   2.865
 3215TIP3   OH2 9650   1.043   2.271   4.659
 3215TIP3    H1 9651   1.129   2.276   4.701
 3215TIP3    H2 9652   1.031   2.357   4.619
 3216TIP3   OH2 9653   1.535   5.927   2.382
 3216TIP3    H1 9654   1.550   6.013   2.343
 3216TIP3    H2 9655   1.491   5.877   2.313
 3217TIP3   OH2 9656   3.451   1.756   1.741
 3217TIP3    H1 9657   3.440   1.686   1.805
 3217TIP3    H2 9658   3.366   1.799   1.736
 3218TIP3   OH2 9659   3.715   3.072   0.147
 3218TIP3    H1 9660   3.622   3.060   0.167
 3218TIP3    H2 9661   3.717   3.137   0.078
 3219TIP3   OH2 9662   4.124   1.044   0.583
 3219TIP3    H1 9663   4.125   0.951   0.560
 3219TIP3    H2 9664   4.032   1.062   0.605
 3220TIP3   OH2 9665   2.775   3.259   3.507
 3220TIP3    H1 9666   2.820   3.191   3.457
 3220TIP3    H2 9667   2.696   3.277   3.456
 3221TIP3   OH2 9668   4.081   0.106   0.489
 3221TIP3    H1 9669   4.089   0.117   0.395
 3221TIP3    H2 9670   4.058   0.194   0.521
 3222TIP3   OH2 9671   4.786   5.292   2.689
 3222TIP3    H1 9672   4.835   5.213   2.714
 3222TIP3    H2 9673   4.699   5.279   2.725
 3223TIP3   OH2 9674   2.235   4.932   4.928
 3223TIP3    H1 9675   2.241   4.842   4.961
 3223TIP3    H2 9676   2.288   4.983   4.989
 3224TIP3   OH2 9677   2.350   5.411   4.681
 3224TIP3    H1 9678   2.427   5.357   4.665
 3224TIP3    H2 9679   2.365   5.449   4.768
 3225TIP3   OH2 9680   3.715   3.066   2.362
 3225TIP3    H1 9681   3.622   3.088   2.370
 3225TIP3    H2 9682   3.729   3.054   2.268
 3226TIP3   OH2 9683   0.873   3.241   0.956
 3226TIP3    H1 9684   0.869   3.309   0.889
 3226TIP3    H2 9685   0.834   3.280   1.033
 3227TIP3   OH2 9686   0.207   2.364   3.015
 3227TIP3    H1 9687   0.192   2.311   2.937
 3227TIP3    H2 9688   0.217   2.300   3.086
 3228TIP3   OH2 9689   1.467   0.199   0.349
 3228TIP3    H1 9690   1.395   0.237   0.300
 3228TIP3    H2 9691   1.426   0.147   0.418
 3229TIP3   OH2 9692   0.857   2.455   1.836
 3229TIP3    H1 9693   0.799   2.391   1.877
 3229TIP3    H2 9694   0.799   2.515   1.789
 3230TIP3   OH2 9695   1.021   0.151   1.212
 3230TIP3    H1 9696   1.020   0.063   1.175
 3230TIP3    H2 9697   0.931   0.169   1.237
 3231TIP3   OH2 9698   2.463   0.392   2.397
 3231TIP3    H1 9699   2.475   0.379   2.303
 3231TIP3    H2 9700   2.549   0.379   2.435
 3232TIP3   OH2 9701   4.365   3.196   2.503
 3232TIP3    H1 9702   4.449   3.168   2.541
 3232TIP3    H2 9703   4.303   3.188   2.576
 3233TIP3   OH2 9704   1.993   2.946   4.592
 3233TIP3    H1 9705   2.047   3.025   4.587
 3233TIP3    H2 9706   1.982   2.919   4.501
 3234TIP3   OH2 9707   1.060   0.304   1.680
 3234TIP3    H1 9708   1.148   0.338   1.665
 3234TIP3    H2 9709   1.002   0.367   1.637
 3235TIP3   OH2 9710   4.193   0.671   4.016
 3235TIP3    H1 9711   4.157   0.712   4.095
 3235TIP3    H2 9712   4.118   0.665   3.957
 3236TIP3   OH2 9713   5.889   5.149   2.253
 3236TIP3    H1 9714   5.889   5.104   2.169
 3236TIP3    H2 9715   5.846   5.088   2.313
 3237TIP3   OH2 9716   4.303   3.597   4.840
 3237TIP3    H1 9717   4.207   3.603   4.842
 3237TIP3    H2 9718   4.321   3.529   4.776
 3238TIP3   OH2 9719   4.824   0.303   2.469
 3238TIP3    H1 9720   4.786   0.346   2.392
 3238TIP3    H2 9721   4.918   0.320   2.463
 3239TIP3   OH2 9722   4.799   3.769   4.920
 3239TIP3    H1 9723   4.756   3.717   4.988
 3239TIP3    H2 9724   4.764   3.857   4.931
 3240TIP3   OH2 9725   1.820   6.017   4.354
 3240TIP3    H1 9726   1.809   6.061   4.438
 3240TIP3    H2 9727   1.735   5.978   4.336
 3241TIP3   OH2 9728   4.237   4.064   3.893
 3241TIP3    H1 9729   4.302   3.997   3.916
 3241TIP3    H2 9730   4.274   4.145   3.927
 3242TIP3   OH2 9731   2.024   5.097   5.124
 3242TIP3    H1 9732   2.075   5.015   5.131
 3242TIP3    H2 9733   1.950   5.084   5.183
 3243TIP3   OH2 9734   6.043   1.715   3.964
 3243TIP3    H1 9735   5.986   1.726   3.887
 3243TIP3    H2 9736   6.026   1.792   4.018
 3244TIP3   OH2 9737   3.589   5.523   2.140
 3244TIP3    H1 9738   3.558   5.559   2.057
 3244TIP3    H2 9739   3.656   5.460   2.115
 3245TIP3   OH2 9740   2.878   2.148   3.925
 3245TIP3    H1 9741   2.931   2.179   3.852
 3245TIP3    H2 9742   2.809   2.214   3.935
 3246TIP3   OH2 9743   2.285   3.592   2.887
 3246TIP3    H1 9744   2.285   3.566   2.795
 3246TIP3    H2 9745   2.201   3.636   2.899
 3247TIP3   OH2 9746   2.358   3.336   1.617
 3247TIP3    H1 9747   2.427   3.372   1.673
 3247TIP3    H2 9748   2.336   3.407   1.557
 3248TIP3   OH2 9749   4.595   3.898   2.005
 3248TIP3    H1 9750   4.513   3.855   1.982
 3248TIP3    H2 9751   4.645   3.830   2.051
 3249TIP3   OH2 9752   3.071   2.129   4.131
 3249TIP3    H1 9753   3.036   2.076   4.203
 3249TIP3    H2 9754   3.016   2.107   4.056
 3250TIP3   OH2 9755   4.175   5.213   1.371
 3250TIP3    H1 9756   4.200   5.134   1.322
 3250TIP3    H2 9757   4.122   5.181   1.443
 3251TIP3   OH2 9758   5.540   3.991   4.508
 3251TIP3    H1 9759   5.512   3.992   4.417
 3251TIP3    H2 9760   5.513   3.905   4.540
 3252TIP3   OH2 9761   4.870   4.396   2.831
 3252TIP3    H1 9762   4.806   4.415   2.900
 3252TIP3    H2 9763   4.867   4.472   2.774
 3253TIP3   OH2 9764   2.736   0.276   1.932
 3253TIP3    H1 9765   2.707   0.293   1.843
 3253TIP3    H2 9766   2.743   0.181   1.938
 3254TIP3   OH2 9767   6.271   5.130   4.766
 3254TIP3    H1 9768   6.208   5.200   4.783
 3254TIP3    H2 9769   6.310   5.152   4.682
 3255TIP3   OH2 9770   4.107   1.922   2.024
 3255TIP3    H1 9771   4.034   1.942   2.083
 3255TIP3    H2 9772   4.185   1.945   2.073
 3256TIP3   OH2 9773   1.510   2.083   3.918
 3256TIP3    H1 9774   1.415   2.067   3.915
 3256TIP3    H2 9775   1.518   2.164   3.970
 3257TIP3   OH2 9776   0.387   0.813   3.744
 3257TIP3    H1 9777   0.332   0.892   3.742
 3257TIP3    H2 9778   0.350   0.761   3.815
 3258TIP3   OH2 9779   5.256   3.618   1.717
 3258TIP3    H1 9780   5.193   3.688   1.702
 3258TIP3    H2 9781   5.322   3.656   1.775
 3259TIP3   OH2 9782   4.571   0.648   1.352
 3259TIP3    H1 9783   4.637   0.607   1.296
 3259TIP3    H2 9784   4.621   0.680   1.428
 3260TIP3   OH2 9785   3.672   3.714   2.467
 3260TIP3    H1 9786   3.672   3.618   2.467
 3260TIP3    H2 9787   3.715   3.737   2.384
 3261TIP3   OH2 9788   3.903   1.581   4.127
 3261TIP3    H1 9789   3.878   1.604   4.216
 3261TIP3    H2 9790   3.916   1.665   4.083
 3262TIP3   OH2 9791   3.972   1.804   2.524
 3262TIP3    H1 9792   3.992   1.751   2.447
 3262TIP3    H2 9793   4.031   1.771   2.591
 3263TIP3   OH2 9794   2.204   5.645   0.507
 3263TIP3    H1 9795   2.119   5.641   0.464
 3263TIP3    H2 9796   2.197   5.720   0.566
 3264TIP3   OH2 9797   0.400   3.364   4.854
 3264TIP3    H1 9798   0.369   3.403   4.772
 3264TIP3    H2 9799   0.374   3.426   4.922
 3265TIP3   OH2 9800   6.034   1.795   2.009
 3265TIP3    H1 9801   6.083   1.806   1.928
 3265TIP3    H2 9802   6.020   1.701   2.016
 3266TIP3   OH2 9803   0.132   4.606   0.671
 3266TIP3    H1 9804   0.091   4.606   0.758
 3266TIP3    H2 9805   0.059   4.623   0.611
 3267TIP3   OH2 9806   3.753   1.481   2.361
 3267TIP3    H1 9807   3.706   1.420   2.304
 3267TIP3    H2 9808   3.685   1.522   2.414
 3268TIP3   OH2 9809   2.053   1.359   2.899
 3268TIP3    H1 9810   2.081   1.327   2.813
 3268TIP3    H2 9811   2.027   1.450   2.882
 3269TIP3   OH2 9812   2.962   0.758   4.251
 3269TIP3    H1 9813   2.867   0.765   4.260
 3269TIP3    H2 9814   2.978   0.665   4.232
 3270TIP3   OH2 9815   5.215   3.898   1.130
 3270TIP3    H1 9816   5.247   3.970   1.077
 3270TIP3    H2 9817   5.294   3.851   1.157
 3271TIP3   OH2 9818   5.018   1.304   4.920
 3271TIP3    H1 9819   5.005   1.209   4.927
 3271TIP3    H2 9820   5.091   1.314   4.859
 3272TIP3   OH2 9821   5.733   0.810   5.201
 3272TIP3    H1 9822   5.706   0.741   5.141
 3272TIP3    H2 9823   5.652   0.836   5.246
 3273TIP3   OH2 9824   4.325   0.033   0.633
 3273TIP3    H1 9825   4.252   0.001   0.580
 3273TIP3    H2 9826   4.284   0.092   0.697
 3274TIP3   OH2 9827   5.181   2.742   0.107
 3274TIP3    H1 9828   5.132   2.691   0.171
 3274TIP3    H2 9829   5.114   2.774   0.046
 3275TIP3   OH2 9830   5.143   0.790   2.826
 3275TIP3    H1 9831   5.231   0.756   2.809
 3275TIP3    H2 9832   5.100   0.722   2.878
 3276TIP3   OH2 9833   5.510   5.903   4.940
 3276TIP3    H1 9834   5.565   5.829   4.968
 3276TIP3    H2 9835   5.563   5.980   4.959
 3277TIP3   OH2 9836   3.759   1.418   1.917
 3277TIP3    H1 9837   3.819   1.476   1.962
 3277TIP3    H2 9838   3.771   1.333   1.960
 3278TIP3   OH2 9839   2.530   4.468   1.754
 3278TIP3    H1 9840   2.525   4.410   1.830
 3278TIP3    H2 9841   2.487   4.549   1.782
 3279TIP3   OH2 9842   3.583   1.244   2.252
 3279TIP3    H1 9843   3.638   1.201   2.187
 3279TIP3    H2 9844   3.588   1.189   2.329
 3280TIP3   OH2 9845   0.741   3.192   0.036
 3280TIP3    H1 9846   0.801   3.121   0.014
 3280TIP3    H2 9847   0.773   3.267  -0.013
 3281TIP3   OH2 9848   3.437   4.475   5.114
 3281TIP3    H1 9849   3.504   4.511   5.173
 3281TIP3    H2 9850   3.381   4.550   5.093
 3282TIP3   OH2 9851   0.365   1.028   3.517
 3282TIP3    H1 9852   0.295   1.008   3.580
 3282TIP3    H2 9853   0.404   1.109   3.550
 3283TIP3   OH2 9854   1.370   5.326   0.531
 3283TIP3    H1 9855   1.302   5.270   0.494
 3283TIP3    H2 9856   1.391   5.389   0.463
 3284TIP3   OH2 9857   2.361   5.542   1.251
 3284TIP3    H1 9858   2.315   5.625   1.266
 3284TIP3    H2 9859   2.449   5.568   1.222
 3285TIP3   OH2 9860   4.018   2.803   1.241
 3285TIP3    H1 9861   4.096   2.746   1.245
 3285TIP3    H2 9862   4.044   2.875   1.183
 3286TIP3   OH2 9863   6.226   3.919   5.007
 3286TIP3    H1 9864   6.164   3.975   4.962
 3286TIP3    H2 9865   6.284   3.979   5.053
 3287TIP3   OH2 9866   2.418   0.152   3.584
 3287TIP3    H1 9867   2.423   0.153   3.489
 3287TIP3    H2 9868   2.481   0.219   3.612
 3288TIP3   OH2 9869   2.227   3.081   2.215
 3288TIP3    H1 9870   2.151   3.063   2.160
 3288TIP3    H2 9871   2.272   3.154   2.172
 3289TIP3   OH2 9872   2.142   3.040   2.535
 3289TIP3    H1 9873   2.053   3.028   2.568
 3289TIP3    H2 9874   2.190   3.078   2.608
 3290TIP3   OH2 9875   4.487   4.694   4.761
 3290TIP3    H1 9876   4.518   4.622   4.817
 3290TIP3    H2 9877   4.566   4.746   4.745
 3291TIP3   OH2 9878   0.496   4.424   2.745
 3291TIP3    H1 9879   0.520   4.332   2.760
 3291TIP3    H2 9880   0.423   4.420   2.684
 3292TIP3   OH2 9881   0.101   5.902   4.030
 3292TIP3    H1 9882   0.076   5.813   4.005
 3292TIP3    H2 9883   0.169   5.926   3.967
 3293TIP3   OH2 9884   2.887   2.967   1.115
 3293TIP3    H1 9885   2.951   2.896   1.111
 3293TIP3    H2 9886   2.807   2.926   1.148
 3294TIP3   OH2 9887   6.216   0.013   0.597
 3294TIP3    H1 9888   6.123  -0.006   0.581
 3294TIP3    H2 9889   6.222   0.024   0.692
 3295TIP3   OH2 9890   1.323   2.041   2.059
 3295TIP3    H1 9891   1.264   2.000   1.995
 3295TIP3    H2 9892   1.354   2.121   2.015
 3296TIP3   OH2 9893   5.773   3.939   0.929
 3296TIP3    H1 9894   5.782   4.015   0.987
 3296TIP3    H2 9895   5.843   3.950   0.865
 3297TIP3   OH2 9896   0.043   2.202   2.471
 3297TIP3    H1 9897   0.040   2.125   2.415
 3297TIP3    H2 9898   0.053   2.167   2.560
 3298TIP3   OH2 9899   1.546   1.323   4.125
 3298TIP3    H1 9900   1.540   1.410   4.084
 3298TIP3    H2 9901   1.518   1.337   4.216
 3299TIP3   OH2 9902   3.797   1.001   0.605
 3299TIP3    H1 9903   3.830   0.916   0.576
 3299TIP3    H2 9904   3.797   1.056   0.527
 3300TIP3   OH2 9905   1.872   0.027   1.905
 3300TIP3    H1 9906   1.858   0.022   1.999
 3300TIP3    H2 9907   1.948   0.085   1.895
 3301TIP3   OH2 9908   2.265   1.108   3.447
 3301TIP3    H1 9909   2.264   1.109   3.351
 3301TIP3    H2 9910   2.285   1.017   3.469
 3302TIP3   OH2 9911   6.029   4.732   4.830
 3302TIP3    H1 9912   6.053   4.824   4.837
 3302TIP3    H2 9913   6.062   4.692   4.911
 3303TIP3   OH2 9914   2.182   5.160   4.569
 3303TIP3    H1 9915   2.176   5.180   4.476
 3303TIP3    H2 9916   2.122   5.221   4.611
 3304TIP3   OH2 9917   5.433   3.973   2.574
 3304TIP3    H1 9918   5.346   4.010   2.593
 3304TIP3    H2 9919   5.441   3.900   2.635
 3305TIP3   OH2 9920   4.947   5.582   4.361
 3305TIP3    H1 9921   4.929   5.658   4.305
 3305TIP3    H2 9922   4.997   5.522   4.305
 3306TIP3   OH2 9923   2.681   1.595   2.262
 3306TIP3    H1 9924   2.697   1.513   2.216
 3306TIP3    H2 9925   2.598   1.628   2.226
 3307TIP3   OH2 9926   4.083   3.620   0.716
 3307TIP3    H1 9927   4.040   3.701   0.743
 3307TIP3    H2 9928   4.026   3.584   0.649
 3308TIP3   OH2 9929   2.489   4.678   2.792
 3308TIP3    H1 9930   2.495   4.770   2.765
 3308TIP3    H2 9931   2.525   4.628   2.719
 3309TIP3   OH2 9932   6.296   0.791   4.217
 3309TIP3    H1 9933   6.289   0.697   4.235
 3309TIP3    H2 9934   6.221   0.830   4.260
 3310TIP3   OH2 9935   2.887   1.868   1.609
 3310TIP3    H1 9936   2.815   1.926   1.583
 3310TIP3    H2 9937   2.966   1.910   1.574
 3311TIP3   OH2 9938   3.856   1.147   2.332
 3311TIP3    H1 9939   3.780   1.090   2.347
 3311TIP3    H2 9940   3.930   1.087   2.323
 3312TIP3   OH2 9941   4.838   5.382   0.308
 3312TIP3    H1 9942   4.769   5.442   0.279
 3312TIP3    H2 9943   4.828   5.378   0.403
 3313TIP3   OH2 9944   5.492   5.737   2.854
 3313TIP3    H1 9945   5.566   5.699   2.806
 3313TIP3    H2 9946   5.415   5.706   2.808
 3314TIP3   OH2 9947   3.232   5.655   2.330
 3314TIP3    H1 9948   3.147   5.611   2.337
 3314TIP3    H2 9949   3.240   5.677   2.237
 3315TIP3   OH2 9950   2.201   5.760   1.202
 3315TIP3    H1 9951   2.204   5.796   1.113
 3315TIP3    H2 9952   2.156   5.827   1.253
 3316TIP3   OH2 9953   4.268   3.409   2.376
 3316TIP3    H1 9954   4.209   3.447   2.441
 3316TIP3    H2 9955   4.310   3.336   2.421
 3317TIP3   OH2 9956   6.234   3.464   0.787
 3317TIP3    H1 9957   6.162   3.419   0.830
 3317TIP3    H2 9958   6.218   3.557   0.805
 3318TIP3   OH2 9959   5.005   3.902   4.583
 3318TIP3    H1 9960   4.929   3.960   4.572
 3318TIP3    H2 9961   5.037   3.887   4.495
 3319TIP3   OH2 9962   3.218   2.301   4.346
 3319TIP3    H1 9963   3.221   2.290   4.442
 3319TIP3    H2 9964   3.184   2.217   4.314
 3320TIP3   OH2 9965   1.530   5.767   4.595
 3320TIP3    H1 9966   1.597   5.735   4.656
 3320TIP3    H2 9967   1.447   5.747   4.639
 3321TIP3   OH2 9968   3.861   2.282   4.516
 3321TIP3    H1 9969   3.849   2.354   4.454
 3321TIP3    H2 9970   3.772   2.253   4.537
 3322TIP3   OH2 9971   1.655   2.744   2.159
 3322TIP3    H1 9972   1.653   2.665   2.213
 3322TIP3    H2 9973   1.586   2.730   2.094
 3323TIP3   OH2 9974   1.816   3.836   0.056
 3323TIP3    H1 9975   1.735   3.814   0.009
 3323TIP3    H2 9976   1.860   3.752   0.069
 3324TIP3   OH2 9977   4.044   0.395   5.104
 3324TIP3    H1 9978   3.960   0.370   5.144
 3324TIP3    H2 9979   4.107   0.390   5.176
 3325TIP3   OH2 9980   2.610   0.184   4.444
 3325TIP3    H1 9981   2.651   0.268   4.424
 3325TIP3    H2 9982   2.680   0.120   4.429
 3326TIP3   OH2 9983   4.406   3.522   1.746
 3326TIP3    H1 9984   4.475   3.561   1.799
 3326TIP3    H2 9985   4.451   3.459   1.689
 3327TIP3   OH2 9986   3.849   0.647   2.490
 3327TIP3    H1 9987   3.910   0.674   2.422
 3327TIP3    H2 9988   3.904   0.632   2.567
 3328TIP3   OH2 9989   1.343   0.230   1.909
 3328TIP3    H1 9990   1.361   0.315   1.949
 3328TIP3    H2 9991   1.250   0.214   1.927
 3329TIP3   OH2 9992   1.302   4.926   1.429
 3329TIP3    H1 9993   1.297   5.008   1.378
 3329TIP3    H2 9994   1.286   4.953   1.519
 3330TIP3   OH2 9995   0.794   3.228   2.092
 3330TIP3    H1 9996   0.754   3.178   2.163
 3330TIP3    H2 9997   0.840   3.300   2.137
 3331TIP3   OH2 9998   0.129   4.202   0.022
 3331TIP3    H1 9999   0.046   4.213  -0.024
 3331TIP3    H210000   0.130   4.272   0.087
 3332TIP3   OH210001   4.185   3.701   2.682
 3332TIP3    H110002   4.230   3.617   2.689
 3332TIP3    H210003   4.092   3.679   2.690
 3333TIP3   OH210004   3.928   3.536   0.513
 3333TIP3    H110005   3.837   3.515   0.535
 3333TIP3    H210006   3.960   3.457   0.468
 3334TIP3   OH210007   1.414   0.595   3.340
 3334TIP3    H110008   1.435   0.617   3.431
 3334TIP3    H210009   1.474   0.648   3.288
 3335TIP3   OH210010   2.576   0.403   4.785
 3335TIP3    H110011   2.536   0.459   4.851
 3335TIP3    H210012   2.503   0.372   4.731
 3336TIP3   OH210013   3.924   5.389   3.473
 3336TIP3    H110014   3.915   5.484   3.469
 3336TIP3    H210015   3.887   5.358   3.390
 3337TIP3   OH210016   0.835   0.281   3.184
 3337TIP3    H110017   0.741   0.290   3.172
 3337TIP3    H210018   0.871   0.289   3.095
 3338TIP3   OH210019   1.701   3.102   1.505
 3338TIP3    H110020   1.703   3.022   1.557
 3338TIP3    H210021   1.762   3.086   1.433
 3339TIP3   OH210022   2.269   2.463   1.675
 3339TIP3    H110023   2.178   2.491   1.668
 3339TIP3    H210024   2.315   2.538   1.712
 3340TIP3   OH210025   4.364   4.605   0.985
 3340TIP3    H110026   4.275   4.601   0.948
 3340TIP3    H210027   4.390   4.697   0.975
 3341TIP3   OH210028   3.032   5.380   3.607
 3341TIP3    H110029   3.042   5.296   3.563
 3341TIP3    H210030   2.982   5.361   3.686
 3342TIP3   OH210031   3.999   5.670   1.373
 3342TIP3    H110032   4.058   5.731   1.417
 3342TIP3    H210033   4.054   5.623   1.311
 3343TIP3   OH210034   1.998   4.421   1.218
 3343TIP3    H110035   1.958   4.375   1.145
 3343TIP3    H210036   2.052   4.354   1.261
 3344TIP3   OH210037   2.276   0.815   1.701
 3344TIP3    H110038   2.299   0.889   1.645
 3344TIP3    H210039   2.249   0.746   1.640
 3345TIP3   OH210040   4.697   2.762   0.016
 3345TIP3    H110041   4.663   2.720   0.095
 3345TIP3    H210042   4.628   2.748  -0.049
 3346TIP3   OH210043   1.736   3.606   4.129
 3346TIP3    H110044   1.675   3.593   4.202
 3346TIP3    H210045   1.794   3.530   4.132
 3347TIP3   OH210046   2.330   2.069   4.958
 3347TIP3    H110047   2.267   2.066   4.886
 3347TIP3    H210048   2.284   2.116   5.027
 3348TIP3   OH210049   0.029   2.131   0.547
 3348TIP3    H110050   0.010   2.037   0.547
 3348TIP3    H210051   0.116   2.138   0.508
 3349TIP3   OH210052   5.532   4.075   3.284
 3349TIP3    H110053   5.511   4.015   3.212
 3349TIP3    H210054   5.448   4.102   3.319
 3350TIP3   OH210055   5.613   0.477   2.533
 3350TIP3    H110056   5.595   0.393   2.491
 3350TIP3    H210057   5.687   0.512   2.484
 3351TIP3   OH210058   4.952   3.665   3.196
 3351TIP3    H110059   4.877   3.708   3.238
 3351TIP3    H210060   5.013   3.736   3.176
 3352TIP3   OH210061   4.625   1.362   4.553
 3352TIP3    H110062   4.606   1.276   4.590
 3352TIP3    H210063   4.620   1.422   4.628
 3353TIP3   OH210064   4.489   4.376   4.705
 3353TIP3    H110065   4.422   4.402   4.769
 3353TIP3    H210066   4.465   4.287   4.680
 3354TIP3   OH210067   3.743   3.863   1.755
 3354TIP3    H110068   3.663   3.814   1.769
 3354TIP3    H210069   3.811   3.797   1.742
 3355TIP3   OH210070   1.103   1.875   3.645
 3355TIP3    H110071   1.015   1.899   3.613
 3355TIP3    H210072   1.086   1.815   3.718
 3356TIP3   OH210073   4.523   4.813   1.725
 3356TIP3    H110074   4.459   4.745   1.702
 3356TIP3    H210075   4.511   4.880   1.658
 3357TIP3   OH210076   0.296   3.714   2.187
 3357TIP3    H110077   0.320   3.675   2.103
 3357TIP3    H210078   0.201   3.705   2.192
 3358TIP3   OH210079   4.088   5.145   1.986
 3358TIP3    H110080   4.167   5.142   2.040
 3358TIP3    H210081   4.042   5.223   2.016
 3359TIP3   OH210082   3.836   2.458   1.995
 3359TIP3    H110083   3.755   2.473   1.947
 3359TIP3    H210084   3.852   2.363   1.988
 3360TIP3   OH210085   0.882   5.647   2.492
 3360TIP3    H110086   0.837   5.684   2.568
 3360TIP3    H210087   0.842   5.561   2.481
 3361TIP3   OH210088   4.803   5.949   4.065
 3361TIP3    H110089   4.884   5.999   4.052
 3361TIP3    H210090   4.740   6.014   4.096
 3362TIP3   OH210091   2.662   5.791   5.134
 3362TIP3    H110092   2.627   5.852   5.070
 3362TIP3    H210093   2.634   5.705   5.104
 3363TIP3   OH210094   5.736   3.504   0.162
 3363TIP3    H110095   5.708   3.572   0.101
 3363TIP3    H210096   5.763   3.552   0.241
 3364TIP3   OH210097   1.802   5.379   3.613
 3364TIP3    H110098   1.778   5.288   3.629
 3364TIP3    H210099   1.742   5.407   3.544
 3365TIP3   OH210100   0.129   3.042   4.591
 3365TIP3    H110101   0.222   3.055   4.570
 3365TIP3    H210102   0.128   3.018   4.683
 3366TIP3   OH210103   4.028   3.478   2.557
 3366TIP3    H110104   3.958   3.432   2.510
 3366TIP3    H210105   3.989   3.562   2.580
 3367TIP3   OH210106   5.778   3.496   4.314
 3367TIP3    H110107   5.810   3.557   4.380
 3367TIP3    H210108   5.805   3.534   4.230
 3368TIP3   OH210109   1.078   5.093   1.859
 3368TIP3    H110110   1.118   5.100   1.946
 3368TIP3    H210111   1.014   5.022   1.869
 3369TIP3   OH210112   4.306   3.709   3.381
 3369TIP3    H110113   4.291   3.783   3.440
 3369TIP3    H210114   4.219   3.686   3.349
 3370TIP3   OH210115   2.992   2.231   1.083
 3370TIP3    H110116   3.037   2.180   1.015
 3370TIP3    H210117   3.059   2.290   1.117
 3371TIP3   OH210118   4.419   3.568   4.280
 3371TIP3    H110119   4.465   3.543   4.360
 3371TIP3    H210120   4.326   3.556   4.302
 3372TIP3   OH210121   5.471   5.590   3.096
 3372TIP3    H110122   5.475   5.499   3.068
 3372TIP3    H210123   5.463   5.640   3.015
 3373TIP3   OH210124   4.154   2.807   5.017
 3373TIP3    H110125   4.233   2.774   4.974
 3373TIP3    H210126   4.161   2.776   5.107
 3374TIP3   OH210127   1.370   4.756   4.373
 3374TIP3    H110128   1.280   4.744   4.405
 3374TIP3    H210129   1.403   4.832   4.420
 3375TIP3   OH210130   6.343   2.859   4.469
 3375TIP3    H110131   6.347   2.842   4.563
 3375TIP3    H210132   6.385   2.944   4.458
 3376TIP3   OH210133   1.410   4.890   2.497
 3376TIP3    H110134   1.413   4.974   2.451
 3376TIP3    H210135   1.433   4.911   2.588
 3377TIP3   OH210136   1.495   0.691   2.155
 3377TIP3    H110137   1.430   0.737   2.103
 3377TIP3    H210138   1.489   0.729   2.242
 3378TIP3   OH210139   4.066   0.772   0.518
 3378TIP3    H110140   3.981   0.747   0.482
 3378TIP3    H210141   4.127   0.762   0.445
 3379TIP3   OH210142   2.596   3.182   0.584
 3379TIP3    H110143   2.565   3.166   0.495
 3379TIP3    H210144   2.519   3.214   0.631
 3380TIP3   OH210145   3.908   0.995   2.638
 3380TIP3    H110146   3.958   1.020   2.716
 3380TIP3    H210147   3.919   1.070   2.579
 3381TIP3   OH210148   4.924   1.265   4.440
 3381TIP3    H110149   4.867   1.226   4.507
 3381TIP3    H210150   4.921   1.359   4.457
 3382TIP3   OH210151   3.195   4.631   1.414
 3382TIP3    H110152   3.109   4.653   1.377
 3382TIP3    H210153   3.178   4.616   1.507
 3383TIP3   OH210154   2.913   0.123   4.951
 3383TIP3    H110155   2.983   0.148   5.012
 3383TIP3    H210156   2.944   0.156   4.866
 3384TIP3   OH210157   0.734   5.779   1.746
 3384TIP3    H110158   0.660   5.755   1.690
 3384TIP3    H210159   0.702   5.767   1.835
 3385TIP3   OH210160   3.372   3.140   3.368
 3385TIP3    H110161   3.394   3.230   3.393
 3385TIP3    H210162   3.346   3.146   3.276
 3386TIP3   OH210163   2.814   5.232   0.632
 3386TIP3    H110164   2.831   5.234   0.726
 3386TIP3    H210165   2.803   5.140   0.611
 3387TIP3   OH210166   3.072   1.162   1.358
 3387TIP3    H110167   3.079   1.254   1.380
 3387TIP3    H210168   3.159   1.137   1.327
 3388TIP3   OH210169   1.261   5.638   0.472
 3388TIP3    H110170   1.342   5.688   0.484
 3388TIP3    H210171   1.278   5.585   0.393
 3389TIP3   OH210172   3.205   2.359   1.189
 3389TIP3    H110173   3.276   2.335   1.129
 3389TIP3    H210174   3.239   2.434   1.238
 3390TIP3   OH210175   1.423   5.419   0.258
 3390TIP3    H110176   1.337   5.450   0.229
 3390TIP3    H210177   1.474   5.411   0.177
 3391TIP3   OH210178   3.872   5.446   2.850
 3391TIP3    H110179   3.948   5.424   2.796
 3391TIP3    H210180   3.893   5.532   2.887
 3392TIP3   OH210181   4.157   0.176   0.213
 3392TIP3    H110182   4.218   0.246   0.189
 3392TIP3    H210183   4.072   0.219   0.222
 3393TIP3   OH210184   4.422   5.348   3.927
 3393TIP3    H110185   4.507   5.336   3.969
 3393TIP3    H210186   4.367   5.386   3.996
 3394TIP3   OH210187   4.168   3.143   0.879
 3394TIP3    H110188   4.203   3.221   0.922
 3394TIP3    H210189   4.225   3.130   0.803
 3395TIP3   OH210190   5.724   0.566   0.224
 3395TIP3    H110191   5.808   0.557   0.270
 3395TIP3    H210192   5.737   0.521   0.141
 3396TIP3   OH210193   3.955   5.202   3.027
 3396TIP3    H110194   3.986   5.229   2.940
 3396TIP3    H210195   4.012   5.249   3.088
 3397TIP3   OH210196   3.081   0.659   2.135
 3397TIP3    H110197   3.088   0.564   2.121
 3397TIP3    H210198   3.124   0.674   2.219
 3398TIP3   OH210199   5.129   4.762   3.184
 3398TIP3    H110200   5.168   4.675   3.189
 3398TIP3    H210201   5.065   4.763   3.256
 3399TIP3   OH210202   3.283   2.406   5.003
 3399TIP3    H110203   3.237   2.344   5.058
 3399TIP3    H210204   3.374   2.404   5.035
 3400TIP3   OH210205   0.289   4.901  -0.002
 3400TIP3    H110206   0.234   4.961   0.049
 3400TIP3    H210207   0.298   4.944  -0.087
 3401TIP3   OH210208   0.234   5.177   3.343
 3401TIP3    H110209   0.222   5.084   3.365
 3401TIP3    H210210   0.195   5.185   3.256
 3402TIP3   OH210211   3.022   3.854   2.142
 3402TIP3    H110212   3.061   3.942   2.152
 3402TIP3    H210213   3.020   3.839   2.048
 3403TIP3   OH210214   1.893   2.207   4.165
 3403TIP3    H110215   1.923   2.148   4.095
 3403TIP3    H210216   1.820   2.160   4.206
 3404TIP3   OH210217   1.344   2.090   2.332
 3404TIP3    H110218   1.434   2.060   2.344
 3404TIP3    H210219   1.324   2.069   2.241
 3405TIP3   OH210220   0.460   1.499   4.686
 3405TIP3    H110221   0.471   1.575   4.744
 3405TIP3    H210222   0.520   1.516   4.613
 3406TIP3   OH210223   1.009   0.141   4.919
 3406TIP3    H110224   1.077   0.111   4.979
 3406TIP3    H210225   0.943   0.181   4.976
 3407TIP3   OH210226   2.866   5.620   1.400
 3407TIP3    H110227   2.781   5.659   1.419
 3407TIP3    H210228   2.894   5.663   1.319
 3408TIP3   OH210229   5.439   1.295   0.147
 3408TIP3    H110230   5.505   1.358   0.175
 3408TIP3    H210231   5.459   1.279   0.055
 3409TIP3   OH210232   4.222   2.148   4.820
 3409TIP3    H110233   4.296   2.208   4.810
 3409TIP3    H210234   4.241   2.075   4.762
 3410TIP3   OH210235   5.769   4.005   0.493
 3410TIP3    H110236   5.805   3.956   0.419
 3410TIP3    H210237   5.699   4.057   0.455
 3411TIP3   OH210238   5.026   3.741   1.287
 3411TIP3    H110239   5.056   3.685   1.358
 3411TIP3    H210240   5.091   3.730   1.217
 3412TIP3   OH210241   1.207   0.959   4.953
 3412TIP3    H110242   1.275   0.931   5.014
 3412TIP3    H210243   1.192   1.051   4.975
 3413TIP3   OH210244   2.017   4.984   3.357
 3413TIP3    H110245   1.984   4.897   3.334
 3413TIP3    H210246   2.110   4.981   3.336
 3414TIP3   OH210247   2.265   0.295   4.348
 3414TIP3    H110248   2.195   0.340   4.395
 3414TIP3    H210249   2.221   0.242   4.282
 3415TIP3   OH210250   4.565   5.409   2.337
 3415TIP3    H110251   4.549   5.315   2.347
 3415TIP3    H210252   4.613   5.417   2.255
 3416TIP3   OH210253   3.839   3.200   1.191
 3416TIP3    H110254   3.877   3.114   1.179
 3416TIP3    H210255   3.870   3.251   1.116
 3417TIP3   OH210256   6.042   0.599   0.377
 3417TIP3    H110257   6.112   0.626   0.436
 3417TIP3    H210258   6.064   0.641   0.294
 3418TIP3   OH210259   4.004   0.141   4.961
 3418TIP3    H110260   4.024   0.210   5.025
 3418TIP3    H210261   3.952   0.186   4.894
 3419TIP3   OH210262   2.112   1.583   1.521
 3419TIP3    H110263   2.027   1.626   1.519
 3419TIP3    H210264   2.093   1.494   1.549
 3420TIP3   OH210265   5.761   3.217   4.345
 3420TIP3    H110266   5.789   3.308   4.332
 3420TIP3    H210267   5.675   3.224   4.385
 3421TIP3   OH210268   1.831   0.026   2.175
 3421TIP3    H110269   1.912  -0.020   2.157
 3421TIP3    H210270   1.837   0.050   2.268
 3422TIP3   OH210271   4.302   0.972   2.978
 3422TIP3    H110272   4.340   0.890   3.009
 3422TIP3    H210273   4.376   1.031   2.967
 3423TIP3   OH210274   0.816   2.525   3.024
 3423TIP3    H110275   0.835   2.451   2.966
 3423TIP3    H210276   0.745   2.572   2.981
 3424TIP3   OH210277   4.478   0.229   2.457
 3424TIP3    H110278   4.412   0.185   2.403
 3424TIP3    H210279   4.559   0.182   2.438
 3425TIP3   OH210280   2.955   0.223   4.705
 3425TIP3    H110281   2.898   0.219   4.628
 3425TIP3    H210282   2.977   0.316   4.713
 3426TIP3   OH210283   3.499   1.516   2.709
 3426TIP3    H110284   3.481   1.424   2.689
 3426TIP3    H210285   3.484   1.562   2.626
 3427TIP3   OH210286   6.229   5.992   3.581
 3427TIP3    H110287   6.163   5.923   3.578
 3427TIP3    H210288   6.297   5.964   3.521
 3428TIP3   OH210289   5.450   3.046   3.535
 3428TIP3    H110290   5.463   2.968   3.588
 3428TIP3    H210291   5.409   3.109   3.594
 3429TIP3   OH210292   2.035   2.677   4.740
 3429TIP3    H110293   2.003   2.766   4.722
 3429TIP3    H210294   2.116   2.691   4.788
 3430TIP3   OH210295   1.771   1.087   3.718
 3430TIP3    H110296   1.824   1.023   3.767
 3430TIP3    H210297   1.830   1.119   3.650
 3431TIP3   OH210298   5.992   4.437   3.206
 3431TIP3    H110299   5.945   4.356   3.224
 3431TIP3    H210300   6.083   4.419   3.230
 3432TIP3   OH210301   4.617   1.114   0.954
 3432TIP3    H110302   4.560   1.132   0.879
 3432TIP3    H210303   4.571   1.151   1.029
 3433TIP3   OH210304   5.408   2.085   0.755
 3433TIP3    H110305   5.362   2.001   0.757
 3433TIP3    H210306   5.476   2.075   0.822
 3434TIP3   OH210307   3.896   2.726   2.678
 3434TIP3    H110308   3.872   2.773   2.598
 3434TIP3    H210309   3.854   2.775   2.749
 3435TIP3   OH210310   3.751   1.370   4.625
 3435TIP3    H110311   3.703   1.389   4.706
 3435TIP3    H210312   3.803   1.448   4.609
 3436TIP3   OH210313   5.631   3.706   0.007
 3436TIP3    H110314   5.655   3.797  -0.010
 3436TIP3    H210315   5.566   3.710   0.076
 3437TIP3   OH210316   6.243   4.473   3.949
 3437TIP3    H110317   6.165   4.523   3.970
 3437TIP3    H210318   6.303   4.489   4.022
 3438TIP3   OH210319   0.965   5.476   1.626
 3438TIP3    H110320   1.007   5.400   1.585
 3438TIP3    H210321   0.937   5.444   1.712
 3439TIP3   OH210322   4.453   2.897   4.675
 3439TIP3    H110323   4.531   2.945   4.703
 3439TIP3    H210324   4.380   2.947   4.711
 3440TIP3   OH210325   1.259   3.862   1.388
 3440TIP3    H110326   1.175   3.821   1.366
 3440TIP3    H210327   1.235   3.936   1.444
 3441TIP3   OH210328   6.145   3.305   0.285
 3441TIP3    H110329   6.112   3.229   0.237
 3441TIP3    H210330   6.224   3.332   0.238
 3442TIP3   OH210331   3.642   3.880   3.248
 3442TIP3    H110332   3.610   3.863   3.337
 3442TIP3    H210333   3.716   3.939   3.260
 3443TIP3   OH210334   0.874   3.901   2.006
 3443TIP3    H110335   0.842   3.986   1.977
 3443TIP3    H210336   0.967   3.902   1.986
 3444TIP3   OH210337   4.962   2.763   0.598
 3444TIP3    H110338   4.874   2.750   0.561
 3444TIP3    H210339   4.976   2.686   0.652
 3445TIP3   OH210340   0.312   1.237   4.222
 3445TIP3    H110341   0.293   1.258   4.131
 3445TIP3    H210342   0.249   1.290   4.272
 3446TIP3   OH210343   6.251   4.718   4.398
 3446TIP3    H110344   6.294   4.661   4.335
 3446TIP3    H210345   6.255   4.805   4.358
 3447TIP3   OH210346   5.313   3.025   0.924
 3447TIP3    H110347   5.304   3.049   0.832
 3447TIP3    H210348   5.384   3.081   0.956
 3448TIP3   OH210349   5.446   0.905   4.251
 3448TIP3    H110350   5.479   0.915   4.162
 3448TIP3    H210351   5.352   0.923   4.243
 3449TIP3   OH210352   5.633   2.028   3.671
 3449TIP3    H110353   5.681   2.104   3.704
 3449TIP3    H210354   5.681   1.953   3.706
 3450TIP3   OH210355   0.416   1.594   0.759
 3450TIP3    H110356   0.356   1.616   0.688
 3450TIP3    H210357   0.367   1.532   0.814
 3451TIP3   OH210358   1.345   5.039   0.750
 3451TIP3    H110359   1.397   4.969   0.789
 3451TIP3    H210360   1.366   5.037   0.657
 3452TIP3   OH210361   3.547   5.993   1.661
 3452TIP3    H110362   3.460   6.025   1.637
 3452TIP3    H210363   3.533   5.904   1.692
 3453TIP3   OH210364   3.419   5.872   3.751
 3453TIP3    H110365   3.482   5.911   3.811
 3453TIP3    H210366   3.419   5.778   3.774
 3454TIP3   OH210367   0.142   3.485   1.089
 3454TIP3    H110368   0.061   3.434   1.099
 3454TIP3    H210369   0.176   3.459   1.004
 3455TIP3   OH210370   5.142   5.035   4.215
 3455TIP3    H110371   5.140   5.094   4.140
 3455TIP3    H210372   5.176   5.089   4.287
 3456TIP3   OH210373   5.479   5.664   2.501
 3456TIP3    H110374   5.497   5.570   2.495
 3456TIP3    H210375   5.431   5.685   2.420
 3457TIP3   OH210376   2.975   3.869   3.661
 3457TIP3    H110377   2.891   3.826   3.679
 3457TIP3    H210378   3.024   3.805   3.610
 3458TIP3   OH210379   0.888   2.708   3.999
 3458TIP3    H110380   0.949   2.776   3.973
 3458TIP3    H210381   0.935   2.658   4.066
 3459TIP3   OH210382   2.939   2.045   3.178
 3459TIP3    H110383   2.910   2.131   3.149
 3459TIP3    H210384   2.960   1.998   3.098
 3460TIP3   OH210385   2.192   2.462   2.047
 3460TIP3    H110386   2.108   2.472   2.091
 3460TIP3    H210387   2.250   2.427   2.115
 3461TIP3   OH210388   3.517   2.678   2.842
 3461TIP3    H110389   3.541   2.598   2.796
 3461TIP3    H210390   3.539   2.749   2.782
 3462TIP3   OH210391   2.475   2.246   4.645
 3462TIP3    H110392   2.403   2.273   4.588
 3462TIP3    H210393   2.551   2.242   4.587
 3463TIP3   OH210394   2.298   3.946   2.569
 3463TIP3    H110395   2.339   3.859   2.564
 3463TIP3    H210396   2.281   3.958   2.662
 3464TIP3   OH210397   6.267   1.290   4.483
 3464TIP3    H110398   6.280   1.337   4.565
 3464TIP3    H210399   6.209   1.218   4.505
 3465TIP3   OH210400   2.020   0.432   1.169
 3465TIP3    H110401   1.928   0.406   1.157
 3465TIP3    H210402   2.070   0.353   1.150
 3466TIP3   OH210403   0.313   2.165   4.643
 3466TIP3    H110404   0.366   2.086   4.631
 3466TIP3    H210405   0.370   2.226   4.689
 3467TIP3   OH210406   0.602   4.173   1.185
 3467TIP3    H110407   0.536   4.107   1.165
 3467TIP3    H210408   0.607   4.227   1.106
 3468TIP3   OH210409   0.225   1.577   3.037
 3468TIP3    H110410   0.148   1.580   3.095
 3468TIP3    H210411   0.297   1.608   3.091
 3469TIP3   OH210412   4.296   0.732   4.962
 3469TIP3    H110413   4.360   0.697   5.025
 3469TIP3    H210414   4.237   0.659   4.945
 3470TIP3   OH210415   4.213   1.585   4.210
 3470TIP3    H110416   4.158   1.523   4.163
 3470TIP3    H210417   4.196   1.670   4.169
 3471TIP3   OH210418   0.589   1.115   0.369
 3471TIP3    H110419   0.494   1.106   0.371
 3471TIP3    H210420   0.606   1.168   0.291
 3472TIP3   OH210421   1.685   1.436   0.779
 3472TIP3    H110422   1.702   1.382   0.702
 3472TIP3    H210423   1.771   1.445   0.821
 3473TIP3   OH210424   4.625   5.439   4.608
 3473TIP3    H110425   4.587   5.454   4.694
 3473TIP3    H210426   4.595   5.513   4.555
 3474TIP3   OH210427   1.205   4.710   1.293
 3474TIP3    H110428   1.124   4.679   1.334
 3474TIP3    H210429   1.223   4.794   1.336
 3475TIP3   OH210430   4.692   1.601   1.363
 3475TIP3    H110431   4.746   1.537   1.316
 3475TIP3    H210432   4.604   1.563   1.364
 3476TIP3   OH210433   2.365   1.901   3.492
 3476TIP3    H110434   2.406   1.872   3.573
 3476TIP3    H210435   2.418   1.862   3.422
 3477TIP3   OH210436   4.939   5.432   3.963
 3477TIP3    H110437   5.010   5.445   4.026
 3477TIP3    H210438   4.907   5.520   3.945
 3478TIP3   OH210439   2.424   2.986   0.948
 3478TIP3    H110440   2.373   2.979   0.867
 3478TIP3    H210441   2.464   3.073   0.944
 3479TIP3   OH210442   1.698   3.475   2.503
 3479TIP3    H110443   1.691   3.482   2.598
 3479TIP3    H210444   1.762   3.541   2.478
 3480TIP3   OH210445   1.696   5.075   0.255
 3480TIP3    H110446   1.739   4.996   0.222
 3480TIP3    H210447   1.605   5.048   0.267
 3481TIP3   OH210448   2.193   0.765   0.607
 3481TIP3    H110449   2.131   0.791   0.539
 3481TIP3    H210450   2.141   0.767   0.688
 3482TIP3   OH210451   3.071   5.542   3.360
 3482TIP3    H110452   3.092   5.498   3.442
 3482TIP3    H210453   2.994   5.595   3.381
 3483TIP3   OH210454   4.500   0.268   1.603
 3483TIP3    H110455   4.441   0.344   1.612
 3483TIP3    H210456   4.513   0.236   1.692
 3484TIP3   OH210457   4.372   3.874   2.523
 3484TIP3    H110458   4.310   3.832   2.583
 3484TIP3    H210459   4.320   3.940   2.477
 3485TIP3   OH210460   2.659   5.468   2.737
 3485TIP3    H110461   2.617   5.455   2.822
 3485TIP3    H210462   2.672   5.563   2.732
 3486TIP3   OH210463   3.668   2.868   3.867
 3486TIP3    H110464   3.671   2.827   3.953
 3486TIP3    H210465   3.611   2.944   3.878
 3487TIP3   OH210466   5.427   4.107   0.448
 3487TIP3    H110467   5.452   4.101   0.356
 3487TIP3    H210468   5.413   4.016   0.475
 3488TIP3   OH210469   1.877   1.525   2.179
 3488TIP3    H110470   1.950   1.529   2.117
 3488TIP3    H210471   1.901   1.586   2.249
 3489TIP3   OH210472   3.095   4.905   2.424
 3489TIP3    H110473   3.121   4.995   2.443
 3489TIP3    H210474   3.003   4.900   2.452
 3490TIP3   OH210475   3.161   4.578   5.067
 3490TIP3    H110476   3.092   4.600   5.005
 3490TIP3    H210477   3.125   4.506   5.118
 3491TIP3   OH210478   2.138   1.995   4.775
 3491TIP3    H110479   2.188   1.929   4.727
 3491TIP3    H210480   2.098   2.049   4.707
 3492TIP3   OH210481   2.019   3.022   0.999
 3492TIP3    H110482   1.986   3.042   0.912
 3492TIP3    H210483   2.090   3.085   1.013
 3493TIP3   OH210484   1.611   1.329   4.764
 3493TIP3    H110485   1.544   1.393   4.740
 3493TIP3    H210486   1.562   1.253   4.795
 3494TIP3   OH210487   0.817   2.800   2.625
 3494TIP3    H110488   0.813   2.709   2.596
 3494TIP3    H210489   0.844   2.849   2.548
 3495TIP3   OH210490   4.563   0.697   0.564
 3495TIP3    H110491   4.641   0.660   0.523
 3495TIP3    H210492   4.519   0.622   0.603
 3496TIP3   OH210493   5.653   3.567   1.704
 3496TIP3    H110494   5.649   3.509   1.628
 3496TIP3    H210495   5.644   3.508   1.779
 3497TIP3   OH210496   3.519   1.446   4.814
 3497TIP3    H110497   3.509   1.478   4.904
 3497TIP3    H210498   3.505   1.352   4.820
 3498TIP3   OH210499   1.547   3.391   5.230
 3498TIP3    H110500   1.595   3.445   5.167
 3498TIP3    H210501   1.521   3.314   5.180
 3499TIP3   OH210502   3.010   0.236   4.096
 3499TIP3    H110503   3.102   0.212   4.108
 3499TIP3    H210504   2.967   0.204   4.175
 3500TIP3   OH210505   4.707   3.254   2.038
 3500TIP3    H110506   4.658   3.249   1.956
 3500TIP3    H210507   4.643   3.231   2.105
 3501TIP3   OH210508   3.913   4.997   1.822
 3501TIP3    H110509   3.981   5.044   1.870
 3501TIP3    H210510   3.837   5.056   1.824
 3502TIP3   OH210511   6.019   4.450   3.623
 3502TIP3    H110512   5.927   4.470   3.602
 3502TIP3    H210513   6.069   4.507   3.565
 3503TIP3   OH210514   2.544   3.229   0.939
 3503TIP3    H110515   2.627   3.212   0.894
 3503TIP3    H210516   2.554   3.317   0.975
 3504TIP3   OH210517   2.073   0.439   0.566
 3504TIP3    H110518   1.997   0.467   0.617
 3504TIP3    H210519   2.144   0.434   0.630
 3505TIP3   OH210520   4.110   1.845   4.133
 3505TIP3    H110521   4.062   1.922   4.164
 3505TIP3    H210522   4.081   1.834   4.043
 3506TIP3   OH210523   3.303   5.825   5.199
 3506TIP3    H110524   3.371   5.872   5.150
 3506TIP3    H210525   3.307   5.862   5.287
 3507TIP3   OH210526   3.976   5.142   4.188
 3507TIP3    H110527   3.946   5.232   4.201
 3507TIP3    H210528   3.951   5.121   4.098
 3508TIP3   OH210529   2.794   5.350   1.194
 3508TIP3    H110530   2.723   5.349   1.130
 3508TIP3    H210531   2.858   5.287   1.161
 3509TIP3   OH210532   3.134   2.241   1.516
 3509TIP3    H110533   3.191   2.274   1.586
 3509TIP3    H210534   3.145   2.305   1.445
 3510TIP3   OH210535   0.546   3.458   2.066
 3510TIP3    H110536   0.474   3.395   2.062
 3510TIP3    H210537   0.509   3.539   2.031
 3511TIP3   OH210538   2.510   1.838   3.701
 3511TIP3    H110539   2.549   1.925   3.701
 3511TIP3    H210540   2.585   1.779   3.692
 3512TIP3   OH210541   5.376   4.842   0.531
 3512TIP3    H110542   5.405   4.931   0.514
 3512TIP3    H210543   5.294   4.833   0.482
 3513TIP3   OH210544   1.253   2.459   3.964
 3513TIP3    H110545   1.292   2.468   3.877
 3513TIP3    H210546   1.329   2.448   4.022
 3514TIP3   OH210547   1.947   0.721   1.103
 3514TIP3    H110548   1.964   0.628   1.119
 3514TIP3    H210549   1.880   0.744   1.167
 3515TIP3   OH210550   3.895   0.528   0.946
 3515TIP3    H110551   3.960   0.597   0.964
 3515TIP3    H210552   3.887   0.481   1.029
 3516TIP3   OH210553   2.923   3.512   3.335
 3516TIP3    H110554   2.891   3.532   3.247
 3516TIP3    H210555   2.862   3.559   3.393
 3517TIP3   OH210556   5.443   0.211   3.719
 3517TIP3    H110557   5.523   0.263   3.727
 3517TIP3    H210558   5.373   0.275   3.725
 3518TIP3   OH210559   5.298   3.359   4.305
 3518TIP3    H110560   5.248   3.440   4.308
 3518TIP3    H210561   5.271   3.312   4.384
 3519TIP3   OH210562   4.290   1.941   5.062
 3519TIP3    H110563   4.366   1.982   5.021
 3519TIP3    H210564   4.216   1.996   5.037
 3520TIP3   OH210565   4.680   0.371   1.188
 3520TIP3    H110566   4.713   0.336   1.271
 3520TIP3    H210567   4.705   0.463   1.188
 3521TIP3   OH210568   3.699   5.249   2.779
 3521TIP3    H110569   3.692   5.247   2.684
 3521TIP3    H210570   3.760   5.320   2.798
 3522TIP3   OH210571   0.686   1.545   3.906
 3522TIP3    H110572   0.753   1.542   3.837
 3522TIP3    H210573   0.714   1.478   3.969
 3523TIP3   OH210574   2.978   2.015   1.252
 3523TIP3    H110575   3.035   2.044   1.323
 3523TIP3    H210576   2.971   2.092   1.194
 3524TIP3   OH210577   1.769   0.209   2.739
 3524TIP3    H110578   1.707   0.137   2.727
 3524TIP3    H210579   1.786   0.241   2.651
 3525TIP3   OH210580   0.489   0.096   4.500
 3525TIP3    H110581   0.437   0.141   4.567
 3525TIP3    H210582   0.505   0.163   4.433
 3526TIP3   OH210583   2.368   1.563   3.868
 3526TIP3    H110584   2.319   1.557   3.786
 3526TIP3    H210585   2.304   1.597   3.931
 3527TIP3   OH210586   5.469   2.323   1.098
 3527TIP3    H110587   5.463   2.417   1.113
 3527TIP3    H210588   5.392   2.286   1.142
 3528TIP3   OH210589   5.530   2.828   2.373
 3528TIP3    H110590   5.525   2.771   2.449
 3528TIP3    H210591   5.519   2.769   2.298
 3529TIP3   OH210592   2.464   0.972   1.885
 3529TIP3    H110593   2.373   0.944   1.892
 3529TIP3    H210594   2.514   0.901   1.926
 3530TIP3   OH210595   1.162   2.948   3.297
 3530TIP3    H110596   1.092   2.920   3.357
 3530TIP3    H210597   1.116   2.971   3.216
 3531TIP3   OH210598   3.688   2.057   3.638
 3531TIP3    H110599   3.769   2.106   3.626
 3531TIP3    H210600   3.656   2.083   3.724
 3532TIP3   OH210601   2.913   4.678  -0.018
 3532TIP3    H110602   2.901   4.667   0.076
 3532TIP3    H210603   2.943   4.592  -0.048
 3533TIP3   OH210604   5.994   5.393   2.313
 3533TIP3    H110605   6.081   5.371   2.346
 3533TIP3    H210606   5.956   5.309   2.287
 3534TIP3   OH210607   0.809   0.081   4.175
 3534TIP3    H110608   0.902   0.103   4.183
 3534TIP3    H210609   0.764   0.165   4.186
 3535TIP3   OH210610   3.072   3.387   1.806
 3535TIP3    H110611   3.062   3.392   1.711
 3535TIP3    H210612   3.024   3.308   1.831
 3536TIP3   OH210613   2.954   4.383   0.470
 3536TIP3    H110614   2.877   4.401   0.416
 3536TIP3    H210615   3.011   4.459   0.457
 3537TIP3   OH210616   1.683   0.241   2.056
 3537TIP3    H110617   1.735   0.174   2.101
 3537TIP3    H210618   1.660   0.200   1.973
 3538TIP3   OH210619   1.443   4.651   0.875
 3538TIP3    H110620   1.486   4.614   0.952
 3538TIP3    H210621   1.503   4.633   0.803
 3539TIP3   OH210622   1.184   6.000   4.828
 3539TIP3    H110623   1.145   5.977   4.911
 3539TIP3    H210624   1.167   5.925   4.771
 3540TIP3   OH210625   4.231   4.094   0.063
 3540TIP3    H110626   4.152   4.087   0.009
 3540TIP3    H210627   4.286   4.021   0.035
 3541TIP3   OH210628   0.304   5.735   1.090
 3541TIP3    H110629   0.305   5.830   1.096
 3541TIP3    H210630   0.214   5.714   1.062
 3542TIP3   OH210631   0.394   1.454   0.297
 3542TIP3    H110632   0.425   1.538   0.264
 3542TIP3    H210633   0.347   1.415   0.223
 3543TIP3   OH210634   1.662   0.244   2.967
 3543TIP3    H110635   1.713   0.244   2.886
 3543TIP3    H210636   1.689   0.325   3.012
 3544TIP3   OH210637   3.836   2.010   0.517
 3544TIP3    H110638   3.845   2.099   0.551
 3544TIP3    H210639   3.804   1.959   0.591
 3545TIP3   OH210640   2.950   4.296   0.754
 3545TIP3    H110641   2.856   4.309   0.744
 3545TIP3    H210642   2.988   4.329   0.672
 3546TIP3   OH210643   2.043   5.384   3.443
 3546TIP3    H110644   1.964   5.355   3.489
 3546TIP3    H210645   2.010   5.441   3.373
 3547TIP3   OH210646   6.048   2.394   3.703
 3547TIP3    H110647   6.032   2.392   3.609
 3547TIP3    H210648   6.125   2.337   3.715
 3548TIP3   OH210649   5.473   3.365   3.166
 3548TIP3    H110650   5.558   3.408   3.159
 3548TIP3    H210651   5.472   3.328   3.255
 3549TIP3   OH210652   5.851   5.905   1.293
 3549TIP3    H110653   5.818   5.839   1.354
 3549TIP3    H210654   5.774   5.933   1.244
 3550TIP3   OH210655   4.484   1.240   4.833
 3550TIP3    H110656   4.518   1.258   4.920
 3550TIP3    H210657   4.467   1.327   4.795
 3551TIP3   OH210658   4.608   2.840   0.852
 3551TIP3    H110659   4.567   2.754   0.845
 3551TIP3    H210660   4.538   2.902   0.833
 3552TIP3   OH210661   3.800   5.222   2.268
 3552TIP3    H110662   3.727   5.178   2.310
 3552TIP3    H210663   3.815   5.300   2.320
 3553TIP3   OH210664   6.182   2.384   0.918
 3553TIP3    H110665   6.189   2.314   0.983
 3553TIP3    H210666   6.183   2.339   0.834
 3554TIP3   OH210667   0.340  -0.003   1.091
 3554TIP3    H110668   0.287   0.053   1.035
 3554TIP3    H210669   0.344   0.044   1.175
 3555TIP3   OH210670   3.454   0.058   1.045
 3555TIP3    H110671   3.539   0.039   1.084
 3555TIP3    H210672   3.399   0.086   1.118
 3556TIP3   OH210673   1.757   0.650   0.468
 3556TIP3    H110674   1.817   0.625   0.538
 3556TIP3    H210675   1.685   0.695   0.512
 3557TIP3   OH210676   1.559   5.162   1.132
 3557TIP3    H110677   1.481   5.217   1.126
 3557TIP3    H210678   1.526   5.072   1.134
 3558TIP3   OH210679   3.575   4.377   3.877
 3558TIP3    H110680   3.486   4.362   3.909
 3558TIP3    H210681   3.587   4.313   3.808
 3559TIP3   OH210682   6.038   5.530   3.042
 3559TIP3    H110683   6.076   5.618   3.042
 3559TIP3    H210684   5.948   5.543   3.071
 3560TIP3   OH210685   1.795   0.714   1.660
 3560TIP3    H110686   1.830   0.670   1.737
 3560TIP3    H210687   1.770   0.801   1.692
 3561TIP3   OH210688   3.466   3.681   3.203
 3561TIP3    H110689   3.534   3.617   3.183
 3561TIP3    H210690   3.508   3.766   3.188
 3562TIP3   OH210691   0.639   3.050   0.628
 3562TIP3    H110692   0.703   2.999   0.678
 3562TIP3    H210693   0.587   2.985   0.582
 3563TIP3   OH210694   5.436   1.634   0.855
 3563TIP3    H110695   5.389   1.718   0.859
 3563TIP3    H210696   5.376   1.571   0.893
 3564TIP3   OH210697   1.951   5.571   3.244
 3564TIP3    H110698   1.999   5.612   3.172
 3564TIP3    H210699   1.928   5.644   3.301
 3565TIP3   OH210700   0.754   5.745   0.679
 3565TIP3    H110701   0.680   5.733   0.619
 3565TIP3    H210702   0.806   5.815   0.639
 3566TIP3   OH210703   2.859   1.779   2.769
 3566TIP3    H110704   2.900   1.821   2.693
 3566TIP3    H210705   2.774   1.749   2.736
 3567TIP3   OH210706   4.606   1.676   3.647
 3567TIP3    H110707   4.634   1.762   3.616
 3567TIP3    H210708   4.677   1.646   3.704
 3568TIP3   OH210709   3.931   3.255   0.192
 3568TIP3    H110710   3.837   3.269   0.191
 3568TIP3    H210711   3.957   3.271   0.283
 3569TIP3   OH210712   6.005   3.820   3.998
 3569TIP3    H110713   6.035   3.908   3.976
 3569TIP3    H210714   5.970   3.827   4.087
 3570TIP3   OH210715   4.344   0.615   2.904
 3570TIP3    H110716   4.270   0.669   2.876
 3570TIP3    H210717   4.407   0.621   2.832
 3571TIP3   OH210718   4.452   3.516   2.153
 3571TIP3    H110719   4.415   3.569   2.224
 3571TIP3    H210720   4.376   3.487   2.102
 3572TIP3   OH210721   3.711   4.399   2.476
 3572TIP3    H110722   3.737   4.308   2.482
 3572TIP3    H210723   3.787   4.443   2.437
 3573TIP3   OH210724   4.763   5.398   4.255
 3573TIP3    H110725   4.805   5.435   4.333
 3573TIP3    H210726   4.744   5.473   4.200
 3574TIP3   OH210727   1.326   0.179   5.044
 3574TIP3    H110728   1.405   0.198   5.094
 3574TIP3    H210729   1.285   0.265   5.030
 3575TIP3   OH210730   1.365   2.860   1.775
 3575TIP3    H110731   1.371   2.953   1.797
 3575TIP3    H210732   1.276   2.835   1.802
 3576TIP3   OH210733   0.421   0.015   2.464
 3576TIP3    H110734   0.495  -0.045   2.461
 3576TIP3    H210735   0.359  -0.018   2.400
 3577TIP3   OH210736   3.789   3.619   1.099
 3577TIP3    H110737   3.872   3.574   1.120
 3577TIP3    H210738   3.804   3.710   1.124
 3578TIP3   OH210739   0.965   1.870   0.053
 3578TIP3    H110740   0.953   1.823   0.136
 3578TIP3    H210741   1.052   1.845   0.023
 3579TIP3   OH210742   4.111   0.606   0.737
 3579TIP3    H110743   4.104   0.679   0.675
 3579TIP3    H210744   4.125   0.648   0.822
 3580TIP3   OH210745   0.580   1.819   3.853
 3580TIP3    H110746   0.642   1.888   3.829
 3580TIP3    H210747   0.634   1.750   3.890
 3581TIP3   OH210748   3.225   1.110   3.591
 3581TIP3    H110749   3.262   1.023   3.608
 3581TIP3    H210750   3.277   1.169   3.645
 3582TIP3   OH210751   3.131   4.338   4.306
 3582TIP3    H110752   3.109   4.249   4.279
 3582TIP3    H210753   3.207   4.362   4.252
 3583TIP3   OH210754   4.398   3.655   1.313
 3583TIP3    H110755   4.305   3.656   1.336
 3583TIP3    H210756   4.421   3.562   1.312
 3584TIP3   OH210757   2.015   2.559   1.418
 3584TIP3    H110758   1.931   2.546   1.461
 3584TIP3    H210759   2.069   2.486   1.448
 3585TIP3   OH210760   1.022   5.823   4.384
 3585TIP3    H110761   1.082   5.759   4.422
 3585TIP3    H210762   1.037   5.903   4.435
 3586TIP3   OH210763   3.324   1.883   0.044
 3586TIP3    H110764   3.259   1.815   0.061
 3586TIP3    H210765   3.306   1.951   0.109
 3587TIP3   OH210766   6.037   4.675   0.406
 3587TIP3    H110767   6.097   4.621   0.354
 3587TIP3    H210768   6.015   4.620   0.482
 3588TIP3   OH210769   4.319   5.769   5.114
 3588TIP3    H110770   4.322   5.854   5.070
 3588TIP3    H210771   4.326   5.705   5.044
 3589TIP3   OH210772   2.201   2.584   2.497
 3589TIP3    H110773   2.223   2.513   2.558
 3589TIP3    H210774   2.111   2.566   2.470
 3590TIP3   OH210775   2.393   2.203   4.011
 3590TIP3    H110776   2.316   2.146   4.009
 3590TIP3    H210777   2.465   2.144   4.033
 3591TIP3   OH210778   5.867   1.564   1.649
 3591TIP3    H110779   5.808   1.619   1.701
 3591TIP3    H210780   5.876   1.611   1.566
 3592TIP3   OH210781   2.438   4.182   2.631
 3592TIP3    H110782   2.524   4.224   2.628
 3592TIP3    H210783   2.455   4.091   2.610
 3593TIP3   OH210784   0.841   3.198   1.505
 3593TIP3    H110785   0.909   3.206   1.439
 3593TIP3    H210786   0.776   3.264   1.480
 3594TIP3   OH210787   3.616   1.846   4.511
 3594TIP3    H110788   3.601   1.789   4.586
 3594TIP3    H210789   3.692   1.899   4.536
 3595TIP3   OH210790   3.137   1.747   1.216
 3595TIP3    H110791   3.088   1.828   1.227
 3595TIP3    H210792   3.228   1.771   1.234
 3596TIP3   OH210793   4.356   3.849   2.825
 3596TIP3    H110794   4.280   3.819   2.775
 3596TIP3    H210795   4.400   3.768   2.853
 3597TIP3   OH210796   5.270   4.468   3.431
 3597TIP3    H110797   5.177   4.458   3.411
 3597TIP3    H210798   5.283   4.563   3.435
 3598TIP3   OH210799   0.182   0.885   2.616
 3598TIP3    H110800   0.136   0.968   2.604
 3598TIP3    H210801   0.274   0.908   2.620
 3599TIP3   OH210802   2.840   1.093   4.444
 3599TIP3    H110803   2.853   1.187   4.447
 3599TIP3    H210804   2.752   1.079   4.480
 3600TIP3   OH210805   5.627   4.735   0.467
 3600TIP3    H110806   5.629   4.810   0.527
 3600TIP3    H210807   5.534   4.719   0.453
 3601TIP3   OH210808   0.807   3.667   0.702
 3601TIP3    H110809   0.900   3.688   0.689
 3601TIP3    H210810   0.780   3.722   0.775
 3602TIP3   OH210811   2.636   0.144   2.663
 3602TIP3    H110812   2.597   0.148   2.750
 3602TIP3    H210813   2.592   0.070   2.621
 3603TIP3   OH210814   6.089   3.097   1.967
 3603TIP3    H110815   6.148   3.107   2.041
 3603TIP3    H210816   6.119   3.018   1.922
 3604TIP3   OH210817   3.436   5.704   3.211
 3604TIP3    H110818   3.460   5.764   3.141
 3604TIP3    H210819   3.390   5.632   3.168
 3605TIP3   OH210820   3.416   0.447   0.419
 3605TIP3    H110821   3.422   0.422   0.511
 3605TIP3    H210822   3.322   0.443   0.399
 3606TIP3   OH210823   2.491   5.501   2.942
 3606TIP3    H110824   2.441   5.580   2.963
 3606TIP3    H210825   2.425   5.433   2.932
 3607TIP3   OH210826   1.028   4.433   0.039
 3607TIP3    H110827   0.940   4.403   0.063
 3607TIP3    H210828   1.066   4.462   0.122
 3608TIP3   OH210829   6.212   2.897   3.622
 3608TIP3    H110830   6.213   2.848   3.540
 3608TIP3    H210831   6.270   2.846   3.680
 3609TIP3   OH210832   5.881   4.600   2.203
 3609TIP3    H110833   5.904   4.509   2.188
 3609TIP3    H210834   5.844   4.602   2.291
 3610TIP3   OH210835   4.107   5.385   3.158
 3610TIP3    H110836   4.200   5.393   3.183
 3610TIP3    H210837   4.074   5.475   3.162
 3611TIP3   OH210838   4.196   2.463   1.577
 3611TIP3    H110839   4.159   2.480   1.491
 3611TIP3    H210840   4.171   2.372   1.596
 3612TIP3   OH210841   5.058   0.816   4.817
 3612TIP3    H110842   5.076   0.730   4.854
 3612TIP3    H210843   4.973   0.807   4.775
 3613TIP3   OH210844   3.092   2.925   0.686
 3613TIP3    H110845   3.029   2.997   0.699
 3613TIP3    H210846   3.050   2.850   0.728
 3614TIP3   OH210847   5.181   2.436   1.735
 3614TIP3    H110848   5.199   2.500   1.804
 3614TIP3    H210849   5.108   2.473   1.685
 3615TIP3   OH210850   2.405   2.963   4.332
 3615TIP3    H110851   2.343   2.981   4.261
 3615TIP3    H210852   2.447   3.047   4.350
 3616TIP3   OH210853   1.140   1.700   0.876
 3616TIP3    H110854   1.095   1.749   0.945
 3616TIP3    H210855   1.101   1.731   0.795
 3617TIP3   OH210856   3.843   5.236   4.578
 3617TIP3    H110857   3.821   5.198   4.663
 3617TIP3    H210858   3.798   5.181   4.514
 3618TIP3   OH210859   5.792   4.512   4.420
 3618TIP3    H110860   5.720   4.465   4.380
 3618TIP3    H210861   5.870   4.481   4.373
 3619TIP3   OH210862   4.239   5.033   0.444
 3619TIP3    H110863   4.297   5.091   0.494
 3619TIP3    H210864   4.286   5.017   0.363
 3620TIP3   OH210865   2.832   0.642  -0.004
 3620TIP3    H110866   2.881   0.635   0.078
 3620TIP3    H210867   2.745   0.608   0.017
 3621TIP3   OH210868   4.533   4.399   2.414
 3621TIP3    H110869   4.541   4.489   2.446
 3621TIP3    H210870   4.547   4.406   2.320
 3622TIP3   OH210871   2.148   3.147   3.445
 3622TIP3    H110872   2.082   3.127   3.511
 3622TIP3    H210873   2.185   3.062   3.421
 3623TIP3   OH210874   0.071   0.373   4.491
 3623TIP3    H110875  -0.018   0.365   4.525
 3623TIP3    H210876   0.102   0.458   4.524
 3624TIP3   OH210877   5.415   4.192   4.758
 3624TIP3    H110878   5.418   4.101   4.789
 3624TIP3    H210879   5.323   4.218   4.770
 3625TIP3   OH210880   2.581   4.235   3.708
 3625TIP3    H110881   2.654   4.195   3.660
 3625TIP3    H210882   2.505   4.184   3.681
 3626TIP3   OH210883   4.423   4.469   0.670
 3626TIP3    H110884   4.389   4.556   0.652
 3626TIP3    H210885   4.357   4.409   0.634
 3627TIP3   OH210886   3.842   1.891   4.014
 3627TIP3    H110887   3.885   1.903   3.930
 3627TIP3    H210888   3.821   1.980   4.043
 3628TIP3   OH210889   2.161   0.825   4.815
 3628TIP3    H110890   2.134   0.916   4.823
 3628TIP3    H210891   2.104   0.788   4.748
 3629TIP3   OH210892   0.961   0.954   2.421
 3629TIP3    H110893   0.939   1.015   2.491
 3629TIP3    H210894   0.925   0.870   2.450
 3630TIP3   OH210895   2.281   2.689   4.063
 3630TIP3    H110896   2.209   2.648   4.015
 3630TIP3    H210897   2.299   2.628   4.135
 3631TIP3   OH210898   6.342   1.787   1.071
 3631TIP3    H110899   6.361   1.765   0.980
 3631TIP3    H210900   6.400   1.730   1.122
 3632TIP3   OH210901   3.341   3.164   3.090
 3632TIP3    H110902   3.297   3.095   3.039
 3632TIP3    H210903   3.376   3.224   3.023
 3633TIP3   OH210904   0.392   3.342   1.596
 3633TIP3    H110905   0.352   3.329   1.510
 3633TIP3    H210906   0.436   3.428   1.589
 3634TIP3   OH210907   5.121   2.369   2.546
 3634TIP3    H110908   5.030   2.381   2.575
 3634TIP3    H210909   5.147   2.455   2.513
 3635TIP3   OH210910   5.778   0.669   1.800
 3635TIP3    H110911   5.706   0.731   1.784
 3635TIP3    H210912   5.788   0.623   1.716
 3636TIP3   OH210913   0.449   0.584   1.102
 3636TIP3    H110914   0.515   0.615   1.164
 3636TIP3    H210915   0.449   0.649   1.032
 3637TIP3   OH210916   2.692  -0.007   0.955
 3637TIP3    H110917   2.695   0.031   0.867
 3637TIP3    H210918   2.721  -0.097   0.943
 3638TIP3   OH210919   3.667   1.682   0.399
 3638TIP3    H110920   3.716   1.628   0.336
 3638TIP3    H210921   3.576   1.655   0.388
 3639TIP3   OH210922   5.873   2.416   0.139
 3639TIP3    H110923   5.800   2.372   0.183
 3639TIP3    H210924   5.848   2.508   0.135
 3640TIP3   OH210925   1.182   2.306   1.565
 3640TIP3    H110926   1.152   2.262   1.644
 3640TIP3    H210927   1.115   2.287   1.500
 3641TIP3   OH210928   2.296   3.036   0.707
 3641TIP3    H110929   2.216   3.037   0.655
 3641TIP3    H210930   2.316   3.128   0.722
 3642TIP3   OH210931   2.202   1.310   3.945
 3642TIP3    H110932   2.108   1.309   3.929
 3642TIP3    H210933   2.241   1.315   3.857
 3643TIP3   OH210934   1.787   5.466   2.896
 3643TIP3    H110935   1.709   5.447   2.843
 3643TIP3    H210936   1.807   5.558   2.878
 3644TIP3   OH210937   0.377   3.444   1.271
 3644TIP3    H110938   0.290   3.438   1.231
 3644TIP3    H210939   0.407   3.354   1.277
 3645TIP3   OH210940   0.588   1.807   4.586
 3645TIP3    H110941   0.673   1.767   4.568
 3645TIP3    H210942   0.530   1.769   4.520
 3646TIP3   OH210943   4.744   2.440   4.160
 3646TIP3    H110944   4.744   2.510   4.225
 3646TIP3    H210945   4.655   2.405   4.163
 3647TIP3   OH210946   1.310   3.132   0.998
 3647TIP3    H110947   1.330   3.048   0.957
 3647TIP3    H210948   1.368   3.194   0.955
 3648TIP3   OH210949   4.430   2.802   2.444
 3648TIP3    H110950   4.509   2.837   2.484
 3648TIP3    H210951   4.437   2.826   2.352
 3649TIP3   OH210952   2.119   5.789   0.151
 3649TIP3    H110953   2.032   5.799   0.190
 3649TIP3    H210954   2.149   5.703   0.180
 3650TIP3   OH210955   0.149   5.116   1.204
 3650TIP3    H110956   0.080   5.165   1.249
 3650TIP3    H210957   0.111   5.030   1.189
 3651TIP3   OH210958   4.662   1.602   1.943
 3651TIP3    H110959   4.632   1.518   1.977
 3651TIP3    H210960   4.656   1.592   1.848
 3652TIP3   OH210961   0.888   1.501   3.686
 3652TIP3    H110962   0.980   1.525   3.687
 3652TIP3    H210963   0.880   1.438   3.614
 3653TIP3   OH210964   1.664   1.372   3.433
 3653TIP3    H110965   1.750   1.350   3.397
 3653TIP3    H210966   1.657   1.467   3.423
 3654TIP3   OH210967   4.168   5.805   4.551
 3654TIP3    H110968   4.197   5.741   4.487
 3654TIP3    H210969   4.107   5.861   4.503
 3655TIP3   OH210970   4.005   2.802   4.550
 3655TIP3    H110971   4.005   2.845   4.464
 3655TIP3    H210972   4.089   2.757   4.555
 3656TIP3   OH210973   2.723   2.289   4.220
 3656TIP3    H110974   2.706   2.382   4.237
 3656TIP3    H210975   2.815   2.287   4.192
 3657TIP3   OH210976   0.075   0.334   3.183
 3657TIP3    H110977   0.035   0.370   3.105
 3657TIP3    H210978   0.148   0.394   3.202
 3658TIP3   OH210979   4.890   2.566   4.686
 3658TIP3    H110980   4.921   2.529   4.768
 3658TIP3    H210981   4.969   2.584   4.636
 3659TIP3   OH210982   2.057   4.455   0.280
 3659TIP3    H110983   2.060   4.539   0.326
 3659TIP3    H210984   2.110   4.396   0.335
 3660TIP3   OH210985   0.712   5.645   1.415
 3660TIP3    H110986   0.758   5.728   1.403
 3660TIP3    H210987   0.738   5.616   1.502
 3661TIP3   OH210988   3.200   1.642   0.831
 3661TIP3    H110989   3.184   1.562   0.781
 3661TIP3    H210990   3.201   1.613   0.922
 3662TIP3   OH210991   1.229   4.448   3.977
 3662TIP3    H110992   1.186   4.388   3.916
 3662TIP3    H210993   1.169   4.454   4.051
 3663TIP3   OH210994   3.915   0.132   3.547
 3663TIP3    H110995   4.001   0.106   3.581
 3663TIP3    H210996   3.918   0.109   3.454
 3664TIP3   OH210997   2.898   1.134   1.143
 3664TIP3    H110998   2.968   1.154   1.206
 3664TIP3    H210999   2.824   1.188   1.171
 3665TIP3   OH211000   4.352   2.357   0.391
 3665TIP3    H111001   4.394   2.320   0.468
 3665TIP3    H211002   4.391   2.444   0.382
 3666TIP3   OH211003   2.787   5.808   2.327
 3666TIP3    H111004   2.876   5.794   2.360
 3666TIP3    H211005   2.757   5.720   2.303
 3667TIP3   OH211006   2.941   1.446   1.038
 3667TIP3    H111007   2.970   1.417   1.124
 3667TIP3    H211008   3.005   1.408   0.978
 3668TIP3   OH211009   4.907   5.845   4.301
 3668TIP3    H111010   4.857   5.887   4.231
 3668TIP3    H211011   4.998   5.860   4.277
 3669TIP3   OH211012   6.108   3.452   1.269
 3669TIP3    H111013   6.041   3.448   1.200
 3669TIP3    H211014   6.185   3.414   1.229
 3670TIP3   OH211015   3.698   4.573   3.291
 3670TIP3    H111016   3.709   4.481   3.269
 3670TIP3    H211017   3.605   4.582   3.311
 3671TIP3   OH211018   3.125   2.961   4.361
 3671TIP3    H111019   3.090   2.876   4.333
 3671TIP3    H211020   3.164   2.998   4.281
 3672TIP3   OH211021   4.208   3.452   0.964
 3672TIP3    H111022   4.172   3.514   0.901
 3672TIP3    H211023   4.299   3.440   0.937
 3673TIP3   OH211024   4.104   2.543   2.610
 3673TIP3    H111025   4.018   2.576   2.585
 3673TIP3    H211026   4.128   2.481   2.541
 3674TIP3   OH211027   4.754   4.890   4.940
 3674TIP3    H111028   4.783   4.950   5.008
 3674TIP3    H211029   4.784   4.930   4.858
 3675TIP3   OH211030   3.686   3.393   1.924
 3675TIP3    H111031   3.686   3.298   1.913
 3675TIP3    H211032   3.634   3.427   1.851
 3676TIP3   OH211033   3.115   2.196   3.333
 3676TIP3    H111034   3.196   2.151   3.313
 3676TIP3    H211035   3.053   2.165   3.267
 3677TIP3   OH211036   6.038   3.930   1.650
 3677TIP3    H111037   5.980   3.957   1.721
 3677TIP3    H211038   6.015   3.838   1.634
 3678TIP3   OH211039   1.494   5.247   1.740
 3678TIP3    H111040   1.483   5.156   1.767
 3678TIP3    H211041   1.519   5.242   1.648
 3679TIP3   OH211042   6.067   3.551   3.447
 3679TIP3    H111043   6.086   3.573   3.356
 3679TIP3    H211044   6.105   3.464   3.459
 3680TIP3   OH211045   1.074   0.093   2.216
 3680TIP3    H111046   1.072   0.168   2.157
 3680TIP3    H211047   0.983   0.064   2.221
 3681TIP3   OH211048   6.204   1.154   1.580
 3681TIP3    H111049   6.232   1.246   1.583
 3681TIP3    H211050   6.286   1.106   1.564
 3682TIP3   OH211051   2.897   1.336   3.668
 3682TIP3    H111052   2.821   1.302   3.715
 3682TIP3    H211053   2.881   1.312   3.577
 3683TIP3   OH211054   0.833   2.309   3.245
 3683TIP3    H111055   0.746   2.318   3.283
 3683TIP3    H211056   0.821   2.326   3.152
 3684TIP3   OH211057   4.832   5.528   1.907
 3684TIP3    H111058   4.765   5.459   1.903
 3684TIP3    H211059   4.782   5.609   1.908
 3685TIP3   OH211060   4.353   4.545   2.682
 3685TIP3    H111061   4.290   4.614   2.703
 3685TIP3    H211062   4.328   4.471   2.737
 3686TIP3   OH211063   5.209   1.756   3.194
 3686TIP3    H111064   5.158   1.683   3.159
 3686TIP3    H211065   5.290   1.715   3.225
 3687TIP3   OH211066   0.722   3.842   3.648
 3687TIP3    H111067   0.735   3.902   3.575
 3687TIP3    H211068   0.758   3.759   3.618
 3688TIP3   OH211069   4.609   1.387   3.099
 3688TIP3    H111070   4.683   1.416   3.046
 3688TIP3    H211071   4.548   1.461   3.097
 3689TIP3   OH211072   5.868   1.939   0.577
 3689TIP3    H111073   5.776   1.915   0.583
 3689TIP3    H211074   5.883   1.956   0.485
 3690TIP3   OH211075   1.913   0.866   5.169
 3690TIP3    H111076   2.008   0.851   5.169
 3690TIP3    H211077   1.875   0.780   5.157
 3691TIP3   OH211078   5.846   0.590   2.437
 3691TIP3    H111079   5.885   0.503   2.445
 3691TIP3    H211080   5.894   0.644   2.500
 3692TIP3   OH211081   1.166   2.345   2.100
 3692TIP3    H111082   1.188   2.382   2.015
 3692TIP3    H211083   1.250   2.342   2.147
 3693TIP3   OH211084   4.100   3.510   3.912
 3693TIP3    H111085   4.180   3.485   3.958
 3693TIP3    H211086   4.033   3.451   3.946
 3694TIP3   OH211087   5.495   4.524   0.199
 3694TIP3    H111088   5.410   4.500   0.161
 3694TIP3    H211089   5.487   4.617   0.219
 3695TIP3   OH211090   6.037   2.104   2.062
 3695TIP3    H111091   6.006   2.143   1.980
 3695TIP3    H211092   6.041   2.010   2.043
 3696TIP3   OH211093   4.923   1.047   4.937
 3696TIP3    H111094   4.999   0.989   4.929
 3696TIP3    H211095   4.889   1.029   5.024
 3697TIP3   OH211096   2.675   1.313   1.650
 3697TIP3    H111097   2.653   1.331   1.559
 3697TIP3    H211098   2.732   1.237   1.647
 3698TIP3   OH211099   1.345   0.900   3.150
 3698TIP3    H111100   1.399   0.979   3.152
 3698TIP3    H211101   1.315   0.892   3.060
 3699TIP3   OH211102   4.813   4.955   3.905
 3699TIP3    H111103   4.816   4.865   3.873
 3699TIP3    H211104   4.770   5.003   3.834
 3700TIP3   OH211105   4.482   3.452   0.925
 3700TIP3    H111106   4.525   3.532   0.957
 3700TIP3    H211107   4.528   3.430   0.845
 3701TIP3   OH211108   4.805  -0.021   4.346
 3701TIP3    H111109   4.711  -0.002   4.347
 3701TIP3    H211110   4.845   0.052   4.393
 3702TIP3   OH211111   0.175   5.666   4.254
 3702TIP3    H111112   0.107   5.733   4.254
 3702TIP3    H211113   0.242   5.699   4.195
 3703TIP3   OH211114   1.202   4.797   0.495
 3703TIP3    H111115   1.264   4.871   0.502
 3703TIP3    H211116   1.258   4.719   0.498
 3704TIP3   OH211117   2.373   4.101   3.444
 3704TIP3    H111118   2.426   4.169   3.401
 3704TIP3    H211119   2.356   4.136   3.532
 3705TIP3   OH211120   2.924   4.417   3.865
 3705TIP3    H111121   2.938   4.460   3.950
 3705TIP3    H211122   2.869   4.478   3.816
 3706TIP3   OH211123   1.010   1.975   1.438
 3706TIP3    H111124   1.009   2.069   1.422
 3706TIP3    H211125   0.919   1.948   1.427
 3707TIP3   OH211126   5.211   0.619   1.604
 3707TIP3    H111127   5.221   0.711   1.582
 3707TIP3    H211128   5.215   0.573   1.521
 3708TIP3   OH211129   1.992   2.157   0.475
 3708TIP3    H111130   1.959   2.095   0.540
 3708TIP3    H211131   2.023   2.101   0.403
 3709TIP3   OH211132   1.909   0.587   0.724
 3709TIP3    H111133   1.833   0.579   0.781
 3709TIP3    H211134   1.948   0.671   0.748
 3710TIP3   OH211135   4.705   4.315   0.672
 3710TIP3    H111136   4.732   4.272   0.753
 3710TIP3    H211137   4.647   4.385   0.700
 3711TIP3   OH211138   4.643   5.917   5.205
 3711TIP3    H111139   4.630   5.846   5.141
 3711TIP3    H211140   4.555   5.936   5.238
 3712TIP3   OH211141   5.987   0.484   1.925
 3712TIP3    H111142   5.930   0.428   1.871
 3712TIP3    H211143   5.936   0.563   1.940
 3713TIP3   OH211144   2.248   4.811   2.179
 3713TIP3    H111145   2.337   4.808   2.144
 3713TIP3    H211146   2.261   4.817   2.274
 3714TIP3   OH211147   2.565   5.840   3.428
 3714TIP3    H111148   2.513   5.821   3.350
 3714TIP3    H211149   2.529   5.922   3.462
 3715TIP3   OH211150   0.524   3.387   2.473
 3715TIP3    H111151   0.531   3.330   2.396
 3715TIP3    H211152   0.602   3.442   2.470
 3716TIP3   OH211153   6.289   2.255   1.857
 3716TIP3    H111154   6.228   2.237   1.785
 3716TIP3    H211155   6.361   2.194   1.843
 3717TIP3   OH211156   4.596   3.637   0.288
 3717TIP3    H111157   4.671   3.685   0.323
 3717TIP3    H211158   4.632   3.585   0.217
 3718TIP3   OH211159   0.909   1.526   4.939
 3718TIP3    H111160   0.840   1.459   4.945
 3718TIP3    H211161   0.888   1.573   4.858
 3719TIP3   OH211162   6.147   0.435   3.150
 3719TIP3    H111163   6.146   0.363   3.214
 3719TIP3    H211164   6.136   0.514   3.203
 3720TIP3   OH211165   2.392   3.005   0.305
 3720TIP3    H111166   2.458   3.054   0.256
 3720TIP3    H211167   2.437   2.979   0.385
 3721TIP3   OH211168   1.146   4.047   3.326
 3721TIP3    H111169   1.062   4.078   3.290
 3721TIP3    H211170   1.122   4.004   3.408
 3722TIP3   OH211171   0.699   3.435   1.416
 3722TIP3    H111172   0.638   3.454   1.487
 3722TIP3    H211173   0.775   3.491   1.434
 3723TIP3   OH211174   2.550   1.159   3.473
 3723TIP3    H111175   2.541   1.249   3.442
 3723TIP3    H211176   2.460   1.129   3.486
 3724TIP3   OH211177   5.870   5.522   3.999
 3724TIP3    H111178   5.835   5.478   4.076
 3724TIP3    H211179   5.832   5.474   3.925
 3725TIP3   OH211180   2.673   4.658   0.647
 3725TIP3    H111181   2.620   4.717   0.594
 3725TIP3    H211182   2.610   4.596   0.683
 3726TIP3   OH211183   0.608   5.751   4.174
 3726TIP3    H111184   0.688   5.802   4.188
 3726TIP3    H211185   0.635   5.660   4.186
 3727TIP3   OH211186   3.128   5.119   4.592
 3727TIP3    H111187   3.087   5.080   4.515
 3727TIP3    H211188   3.216   5.080   4.595
 3728TIP3   OH211189   2.881   3.155   4.388
 3728TIP3    H111190   2.976   3.139   4.390
 3728TIP3    H211191   2.867   3.205   4.308
 3729TIP3   OH211192   6.098   0.547   4.982
 3729TIP3    H111193   6.071   0.573   4.894
 3729TIP3    H211194   6.181   0.593   4.996
 3730TIP3   OH211195   1.804   2.059   2.514
 3730TIP3    H111196   1.752   2.123   2.562
 3730TIP3    H211197   1.886   2.104   2.495
 3731TIP3   OH211198   4.631   2.941   3.592
 3731TIP3    H111199   4.546   2.970   3.626
 3731TIP3    H211200   4.683   3.021   3.588
 3732TIP3   OH211201   5.745   2.530   5.206
 3732TIP3    H111202   5.686   2.587   5.157
 3732TIP3    H211203   5.832   2.567   5.191
 3733TIP3   OH211204   1.210   5.919   3.164
 3733TIP3    H111205   1.176   5.903   3.076
 3733TIP3    H211206   1.195   6.012   3.179
 3734TIP3   OH211207   4.136   3.874   5.007
 3734TIP3    H111208   4.196   3.817   5.056
 3734TIP3    H211209   4.049   3.838   5.026
 3735TIP3   OH211210   0.820   1.172   1.174
 3735TIP3    H111211   0.821   1.084   1.136
 3735TIP3    H211212   0.856   1.160   1.262
 3736TIP3   OH211213   4.816   0.316   3.694
 3736TIP3    H111214   4.827   0.245   3.758
 3736TIP3    H211215   4.756   0.280   3.629
 3737TIP3   OH211216   3.152   2.490   0.429
 3737TIP3    H111217   3.099   2.543   0.369
 3737TIP3    H211218   3.241   2.497   0.394
 3738TIP3   OH211219   0.634   0.207   0.985
 3738TIP3    H111220   0.696   0.225   1.055
 3738TIP3    H211221   0.551   0.244   1.015
 3739TIP3   OH211222   3.540   1.257   0.853
 3739TIP3    H111223   3.587   1.340   0.840
 3739TIP3    H211224   3.472   1.257   0.785
 3740TIP3   OH211225   6.013   4.976   5.027
 3740TIP3    H111226   6.013   4.926   5.108
 3740TIP3    H211227   6.017   5.068   5.055
 3741TIP3   OH211228   2.010   1.313   1.575
 3741TIP3    H111229   1.955   1.271   1.641
 3741TIP3    H211230   2.069   1.244   1.545
 3742TIP3   OH211231   0.876   5.509   3.386
 3742TIP3    H111232   0.805   5.540   3.441
 3742TIP3    H211233   0.868   5.414   3.386
 3743TIP3   OH211234   3.123   4.057   3.811
 3743TIP3    H111235   3.070   4.074   3.888
 3743TIP3    H211236   3.083   3.980   3.771
 3744TIP3   OH211237   2.792   3.916   0.178
 3744TIP3    H111238   2.837   3.985   0.129
 3744TIP3    H211239   2.829   3.835   0.144
 3745TIP3   OH211240   3.617   1.215   2.950
 3745TIP3    H111241   3.679   1.234   3.020
 3745TIP3    H211242   3.546   1.167   2.993
 3746TIP3   OH211243   0.192   1.013   3.759
 3746TIP3    H111244   0.107   1.002   3.717
 3746TIP3    H211245   0.198   1.108   3.775
 3747TIP3   OH211246   0.962   3.257   0.246
 3747TIP3    H111247   0.981   3.176   0.200
 3747TIP3    H211248   0.891   3.234   0.306
 3748TIP3   OH211249   1.615   1.876   3.566
 3748TIP3    H111250   1.611   1.789   3.527
 3748TIP3    H211251   1.559   1.930   3.511
 3749TIP3   OH211252   2.115   2.394   3.661
 3749TIP3    H111253   2.207   2.415   3.675
 3749TIP3    H211254   2.099   2.317   3.715
 3750TIP3   OH211255   1.587   2.752   4.131
 3750TIP3    H111256   1.627   2.684   4.076
 3750TIP3    H211257   1.572   2.709   4.215
 3751TIP3   OH211258   2.271   0.046   0.666
 3751TIP3    H111259   2.337   0.107   0.700
 3751TIP3    H211260   2.207   0.102   0.621
 3752TIP3   OH211261   5.681   3.616   5.001
 3752TIP3    H111262   5.774   3.634   5.008
 3752TIP3    H211263   5.670   3.528   5.038
 3753TIP3   OH211264   5.299   2.033   2.055
 3753TIP3    H111265   5.276   2.124   2.038
 3753TIP3    H211266   5.263   1.985   1.980
 3754TIP3   OH211267   4.257   4.829   2.761
 3754TIP3    H111268   4.206   4.833   2.680
 3754TIP3    H211269   4.198   4.863   2.828
 3755TIP3   OH211270   3.168   5.264   4.332
 3755TIP3    H111271   3.154   5.343   4.384
 3755TIP3    H211272   3.254   5.232   4.360
 3756TIP3   OH211273   3.100   2.063   4.540
 3756TIP3    H111274   3.183   2.019   4.559
 3756TIP3    H211275   3.101   2.141   4.595
 3757TIP3   OH211276   4.299   0.781   3.197
 3757TIP3    H111277   4.289   0.873   3.221
 3757TIP3    H211278   4.220   0.738   3.230
 3758TIP3   OH211279   0.877   4.190   1.161
 3758TIP3    H111280   0.884   4.104   1.121
 3758TIP3    H211281   0.783   4.205   1.170
 3759TIP3   OH211282   3.154   5.815   1.209
 3759TIP3    H111283   3.128   5.726   1.185
 3759TIP3    H211284   3.179   5.856   1.127
 3760TIP3   OH211285   5.651   4.348   2.507
 3760TIP3    H111286   5.558   4.358   2.526
 3760TIP3    H211287   5.683   4.284   2.570
 3761TIP3   OH211288   3.787   1.166   1.518
 3761TIP3    H111289   3.815   1.171   1.427
 3761TIP3    H211290   3.691   1.176   1.514
 3762TIP3   OH211291   1.079   4.177   2.345
 3762TIP3    H111292   1.044   4.264   2.362
 3762TIP3    H211293   1.002   4.123   2.326
 3763TIP3   OH211294   3.604   3.060   4.345
 3763TIP3    H111295   3.612   2.987   4.406
 3763TIP3    H211296   3.518   3.098   4.365
 3764TIP3   OH211297   0.562   3.684   4.262
 3764TIP3    H111298   0.516   3.639   4.333
 3764TIP3    H211299   0.553   3.777   4.284
 3765TIP3   OH211300   3.612   4.839   4.803
 3765TIP3    H111301   3.624   4.934   4.800
 3765TIP3    H211302   3.655   4.807   4.724
 3766TIP3   OH211303   1.518   1.341   1.462
 3766TIP3    H111304   1.453   1.345   1.532
 3766TIP3    H211305   1.503   1.256   1.420
 3767TIP3   OH211306   2.405   4.792   3.250
 3767TIP3    H111307   2.455   4.874   3.245
 3767TIP3    H211308   2.345   4.796   3.175
 3768TIP3   OH211309   4.911   5.545   2.574
 3768TIP3    H111310   4.992   5.513   2.533
 3768TIP3    H211311   4.863   5.465   2.597
 3769TIP3   OH211312   2.973   4.991   4.413
 3769TIP3    H111313   2.932   5.023   4.333
 3769TIP3    H211314   3.006   4.904   4.390
 3770TIP3   OH211315   5.526   0.965   0.458
 3770TIP3    H111316   5.593   1.002   0.401
 3770TIP3    H211317   5.556   0.985   0.546
 3771TIP3   OH211318   1.101   5.209   0.760
 3771TIP3    H111319   1.155   5.129   0.754
 3771TIP3    H211320   1.030   5.194   0.698
 3772TIP3   OH211321   5.887   3.832   0.330
 3772TIP3    H111322   5.881   3.816   0.236
 3772TIP3    H211323   5.979   3.817   0.351
 3773TIP3   OH211324   0.415   3.705   0.604
 3773TIP3    H111325   0.358   3.715   0.528
 3773TIP3    H211326   0.483   3.643   0.576
 3774TIP3   OH211327   3.363   1.387   3.399
 3774TIP3    H111328   3.456   1.367   3.409
 3774TIP3    H211329   3.349   1.464   3.455
 3775TIP3   OH211330   1.425   3.180   2.528
 3775TIP3    H111331   1.440   3.243   2.599
 3775TIP3    H211332   1.344   3.210   2.487
 3776TIP3   OH211333   3.447   0.746   0.889
 3776TIP3    H111334   3.502   0.823   0.876
 3776TIP3    H211335   3.487   0.700   0.963
 3777TIP3   OH211336   4.117   1.039   4.449
 3777TIP3    H111337   4.057   1.085   4.507
 3777TIP3    H211338   4.154   1.107   4.393
 3778TIP3   OH211339   0.100   4.658   1.978
 3778TIP3    H111340   0.044   4.735   1.967
 3778TIP3    H211341   0.143   4.647   1.893
 3779TIP3   OH211342   4.113   4.675   2.317
 3779TIP3    H111343   4.079   4.732   2.247
 3779TIP3    H211344   4.156   4.603   2.271
 3780TIP3   OH211345   4.850   1.495   5.093
 3780TIP3    H111346   4.885   1.497   5.183
 3780TIP3    H211347   4.927   1.507   5.038
 3781TIP3   OH211348   1.653   0.932   2.317
 3781TIP3    H111349   1.674   0.909   2.227
 3781TIP3    H211350   1.607   0.855   2.351
 3782TIP3   OH211351   0.678   2.053   0.931
 3782TIP3    H111352   0.645   1.967   0.956
 3782TIP3    H211353   0.619   2.083   0.862
 3783TIP3   OH211354   2.002   3.672   3.760
 3783TIP3    H111355   1.994   3.632   3.674
 3783TIP3    H211356   2.032   3.762   3.742
 3784TIP3   OH211357   4.457   4.734   0.416
 3784TIP3    H111358   4.408   4.717   0.496
 3784TIP3    H211359   4.530   4.789   0.444
 3785TIP3   OH211360   5.981   5.165   3.908
 3785TIP3    H111361   5.969   5.187   3.815
 3785TIP3    H211362   6.068   5.198   3.930
 3786TIP3   OH211363   6.081   3.352   1.535
 3786TIP3    H111364   6.105   3.393   1.452
 3786TIP3    H211365   6.160   3.304   1.561
 3787TIP3   OH211366   2.223   4.462   5.118
 3787TIP3    H111367   2.187   4.401   5.182
 3787TIP3    H211368   2.171   4.447   5.039
 3788TIP3   OH211369   0.692   0.072   0.554
 3788TIP3    H111370   0.745   0.117   0.620
 3788TIP3    H211371   0.755   0.039   0.490
 3789TIP3   OH211372   5.730   3.464   4.718
 3789TIP3    H111373   5.820   3.469   4.686
 3789TIP3    H211374   5.677   3.505   4.650
 3790TIP3   OH211375   5.894   3.501   5.259
 3790TIP3    H111376   5.972   3.459   5.222
 3790TIP3    H211377   5.829   3.431   5.262
 3791TIP3   OH211378   5.821   0.216   2.988
 3791TIP3    H111379   5.875   0.227   3.066
 3791TIP3    H211380   5.884   0.207   2.917
 3792TIP3   OH211381  -0.037   1.323   4.112
 3792TIP3    H111382  -0.013   1.322   4.204
 3792TIP3    H211383   0.044   1.303   4.066
 3793TIP3   OH211384   0.940   5.854   1.152
 3793TIP3    H111385   0.865   5.796   1.139
 3793TIP3    H211386   0.913   5.938   1.116
 3794TIP3   OH211387   1.391   3.553   3.568
 3794TIP3    H111388   1.394   3.546   3.664
 3794TIP3    H211389   1.470   3.603   3.546
 3795TIP3   OH211390   1.847   5.030   4.000
 3795TIP3    H111391   1.824   4.976   3.925
 3795TIP3    H211392   1.940   5.050   3.988
 3796TIP3   OH211393   1.792   4.098   2.603
 3796TIP3    H111394   1.761   4.018   2.645
 3796TIP3    H211395   1.849   4.067   2.533
 3797TIP3   OH211396   2.122   5.481   0.094
 3797TIP3    H111397   2.128   5.457   0.002
 3797TIP3    H211398   2.035   5.451   0.121
 3798TIP3   OH211399   1.107   2.045   0.584
 3798TIP3    H111400   1.075   2.069   0.497
 3798TIP3    H211401   1.029   2.049   0.640
 3799TIP3   OH211402   3.332   4.692   0.152
 3799TIP3    H111403   3.413   4.706   0.103
 3799TIP3    H211404   3.333   4.762   0.219
 3800TIP3   OH211405   3.189   4.593   3.481
 3800TIP3    H111406   3.195   4.556   3.570
 3800TIP3    H211407   3.248   4.668   3.482
 3801TIP3   OH211408   5.287   0.615   3.163
 3801TIP3    H111409   5.348   0.551   3.201
 3801TIP3    H211410   5.333   0.698   3.168
 3802TIP3   OH211411   3.703   1.916   0.292
 3802TIP3    H111412   3.659   1.832   0.309
 3802TIP3    H211413   3.759   1.928   0.369
 3803TIP3   OH211414   4.875   1.666   3.794
 3803TIP3    H111415   4.904   1.628   3.711
 3803TIP3    H211416   4.913   1.609   3.861
 3804TIP3   OH211417   5.101   4.488   0.874
 3804TIP3    H111418   5.075   4.577   0.899
 3804TIP3    H211419   5.149   4.455   0.951
 3805TIP3   OH211420   1.692   5.624   4.814
 3805TIP3    H111421   1.675   5.544   4.763
 3805TIP3    H211422   1.737   5.593   4.892
 3806TIP3   OH211423   5.923   1.751   3.696
 3806TIP3    H111424   5.908   1.657   3.707
 3806TIP3    H211425   5.862   1.778   3.628
 3807TIP3   OH211426   3.575   2.839   4.495
 3807TIP3    H111427   3.583   2.826   4.590
 3807TIP3    H211428   3.637   2.778   4.457
 3808TIP3   OH211429   0.006   5.625   3.480
 3808TIP3    H111430   0.070   5.696   3.475
 3808TIP3    H211431   0.002   5.591   3.391
 3809TIP3   OH211432   1.307   1.795   3.505
 3809TIP3    H111433   1.245   1.856   3.543
 3809TIP3    H211434   1.302   1.811   3.411
 3810TIP3   OH211435   6.055   0.896   4.334
 3810TIP3    H111436   6.038   0.903   4.241
 3810TIP3    H211437   6.024   0.979   4.371
 3811TIP3   OH211438   6.419   4.607   5.123
 3811TIP3    H111439   6.328   4.612   5.093
 3811TIP3    H211440   6.459   4.689   5.093
 3812TIP3   OH211441   3.889   2.255   1.114
 3812TIP3    H111442   3.879   2.339   1.070
 3812TIP3    H211443   3.833   2.261   1.191
 3813TIP3   OH211444   0.804   4.975   4.989
 3813TIP3    H111445   0.761   5.060   4.983
 3813TIP3    H211446   0.780   4.942   5.076
 3814TIP3   OH211447   1.540   1.412   3.087
 3814TIP3    H111448   1.630   1.379   3.090
 3814TIP3    H211449   1.544   1.487   3.028
 3815TIP3   OH211450   2.557   4.021   0.169
 3815TIP3    H111451   2.638   3.973   0.186
 3815TIP3    H211452   2.558   4.037   0.075
 3816TIP3   OH211453   2.444   0.767   4.757
 3816TIP3    H111454   2.363   0.817   4.761
 3816TIP3    H211455   2.417   0.676   4.767
 3817TIP3   OH211456   4.938   5.066   2.779
 3817TIP3    H111457   5.024   5.062   2.738
 3817TIP3    H211458   4.915   4.975   2.797
 3818TIP3   OH211459   5.636   0.839   2.200
 3818TIP3    H111460   5.670   0.929   2.196
 3818TIP3    H211461   5.714   0.784   2.199
 3819TIP3   OH211462   4.313   0.243   4.814
 3819TIP3    H111463   4.248   0.306   4.782
 3819TIP3    H211464   4.297   0.164   4.764
 3820TIP3   OH211465   3.952   5.598   2.065
 3820TIP3    H111466   4.027   5.546   2.034
 3820TIP3    H211467   3.945   5.670   2.003
 3821TIP3   OH211468   2.648   5.605   0.607
 3821TIP3    H111469   2.612   5.576   0.691
 3821TIP3    H211470   2.738   5.571   0.606
 3822TIP3   OH211471   3.288   0.631   4.763
 3822TIP3    H111472   3.253   0.716   4.735
 3822TIP3    H211473   3.323   0.593   4.682
 3823TIP3   OH211474   1.554   0.898   0.366
 3823TIP3    H111475   1.553   0.861   0.455
 3823TIP3    H211476   1.463   0.920   0.347
 3824TIP3   OH211477   1.754   0.360   0.147
 3824TIP3    H111478   1.680   0.409   0.184
 3824TIP3    H211479   1.719   0.320   0.068
 3825TIP3   OH211480   3.751   3.546   2.870
 3825TIP3    H111481   3.808   3.567   2.796
 3825TIP3    H211482   3.725   3.455   2.855
 3826TIP3   OH211483   5.820   4.509   1.306
 3826TIP3    H111484   5.759   4.484   1.237
 3826TIP3    H211485   5.768   4.562   1.366
 3827TIP3   OH211486   3.486   0.387   3.258
 3827TIP3    H111487   3.451   0.346   3.337
 3827TIP3    H211488   3.501   0.315   3.197
 3828TIP3   OH211489   1.217   1.887   1.608
 3828TIP3    H111490   1.232   1.801   1.570
 3828TIP3    H211491   1.151   1.928   1.552
 3829TIP3   OH211492   5.782   1.521   2.464
 3829TIP3    H111493   5.732   1.590   2.507
 3829TIP3    H211494   5.862   1.514   2.516
 3830TIP3   OH211495   0.168   0.474   4.815
 3830TIP3    H111496   0.093   0.419   4.792
 3830TIP3    H211497   0.200   0.508   4.732
 3831TIP3   OH211498   1.142   5.116   3.911
 3831TIP3    H111499   1.133   5.025   3.883
 3831TIP3    H211500   1.224   5.117   3.961
 3832TIP3   OH211501   0.811   0.065   4.754
 3832TIP3    H111502   0.789  -0.019   4.713
 3832TIP3    H211503   0.889   0.046   4.807
 3833TIP3   OH211504   0.885   3.902   4.926
 3833TIP3    H111505   0.880   3.997   4.920
 3833TIP3    H211506   0.852   3.882   5.014
 3834TIP3   OH211507   4.878   0.881   4.614
 3834TIP3    H111508   4.839   0.968   4.603
 3834TIP3    H211509   4.946   0.877   4.548
 3835TIP3   OH211510   3.922   3.428   3.342
 3835TIP3    H111511   3.910   3.366   3.270
 3835TIP3    H211512   3.970   3.379   3.408
 3836TIP3   OH211513   0.313   0.983   4.358
 3836TIP3    H111514   0.388   0.999   4.415
 3836TIP3    H211515   0.342   1.009   4.271
 3837TIP3   OH211516   0.043   4.760   0.104
 3837TIP3    H111517  -0.029   4.700   0.082
 3837TIP3    H211518   0.061   4.807   0.023
 3838TIP3   OH211519   1.527   5.895   1.178
 3838TIP3    H111520   1.503   5.803   1.164
 3838TIP3    H211521   1.620   5.891   1.200
 3839TIP3   OH211522   2.156   3.889   3.691
 3839TIP3    H111523   2.155   3.854   3.602
 3839TIP3    H211524   2.248   3.908   3.709
 3840TIP3   OH211525   4.723   4.794   4.155
 3840TIP3    H111526   4.665   4.813   4.229
 3840TIP3    H211527   4.712   4.869   4.096
 3841TIP3   OH211528   5.140   4.490   2.875
 3841TIP3    H111529   5.048   4.516   2.885
 3841TIP3    H211530   5.137   4.411   2.821
 3842TIP3   OH211531   5.165   5.483   2.468
 3842TIP3    H111532   5.203   5.570   2.454
 3842TIP3    H211533   5.227   5.423   2.427
 3843TIP3   OH211534   4.267   4.182   1.430
 3843TIP3    H111535   4.291   4.271   1.454
 3843TIP3    H211536   4.204   4.155   1.496
 3844TIP3   OH211537   3.727   4.570   0.304
 3844TIP3    H111538   3.781   4.584   0.226
 3844TIP3    H211539   3.694   4.658   0.326
 3845TIP3   OH211540   0.043   4.457   2.149
 3845TIP3    H111541  -0.050   4.472   2.166
 3845TIP3    H211542   0.070   4.532   2.095
 3846TIP3   OH211543   2.113   0.766   3.985
 3846TIP3    H111544   2.199   0.728   4.005
 3846TIP3    H211545   2.060   0.692   3.958
 3847TIP3   OH211546   4.544   4.718   3.161
 3847TIP3    H111547   4.587   4.682   3.239
 3847TIP3    H211548   4.460   4.673   3.157
 3848TIP3   OH211549   0.408   0.543   0.130
 3848TIP3    H111550   0.417   0.638   0.119
 3848TIP3    H211551   0.494   0.508   0.110
 3849TIP3   OH211552   1.145   4.856   3.201
 3849TIP3    H111553   1.057   4.895   3.203
 3849TIP3    H211554   1.129   4.764   3.178
 3850TIP3   OH211555   4.550   1.007   2.517
 3850TIP3    H111556   4.632   0.981   2.477
 3850TIP3    H211557   4.486   1.004   2.446
 3851TIP3   OH211558   0.618   3.600   3.907
 3851TIP3    H111559   0.668   3.681   3.919
 3851TIP3    H211560   0.526   3.628   3.912
 3852TIP3   OH211561   4.412   5.744   1.411
 3852TIP3    H111562   4.388   5.691   1.488
 3852TIP3    H211563   4.507   5.749   1.415
 3853TIP3   OH211564   4.510   1.962   4.899
 3853TIP3    H111565   4.603   1.985   4.892
 3853TIP3    H211566   4.494   1.903   4.826
 3854TIP3   OH211567   2.055   2.176   2.159
 3854TIP3    H111568   2.083   2.175   2.068
 3854TIP3    H211569   2.112   2.241   2.201
 3855TIP3   OH211570   0.438   5.699   4.517
 3855TIP3    H111571   0.525   5.684   4.480
 3855TIP3    H211572   0.443   5.787   4.555
 3856TIP3   OH211573   1.437   2.488   1.465
 3856TIP3    H111574   1.371   2.476   1.397
 3856TIP3    H211575   1.518   2.455   1.426
 3857TIP3   OH211576   3.612   1.741   4.784
 3857TIP3    H111577   3.629   1.740   4.878
 3857TIP3    H211578   3.519   1.719   4.776
 3858TIP3   OH211579   0.387   0.027   0.591
 3858TIP3    H111580   0.473   0.069   0.582
 3858TIP3    H211581   0.392  -0.020   0.674
 3859TIP3   OH211582   4.263   2.019   1.305
 3859TIP3    H111583   4.338   1.967   1.276
 3859TIP3    H211584   4.297   2.072   1.376
 3860TIP3   OH211585   4.676   3.967   4.009
 3860TIP3    H111586   4.665   4.061   4.024
 3860TIP3    H211587   4.704   3.932   4.093
 3861TIP3   OH211588   0.397   2.413   3.331
 3861TIP3    H111589   0.348   2.333   3.352
 3861TIP3    H211590   0.467   2.415   3.396
 3862TIP3   OH211591   4.840   3.384   2.956
 3862TIP3    H111592   4.848   3.373   3.051
 3862TIP3    H211593   4.823   3.477   2.944
 3863TIP3   OH211594   6.146   4.239   1.981
 3863TIP3    H111595   6.146   4.147   2.006
 3863TIP3    H211596   6.227   4.251   1.932
 3864TIP3   OH211597   1.230   5.056   4.358
 3864TIP3    H111598   1.322   5.074   4.376
 3864TIP3    H211599   1.183   5.088   4.435
 3865TIP3   OH211600   4.065   1.391   4.832
 3865TIP3    H111601   4.127   1.381   4.760
 3865TIP3    H211602   4.034   1.481   4.824
 3866TIP3   OH211603   1.172   4.719   0.833
 3866TIP3    H111604   1.151   4.681   0.747
 3866TIP3    H211605   1.264   4.698   0.847
 3867TIP3   OH211606   2.484   0.561   0.908
 3867TIP3    H111607   2.563   0.554   0.855
 3867TIP3    H211608   2.480   0.478   0.957
 3868TIP3   OH211609   3.363   1.964   4.579
 3868TIP3    H111610   3.441   1.950   4.525
 3868TIP3    H211611   3.366   1.893   4.643
 3869TIP3   OH211612   3.874   3.375   4.102
 3869TIP3    H111613   3.860   3.299   4.159
 3869TIP3    H211614   3.840   3.347   4.017
 3870TIP3   OH211615   4.460   4.259   0.137
 3870TIP3    H111616   4.458   4.226   0.227
 3870TIP3    H211617   4.393   4.208   0.091
 3871TIP3   OH211618   6.031   4.080   4.817
 3871TIP3    H111619   6.077   4.115   4.741
 3871TIP3    H211620   5.959   4.030   4.780
 3872TIP3   OH211621   0.554   0.853   1.553
 3872TIP3    H111622   0.642   0.890   1.548
 3872TIP3    H211623   0.528   0.864   1.645
 3873TIP3   OH211624   4.340   4.086   3.091
 3873TIP3    H111625   4.250   4.072   3.121
 3873TIP3    H211626   4.381   3.999   3.096
 3874TIP3   OH211627   0.110   4.130   3.150
 3874TIP3    H111628   0.151   4.138   3.237
 3874TIP3    H211629   0.033   4.075   3.165
 3875TIP3   OH211630   5.157   2.187   1.810
 3875TIP3    H111631   5.174   2.278   1.784
 3875TIP3    H211632   5.185   2.135   1.735
 3876TIP3   OH211633   5.566   5.361   1.175
 3876TIP3    H111634   5.568   5.273   1.212
 3876TIP3    H211635   5.551   5.418   1.251
 3877TIP3   OH211636   2.386   5.551   3.237
 3877TIP3    H111637   2.459   5.498   3.269
 3877TIP3    H211638   2.336   5.492   3.181
 3878TIP3   OH211639   0.313   5.501   2.150
 3878TIP3    H111640   0.233   5.456   2.176
 3878TIP3    H211641   0.302   5.518   2.056
 3879TIP3   OH211642   0.953   4.572   1.347
 3879TIP3    H111643   0.924   4.517   1.420
 3879TIP3    H211644   0.931   4.522   1.269
 3880TIP3   OH211645   2.307   0.217   3.051
 3880TIP3    H111646   2.324   0.306   3.022
 3880TIP3    H211647   2.270   0.227   3.139
 3881TIP3   OH211648   4.055   0.766   0.085
 3881TIP3    H111649   3.967   0.728   0.083
 3881TIP3    H211650   4.100   0.727   0.011
 3882TIP3   OH211651   1.819   4.619   1.904
 3882TIP3    H111652   1.813   4.714   1.894
 3882TIP3    H211653   1.905   4.604   1.943
 3883TIP3   OH211654   3.564   1.046   2.445
 3883TIP3    H111655   3.501   0.996   2.393
 3883TIP3    H211656   3.616   0.979   2.490
 3884TIP3   OH211657   5.195   2.218   3.782
 3884TIP3    H111658   5.171   2.125   3.776
 3884TIP3    H211659   5.112   2.265   3.773
 3885TIP3   OH211660   1.151   4.385   0.839
 3885TIP3    H111661   1.226   4.399   0.781
 3885TIP3    H211662   1.088   4.337   0.786
 3886TIP3   OH211663   3.611   0.696   1.099
 3886TIP3    H111664   3.615   0.681   1.193
 3886TIP3    H211665   3.683   0.756   1.081
 3887TIP3   OH211666   3.531   4.062   1.267
 3887TIP3    H111667   3.464   4.108   1.216
 3887TIP3    H211668   3.482   4.003   1.325
 3888TIP3   OH211669   4.140   2.808   2.258
 3888TIP3    H111670   4.048   2.806   2.232
 3888TIP3    H211671   4.145   2.878   2.323
 3889TIP3   OH211672   2.636   5.509   1.677
 3889TIP3    H111673   2.569   5.473   1.735
 3889TIP3    H211674   2.634   5.453   1.600
 3890TIP3   OH211675   0.252   2.854   3.008
 3890TIP3    H111676   0.163   2.883   3.026
 3890TIP3    H211677   0.246   2.758   3.010
 3891TIP3   OH211678   2.133   1.284   3.140
 3891TIP3    H111679   2.082   1.313   3.064
 3891TIP3    H211680   2.104   1.194   3.155
 3892TIP3   OH211681   2.484   5.133   0.232
 3892TIP3    H111682   2.413   5.195   0.248
 3892TIP3    H211683   2.444   5.047   0.242
 3893TIP3   OH211684   6.337   3.555   5.152
 3893TIP3    H111685   6.371   3.599   5.074
 3893TIP3    H211686   6.331   3.462   5.127
 3894TIP3   OH211687   3.114   0.195   5.155
 3894TIP3    H111688   3.159   0.157   5.230
 3894TIP3    H211689   3.181   0.198   5.086
 3895TIP3   OH211690   1.975   3.309   3.787
 3895TIP3    H111691   1.946   3.325   3.697
 3895TIP3    H211692   1.895   3.312   3.839
 3896TIP3   OH211693   1.218   2.744   4.954
 3896TIP3    H111694   1.292   2.803   4.938
 3896TIP3    H211695   1.167   2.788   5.023
 3897TIP3   OH211696   6.260   4.574   2.690
 3897TIP3    H111697   6.198   4.543   2.624
 3897TIP3    H211698   6.340   4.525   2.673
 3898TIP3   OH211699   3.216   1.182   3.307
 3898TIP3    H111700   3.266   1.258   3.336
 3898TIP3    H211701   3.225   1.118   3.377
 3899TIP3   OH211702   2.963   0.652   2.950
 3899TIP3    H111703   3.048   0.646   2.996
 3899TIP3    H211704   2.914   0.719   2.998
 3900TIP3   OH211705   0.879   1.602   4.673
 3900TIP3    H111706   0.960   1.556   4.693
 3900TIP3    H211707   0.827   1.538   4.623
 3901TIP3   OH211708   2.906   0.122   3.593
 3901TIP3    H111709   2.854   0.200   3.575
 3901TIP3    H211710   2.856   0.050   3.555
 3902TIP3   OH211711   3.100   5.737   2.829
 3902TIP3    H111712   3.195   5.747   2.833
 3902TIP3    H211713   3.067   5.794   2.899
 3903TIP3   OH211714   2.610   3.337   2.048
 3903TIP3    H111715   2.667   3.409   2.075
 3903TIP3    H211716   2.535   3.343   2.107
 3904TIP3   OH211717   4.733   1.073   1.961
 3904TIP3    H111718   4.679   1.117   2.026
 3904TIP3    H211719   4.809   1.041   2.009
 3905TIP3   OH211720   1.874   3.852   1.660
 3905TIP3    H111721   1.860   3.789   1.731
 3905TIP3    H211722   1.844   3.936   1.696
 3906TIP3   OH211723   0.526   5.230   1.238
 3906TIP3    H111724   0.491   5.206   1.152
 3906TIP3    H211725   0.505   5.156   1.294
 3907TIP3   OH211726   6.252   4.023   3.272
 3907TIP3    H111727   6.175   4.010   3.328
 3907TIP3    H211728   6.237   3.965   3.197
 3908TIP3   OH211729   2.945   0.184   4.362
 3908TIP3    H111730   2.909   0.111   4.411
 3908TIP3    H211731   3.038   0.187   4.386
 3909TIP3   OH211732   4.890   0.210   1.727
 3909TIP3    H111733   4.829   0.278   1.700
 3909TIP3    H211734   4.972   0.232   1.683
 3910TIP3   OH211735   2.750   3.954   3.836
 3910TIP3    H111736   2.790   3.940   3.922
 3910TIP3    H211737   2.795   4.030   3.800
 3911TIP3   OH211738   2.764   4.931   2.897
 3911TIP3    H111739   2.817   4.961   2.824
 3911TIP3    H211740   2.692   4.994   2.902
 3912TIP3   OH211741   1.220   2.089   3.489
 3912TIP3    H111742   1.135   2.123   3.459
 3912TIP3    H211743   1.198   2.012   3.541
 3913TIP3   OH211744   1.068   1.686   4.325
 3913TIP3    H111745   1.161   1.707   4.322
 3913TIP3    H211746   1.065   1.590   4.317
 3914TIP3   OH211747   3.120   2.947   2.155
 3914TIP3    H111748   3.037   2.902   2.174
 3914TIP3    H211749   3.117   2.964   2.061
 3915TIP3   OH211750   0.803   4.122   3.840
 3915TIP3    H111751   0.740   4.138   3.910
 3915TIP3    H211752   0.756   4.143   3.759
 3916TIP3   OH211753   4.261   0.635   2.086
 3916TIP3    H111754   4.333   0.673   2.035
 3916TIP3    H211755   4.185   0.642   2.028
 3917TIP3   OH211756   5.599   5.981   0.501
 3917TIP3    H111757   5.609   5.894   0.461
 3917TIP3    H211758   5.506   6.000   0.493
 3918TIP3   OH211759   0.066   0.708   2.829
 3918TIP3    H111760   0.134   0.709   2.897
 3918TIP3    H211761   0.102   0.762   2.759
 3919TIP3   OH211762   6.284   0.773   3.938
 3919TIP3    H111763   6.371   0.789   3.899
 3919TIP3    H211764   6.300   0.770   4.032
 3920TIP3   OH211765   2.772   0.115   2.444
 3920TIP3    H111766   2.738   0.155   2.525
 3920TIP3    H211767   2.693   0.090   2.396
 3921TIP3   OH211768   1.907   2.977   2.664
 3921TIP3    H111769   1.857   2.945   2.589
 3921TIP3    H211770   1.895   3.072   2.662
 3922TIP3   OH211771   2.032   2.133   3.767
 3922TIP3    H111772   2.116   2.090   3.785
 3922TIP3    H211773   1.983   2.069   3.716
 3923TIP3   OH211774   3.238   1.986   2.921
 3923TIP3    H111775   3.233   1.979   2.825
 3923TIP3    H211776   3.188   1.911   2.953
 3924TIP3   OH211777   3.481   1.477   4.530
 3924TIP3    H111778   3.402   1.524   4.556
 3924TIP3    H211779   3.528   1.463   4.612
 3925TIP3   OH211780   4.147   5.178   1.657
 3925TIP3    H111781   4.102   5.126   1.723
 3925TIP3    H211782   4.238   5.179   1.685
 3926TIP3   OH211783   3.823   1.886   3.207
 3926TIP3    H111784   3.901   1.848   3.248
 3926TIP3    H211785   3.764   1.813   3.194
 3927TIP3   OH211786   6.055   0.770   3.791
 3927TIP3    H111787   6.138   0.751   3.836
 3927TIP3    H211788   6.025   0.684   3.760
 3928TIP3   OH211789   5.100   4.725   3.622
 3928TIP3    H111790   5.187   4.762   3.635
 3928TIP3    H211791   5.106   4.636   3.657
 3929TIP3   OH211792   4.404   1.245   0.151
 3929TIP3    H111793   4.354   1.192   0.213
 3929TIP3    H211794   4.470   1.289   0.204
 3930TIP3   OH211795   4.061   3.667   3.293
 3930TIP3    H111796   4.030   3.687   3.205
 3930TIP3    H211797   4.042   3.574   3.305
 3931TIP3   OH211798   6.257   0.432   2.484
 3931TIP3    H111799   6.297   0.503   2.535
 3931TIP3    H211800   6.291   0.445   2.395
 3932TIP3   OH211801   5.441   1.586   4.282
 3932TIP3    H111802   5.461   1.535   4.204
 3932TIP3    H211803   5.399   1.524   4.342
 3933TIP3   OH211804   1.978   1.121   3.482
 3933TIP3    H111805   2.073   1.111   3.476
 3933TIP3    H211806   1.944   1.032   3.471
 3934TIP3   OH211807   6.337   5.091   2.225
 3934TIP3    H111808   6.391   5.057   2.154
 3934TIP3    H211809   6.315   5.014   2.278
 3935TIP3   OH211810   5.586   1.614   4.982
 3935TIP3    H111811   5.600   1.709   4.982
 3935TIP3    H211812   5.668   1.577   4.949
 3936TIP3   OH211813   2.768   4.218   2.965
 3936TIP3    H111814   2.859   4.227   2.935
 3936TIP3    H211815   2.751   4.299   3.014
 3937TIP3   OH211816   5.418   5.104   0.425
 3937TIP3    H111817   5.329   5.140   0.425
 3937TIP3    H211818   5.441   5.095   0.333
 3938TIP3   OH211819   2.222   1.190   4.516
 3938TIP3    H111820   2.181   1.173   4.601
 3938TIP3    H211821   2.304   1.234   4.537
 3939TIP3   OH211822   5.682   3.093   3.018
 3939TIP3    H111823   5.677   3.046   3.101
 3939TIP3    H211824   5.774   3.085   2.992
 3940TIP3   OH211825   6.280   5.733   0.074
 3940TIP3    H111826   6.314   5.808   0.124
 3940TIP3    H211827   6.329   5.658   0.109
 3941TIP3   OH211828   0.940   4.782   2.944
 3941TIP3    H111829   0.940   4.840   3.021
 3941TIP3    H211830   0.888   4.706   2.972
 3942TIP3   OH211831   5.758   5.353   4.757
 3942TIP3    H111832   5.716   5.413   4.818
 3942TIP3    H211833   5.686   5.315   4.707
 3943TIP3   OH211834   5.492   1.406   3.461
 3943TIP3    H111835   5.490   1.425   3.555
 3943TIP3    H211836   5.487   1.310   3.456
 3944TIP3   OH211837   2.548   2.942   1.410
 3944TIP3    H111838   2.525   3.033   1.426
 3944TIP3    H211839   2.577   2.939   1.319
 3945TIP3   OH211840   3.698   3.433   0.639
 3945TIP3    H111841   3.609   3.406   0.616
 3945TIP3    H211842   3.686   3.515   0.688
 3946TIP3   OH211843   0.499   2.617   2.478
 3946TIP3    H111844   0.540   2.619   2.565
 3946TIP3    H211845   0.530   2.536   2.438
 3947TIP3   OH211846   2.588   2.073   3.241
 3947TIP3    H111847   2.631   2.100   3.323
 3947TIP3    H211848   2.581   1.978   3.248
 3948TIP3   OH211849   1.586   0.954   1.549
 3948TIP3    H111850   1.551   0.867   1.526
 3948TIP3    H211851   1.564   1.008   1.473
 3949TIP3   OH211852   5.018   0.585   1.781
 3949TIP3    H111853   4.947   0.540   1.733
 3949TIP3    H211854   5.090   0.589   1.717
 3950TIP3   OH211855   1.042   0.064   3.312
 3950TIP3    H111856   1.044  -0.013   3.369
 3950TIP3    H211857   1.019   0.029   3.225
 3951TIP3   OH211858   0.923   1.721   0.691
 3951TIP3    H111859   0.855   1.688   0.750
 3951TIP3    H211860   0.894   1.809   0.668
 3952TIP3   OH211861   3.016   0.482   4.778
 3952TIP3    H111862   2.999   0.533   4.699
 3952TIP3    H211863   3.106   0.504   4.801
 3953TIP3   OH211864   4.855   5.003   4.708
 3953TIP3    H111865   4.935   4.976   4.662
 3953TIP3    H211866   4.830   5.085   4.666
 3954TIP3   OH211867   4.571   3.410   0.671
 3954TIP3    H111868   4.659   3.432   0.640
 3954TIP3    H211869   4.515   3.479   0.636
 3955TIP3   OH211870   3.795   2.511   0.031
 3955TIP3    H111871   3.823   2.510   0.122
 3955TIP3    H211872   3.876   2.501  -0.019
 3956TIP3   OH211873   4.557   5.133   1.000
 3956TIP3    H111874   4.565   5.181   0.918
 3956TIP3    H211875   4.553   5.202   1.067
 3957TIP3   OH211876   2.821   5.113   0.892
 3957TIP3    H111877   2.847   5.037   0.839
 3957TIP3    H211878   2.728   5.098   0.911
 3958TIP3   OH211879   1.011   4.957   4.804
 3958TIP3    H111880   0.950   4.936   4.875
 3958TIP3    H211881   1.049   4.873   4.780
 3959TIP3   OH211882   2.641   4.452   1.000
 3959TIP3    H111883   2.732   4.446   0.969
 3959TIP3    H211884   2.623   4.546   1.003
 3960TIP3   OH211885   6.157   3.893   0.297
 3960TIP3    H111886   6.136   3.805   0.266
 3960TIP3    H211887   6.131   3.951   0.225
 3961TIP3   OH211888   5.354   4.970   3.331
 3961TIP3    H111889   5.388   4.961   3.242
 3961TIP3    H211890   5.259   4.978   3.320
 3962TIP3   OH211891   1.206   2.248   0.733
 3962TIP3    H111892   1.175   2.164   0.698
 3962TIP3    H211893   1.183   2.312   0.665
 3963TIP3   OH211894   4.495   0.483   0.346
 3963TIP3    H111895   4.476   0.466   0.438
 3963TIP3    H211896   4.410   0.473   0.302
 3964TIP3   OH211897   0.966   1.961   4.318
 3964TIP3    H111898   1.018   2.020   4.263
 3964TIP3    H211899   1.007   1.875   4.305
 3965TIP3   OH211900   5.755   1.267   3.145
 3965TIP3    H111901   5.742   1.359   3.122
 3965TIP3    H211902   5.845   1.262   3.175
 3966TIP3   OH211903   2.810   3.761   2.752
 3966TIP3    H111904   2.805   3.854   2.775
 3966TIP3    H211905   2.870   3.757   2.678
 3967TIP3   OH211906   4.164   5.819   3.519
 3967TIP3    H111907   4.224   5.893   3.508
 3967TIP3    H211908   4.216   5.752   3.564
 3968TIP3   OH211909   3.670   6.008   0.945
 3968TIP3    H111910   3.738   5.943   0.960
 3968TIP3    H211911   3.659   6.051   1.030
 3969TIP3   OH211912   2.487   0.252   4.086
 3969TIP3    H111913   2.416   0.224   4.144
 3969TIP3    H211914   2.552   0.182   4.092
 3970TIP3   OH211915   1.190   2.508   4.553
 3970TIP3    H111916   1.153   2.503   4.641
 3970TIP3    H211917   1.185   2.601   4.530
 3971TIP3   OH211918   4.895   5.183   4.999
 3971TIP3    H111919   4.928   5.094   5.005
 3971TIP3    H211920   4.879   5.209   5.090
 3972TIP3   OH211921   5.507   2.762   5.169
 3972TIP3    H111922   5.439   2.741   5.106
 3972TIP3    H211923   5.460   2.790   5.248
 3973TIP3   OH211924   3.948   4.660   2.573
 3973TIP3    H111925   4.019   4.712   2.536
 3973TIP3    H211926   3.869   4.711   2.555
 3974TIP3   OH211927   1.296   5.588   4.345
 3974TIP3    H111928   1.271   5.606   4.255
 3974TIP3    H211929   1.390   5.569   4.341
 3975TIP3   OH211930   2.545   0.410   3.856
 3975TIP3    H111931   2.485   0.484   3.863
 3975TIP3    H211932   2.523   0.354   3.930
 3976TIP3   OH211933   2.964   5.554   1.965
 3976TIP3    H111934   3.033   5.488   1.962
 3976TIP3    H211935   3.011   5.638   1.965
 3977TIP3   OH211936   6.059   1.422   2.255
 3977TIP3    H111937   6.044   1.503   2.305
 3977TIP3    H211938   6.050   1.449   2.164
 3978TIP3   OH211939   1.375   3.415   4.281
 3978TIP3    H111940   1.369   3.337   4.225
 3978TIP3    H211941   1.305   3.403   4.346
 3979TIP3   OH211942   5.346   2.411   3.583
 3979TIP3    H111943   5.336   2.404   3.678
 3979TIP3    H211944   5.371   2.323   3.555
 3980TIP3   OH211945   4.773   5.800   1.682
 3980TIP3    H111946   4.759   5.895   1.685
 3980TIP3    H211947   4.734   5.768   1.763
 3981TIP3   OH211948   5.576   3.300   4.929
 3981TIP3    H111949   5.616   3.319   5.014
 3981TIP3    H211950   5.605   3.371   4.872
 3982TIP3   OH211951   4.996   0.124   3.857
 3982TIP3    H111952   4.919   0.142   3.911
 3982TIP3    H211953   5.059   0.193   3.881
 3983TIP3   OH211954   6.373   5.248   4.524
 3983TIP3    H111955   6.370   5.337   4.489
 3983TIP3    H211956   6.320   5.197   4.463
 3984TIP3   OH211957   5.600   1.975   0.527
 3984TIP3    H111958   5.518   2.010   0.563
 3984TIP3    H211959   5.639   2.049   0.481
 3985TIP3   OH211960   1.546   5.052   2.702
 3985TIP3    H111961   1.510   5.133   2.666
 3985TIP3    H211962   1.590   5.078   2.783
 3986TIP3   OH211963   5.477   1.372   5.073
 3986TIP3    H111964   5.500   1.459   5.041
 3986TIP3    H211965   5.418   1.389   5.146
 3987TIP3   OH211966   5.719   4.655   1.508
 3987TIP3    H111967   5.623   4.656   1.515
 3987TIP3    H211968   5.749   4.700   1.587
 3988TIP3   OH211969   0.279   2.039   4.015
 3988TIP3    H111970   0.275   2.029   4.110
 3988TIP3    H211971   0.337   2.115   4.002
 3989TIP3   OH211972   3.800   0.905   1.004
 3989TIP3    H111973   3.808   0.995   0.972
 3989TIP3    H211974   3.828   0.851   0.930
 3990TIP3   OH211975   3.301   0.408   1.688
 3990TIP3    H111976   3.219   0.422   1.735
 3990TIP3    H211977   3.328   0.320   1.714
 3991TIP3   OH211978   4.858   5.834   2.473
 3991TIP3    H111979   4.943   5.876   2.460
 3991TIP3    H211980   4.865   5.751   2.424
 3992TIP3   OH211981   0.523  -0.005   3.154
 3992TIP3    H111982   0.429   0.013   3.151
 3992TIP3    H211983   0.551   0.026   3.240
 3993TIP3   OH211984   4.817   3.904   4.241
 3993TIP3    H111985   4.853   3.984   4.279
 3993TIP3    H211986   4.790   3.851   4.317
 3994TIP3   OH211987   0.623   0.567   1.517
 3994TIP3    H111988   0.601   0.659   1.533
 3994TIP3    H211989   0.538   0.522   1.514
 3995TIP3   OH211990   0.557   5.154   4.416
 3995TIP3    H111991   0.487   5.104   4.373
 3995TIP3    H211992   0.633   5.096   4.414
 3996TIP3   OH211993   5.558   1.245   1.305
 3996TIP3    H111994   5.633   1.284   1.262
 3996TIP3    H211995   5.595   1.196   1.378
 3997TIP3   OH211996   2.646   3.477   5.063
 3997TIP3    H111997   2.647   3.546   4.997
 3997TIP3    H211998   2.698   3.513   5.136
 3998TIP3   OH211999   6.034   2.017   3.084
 3998TIP3    H112000   5.955   1.964   3.096
 3998TIP3    H212001   6.106   1.959   3.107
 3999TIP3   OH212002   2.508   1.037   2.944
 3999TIP3    H112003   2.445   1.107   2.926
 3999TIP3    H212004   2.456   0.968   2.984
 4000TIP3   OH212005   3.847   3.594   2.028
 4000TIP3    H112006   3.906   3.601   1.953
 4000TIP3    H212007   3.783   3.528   2.003
 4001TIP3   OH212008   4.480   3.974   5.071
 4001TIP3    H112009   4.497   3.983   5.165
 4001TIP3    H212010   4.559   4.009   5.029
 4002TIP3   OH212011   3.576   0.375   5.011
 4002TIP3    H112012   3.564   0.428   4.933
 4002TIP3    H212013   3.670   0.376   5.027
 4003TIP3   OH212014   2.837   1.822   2.212
 4003TIP3    H112015   2.791   1.738   2.219
 4003TIP3    H212016   2.818   1.852   2.123
 4004TIP3   OH212017   3.443   2.415   4.203
 4004TIP3    H112018   3.394   2.423   4.285
 4004TIP3    H212019   3.519   2.362   4.225
 4005TIP3   OH212020   5.917   0.384   4.621
 4005TIP3    H112021   5.824   0.377   4.641
 4005TIP3    H212022   5.942   0.469   4.657
 4006TIP3   OH212023   4.309   2.110   2.903
 4006TIP3    H112024   4.362   2.123   2.824
 4006TIP3    H212025   4.354   2.160   2.971
 4007TIP3   OH212026   1.551   3.674   1.437
 4007TIP3    H112027   1.570   3.768   1.432
 4007TIP3    H212028   1.526   3.660   1.528
 4008TIP3   OH212029   5.651   0.458   4.357
 4008TIP3    H112030   5.581   0.427   4.415
 4008TIP3    H212031   5.652   0.553   4.370
 4009TIP3   OH212032   3.570   2.289   1.757
 4009TIP3    H112033   3.572   2.383   1.777
 4009TIP3    H212034   3.625   2.249   1.825
 4010TIP3   OH212035   2.784   4.916   4.617
 4010TIP3    H112036   2.837   4.946   4.691
 4010TIP3    H212037   2.820   4.961   4.541
 4011TIP3   OH212038   0.131   2.735   1.411
 4011TIP3    H112039   0.139   2.828   1.388
 4011TIP3    H212040   0.123   2.690   1.326
 4012TIP3   OH212041   4.731   4.378   4.560
 4012TIP3    H112042   4.721   4.384   4.465
 4012TIP3    H212043   4.642   4.371   4.594
 4013TIP3   OH212044   2.313   3.106   2.713
 4013TIP3    H112045   2.350   3.187   2.749
 4013TIP3    H212046   2.367   3.037   2.751
 4014TIP3   OH212047   1.247   2.992   1.251
 4014TIP3    H112048   1.329   2.955   1.284
 4014TIP3    H212049   1.267   3.017   1.161
 4015TIP3   OH212050   2.597   4.811   3.813
 4015TIP3    H112051   2.690   4.828   3.830
 4015TIP3    H212052   2.584   4.838   3.722
 4016TIP3   OH212053   4.940   1.632   2.103
 4016TIP3    H112054   4.874   1.654   2.037
 4016TIP3    H212055   4.891   1.590   2.174
 4017TIP3   OH212056   3.837   4.085   3.291
 4017TIP3    H112057   3.824   4.175   3.318
 4017TIP3    H212058   3.931   4.069   3.300
 4018TIP3   OH212059   4.282   3.243   3.812
 4018TIP3    H112060   4.299   3.273   3.902
 4018TIP3    H212061   4.311   3.316   3.757
 4019TIP3   OH212062   6.378   2.796   4.726
 4019TIP3    H112063   6.349   2.734   4.793
 4019TIP3    H212064   6.383   2.880   4.772
 4020TIP3   OH212065   5.043   1.022   0.120
 4020TIP3    H112066   5.031   0.947   0.061
 4020TIP3    H212067   4.954   1.049   0.142
 4021TIP3   OH212068   6.078   1.747   0.428
 4021TIP3    H112069   6.038   1.794   0.501
 4021TIP3    H212070   6.172   1.760   0.440
 4022TIP3   OH212071   5.952   1.412   2.914
 4022TIP3    H112072   5.900   1.418   2.994
 4022TIP3    H212073   5.929   1.326   2.877
 4023TIP3   OH212074   5.069   0.412   3.882
 4023TIP3    H112075   5.048   0.485   3.940
 4023TIP3    H212076   5.001   0.415   3.814
 4024TIP3   OH212077   1.939   1.408   0.167
 4024TIP3    H112078   1.963   1.315   0.174
 4024TIP3    H212079   1.873   1.421   0.234
 4025TIP3   OH212080   5.295   0.308   0.409
 4025TIP3    H112081   5.350   0.327   0.333
 4025TIP3    H212082   5.297   0.213   0.416
 4026TIP3   OH212083   5.200   2.609   1.167
 4026TIP3    H112084   5.270   2.575   1.223
 4026TIP3    H212085   5.156   2.531   1.134
 4027TIP3   OH212086   0.214   0.490   4.095
 4027TIP3    H112087   0.179   0.529   4.015
 4027TIP3    H212088   0.251   0.563   4.144
 4028TIP3   OH212089   0.484   2.036   2.691
 4028TIP3    H112090   0.561   2.070   2.647
 4028TIP3    H212091   0.513   2.013   2.779
 4029TIP3   OH212092   0.904   2.469   0.471
 4029TIP3    H112093   0.862   2.496   0.390
 4029TIP3    H212094   0.844   2.405   0.510
 4030TIP3   OH212095   1.307   0.489   0.452
 4030TIP3    H112096   1.333   0.521   0.366
 4030TIP3    H212097   1.233   0.430   0.435
 4031TIP3   OH212098   5.676   1.020   3.092
 4031TIP3    H112099   5.584   1.000   3.073
 4031TIP3    H212100   5.681   1.116   3.088
 4032TIP3   OH212101   2.229   4.581   3.312
 4032TIP3    H112102   2.139   4.614   3.322
 4032TIP3    H212103   2.278   4.656   3.278
 4033TIP3   OH212104   2.489   2.673   0.282
 4033TIP3    H112105   2.555   2.695   0.215
 4033TIP3    H212106   2.432   2.610   0.239
 4034TIP3   OH212107   0.566   1.788   0.970
 4034TIP3    H112108   0.574   1.727   0.898
 4034TIP3    H212109   0.638   1.765   1.029
 4035TIP3   OH212110   6.157   5.182   1.734
 4035TIP3    H112111   6.147   5.218   1.822
 4035TIP3    H212112   6.252   5.168   1.725
 4036TIP3   OH212113   5.244   1.787   0.286
 4036TIP3    H112114   5.205   1.868   0.319
 4036TIP3    H212115   5.336   1.794   0.309
 4037TIP3   OH212116   5.870   0.059   1.850
 4037TIP3    H112117   5.900   0.149   1.862
 4037TIP3    H212118   5.803   0.064   1.781
 4038TIP3   OH212119   4.236   5.080   4.929
 4038TIP3    H112120   4.220   5.052   4.838
 4038TIP3    H212121   4.302   5.020   4.962
 4039TIP3   OH212122   2.397   5.023   4.680
 4039TIP3    H112123   2.329   5.069   4.629
 4039TIP3    H212124   2.350   4.987   4.755
 4040TIP3   OH212125   1.024   2.335   3.862
 4040TIP3    H112126   1.104   2.369   3.902
 4040TIP3    H212127   1.041   2.338   3.768
 4041TIP3   OH212128   3.598   4.053   2.816
 4041TIP3    H112129   3.528   4.115   2.835
 4041TIP3    H212130   3.668   4.076   2.878
 4042TIP3   OH212131   0.631   0.734   1.253
 4042TIP3    H112132   0.681   0.689   1.321
 4042TIP3    H212133   0.577   0.797   1.301
 4043TIP3   OH212134   0.295   3.766   2.621
 4043TIP3    H112135   0.354   3.716   2.678
 4043TIP3    H212136   0.260   3.700   2.561
 4044TIP3   OH212137   0.476   1.522   3.713
 4044TIP3    H112138   0.491   1.606   3.668
 4044TIP3    H212139   0.532   1.527   3.791
 4045TIP3   OH212140   0.990   1.548   1.429
 4045TIP3    H112141   1.073   1.506   1.407
 4045TIP3    H212142   0.973   1.608   1.356
 4046TIP3   OH212143   1.675   2.582   5.091
 4046TIP3    H112144   1.620   2.521   5.041
 4046TIP3    H212145   1.738   2.525   5.136
 4047TIP3   OH212146   1.739   5.286   2.218
 4047TIP3    H112147   1.810   5.232   2.182
 4047TIP3    H212148   1.665   5.270   2.159
 4048TIP3   OH212149   1.418   0.922   4.517
 4048TIP3    H112150   1.333   0.959   4.545
 4048TIP3    H212151   1.400   0.830   4.502
 4049TIP3   OH212152   4.491   0.442   0.638
 4049TIP3    H112153   4.558   0.398   0.690
 4049TIP3    H212154   4.408   0.422   0.682
 4050TIP3   OH212155   2.368   1.017   0.193
 4050TIP3    H112156   2.340   1.094   0.242
 4050TIP3    H212157   2.295   0.956   0.201
 4051TIP3   OH212158   0.731   5.506   0.063
 4051TIP3    H112159   0.691   5.575   0.115
 4051TIP3    H212160   0.705   5.425   0.106
 4052TIP3   OH212161   0.753   1.595   1.125
 4052TIP3    H112162   0.707   1.563   1.203
 4052TIP3    H212163   0.808   1.666   1.158
 4053TIP3   OH212164   3.239   5.293   2.695
 4053TIP3    H112165   3.183   5.342   2.754
 4053TIP3    H212166   3.327   5.329   2.708
 4054TIP3   OH212167   1.847   3.635   1.891
 4054TIP3    H112168   1.864   3.694   1.965
 4054TIP3    H212169   1.814   3.555   1.931
 4055TIP3   OH212170   0.539   1.705   0.036
 4055TIP3    H112171   0.590   1.784   0.050
 4055TIP3    H212172   0.468   1.711   0.100
 4056TIP3   OH212173   1.395   1.381   5.081
 4056TIP3    H112174   1.370   1.389   5.173
 4056TIP3    H212175   1.317   1.408   5.033
 4057TIP3   OH212176   5.094   3.844   4.305
 4057TIP3    H112177   5.126   3.929   4.274
 4057TIP3    H212178   5.035   3.814   4.235
 4058TIP3   OH212179   2.351   4.574   2.488
 4058TIP3    H112180   2.258   4.555   2.495
 4058TIP3    H212181   2.356   4.669   2.476
 4059TIP3   OH212182   5.888   0.697   2.675
 4059TIP3    H112183   5.892   0.681   2.769
 4059TIP3    H212184   5.979   0.707   2.649
 4060TIP3   OH212185   3.179   0.680   0.919
 4060TIP3    H112186   3.200   0.594   0.956
 4060TIP3    H212187   3.262   0.728   0.923
 4061TIP3   OH212188   6.054   5.305   2.639
 4061TIP3    H112189   6.101   5.288   2.557
 4061TIP3    H212190   6.092   5.243   2.701
 4062TIP3   OH212191   1.803   1.573   1.176
 4062TIP3    H112192   1.843   1.491   1.146
 4062TIP3    H212193   1.805   1.567   1.272
 4063TIP3   OH212194   2.942   4.835   3.347
 4063TIP3    H112195   2.979   4.780   3.416
 4063TIP3    H212196   3.018   4.866   3.297
 4064TIP3   OH212197   0.303   3.888   4.220
 4064TIP3    H112198   0.273   3.933   4.141
 4064TIP3    H212199   0.270   3.798   4.210
 4065TIP3   OH212200   5.285   2.339   0.812
 4065TIP3    H112201   5.345   2.409   0.838
 4065TIP3    H212202   5.339   2.260   0.809
 4066TIP3   OH212203   4.422   5.251   2.008
 4066TIP3    H112204   4.359   5.304   2.057
 4066TIP3    H212205   4.410   5.162   2.041
 4067TIP3   OH212206   2.491   2.889   4.987
 4067TIP3    H112207   2.513   2.908   4.896
 4067TIP3    H212208   2.544   2.951   5.038
 4068TIP3   OH212209   1.241   2.652   1.267
 4068TIP3    H112210   1.290   2.664   1.185
 4068TIP3    H212211   1.248   2.737   1.311
 4069TIP3   OH212212   4.913   3.047   1.313
 4069TIP3    H112213   4.879   2.991   1.243
 4069TIP3    H212214   5.007   3.051   1.298
 4070TIP3   OH212215   3.119   1.350   3.833
 4070TIP3    H112216   3.087   1.418   3.893
 4070TIP3    H212217   3.041   1.322   3.785
 4071TIP3   OH212218   4.656   3.055   5.152
 4071TIP3    H112219   4.580   3.024   5.102
 4071TIP3    H212220   4.731   3.028   5.100
 4072TIP3   OH212221   3.461   5.376   2.837
 4072TIP3    H112222   3.539   5.322   2.821
 4072TIP3    H212223   3.489   5.465   2.816
 4073TIP3   OH212224   5.729   3.514   3.164
 4073TIP3    H112225   5.740   3.560   3.081
 4073TIP3    H212226   5.704   3.583   3.226
 4074TIP3   OH212227   5.780   0.879   4.760
 4074TIP3    H112228   5.840   0.893   4.834
 4074TIP3    H212229   5.814   0.801   4.716
 4075TIP3   OH212230   3.876   1.134   0.866
 4075TIP3    H112231   3.844   1.119   0.777
 4075TIP3    H212232   3.870   1.228   0.878
 4076TIP3   OH212233   0.227   5.807   0.597
 4076TIP3    H112234   0.199   5.889   0.638
 4076TIP3    H212235   0.216   5.741   0.665
 4077TIP3   OH212236   0.121   0.195   1.651
 4077TIP3    H112237   0.164   0.263   1.702
 4077TIP3    H212238   0.105   0.236   1.566
 4078TIP3   OH212239   4.571   2.736   3.399
 4078TIP3    H112240   4.500   2.759   3.339
 4078TIP3    H212241   4.591   2.817   3.445
 4079TIP3   OH212242   1.787   1.247   0.601
 4079TIP3    H112243   1.757   1.210   0.519
 4079TIP3    H212244   1.874   1.282   0.581
 4080TIP3   OH212245   0.862   2.802   2.176
 4080TIP3    H112246   0.777   2.837   2.202
 4080TIP3    H212247   0.843   2.716   2.139
 4081TIP3   OH212248   3.316   2.015   1.255
 4081TIP3    H112249   3.271   2.002   1.171
 4081TIP3    H212250   3.249   1.997   1.321
 4082TIP3   OH212251   1.609   3.242   4.520
 4082TIP3    H112252   1.671   3.215   4.588
 4082TIP3    H212253   1.524   3.243   4.564
 4083TIP3   OH212254   3.195   3.984   5.130
 4083TIP3    H112255   3.276   3.938   5.108
 4083TIP3    H212256   3.224   4.069   5.163
 4084TIP3   OH212257   4.361   0.917   4.104
 4084TIP3    H112258   4.397   0.874   4.027
 4084TIP3    H212259   4.386   1.008   4.095
 4085TIP3   OH212260   1.239   5.029   4.654
 4085TIP3    H112261   1.234   4.942   4.614
 4085TIP3    H212262   1.167   5.031   4.716
 4086TIP3   OH212263   4.917   1.969   0.849
 4086TIP3    H112264   4.825   1.972   0.821
 4086TIP3    H212265   4.955   2.051   0.817
 4087TIP3   OH212266   3.112   4.744   2.007
 4087TIP3    H112267   3.127   4.762   2.100
 4087TIP3    H212268   3.140   4.653   1.996
 4088TIP3   OH212269   1.088   2.561   2.472
 4088TIP3    H112270   1.129   2.474   2.471
 4088TIP3    H212271   1.152   2.619   2.432
 4089TIP3   OH212272   5.595   4.974   4.912
 4089TIP3    H112273   5.629   4.905   4.856
 4089TIP3    H212274   5.501   4.954   4.920
 4090TIP3   OH212275   0.154   1.314   2.007
 4090TIP3    H112276   0.162   1.233   2.058
 4090TIP3    H212277   0.160   1.384   2.072
 4091TIP3   OH212278   5.676   1.174   1.554
 4091TIP3    H112279   5.756   1.146   1.599
 4091TIP3    H212280   5.611   1.107   1.577
 4092TIP3   OH212281   2.071   1.810   2.588
 4092TIP3    H112282   2.164   1.798   2.606
 4092TIP3    H212283   2.031   1.824   2.674
 4093TIP3   OH212284   0.552   3.787   0.268
 4093TIP3    H112285   0.486   3.768   0.201
 4093TIP3    H212286   0.636   3.768   0.226
 4094TIP3   OH212287   0.180   2.444   4.570
 4094TIP3    H112288   0.210   2.395   4.646
 4094TIP3    H212289   0.171   2.534   4.601
 4095TIP3   OH212290   1.423   4.125   0.628
 4095TIP3    H112291   1.413   4.118   0.533
 4095TIP3    H212292   1.517   4.128   0.642
 4096TIP3   OH212293   2.561   0.722   0.462
 4096TIP3    H112294   2.480   0.701   0.507
 4096TIP3    H212295   2.629   0.719   0.530
 4097TIP3   OH212296   1.436   2.638   2.001
 4097TIP3    H112297   1.419   2.619   1.909
 4097TIP3    H212298   1.359   2.686   2.031
 4098TIP3   OH212299   2.471   3.195   5.049
 4098TIP3    H112300   2.401   3.242   5.004
 4098TIP3    H212301   2.537   3.261   5.068
 4099TIP3   OH212302   4.042   3.342   4.532
 4099TIP3    H112303   3.973   3.306   4.588
 4099TIP3    H212304   4.086   3.265   4.495
 4100TIP3   OH212305   5.549   1.897   1.912
 4100TIP3    H112306   5.465   1.850   1.913
 4100TIP3    H212307   5.542   1.955   1.836
 4101TIP3   OH212308   5.961   1.115   1.973
 4101TIP3    H112309   6.050   1.148   1.967
 4101TIP3    H212310   5.968   1.022   1.950
 4102TIP3   OH212311   1.149   1.067   1.459
 4102TIP3    H112312   1.168   1.072   1.553
 4102TIP3    H212313   1.061   1.030   1.455
 4103TIP3   OH212314   2.433   1.538   2.119
 4103TIP3    H112315   2.436   1.442   2.112
 4103TIP3    H212316   2.375   1.555   2.193
 4104TIP3   OH212317   3.084   4.875   2.727
 4104TIP3    H112318   3.011   4.934   2.707
 4104TIP3    H212319   3.146   4.887   2.656
 4105TIP3   OH212320   1.537   3.651   1.821
 4105TIP3    H112321   1.625   3.674   1.851
 4105TIP3    H212322   1.504   3.732   1.782
 4106TIP3   OH212323   0.094   2.446   0.820
 4106TIP3    H112324   0.162   2.388   0.852
 4106TIP3    H212325   0.028   2.446   0.889
 4107TIP3   OH212326   5.703   1.257   2.413
 4107TIP3    H112327   5.653   1.235   2.492
 4107TIP3    H212328   5.706   1.353   2.413
 4108TIP3   OH212329   2.378   4.692   1.756
 4108TIP3    H112330   2.338   4.659   1.676
 4108TIP3    H212331   2.345   4.781   1.764
 4109TIP3   OH212332   6.179   3.981   2.679
 4109TIP3    H112333   6.188   3.923   2.755
 4109TIP3    H212334   6.180   4.069   2.715
 4110TIP3   OH212335   1.057   1.368   4.319
 4110TIP3    H112336   1.031   1.296   4.262
 4110TIP3    H212337   0.996   1.363   4.393
 4111TIP3   OH212338   1.474   3.608   0.413
 4111TIP3    H112339   1.568   3.592   0.419
 4111TIP3    H212340   1.434   3.536   0.462
 4112TIP3   OH212341   2.653   2.224   0.756
 4112TIP3    H112342   2.560   2.246   0.757
 4112TIP3    H212343   2.669   2.190   0.669
 4113TIP3   OH212344   3.192   5.599   4.200
 4113TIP3    H112345   3.167   5.690   4.218
 4113TIP3    H212346   3.139   5.548   4.262
 4114TIP3   OH212347   4.719   3.407   4.020
 4114TIP3    H112348   4.756   3.372   3.939
 4114TIP3    H212349   4.681   3.331   4.063
 4115TIP3   OH212350   0.903   1.116   1.780
 4115TIP3    H112351   0.953   1.069   1.848
 4115TIP3    H212352   0.915   1.064   1.701
 4116TIP3   OH212353   5.147   4.805   2.919
 4116TIP3    H112354   5.139   4.784   3.012
 4116TIP3    H212355   5.239   4.787   2.898
 4117TIP3   OH212356   4.116   3.677   1.378
 4117TIP3    H112357   4.053   3.748   1.370
 4117TIP3    H212358   4.124   3.662   1.472
 4118TIP3   OH212359   0.888   1.246   3.536
 4118TIP3    H112360   0.978   1.262   3.509
 4118TIP3    H212361   0.864   1.164   3.494
 4119TIP3   OH212362   5.503   3.112   2.402
 4119TIP3    H112363   5.582   3.131   2.454
 4119TIP3    H212364   5.512   3.021   2.376
 4120TIP3   OH212365   4.240   2.741   0.149
 4120TIP3    H112366   4.197   2.819   0.186
 4120TIP3    H212367   4.189   2.667   0.182
 4121TIP3   OH212368   1.266   2.774   4.288
 4121TIP3    H112369   1.301   2.698   4.242
 4121TIP3    H212370   1.202   2.738   4.349
 4122TIP3   OH212371   3.619   4.758   2.569
 4122TIP3    H112372   3.591   4.667   2.585
 4122TIP3    H212373   3.644   4.759   2.476
 4123TIP3   OH212374   3.113   2.384   3.523
 4123TIP3    H112375   3.130   2.338   3.441
 4123TIP3    H212376   3.189   2.442   3.534
 4124TIP3   OH212377   5.116   3.522   5.012
 4124TIP3    H112378   5.131   3.486   5.099
 4124TIP3    H212379   5.047   3.587   5.025
 4125TIP3   OH212380   3.533   4.790   1.860
 4125TIP3    H112381   3.498   4.717   1.912
 4125TIP3    H212382   3.475   4.863   1.880
 4126TIP3   OH212383   5.454   4.058   2.312
 4126TIP3    H112384   5.412   3.989   2.262
 4126TIP3    H212385   5.462   4.024   2.401
 4127TIP3   OH212386   6.229   3.037   0.540
 4127TIP3    H112387   6.253   3.040   0.448
 4127TIP3    H212388   6.134   3.021   0.539
 4128TIP3   OH212389   5.108   5.550   3.432
 4128TIP3    H112390   5.203   5.549   3.444
 4128TIP3    H212391   5.094   5.609   3.358
 4129TIP3   OH212392   4.122   1.179   1.181
 4129TIP3    H112393   4.110   1.260   1.131
 4129TIP3    H212394   4.040   1.169   1.230
 4130TIP3   OH212395   4.559   5.181   3.354
 4130TIP3    H112396   4.644   5.218   3.381
 4130TIP3    H212397   4.563   5.179   3.258
 4131TIP3   OH212398   4.406   2.744   4.880
 4131TIP3    H112399   4.407   2.650   4.860
 4131TIP3    H212400   4.438   2.786   4.801
 4132TIP3   OH212401   3.075   1.698   1.892
 4132TIP3    H112402   3.112   1.661   1.972
 4132TIP3    H212403   3.055   1.623   1.837
 4133TIP3   OH212404   4.096   4.464   0.243
 4133TIP3    H112405   4.020   4.483   0.188
 4133TIP3    H212406   4.090   4.370   0.261
 4134TIP3   OH212407   6.319   4.799   0.944
 4134TIP3    H112408   6.317   4.894   0.939
 4134TIP3    H212409   6.373   4.780   1.020
 4135TIP3   OH212410   0.573   3.298   0.732
 4135TIP3    H112411   0.490   3.250   0.725
 4135TIP3    H212412   0.640   3.231   0.721
 4136TIP3   OH212413   3.721   2.002   4.765
 4136TIP3    H112414   3.792   1.941   4.788
 4136TIP3    H212415   3.644   1.946   4.756
 4137TIP3   OH212416   3.120   3.650   1.889
 4137TIP3    H112417   3.063   3.704   1.834
 4137TIP3    H212418   3.100   3.560   1.863
 4138TIP3   OH212419   6.043   3.151   4.628
 4138TIP3    H112420   6.056   3.057   4.641
 4138TIP3    H212421   5.959   3.169   4.671
 4139TIP3   OH212422   1.798   3.383  -0.021
 4139TIP3    H112423   1.819   3.441   0.052
 4139TIP3    H212424   1.794   3.441  -0.097
 4140TIP3   OH212425   4.486   1.208   1.266
 4140TIP3    H112426   4.446   1.237   1.184
 4140TIP3    H212427   4.566   1.259   1.273
 4141TIP3   OH212428   3.400   1.639   3.597
 4141TIP3    H112429   3.348   1.702   3.645
 4141TIP3    H212430   3.490   1.653   3.628
 4142TIP3   OH212431   1.601   2.009   2.324
 4142TIP3    H112432   1.654   2.000   2.403
 4142TIP3    H212433   1.651   2.067   2.267
 4143TIP3   OH212434   2.796   0.862   3.042
 4143TIP3    H112435   2.743   0.883   3.119
 4143TIP3    H212436   2.744   0.892   2.968
 4144TIP3   OH212437   4.519   3.618   4.044
 4144TIP3    H112438   4.597   3.562   4.040
 4144TIP3    H212439   4.475   3.593   4.125
 4145TIP3   OH212440   2.698   0.807   1.704
 4145TIP3    H112441   2.626   0.856   1.743
 4145TIP3    H212442   2.765   0.803   1.772
 4146TIP3   OH212443   4.926   2.305   3.784
 4146TIP3    H112444   4.833   2.289   3.770
 4146TIP3    H212445   4.956   2.348   3.703
 4147TIP3   OH212446   4.790   1.133   0.184
 4147TIP3    H112447   4.750   1.058   0.228
 4147TIP3    H212448   4.740   1.208   0.214
 4148TIP3   OH212449   1.664   5.737   1.660
 4148TIP3    H112450   1.639   5.829   1.651
 4148TIP3    H212451   1.612   5.705   1.734
 4149TIP3   OH212452   2.106   1.116   1.426
 4149TIP3    H112453   2.114   1.111   1.330
 4149TIP3    H212454   2.037   1.054   1.448
 4150TIP3   OH212455   2.970   2.871   1.711
 4150TIP3    H112456   2.959   2.865   1.616
 4150TIP3    H212457   2.987   2.781   1.739
 4151TIP3   OH212458   0.320   5.983   3.833
 4151TIP3    H112459   0.402   5.933   3.837
 4151TIP3    H212460   0.329   6.039   3.756
 4152TIP3   OH212461   1.329   5.242   3.122
 4152TIP3    H112462   1.420   5.214   3.133
 4152TIP3    H212463   1.334   5.335   3.103
 4153TIP3   OH212464   2.292   4.846   2.459
 4153TIP3    H112465   2.208   4.818   2.497
 4153TIP3    H212466   2.285   4.941   2.453
 4154TIP3   OH212467   4.500   3.193   3.421
 4154TIP3    H112468   4.441   3.243   3.365
 4154TIP3    H212469   4.529   3.120   3.367
 4155TIP3   OH212470   3.026   5.187   1.064
 4155TIP3    H112471   3.116   5.160   1.044
 4155TIP3    H212472   2.981   5.186   0.980
 4156TIP3   OH212473   3.231   3.358   2.712
 4156TIP3    H112474   3.184   3.283   2.675
 4156TIP3    H212475   3.275   3.399   2.637
 4157TIP3   OH212476   0.716   2.373   4.201
 4157TIP3    H112477   0.800   2.327   4.201
 4157TIP3    H212478   0.728   2.445   4.263
 4158TIP3   OH212479   1.903   5.602   1.022
 4158TIP3    H112480   1.909   5.617   1.116
 4158TIP3    H212481   1.822   5.551   1.011
 4159TIP3   OH212482   0.022   3.344   0.182
 4159TIP3    H112483   0.091   3.330   0.247
 4159TIP3    H212484   0.069   3.361   0.100
 4160TIP3   OH212485   0.904   4.220   3.337
 4160TIP3    H112486   0.977   4.281   3.348
 4160TIP3    H212487   0.829   4.263   3.378
 4161TIP3   OH212488   5.227   2.049   2.884
 4161TIP3    H112489   5.234   2.047   2.789
 4161TIP3    H212490   5.194   2.137   2.904
 4162TIP3   OH212491   0.251   0.583   3.485
 4162TIP3    H112492   0.161   0.615   3.493
 4162TIP3    H212493   0.296   0.653   3.438
 4163TIP3   OH212494   0.846   0.744   1.776
 4163TIP3    H112495   0.895   0.776   1.851
 4163TIP3    H212496   0.858   0.811   1.709
 4164TIP3   OH212497   4.159   5.385   1.082
 4164TIP3    H112498   4.200   5.458   1.128
 4164TIP3    H212499   4.128   5.327   1.151
 4165TIP3   OH212500   4.727   0.283   1.442
 4165TIP3    H112501   4.759   0.354   1.497
 4165TIP3    H212502   4.659   0.240   1.495
 4166TIP3   OH212503   2.889   3.054   2.610
 4166TIP3    H112504   2.851   2.975   2.572
 4166TIP3    H212505   2.820   3.120   2.601
 4167TIP3   OH212506   3.318   2.332   1.705
 4167TIP3    H112507   3.287   2.329   1.796
 4167TIP3    H212508   3.411   2.310   1.711
 4168TIP3   OH212509   4.656   3.795   1.585
 4168TIP3    H112510   4.738   3.756   1.615
 4168TIP3    H212511   4.636   3.747   1.504
 4169TIP3   OH212512   0.490   3.883   5.014
 4169TIP3    H112513   0.521   3.955   4.959
 4169TIP3    H212514   0.395   3.883   5.001
 4170TIP3   OH212515   6.307   1.857   0.551
 4170TIP3    H112516   6.273   1.883   0.636
 4170TIP3    H212517   6.390   1.813   0.570
 4171TIP3   OH212518   3.262   0.603   1.185
 4171TIP3    H112519   3.280   0.532   1.124
 4171TIP3    H212520   3.305   0.577   1.266
 4172TIP3   OH212521   4.448   4.345   3.656
 4172TIP3    H112522   4.381   4.317   3.593
 4172TIP3    H212523   4.445   4.279   3.725
 4173TIP3   OH212524   6.196   0.878   1.269
 4173TIP3    H112525   6.173   0.969   1.288
 4173TIP3    H212526   6.279   0.864   1.316
 4174TIP3   OH212527   2.520   5.055   4.164
 4174TIP3    H112528   2.477   5.137   4.141
 4174TIP3    H212529   2.488   4.992   4.100
 4175TIP3   OH212530   1.076   4.564   5.118
 4175TIP3    H112531   1.085   4.469   5.123
 4175TIP3    H212532   0.988   4.582   5.150
 4176TIP3   OH212533   2.880   2.614   4.835
 4176TIP3    H112534   2.799   2.565   4.852
 4176TIP3    H212535   2.895   2.663   4.916
 4177TIP3   OH212536   2.173   5.814   4.634
 4177TIP3    H112537   2.267   5.831   4.629
 4177TIP3    H212538   2.143   5.815   4.544
 4178TIP3   OH212539   5.580   0.409   1.456
 4178TIP3    H112540   5.583   0.327   1.406
 4178TIP3    H212541   5.511   0.395   1.521
 4179TIP3   OH212542   6.159   1.959   1.272
 4179TIP3    H112543   6.142   2.040   1.321
 4179TIP3    H212544   6.078   1.910   1.278
 4180TIP3   OH212545   5.956   2.235   4.428
 4180TIP3    H112546   5.993   2.292   4.496
 4180TIP3    H212547   5.884   2.286   4.391
 4181TIP3   OH212548   5.369   0.106   5.002
 4181TIP3    H112549   5.417   0.149   5.073
 4181TIP3    H212550   5.342   0.177   4.945
 4182TIP3   OH212551   2.624   2.149   1.249
 4182TIP3    H112552   2.536   2.169   1.280
 4182TIP3    H212553   2.644   2.220   1.187
 4183TIP3   OH212554   4.789   3.792   0.400
 4183TIP3    H112555   4.739   3.823   0.476
 4183TIP3    H212556   4.795   3.869   0.343
 4184TIP3   OH212557   3.293   0.176   4.148
 4184TIP3    H112558   3.306   0.082   4.159
 4184TIP3    H212559   3.304   0.212   4.236
 4185TIP3   OH212560   3.122   2.658   4.709
 4185TIP3    H112561   3.115   2.732   4.648
 4185TIP3    H212562   3.038   2.656   4.754
 4186TIP3   OH212563   0.018   2.032   4.379
 4186TIP3    H112564  -0.048   2.056   4.445
 4186TIP3    H212565   0.059   2.115   4.355
 4187TIP3   OH212566   1.529   4.510   4.316
 4187TIP3    H112567   1.473   4.581   4.347
 4187TIP3    H212568   1.506   4.500   4.223
 4188TIP3   OH212569   1.052   2.557   4.139
 4188TIP3    H112570   1.108   2.537   4.063
 4188TIP3    H212571   1.084   2.500   4.208
 4189TIP3   OH212572   6.069   0.152   3.021
 4189TIP3    H112573   6.100   0.178   3.108
 4189TIP3    H212574   6.144   0.106   2.982
 4190TIP3   OH212575   1.056   4.053   4.132
 4190TIP3    H112576   1.069   4.029   4.040
 4190TIP3    H212577   0.963   4.070   4.140
 4191TIP3   OH212578   5.590   3.184   0.952
 4191TIP3    H112579   5.649   3.259   0.941
 4191TIP3    H212580   5.510   3.221   0.988
 4192TIP3   OH212581   4.020   5.830   5.000
 4192TIP3    H112582   3.962   5.881   5.056
 4192TIP3    H212583   3.968   5.810   4.922
 4193TIP3   OH212584   3.149   5.670   3.748
 4193TIP3    H112585   3.122   5.583   3.718
 4193TIP3    H212586   3.125   5.729   3.676
 4194TIP3   OH212587   2.880   1.352   2.373
 4194TIP3    H112588   2.931   1.278   2.340
 4194TIP3    H212589   2.789   1.322   2.368
 4195TIP3   OH212590   3.163   5.125   2.910
 4195TIP3    H112591   3.176   5.195   2.846
 4195TIP3    H212592   3.133   5.050   2.857
 4196TIP3   OH212593   2.647   2.895   3.697
 4196TIP3    H112594   2.589   2.854   3.760
 4196TIP3    H212595   2.636   2.989   3.710
 4197TIP3   OH212596   6.271   1.480   0.891
 4197TIP3    H112597   6.254   1.413   0.825
 4197TIP3    H212598   6.366   1.493   0.888
 4198TIP3   OH212599   0.823   4.697   4.158
 4198TIP3    H112600   0.895   4.727   4.101
 4198TIP3    H212601   0.844   4.606   4.176
 4199TIP3   OH212602   2.842   0.526   3.537
 4199TIP3    H112603   2.916   0.518   3.477
 4199TIP3    H212604   2.796   0.605   3.508
 4200TIP3   OH212605   5.363   2.586   3.375
 4200TIP3    H112606   5.348   2.515   3.313
 4200TIP3    H212607   5.362   2.543   3.461
 4201TIP3   OH212608   0.212   3.114   1.142
 4201TIP3    H112609   0.230   3.066   1.061
 4201TIP3    H212610   0.133   3.165   1.122
 4202TIP3   OH212611   0.953   2.141   3.414
 4202TIP3    H112612   0.915   2.185   3.338
 4202TIP3    H212613   0.960   2.210   3.480
 4203TIP3   OH212614   4.122   2.414   4.291
 4203TIP3    H112615   4.162   2.345   4.238
 4203TIP3    H212616   4.187   2.431   4.359
 4204TIP3   OH212617   0.089   2.563   3.184
 4204TIP3    H112618   0.149   2.495   3.152
 4204TIP3    H212619   0.110   2.572   3.277
 4205TIP3   OH212620   2.171   1.449   4.771
 4205TIP3    H112621   2.265   1.466   4.777
 4205TIP3    H212622   2.137   1.523   4.720
 4206TIP3   OH212623   3.319   2.196   4.054
 4206TIP3    H112624   3.340   2.278   4.100
 4206TIP3    H212625   3.225   2.187   4.063
 4207TIP3   OH212626   0.088   3.715   3.796
 4207TIP3    H112627  -0.004   3.689   3.797
 4207TIP3    H212628   0.132   3.644   3.749
 4208TIP3   OH212629   2.258   5.010   2.821
 4208TIP3    H112630   2.179   5.023   2.769
 4208TIP3    H212631   2.306   5.092   2.812
 4209TIP3   OH212632   1.806   0.820   3.007
 4209TIP3    H112633   1.887   0.851   2.965
 4209TIP3    H212634   1.836   0.778   3.087
 4210TIP3   OH212635   3.718   0.524   2.844
 4210TIP3    H112636   3.706   0.553   2.934
 4210TIP3    H212637   3.741   0.603   2.795
 4211TIP3   OH212638   2.147   4.289   4.688
 4211TIP3    H112639   2.140   4.302   4.593
 4211TIP3    H212640   2.203   4.212   4.698
 4212TIP3   OH212641   3.832   5.485   0.258
 4212TIP3    H112642   3.761   5.529   0.211
 4212TIP3    H212643   3.844   5.536   0.338
 4213TIP3   OH212644   1.371   1.253   0.246
 4213TIP3    H112645   1.365   1.347   0.264
 4213TIP3    H212646   1.342   1.245   0.155
 4214TIP3   OH212647   1.688   0.316   0.456
 4214TIP3    H112648   1.605   0.275   0.429
 4214TIP3    H212649   1.725   0.351   0.376
 4215TIP3   OH212650   0.693   3.103   1.858
 4215TIP3    H112651   0.771   3.121   1.805
 4215TIP3    H212652   0.718   3.125   1.947
 4216TIP3   OH212653   1.098   4.780   4.502
 4216TIP3    H112654   1.036   4.818   4.440
 4216TIP3    H212655   1.047   4.713   4.549
 4217TIP3   OH212656   5.873   2.829   3.715
 4217TIP3    H112657   5.963   2.856   3.695
 4217TIP3    H212658   5.884   2.757   3.777
 4218TIP3   OH212659   3.901   2.413   4.813
 4218TIP3    H112660   3.992   2.385   4.805
 4218TIP3    H212661   3.860   2.347   4.869
 4219TIP3   OH212662   1.575   1.772   5.048
 4219TIP3    H112663   1.663   1.809   5.052
 4219TIP3    H212664   1.537   1.810   4.968
 4220TIP3   OH212665   4.301   0.609   3.620
 4220TIP3    H112666   4.273   0.534   3.673
 4220TIP3    H212667   4.219   0.652   3.594
 4221TIP3   OH212668   0.418   5.240   4.901
 4221TIP3    H112669   0.342   5.248   4.843
 4221TIP3    H212670   0.409   5.311   4.964
 4222TIP3   OH212671   4.396   2.900   0.678
 4222TIP3    H112672   4.354   2.984   0.659
 4222TIP3    H212673   4.324   2.841   0.696
 4223TIP3   OH212674   0.100   1.257   3.536
 4223TIP3    H112675   0.050   1.214   3.467
 4223TIP3    H212676   0.125   1.342   3.500
 4224TIP3   OH212677   0.500   1.735   4.841
 4224TIP3    H112678   0.539   1.755   4.756
 4224TIP3    H212679   0.563   1.769   4.905
 4225TIP3   OH212680   3.703   0.513   0.615
 4225TIP3    H112681   3.732   0.424   0.636
 4225TIP3    H212682   3.619   0.521   0.660
 4226TIP3   OH212683   4.431   5.024   2.801
 4226TIP3    H112684   4.494   5.003   2.869
 4226TIP3    H212685   4.365   4.955   2.806
 4227TIP3   OH212686   5.981   0.946   2.393
 4227TIP3    H112687   6.003   0.877   2.330
 4227TIP3    H212688   6.014   1.026   2.352
 4228TIP3   OH212689   4.912   5.712   0.407
 4228TIP3    H112690   4.888   5.699   0.499
 4228TIP3    H212691   5.004   5.689   0.402
 4229TIP3   OH212692   4.774   1.406   2.204
 4229TIP3    H112693   4.712   1.348   2.158
 4229TIP3    H212694   4.742   1.408   2.294
 4230TIP3   OH212695   0.301   1.994   1.915
 4230TIP3    H112696   0.220   2.019   1.869
 4230TIP3    H212697   0.334   1.920   1.865
 4231TIP3   OH212698   0.110   0.754   1.667
 4231TIP3    H112699   0.152   0.669   1.654
 4231TIP3    H212700   0.096   0.760   1.762
 4232TIP3   OH212701   5.718   0.010   2.061
 4232TIP3    H112702   5.800  -0.001   2.012
 4232TIP3    H212703   5.736   0.084   2.120
 4233TIP3   OH212704   5.927   5.040   1.730
 4233TIP3    H112705   5.933   5.031   1.825
 4233TIP3    H212706   6.013   5.073   1.703
 4234TIP3   OH212707   4.272   0.974   3.439
 4234TIP3    H112708   4.322   0.903   3.479
 4234TIP3    H212709   4.338   1.031   3.401
 4235TIP3   OH212710   2.599   1.428   1.394
 4235TIP3    H112711   2.624   1.383   1.313
 4235TIP3    H212712   2.629   1.518   1.381
 4236TIP3   OH212713   5.575   5.021   1.747
 4236TIP3    H112714   5.528   5.065   1.817
 4236TIP3    H212715   5.533   5.051   1.666
 4237TIP3   OH212716   4.052   5.743   0.782
 4237TIP3    H112717   3.988   5.773   0.847
 4237TIP3    H212718   4.051   5.648   0.790
 4238TIP3   OH212719   2.794   1.116   3.888
 4238TIP3    H112720   2.762   1.144   3.974
 4238TIP3    H212721   2.851   1.041   3.907
 4239TIP3   OH212722   4.566   2.127   2.128
 4239TIP3    H112723   4.642   2.076   2.100
 4239TIP3    H212724   4.591   2.218   2.113
 4240TIP3   OH212725   3.103   2.022   2.213
 4240TIP3    H112726   3.171   1.973   2.258
 4240TIP3    H212727   3.022   1.976   2.235
 4241TIP3   OH212728   2.240   4.916   1.304
 4241TIP3    H112729   2.264   4.957   1.221
 4241TIP3    H212730   2.171   4.853   1.281
 4242TIP3   OH212731   3.350   4.343   4.875
 4242TIP3    H112732   3.397   4.395   4.809
 4242TIP3    H212733   3.356   4.395   4.955
 4243TIP3   OH212734   6.233   4.176   0.620
 4243TIP3    H112735   6.251   4.085   0.645
 4243TIP3    H212736   6.164   4.204   0.680
 4244TIP3   OH212737   5.910   4.170   3.623
 4244TIP3    H112738   5.929   4.264   3.617
 4244TIP3    H212739   5.842   4.155   3.558
 4245TIP3   OH212740   5.805   3.393   1.537
 4245TIP3    H112741   5.891   3.378   1.576
 4245TIP3    H212742   5.820   3.460   1.470
 4246TIP3   OH212743   3.397   2.101   5.044
 4246TIP3    H112744   3.461   2.035   5.073
 4246TIP3    H212745   3.312   2.059   5.057
 4247TIP3   OH212746   4.891   4.726   4.383
 4247TIP3    H112747   4.849   4.751   4.301
 4247TIP3    H212748   4.985   4.737   4.366
 4248TIP3   OH212749   4.515   0.145   1.841
 4248TIP3    H112750   4.533   0.053   1.825
 4248TIP3    H212751   4.423   0.148   1.867
 4249TIP3   OH212752   5.481   3.884   3.115
 4249TIP3    H112753   5.443   3.854   3.033
 4249TIP3    H212754   5.473   3.809   3.174
 4250TIP3   OH212755   0.065   2.917   1.666
 4250TIP3    H112756   0.053   2.911   1.571
 4250TIP3    H212757   0.111   3.000   1.679
 4251TIP3   OH212758   3.115   1.660   4.870
 4251TIP3    H112759   3.048   1.695   4.811
 4251TIP3    H212760   3.084   1.683   4.958
 4252TIP3   OH212761   0.712   0.565   2.872
 4252TIP3    H112762   0.807   0.559   2.862
 4252TIP3    H212763   0.700   0.619   2.950
 4253TIP3   OH212764   3.871   3.405   1.374
 4253TIP3    H112765   3.918   3.450   1.304
 4253TIP3    H212766   3.850   3.319   1.338
 4254TIP3   OH212767   0.488   2.308   4.771
 4254TIP3    H112768   0.550   2.299   4.843
 4254TIP3    H212769   0.542   2.321   4.693
 4255TIP3   OH212770   5.699   3.377   2.094
 4255TIP3    H112771   5.645   3.376   2.015
 4255TIP3    H212772   5.662   3.447   2.148
 4256TIP3   OH212773   2.600   4.383   3.944
 4256TIP3    H112774   2.600   4.330   3.864
 4256TIP3    H212775   2.652   4.460   3.922
 4257TIP3   OH212776   2.439   1.896   0.484
 4257TIP3    H112777   2.413   1.891   0.576
 4257TIP3    H212778   2.525   1.854   0.481
 4258TIP3   OH212779   3.371   1.777   3.317
 4258TIP3    H112780   3.292   1.829   3.304
 4258TIP3    H212781   3.374   1.761   3.412
 4259TIP3   OH212782   0.510   0.302   3.775
 4259TIP3    H112783   0.503   0.363   3.702
 4259TIP3    H212784   0.602   0.278   3.777
 4260TIP3   OH212785   5.530   1.735   0.306
 4260TIP3    H112786   5.577   1.815   0.331
 4260TIP3    H212787   5.543   1.675   0.380
 4261TIP3   OH212788   3.685   1.589   3.007
 4261TIP3    H112789   3.685   1.607   3.101
 4261TIP3    H212790   3.608   1.636   2.974
 4262TIP3   OH212791   3.647   2.834   3.242
 4262TIP3    H112792   3.739   2.857   3.236
 4262TIP3    H212793   3.603   2.893   3.181
 4263TIP3   OH212794   5.601   4.377   4.227
 4263TIP3    H112795   5.506   4.364   4.231
 4263TIP3    H212796   5.616   4.413   4.140
 4264TIP3   OH212797   5.452   3.441   0.225
 4264TIP3    H112798   5.533   3.418   0.179
 4264TIP3    H212799   5.406   3.357   0.236
 4265TIP3   OH212800   3.455   5.781   2.082
 4265TIP3    H112801   3.474   5.725   2.158
 4265TIP3    H212802   3.524   5.848   2.084
 4266TIP3   OH212803   4.552   4.604   3.429
 4266TIP3    H112804   4.568   4.511   3.446
 4266TIP3    H212805   4.608   4.650   3.491
 4267TIP3   OH212806   3.253   2.633   1.938
 4267TIP3    H112807   3.291   2.574   2.004
 4267TIP3    H212808   3.319   2.701   1.926
 4268TIP3   OH212809   3.710   5.184   1.838
 4268TIP3    H112810   3.725   5.270   1.878
 4268TIP3    H212811   3.633   5.150   1.884
 4269TIP3   OH212812   3.347   4.843   5.176
 4269TIP3    H112813   3.369   4.798   5.094
 4269TIP3    H212814   3.387   4.789   5.244
 4270TIP3   OH212815   5.974   2.135   3.544
 4270TIP3    H112816   6.021   2.059   3.577
 4270TIP3    H212817   5.917   2.162   3.616
 4271TIP3   OH212818   5.039   1.360   2.247
 4271TIP3    H112819   5.074   1.433   2.299
 4271TIP3    H212820   4.956   1.393   2.213
 4272TIP3   OH212821   4.210   3.722   1.704
 4272TIP3    H112822   4.263   3.647   1.730
 4272TIP3    H212823   4.274   3.790   1.681
 4273TIP3   OH212824   0.365   5.283   3.600
 4273TIP3    H112825   0.367   5.378   3.613
 4273TIP3    H212826   0.292   5.268   3.540
 4274TIP3   OH212827   1.143   3.321   0.476
 4274TIP3    H112828   1.159   3.272   0.395
 4274TIP3    H212829   1.052   3.347   0.470
 4275TIP3   OH212830   5.495   4.752   4.161
 4275TIP3    H112831   5.462   4.677   4.210
 4275TIP3    H212832   5.437   4.759   4.085
 4276TIP3   OH212833   3.580   1.653   1.518
 4276TIP3    H112834   3.637   1.576   1.528
 4276TIP3    H212835   3.538   1.662   1.603
 4277TIP3   OH212836   0.745   5.842   5.163
 4277TIP3    H112837   0.719   5.915   5.107
 4277TIP3    H212838   0.667   5.787   5.168
 4278TIP3   OH212839   4.856   3.313   2.509
 4278TIP3    H112840   4.940   3.330   2.554
 4278TIP3    H212841   4.821   3.400   2.492
 4279TIP3   OH212842   0.544   3.860   2.129
 4279TIP3    H112843   0.558   3.871   2.223
 4279TIP3    H212844   0.474   3.795   2.123
 4280TIP3   OH212845   1.597   4.839   1.517
 4280TIP3    H112846   1.503   4.858   1.518
 4280TIP3    H212847   1.618   4.826   1.425
 4281TIP3   OH212848   5.108   5.934   2.509
 4281TIP3    H112849   5.130   6.010   2.564
 4281TIP3    H212850   5.181   5.874   2.520
 4282TIP3   OH212851   3.840   2.691   2.149
 4282TIP3    H112852   3.746   2.704   2.161
 4282TIP3    H212853   3.847   2.622   2.083
 4283TIP3   OH212854   2.055   1.079   0.357
 4283TIP3    H112855   2.120   1.149   0.350
 4283TIP3    H212856   2.005   1.084   0.275
 4284TIP3   OH212857   6.246   0.185   1.978
 4284TIP3    H112858   6.330   0.223   2.005
 4284TIP3    H212859   6.269   0.115   1.917
 4285TIP3   OH212860   2.379   5.466   2.331
 4285TIP3    H112861   2.382   5.543   2.387
 4285TIP3    H212862   2.423   5.493   2.251
 4286TIP3   OH212863   3.699   5.892   4.470
 4286TIP3    H112864   3.673   5.874   4.561
 4286TIP3    H212865   3.617   5.893   4.421
 4287TIP3   OH212866   1.272   1.474   0.951
 4287TIP3    H112867   1.239   1.508   0.868
 4287TIP3    H212868   1.279   1.552   1.007
 4288TIP3   OH212869   2.640   3.798   0.654
 4288TIP3    H112870   2.642   3.702   0.665
 4288TIP3    H212871   2.684   3.814   0.571
 4289TIP3   OH212872   2.978   4.415   0.022
 4289TIP3    H112873   2.912   4.368   0.074
 4289TIP3    H212874   2.977   4.371  -0.063
 4290TIP3   OH212875   0.755   3.178   3.983
 4290TIP3    H112876   0.757   3.273   3.984
 4290TIP3    H212877   0.668   3.156   3.950
 4291TIP3   OH212878   2.734   2.135   0.515
 4291TIP3    H112879   2.770   2.048   0.528
 4291TIP3    H212880   2.792   2.176   0.451
 4292TIP3   OH212881   3.833   0.429   1.199
 4292TIP3    H112882   3.874   0.454   1.282
 4292TIP3    H212883   3.801   0.340   1.214
 4293TIP3   OH212884   0.794   1.384   1.839
 4293TIP3    H112885   0.867   1.331   1.807
 4293TIP3    H212886   0.771   1.345   1.923
 4294TIP3   OH212887   4.503   0.123   1.159
 4294TIP3    H112888   4.560   0.171   1.219
 4294TIP3    H212889   4.555   0.111   1.080
 4295TIP3   OH212890   5.393   0.459   4.463
 4295TIP3    H112891   5.358   0.416   4.385
 4295TIP3    H212892   5.377   0.552   4.448
 4296TIP3   OH212893   5.830   1.208   2.773
 4296TIP3    H112894   5.753   1.254   2.741
 4296TIP3    H212895   5.885   1.196   2.695
 4297TIP3   OH212896   4.327   4.611   1.899
 4297TIP3    H112897   4.238   4.644   1.883
 4297TIP3    H212898   4.362   4.591   1.812
 4298TIP3   OH212899   4.428   1.562   2.264
 4298TIP3    H112900   4.411   1.473   2.294
 4298TIP3    H212901   4.459   1.608   2.342
 4299TIP3   OH212902   1.391   4.424   3.497
 4299TIP3    H112903   1.429   4.365   3.562
 4299TIP3    H212904   1.349   4.366   3.434
 4300TIP3   OH212905   2.415   5.818   3.189
 4300TIP3    H112906   2.410   5.724   3.208
 4300TIP3    H212907   2.325   5.849   3.197
 4301TIP3   OH212908   0.412   4.141   4.615
 4301TIP3    H112909   0.328   4.134   4.568
 4301TIP3    H212910   0.450   4.223   4.583
 4302TIP3   OH212911   3.899   4.375   4.784
 4302TIP3    H112912   3.827   4.326   4.825
 4302TIP3    H212913   3.877   4.467   4.800
 4303TIP3   OH212914   4.950   4.801   0.833
 4303TIP3    H112915   5.010   4.808   0.907
 4303TIP3    H212916   4.885   4.870   0.849
 4304TIP3   OH212917   0.113   1.559   0.342
 4304TIP3    H112918   0.124   1.643   0.386
 4304TIP3    H212919   0.202   1.525   0.332
 4305TIP3   OH212920   5.738   3.036   3.830
 4305TIP3    H112921   5.680   3.003   3.898
 4305TIP3    H212922   5.774   2.957   3.789
 4306TIP3   OH212923   3.003   0.151   0.668
 4306TIP3    H112924   2.917   0.159   0.711
 4306TIP3    H212925   2.999   0.067   0.622
 4307TIP3   OH212926   5.367   4.317   1.345
 4307TIP3    H112927   5.302   4.273   1.400
 4307TIP3    H212928   5.421   4.365   1.407
 4308TIP3   OH212929   1.478   5.284   2.536
 4308TIP3    H112930   1.462   5.214   2.473
 4308TIP3    H212931   1.404   5.343   2.525
 4309TIP3   OH212932   4.917   2.987   1.615
 4309TIP3    H112933   4.829   2.988   1.651
 4309TIP3    H212934   4.904   2.992   1.520
 4310TIP3   OH212935   5.571   4.764   3.453
 4310TIP3    H112936   5.620   4.692   3.413
 4310TIP3    H212937   5.633   4.836   3.458
 4311TIP3   OH212938   2.516   1.935   4.386
 4311TIP3    H112939   2.499   2.020   4.345
 4311TIP3    H212940   2.482   1.872   4.322
 4312TIP3   OH212941   0.126   4.167   3.886
 4312TIP3    H112942   0.171   4.244   3.923
 4312TIP3    H212943   0.158   4.093   3.938
 4313TIP3   OH212944   3.036   1.120   4.624
 4313TIP3    H112945   2.956   1.083   4.588
 4313TIP3    H212946   3.008   1.200   4.668
 4314TIP3   OH212947   2.839   3.894   2.331
 4314TIP3    H112948   2.881   3.853   2.407
 4314TIP3    H212949   2.907   3.896   2.265
 4315TIP3   OH212950   0.332   1.268   3.693
 4315TIP3    H112951   0.272   1.264   3.619
 4315TIP3    H212952   0.317   1.354   3.732
 4316TIP3   OH212953   2.622   1.981   2.349
 4316TIP3    H112954   2.670   2.063   2.362
 4316TIP3    H212955   2.674   1.933   2.284
 4317TIP3   OH212956   5.193   0.885   3.511
 4317TIP3    H112957   5.126   0.940   3.471
 4317TIP3    H212958   5.211   0.818   3.445
 4318TIP3   OH212959   3.369   1.916   3.588
 4318TIP3    H112960   3.457   1.885   3.566
 4318TIP3    H212961   3.375   2.011   3.585
 4319TIP3   OH212962   0.316   5.722   1.818
 4319TIP3    H112963   0.240   5.781   1.819
 4319TIP3    H212964   0.285   5.645   1.770
 4320TIP3   OH212965   4.221   3.466   3.624
 4320TIP3    H112966   4.200   3.539   3.565
 4320TIP3    H212967   4.170   3.484   3.703
 4321TIP3   OH212968   4.757   5.731   4.785
 4321TIP3    H112969   4.680   5.734   4.728
 4321TIP3    H212970   4.794   5.819   4.779
 4322TIP3   OH212971   5.805   5.532   3.194
 4322TIP3    H112972   5.710   5.520   3.192
 4322TIP3    H212973   5.821   5.576   3.278
 4323TIP3   OH212974   3.769   4.797   3.768
 4323TIP3    H112975   3.748   4.796   3.675
 4323TIP3    H212976   3.826   4.872   3.780
 4324TIP3   OH212977   4.688   2.326   0.082
 4324TIP3    H112978   4.617   2.265   0.103
 4324TIP3    H212979   4.656   2.377   0.009
 4325TIP3   OH212980   3.269   5.067   0.941
 4325TIP3    H112981   3.329   5.038   0.872
 4325TIP3    H212982   3.264   4.994   1.002
 4326TIP3   OH212983   4.762   4.585   0.964
 4326TIP3    H112984   4.807   4.654   0.914
 4326TIP3    H212985   4.830   4.551   1.022
 4327TIP3   OH212986   3.372   5.464   3.646
 4327TIP3    H112987   3.304   5.406   3.679
 4327TIP3    H212988   3.374   5.537   3.708
 4328TIP3   OH212989   4.681   0.698   4.985
 4328TIP3    H112990   4.771   0.667   4.977
 4328TIP3    H212991   4.631   0.643   4.925
 4329TIP3   OH212992   1.540   2.050   3.375
 4329TIP3    H112993   1.619   2.104   3.372
 4329TIP3    H212994   1.539   2.005   3.291
 4330TIP3   OH212995   6.054   5.146   0.326
 4330TIP3    H112996   5.990   5.079   0.350
 4330TIP3    H212997   6.111   5.103   0.263
 4331TIP3   OH212998   0.062   0.852   1.416
 4331TIP3    H112999   0.077   0.939   1.452
 4331TIP3    H213000   0.069   0.793   1.491
 4332TIP3   OH213001   5.851   2.957   4.217
 4332TIP3    H113002   5.786   3.027   4.219
 4332TIP3    H213003   5.862   2.932   4.309
 4333TIP3   OH213004   4.388   5.804   2.585
 4333TIP3    H113005   4.481   5.816   2.604
 4333TIP3    H213006   4.352   5.893   2.580
 4334TIP3   OH213007   5.811   0.059   1.267
 4334TIP3    H113008   5.836  -0.031   1.290
 4334TIP3    H213009   5.850   0.113   1.335
 4335TIP3   OH213010   5.617   5.199   2.580
 4335TIP3    H113011   5.614   5.111   2.619
 4335TIP3    H213012   5.599   5.184   2.487
 4336TIP3   OH213013   4.620   5.383   1.881
 4336TIP3    H113014   4.549   5.338   1.927
 4336TIP3    H213015   4.582   5.466   1.853
 4337TIP3   OH213016   3.844   3.954   0.150
 4337TIP3    H113017   3.904   3.948   0.075
 4337TIP3    H213018   3.863   3.876   0.202
 4338TIP3   OH213019   3.105   5.477   4.500
 4338TIP3    H113020   3.155   5.552   4.532
 4338TIP3    H213021   3.090   5.424   4.579
 4339TIP3   OH213022   2.967   3.016   0.231
 4339TIP3    H113023   2.985   2.931   0.270
 4339TIP3    H213024   2.911   2.998   0.156
 4340TIP3   OH213025   0.289   4.934   4.742
 4340TIP3    H113026   0.272   5.028   4.735
 4340TIP3    H213027   0.230   4.894   4.678
 4341TIP3   OH213028   5.328   0.500   2.366
 4341TIP3    H113029   5.421   0.503   2.386
 4341TIP3    H213030   5.323   0.452   2.283
 4342TIP3   OH213031   3.768   0.730   3.692
 4342TIP3    H113032   3.754   0.640   3.663
 4342TIP3    H213033   3.749   0.783   3.615
 4343TIP3   OH213034   2.255   2.758   2.041
 4343TIP3    H113035   2.241   2.675   1.995
 4343TIP3    H213036   2.246   2.825   1.974
 4344TIP3   OH213037   4.253   4.079   5.230
 4344TIP3    H113038   4.293   4.156   5.192
 4344TIP3    H213039   4.293   4.005   5.185
 4345TIP3   OH213040   0.441   1.509   2.558
 4345TIP3    H113041   0.531   1.477   2.561
 4345TIP3    H213042   0.405   1.487   2.644
 4346TIP3   OH213043   5.877   5.570   3.465
 4346TIP3    H113044   5.808   5.574   3.531
 4346TIP3    H213045   5.955   5.603   3.510
 4347TIP3   OH213046   1.640   4.602   3.861
 4347TIP3    H113047   1.599   4.688   3.875
 4347TIP3    H213048   1.575   4.539   3.892
 4348TIP3   OH213049   0.625   0.910   3.268
 4348TIP3    H113050   0.560   0.978   3.250
 4348TIP3    H213051   0.580   0.849   3.327
 4349TIP3   OH213052   3.832   0.495   1.949
 4349TIP3    H113053   3.771   0.514   2.020
 4349TIP3    H213054   3.782   0.438   1.890
 4350TIP3   OH213055   2.995   0.736   1.273
 4350TIP3    H113056   3.078   0.696   1.299
 4350TIP3    H213057   2.937   0.720   1.347
 4351TIP3   OH213058   1.105   3.887   1.875
 4351TIP3    H113059   1.047   3.877   1.799
 4351TIP3    H213060   1.163   3.960   1.851
 4352TIP3   OH213061   5.804   0.103   4.934
 4352TIP3    H113062   5.882   0.106   4.989
 4352TIP3    H213063   5.801   0.189   4.892
 4353TIP3   OH213064   3.413   3.375   0.306
 4353TIP3    H113065   3.351   3.305   0.328
 4353TIP3    H213066   3.367   3.456   0.331
 4354TIP3   OH213067   4.174   3.846   0.375
 4354TIP3    H113068   4.187   3.768   0.321
 4354TIP3    H213069   4.200   3.818   0.463
 4355TIP3   OH213070   3.988   0.470   4.469
 4355TIP3    H113071   4.046   0.398   4.444
 4355TIP3    H213072   4.043   0.548   4.463
 4356TIP3   OH213073   5.941   1.107   1.652
 4356TIP3    H113074   6.011   1.166   1.625
 4356TIP3    H213075   5.982   1.020   1.654
 4357TIP3   OH213076   0.172   3.432   0.820
 4357TIP3    H113077   0.084   3.394   0.822
 4357TIP3    H213078   0.229   3.360   0.792
 4358TIP3   OH213079   5.587   3.030   0.729
 4358TIP3    H113080   5.558   3.094   0.663
 4358TIP3    H213081   5.598   3.082   0.809
 4359TIP3   OH213082   5.770   0.932   3.764
 4359TIP3    H113083   5.831   0.860   3.746
 4359TIP3    H213084   5.685   0.899   3.734
 4360TIP3   OH213085   0.512   5.663   0.175
 4360TIP3    H113086   0.500   5.726   0.246
 4360TIP3    H213087   0.531   5.718   0.098
 4361TIP3   OH213088   6.064   0.336   4.189
 4361TIP3    H113089   6.147   0.380   4.211
 4361TIP3    H213090   6.016   0.333   4.272
 4362TIP3   OH213091   0.943   4.757   0.596
 4362TIP3    H113092   0.924   4.666   0.573
 4362TIP3    H213093   1.033   4.771   0.567
 4363TIP3   OH213094   0.170   4.703   4.014
 4363TIP3    H113095   0.135   4.687   3.927
 4363TIP3    H213096   0.213   4.788   4.008
 4364TIP3   OH213097   3.076   3.293   3.115
 4364TIP3    H113098   3.076   3.375   3.065
 4364TIP3    H213099   3.150   3.243   3.079
 4365TIP3   OH213100   0.505   0.480   3.558
 4365TIP3    H113101   0.568   0.528   3.504
 4365TIP3    H213102   0.425   0.532   3.554
 4366TIP3   OH213103   0.568   3.076   2.417
 4366TIP3    H113104   0.485   3.083   2.464
 4366TIP3    H213105   0.562   2.992   2.370
 4367TIP3   OH213106   6.332   5.585   1.903
 4367TIP3    H113107   6.262   5.522   1.923
 4367TIP3    H213108   6.308   5.620   1.817
 4368TIP3   OH213109   4.653   2.620   2.427
 4368TIP3    H113110   4.570   2.660   2.452
 4368TIP3    H213111   4.679   2.666   2.347
 4369TIP3   OH213112   6.246   5.221   3.956
 4369TIP3    H113113   6.291   5.242   4.038
 4369TIP3    H213114   6.304   5.160   3.911
 4370TIP3   OH213115   3.394   3.488   1.169
 4370TIP3    H113116   3.402   3.582   1.149
 4370TIP3    H213117   3.464   3.446   1.119
 4371TIP3   OH213118   1.387   2.458   4.216
 4371TIP3    H113119   1.336   2.426   4.290
 4371TIP3    H213120   1.467   2.493   4.255
 4372TIP3   OH213121   4.702   1.812   3.966
 4372TIP3    H113122   4.782   1.764   3.950
 4372TIP3    H213123   4.701   1.827   4.061
 4373TIP3   OH213124   2.810   3.538   2.061
 4373TIP3    H113125   2.760   3.601   2.009
 4373TIP3    H213126   2.869   3.592   2.114
 4374TIP3   OH213127   5.460   5.145   3.530
 4374TIP3    H113128   5.429   5.196   3.454
 4374TIP3    H213129   5.428   5.057   3.513
 4375TIP3   OH213130   5.906   3.247   0.465
 4375TIP3    H113131   5.994   3.264   0.432
 4375TIP3    H213132   5.854   3.232   0.386
 4376TIP3   OH213133   5.553   5.331   2.823
 4376TIP3    H113134   5.626   5.393   2.819
 4376TIP3    H213135   5.572   5.268   2.754
 4377TIP3   OH213136   0.582   4.381   1.003
 4377TIP3    H113137   0.573   4.442   1.077
 4377TIP3    H213138   0.496   4.382   0.961
 4378TIP3   OH213139   1.542   4.116   1.834
 4378TIP3    H113140   1.576   4.172   1.904
 4378TIP3    H213141   1.571   4.159   1.753
 4379TIP3   OH213142   0.686   1.060   0.638
 4379TIP3    H113143   0.752   1.116   0.678
 4379TIP3    H213144   0.686   1.086   0.546
 4380TIP3   OH213145   6.197   3.929   3.023
 4380TIP3    H113146   6.202   4.019   2.990
 4380TIP3    H213147   6.126   3.889   2.972
 4381TIP3   OH213148   0.967   1.054   3.002
 4381TIP3    H113149   1.032   1.118   3.030
 4381TIP3    H213150   0.958   0.995   3.077
 4382TIP3   OH213151   2.587   0.102   1.351
 4382TIP3    H113152   2.557   0.080   1.439
 4382TIP3    H213153   2.560   0.028   1.297
 4383TIP3   OH213154   4.340   5.807   1.958
 4383TIP3    H113155   4.283   5.875   1.922
 4383TIP3    H213156   4.327   5.732   1.901
 4384TIP3   OH213157   5.900   4.170   1.507
 4384TIP3    H113158   5.939   4.113   1.572
 4384TIP3    H213159   5.836   4.222   1.555
 4385TIP3   OH213160   5.070   3.432   2.273
 4385TIP3    H113161   5.111   3.508   2.315
 4385TIP3    H213162   5.009   3.469   2.210
 4386TIP3   OH213163   4.241   5.971   0.854
 4386TIP3    H113164   4.190   5.897   0.823
 4386TIP3    H213165   4.327   5.959   0.814
 4387TIP3   OH213166   0.667   1.146   3.668
 4387TIP3    H113167   0.612   1.213   3.629
 4387TIP3    H213168   0.746   1.145   3.613
 4388TIP3   OH213169   5.485   0.681   1.478
 4388TIP3    H113170   5.573   0.719   1.472
 4388TIP3    H213171   5.501   0.586   1.483
 4389TIP3   OH213172   3.982   0.406   2.794
 4389TIP3    H113173   4.007   0.400   2.701
 4389TIP3    H213174   3.891   0.437   2.791
 4390TIP3   OH213175   3.468   5.498   2.379
 4390TIP3    H113176   3.519   5.491   2.298
 4390TIP3    H213177   3.395   5.556   2.356
 4391TIP3   OH213178   0.551   3.966   4.402
 4391TIP3    H113179   0.471   3.935   4.444
 4391TIP3    H213180   0.522   4.030   4.337
 4392TIP3   OH213181   1.475   2.151   4.805
 4392TIP3    H113182   1.460   2.204   4.728
 4392TIP3    H213183   1.395   2.159   4.856
 4393TIP3   OH213184   2.756   4.123   0.493
 4393TIP3    H113185   2.844   4.159   0.481
 4393TIP3    H213186   2.769   4.028   0.491
 4394TIP3   OH213187   3.436   5.069   5.036
 4394TIP3    H113188   3.405   4.994   5.087
 4394TIP3    H213189   3.518   5.094   5.077
 4395TIP3   OH213190   4.759   0.392   2.778
 4395TIP3    H113191   4.729   0.352   2.697
 4395TIP3    H213192   4.703   0.354   2.846
 4396TIP3   OH213193   5.749   0.846   1.474
 4396TIP3    H113194   5.824   0.787   1.479
 4396TIP3    H213195   5.776   0.913   1.411
 4397TIP3   OH213196   1.609   4.135   5.001
 4397TIP3    H113197   1.648   4.059   4.957
 4397TIP3    H213198   1.606   4.109   5.094
 4398TIP3   OH213199   3.730   5.472   0.883
 4398TIP3    H113200   3.821   5.474   0.853
 4398TIP3    H213201   3.735   5.441   0.973
 4399TIP3   OH213202   0.052   4.200   3.604
 4399TIP3    H113203  -0.033   4.233   3.631
 4399TIP3    H213204   0.110   4.219   3.678
 4400TIP3   OH213205   5.769   5.454   2.179
 4400TIP3    H113206   5.858   5.442   2.211
 4400TIP3    H213207   5.767   5.543   2.145
 4401TIP3   OH213208   0.732   2.021   3.774
 4401TIP3    H113209   0.714   2.111   3.749
 4401TIP3    H213210   0.791   2.027   3.849
 4402TIP3   OH213211   6.350   0.374   1.036
 4402TIP3    H113212   6.298   0.358   1.115
 4402TIP3    H213213   6.301   0.439   0.987
 4403TIP3   OH213214   1.552   3.520   0.731
 4403TIP3    H113215   1.528   3.461   0.660
 4403TIP3    H213216   1.572   3.603   0.688
 4404TIP3   OH213217   0.611   2.769   3.464
 4404TIP3    H113218   0.662   2.704   3.416
 4404TIP3    H213219   0.623   2.851   3.415
 4405TIP3   OH213220   5.219   5.648   5.194
 4405TIP3    H113221   5.163   5.597   5.252
 4405TIP3    H213222   5.204   5.611   5.107
 4406TIP3   OH213223   3.274   0.943   3.991
 4406TIP3    H113224   3.190   0.897   3.994
 4406TIP3    H213225   3.333   0.887   4.042
 4407TIP3   OH213226   1.641   1.684   3.229
 4407TIP3    H113227   1.641   1.676   3.134
 4407TIP3    H213228   1.733   1.694   3.252
 4408TIP3   OH213229   4.215   5.469   0.261
 4408TIP3    H113230   4.194   5.558   0.234
 4408TIP3    H213231   4.274   5.436   0.194
 4409TIP3   OH213232   4.198   5.482   4.121
 4409TIP3    H113233   4.219   5.410   4.180
 4409TIP3    H213234   4.122   5.452   4.072
 4410TIP3   OH213235   5.330   4.788   3.944
 4410TIP3    H113236   5.364   4.850   3.879
 4410TIP3    H213237   5.235   4.794   3.936
 4411TIP3   OH213238   5.544   4.367   3.916
 4411TIP3    H113239   5.525   4.396   3.827
 4411TIP3    H213240   5.457   4.354   3.955
 4412TIP3   OH213241   0.380   2.954   1.465
 4412TIP3    H113242   0.399   2.999   1.547
 4412TIP3    H213243   0.456   2.973   1.410
 4413TIP3   OH213244   6.190   1.927   0.835
 4413TIP3    H113245   6.240   1.942   0.916
 4413TIP3    H213246   6.101   1.955   0.856
 4414TIP3   OH213247   2.965   3.742   2.531
 4414TIP3    H113248   2.928   3.657   2.508
 4414TIP3    H213249   3.053   3.741   2.494
 4415TIP3   OH213250   5.549   3.204   0.492
 4415TIP3    H113251   5.457   3.208   0.468
 4415TIP3    H213252   5.592   3.162   0.418
 4416TIP3   OH213253   3.532   2.339   2.822
 4416TIP3    H113254   3.612   2.372   2.781
 4416TIP3    H213255   3.475   2.314   2.749
 4417TIP3   OH213256   5.401   3.541   0.641
 4417TIP3    H113257   5.492   3.514   0.628
 4417TIP3    H213258   5.391   3.620   0.589
 4418TIP3   OH213259   3.519   0.901   1.749
 4418TIP3    H113260   3.454   0.878   1.683
 4418TIP3    H213261   3.494   0.851   1.826
 4419TIP3   OH213262   1.921   1.778   2.826
 4419TIP3    H113263   1.988   1.809   2.887
 4419TIP3    H213264   1.839   1.813   2.861
 4420TIP3   OH213265   2.024   1.164   2.150
 4420TIP3    H113266   2.061   1.253   2.145
 4420TIP3    H213267   2.091   1.108   2.110
 4421TIP3   OH213268   3.122   0.034   2.622
 4421TIP3    H113269   3.087   0.008   2.537
 4421TIP3    H213270   3.061   0.100   2.655
 4422TIP3   OH213271   5.609   2.939   1.091
 4422TIP3    H113272   5.593   3.006   1.025
 4422TIP3    H213273   5.701   2.950   1.115
 4423TIP3   OH213274   5.122   1.100   2.241
 4423TIP3    H113275   5.158   1.124   2.155
 4423TIP3    H213276   5.076   1.178   2.271
 4424TIP3   OH213277   1.341   2.675   0.991
 4424TIP3    H113278   1.331   2.645   0.901
 4424TIP3    H213279   1.397   2.752   0.985
 4425TIP3   OH213280   6.122   3.295   3.480
 4425TIP3    H113281   6.044   3.242   3.463
 4425TIP3    H213282   6.171   3.246   3.546
 4426TIP3   OH213283   1.869   3.010   1.263
 4426TIP3    H113284   1.878   3.056   1.180
 4426TIP3    H213285   1.958   2.982   1.284
 4427TIP3   OH213286   5.203   5.783   4.501
 4427TIP3    H113287   5.141   5.720   4.538
 4427TIP3    H213288   5.245   5.823   4.577
 4428TIP3   OH213289   4.190   5.674   2.729
 4428TIP3    H113290   4.117   5.665   2.668
 4428TIP3    H213291   4.263   5.707   2.676
 4429TIP3   OH213292   0.216   5.192   4.343
 4429TIP3    H113293   0.269   5.113   4.344
 4429TIP3    H213294   0.197   5.210   4.435
 4430TIP3   OH213295   2.044   3.669   1.551
 4430TIP3    H113296   1.999   3.732   1.608
 4430TIP3    H213297   1.974   3.620   1.510
 4431TIP3   OH213298   2.105   1.950   0.928
 4431TIP3    H113299   2.059   1.868   0.911
 4431TIP3    H213300   2.143   1.940   1.016
 4432TIP3   OH213301   1.939   2.227   5.116
 4432TIP3    H113302   1.903   2.306   5.156
 4432TIP3    H213303   1.864   2.169   5.105
 4433TIP3   OH213304   5.888   2.307   1.283
 4433TIP3    H113305   5.808   2.305   1.231
 4433TIP3    H213306   5.887   2.224   1.331
 4434TIP3   OH213307   0.302   2.038   4.292
 4434TIP3    H113308   0.260   2.095   4.357
 4434TIP3    H213309   0.380   2.005   4.336
 4435TIP3   OH213310   1.351   5.954   2.600
 4435TIP3    H113311   1.271   5.914   2.565
 4435TIP3    H213312   1.418   5.931   2.536
 4436TIP3   OH213313   4.251   0.370   2.164
 4436TIP3    H113314   4.239   0.333   2.076
 4436TIP3    H213315   4.251   0.464   2.150
 4437TIP3   OH213316   5.497   2.368   5.162
 4437TIP3    H113317   5.543   2.388   5.080
 4437TIP3    H213318   5.530   2.434   5.224
 4438TIP3   OH213319   2.004   3.419   2.392
 4438TIP3    H113320   1.947   3.495   2.386
 4438TIP3    H213321   2.008   3.385   2.303
 4439TIP3   OH213322   3.861   3.907   1.004
 4439TIP3    H113323   3.865   3.976   1.071
 4439TIP3    H213324   3.786   3.931   0.950
 4440TIP3   OH213325   3.042   2.231   3.744
 4440TIP3    H113326   3.085   2.270   3.668
 4440TIP3    H213327   3.110   2.177   3.785
 4441TIP3   OH213328   2.455   5.296   4.028
 4441TIP3    H113329   2.414   5.320   4.111
 4441TIP3    H213330   2.430   5.366   3.968
 4442TIP3   OH213331   2.482   5.649   2.115
 4442TIP3    H113332   2.518   5.677   2.031
 4442TIP3    H213333   2.409   5.708   2.132
 4443TIP3   OH213334   5.315   2.619   2.817
 4443TIP3    H113335   5.396   2.620   2.867
 4443TIP3    H213336   5.256   2.676   2.866
 4444TIP3   OH213337   4.327   0.728   4.319
 4444TIP3    H113338   4.329   0.806   4.264
 4444TIP3    H213339   4.395   0.671   4.283
 4445TIP3   OH213340   0.309   1.343   1.249
 4445TIP3    H113341   0.350   1.314   1.330
 4445TIP3    H213342   0.369   1.313   1.180
 4446TIP3   OH213343   1.308   4.021   3.845
 4446TIP3    H113344   1.217   4.017   3.874
 4446TIP3    H213345   1.331   3.930   3.828
 4447TIP3   OH213346   1.149   4.914   2.595
 4447TIP3    H113347   1.230   4.903   2.546
 4447TIP3    H213348   1.146   4.839   2.654
 4448TIP3   OH213349   5.440   2.567   1.620
 4448TIP3    H113350   5.483   2.520   1.691
 4448TIP3    H213351   5.393   2.638   1.663
 4449TIP3   OH213352   4.175   5.397   2.142
 4449TIP3    H113353   4.225   5.464   2.096
 4449TIP3    H213354   4.172   5.428   2.233
 4450TIP3   OH213355   3.958   5.703   2.883
 4450TIP3    H113356   4.049   5.713   2.856
 4450TIP3    H213357   3.922   5.792   2.878
 4451TIP3   OH213358   1.503   4.750   4.133
 4451TIP3    H113359   1.578   4.692   4.141
 4451TIP3    H213360   1.472   4.762   4.223
 4452TIP3   OH213361   2.655   0.579   0.240
 4452TIP3    H113362   2.591   0.527   0.193
 4452TIP3    H213363   2.603   0.627   0.305
 4453TIP3   OH213364   5.284   4.989   2.281
 4453TIP3    H113365   5.243   5.069   2.316
 4453TIP3    H213366   5.213   4.944   2.235
 4454TIP3   OH213367   6.265   0.042   2.878
 4454TIP3    H113368   6.341  -0.017   2.876
 4454TIP3    H213369   6.294   0.120   2.830
 4455TIP3   OH213370   2.274   4.902   0.122
 4455TIP3    H113371   2.255   4.919   0.214
 4455TIP3    H213372   2.213   4.832   0.098
 4456TIP3   OH213373   2.071   1.064   0.688
 4456TIP3    H113374   2.102   0.974   0.680
 4456TIP3    H213375   2.034   1.084   0.601
 4457TIP3   OH213376   1.706   2.711   2.684
 4457TIP3    H113377   1.701   2.789   2.630
 4457TIP3    H213378   1.799   2.706   2.710
 4458TIP3   OH213379   1.835   5.435   1.326
 4458TIP3    H113380   1.852   5.460   1.417
 4458TIP3    H213381   1.921   5.410   1.291
 4459TIP3   OH213382   4.623   4.904   2.982
 4459TIP3    H113383   4.603   4.842   3.052
 4459TIP3    H213384   4.680   4.855   2.922
 4460TIP3   OH213385   4.672   0.454   3.978
 4460TIP3    H113386   4.722   0.431   3.900
 4460TIP3    H213387   4.593   0.497   3.945
 4461TIP3   OH213388   3.134   4.599   4.279
 4461TIP3    H113389   3.123   4.505   4.296
 4461TIP3    H213390   3.226   4.608   4.255
 4462TIP3   OH213391   2.963   2.684   3.232
 4462TIP3    H113392   2.904   2.740   3.282
 4462TIP3    H213393   2.906   2.632   3.176
 4463TIP3   OH213394   2.709   0.014   3.403
 4463TIP3    H113395   2.738   0.103   3.384
 4463TIP3    H213396   2.617   0.013   3.376
 4464TIP3   OH213397   1.450   3.455   3.855
 4464TIP3    H113398   1.434   3.522   3.923
 4464TIP3    H213399   1.385   3.387   3.873
 4465TIP3   OH213400   6.189   0.779   2.631
 4465TIP3    H113401   6.196   0.761   2.725
 4465TIP3    H213402   6.273   0.753   2.595
 4466TIP3   OH213403   5.090   4.489   4.984
 4466TIP3    H113404   5.026   4.431   5.025
 4466TIP3    H213405   5.107   4.450   4.898
 4467TIP3   OH213406   5.842   0.973   5.010
 4467TIP3    H113407   5.794   0.923   5.075
 4467TIP3    H213408   5.803   1.060   5.013
 4468TIP3   OH213409   4.322   2.405   1.813
 4468TIP3    H113410   4.287   2.452   1.737
 4468TIP3    H213411   4.294   2.457   1.888
 4469TIP3   OH213412   5.903   5.102   2.853
 4469TIP3    H113413   5.927   5.010   2.855
 4469TIP3    H213414   5.961   5.141   2.788
 4470TIP3   OH213415   1.908   1.309   3.910
 4470TIP3    H113416   1.834   1.346   3.861
 4470TIP3    H213417   1.872   1.231   3.952
 4471TIP3   OH213418   2.070   2.853   2.857
 4471TIP3    H113419   2.046   2.763   2.833
 4471TIP3    H213420   2.020   2.908   2.797
 4472TIP3   OH213421   3.421   0.422   2.838
 4472TIP3    H113422   3.499   0.476   2.851
 4472TIP3    H213423   3.446   0.361   2.769
 4473TIP3   OH213424   0.939   0.572   3.647
 4473TIP3    H113425   0.947   0.636   3.718
 4473TIP3    H213426   1.028   0.564   3.613
 4474TIP3   OH213427   1.719   3.637   3.542
 4474TIP3    H113428   1.692   3.703   3.479
 4474TIP3    H213429   1.726   3.556   3.491
 4475TIP3   OH213430   5.501   5.657   5.208
 4475TIP3    H113431   5.410   5.631   5.190
 4475TIP3    H213432   5.554   5.584   5.175
 4476TIP3   OH213433   1.642   0.108   4.667
 4476TIP3    H113434   1.548   0.103   4.650
 4476TIP3    H213435   1.683   0.092   4.582
 4477TIP3   OH213436   6.135   1.059   4.578
 4477TIP3    H113437   6.090   1.053   4.662
 4477TIP3    H213438   6.173   0.972   4.565
 4478TIP3   OH213439   4.672   3.174   1.376
 4478TIP3    H113440   4.752   3.129   1.349
 4478TIP3    H213441   4.622   3.107   1.423
 4479TIP3   OH213442   6.206   5.909   4.109
 4479TIP3    H113443   6.292   5.899   4.067
 4479TIP3    H213444   6.152   5.953   4.043
 4480TIP3   OH213445   3.036   6.021   5.120
 4480TIP3    H113446   3.123   6.032   5.081
 4480TIP3    H213447   3.045   5.945   5.177
 4481TIP3   OH213448   3.204   0.589   2.591
 4481TIP3    H113449   3.232   0.620   2.677
 4481TIP3    H213450   3.248   0.504   2.581
 4482TIP3   OH213451   5.940   3.001   3.001
 4482TIP3    H113452   6.000   3.055   3.053
 4482TIP3    H213453   5.931   2.920   3.051
 4483TIP3   OH213454   5.808   5.386   2.690
 4483TIP3    H113455   5.901   5.380   2.671
 4483TIP3    H213456   5.770   5.307   2.651
 4484TIP3   OH213457   4.299   4.935   4.052
 4484TIP3    H113458   4.394   4.938   4.036
 4484TIP3    H213459   4.260   4.970   3.972
 4485TIP3   OH213460   5.251   3.327   0.735
 4485TIP3    H113461   5.278   3.243   0.697
 4485TIP3    H213462   5.302   3.392   0.687
 4486TIP3   OH213463   2.888   1.556   0.100
 4486TIP3    H113464   2.969   1.595   0.067
 4486TIP3    H213465   2.916   1.476   0.143
 4487TIP3   OH213466   3.553   3.042   1.635
 4487TIP3    H113467   3.526   3.120   1.587
 4487TIP3    H213468   3.641   3.023   1.601
 4488TIP3   OH213469   5.194   4.161   2.848
 4488TIP3    H113470   5.260   4.197   2.907
 4488TIP3    H213471   5.182   4.228   2.781
 4489TIP3   OH213472   4.221   1.247   4.325
 4489TIP3    H113473   4.153   1.285   4.268
 4489TIP3    H213474   4.302   1.288   4.296
 4490TIP3   OH213475   5.910   1.158   4.395
 4490TIP3    H113476   5.848   1.228   4.416
 4490TIP3    H213477   5.958   1.143   4.477
 4491TIP3   OH213478   0.951   3.195   1.779
 4491TIP3    H113479   0.923   3.243   1.857
 4491TIP3    H213480   0.905   3.238   1.707
 4492TIP3   OH213481   3.786   4.550   3.555
 4492TIP3    H113482   3.745   4.468   3.529
 4492TIP3    H213483   3.774   4.607   3.478
 4493TIP3   OH213484   0.629   5.581   3.227
 4493TIP3    H113485   0.646   5.594   3.320
 4493TIP3    H213486   0.644   5.667   3.188
 4494TIP3   OH213487   4.808   2.106   3.558
 4494TIP3    H113488   4.873   2.072   3.497
 4494TIP3    H213489   4.827   2.062   3.641
 4495TIP3   OH213490   4.257   1.348   3.962
 4495TIP3    H113491   4.243   1.428   3.912
 4495TIP3    H213492   4.180   1.342   4.020
 4496TIP3   OH213493   4.518   2.965   1.166
 4496TIP3    H113494   4.475   2.998   1.087
 4496TIP3    H213495   4.580   3.034   1.190
 4497TIP3   OH213496   2.762   4.948   1.278
 4497TIP3    H113497   2.822   5.017   1.305
 4497TIP3    H213498   2.677   4.991   1.272
 4498TIP3   OH213499   3.941   4.547   1.128
 4498TIP3    H113500   3.847   4.535   1.115
 4498TIP3    H213501   3.962   4.487   1.200
 4499TIP3   OH213502   3.567   2.712   3.490
 4499TIP3    H113503   3.600   2.739   3.404
 4499TIP3    H213504   3.642   2.720   3.548
 4500TIP3   OH213505   0.900   0.517   1.577
 4500TIP3    H113506   0.804   0.509   1.580
 4500TIP3    H213507   0.920   0.592   1.632
 4501TIP3   OH213508   2.973   5.827   0.166
 4501TIP3    H113509   3.028   5.795   0.237
 4501TIP3    H213510   2.894   5.860   0.210
 4502TIP3   OH213511   0.746   3.963   3.379
 4502TIP3    H113512   0.746   3.889   3.319
 4502TIP3    H213513   0.789   4.033   3.330
 4503TIP3   OH213514   2.168   4.108   5.118
 4503TIP3    H113515   2.076   4.134   5.128
 4503TIP3    H213516   2.214   4.162   5.182
 4504TIP3   OH213517   5.903   2.622   4.503
 4504TIP3    H113518   5.868   2.577   4.426
 4504TIP3    H213519   5.993   2.643   4.480
 4505TIP3   OH213520   6.259   3.156   2.907
 4505TIP3    H113521   6.345   3.115   2.907
 4505TIP3    H213522   6.241   3.172   3.000
 4506TIP3   OH213523   3.983   1.143   3.919
 4506TIP3    H113524   3.917   1.141   3.850
 4506TIP3    H213525   4.052   1.085   3.888
 4507TIP3   OH213526   6.212   4.179   2.907
 4507TIP3    H113527   6.292   4.213   2.866
 4507TIP3    H213528   6.160   4.257   2.926
 4508TIP3   OH213529   3.540   1.693   5.043
 4508TIP3    H113530   3.475   1.623   5.054
 4508TIP3    H213531   3.505   1.765   5.096
 4509TIP3   OH213532   1.682   4.149   0.668
 4509TIP3    H113533   1.732   4.109   0.739
 4509TIP3    H213534   1.748   4.181   0.607
 4510TIP3   OH213535   2.659   4.793   2.475
 4510TIP3    H113536   2.595   4.829   2.536
 4510TIP3    H213537   2.678   4.705   2.507
 4511TIP3   OH213538   4.776   2.525   0.840
 4511TIP3    H113539   4.843   2.580   0.879
 4511TIP3    H213540   4.777   2.445   0.893
 4512TIP3   OH213541   5.399   4.821   4.425
 4512TIP3    H113542   5.454   4.882   4.376
 4512TIP3    H213543   5.461   4.772   4.479
 4513TIP3   OH213544   2.381   2.767   0.749
 4513TIP3    H113545   2.398   2.729   0.663
 4513TIP3    H213546   2.368   2.860   0.732
 4514TIP3   OH213547   0.589   5.033   3.481
 4514TIP3    H113548   0.546   5.044   3.566
 4514TIP3    H213549   0.533   5.080   3.420
 4515TIP3   OH213550   5.518   1.130   1.023
 4515TIP3    H113551   5.526   1.096   1.112
 4515TIP3    H213552   5.512   1.051   0.968
 4516TIP3   OH213553   2.830   1.192   4.139
 4516TIP3    H113554   2.832   1.218   4.231
 4516TIP3    H213555   2.920   1.203   4.109
 4517TIP3   OH213556   4.419   3.893   1.651
 4517TIP3    H113557   4.505   3.852   1.641
 4517TIP3    H213558   4.431   3.958   1.721
 4518TIP3   OH213559   4.355   0.573   0.937
 4518TIP3    H113560   4.301   0.640   0.980
 4518TIP3    H213561   4.424   0.623   0.892
 4519TIP3   OH213562   4.413   4.568   4.017
 4519TIP3    H113563   4.346   4.598   3.955
 4519TIP3    H213564   4.396   4.621   4.096
 4520TIP3   OH213565   5.139   5.933   0.820
 4520TIP3    H113566   5.148   6.026   0.797
 4520TIP3    H213567   5.223   5.910   0.860
 4521TIP3   OH213568   3.020   2.594   1.161
 4521TIP3    H113569   2.986   2.599   1.072
 4521TIP3    H213570   3.051   2.504   1.169
 4522TIP3   OH213571   0.001   5.285   3.497
 4522TIP3    H113572  -0.077   5.293   3.442
 4522TIP3    H213573   0.066   5.244   3.440
 4523TIP3   OH213574   3.396   3.183   5.104
 4523TIP3    H113575   3.374   3.090   5.100
 4523TIP3    H213576   3.383   3.215   5.015
 4524TIP3   OH213577   0.202   0.951   0.518
 4524TIP3    H113578   0.140   0.895   0.564
 4524TIP3    H213579   0.268   0.973   0.583
 4525TIP3   OH213580   0.855   0.183   0.228
 4525TIP3    H113581   0.821   0.241   0.296
 4525TIP3    H213582   0.818   0.097   0.250
 4526TIP3   OH213583   5.696   5.764   4.355
 4526TIP3    H113584   5.688   5.817   4.276
 4526TIP3    H213585   5.677   5.824   4.427
 4527TIP3   OH213586   2.547   1.415   3.395
 4527TIP3    H113587   2.476   1.449   3.340
 4527TIP3    H213588   2.598   1.492   3.418
 4528TIP3   OH213589   4.563   2.042   0.420
 4528TIP3    H113590   4.651   2.016   0.392
 4528TIP3    H213591   4.577   2.109   0.486
 4529TIP3   OH213592   4.275   2.910   4.399
 4529TIP3    H113593   4.266   2.883   4.308
 4529TIP3    H213594   4.324   2.838   4.441
 4530TIP3   OH213595   6.107   5.849   1.193
 4530TIP3    H113596   6.012   5.846   1.205
 4530TIP3    H213597   6.120   5.854   1.099
 4531TIP3   OH213598   5.949   3.448   1.058
 4531TIP3    H113599   5.857   3.439   1.033
 4531TIP3    H213600   5.996   3.387   1.000
 4532TIP3   OH213601   0.642   4.958   1.541
 4532TIP3    H113602   0.736   4.943   1.533
 4532TIP3    H213603   0.629   5.047   1.507
 4533TIP3   OH213604   5.154   0.930   3.765
 4533TIP3    H113605   5.188   0.906   3.679
 4533TIP3    H213606   5.170   1.024   3.772
 4534TIP3   OH213607   0.837   4.000   2.316
 4534TIP3    H113608   0.840   3.907   2.291
 4534TIP3    H213609   0.820   3.999   2.410
 4535TIP3   OH213610   5.101   1.933   3.743
 4535TIP3    H113611   5.102   1.936   3.647
 4535TIP3    H213612   5.011   1.952   3.767
 4536TIP3   OH213613   2.975   1.834   2.999
 4536TIP3    H113614   2.974   1.739   3.011
 4536TIP3    H213615   2.935   1.848   2.914
 4537TIP3   OH213616   1.657   0.564   0.799
 4537TIP3    H113617   1.609   0.623   0.857
 4537TIP3    H213618   1.592   0.534   0.735
 4538TIP3   OH213619   3.979   4.490   1.769
 4538TIP3    H113620   4.003   4.565   1.823
 4538TIP3    H213621   3.957   4.528   1.684
 4539TIP3   OH213622   2.579   3.808   0.978
 4539TIP3    H113623   2.608   3.882   0.925
 4539TIP3    H213624   2.656   3.752   0.985
 4540TIP3   OH213625   0.115   3.916   1.018
 4540TIP3    H113626   0.138   3.854   1.087
 4540TIP3    H213627   0.178   3.899   0.948
 4541TIP3   OH213628   5.754   2.632   0.058
 4541TIP3    H113629   5.738   2.629  -0.037
 4541TIP3    H213630   5.691   2.697   0.090
 4542TIP3   OH213631   6.403   3.517   1.650
 4542TIP3    H113632   6.384   3.512   1.744
 4542TIP3    H213633   6.320   3.544   1.611
 4543TIP3   OH213634   1.836   4.561   2.557
 4543TIP3    H113635   1.869   4.578   2.646
 4543TIP3    H213636   1.782   4.637   2.537
 4544TIP3   OH213637   2.631   2.880   1.168
 4544TIP3    H113638   2.586   2.905   1.087
 4544TIP3    H213639   2.633   2.784   1.166
 4545TIP3   OH213640   0.971   0.200   2.551
 4545TIP3    H113641   0.999   0.292   2.554
 4545TIP3    H213642   1.052   0.151   2.541
 4546TIP3   OH213643   6.197   5.958   4.665
 4546TIP3    H113644   6.194   5.941   4.759
 4546TIP3    H213645   6.109   5.934   4.634
 4547TIP3   OH213646   2.987   0.314   2.401
 4547TIP3    H113647   2.912   0.343   2.454
 4547TIP3    H213648   2.955   0.235   2.357
 4548TIP3   OH213649   4.966   1.913   4.382
 4548TIP3    H113650   4.970   1.892   4.475
 4548TIP3    H213651   5.058   1.914   4.354
 4549TIP3   OH213652   2.221   4.657   2.776
 4549TIP3    H113653   2.208   4.562   2.783
 4549TIP3    H213654   2.315   4.666   2.760
 4550TIP3   OH213655   4.658   2.020   1.825
 4550TIP3    H113656   4.649   2.113   1.802
 4550TIP3    H213657   4.679   2.020   1.918
 4551TIP3   OH213658   2.895   5.225   0.356
 4551TIP3    H113659   2.866   5.287   0.289
 4551TIP3    H213660   2.838   5.243   0.431
 4552TIP3   OH213661   1.673   1.856   3.839
 4552TIP3    H113662   1.661   1.930   3.898
 4552TIP3    H213663   1.620   1.878   3.763
 4553TIP3   OH213664   4.539   2.184   1.067
 4553TIP3    H113665   4.456   2.232   1.066
 4553TIP3    H213666   4.564   2.180   1.159
 4554TIP3   OH213667   5.710   5.824   3.488
 4554TIP3    H113668   5.682   5.762   3.555
 4554TIP3    H213669   5.653   5.807   3.413
 4555TIP3   OH213670   4.186   2.138   0.323
 4555TIP3    H113671   4.178   2.100   0.236
 4555TIP3    H213672   4.239   2.217   0.310
 4556TIP3   OH213673   5.977   1.224   2.493
 4556TIP3    H113674   6.028   1.216   2.412
 4556TIP3    H213675   5.886   1.221   2.464
 4557TIP3   OH213676   2.344   4.452   2.125
 4557TIP3    H113677   2.375   4.542   2.109
 4557TIP3    H213678   2.407   4.397   2.078
 4558TIP3   OH213679   4.560   2.261   1.753
 4558TIP3    H113680   4.594   2.287   1.668
 4558TIP3    H213681   4.473   2.301   1.758
 4559TIP3   OH213682   1.508   3.931   1.284
 4559TIP3    H113683   1.417   3.910   1.301
 4559TIP3    H213684   1.516   4.024   1.304
 4560TIP3   OH213685   5.267   1.871   0.842
 4560TIP3    H113686   5.186   1.851   0.796
 4560TIP3    H213687   5.239   1.892   0.931
 4561TIP3   OH213688   0.414   1.791   1.739
 4561TIP3    H113689   0.372   1.720   1.787
 4561TIP3    H213690   0.507   1.772   1.743
 4562TIP3   OH213691   3.224   0.460   3.159
 4562TIP3    H113692   3.218   0.398   3.087
 4562TIP3    H213693   3.315   0.456   3.187
 4563TIP3   OH213694   2.851   4.868   1.898
 4563TIP3    H113695   2.892   4.954   1.889
 4563TIP3    H213696   2.922   4.808   1.918
 4564TIP3   OH213697   4.835   1.776   2.878
 4564TIP3    H113698   4.791   1.833   2.815
 4564TIP3    H213699   4.870   1.836   2.944
 4565TIP3   OH213700   5.778   0.325   1.792
 4565TIP3    H113701   5.804   0.382   1.719
 4565TIP3    H213702   5.683   0.319   1.785
 4566TIP3   OH213703   2.907   1.908   3.646
 4566TIP3    H113704   2.880   1.853   3.720
 4566TIP3    H213705   2.994   1.938   3.668
 4567TIP3   OH213706   1.775   0.168   4.421
 4567TIP3    H113707   1.785   0.191   4.328
 4567TIP3    H213708   1.864   0.148   4.450
 4568TIP3   OH213709   3.837   1.208   1.262
 4568TIP3    H113710   3.760   1.167   1.223
 4568TIP3    H213711   3.830   1.300   1.237
 4569TIP3   OH213712   4.904   2.197   2.987
 4569TIP3    H113713   4.949   2.281   2.990
 4569TIP3    H213714   4.893   2.179   2.893
 4570TIP3   OH213715   3.347   0.859   3.309
 4570TIP3    H113716   3.268   0.869   3.362
 4570TIP3    H213717   3.397   0.789   3.354
 4571TIP3   OH213718   2.334   1.265   2.914
 4571TIP3    H113719   2.326   1.242   2.822
 4571TIP3    H213720   2.245   1.284   2.942
 4572TIP3   OH213721   1.196   3.780   3.279
 4572TIP3    H113722   1.184   3.875   3.276
 4572TIP3    H213723   1.108   3.745   3.267
 4573TIP3   OH213724   2.578   5.529   0.089
 4573TIP3    H113725   2.556   5.616   0.124
 4573TIP3    H213726   2.660   5.542   0.041
 4574TIP3   OH213727   0.257   3.940   3.951
 4574TIP3    H113728   0.349   3.938   3.926
 4574TIP3    H213729   0.213   3.882   3.889
 4575TIP3   OH213730   2.365   5.135   3.744
 4575TIP3    H113731   2.345   5.217   3.788
 4575TIP3    H213732   2.288   5.116   3.692
 4576TIP3   OH213733   6.289   1.259   1.138
 4576TIP3    H113734   6.246   1.266   1.053
 4576TIP3    H213735   6.345   1.181   1.130
 4577TIP3   OH213736   5.532   1.853   4.535
 4577TIP3    H113737   5.549   1.947   4.529
 4577TIP3    H213738   5.573   1.815   4.457
 4578TIP3   OH213739   1.562   4.831   3.370
 4578TIP3    H113740   1.604   4.778   3.437
 4578TIP3    H213741   1.623   4.830   3.296
 4579TIP3   OH213742   4.176   3.912   2.347
 4579TIP3    H113743   4.168   3.949   2.259
 4579TIP3    H213744   4.151   3.984   2.405
 4580TIP3   OH213745   4.503   1.107   2.762
 4580TIP3    H113746   4.524   1.077   2.673
 4580TIP3    H213747   4.425   1.162   2.751
 4581TIP3   OH213748   2.241   1.774   2.882
 4581TIP3    H113749   2.300   1.769   2.806
 4581TIP3    H213750   2.230   1.868   2.897
 4582TIP3   OH213751   3.307   0.598   0.018
 4582TIP3    H113752   3.220   0.574   0.050
 4582TIP3    H213753   3.340   0.661   0.081
 4583TIP3   OH213754   3.339   2.784   2.187
 4583TIP3    H113755   3.259   2.834   2.169
 4583TIP3    H213756   3.308   2.700   2.221
 4584TIP3   OH213757   3.021   2.581   1.541
 4584TIP3    H113758   2.979   2.642   1.480
 4584TIP3    H213759   3.114   2.591   1.524
 4585TIP3   OH213760   0.780   0.007   2.255
 4585TIP3    H113761   0.780   0.035   2.346
 4585TIP3    H213762   0.772   0.087   2.204
 4586TIP3   OH213763   1.013   5.710   2.894
 4586TIP3    H113764   0.982   5.678   2.979
 4586TIP3    H213765   0.958   5.666   2.830
 4587TIP3   OH213766   5.076   0.875   1.098
 4587TIP3    H113767   5.014   0.893   1.168
 4587TIP3    H213768   5.143   0.819   1.138
 4588TIP3   OH213769   4.943   4.597   2.640
 4588TIP3    H113770   4.962   4.676   2.589
 4588TIP3    H213771   4.878   4.550   2.587
 4589TIP3   OH213772   3.946   1.040   0.158
 4589TIP3    H113773   3.892   0.961   0.150
 4589TIP3    H213774   4.035   1.010   0.138
 4590TIP3   OH213775   5.311   3.116   1.884
 4590TIP3    H113776   5.217   3.126   1.867
 4590TIP3    H213777   5.349   3.102   1.797
 4591TIP3   OH213778   2.040   5.352   2.905
 4591TIP3    H113779   2.029   5.298   2.984
 4591TIP3    H213780   1.963   5.409   2.904
 4592TIP3   OH213781   0.605   4.492   3.936
 4592TIP3    H113782   0.646   4.458   3.856
 4592TIP3    H213783   0.617   4.587   3.930
 4593TIP3   OH213784   0.751   0.658   4.387
 4593TIP3    H113785   0.810   0.732   4.397
 4593TIP3    H213786   0.716   0.642   4.474
 4594TIP3   OH213787   2.845   1.864   3.932
 4594TIP3    H113788   2.863   1.955   3.907
 4594TIP3    H213789   2.772   1.871   3.994
 4595TIP3   OH213790   1.717   5.656   2.566
 4595TIP3    H113791   1.768   5.580   2.539
 4595TIP3    H213792   1.668   5.626   2.642
 4596TIP3   OH213793   3.551   1.091   3.419
 4596TIP3    H113794   3.555   1.134   3.504
 4596TIP3    H213795   3.495   1.014   3.433
 4597TIP3   OH213796   4.093   2.670   3.449
 4597TIP3    H113797   4.144   2.747   3.474
 4597TIP3    H213798   4.115   2.604   3.514
 4598TIP3   OH213799   2.322   2.449   4.477
 4598TIP3    H113800   2.388   2.516   4.489
 4598TIP3    H213801   2.239   2.496   4.480
 4599TIP3   OH213802   5.978   0.695   1.507
 4599TIP3    H113803   6.030   0.745   1.569
 4599TIP3    H213804   6.041   0.659   1.445
 4600TIP3   OH213805   4.612   4.540   3.835
 4600TIP3    H113806   4.549   4.543   3.907
 4600TIP3    H213807   4.569   4.488   3.767
 4601TIP3   OH213808   3.294   1.072   4.708
 4601TIP3    H113809   3.356   1.066   4.636
 4601TIP3    H213810   3.211   1.093   4.666
 4602TIP3   OH213811   4.441   4.331   1.921
 4602TIP3    H113812   4.506   4.355   1.854
 4602TIP3    H213813   4.368   4.391   1.907
 4603TIP3   OH213814   4.964   2.383   4.045
 4603TIP3    H113815   4.964   2.370   3.950
 4603TIP3    H213816   4.873   2.401   4.066
 4604TIP3   OH213817   5.986   2.654   5.201
 4604TIP3    H113818   6.033   2.661   5.118
 4604TIP3    H213819   5.958   2.743   5.220
 4605TIP3   OH213820   2.271   1.242   0.335
 4605TIP3    H113821   2.304   1.274   0.419
 4605TIP3    H213822   2.293   1.311   0.273
 4606TIP3   OH213823   1.121   2.383   2.754
 4606TIP3    H113824   1.184   2.448   2.725
 4606TIP3    H213825   1.167   2.300   2.748
 4607TIP3   OH213826   0.250   2.586   2.215
 4607TIP3    H113827   0.328   2.592   2.160
 4607TIP3    H213828   0.267   2.509   2.271
 4608TIP3   OH213829   1.539   1.463   2.731
 4608TIP3    H113830   1.607   1.419   2.781
 4608TIP3    H213831   1.513   1.538   2.786
 4609TIP3   OH213832   0.276   5.534   3.082
 4609TIP3    H113833   0.241   5.512   3.168
 4609TIP3    H213834   0.278   5.630   3.081
 4610TIP3   OH213835   2.701   1.881   0.206
 4610TIP3    H113836   2.792   1.900   0.227
 4610TIP3    H213837   2.705   1.827   0.127
 4611TIP3   OH213838   0.381   1.598   5.042
 4611TIP3    H113839   0.387   1.618   4.949
 4611TIP3    H213840   0.410   1.678   5.086
 4612TIP3   OH213841   1.013   4.430   1.070
 4612TIP3    H113842   0.967   4.346   1.078
 4612TIP3    H213843   1.058   4.426   0.986
 4613TIP3   OH213844   5.000   1.308   3.243
 4613TIP3    H113845   4.990   1.221   3.280
 4613TIP3    H213846   4.998   1.295   3.148
 4614TIP3   OH213847   1.962   3.257   3.171
 4614TIP3    H113848   1.905   3.218   3.105
 4614TIP3    H213849   2.051   3.241   3.140
 4615TIP3   OH213850   2.014   3.888   2.527
 4615TIP3    H113851   2.021   3.854   2.617
 4615TIP3    H213852   2.098   3.929   2.510
 4616TIP3   OH213853   4.623   0.904   2.221
 4616TIP3    H113854   4.654   0.822   2.185
 4616TIP3    H213855   4.702   0.948   2.252
 4617TIP3   OH213856   3.839   0.939   4.051
 4617TIP3    H113857   3.848   1.030   4.021
 4617TIP3    H213858   3.915   0.924   4.106
 4618TIP3   OH213859   1.484   0.633   3.606
 4618TIP3    H113860   1.578   0.637   3.618
 4618TIP3    H213861   1.456   0.556   3.656
 4619TIP3   OH213862   3.635   1.749   4.073
 4619TIP3    H113863   3.705   1.798   4.030
 4619TIP3    H213864   3.677   1.666   4.099
 4620TIP3   OH213865   2.430   4.370   0.243
 4620TIP3    H113866   2.428   4.301   0.176
 4620TIP3    H213867   2.349   4.356   0.293
 4621TIP3   OH213868   0.744   4.424   1.522
 4621TIP3    H113869   0.668   4.390   1.476
 4621TIP3    H213870   0.789   4.346   1.554
 4622TIP3   OH213871   2.285   4.721   5.109
 4622TIP3    H113872   2.279   4.625   5.108
 4622TIP3    H213873   2.212   4.749   5.165
 4623TIP3   OH213874   0.311   1.866   0.922
 4623TIP3    H113875   0.393   1.816   0.918
 4623TIP3    H213876   0.327   1.931   0.991
 4624TIP3   OH213877   6.074   3.261   0.922
 4624TIP3    H113878   6.132   3.186   0.910
 4624TIP3    H213879   6.003   3.247   0.858
 4625TIP3   OH213880   0.401   4.854   1.037
 4625TIP3    H113881   0.487   4.813   1.046
 4625TIP3    H213882   0.344   4.784   1.006
 4626TIP3   OH213883   0.406   3.993   1.136
 4626TIP3    H113884   0.383   3.901   1.123
 4626TIP3    H213885   0.341   4.025   1.199
 4627TIP3   OH213886   5.048   3.708   0.580
 4627TIP3    H113887   4.999   3.770   0.527
 4627TIP3    H213888   5.134   3.704   0.538
 4628TIP3   OH213889   3.247   2.046   0.647
 4628TIP3    H113890   3.220   1.959   0.617
 4628TIP3    H213891   3.242   2.101   0.569
 4629TIP3   OH213892   1.328   3.834   2.481
 4629TIP3    H113893   1.422   3.822   2.468
 4629TIP3    H213894   1.311   3.924   2.454
 4630TIP3   OH213895   4.752   4.015   0.223
 4630TIP3    H113896   4.669   3.969   0.210
 4630TIP3    H213897   4.733   4.081   0.289
 4631TIP3   OH213898   0.858   2.001   4.036
 4631TIP3    H113899   0.891   2.084   4.071
 4631TIP3    H213900   0.836   1.949   4.113
 4632TIP3   OH213901   4.191   4.400   4.781
 4632TIP3    H113902   4.191   4.313   4.821
 4632TIP3    H213903   4.099   4.426   4.779
 4633TIP3   OH213904   1.759   0.408   1.161
 4633TIP3    H113905   1.684   0.442   1.209
 4633TIP3    H213906   1.723   0.379   1.077
 4634TIP3   OH213907   0.145   2.270   4.367
 4634TIP3    H113908   0.152   2.316   4.450
 4634TIP3    H213909   0.196   2.323   4.306
 4635TIP3   OH213910   1.879   5.156   4.495
 4635TIP3    H113911   1.935   5.169   4.418
 4635TIP3    H213912   1.796   5.124   4.460
 4636TIP3   OH213913   4.607   3.269   4.662
 4636TIP3    H113914   4.589   3.341   4.724
 4636TIP3    H213915   4.523   3.256   4.617
 4637TIP3   OH213916   4.819   0.631   3.817
 4637TIP3    H113917   4.731   0.661   3.841
 4637TIP3    H213918   4.853   0.701   3.761
 4638TIP3   OH213919   3.227   1.427   2.569
 4638TIP3    H113920   3.227   1.419   2.473
 4638TIP3    H213921   3.270   1.347   2.600
 4639TIP3   OH213922   4.156   3.064   2.384
 4639TIP3    H113923   4.243   3.078   2.420
 4639TIP3    H213924   4.130   3.149   2.350
 4640TIP3   OH213925   5.964   3.477   2.125
 4640TIP3    H113926   5.887   3.421   2.136
 4640TIP3    H213927   5.995   3.458   2.037
 4641TIP3   OH213928   6.057   5.657   2.158
 4641TIP3    H113929   6.011   5.661   2.243
 4641TIP3    H213930   6.146   5.630   2.180
 4642TIP3   OH213931   5.764   3.715   3.865
 4642TIP3    H113932   5.811   3.661   3.802
 4642TIP3    H213933   5.817   3.794   3.873
 4643TIP3   OH213934   5.112   3.848   1.565
 4643TIP3    H113935   5.202   3.878   1.562
 4643TIP3    H213936   5.072   3.884   1.485
 4644TIP3   OH213937   1.464   5.017   1.876
 4644TIP3    H113938   1.511   5.055   1.951
 4644TIP3    H213939   1.435   4.932   1.907
 4645TIP3   OH213940   3.449   3.933   0.746
 4645TIP3    H113941   3.437   3.984   0.666
 4645TIP3    H213942   3.509   3.986   0.799
 4646TIP3   OH213943   3.579   0.479   2.105
 4646TIP3    H113944   3.533   0.421   2.044
 4646TIP3    H213945   3.560   0.443   2.191
 4647TIP3   OH213946   1.416   2.345   2.639
 4647TIP3    H113947   1.451   2.429   2.668
 4647TIP3    H213948   1.391   2.300   2.719
 4648TIP3   OH213949   0.940   3.916   3.088
 4648TIP3    H113950   0.891   3.938   3.009
 4648TIP3    H213951   0.902   3.834   3.118
 4649TIP3   OH213952   0.072   3.056   3.909
 4649TIP3    H113953   0.141   3.009   3.956
 4649TIP3    H213954   0.013   3.087   3.978
 4650TIP3   OH213955   0.024   2.333   1.436
 4650TIP3    H113956   0.090   2.264   1.444
 4650TIP3    H213957   0.060   2.407   1.486
 4651TIP3   OH213958   2.965   0.431   3.797
 4651TIP3    H113959   2.907   0.464   3.866
 4651TIP3    H213960   2.932   0.470   3.716
 4652TIP3   OH213961   0.929   1.474   0.945
 4652TIP3    H113962   0.866   1.511   1.007
 4652TIP3    H213963   1.009   1.525   0.959
 4653TIP3   OH213964   1.657   0.858   3.979
 4653TIP3    H113965   1.717   0.930   3.996
 4653TIP3    H213966   1.570   0.899   3.977
 4654TIP3   OH213967   3.795   0.984   3.724
 4654TIP3    H113968   3.752   0.900   3.735
 4654TIP3    H213969   3.832   0.981   3.635
 4655TIP3   OH213970   6.031   2.892   0.852
 4655TIP3    H113971   5.976   2.914   0.927
 4655TIP3    H213972   6.065   2.805   0.871
 4656TIP3   OH213973   4.980   0.101   4.933
 4656TIP3    H113974   4.907   0.039   4.929
 4656TIP3    H213975   5.043   0.060   4.993
 4657TIP3   OH213976   3.296   0.694   2.820
 4657TIP3    H113977   3.342   0.672   2.901
 4657TIP3    H213978   3.362   0.740   2.768
 4658TIP3   OH213979   1.101   0.312   4.708
 4658TIP3    H113980   1.023   0.326   4.655
 4658TIP3    H213981   1.067   0.280   4.792
 4659TIP3   OH213982   0.707   4.373   1.864
 4659TIP3    H113983   0.748   4.330   1.788
 4659TIP3    H213984   0.674   4.300   1.917
 4660TIP3   OH213985   1.040   3.229   1.298
 4660TIP3    H113986   1.122   3.183   1.315
 4660TIP3    H213987   1.065   3.302   1.240
 4661TIP3   OH213988   3.063   5.444   2.851
 4661TIP3    H113989   3.047   5.465   2.943
 4661TIP3    H213990   3.062   5.528   2.806
 4662TIP3   OH213991   5.362   3.959   4.888
 4662TIP3    H113992   5.366   3.863   4.888
 4662TIP3    H213993   5.272   3.979   4.861
 4663TIP3   OH213994   3.609   2.200   2.234
 4663TIP3    H113995   3.646   2.211   2.146
 4663TIP3    H213996   3.683   2.172   2.288
 4664TIP3   OH213997   4.967   3.077   0.125
 4664TIP3    H113998   5.011   3.005   0.079
 4664TIP3    H213999   4.943   3.040   0.210
 4665TIP3   OH214000   1.946   3.484   5.144
 4665TIP3    H114001   1.933   3.572   5.180
 4665TIP3    H214002   2.041   3.474   5.139
 4666TIP3   OH214003   2.233   3.166   1.118
 4666TIP3    H114004   2.312   3.138   1.072
 4666TIP3    H214005   2.204   3.088   1.165
 4667TIP3   OH214006   1.166   4.535   0.262
 4667TIP3    H114007   1.229   4.547   0.334
 4667TIP3    H214008   1.203   4.585   0.189
 4668TIP3   OH214009   5.561   1.695   2.496
 4668TIP3    H114010   5.564   1.774   2.442
 4668TIP3    H214011   5.526   1.628   2.438
 4669TIP3   OH214012   3.280   1.151   1.709
 4669TIP3    H114013   3.338   1.139   1.784
 4669TIP3    H214014   3.270   1.246   1.702
 4670TIP3   OH214015   0.544   3.464   0.077
 4670TIP3    H114016   0.521   3.472   0.169
 4670TIP3    H214017   0.532   3.371   0.057
 4671TIP3   OH214018   5.441   4.390   1.624
 4671TIP3    H114019   5.438   4.480   1.591
 4671TIP3    H214020   5.532   4.378   1.652
 4672TIP3   OH214021   4.761   3.702   2.185
 4672TIP3    H114022   4.794   3.637   2.122
 4672TIP3    H214023   4.746   3.652   2.265
 4673TIP3   OH214024   3.352   3.624   0.421
 4673TIP3    H114025   3.428   3.661   0.466
 4673TIP3    H214026   3.294   3.699   0.406
 4674TIP3   OH214027   6.072   4.103   4.380
 4674TIP3    H114028   6.081   4.159   4.304
 4674TIP3    H214029   6.033   4.022   4.346
 4675TIP3   OH214030   5.246   2.528   2.357
 4675TIP3    H114031   5.192   2.524   2.279
 4675TIP3    H214032   5.335   2.511   2.326
 4676TIP3   OH214033   3.931   3.827   0.741
 4676TIP3    H114034   3.921   3.858   0.831
 4676TIP3    H214035   3.857   3.769   0.727
 4677TIP3   OH214036   0.057   0.649   2.531
 4677TIP3    H114037   0.101   0.734   2.535
 4677TIP3    H214038   0.124   0.589   2.497
 4678TIP3   OH214039   0.507   4.617   5.015
 4678TIP3    H114040   0.577   4.596   5.077
 4678TIP3    H214041   0.433   4.563   5.044
 4679TIP3   OH214042   4.146   0.265   4.140
 4679TIP3    H114043   4.138   0.245   4.233
 4679TIP3    H214044   4.135   0.181   4.097
 4680TIP3   OH214045   3.861   3.016   0.816
 4680TIP3    H114046   3.885   3.095   0.769
 4680TIP3    H214047   3.781   3.038   0.863
 4681TIP3   OH214048   5.313   2.865   2.065
 4681TIP3    H114049   5.271   2.938   2.112
 4681TIP3    H214050   5.383   2.907   2.014
 4682TIP3   OH214051   5.360   0.720   0.444
 4682TIP3    H114052   5.388   0.810   0.430
 4682TIP3    H214053   5.383   0.674   0.363
 4683TIP3   OH214054   4.850   2.191   1.550
 4683TIP3    H114055   4.838   2.283   1.575
 4683TIP3    H214056   4.835   2.142   1.630
 4684TIP3   OH214057   3.241   1.528   1.090
 4684TIP3    H114058   3.195   1.608   1.113
 4684TIP3    H214059   3.296   1.508   1.166
 4685TIP3   OH214060   2.805   5.896   3.728
 4685TIP3    H114061   2.837   5.985   3.741
 4685TIP3    H214062   2.868   5.857   3.667
 4686TIP3   OH214063   0.780   5.086   2.724
 4686TIP3    H114064   0.815   5.156   2.778
 4686TIP3    H214065   0.750   5.020   2.787
 4687TIP3   OH214066   1.722   5.164   2.910
 4687TIP3    H114067   1.763   5.249   2.893
 4687TIP3    H214068   1.673   5.176   2.991
 4688TIP3   OH214069   1.860   4.527   0.090
 4688TIP3    H114070   1.816   4.450   0.055
 4688TIP3    H214071   1.921   4.493   0.155
 4689TIP3   OH214072   5.412   4.403   3.676
 4689TIP3    H114073   5.390   4.456   3.599
 4689TIP3    H214074   5.354   4.435   3.745
 4690TIP3   OH214075   5.808   1.301   1.888
 4690TIP3    H114076   5.845   1.220   1.924
 4690TIP3    H214077   5.842   1.306   1.799
 4691TIP3   OH214078   5.823   1.970   1.616
 4691TIP3    H114079   5.756   2.007   1.559
 4691TIP3    H214080   5.782   1.892   1.654
 4692TIP3   OH214081   4.114   1.424   1.041
 4692TIP3    H114082   4.045   1.443   1.104
 4692TIP3    H214083   4.128   1.507   0.995
 4693TIP3   OH214084   4.377   3.073   3.624
 4693TIP3    H114085   4.378   3.132   3.699
 4693TIP3    H214086   4.404   3.128   3.550
 4694TIP3   OH214087   4.150   4.980   3.807
 4694TIP3    H114088   4.126   5.026   3.727
 4694TIP3    H214089   4.162   4.889   3.780
 4695TIP3   OH214090   1.011   4.494   1.975
 4695TIP3    H114091   0.968   4.440   2.041
 4695TIP3    H214092   0.939   4.541   1.931
 4696TIP3   OH214093   6.377   0.707   1.119
 4696TIP3    H114094   6.330   0.790   1.109
 4696TIP3    H214095   6.368   0.685   1.212
 4697TIP3   OH214096   1.944   0.855   3.771
 4697TIP3    H114097   1.987   0.791   3.713
 4697TIP3    H214098   2.009   0.873   3.838
 4698TIP3   OH214099   4.088   4.274   2.232
 4698TIP3    H114100   4.050   4.303   2.149
 4698TIP3    H214101   4.170   4.322   2.239
 4699TIP3   OH214102   2.303   1.270   3.658
 4699TIP3    H114103   2.299   1.228   3.572
 4699TIP3    H214104   2.285   1.362   3.640
 4700TIP3   OH214105   2.076   3.392   0.661
 4700TIP3    H114106   2.012   3.329   0.627
 4700TIP3    H214107   2.136   3.339   0.714
 4701TIP3   OH214108   5.404   0.133   1.090
 4701TIP3    H114109   5.427   0.174   1.007
 4701TIP3    H214110   5.401   0.040   1.071
 4702TIP3   OH214111   1.192   1.499   4.955
 4702TIP3    H114112   1.099   1.516   4.971
 4702TIP3    H214113   1.200   1.494   4.860
 4703TIP3   OH214114   1.109   5.432   5.054
 4703TIP3    H114115   1.090   5.484   5.132
 4703TIP3    H214116   1.187   5.383   5.076
 4704TIP3   OH214117   2.880   0.372   0.889
 4704TIP3    H114118   2.914   0.444   0.836
 4704TIP3    H214119   2.874   0.407   0.977
 4705TIP3   OH214120   4.400   1.127   0.768
 4705TIP3    H114121   4.325   1.180   0.740
 4705TIP3    H214122   4.404   1.056   0.704
 4706TIP3   OH214123   0.726   4.335   4.329
 4706TIP3    H114124   0.665   4.386   4.383
 4706TIP3    H214125   0.811   4.378   4.342
 4707TIP3   OH214126   1.058   5.043   2.888
 4707TIP3    H114127   1.153   5.027   2.884
 4707TIP3    H214128   1.019   4.957   2.899
 4708TIP3   OH214129   5.443   0.038   2.744
 4708TIP3    H114130   5.433   0.012   2.653
 4708TIP3    H214131   5.501   0.114   2.741
 4709TIP3   OH214132   3.554   5.354   3.203
 4709TIP3    H114133   3.490   5.393   3.262
 4709TIP3    H214134   3.555   5.411   3.127
 4710TIP3   OH214135   5.795   4.505   1.000
 4710TIP3    H114136   5.737   4.568   0.959
 4710TIP3    H214137   5.877   4.513   0.951
 4711TIP3   OH214138   1.623   4.880   4.956
 4711TIP3    H114139   1.583   4.869   4.870
 4711TIP3    H214140   1.556   4.927   5.007
 4712TIP3   OH214141   2.395   5.496   4.368
 4712TIP3    H114142   2.370   5.536   4.451
 4712TIP3    H214143   2.334   5.423   4.357
 4713TIP3   OH214144   1.254   2.077   4.238
 4713TIP3    H114145   1.288   2.061   4.326
 4713TIP3    H214146   1.316   2.032   4.179
 4714TIP3   OH214147   3.550   0.158   3.133
 4714TIP3    H114148   3.508   0.079   3.166
 4714TIP3    H214149   3.638   0.130   3.108
 4715TIP3   OH214150   1.446   2.959   4.447
 4715TIP3    H114151   1.394   3.028   4.488
 4715TIP3    H214152   1.386   2.917   4.386
 4716TIP3   OH214153   2.132   5.742   3.642
 4716TIP3    H114154   2.209   5.764   3.694
 4716TIP3    H214155   2.158   5.667   3.590
 4717TIP3   OH214156   4.018   3.231   3.537
 4717TIP3    H114157   4.103   3.221   3.580
 4717TIP3    H214158   4.030   3.190   3.451
 4718TIP3   OH214159   1.304   1.964   0.430
 4718TIP3    H114160   1.373   1.987   0.491
 4718TIP3    H214161   1.222   1.977   0.479
 4719TIP3   OH214162   0.869   2.317   2.870
 4719TIP3    H114163   0.855   2.222   2.865
 4719TIP3    H214164   0.951   2.331   2.823
 4720TIP3   OH214165   2.605   1.356   3.737
 4720TIP3    H114166   2.602   1.306   3.655
 4720TIP3    H214167   2.525   1.409   3.735
 4721TIP3   OH214168   2.627   2.465   4.775
 4721TIP3    H114169   2.593   2.509   4.698
 4721TIP3    H214170   2.557   2.473   4.840
 4722TIP3   OH214171   1.388   2.293   0.460
 4722TIP3    H114172   1.432   2.230   0.518
 4722TIP3    H214173   1.459   2.348   0.427
 4723TIP3   OH214174   5.422   2.551   0.890
 4723TIP3    H114175   5.379   2.636   0.888
 4723TIP3    H214176   5.492   2.561   0.954
 4724TIP3   OH214177   2.435   4.153   1.326
 4724TIP3    H114178   2.341   4.163   1.336
 4724TIP3    H214179   2.463   4.230   1.277
 4725TIP3   OH214180   3.442   3.100   2.431
 4725TIP3    H114181   3.351   3.087   2.460
 4725TIP3    H214182   3.440   3.184   2.384
 4726TIP3   OH214183   2.010   4.930   3.041
 4726TIP3    H114184   2.071   4.857   3.031
 4726TIP3    H214185   1.997   4.963   2.952
 4727TIP3   OH214186   0.507   1.621   4.117
 4727TIP3    H114187   0.580   1.613   4.055
 4727TIP3    H214188   0.510   1.712   4.145
 4728TIP3   OH214189   1.583   4.567   2.281
 4728TIP3    H114190   1.588   4.474   2.304
 4728TIP3    H214191   1.498   4.596   2.314
 4729TIP3   OH214192   1.748   0.751   1.334
 4729TIP3    H114193   1.712   0.664   1.317
 4729TIP3    H214194   1.787   0.744   1.421
 4730TIP3   OH214195   1.476   1.128   3.113
 4730TIP3    H114196   1.474   1.222   3.132
 4730TIP3    H214197   1.569   1.106   3.111
 4731TIP3   OH214198   3.300   0.414   1.385
 4731TIP3    H114199   3.302   0.410   1.481
 4731TIP3    H214200   3.213   0.381   1.362
 4732TIP3   OH214201   2.687   5.771   4.069
 4732TIP3    H114202   2.657   5.690   4.110
 4732TIP3    H214203   2.781   5.758   4.054
 4733TIP3   OH214204   5.887   2.294   3.319
 4733TIP3    H114205   5.918   2.247   3.396
 4733TIP3    H214206   5.961   2.291   3.258
 4734TIP3   OH214207   6.176   1.695   2.799
 4734TIP3    H114208   6.082   1.713   2.803
 4734TIP3    H214209   6.193   1.637   2.874
 4735TIP3   OH214210   4.792   1.403   4.807
 4735TIP3    H114211   4.877   1.396   4.850
 4735TIP3    H214212   4.732   1.427   4.878
 4736TIP3   OH214213   4.187   5.979   3.962
 4736TIP3    H114214   4.145   5.974   4.048
 4736TIP3    H214215   4.173   5.893   3.923
 4737TIP3   OH214216   3.631   3.602   1.443
 4737TIP3    H114217   3.612   3.657   1.367
 4737TIP3    H214218   3.720   3.569   1.427
 4738TIP3   OH214219   5.974   5.239   5.100
 4738TIP3    H114220   5.894   5.260   5.148
 4738TIP3    H214221   5.974   5.299   5.026
 4739TIP3   OH214222   5.151   5.171   2.434
 4739TIP3    H114223   5.155   5.118   2.513
 4739TIP3    H214224   5.058   5.190   2.422
 4740TIP3   OH214225   2.521   0.029   2.353
 4740TIP3    H114226   2.477   0.108   2.383
 4740TIP3    H214227   2.504  -0.035   2.422
 4741TIP3   OH214228   0.631   3.874   1.359
 4741TIP3    H114229   0.569   3.813   1.400
 4741TIP3    H214230   0.595   3.890   1.272
 4742TIP3   OH214231   3.271   3.983   2.363
 4742TIP3    H114232   3.234   3.999   2.449
 4742TIP3    H214233   3.298   3.891   2.365
 4743TIP3   OH214234   3.794   2.818   2.959
 4743TIP3    H114235   3.769   2.727   2.973
 4743TIP3    H214236   3.886   2.823   2.988
 4744TIP3   OH214237   4.940   2.719   4.343
 4744TIP3    H114238   4.990   2.784   4.391
 4744TIP3    H214239   4.994   2.640   4.346
 4745TIP3   OH214240   1.158   2.354   4.307
 4745TIP3    H114241   1.191   2.265   4.314
 4745TIP3    H214242   1.144   2.382   4.398
 4746TIP3   OH214243   4.784   3.383   1.232
 4746TIP3    H114244   4.751   3.306   1.279
 4746TIP3    H214245   4.811   3.349   1.147
 4747TIP3   OH214246   5.920   3.314   0.000
 4747TIP3    H114247   5.845   3.360   0.038
 4747TIP3    H214248   5.901   3.221   0.013
 4748TIP3   OH214249   0.190   4.260   2.309
 4748TIP3    H114250   0.169   4.338   2.257
 4748TIP3    H214251   0.127   4.194   2.279
 4749TIP3   OH214252   0.163   1.428   2.459
 4749TIP3    H114253   0.257   1.441   2.471
 4749TIP3    H214254   0.123   1.470   2.536
 4750TIP3   OH214255   5.520   4.667   3.733
 4750TIP3    H114256   5.610   4.695   3.717
 4750TIP3    H214257   5.522   4.632   3.821
 4751TIP3   OH214258   2.370   1.183   4.119
 4751TIP3    H114259   2.462   1.205   4.105
 4751TIP3    H214260   2.322   1.247   4.065
 4752TIP3   OH214261   4.335   0.385   1.140
 4752TIP3    H114262   4.347   0.456   1.076
 4752TIP3    H214263   4.401   0.320   1.116
 4753TIP3   OH214264   5.394   2.533   1.341
 4753TIP3    H114265   5.410   2.543   1.435
 4753TIP3    H214266   5.354   2.447   1.333
 4754TIP3   OH214267   2.200   1.371   4.311
 4754TIP3    H114268   2.284   1.339   4.278
 4754TIP3    H214269   2.201   1.349   4.405
 4755TIP3   OH214270   4.937   4.795   3.389
 4755TIP3    H114271   4.844   4.786   3.409
 4755TIP3    H214272   4.977   4.813   3.474
 4756TIP3   OH214273   5.875   0.279   4.392
 4756TIP3    H114274   5.797   0.332   4.375
 4756TIP3    H214275   5.902   0.304   4.480
 4757TIP3   OH214276   2.731   2.553   3.167
 4757TIP3    H114277   2.671   2.619   3.202
 4757TIP3    H214278   2.684   2.470   3.176
 4758TIP3   OH214279   1.189   0.444   4.945
 4758TIP3    H114280   1.186   0.445   4.849
 4758TIP3    H214281   1.116   0.500   4.972
 4759TIP3   OH214282   1.369   0.493   0.849
 4759TIP3    H114283   1.339   0.572   0.805
 4759TIP3    H214284   1.412   0.442   0.780
 4760TIP3   OH214285   6.064   0.811   2.989
 4760TIP3    H114286   6.080   0.903   2.970
 4760TIP3    H214287   5.978   0.793   2.952
 4761TIP3   OH214288   5.284   5.883   4.743
 4761TIP3    H114289   5.336   5.820   4.793
 4761TIP3    H214290   5.292   5.965   4.792
 4762TIP3   OH214291   5.946   0.641   0.759
 4762TIP3    H114292   5.907   0.609   0.678
 4762TIP3    H214293   6.011   0.706   0.731
 4763TIP3   OH214294   2.403   5.631   2.570
 4763TIP3    H114295   2.391   5.605   2.662
 4763TIP3    H214296   2.496   5.656   2.564
 4764TIP3   OH214297   1.863   2.812   3.847
 4764TIP3    H114298   1.815   2.883   3.804
 4764TIP3    H214299   1.874   2.746   3.779
 4765TIP3   OH214300   4.240   1.643   4.503
 4765TIP3    H114301   4.225   1.631   4.410
 4765TIP3    H214302   4.248   1.554   4.538
 4766TIP3   OH214303   1.634   1.044   5.015
 4766TIP3    H114304   1.693   1.117   4.998
 4766TIP3    H214305   1.546   1.079   5.001
 4767TIP3   OH214306   4.373   4.976   0.809
 4767TIP3    H114307   4.417   5.061   0.805
 4767TIP3    H214308   4.354   4.962   0.901
 4768TIP3   OH214309   1.474   1.800   2.424
 4768TIP3    H114310   1.535   1.749   2.477
 4768TIP3    H214311   1.524   1.878   2.398
 4769TIP3   OH214312   3.672   4.443   1.808
 4769TIP3    H114313   3.597   4.499   1.826
 4769TIP3    H214314   3.731   4.498   1.755
 4770TIP3   OH214315   4.990   2.064   4.098
 4770TIP3    H114316   4.911   2.017   4.070
 4770TIP3    H214317   4.962   2.155   4.107
 4771TIP3   OH214318   2.682   0.420   1.478
 4771TIP3    H114319   2.683   0.388   1.388
 4771TIP3    H214320   2.601   0.471   1.485
 4772TIP3   OH214321   4.635   1.343   5.040
 4772TIP3    H114322   4.617   1.309   5.128
 4772TIP3    H214323   4.717   1.392   5.050
 4773TIP3   OH214324   3.709   4.892   1.294
 4773TIP3    H114325   3.737   4.912   1.205
 4773TIP3    H214326   3.768   4.943   1.350
 4774TIP3   OH214327   5.334   3.236   3.701
 4774TIP3    H114328   5.296   3.307   3.650
 4774TIP3    H214329   5.259   3.195   3.745
 4775TIP3   OH214330   3.891   3.235   0.683
 4775TIP3    H114331   3.816   3.294   0.695
 4775TIP3    H214332   3.954   3.263   0.749
 4776TIP3   OH214333   4.753   0.684   2.530
 4776TIP3    H114334   4.814   0.711   2.599
 4776TIP3    H214335   4.733   0.593   2.550
 4777TIP3   OH214336   1.499   6.002   4.231
 4777TIP3    H114337   1.408   5.983   4.257
 4777TIP3    H214338   1.529   5.922   4.187
 4778TIP3   OH214339   4.936   2.879   4.626
 4778TIP3    H114340   4.934   2.924   4.711
 4778TIP3    H214341   4.857   2.825   4.625
 4779TIP3   OH214342   5.595   5.194   5.110
 4779TIP3    H114343   5.644   5.151   5.040
 4779TIP3    H214344   5.608   5.138   5.186
 4780TIP3   OH214345   0.956   3.537   0.174
 4780TIP3    H114346   1.009   3.601   0.222
 4780TIP3    H214347   0.968   3.455   0.221
 4781TIP3   OH214348   3.989   0.916   4.792
 4781TIP3    H114349   3.959   0.852   4.856
 4781TIP3    H214350   3.909   0.946   4.748
 4782TIP3   OH214351   4.131   3.777   4.630
 4782TIP3    H114352   4.062   3.753   4.692
 4782TIP3    H214353   4.130   3.873   4.629
 4783TIP3   OH214354   3.490   1.670   2.481
 4783TIP3    H114355   3.408   1.720   2.478
 4783TIP3    H214356   3.557   1.735   2.503
 4784TIP3   OH214357   4.121   5.568   3.685
 4784TIP3    H114358   4.048   5.543   3.629
 4784TIP3    H214359   4.197   5.525   3.646
 4785TIP3   OH214360   4.717   5.712   1.430
 4785TIP3    H114361   4.761   5.727   1.513
 4785TIP3    H214362   4.780   5.740   1.363
 4786TIP3   OH214363   2.139   4.310   3.451
 4786TIP3    H114364   2.106   4.222   3.430
 4786TIP3    H214365   2.100   4.331   3.536
 4787TIP3   OH214366   4.780   4.049   0.782
 4787TIP3    H114367   4.773   3.963   0.825
 4787TIP3    H214368   4.823   4.030   0.698
 4788TIP3   OH214369   4.391   1.910   4.337
 4788TIP3    H114370   4.386   1.982   4.273
 4788TIP3    H214371   4.337   1.841   4.300
 4789TIP3   OH214372   1.391   4.608   1.781
 4789TIP3    H114373   1.343   4.581   1.703
 4789TIP3    H214374   1.466   4.549   1.784
 4790TIP3   OH214375   6.225   5.938   2.655
 4790TIP3    H114376   6.196   5.858   2.698
 4790TIP3    H214377   6.249   5.911   2.566
 4791TIP3   OH214378   4.038   5.296   0.561
 4791TIP3    H114379   4.067   5.298   0.652
 4791TIP3    H214380   4.098   5.237   0.517
 4792TIP3   OH214381   5.953   5.508   1.953
 4792TIP3    H114382   5.971   5.575   1.887
 4792TIP3    H214383   5.967   5.553   2.037
 4793TIP3   OH214384   3.740   5.932   0.199
 4793TIP3    H114385   3.832   5.909   0.189
 4793TIP3    H214386   3.740   5.998   0.269
 4794TIP3   OH214387   6.288   3.983   0.850
 4794TIP3    H114388   6.242   4.041   0.911
 4794TIP3    H214389   6.370   3.962   0.894
 4795TIP3   OH214390   5.516   3.013   4.301
 4795TIP3    H114391   5.488   3.095   4.259
 4795TIP3    H214392   5.487   2.944   4.241
 4796TIP3   OH214393   2.205   4.283   3.155
 4796TIP3    H114394   2.249   4.291   3.070
 4796TIP3    H214395   2.150   4.205   3.145
 4797TIP3   OH214396   4.580   1.115   4.340
 4797TIP3    H114397   4.674   1.115   4.326
 4797TIP3    H214398   4.542   1.123   4.252
 4798TIP3   OH214399   1.302   5.153   1.278
 4798TIP3    H114400   1.337   5.219   1.338
 4798TIP3    H214401   1.276   5.204   1.201
 4799TIP3   OH214402   1.710   5.240   0.488
 4799TIP3    H114403   1.708   5.202   0.401
 4799TIP3    H214404   1.622   5.277   0.500
 4800TIP3   OH214405   1.258   5.546   0.942
 4800TIP3    H114406   1.234   5.638   0.947
 4800TIP3    H214407   1.231   5.519   0.854
 4801TIP3   OH214408   4.134   3.402   0.038
 4801TIP3    H114409   4.182   3.329  -0.001
 4801TIP3    H214410   4.056   3.361   0.076
 4802TIP3   OH214411   0.954   2.761   0.530
 4802TIP3    H114412   0.923   2.674   0.504
 4802TIP3    H214413   0.986   2.749   0.620
 4803TIP3   OH214414   3.953   2.235   2.113
 4803TIP3    H114415   3.927   2.203   2.200
 4803TIP3    H214416   4.044   2.262   2.124
 4804TIP3   OH214417   4.095   0.912   4.180
 4804TIP3    H114418   4.177   0.913   4.131
 4804TIP3    H214419   4.119   0.940   4.268
 4805TIP3   OH214420   2.670   2.776   1.617
 4805TIP3    H114421   2.754   2.806   1.584
 4805TIP3    H214422   2.606   2.813   1.556
 4806TIP3   OH214423   1.445   4.833   2.880
 4806TIP3    H114424   1.489   4.878   2.808
 4806TIP3    H214425   1.397   4.901   2.926
 4807TIP3   OH214426   3.718   4.916   1.005
 4807TIP3    H114427   3.699   4.872   0.922
 4807TIP3    H214428   3.714   5.010   0.984
 4808TIP3   OH214429   1.232   4.077   4.761
 4808TIP3    H114430   1.156   4.128   4.790
 4808TIP3    H214431   1.305   4.139   4.765
 4809TIP3   OH214432   3.470   5.483   4.681
 4809TIP3    H114433   3.475   5.391   4.706
 4809TIP3    H214434   3.480   5.482   4.585
 4810TIP3   OH214435   3.931   5.718   2.541
 4810TIP3    H114436   3.837   5.707   2.529
 4810TIP3    H214437   3.956   5.784   2.476
 4811TIP3   OH214438   2.458   4.080   2.215
 4811TIP3    H114439   2.450   3.984   2.209
 4811TIP3    H214440   2.511   4.094   2.293
 4812TIP3   OH214441   4.157   2.224   0.613
 4812TIP3    H114442   4.063   2.235   0.630
 4812TIP3    H214443   4.162   2.208   0.519
 4813TIP3   OH214444   0.642   5.165   2.369
 4813TIP3    H114445   0.566   5.157   2.312
 4813TIP3    H214446   0.717   5.146   2.313
 4814TIP3   OH214447   3.495   4.488   2.641
 4814TIP3    H114448   3.485   4.408   2.590
 4814TIP3    H214449   3.495   4.459   2.732
 4815TIP3   OH214450   1.210   4.228   1.141
 4815TIP3    H114451   1.161   4.301   1.104
 4815TIP3    H214452   1.144   4.168   1.174
 4816TIP3   OH214453   5.715   5.945   0.738
 4816TIP3    H114454   5.690   6.034   0.761
 4816TIP3    H214455   5.680   5.932   0.649
 4817TIP3   OH214456   4.297   2.500   2.136
 4817TIP3    H114457   4.363   2.563   2.108
 4817TIP3    H214458   4.214   2.547   2.128
 4818TIP3   OH214459   0.466   1.118   1.369
 4818TIP3    H114460   0.504   1.189   1.421
 4818TIP3    H214461   0.508   1.039   1.402
 4819TIP3   OH214462   5.175   5.128   3.721
 4819TIP3    H114463   5.266   5.116   3.748
 4819TIP3    H214464   5.151   5.046   3.679
 4820TIP3   OH214465   3.517   2.039   0.150
 4820TIP3    H114466   3.477   1.956   0.123
 4820TIP3    H214467   3.595   2.014   0.200
 4821TIP3   OH214468   5.589   0.372   2.275
 4821TIP3    H114469   5.554   0.405   2.193
 4821TIP3    H214470   5.680   0.348   2.254
 4822TIP3   OH214471   0.426   3.398   3.480
 4822TIP3    H114472   0.362   3.385   3.550
 4822TIP3    H214473   0.381   3.368   3.400
 4823TIP3   OH214474   3.430   0.666   0.261
 4823TIP3    H114475   3.390   0.732   0.317
 4823TIP3    H214476   3.464   0.600   0.321
 4824TIP3   OH214477   2.171   2.600   5.021
 4824TIP3    H114478   2.126   2.551   4.951
 4824TIP3    H214479   2.254   2.626   4.982
 4825TIP3   OH214480   3.664   0.726   2.065
 4825TIP3    H114481   3.610   0.766   1.997
 4825TIP3    H214482   3.628   0.638   2.076
 4826TIP3   OH214483   4.785   5.317   2.114
 4826TIP3    H114484   4.853   5.355   2.059
 4826TIP3    H214485   4.757   5.238   2.067
 4827TIP3   OH214486   5.818   5.334   1.768
 4827TIP3    H114487   5.859   5.249   1.784
 4827TIP3    H214488   5.863   5.394   1.828
 4828TIP3   OH214489   3.334   3.442   4.253
 4828TIP3    H114490   3.399   3.506   4.284
 4828TIP3    H214491   3.375   3.399   4.179
 4829TIP3   OH214492   1.294   3.528   3.235
 4829TIP3    H114493   1.275   3.621   3.234
 4829TIP3    H214494   1.230   3.489   3.175
 4830TIP3   OH214495   2.282   5.113   2.474
 4830TIP3    H114496   2.231   5.169   2.416
 4830TIP3    H214497   2.364   5.160   2.487
 4831TIP3   OH214498   4.004   5.825   0.173
 4831TIP3    H114499   4.041   5.775   0.100
 4831TIP3    H214500   4.076   5.837   0.234
 4832TIP3   OH214501   2.399   3.635   3.883
 4832TIP3    H114502   2.324   3.608   3.937
 4832TIP3    H214503   2.414   3.562   3.823
 4833TIP3   OH214504   4.520   5.551   0.704
 4833TIP3    H114505   4.432   5.528   0.674
 4833TIP3    H214506   4.526   5.514   0.792
 4834TIP3   OH214507   2.202   5.172   2.125
 4834TIP3    H114508   2.265   5.100   2.127
 4834TIP3    H214509   2.251   5.248   2.157
 4835TIP3   OH214510   4.754   2.127   4.920
 4835TIP3    H114511   4.718   2.193   4.980
 4835TIP3    H214512   4.767   2.174   4.838
 4836TIP3   OH214513   4.702   4.344   3.512
 4836TIP3    H114514   4.738   4.256   3.524
 4836TIP3    H214515   4.616   4.341   3.555
 4837TIP3   OH214516   3.286   3.876   2.846
 4837TIP3    H114517   3.325   3.789   2.833
 4837TIP3    H214518   3.317   3.927   2.771
 4838TIP3   OH214519   2.972   3.387   3.955
 4838TIP3    H114520   2.953   3.321   3.888
 4838TIP3    H214521   2.949   3.344   4.037
 4839TIP3   OH214522   3.122   4.017   0.705
 4839TIP3    H114523   3.043   3.970   0.732
 4839TIP3    H214524   3.101   4.048   0.616
 4840TIP3   OH214525   3.397   1.773   0.393
 4840TIP3    H114526   3.344   1.720   0.452
 4840TIP3    H214527   3.334   1.815   0.335
 4841TIP3   OH214528   4.643   5.835   3.465
 4841TIP3    H114529   4.566   5.835   3.521
 4841TIP3    H214530   4.645   5.747   3.426
 4842TIP3   OH214531   5.434   2.839   2.999
 4842TIP3    H114532   5.359   2.851   3.058
 4842TIP3    H214533   5.481   2.763   3.036
 4843TIP3   OH214534   5.208   2.728   3.654
 4843TIP3    H114535   5.214   2.660   3.721
 4843TIP3    H214536   5.299   2.749   3.633
 4844TIP3   OH214537   1.838   4.628   0.574
 4844TIP3    H114538   1.832   4.721   0.596
 4844TIP3    H214539   1.885   4.626   0.491
 4845TIP3   OH214540   5.219   3.592   1.125
 4845TIP3    H114541   5.284   3.663   1.121
 4845TIP3    H214542   5.206   3.567   1.033
 4846TIP3   OH214543   3.560   1.224   3.661
 4846TIP3    H114544   3.494   1.280   3.701
 4846TIP3    H214545   3.598   1.175   3.734
 4847TIP3   OH214546   4.837   4.349   1.351
 4847TIP3    H114547   4.747   4.317   1.363
 4847TIP3    H214548   4.888   4.269   1.335
 4848TIP3   OH214549   1.554   5.486   1.463
 4848TIP3    H114550   1.646   5.465   1.454
 4848TIP3    H214551   1.553   5.567   1.516
 4849TIP3   OH214552   0.641   1.491   1.359
 4849TIP3    H114553   0.560   1.517   1.401
 4849TIP3    H214554   0.666   1.410   1.403
 4850TIP3   OH214555   2.739   4.332   2.322
 4850TIP3    H114556   2.786   4.349   2.241
 4850TIP3    H214557   2.647   4.345   2.300
 4851TIP3   OH214558   3.365   1.250   1.961
 4851TIP3    H114559   3.290   1.290   1.918
 4851TIP3    H214560   3.417   1.324   1.991
 4852TIP3   OH214561   4.969   0.133   1.332
 4852TIP3    H114562   5.021   0.185   1.271
 4852TIP3    H214563   4.884   0.178   1.335
 4853TIP3   OH214564   2.250   0.648   2.643
 4853TIP3    H114565   2.262   0.555   2.623
 4853TIP3    H214566   2.188   0.679   2.578
 4854TIP3   OH214567   2.883   5.947   1.741
 4854TIP3    H114568   2.960   5.946   1.798
 4854TIP3    H214569   2.866   6.039   1.726
 4855TIP3   OH214570   2.222   0.421   0.791
 4855TIP3    H114571   2.301   0.452   0.747
 4855TIP3    H214572   2.248   0.339   0.832
 4856TIP3   OH214573   5.095   0.104   2.214
 4856TIP3    H114574   5.038   0.084   2.288
 4856TIP3    H214575   5.038   0.099   2.137
 4857TIP3   OH214576   4.809   5.283   3.761
 4857TIP3    H114577   4.809   5.334   3.842
 4857TIP3    H214578   4.874   5.327   3.705
 4858TIP3   OH214579   1.472   2.910   2.605
 4858TIP3    H114580   1.454   2.990   2.555
 4858TIP3    H214581   1.473   2.939   2.697
 4859TIP3   OH214582   3.166   3.190   0.063
 4859TIP3    H114583   3.216   3.110   0.048
 4859TIP3    H214584   3.096   3.164   0.122
 4860TIP3   OH214585   3.996   0.390   0.308
 4860TIP3    H114586   4.028   0.396   0.398
 4860TIP3    H214587   3.908   0.428   0.311
 4861TIP3   OH214588   3.425   0.338   4.375
 4861TIP3    H114589   3.454   0.414   4.425
 4861TIP3    H214590   3.500   0.279   4.375
 4862TIP3   OH214591   2.000   3.087   2.073
 4862TIP3    H114592   2.021   3.027   2.002
 4862TIP3    H214593   1.927   3.047   2.119
 4863TIP3   OH214594   0.436   1.570   2.065
 4863TIP3    H114595   0.435   1.489   2.116
 4863TIP3    H214596   0.403   1.546   1.979
 4864TIP3   OH214597   0.385   4.942   4.994
 4864TIP3    H114598   0.369   4.917   4.904
 4864TIP3    H214599   0.382   5.038   4.993
 4865TIP3   OH214600   1.082   5.225   2.234
 4865TIP3    H114601   1.016   5.184   2.290
 4865TIP3    H214602   1.127   5.151   2.193
 4866TIP3   OH214603   5.472   0.951   2.916
 4866TIP3    H114604   5.532   1.015   2.877
 4866TIP3    H214605   5.396   0.952   2.858
 4867TIP3   OH214606   0.049   5.644   3.941
 4867TIP3    H114607  -0.043   5.621   3.923
 4867TIP3    H214608   0.096   5.615   3.864
 4868TIP3   OH214609   0.180   1.472   0.970
 4868TIP3    H114610   0.193   1.480   1.065
 4868TIP3    H214611   0.144   1.556   0.944
 4869TIP3   OH214612   6.280   5.276   1.328
 4869TIP3    H114613   6.185   5.269   1.327
 4869TIP3    H214614   6.299   5.354   1.276
 4870TIP3   OH214615   4.714   3.025   0.581
 4870TIP3    H114616   4.689   2.942   0.623
 4870TIP3    H214617   4.642   3.043   0.520
 4871TIP3   OH214618   3.480   3.453   1.712
 4871TIP3    H114619   3.416   3.491   1.652
 4871TIP3    H214620   3.532   3.394   1.657
 4872TIP3   OH214621   1.101   2.892   1.477
 4872TIP3    H114622   1.144   2.941   1.407
 4872TIP3    H214623   1.170   2.835   1.512
 4873TIP3   OH214624   2.182   2.840   0.196
 4873TIP3    H114625   2.192   2.846   0.101
 4873TIP3    H214626   2.257   2.888   0.231
 4874TIP3   OH214627   5.254   1.365   0.336
 4874TIP3    H114628   5.244   1.280   0.378
 4874TIP3    H214629   5.327   1.354   0.276
 4875TIP3   OH214630   1.202   4.672   2.133
 4875TIP3    H114631   1.149   4.595   2.112
 4875TIP3    H214632   1.264   4.642   2.198
 4876TIP3   OH214633   6.391   5.730   1.103
 4876TIP3    H114634   6.374   5.664   1.036
 4876TIP3    H214635   6.332   5.802   1.082
 4877TIP3   OH214636   1.635   5.552   0.395
 4877TIP3    H114637   1.669   5.503   0.470
 4877TIP3    H214638   1.575   5.490   0.352
 4878TIP3   OH214639   3.235   4.836   1.133
 4878TIP3    H114640   3.144   4.839   1.105
 4878TIP3    H214641   3.234   4.860   1.225
 4879TIP3   OH214642   5.692   5.829   2.480
 4879TIP3    H114643   5.674   5.885   2.404
 4879TIP3    H214644   5.638   5.751   2.467
 4880TIP3   OH214645   6.296   1.573   4.399
 4880TIP3    H114646   6.332   1.661   4.406
 4880TIP3    H214647   6.272   1.550   4.489
 4881TIP3   OH214648   4.235   0.136   1.926
 4881TIP3    H114649   4.221   0.042   1.935
 4881TIP3    H214650   4.148   0.171   1.904
 4882TIP3   OH214651   0.874   4.649   1.744
 4882TIP3    H114652   0.963   4.672   1.718
 4882TIP3    H214653   0.844   4.590   1.675
 4883TIP3   OH214654   3.216  -0.016   0.066
 4883TIP3    H114655   3.285   0.048   0.081
 4883TIP3    H214656   3.157   0.025   0.003
 4884TIP3   OH214657   4.400   5.172   1.743
 4884TIP3    H114658   4.480   5.190   1.693
 4884TIP3    H214659   4.423   5.195   1.833
 4885TIP3   OH214660   5.870   3.904   4.652
 4885TIP3    H114661   5.860   3.985   4.603
 4885TIP3    H214662   5.781   3.879   4.677
 4886TIP3   OH214663   5.356   1.381   4.441
 4886TIP3    H114664   5.298   1.318   4.398
 4886TIP3    H214665   5.432   1.329   4.467
 4887TIP3   OH214666   5.297   1.579   1.852
 4887TIP3    H114667   5.380   1.542   1.883
 4887TIP3    H214668   5.234   1.507   1.861
 4888TIP3   OH214669   1.925   0.369   4.713
 4888TIP3    H114670   1.930   0.348   4.806
 4888TIP3    H214671   1.835   0.401   4.700
 4889TIP3   OH214672   1.815   5.339   3.248
 4889TIP3    H114673   1.879   5.284   3.204
 4889TIP3    H214674   1.844   5.429   3.230
 4890TIP3   OH214675   3.128   0.028   4.582
 4890TIP3    H114676   3.057   0.023   4.646
 4890TIP3    H214677   3.140   0.122   4.569
 4891TIP3   OH214678   4.210   0.071   4.619
 4891TIP3    H114679   4.232  -0.019   4.594
 4891TIP3    H214680   4.115   0.069   4.633
 4892TIP3   OH214681   3.636   4.675   2.994
 4892TIP3    H114682   3.716   4.641   2.952
 4892TIP3    H214683   3.667   4.716   3.075
 4893TIP3   OH214684   0.950   2.817   1.247
 4893TIP3    H114685   0.988   2.785   1.329
 4893TIP3    H214686   0.918   2.904   1.269
 4894TIP3   OH214687   1.231   1.612   0.534
 4894TIP3    H114688   1.198   1.682   0.477
 4894TIP3    H214689   1.155   1.555   0.547
 4895TIP3   OH214690   1.703   0.359   2.497
 4895TIP3    H114691   1.642   0.375   2.425
 4895TIP3    H214692   1.655   0.385   2.575
 4896TIP3   OH214693   3.296   0.494   3.876
 4896TIP3    H114694   3.314   0.440   3.953
 4896TIP3    H214695   3.250   0.570   3.911
 4897TIP3   OH214696   5.148   4.478   3.755
 4897TIP3    H114697   5.180   4.497   3.843
 4897TIP3    H214698   5.116   4.388   3.760
 4898TIP3   OH214699   5.551   0.162   1.310
 4898TIP3    H114700   5.491   0.168   1.236
 4898TIP3    H214701   5.630   0.122   1.274
 4899TIP3   OH214702   3.871   4.950   3.147
 4899TIP3    H114703   3.880   5.040   3.117
 4899TIP3    H214704   3.779   4.943   3.174
 4900TIP3   OH214705   4.726   2.114   3.189
 4900TIP3    H114706   4.786   2.122   3.115
 4900TIP3    H214707   4.746   2.028   3.227
 4901TIP3   OH214708   5.630   3.807   4.787
 4901TIP3    H114709   5.657   3.743   4.853
 4901TIP3    H214710   5.564   3.760   4.735
 4902TIP3   OH214711   0.682   1.500   3.348
 4902TIP3    H114712   0.666   1.432   3.413
 4902TIP3    H214713   0.596   1.540   3.333
 4903TIP3   OH214714   1.278   4.454   2.571
 4903TIP3    H114715   1.226   4.455   2.651
 4903TIP3    H214716   1.368   4.472   2.600
 4904TIP3   OH214717   4.958   4.431   1.938
 4904TIP3    H114718   4.894   4.370   1.974
 4904TIP3    H214719   4.993   4.478   2.014
 4905TIP3   OH214720   5.511   5.525   3.379
 4905TIP3    H114721   5.503   5.429   3.385
 4905TIP3    H214722   5.493   5.545   3.288
 4906TIP3   OH214723   2.655   0.442   4.168
 4906TIP3    H114724   2.618   0.362   4.131
 4906TIP3    H214725   2.605   0.456   4.249
 4907TIP3   OH214726   1.387   3.613   4.077
 4907TIP3    H114727   1.392   3.547   4.146
 4907TIP3    H214728   1.295   3.639   4.076
 4908TIP3   OH214729   6.320   0.433   3.541
 4908TIP3    H114730   6.345   0.522   3.566
 4908TIP3    H214731   6.402   0.388   3.523
 4909TIP3   OH214732   0.684   2.333   1.376
 4909TIP3    H114733   0.714   2.403   1.318
 4909TIP3    H214734   0.650   2.266   1.317
 4910TIP3   OH214735   3.932   3.882   1.387
 4910TIP3    H114736   3.888   3.938   1.324
 4910TIP3    H214737   3.913   3.921   1.472
 4911TIP3   OH214738   3.241   4.901   0.322
 4911TIP3    H114739   3.146   4.910   0.336
 4911TIP3    H214740   3.278   4.904   0.410
 4912TIP3   OH214741   0.387   4.405   3.685
 4912TIP3    H114742   0.472   4.441   3.657
 4912TIP3    H214743   0.392   4.313   3.662
 4913TIP3   OH214744   2.348   0.513   1.872
 4913TIP3    H114745   2.435   0.505   1.833
 4913TIP3    H214746   2.293   0.546   1.801
 4914TIP3   OH214747   2.465   4.508   0.766
 4914TIP3    H114748   2.465   4.416   0.741
 4914TIP3    H214749   2.461   4.507   0.862
 4915TIP3   OH214750   6.368   5.415   0.659
 4915TIP3    H114751   6.273   5.421   0.665
 4915TIP3    H214752   6.386   5.323   0.642
 4916TIP3   OH214753   2.237   3.389   3.354
 4916TIP3    H114754   2.215   3.299   3.377
 4916TIP3    H214755   2.236   3.390   3.258
 4917TIP3   OH214756   5.211   5.958   3.709
 4917TIP3    H114757   5.283   5.919   3.758
 4917TIP3    H214758   5.166   5.884   3.670
 4918TIP3   OH214759   3.674   6.018   0.657
 4918TIP3    H114760   3.671   6.019   0.752
 4918TIP3    H214761   3.660   5.927   0.632
 4919TIP3   OH214762   5.774   1.201   3.652
 4919TIP3    H114763   5.812   1.194   3.565
 4919TIP3    H214764   5.761   1.111   3.680
 4920TIP3   OH214765   3.502   5.264   4.020
 4920TIP3    H114766   3.495   5.347   4.067
 4920TIP3    H214767   3.413   5.246   3.990
 4921TIP3   OH214768   4.860   4.808   2.847
 4921TIP3    H114769   4.835   4.732   2.795
 4921TIP3    H214770   4.953   4.795   2.867
 4922TIP3   OH214771   4.020   2.891   1.689
 4922TIP3    H114772   4.037   2.974   1.732
 4922TIP3    H214773   4.091   2.881   1.626
 4923TIP3   OH214774   5.327   5.330   0.954
 4923TIP3    H114775   5.324   5.417   0.913
 4923TIP3    H214776   5.398   5.337   1.018
 4924TIP3   OH214777   2.289   2.104   2.473
 4924TIP3    H114778   2.345   2.037   2.434
 4924TIP3    H214779   2.306   2.098   2.567
 4925TIP3   OH214780   3.421   1.480   1.308
 4925TIP3    H114781   3.417   1.572   1.334
 4925TIP3    H214782   3.437   1.433   1.390
 4926TIP3   OH214783   3.487   5.653   0.942
 4926TIP3    H114784   3.417   5.598   0.975
 4926TIP3    H214785   3.521   5.607   0.866
 4927TIP3   OH214786   5.254   3.883   2.895
 4927TIP3    H114787   5.323   3.839   2.845
 4927TIP3    H214788   5.248   3.970   2.855
 4928TIP3   OH214789   1.618   4.998   2.152
 4928TIP3    H114790   1.642   4.918   2.106
 4928TIP3    H214791   1.698   5.026   2.197
 4929TIP3   OH214792   4.840   3.903   1.850
 4929TIP3    H114793   4.860   3.826   1.797
 4929TIP3    H214794   4.748   3.894   1.873
 4930TIP3   OH214795   4.862   5.693   3.880
 4930TIP3    H114796   4.941   5.725   3.925
 4930TIP3    H214797   4.890   5.677   3.790
 4931TIP3   OH214798   1.851   3.787   3.302
 4931TIP3    H114799   1.885   3.738   3.228
 4931TIP3    H214800   1.904   3.758   3.377
 4932TIP3   OH214801   1.420   1.171   4.923
 4932TIP3    H114802   1.400   1.241   4.985
 4932TIP3    H214803   1.345   1.170   4.864
 4933TIP3   OH214804   3.217   3.903   0.324
 4933TIP3    H114805   3.123   3.918   0.323
 4933TIP3    H214806   3.249   3.947   0.245
 4934TIP3   OH214807   1.160   3.783   4.131
 4934TIP3    H114808   1.193   3.772   4.220
 4934TIP3    H214809   1.125   3.873   4.131
 4935TIP3   OH214810   5.957   4.939   3.250
 4935TIP3    H114811   5.927   4.870   3.191
 4935TIP3    H214812   5.970   5.015   3.194
 4936TIP3   OH214813   4.000   3.012   1.045
 4936TIP3    H114814   3.948   2.991   0.968
 4936TIP3    H214815   4.068   3.072   1.013
 4937TIP3   OH214816   0.556   3.584   1.620
 4937TIP3    H114817   0.513   3.613   1.700
 4937TIP3    H214818   0.524   3.644   1.552
 4938TIP3   OH214819   2.254   1.556   2.300
 4938TIP3    H114820   2.196   1.632   2.312
 4938TIP3    H214821   2.198   1.481   2.319
 4939TIP3   OH214822   1.195   5.932   3.751
 4939TIP3    H114823   1.225   6.020   3.774
 4939TIP3    H214824   1.200   5.929   3.656
 4940TIP3   OH214825   0.907   3.877   1.691
 4940TIP3    H114826   0.919   3.877   1.596
 4940TIP3    H214827   0.812   3.884   1.703
 4941TIP3   OH214828   3.990   5.469   0.039
 4941TIP3    H114829   4.073   5.515   0.054
 4941TIP3    H214830   3.944   5.475   0.123
 4942TIP3   OH214831   4.134   1.018   1.924
 4942TIP3    H114832   4.104   1.076   1.854
 4942TIP3    H214833   4.053   0.982   1.962
 4943TIP3   OH214834   4.331   1.867   2.579
 4943TIP3    H114835   4.255   1.849   2.635
 4943TIP3    H214836   4.368   1.781   2.560
 4944TIP3   OH214837   3.011   0.467   1.809
 4944TIP3    H114838   2.955   0.423   1.745
 4944TIP3    H214839   3.002   0.415   1.889
 4945TIP3   OH214840   0.880   4.196   1.641
 4945TIP3    H114841   0.848   4.111   1.610
 4945TIP3    H214842   0.934   4.174   1.718
 4946TIP3   OH214843   2.086   4.192   2.621
 4946TIP3    H114844   1.995   4.186   2.651
 4946TIP3    H214845   2.134   4.132   2.677
 4947TIP3   OH214846   2.622   1.383   4.909
 4947TIP3    H114847   2.659   1.469   4.887
 4947TIP3    H214848   2.562   1.401   4.982
 4948TIP3   OH214849   2.085   1.785   3.543
 4948TIP3    H114850   2.157   1.826   3.496
 4948TIP3    H214851   2.126   1.737   3.614
 4949TIP3   OH214852   3.909   4.631   1.543
 4949TIP3    H114853   3.968   4.706   1.543
 4949TIP3    H214854   3.822   4.668   1.554
 4950TIP3   OH214855   1.947   1.009   2.699
 4950TIP3    H114856   2.006   1.084   2.701
 4950TIP3    H214857   1.868   1.042   2.655
 4951TIP3   OH214858   6.071   4.640   3.397
 4951TIP3    H114859   6.145   4.682   3.439
 4951TIP3    H214860   6.094   4.636   3.304
 4952TIP3   OH214861   4.427   3.955   1.373
 4952TIP3    H114862   4.383   3.947   1.457
 4952TIP3    H214863   4.421   3.868   1.334
 4953TIP3   OH214864   2.724   4.088   4.762
 4953TIP3    H114865   2.758   4.176   4.745
 4953TIP3    H214866   2.797   4.029   4.745
 4954TIP3   OH214867   5.003   2.748   3.175
 4954TIP3    H114868   4.935   2.736   3.241
 4954TIP3    H214869   5.081   2.773   3.225
 4955TIP3   OH214870   5.694   2.050   4.248
 4955TIP3    H114871   5.700   2.075   4.340
 4955TIP3    H214872   5.712   1.956   4.248
 4956TIP3   OH214873   4.056   5.258   3.674
 4956TIP3    H114874   4.143   5.269   3.636
 4956TIP3    H214875   3.995   5.279   3.603
 4957TIP3   OH214876   5.788   4.986   4.003
 4957TIP3    H114877   5.712   5.002   3.947
 4957TIP3    H214878   5.853   5.051   3.974
 4958TIP3   OH214879   4.204   5.182   2.828
 4958TIP3    H114880   4.274   5.130   2.789
 4958TIP3    H214881   4.123   5.140   2.797
 4959TIP3   OH214882   0.673   0.793   4.982
 4959TIP3    H114883   0.625   0.731   5.038
 4959TIP3    H214884   0.656   0.763   4.893
 4960TIP3   OH214885   4.076   1.306   2.398
 4960TIP3    H114886   4.002   1.255   2.366
 4960TIP3    H214887   4.037   1.378   2.448
 4961TIP3   OH214888   1.014   1.135   3.815
 4961TIP3    H114889   1.046   1.083   3.741
 4961TIP3    H214890   0.981   1.215   3.776
 4962TIP3   OH214891   5.344   4.840   4.907
 4962TIP3    H114892   5.323   4.761   4.857
 4962TIP3    H214893   5.338   4.813   4.998
 4963TIP3   OH214894   0.870   4.261   4.645
 4963TIP3    H114895   0.847   4.169   4.659
 4963TIP3    H214896   0.944   4.276   4.703
 4964TIP3   OH214897   2.872   5.176   3.258
 4964TIP3    H114898   2.861   5.152   3.350
 4964TIP3    H214899   2.849   5.096   3.210
 4965TIP3   OH214900   0.544   4.735   4.777
 4965TIP3    H114901   0.474   4.793   4.748
 4965TIP3    H214902   0.521   4.713   4.868
 4966TIP3   OH214903   1.472   4.173   4.025
 4966TIP3    H114904   1.405   4.156   3.959
 4966TIP3    H214905   1.530   4.097   4.021
 4967TIP3   OH214906   4.390   0.331   5.117
 4967TIP3    H114907   4.449   0.258   5.137
 4967TIP3    H214908   4.365   0.317   5.026
 4968TIP3   OH214909   2.085   5.878   0.952
 4968TIP3    H114910   2.130   5.962   0.963
 4968TIP3    H214911   1.992   5.901   0.954
 4969TIP3   OH214912   2.107   3.282   0.235
 4969TIP3    H114913   2.178   3.240   0.188
 4969TIP3    H214914   2.052   3.320   0.166
 4970TIP3   OH214915   1.602   3.772   2.415
 4970TIP3    H114916   1.695   3.755   2.400
 4970TIP3    H214917   1.589   3.758   2.508
 4971TIP3   OH214918   4.960   4.825   2.456
 4971TIP3    H114919   4.922   4.913   2.459
 4971TIP3    H214920   4.899   4.775   2.402
 4972TIP3   OH214921   1.333   2.761   1.505
 4972TIP3    H114922   1.405   2.792   1.560
 4972TIP3    H214923   1.326   2.668   1.525
 4973TIP3   OH214924   1.824   3.362   4.324
 4973TIP3    H114925   1.870   3.389   4.244
 4973TIP3    H214926   1.797   3.272   4.306
 4974TIP3   OH214927   1.415   3.782   2.150
 4974TIP3    H114928   1.490   3.786   2.091
 4974TIP3    H214929   1.448   3.735   2.227
 4975TIP3   OH214930   3.276   5.871   0.971
 4975TIP3    H114931   3.343   5.805   0.956
 4975TIP3    H214932   3.238   5.888   0.885
 4976TIP3   OH214933   4.120   4.139   2.504
 4976TIP3    H114934   4.151   4.226   2.479
 4976TIP3    H214935   4.031   4.134   2.468
 4977TIP3   OH214936   3.281   0.957   0.765
 4977TIP3    H114937   3.322   0.874   0.790
 4977TIP3    H214938   3.353   1.010   0.732
 4978TIP3   OH214939   3.923   0.999   3.283
 4978TIP3    H114940   3.904   0.934   3.214
 4978TIP3    H214941   3.957   0.947   3.356
 4979TIP3   OH214942   1.388   3.345   3.415
 4979TIP3    H114943   1.352   3.396   3.342
 4979TIP3    H214944   1.400   3.408   3.485
 4980TIP3   OH214945   5.518   0.409   3.003
 4980TIP3    H114946   5.601   0.400   3.051
 4980TIP3    H214947   5.542   0.456   2.924
 4981TIP3   OH214948   1.558   3.807   4.782
 4981TIP3    H114949   1.489   3.820   4.847
 4981TIP3    H214950   1.539   3.872   4.714
 4982TIP3   OH214951   0.080   5.533   0.170
 4982TIP3    H114952   0.169   5.504   0.149
 4982TIP3    H214953   0.071   5.517   0.264
 4983TIP3   OH214954   0.245   3.662   0.360
 4983TIP3    H114955   0.165   3.714   0.362
 4983TIP3    H214956   0.243   3.617   0.276
 4984TIP3   OH214957   1.661   1.709   1.903
 4984TIP3    H114958   1.573   1.726   1.870
 4984TIP3    H214959   1.658   1.740   1.994
 4985TIP3   OH214960   1.211   3.925   4.488
 4985TIP3    H114961   1.287   3.872   4.463
 4985TIP3    H214962   1.238   3.971   4.567
 4986TIP3   OH214963   0.461   2.515   0.041
 4986TIP3    H114964   0.448   2.450   0.110
 4986TIP3    H214965   0.373   2.535   0.011
 4987TIP3   OH214966   1.691   0.479   3.119
 4987TIP3    H114967   1.596   0.475   3.119
 4987TIP3    H214968   1.712   0.573   3.122
 4988TIP3   OH214969   2.264   2.378   2.694
 4988TIP3    H114970   2.309   2.295   2.712
 4988TIP3    H214971   2.271   2.428   2.776
 4989TIP3   OH214972   5.600   1.462   2.993
 4989TIP3    H114973   5.527   1.406   3.018
 4989TIP3    H214974   5.564   1.522   2.928
 4990TIP3   OH214975   3.829   2.957   0.354
 4990TIP3    H114976   3.923   2.964   0.337
 4990TIP3    H214977   3.788   3.010   0.286
 4991TIP3   OH214978   3.103   4.078   4.219
 4991TIP3    H114979   3.041   4.124   4.162
 4991TIP3    H214980   3.126   3.999   4.170
 4992TIP3   OH214981   6.102   5.057   3.484
 4992TIP3    H114982   6.077   5.146   3.458
 4992TIP3    H214983   6.062   5.001   3.417
 4993TIP3   OH214984   4.800   1.409   3.628
 4993TIP3    H114985   4.749   1.338   3.589
 4993TIP3    H214986   4.827   1.463   3.554
 4994TIP3   OH214987   4.605   1.706   4.285
 4994TIP3    H114988   4.554   1.624   4.289
 4994TIP3    H214989   4.548   1.771   4.326
 4995TIP3   OH214990   4.708   0.754   1.587
 4995TIP3    H114991   4.667   0.794   1.664
 4995TIP3    H214992   4.776   0.816   1.561
 4996TIP3   OH214993   1.698   4.876   1.785
 4996TIP3    H114994   1.629   4.893   1.849
 4996TIP3    H214995   1.650   4.855   1.704
 4997TIP3   OH214996   2.692   1.051   2.169
 4997TIP3    H114997   2.725   1.089   2.088
 4997TIP3    H214998   2.652   1.124   2.216
 4998TIP3   OH214999   0.423   5.116   0.968
 4998TIP3    H115000   0.512   5.096   0.938
 4998TIP3    H215001   0.380   5.031   0.973
 4999TIP3   OH215002   3.264   4.928   1.720
 4999TIP3    H115003   3.181   4.971   1.743
 4999TIP3    H215004   3.332   4.989   1.748
 5000TIP3   OH215005   4.508   2.245   3.053
 5000TIP3    H115006   4.558   2.177   3.099
 5000TIP3    H215007   4.561   2.324   3.063
 5001TIP3   OH215008   1.221   3.430   2.377
 5001TIP3    H115009   1.198   3.357   2.319
 5001TIP3    H215010   1.303   3.463   2.342
 5002TIP3   OH215011   3.100   5.340   4.729
 5002TIP3    H115012   3.172   5.320   4.787
 5002TIP3    H215013   3.091   5.262   4.674
 5003TIP3   OH215014   0.646   0.027   5.207
 5003TIP3    H115015   0.664   0.103   5.152
 5003TIP3    H215016   0.575  -0.018   5.162
 5004TIP3   OH215017   5.852   2.144   3.824
 5004TIP3    H115018   5.888   2.233   3.835
 5004TIP3    H215019   5.786   2.137   3.894
 5005TIP3   OH215020   0.139   4.808   4.247
 5005TIP3    H115021   0.146   4.752   4.171
 5005TIP3    H215022   0.047   4.831   4.251
 5006TIP3   OH215023   1.759   4.288   3.695
 5006TIP3    H115024   1.761   4.250   3.783
 5006TIP3    H215025   1.678   4.255   3.657
 5007TIP3   OH215026   2.723   3.990   5.202
 5007TIP3    H115027   2.777   4.049   5.256
 5007TIP3    H215028   2.786   3.945   5.146
 5008TIP3   OH215029   1.255   3.840   2.753
 5008TIP3    H115030   1.343   3.864   2.784
 5008TIP3    H215031   1.267   3.817   2.661
 5009TIP3   OH215032   5.757   0.431   3.203
 5009TIP3    H115033   5.725   0.485   3.276
 5009TIP3    H215034   5.837   0.475   3.174
 5010TIP3   OH215035   2.305   1.450   1.352
 5010TIP3    H115036   2.399   1.458   1.366
 5010TIP3    H215037   2.267   1.514   1.413
 5011TIP3   OH215038   6.032   3.795   2.874
 5011TIP3    H115039   5.960   3.738   2.898
 5011TIP3    H215040   6.098   3.737   2.836
 5012TIP3   OH215041   0.606   4.874   2.858
 5012TIP3    H115042   0.578   4.782   2.849
 5012TIP3    H215043   0.590   4.895   2.949
 5013TIP3   OH215044   1.522   1.336   1.119
 5013TIP3    H115045   1.496   1.426   1.137
 5013TIP3    H215046   1.522   1.329   1.023
 5014TIP3   OH215047   5.313   2.359   3.226
 5014TIP3    H115048   5.223   2.330   3.239
 5014TIP3    H215049   5.357   2.284   3.187
 5015TIP3   OH215050   3.013   3.909   1.373
 5015TIP3    H115051   3.009   3.898   1.278
 5015TIP3    H215052   3.041   3.999   1.386
 5016TIP3   OH215053   1.711   2.557   3.968
 5016TIP3    H115054   1.694   2.613   3.892
 5016TIP3    H215055   1.761   2.483   3.934
 5017TIP3   OH215056   2.391   3.891   3.812
 5017TIP3    H115057   2.408   3.947   3.887
 5017TIP3    H215058   2.373   3.805   3.849
 5018TIP3   OH215059   2.955   5.728   5.137
 5018TIP3    H115060   2.952   5.709   5.231
 5018TIP3    H215061   2.870   5.768   5.118
 5019TIP3   OH215062   5.241   2.305   1.279
 5019TIP3    H115063   5.160   2.323   1.232
 5019TIP3    H215064   5.217   2.240   1.346
 5020TIP3   OH215065   2.425   5.888   4.091
 5020TIP3    H115066   2.516   5.858   4.095
 5020TIP3    H215067   2.419   5.955   4.159
 5021TIP3   OH215068   3.113   0.175   1.656
 5021TIP3    H115069   3.025   0.178   1.618
 5021TIP3    H215070   3.156   0.102   1.611
 5022TIP3   OH215071   1.397   3.368   4.675
 5022TIP3    H115072   1.342   3.296   4.644
 5022TIP3    H215073   1.347   3.447   4.656
 5023TIP3   OH215074   3.469   5.524   1.867
 5023TIP3    H115075   3.556   5.533   1.828
 5023TIP3    H215076   3.410   5.562   1.803
 5024TIP3   OH215077   0.987   2.216   1.753
 5024TIP3    H115078   0.946   2.298   1.779
 5024TIP3    H215079   0.920   2.172   1.700
 5025TIP3   OH215080   0.929   5.524   0.820
 5025TIP3    H115081   0.995   5.480   0.766
 5025TIP3    H215082   0.895   5.594   0.764
 5026TIP3   OH215083   6.367   5.007   3.835
 5026TIP3    H115084   6.348   4.991   3.742
 5026TIP3    H215085   6.360   4.921   3.876
 5027TIP3   OH215086   2.452   3.985   0.643
 5027TIP3    H115087   2.373   3.941   0.675
 5027TIP3    H215088   2.520   3.917   0.648
 5028TIP3   OH215089   1.702   4.661   3.576
 5028TIP3    H115090   1.795   4.685   3.573
 5028TIP3    H215091   1.686   4.642   3.668
 5029TIP3   OH215092   1.607   4.205   1.333
 5029TIP3    H115093   1.676   4.250   1.382
 5029TIP3    H215094   1.537   4.270   1.326
 5030TIP3   OH215095   3.855   2.709   4.745
 5030TIP3    H115096   3.897   2.624   4.729
 5030TIP3    H215097   3.892   2.766   4.678
 5031TIP3   OH215098   4.811   3.308   0.379
 5031TIP3    H115099   4.727   3.302   0.333
 5031TIP3    H215100   4.800   3.381   0.440
 5032TIP3   OH215101   0.308   3.181   0.741
 5032TIP3    H115102   0.254   3.133   0.805
 5032TIP3    H215103   0.306   3.126   0.663
 5033TIP3   OH215104   5.272   2.705   0.667
 5033TIP3    H115105   5.221   2.625   0.679
 5033TIP3    H215106   5.273   2.746   0.753
 5034TIP3   OH215107   4.994   0.838   4.374
 5034TIP3    H115108   5.053   0.865   4.303
 5034TIP3    H215109   4.924   0.791   4.330
 5035TIP3   OH215110   0.554   5.761   1.978
 5035TIP3    H115111   0.574   5.668   1.970
 5035TIP3    H215112   0.462   5.769   1.954
 5036TIP3   OH215113   4.129   0.725   0.995
 5036TIP3    H115114   4.133   0.700   1.087
 5036TIP3    H215115   4.133   0.820   0.995
 5037TIP3   OH215116   2.545   5.106   2.932
 5037TIP3    H115117   2.500   5.140   2.854
 5037TIP3    H215118   2.610   5.173   2.953
 5038TIP3   OH215119   5.032   3.178   1.821
 5038TIP3    H115120   5.046   3.197   1.729
 5038TIP3    H215121   4.964   3.111   1.822
 5039TIP3   OH215122   2.676   2.336   3.840
 5039TIP3    H115123   2.695   2.398   3.769
 5039TIP3    H215124   2.636   2.389   3.909
 5040TIP3   OH215125   0.260   4.515   4.427
 5040TIP3    H115126   0.299   4.551   4.348
 5040TIP3    H215127   0.203   4.445   4.395
 5041TIP3   OH215128   2.829   4.071   3.214
 5041TIP3    H115129   2.795   4.135   3.152
 5041TIP3    H215130   2.783   3.990   3.193
 5042TIP3   OH215131   0.409   3.865   2.377
 5042TIP3    H115132   0.361   3.811   2.314
 5042TIP3    H215133   0.401   3.817   2.459
 5043TIP3   OH215134   1.803   2.406   4.363
 5043TIP3    H115135   1.834   2.378   4.277
 5043TIP3    H215136   1.866   2.473   4.391
 5044TIP3   OH215137   5.286   5.904   1.995
 5044TIP3    H115138   5.331   5.941   2.071
 5044TIP3    H215139   5.353   5.903   1.926
 5045TIP3   OH215140   0.253   5.244   2.680
 5045TIP3    H115141   0.208   5.222   2.598
 5045TIP3    H215142   0.234   5.337   2.693
 5046TIP3   OH215143   3.707   4.296   0.247
 5046TIP3    H115144   3.726   4.388   0.262
 5046TIP3    H215145   3.762   4.272   0.172
 5047TIP3   OH215146   1.514   3.288   0.899
 5047TIP3    H115147   1.600   3.272   0.939
 5047TIP3    H215148   1.522   3.375   0.860
 5048TIP3   OH215149   0.093   0.484   5.078
 5048TIP3    H115150   0.053   0.571   5.079
 5048TIP3    H215151   0.114   0.468   4.986
 5049TIP3   OH215152   2.029   3.617   3.466
 5049TIP3    H115153   2.121   3.596   3.452
 5049TIP3    H215154   1.982   3.540   3.434
 5050TIP3   OH215155   2.706   5.799   4.573
 5050TIP3    H115156   2.794   5.787   4.609
 5050TIP3    H215157   2.720   5.843   4.489
 5051TIP3   OH215158   2.637   0.798   2.020
 5051TIP3    H115159   2.730   0.778   2.006
 5051TIP3    H215160   2.637   0.865   2.088
 5052TIP3   OH215161   1.303   5.732   4.015
 5052TIP3    H115162   1.348   5.800   3.966
 5052TIP3    H215163   1.327   5.651   3.971
 5053TIP3   OH215164   4.597   5.108   1.537
 5053TIP3    H115165   4.610   5.203   1.530
 5053TIP3    H215166   4.683   5.074   1.561
 5054TIP3   OH215167   2.948   4.635   0.687
 5054TIP3    H115168   2.951   4.549   0.729
 5054TIP3    H215169   2.857   4.644   0.657
 5055TIP3   OH215170   1.847   4.026   2.145
 5055TIP3    H115171   1.890   4.096   2.096
 5055TIP3    H215172   1.826   4.065   2.230
 5056TIP3   OH215173   2.948   1.934   0.538
 5056TIP3    H115174   3.028   1.881   0.544
 5056TIP3    H215175   2.959   1.985   0.458
 5057TIP3   OH215176   1.533   1.590   0.952
 5057TIP3    H115177   1.447   1.569   0.916
 5057TIP3    H215178   1.594   1.537   0.901
 5058TIP3   OH215179   3.319   0.145   1.262
 5058TIP3    H115180   3.262   0.221   1.275
 5058TIP3    H215181   3.339   0.116   1.351
 5059TIP3   OH215182   5.027   5.705   3.654
 5059TIP3    H115183   5.059   5.647   3.585
 5059TIP3    H215184   4.991   5.780   3.608
 5060TIP3   OH215185   6.161   2.558   1.604
 5060TIP3    H115186   6.250   2.524   1.594
 5060TIP3    H215187   6.161   2.639   1.553
 5061TIP3   OH215188   3.653   4.481   1.043
 5061TIP3    H115189   3.598   4.462   0.967
 5061TIP3    H215190   3.603   4.545   1.094
 5062TIP3   OH215191   6.261   4.543   0.313
 5062TIP3    H115192   6.297   4.464   0.353
 5062TIP3    H215193   6.260   4.523   0.219
 5063TIP3   OH215194   2.874   0.090   3.857
 5063TIP3    H115195   2.879   0.077   3.763
 5063TIP3    H215196   2.896   0.182   3.871
 5064TIP3   OH215197   5.769   4.168   4.252
 5064TIP3    H115198   5.703   4.237   4.265
 5064TIP3    H215199   5.801   4.182   4.163
 5065TIP3   OH215200   4.446   1.418   0.653
 5065TIP3    H115201   4.350   1.417   0.655
 5065TIP3    H215202   4.469   1.507   0.627
 5066TIP3   OH215203   1.590   3.232   4.955
 5066TIP3    H115204   1.587   3.201   4.865
 5066TIP3    H215205   1.682   3.252   4.971
 5067TIP3   OH215206   0.174   2.807   3.728
 5067TIP3    H115207   0.169   2.844   3.816
 5067TIP3    H215208   0.266   2.788   3.715
 5068TIP3   OH215209   0.826   2.656   3.293
 5068TIP3    H115210   0.775   2.708   3.230
 5068TIP3    H215211   0.867   2.588   3.240
 5069TIP3   OH215212   0.009   2.564   3.924
 5069TIP3    H115213  -0.017   2.572   3.833
 5069TIP3    H215214   0.083   2.504   3.924
 5070TIP3   OH215215   6.077   5.344   3.674
 5070TIP3    H115216   6.143   5.307   3.733
 5070TIP3    H215217   6.092   5.439   3.677
 5071TIP3   OH215218   0.736   3.741   0.956
 5071TIP3    H115219   0.803   3.696   1.008
 5071TIP3    H215220   0.669   3.675   0.939
 5072TIP3   OH215221   2.127   1.852   0.028
 5072TIP3    H115222   2.153   1.760   0.035
 5072TIP3    H215223   2.186   1.888  -0.039
 5073TIP3   OH215224   4.022   4.918   2.159
 5073TIP3    H115225   3.958   4.883   2.097
 5073TIP3    H215226   4.044   5.004   2.124
 5074TIP3   OH215227   4.507   1.446   4.254
 5074TIP3    H115228   4.520   1.382   4.184
 5074TIP3    H215229   4.515   1.396   4.335
 5075TIP3   OH215230   6.323   0.830   4.799
 5075TIP3    H115231   6.387   0.834   4.728
 5075TIP3    H215232   6.377   0.828   4.879
 5076TIP3   OH215233   3.180   0.113   1.949
 5076TIP3    H115234   3.127   0.048   1.995
 5076TIP3    H215235   3.131   0.132   1.868
 5077TIP3   OH215236   3.756   4.394   2.761
 5077TIP3    H115237   3.733   4.418   2.671
 5077TIP3    H215238   3.815   4.320   2.752
 5078TIP3   OH215239   2.742   1.592   3.714
 5078TIP3    H115240   2.724   1.500   3.732
 5078TIP3    H215241   2.793   1.622   3.790
 5079TIP3   OH215242   4.925   3.585   4.127
 5079TIP3    H115243   4.973   3.539   4.195
 5079TIP3    H215244   4.866   3.520   4.090
 5080TIP3   OH215245   5.268   3.906   5.202
 5080TIP3    H115246   5.312   3.919   5.118
 5080TIP3    H215247   5.339   3.896   5.266
 5081TIP3   OH215248   4.976   1.481   2.645
 5081TIP3    H115249   5.001   1.546   2.710
 5081TIP3    H215250   5.049   1.419   2.644
 5082TIP3   OH215251   3.192   4.660   1.698
 5082TIP3    H115252   3.124   4.705   1.749
 5082TIP3    H215253   3.264   4.723   1.695
 5083TIP3   OH215254   2.822   2.717   3.793
 5083TIP3    H115255   2.763   2.771   3.741
 5083TIP3    H215256   2.851   2.774   3.864
 5084TIP3   OH215257   0.095   3.431   2.665
 5084TIP3    H115258   0.154   3.442   2.590
 5084TIP3    H215259   0.152   3.408   2.738
 5085TIP3   OH215260   3.888   1.513   1.175
 5085TIP3    H115261   3.886   1.539   1.267
 5085TIP3    H215262   3.801   1.535   1.142
 5086TIP3   OH215263   3.306   3.264   1.393
 5086TIP3    H115264   3.267   3.290   1.309
 5086TIP3    H215265   3.291   3.170   1.398
 5087TIP3   OH215266   1.021   3.010   2.225
 5087TIP3    H115267   0.991   2.921   2.208
 5087TIP3    H215268   1.047   3.044   2.139
 5088TIP3   OH215269   5.058   3.418   0.557
 5088TIP3    H115270   5.060   3.323   0.572
 5088TIP3    H215271   5.133   3.451   0.605
 5089TIP3   OH215272   1.724   2.493   0.823
 5089TIP3    H115273   1.682   2.514   0.906
 5089TIP3    H215274   1.811   2.463   0.847
 5090TIP3   OH215275   2.369   0.655   4.016
 5090TIP3    H115276   2.422   0.735   4.007
 5090TIP3    H215277   2.412   0.606   4.086
 5091TIP3   OH215278   2.506   2.771   3.907
 5091TIP3    H115279   2.421   2.756   3.949
 5091TIP3    H215280   2.551   2.687   3.912
 5092TIP3   OH215281   0.777   1.437   3.118
 5092TIP3    H115282   0.741   1.439   3.207
 5092TIP3    H215283   0.721   1.496   3.068
 5093TIP3   OH215284   6.030   2.040   5.005
 5093TIP3    H115285   5.988   2.126   5.001
 5093TIP3    H215286   6.122   2.057   4.984
 5094TIP3   OH215287   2.942   3.929   4.747
 5094TIP3    H115288   2.978   3.954   4.662
 5094TIP3    H215289   2.954   3.834   4.751
 5095TIP3   OH215290   1.474   5.240   1.450
 5095TIP3    H115291   1.492   5.334   1.454
 5095TIP3    H215292   1.527   5.208   1.377
 5096TIP3   OH215293   1.627   0.904   3.553
 5096TIP3    H115294   1.685   0.879   3.481
 5096TIP3    H215295   1.683   0.907   3.630
 5097TIP3   OH215296   4.614   0.125   0.914
 5097TIP3    H115297   4.615   0.217   0.889
 5097TIP3    H215298   4.685   0.086   0.863
 5098TIP3   OH215299   4.640   2.601   0.251
 5098TIP3    H115300   4.561   2.577   0.298
 5098TIP3    H215301   4.686   2.518   0.237
 5099TIP3   OH215302   0.386   3.966   1.785
 5099TIP3    H115303   0.322   4.005   1.845
 5099TIP3    H215304   0.378   3.872   1.801
 5100TIP3   OH215305   6.171   3.818   4.260
 5100TIP3    H115306   6.211   3.733   4.277
 5100TIP3    H215307   6.226   3.856   4.191
 5101TIP3   OH215308   0.968   2.879   1.886
 5101TIP3    H115309   0.976   2.937   1.811
 5101TIP3    H215310   0.877   2.888   1.914
 5102TIP3   OH215311   3.888   5.987   3.621
 5102TIP3    H115312   3.800   5.998   3.585
 5102TIP3    H215313   3.877   5.927   3.695
 5103TIP3   OH215314   4.756   2.784   0.412
 5103TIP3    H115315   4.728   2.711   0.355
 5103TIP3    H215316   4.691   2.852   0.396
 5104TIP3   OH215317   5.601   2.846   2.780
 5104TIP3    H115318   5.624   2.927   2.735
 5104TIP3    H215319   5.539   2.873   2.848
 5105TIP3   OH215320   1.919   1.972   3.982
 5105TIP3    H115321   1.883   1.930   3.904
 5105TIP3    H215322   1.987   2.031   3.948
 5106TIP3   OH215323   2.111   4.483   0.700
 5106TIP3    H115324   2.041   4.517   0.755
 5106TIP3    H215325   2.117   4.391   0.724
 5107TIP3   OH215326   4.512   0.452   2.625
 5107TIP3    H115327   4.463   0.527   2.593
 5107TIP3    H215328   4.497   0.384   2.559
 5108TIP3   OH215329   6.133   4.971   1.162
 5108TIP3    H115330   6.177   5.022   1.094
 5108TIP3    H215331   6.047   4.951   1.124
 5109TIP3   OH215332  -0.016   4.565   4.186
 5109TIP3    H115333   0.056   4.577   4.123
 5109TIP3    H215334   0.011   4.492   4.240
 5110TIP3   OH215335   0.202   1.110   2.896
 5110TIP3    H115336   0.152   1.029   2.907
 5110TIP3    H215337   0.137   1.180   2.906
 5111TIP3   OH215338   5.919   4.203   5.042
 5111TIP3    H115339   5.864   4.129   5.069
 5111TIP3    H215340   5.938   4.186   4.949
 5112TIP3   OH215341   6.268   2.496   2.866
 5112TIP3    H115342   6.334   2.435   2.834
 5112TIP3    H215343   6.184   2.459   2.838
 5113TIP3   OH215344   4.062   4.055   4.650
 5113TIP3    H115345   3.969   4.035   4.663
 5113TIP3    H215346   4.086   4.109   4.725
 5114TIP3   OH215347   6.046   4.922   3.748
 5114TIP3    H115348   5.996   5.004   3.754
 5114TIP3    H215349   6.097   4.932   3.668
 5115TIP3   OH215350   3.406   2.864   5.037
 5115TIP3    H115351   3.334   2.828   5.091
 5115TIP3    H215352   3.418   2.799   4.968
 5116TIP3   OH215353   2.615   2.525   4.041
 5116TIP3    H115354   2.674   2.561   4.108
 5116TIP3    H215355   2.530   2.520   4.085
 5117TIP3   OH215356   1.284   5.383   2.359
 5117TIP3    H115357   1.215   5.322   2.330
 5117TIP3    H215358   1.305   5.434   2.281
 5118TIP3   OH215359   1.477   3.185   1.350
 5118TIP3    H115360   1.544   3.191   1.418
 5118TIP3    H215361   1.410   3.248   1.377
 5119TIP3   OH215362   2.973   4.951   0.328
 5119TIP3    H115363   2.888   4.910   0.312
 5119TIP3    H215364   2.953   5.044   0.338
 5120TIP3   OH215365   3.819   0.692   4.553
 5120TIP3    H115366   3.812   0.746   4.475
 5120TIP3    H215367   3.902   0.645   4.542
 5121TIP3   OH215368   1.298   1.351   1.685
 5121TIP3    H115369   1.208   1.333   1.660
 5121TIP3    H215370   1.312   1.299   1.764
 5122TIP3   OH215371   5.281   1.149   2.471
 5122TIP3    H115372   5.333   1.129   2.393
 5122TIP3    H215373   5.191   1.128   2.445
 5123TIP3   OH215374   1.961   0.646   4.661
 5123TIP3    H115375   1.959   0.552   4.645
 5123TIP3    H215376   1.904   0.658   4.737
 5124TIP3   OH215377   4.530   1.522   4.759
 5124TIP3    H115378   4.500   1.612   4.750
 5124TIP3    H215379   4.578   1.521   4.842
 5125TIP3   OH215380   6.230   4.622   4.655
 5125TIP3    H115381   6.216   4.657   4.568
 5125TIP3    H215382   6.182   4.682   4.713
 5126TIP3   OH215383   3.696   3.540   3.148
 5126TIP3    H115384   3.771   3.484   3.164
 5126TIP3    H215385   3.704   3.565   3.056
 5127TIP3   OH215386   5.739   4.375   3.509
 5127TIP3    H115387   5.756   4.300   3.453
 5127TIP3    H215388   5.666   4.347   3.565
 5128TIP3   OH215389   3.623   1.654   3.254
 5128TIP3    H115390   3.532   1.683   3.265
 5128TIP3    H215391   3.636   1.591   3.325
 5129TIP3   OH215392   1.734   1.277   2.831
 5129TIP3    H115393   1.685   1.208   2.875
 5129TIP3    H215394   1.811   1.290   2.885
 5130TIP3   OH215395   0.185   4.404   3.290
 5130TIP3    H115396   0.227   4.322   3.317
 5130TIP3    H215397   0.200   4.409   3.196
 5131TIP3   OH215398   2.627   1.467   1.916
 5131TIP3    H115399   2.539   1.488   1.949
 5131TIP3    H215400   2.656   1.547   1.873
 5132TIP3   OH215401   1.859   1.714   1.440
 5132TIP3    H115402   1.805   1.637   1.455
 5132TIP3    H215403   1.842   1.771   1.515
 5133TIP3   OH215404   5.865   1.273   0.361
 5133TIP3    H115405   5.839   1.181   0.354
 5133TIP3    H215406   5.881   1.286   0.455
 5134TIP3   OH215407   2.963   5.120   1.317
 5134TIP3    H115408   3.034   5.064   1.350
 5134TIP3    H215409   2.986   5.135   1.225
 5135TIP3   OH215410   3.314   1.110   2.823
 5135TIP3    H115411   3.310   1.182   2.886
 5135TIP3    H215412   3.252   1.045   2.857
 5136TIP3   OH215413   3.265   1.393   4.092
 5136TIP3    H115414   3.216   1.419   4.170
 5136TIP3    H215415   3.306   1.474   4.061
 5137TIP3   OH215416   3.231   2.958   1.368
 5137TIP3    H115417   3.173   3.034   1.372
 5137TIP3    H215418   3.190   2.900   1.305
 5138TIP3   OH215419   1.522   0.785   0.068
 5138TIP3    H115420   1.586   0.801   0.137
 5138TIP3    H215421   1.491   0.696   0.084
 5139TIP3   OH215422   2.924   2.625   0.911
 5139TIP3    H115423   2.883   2.692   0.856
 5139TIP3    H215424   2.892   2.542   0.876
 5140TIP3   OH215425   0.127   4.832   5.022
 5140TIP3    H115426   0.195   4.883   4.979
 5140TIP3    H215427   0.055   4.828   4.959
 5141TIP3   OH215428   6.094   1.032   3.742
 5141TIP3    H115429   6.062   0.944   3.765
 5141TIP3    H215430   6.101   1.078   3.825
 5142TIP3   OH215431   2.907   3.500   2.431
 5142TIP3    H115432   2.827   3.467   2.391
 5142TIP3    H215433   2.959   3.533   2.358
 5143TIP3   OH215434   5.739   1.091   2.171
 5143TIP3    H115435   5.753   1.166   2.230
 5143TIP3    H215436   5.808   1.099   2.105
 5144TIP3   OH215437   1.343   5.295   5.116
 5144TIP3    H115438   1.420   5.315   5.062
 5144TIP3    H215439   1.365   5.331   5.202
 5145TIP3   OH215440   5.546   5.361   1.794
 5145TIP3    H115441   5.637   5.332   1.801
 5145TIP3    H215442   5.551   5.445   1.748
 5146TIP3   OH215443   5.689   2.823   0.548
 5146TIP3    H115444   5.620   2.765   0.516
 5146TIP3    H215445   5.651   2.864   0.626
 5147TIP3   OH215446   4.918   3.384   3.204
 5147TIP3    H115447   4.987   3.323   3.231
 5147TIP3    H215448   4.951   3.471   3.228
 5148TIP3   OH215449   5.017   1.516   3.981
 5148TIP3    H115450   5.070   1.595   3.992
 5148TIP3    H215451   4.988   1.494   4.070
 5149TIP3   OH215452   1.781   0.297   1.450
 5149TIP3    H115453   1.825   0.227   1.402
 5149TIP3    H215454   1.749   0.356   1.382
 5150TIP3   OH215455   0.949   2.187   2.179
 5150TIP3    H115456   1.024   2.239   2.151
 5150TIP3    H215457   0.969   2.097   2.151
 5151TIP3   OH215458   3.715   0.176   0.913
 5151TIP3    H115459   3.696   0.259   0.957
 5151TIP3    H215460   3.647   0.169   0.846
 5152TIP3   OH215461   1.688   0.181   1.765
 5152TIP3    H115462   1.667   0.136   1.683
 5152TIP3    H215463   1.750   0.122   1.809
 5153TIP3   OH215464   4.523   2.545   1.923
 5153TIP3    H115465   4.501   2.481   1.855
 5153TIP3    H215466   4.580   2.608   1.879
 5154TIP3   OH215467   2.618   1.696   0.618
 5154TIP3    H115468   2.676   1.651   0.557
 5154TIP3    H215469   2.585   1.626   0.675
 5155TIP3   OH215470   4.402   5.694   3.605
 5155TIP3    H115471   4.469   5.678   3.671
 5155TIP3    H215472   4.385   5.609   3.565
 5156TIP3   OH215473   2.135   2.763   1.572
 5156TIP3    H115474   2.096   2.726   1.651
 5156TIP3    H215475   2.081   2.731   1.501
 5157TIP3   OH215476   0.182   1.081   0.909
 5157TIP3    H115477   0.177   1.085   1.005
 5157TIP3    H215478   0.257   1.136   0.887
 5158TIP3   OH215479   4.910   4.135   4.364
 5158TIP3    H115480   4.866   4.175   4.439
 5158TIP3    H215481   4.949   4.209   4.317
 5159TIP3   OH215482   0.977   0.779   2.894
 5159TIP3    H115483   1.028   0.861   2.890
 5159TIP3    H215484   0.892   0.806   2.929
 5160TIP3   OH215485   0.785   5.245   3.681
 5160TIP3    H115486   0.711   5.225   3.738
 5160TIP3    H215487   0.839   5.307   3.731
 5161TIP3   OH215488   4.947   1.101   3.404
 5161TIP3    H115489   4.866   1.073   3.447
 5161TIP3    H215490   4.940   1.067   3.315
 5162TIP3   OH215491   3.279   1.808   2.274
 5162TIP3    H115492   3.249   1.783   2.362
 5162TIP3    H215493   3.258   1.733   2.219
 5163TIP3   OH215494   3.574   4.544   1.405
 5163TIP3    H115495   3.495   4.521   1.356
 5163TIP3    H215496   3.618   4.609   1.350
 5164TIP3   OH215497   0.066   2.378   3.536
 5164TIP3    H115498  -0.010   2.340   3.580
 5164TIP3    H215499   0.059   2.472   3.554
 5165TIP3   OH215500   3.931   4.173   5.055
 5165TIP3    H115501   3.995   4.227   5.009
 5165TIP3    H215502   3.909   4.104   4.992
 5166TIP3   OH215503   0.396   5.047   0.308
 5166TIP3    H115504   0.335   4.981   0.341
 5166TIP3    H215505   0.472   4.997   0.280
 5167TIP3   OH215506   3.525   4.498   4.730
 5167TIP3    H115507   3.495   4.585   4.755
 5167TIP3    H215508   3.575   4.512   4.649
 5168TIP3   OH215509   4.919   3.660   0.154
 5168TIP3    H115510   5.004   3.648   0.196
 5168TIP3    H215511   4.929   3.739   0.100
 5169TIP3   OH215512   4.619   3.461   3.174
 5169TIP3    H115513   4.703   3.507   3.184
 5169TIP3    H215514   4.582   3.461   3.262
 5170TIP3   OH215515   4.461   1.605   1.041
 5170TIP3    H115516   4.368   1.603   1.018
 5170TIP3    H215517   4.502   1.546   0.978
 5171TIP3   OH215518   4.412   6.006   4.614
 5171TIP3    H115519   4.323   5.984   4.642
 5171TIP3    H215520   4.400   6.048   4.529
 5172TIP3   OH215521   5.115   5.810   1.691
 5172TIP3    H115522   5.024   5.835   1.676
 5172TIP3    H215523   5.139   5.853   1.773
 5173TIP3   OH215524   6.216   1.135   0.512
 5173TIP3    H115525   6.196   1.048   0.545
 5173TIP3    H215526   6.207   1.193   0.588
 5174TIP3   OH215527   1.164   1.659   3.148
 5174TIP3    H115528   1.176   1.565   3.162
 5174TIP3    H215529   1.074   1.676   3.176
 5175TIP3   OH215530   4.046   4.764   1.275
 5175TIP3    H115531   3.962   4.810   1.279
 5175TIP3    H215532   4.035   4.699   1.207
 5176TIP3   OH215533   5.371   4.883   3.643
 5176TIP3    H115534   5.421   4.815   3.688
 5176TIP3    H215535   5.400   4.879   3.552
 5177TIP3   OH215536   5.747   0.383   4.958
 5177TIP3    H115537   5.743   0.329   5.037
 5177TIP3    H215538   5.720   0.470   4.986
 5178TIP3   OH215539   2.923   1.847   2.483
 5178TIP3    H115540   3.004   1.796   2.480
 5178TIP3    H215541   2.877   1.823   2.403
 5179TIP3   OH215542   5.554   2.932   1.888
 5179TIP3    H115543   5.643   2.952   1.918
 5179TIP3    H215544   5.550   2.966   1.799
 5180TIP3   OH215545   5.222   5.239   2.070
 5180TIP3    H115546   5.141   5.202   2.105
 5180TIP3    H215547   5.252   5.300   2.137
 5181TIP3   OH215548   4.193   0.941   3.832
 5181TIP3    H115549   4.187   0.985   3.747
 5181TIP3    H215550   4.135   0.865   3.823
 5182TIP3   OH215551   0.614   4.120   3.014
 5182TIP3    H115552   0.530   4.095   3.052
 5182TIP3    H215553   0.592   4.162   2.931
 5183TIP3   OH215554   4.333   5.175   3.709
 5183TIP3    H115555   4.278   5.117   3.761
 5183TIP3    H215556   4.355   5.246   3.768
 5184TIP3   OH215557   0.644   2.501   1.628
 5184TIP3    H115558   0.687   2.583   1.651
 5184TIP3    H215559   0.610   2.515   1.540
 5185TIP3   OH215560   3.608   1.515   0.816
 5185TIP3    H115561   3.572   1.558   0.893
 5185TIP3    H215562   3.596   1.577   0.744
 5186TIP3   OH215563   3.197   0.994   2.558
 5186TIP3    H115564   3.203   1.067   2.496
 5186TIP3    H215565   3.160   1.032   2.638
 5187TIP3   OH215566   5.492   4.359   1.917
 5187TIP3    H115567   5.426   4.344   1.985
 5187TIP3    H215568   5.468   4.444   1.879
 5188TIP3   OH215569   1.292   0.127   3.953
 5188TIP3    H115570   1.350   0.191   3.993
 5188TIP3    H215571   1.293   0.148   3.860
 5189TIP3   OH215572   5.714   5.054   3.116
 5189TIP3    H115573   5.756   5.074   3.200
 5189TIP3    H215574   5.763   4.979   3.082
 5190TIP3   OH215575   0.242   2.893   4.028
 5190TIP3    H115576   0.251   2.904   4.122
 5190TIP3    H215577   0.254   2.799   4.013
 5191TIP3   OH215578   3.757   3.792   3.879
 5191TIP3    H115579   3.753   3.704   3.917
 5191TIP3    H215580   3.802   3.780   3.796
 5192TIP3   OH215581   3.567   1.264   0.017
 5192TIP3    H115582   3.485   1.238  -0.025
 5192TIP3    H215583   3.609   1.323  -0.045
 5193TIP3   OH215584   2.905   2.611   0.301
 5193TIP3    H115585   2.861   2.658   0.372
 5193TIP3    H215586   2.837   2.601   0.234
 5194TIP3   OH215587   1.876   1.059   0.118
 5194TIP3    H115588   1.852   1.120   0.048
 5194TIP3    H215589   1.951   1.010   0.082
 5195TIP3   OH215590   0.250   2.340   1.885
 5195TIP3    H115591   0.264   2.417   1.829
 5195TIP3    H215592   0.167   2.359   1.929
 5196TIP3   OH215593   1.200   3.949   3.017
 5196TIP3    H115594   1.106   3.938   3.031
 5196TIP3    H215595   1.215   3.920   2.927
 5197TIP3   OH215596   0.458   2.573   4.239
 5197TIP3    H115597   0.541   2.586   4.194
 5197TIP3    H215598   0.475   2.598   4.329
 5198TIP3   OH215599   5.172   1.378   2.832
 5198TIP3    H115600   5.083   1.364   2.865
 5198TIP3    H215601   5.191   1.470   2.852
 5199TIP3   OH215602   1.402   1.089   1.401
 5199TIP3    H115603   1.308   1.087   1.418
 5199TIP3    H215604   1.413   1.034   1.323
 5200TIP3   OH215605   2.727   0.746   3.407
 5200TIP3    H115606   2.803   0.803   3.415
 5200TIP3    H215607   2.659   0.801   3.368
 5201TIP3   OH215608   2.136   4.739   4.246
 5201TIP3    H115609   2.153   4.678   4.175
 5201TIP3    H215610   2.155   4.690   4.326
 5202TIP3   OH215611   2.410   5.369   2.009
 5202TIP3    H115612   2.415   5.458   2.045
 5202TIP3    H215613   2.407   5.382   1.915
 5203TIP3   OH215614   3.456   1.251   2.629
 5203TIP3    H115615   3.516   1.197   2.578
 5203TIP3    H215616   3.422   1.192   2.697
 5204TIP3   OH215617   0.231   1.287   4.723
 5204TIP3    H115618   0.192   1.263   4.639
 5204TIP3    H215619   0.321   1.312   4.701
 5205TIP3   OH215620   1.056   3.657   2.797
 5205TIP3    H115621   0.982   3.665   2.738
 5205TIP3    H215622   1.102   3.741   2.789
 5206TIP3   OH215623   4.067   0.442   2.524
 5206TIP3    H115624   4.115   0.521   2.499
 5206TIP3    H215625   4.094   0.376   2.461
 5207TIP3   OH215626   5.970   4.336   2.187
 5207TIP3    H115627   6.032   4.306   2.120
 5207TIP3    H215628   5.954   4.258   2.241
 5208TIP3   OH215629   4.835   0.447   3.244
 5208TIP3    H115630   4.751   0.407   3.268
 5208TIP3    H215631   4.890   0.373   3.219
 5209TIP3   OH215632   2.743   0.459   2.486
 5209TIP3    H115633   2.785   0.456   2.572
 5209TIP3    H215634   2.796   0.522   2.436
 5210TIP3   OH215635   5.113   3.879   3.116
 5210TIP3    H115636   5.082   3.968   3.132
 5210TIP3    H215637   5.142   3.880   3.025
 5211TIP3   OH215638   0.396   0.254   0.212
 5211TIP3    H115639   0.382   0.340   0.173
 5211TIP3    H215640   0.484   0.257   0.248
 5212TIP3   OH215641   0.434   3.680   1.387
 5212TIP3    H115642   0.409   3.605   1.335
 5212TIP3    H215643   0.363   3.690   1.451
 5213TIP3   OH215644   3.733   0.702   4.133
 5213TIP3    H115645   3.710   0.708   4.226
 5213TIP3    H215646   3.764   0.790   4.110
 5214TIP3   OH215647   1.683   5.416   1.083
 5214TIP3    H115648   1.687   5.434   1.176
 5214TIP3    H215649   1.657   5.324   1.077
 5215TIP3   OH215650   2.680   0.467   0.736
 5215TIP3    H115651   2.745   0.534   0.716
 5215TIP3    H215652   2.718   0.416   0.807
 5216TIP3   OH215653   0.162   3.916   0.149
 5216TIP3    H115654   0.162   4.011   0.141
 5216TIP3    H215655   0.248   3.889   0.116
 5217TIP3   OH215656   5.557   1.556   1.955
 5217TIP3    H115657   5.593   1.534   2.041
 5217TIP3    H215658   5.592   1.643   1.937
 5218TIP3   OH215659   0.575   0.216   2.306
 5218TIP3    H115660   0.543   0.188   2.220
 5218TIP3    H215661   0.525   0.161   2.368
 5219TIP3   OH215662   3.561   5.644   2.826
 5219TIP3    H115663   3.608   5.637   2.909
 5219TIP3    H215664   3.486   5.700   2.845
 5220TIP3   OH215665   5.071   4.296   2.655
 5220TIP3    H115666   5.005   4.362   2.634
 5220TIP3    H215667   5.086   4.250   2.572
 5221TIP3   OH215668   0.464   0.317   4.322
 5221TIP3    H115669   0.546   0.366   4.330
 5221TIP3    H215670   0.404   0.361   4.381
 5222TIP3   OH215671   5.637   0.588   5.087
 5222TIP3    H115672   5.614   0.574   5.178
 5222TIP3    H215673   5.557   0.623   5.047
 5223TIP3   OH215674   5.951   3.294   4.902
 5223TIP3    H115675   5.952   3.366   4.839
 5223TIP3    H215676   5.881   3.236   4.872
 5224TIP3   OH215677   6.083   0.239   0.192
 5224TIP3    H115678   6.020   0.289   0.140
 5224TIP3    H215679   6.031   0.170   0.233
 5225TIP3   OH215680   5.880   4.326   4.653
 5225TIP3    H115681   5.879   4.390   4.582
 5225TIP3    H215682   5.844   4.246   4.615
 5226TIP3   OH215683   4.684   3.042   4.757
 5226TIP3    H115684   4.691   3.134   4.731
 5226TIP3    H215685   4.758   3.028   4.815
 5227TIP3   OH215686   0.871   2.053   0.744
 5227TIP3    H115687   0.803   2.045   0.678
 5227TIP3    H215688   0.824   2.062   0.826
 5228TIP3   OH215689   1.679   0.120   4.935
 5228TIP3    H115690   1.735   0.198   4.927
 5228TIP3    H215691   1.656   0.098   4.845
 5229TIP3   OH215692   0.218   0.069   0.347
 5229TIP3    H115693   0.276   0.035   0.414
 5229TIP3    H215694   0.275   0.115   0.286
 5230TIP3   OH215695   1.111   0.303   0.973
 5230TIP3    H115696   1.081   0.237   1.035
 5230TIP3    H215697   1.160   0.365   1.027
 5231TIP3   OH215698   5.704   0.529   3.448
 5231TIP3    H115699   5.734   0.441   3.467
 5231TIP3    H215700   5.621   0.537   3.495
 5232TIP3   OH215701   0.835   1.000   5.185
 5232TIP3    H115702   0.876   0.946   5.117
 5232TIP3    H215703   0.746   1.015   5.152
 5233TIP3   OH215704   3.762   4.561   0.640
 5233TIP3    H115705   3.708   4.510   0.580
 5233TIP3    H215706   3.852   4.547   0.608
 5234TIP3   OH215707   3.388   0.922   2.260
 5234TIP3    H115708   3.301   0.945   2.291
 5234TIP3    H215709   3.386   0.827   2.250
 5235TIP3   OH215710   0.562   4.672   0.163
 5235TIP3    H115711   0.470   4.648   0.152
 5235TIP3    H215712   0.581   4.656   0.255
 5236TIP3   OH215713   0.518   5.429   3.025
 5236TIP3    H115714   0.550   5.508   3.069
 5236TIP3    H215715   0.429   5.451   2.997
 5237TIP3   OH215716   0.841   1.216   0.875
 5237TIP3    H115717   0.808   1.173   0.954
 5237TIP3    H215718   0.835   1.310   0.895
 5238TIP3   OH215719   6.047   5.110   1.387
 5238TIP3    H115720   5.958   5.083   1.411
 5238TIP3    H215721   6.063   5.067   1.303
 5239TIP3   OH215722   5.273   0.509   5.091
 5239TIP3    H115723   5.314   0.594   5.078
 5239TIP3    H215724   5.229   0.516   5.176
 5240TIP3   OH215725   4.947   3.309   5.211
 5240TIP3    H115726   4.874   3.300   5.272
 5240TIP3    H215727   4.912   3.282   5.127
 5241TIP3   OH215728   4.328   5.167  -0.027
 5241TIP3    H115729   4.331   5.099   0.040
 5241TIP3    H215730   4.236   5.196  -0.028
 5242TIP3   OH215731   2.300   5.291   0.916
 5242TIP3    H115732   2.295   5.282   0.821
 5242TIP3    H215733   2.275   5.382   0.932
 5243TIP3   OH215734   3.449   5.760   4.335
 5243TIP3    H115735   3.482   5.849   4.326
 5243TIP3    H215736   3.368   5.769   4.385
 5244TIP3   OH215737   5.545   3.317   1.412
 5244TIP3    H115738   5.630   3.360   1.427
 5244TIP3    H215739   5.509   3.361   1.335
 5245TIP3   OH215740   1.457   2.471   1.160
 5245TIP3    H115741   1.418   2.406   1.102
 5245TIP3    H215742   1.453   2.553   1.109
 5246TIP3   OH215743   2.233   3.312   4.991
 5246TIP3    H115744   2.262   3.401   5.011
 5246TIP3    H215745   2.147   3.322   4.951
 5247TIP3   OH215746   4.370   2.348   3.558
 5247TIP3    H115747   4.446   2.388   3.516
 5247TIP3    H215748   4.387   2.254   3.555
 5248TIP3   OH215749   5.372   2.247   3.996
 5248TIP3    H115750   5.315   2.243   3.920
 5248TIP3    H215751   5.342   2.175   4.052
 5249TIP3   OH215752   4.873   2.078   1.140
 5249TIP3    H115753   4.804   2.085   1.206
 5249TIP3    H215754   4.859   1.993   1.099
 5250TIP3   OH215755   5.111   1.552   5.007
 5250TIP3    H115756   5.135   1.508   4.926
 5250TIP3    H215757   5.171   1.515   5.072
 5251TIP3   OH215758   3.871   5.467   2.370
 5251TIP3    H115759   3.927   5.522   2.424
 5251TIP3    H215760   3.903   5.481   2.281
 5252TIP3   OH215761   4.837   3.658   2.943
 5252TIP3    H115762   4.824   3.696   3.030
 5252TIP3    H215763   4.827   3.731   2.883
 5253TIP3   OH215764   5.480   1.103   2.254
 5253TIP3    H115765   5.528   1.059   2.184
 5253TIP3    H215766   5.547   1.146   2.307
 5254TIP3   OH215767   1.406   5.726   3.220
 5254TIP3    H115768   1.430   5.743   3.311
 5254TIP3    H215769   1.337   5.790   3.201
 5255TIP3   OH215770   6.134   2.877   2.618
 5255TIP3    H115771   6.098   2.849   2.533
 5255TIP3    H215772   6.161   2.796   2.660
 5256TIP3   OH215773   0.356   0.841   0.743
 5256TIP3    H115774   0.292   0.802   0.803
 5256TIP3    H215775   0.401   0.907   0.797
 5257TIP3   OH215776   5.430   1.130   3.486
 5257TIP3    H115777   5.517   1.092   3.473
 5257TIP3    H215778   5.377   1.092   3.417
 5258TIP3   OH215779   1.937   3.003   4.301
 5258TIP3    H115780   1.918   2.913   4.277
 5258TIP3    H215781   1.851   3.044   4.311
 5259TIP3   OH215782   5.928   0.710   2.203
 5259TIP3    H115783   6.020   0.686   2.212
 5259TIP3    H215784   5.883   0.657   2.269
 5260TIP3   OH215785   3.678   0.098   1.967
 5260TIP3    H115786   3.766   0.063   1.980
 5260TIP3    H215787   3.632   0.031   1.917
 5261TIP3   OH215788   4.546   0.563   4.234
 5261TIP3    H115789   4.611   0.608   4.180
 5261TIP3    H215790   4.528   0.482   4.187
 5262TIP3   OH215791   4.617   4.261   4.044
 5262TIP3    H115792   4.652   4.281   4.131
 5262TIP3    H215793   4.627   4.343   3.995
 5263TIP3   OH215794   2.552   1.651   3.103
 5263TIP3    H115795   2.638   1.608   3.106
 5263TIP3    H215796   2.512   1.620   3.023
 5264TIP3   OH215797   1.032   4.426   3.474
 5264TIP3    H115798   1.116   4.385   3.455
 5264TIP3    H215799   1.055   4.516   3.498
 5265TIP3   OH215800   0.489   0.253   3.410
 5265TIP3    H115801   0.395   0.263   3.396
 5265TIP3    H215802   0.514   0.330   3.461
 5266TIP3   OH215803   0.609   2.805   2.305
 5266TIP3    H115804   0.529   2.809   2.251
 5266TIP3    H215805   0.595   2.730   2.362
 5267TIP3   OH215806   1.794   3.517   2.766
 5267TIP3    H115807   1.757   3.492   2.850
 5267TIP3    H215808   1.867   3.575   2.788
 5268TIP3   OH215809   3.548   5.945   5.108
 5268TIP3    H115810   3.601   5.867   5.092
 5268TIP3    H215811   3.573   6.005   5.038
 5269TIP3   OH215812   2.573   1.280   2.417
 5269TIP3    H115813   2.509   1.209   2.418
 5269TIP3    H215814   2.521   1.360   2.426
 5270TIP3   OH215815   4.974   2.812   3.455
 5270TIP3    H115816   4.927   2.766   3.525
 5270TIP3    H215817   5.066   2.787   3.468
 5271TIP3   OH215818   4.894   0.723   0.192
 5271TIP3    H115819   4.834   0.649   0.183
 5271TIP3    H215820   4.909   0.752   0.102
 5272TIP3   OH215821   0.195   2.157   0.863
 5272TIP3    H115822   0.253   2.139   0.937
 5272TIP3    H215823   0.111   2.118   0.888
 5273TIP3   OH215824   5.339   1.990   3.135
 5273TIP3    H115825   5.290   1.909   3.151
 5273TIP3    H215826   5.305   2.023   3.052
 5274TIP3   OH215827   4.603   5.743   2.343
 5274TIP3    H115828   4.665   5.699   2.285
 5274TIP3    H215829   4.651   5.759   2.424
 5275TIP3   OH215830   2.170   3.918   0.674
 5275TIP3    H115831   2.122   3.906   0.756
 5275TIP3    H215832   2.101   3.927   0.608
 5276TIP3   OH215833   4.897   4.093   2.280
 5276TIP3    H115834   4.809   4.111   2.313
 5276TIP3    H215835   4.890   4.106   2.186
 5277TIP3   OH215836   2.250   1.782   4.644
 5277TIP3    H115837   2.331   1.792   4.693
 5277TIP3    H215838   2.277   1.775   4.552
 5278TIP3   OH215839   0.688   5.738   0.956
 5278TIP3    H115840   0.682   5.658   1.008
 5278TIP3    H215841   0.713   5.709   0.869
 5279TIP3   OH215842   0.682   4.633   0.403
 5279TIP3    H115843   0.625   4.666   0.473
 5279TIP3    H215844   0.770   4.660   0.428
 5280TIP3   OH215845   5.385   4.286   0.777
 5280TIP3    H115846   5.411   4.310   0.688
 5280TIP3    H215847   5.452   4.222   0.804
 5281TIP3   OH215848   2.603   1.020   0.713
 5281TIP3    H115849   2.557   0.938   0.731
 5281TIP3    H215850   2.669   1.027   0.782
 5282TIP3   OH215851   2.659   5.954   0.775
 5282TIP3    H115852   2.747   5.954   0.738
 5282TIP3    H215853   2.602   5.926   0.704
 5283TIP3   OH215854   4.100   2.506   0.263
 5283TIP3    H115855   4.124   2.440   0.198
 5283TIP3    H215856   4.026   2.469   0.310
 5284TIP3   OH215857   5.089   0.139   0.114
 5284TIP3    H115858   5.042   0.062   0.145
 5284TIP3    H215859   5.148   0.106   0.046
 5285TIP3   OH215860   0.884   3.736   2.257
 5285TIP3    H115861   0.913   3.770   2.173
 5285TIP3    H215862   0.965   3.720   2.306
 5286TIP3   OH215863   4.415   5.749   4.022
 5286TIP3    H115864   4.391   5.761   4.114
 5286TIP3    H215865   4.331   5.734   3.978
 5287TIP3   OH215866   6.239   5.105   2.744
 5287TIP3    H115867   6.251   5.110   2.649
 5287TIP3    H215868   6.238   5.011   2.763
 5288TIP3   OH215869   1.076   4.296   3.812
 5288TIP3    H115870   0.999   4.244   3.834
 5288TIP3    H215871   1.091   4.278   3.719
 5289TIP3   OH215872   1.477   2.893   4.900
 5289TIP3    H115873   1.556   2.900   4.954
 5289TIP3    H215874   1.509   2.893   4.810
 5290TIP3   OH215875   0.625   4.112   2.021
 5290TIP3    H115876   0.596   4.168   2.092
 5290TIP3    H215877   0.605   4.023   2.050
 5291TIP3   OH215878   5.275   1.588   1.557
 5291TIP3    H115879   5.279   1.568   1.650
 5291TIP3    H215880   5.365   1.576   1.526
 5292TIP3   OH215881   5.787   2.459   4.324
 5292TIP3    H115882   5.797   2.481   4.231
 5292TIP3    H215883   5.704   2.411   4.329
 5293TIP3   OH215884   2.822   1.544   3.072
 5293TIP3    H115885   2.851   1.456   3.094
 5293TIP3    H215886   2.823   1.546   2.976
 5294TIP3   OH215887   4.637   4.050   1.043
 5294TIP3    H115888   4.696   4.110   0.998
 5294TIP3    H215889   4.695   3.990   1.090
 5295TIP3   OH215890   6.123   4.516   1.258
 5295TIP3    H115891   6.027   4.521   1.253
 5295TIP3    H215892   6.151   4.517   1.166
 5296TIP3   OH215893   2.707   1.277   3.219
 5296TIP3    H115894   2.784   1.260   3.273
 5296TIP3    H215895   2.656   1.340   3.271
 5297TIP3   OH215896   5.290   4.182   3.400
 5297TIP3    H115897   5.268   4.241   3.472
 5297TIP3    H215898   5.233   4.210   3.328
 5298TIP3   OH215899   5.196   1.727   2.099
 5298TIP3    H115900   5.197   1.681   2.015
 5298TIP3    H215901   5.104   1.729   2.125
 5299TIP3   OH215902   2.052   0.234   1.807
 5299TIP3    H115903   2.022   0.311   1.759
 5299TIP3    H215904   2.126   0.201   1.756
 5300TIP3   OH215905   1.801   4.916   3.746
 5300TIP3    H115906   1.710   4.891   3.758
 5300TIP3    H215907   1.801   4.966   3.664
 5301TIP3   OH215908   2.131   0.195   2.237
 5301TIP3    H115909   2.186   0.214   2.161
 5301TIP3    H215910   2.062   0.261   2.232
 5302TIP3   OH215911   2.648   3.437   3.698
 5302TIP3    H115912   2.712   3.409   3.632
 5302TIP3    H215913   2.698   3.489   3.760
 5303TIP3   OH215914   5.049   0.347   3.119
 5303TIP3    H115915   5.038   0.267   3.068
 5303TIP3    H215916   5.143   0.350   3.138
 5304TIP3   OH215917   2.718   5.302   3.039
 5304TIP3    H115918   2.780   5.260   3.098
 5304TIP3    H215919   2.735   5.396   3.048
 5305TIP3   OH215920   4.131   1.790   2.747
 5305TIP3    H115921   4.173   1.731   2.810
 5305TIP3    H215922   4.058   1.828   2.796
 5306TIP3   OH215923   5.888   3.592   1.350
 5306TIP3    H115924   5.967   3.538   1.352
 5306TIP3    H215925   5.907   3.660   1.286
 5307TIP3   OH215926   3.514   3.350   0.966
 5307TIP3    H115927   3.557   3.268   0.986
 5307TIP3    H215928   3.512   3.354   0.870
 5308TIP3   OH215929   4.526   5.837   0.793
 5308TIP3    H115930   4.541   5.801   0.880
 5308TIP3    H215931   4.555   5.768   0.733
 5309TIP3   OH215932   4.663   0.678   0.867
 5309TIP3    H115933   4.605   0.745   0.903
 5309TIP3    H215934   4.671   0.699   0.774
 5310TIP3   OH215935   3.108   3.113   0.952
 5310TIP3    H115936   3.070   3.037   0.997
 5310TIP3    H215937   3.193   3.126   0.995
 5311TIP3   OH215938   3.823   1.635   5.084
 5311TIP3    H115939   3.729   1.652   5.080
 5311TIP3    H215940   3.829   1.545   5.116
 5312TIP3   OH215941   1.310   3.104   4.873
 5312TIP3    H115942   1.368   3.034   4.903
 5312TIP3    H215943   1.254   3.123   4.949
 5313TIP3   OH215944   4.435   4.836   2.323
 5313TIP3    H115945   4.440   4.902   2.392
 5313TIP3    H215946   4.499   4.769   2.349
 5314TIP3   OH215947   2.616   5.279   4.684
 5314TIP3    H115948   2.674   5.348   4.717
 5314TIP3    H215949   2.615   5.214   4.753
 5315TIP3   OH215950   0.239   5.745   1.461
 5315TIP3    H115951   0.294   5.781   1.391
 5315TIP3    H215952   0.266   5.654   1.468
 5316TIP3   OH215953   0.682   4.015   0.888
 5316TIP3    H115954   0.589   3.998   0.874
 5316TIP3    H215955   0.715   3.934   0.927
 5317TIP3   OH215956   5.364   3.303   1.052
 5317TIP3    H115957   5.334   3.373   0.995
 5317TIP3    H215958   5.356   3.338   1.140
 5318TIP3   OH215959   0.152   5.898   3.578
 5318TIP3    H115960   0.156   5.904   3.673
 5318TIP3    H215961   0.145   5.989   3.549
 5319TIP3   OH215962   3.663   4.684   1.645
 5319TIP3    H115963   3.616   4.730   1.714
 5319TIP3    H215964   3.601   4.619   1.613
 5320TIP3   OH215965   0.182   0.468   1.737
 5320TIP3    H115966   0.090   0.452   1.760
 5320TIP3    H215967   0.225   0.486   1.820
 5321TIP3   OH215968   0.343   2.031   0.667
 5321TIP3    H115969   0.333   1.937   0.686
 5321TIP3    H215970   0.287   2.074   0.731
 5322TIP3   OH215971   2.959   3.918   1.852
 5322TIP3    H115972   2.902   3.995   1.853
 5322TIP3    H215973   3.007   3.925   1.769
 5323TIP3   OH215974   4.582   5.635   0.363
 5323TIP3    H115975   4.519   5.571   0.396
 5323TIP3    H215976   4.555   5.718   0.402
 5324TIP3   OH215977   3.685   1.853   1.336
 5324TIP3    H115978   3.696   1.925   1.398
 5324TIP3    H215979   3.658   1.779   1.389
 5325TIP3   OH215980   4.878   1.729   4.206
 5325TIP3    H115981   4.912   1.810   4.245
 5325TIP3    H215982   4.791   1.718   4.246
 5326TIP3   OH215983   5.807   5.489   0.047
 5326TIP3    H115984   5.900   5.497   0.025
 5326TIP3    H215985   5.793   5.556   0.115
 5327TIP3   OH215986   5.915   3.721   4.421
 5327TIP3    H115987   5.915   3.814   4.444
 5327TIP3    H215988   6.002   3.705   4.385
 5328TIP3   OH215989   6.410   3.241   0.585
 5328TIP3    H115990   6.370   3.309   0.639
 5328TIP3    H215991   6.338   3.179   0.567
 5329TIP3   OH215992   2.376   5.458   4.942
 5329TIP3    H115993   2.343   5.500   5.021
 5329TIP3    H215994   2.418   5.377   4.973
 5330TIP3   OH215995   1.805   2.172   3.433
 5330TIP3    H115996   1.886   2.214   3.404
 5330TIP3    H215997   1.832   2.112   3.502
 5331TIP3   OH215998   3.720   2.144   3.369
 5331TIP3    H115999   3.750   2.108   3.453
 5331TIP3    H216000   3.691   2.232   3.391
 5332TIP3   OH216001   0.617   4.000   0.029
 5332TIP3    H116002   0.638   4.085   0.068
 5332TIP3    H216003   0.651   3.936   0.092
 5333TIP3   OH216004   2.738   2.087   3.471
 5333TIP3    H116005   2.794   2.023   3.515
 5333TIP3    H216006   2.798   2.156   3.444
 5334TIP3   OH216007   2.489   2.222   4.342
 5334TIP3    H116008   2.543   2.226   4.263
 5334TIP3    H216009   2.530   2.286   4.402
 5335TIP3   OH216010   0.131   5.353   1.490
 5335TIP3    H116011   0.130   5.362   1.394
 5335TIP3    H216012   0.040   5.337   1.514
 5336TIP3   OH216013   3.889   4.605   0.094
 5336TIP3    H116014   3.824   4.621   0.025
 5336TIP3    H216015   3.973   4.605   0.048
 5337TIP3   OH216016   2.520   3.516   0.913
 5337TIP3    H116017   2.504   3.564   0.994
 5337TIP3    H216018   2.454   3.549   0.852
 5338TIP3   OH216019   5.924   1.033   0.614
 5338TIP3    H116020   5.907   1.127   0.617
 5338TIP3    H216021   5.887   1.000   0.697
 5339TIP3   OH216022   3.124   3.076   4.888
 5339TIP3    H116023   3.154   3.165   4.904
 5339TIP3    H216024   3.167   3.051   4.806
 5340TIP3   OH216025   1.355   1.238   1.934
 5340TIP3    H116026   1.418   1.171   1.907
 5340TIP3    H216027   1.288   1.191   1.983
 5341TIP3   OH216028   6.168   4.333   4.960
 5341TIP3    H116029   6.208   4.273   5.023
 5341TIP3    H216030   6.137   4.276   4.889
 5342TIP3   OH216031   6.340   5.498   3.236
 5342TIP3    H116032   6.269   5.464   3.291
 5342TIP3    H216033   6.335   5.447   3.156
 5343TIP3   OH216034   0.101   3.681   1.260
 5343TIP3    H116035   0.110   3.605   1.203
 5343TIP3    H216036   0.191   3.707   1.280
 5344TIP3   OH216037   3.732   4.274   1.599
 5344TIP3    H116038   3.706   4.341   1.663
 5344TIP3    H216039   3.696   4.305   1.516
 5345TIP3   OH216040   1.514   1.148   3.696
 5345TIP3    H116041   1.468   1.118   3.617
 5345TIP3    H216042   1.601   1.109   3.690
 5346TIP3   OH216043   1.878   2.685   1.967
 5346TIP3    H116044   1.817   2.657   1.898
 5346TIP3    H216045   1.826   2.741   2.024
 5347TIP3   OH216046   5.302   1.107   0.404
 5347TIP3    H116047   5.236   1.046   0.373
 5347TIP3    H216048   5.376   1.051   0.431
 5348TIP3   OH216049   0.675   5.995   4.507
 5348TIP3    H116050   0.702   6.002   4.598
 5348TIP3    H216051   0.689   5.903   4.484
 5349TIP3   OH216052   3.207   2.972   2.956
 5349TIP3    H116053   3.222   2.934   2.870
 5349TIP3    H216054   3.228   2.902   3.017
 5350TIP3   OH216055   1.577   0.804   0.625
 5350TIP3    H116056   1.519   0.782   0.697
 5350TIP3    H216057   1.625   0.881   0.654
 5351TIP3   OH216058   3.989   0.050   3.278
 5351TIP3    H116059   4.060   0.077   3.220
 5351TIP3    H216060   3.909   0.074   3.231
 5352TIP3   OH216061   1.833   0.616   5.076
 5352TIP3    H116062   1.828   0.555   5.002
 5352TIP3    H216063   1.764   0.587   5.136
 5353TIP3   OH216064   5.340   2.950   0.238
 5353TIP3    H116065   5.314   2.925   0.327
 5353TIP3    H216066   5.280   2.903   0.181
 5354TIP3   OH216067   3.351   5.220   1.761
 5354TIP3    H116068   3.264   5.245   1.728
 5354TIP3    H216069   3.412   5.272   1.709
 5355TIP3   OH216070   2.012   5.210   3.137
 5355TIP3    H116071   2.020   5.119   3.109
 5355TIP3    H216072   2.054   5.212   3.223
 5356TIP3   OH216073   5.815   0.106   0.396
 5356TIP3    H116074   5.768   0.189   0.391
 5356TIP3    H216075   5.801   0.076   0.486
 5357TIP3   OH216076   0.111   3.310   1.468
 5357TIP3    H116077   0.137   3.240   1.528
 5357TIP3    H216078   0.075   3.378   1.525
 5358TIP3   OH216079   3.368   4.262   3.570
 5358TIP3    H116080   3.410   4.197   3.627
 5358TIP3    H216081   3.414   4.253   3.487
 5359TIP3   OH216082   4.917   0.456   2.014
 5359TIP3    H116083   4.926   0.512   2.091
 5359TIP3    H216084   4.940   0.512   1.940
 5360TIP3   OH216085   2.763   2.347   2.700
 5360TIP3    H116086   2.694   2.401   2.739
 5360TIP3    H216087   2.836   2.408   2.687
 5361TIP3   OH216088   4.796   3.545   0.580
 5361TIP3    H116089   4.891   3.547   0.584
 5361TIP3    H216090   4.769   3.637   0.578
 5362TIP3   OH216091   1.544   1.874   1.464
 5362TIP3    H116092   1.504   1.900   1.380
 5362TIP3    H216093   1.474   1.829   1.510
 5363TIP3   OH216094   2.865   3.216   3.765
 5363TIP3    H116095   2.774   3.189   3.783
 5363TIP3    H216096   2.865   3.239   3.672
 5364TIP3   OH216097   6.003   2.814   3.195
 5364TIP3    H116098   6.066   2.745   3.171
 5364TIP3    H216099   5.957   2.778   3.270
 5365TIP3   OH216100   5.766   3.111   1.614
 5365TIP3    H116101   5.736   3.181   1.556
 5365TIP3    H216102   5.825   3.155   1.675
 5366TIP3   OH216103   4.165   0.069   2.708
 5366TIP3    H116104   4.110   0.091   2.632
 5366TIP3    H216105   4.222   0.145   2.718
 5367TIP3   OH216106   5.837   1.850   2.555
 5367TIP3    H116107   5.763   1.911   2.562
 5367TIP3    H216108   5.849   1.818   2.644
 5368TIP3   OH216109   0.749   3.924   0.389
 5368TIP3    H116110   0.734   3.927   0.484
 5368TIP3    H216111   0.669   3.883   0.354
 5369TIP3   OH216112   1.278   3.301   0.222
 5369TIP3    H116113   1.226   3.306   0.141
 5369TIP3    H216114   1.327   3.219   0.213
 5370TIP3   OH216115   3.376   3.694   2.006
 5370TIP3    H116116   3.440   3.713   1.938
 5370TIP3    H216117   3.294   3.679   1.959
 5371TIP3   OH216118   4.293   1.429   0.405
 5371TIP3    H116119   4.339   1.491   0.461
 5371TIP3    H216120   4.301   1.465   0.317
 5372TIP3   OH216121   5.561   2.568   2.950
 5372TIP3    H116122   5.632   2.633   2.950
 5372TIP3    H216123   5.595   2.495   3.002
 5373TIP3   OH216124   0.556   4.145   2.736
 5373TIP3    H116125   0.647   4.126   2.711
 5373TIP3    H216126   0.504   4.079   2.689
 5374TIP3   OH216127   1.080   2.557   4.802
 5374TIP3    H116128   1.015   2.538   4.870
 5374TIP3    H216129   1.129   2.632   4.837
 5375TIP3   OH216130   3.828   5.622   4.385
 5375TIP3    H116131   3.793   5.701   4.427
 5375TIP3    H216132   3.922   5.636   4.385
 5376TIP3   OH216133   4.951   0.732   3.573
 5376TIP3    H116134   5.037   0.766   3.598
 5376TIP3    H216135   4.961   0.637   3.576
 5377TIP3   OH216136   3.649   0.324   0.353
 5377TIP3    H116137   3.573   0.381   0.367
 5377TIP3    H216138   3.640   0.256   0.419
 5378TIP3   OH216139   5.546   2.810   0.165
 5378TIP3    H116140   5.497   2.728   0.151
 5378TIP3    H216141   5.480   2.872   0.198
 5379TIP3   OH216142   4.960   2.862   2.608
 5379TIP3    H116143   5.055   2.859   2.599
 5379TIP3    H216144   4.928   2.879   2.519
 5380TIP3   OH216145   4.666   0.000   2.886
 5380TIP3    H116146   4.599  -0.020   2.821
 5380TIP3    H216147   4.737   0.041   2.836
 5381TIP3   OH216148   3.347   2.995   0.715
 5381TIP3    H116149   3.355   3.034   0.802
 5381TIP3    H216150   3.255   2.970   0.709
 5382TIP3   OH216151   5.615   3.939   1.608
 5382TIP3    H116152   5.593   3.990   1.686
 5382TIP3    H216153   5.534   3.892   1.587
 5383TIP3   OH216154   5.418   5.491   2.001
 5383TIP3    H116155   5.328   5.498   1.969
 5383TIP3    H216156   5.465   5.446   1.931
 5384TIP3   OH216157   1.058   4.469   2.749
 5384TIP3    H116158   1.056   4.444   2.842
 5384TIP3    H216159   0.980   4.428   2.711
 5385TIP3   OH216160   4.661   0.940   3.175
 5385TIP3    H116161   4.729   0.921   3.241
 5385TIP3    H216162   4.647   0.856   3.131
 5386TIP3   OH216163   4.693   4.157   2.457
 5386TIP3    H116164   4.616   4.207   2.431
 5386TIP3    H216165   4.662   4.096   2.523
 5387TIP3   OH216166   5.454   1.103   1.679
 5387TIP3    H116167   5.446   1.197   1.689
 5387TIP3    H216168   5.426   1.067   1.763
 5388TIP3   OH216169   5.256   3.909   0.770
 5388TIP3    H116170   5.253   3.859   0.688
 5388TIP3    H216171   5.188   3.975   0.760
 5389TIP3   OH216172   5.191   3.914   3.405
 5389TIP3    H116173   5.225   4.000   3.429
 5389TIP3    H216174   5.179   3.918   3.310
 5390TIP3   OH216175   4.179   4.997   1.186
 5390TIP3    H116176   4.261   4.961   1.153
 5390TIP3    H216177   4.134   4.923   1.226
 5391TIP3   OH216178   5.427   4.618   1.465
 5391TIP3    H116179   5.378   4.700   1.456
 5391TIP3    H216180   5.438   4.586   1.376
 5392TIP3   OH216181   1.991   5.216   4.241
 5392TIP3    H116182   2.078   5.180   4.224
 5392TIP3    H216183   1.991   5.301   4.196
 5393TIP3   OH216184   1.970   1.900   4.415
 5393TIP3    H116185   2.020   1.857   4.485
 5393TIP3    H216186   1.988   1.847   4.337
 5394TIP3   OH216187   5.378   0.424   1.146
 5394TIP3    H116188   5.333   0.412   1.229
 5394TIP3    H216189   5.398   0.336   1.116
 5395TIP3   OH216190   5.220   4.383   1.112
 5395TIP3    H116191   5.276   4.359   1.186
 5395TIP3    H216192   5.202   4.300   1.068
 5396TIP3   OH216193   6.396   1.897   1.391
 5396TIP3    H116194   6.405   1.803   1.372
 5396TIP3    H216195   6.308   1.919   1.359
 5397TIP3   OH216196   3.002   5.520   3.094
 5397TIP3    H116197   2.907   5.519   3.086
 5397TIP3    H216198   3.018   5.535   3.188
 5398TIP3   OH216199   2.866   2.521   4.579
 5398TIP3    H116200   2.837   2.545   4.667
 5398TIP3    H216201   2.961   2.512   4.587
 5399TIP3   OH216202   5.900   3.182   0.721
 5399TIP3    H116203   5.836   3.112   0.715
 5399TIP3    H216204   5.921   3.204   0.630
 5400TIP3   OH216205   5.706   1.729   0.831
 5400TIP3    H116206   5.758   1.681   0.767
 5400TIP3    H216207   5.621   1.684   0.831
 5401TIP3   OH216208   3.664   3.269   2.799
 5401TIP3    H116209   3.656   3.222   2.882
 5401TIP3    H216210   3.694   3.202   2.737
 5402TIP3   OH216211   3.523   2.354   3.095
 5402TIP3    H116212   3.589   2.422   3.108
 5402TIP3    H216213   3.496   2.364   3.004
 5403TIP3   OH216214   4.518   3.546   3.421
 5403TIP3    H116215   4.465   3.467   3.425
 5403TIP3    H216216   4.454   3.617   3.411
 5404TIP3   OH216217   4.670   1.615   0.470
 5404TIP3    H116218   4.659   1.682   0.537
 5404TIP3    H216219   4.733   1.553   0.507
 5405TIP3   OH216220   0.314   6.033   5.205
 5405TIP3    H116221   0.276   5.954   5.242
 5405TIP3    H216222   0.389   6.003   5.154
 5406TIP3   OH216223   2.137   0.193   1.128
 5406TIP3    H116224   2.144   0.125   1.195
 5406TIP3    H216225   2.059   0.169   1.078
 5407TIP3   OH216226   5.163   5.384   1.598
 5407TIP3    H116227   5.207   5.466   1.620
 5407TIP3    H216228   5.144   5.342   1.682
 5408TIP3   OH216229   2.649   2.449   0.492
 5408TIP3    H116230   2.614   2.373   0.445
 5408TIP3    H216231   2.573   2.506   0.505
 5409TIP3   OH216232   5.354   5.257   2.992
 5409TIP3    H116233   5.287   5.325   2.982
 5409TIP3    H216234   5.411   5.269   2.916
 5410TIP3   OH216235   2.760   3.344   1.566
 5410TIP3    H116236   2.850   3.341   1.599
 5410TIP3    H216237   2.706   3.342   1.645
 5411TIP3   OH216238   2.176   2.050   4.159
 5411TIP3    H116239   2.160   2.106   4.236
 5411TIP3    H216240   2.133   1.967   4.180
 5412TIP3   OH216241   0.497   5.724   1.611
 5412TIP3    H116242   0.413   5.707   1.653
 5412TIP3    H216243   0.478   5.718   1.517
 5413TIP3   OH216244   1.348   4.241   3.270
 5413TIP3    H116245   1.287   4.168   3.278
 5413TIP3    H216246   1.350   4.261   3.176
 5414TIP3   OH216247   5.176   1.142   4.465
 5414TIP3    H116248   5.092   1.187   4.474
 5414TIP3    H216249   5.181   1.119   4.372
 5415TIP3   OH216250   5.913   4.356   0.326
 5415TIP3    H116251   5.898   4.373   0.418
 5415TIP3    H216252   5.826   4.342   0.289
 5416TIP3   OH216253   3.086   1.153   5.108
 5416TIP3    H116254   2.993   1.140   5.086
 5416TIP3    H216255   3.119   1.208   5.037
 5417TIP3   OH216256   4.311   4.320   3.973
 5417TIP3    H116257   4.388   4.366   4.006
 5417TIP3    H216258   4.273   4.379   3.908
 5418TIP3   OH216259   2.551   5.019   0.907
 5418TIP3    H116260   2.551   4.981   0.819
 5418TIP3    H216261   2.459   5.015   0.935
 5419TIP3   OH216262   5.796   3.022   1.987
 5419TIP3    H116263   5.801   3.063   2.074
 5419TIP3    H216264   5.822   3.092   1.927
 5420TIP3   OH216265   4.642   1.586   1.667
 5420TIP3    H116266   4.691   1.620   1.592
 5420TIP3    H216267   4.558   1.632   1.664
 5421TIP3   OH216268   0.468   3.182   1.219
 5421TIP3    H116269   0.521   3.117   1.173
 5421TIP3    H216270   0.378   3.152   1.206
 5422TIP3   OH216271   3.236   1.924   0.968
 5422TIP3    H116272   3.265   1.971   0.889
 5422TIP3    H216273   3.176   1.857   0.936
 5423TIP3   OH216274   1.269   3.798   0.509
 5423TIP3    H116275   1.300   3.788   0.599
 5423TIP3    H216276   1.338   3.759   0.456
 5424TIP3   OH216277   3.499   1.779   0.957
 5424TIP3    H116278   3.491   1.779   0.861
 5424TIP3    H216279   3.435   1.844   0.986
 5425TIP3   OH216280   4.324   1.971   2.155
 5425TIP3    H116281   4.356   1.885   2.132
 5425TIP3    H216282   4.400   2.028   2.150
 5426TIP3   OH216283   2.612   4.899   4.842
 5426TIP3    H116284   2.617   4.953   4.921
 5426TIP3    H216285   2.648   4.815   4.869
 5427TIP3   OH216286   4.659   2.051   2.395
 5427TIP3    H116287   4.642   2.145   2.392
 5427TIP3    H216288   4.599   2.014   2.331
 5428TIP3   OH216289   1.466   3.801   3.893
 5428TIP3    H116290   1.560   3.791   3.874
 5428TIP3    H216291   1.447   3.728   3.953
 5429TIP3   OH216292   2.761   0.994   2.440
 5429TIP3    H116293   2.703   0.929   2.401
 5429TIP3    H216294   2.759   0.975   2.534
 5430TIP3   OH216295   5.762   3.184   4.695
 5430TIP3    H116296   5.708   3.258   4.724
 5430TIP3    H216297   5.705   3.135   4.636
 5431TIP3   OH216298   5.193   2.458   5.116
 5431TIP3    H116299   5.256   2.394   5.151
 5431TIP3    H216300   5.138   2.479   5.191
 5432TIP3   OH216301   5.821   4.908   3.497
 5432TIP3    H116302   5.868   4.985   3.529
 5432TIP3    H216303   5.866   4.885   3.415
 5433TIP3   OH216304   5.625   4.949   0.655
 5433TIP3    H116305   5.557   4.980   0.715
 5433TIP3    H216306   5.662   5.028   0.617
 5434TIP3   OH216307   4.876   1.059   0.835
 5434TIP3    H116308   4.853   1.000   0.762
 5434TIP3    H216309   4.791   1.089   0.869
 5435TIP3   OH216310   6.302   1.989   2.325
 5435TIP3    H116311   6.233   1.959   2.384
 5435TIP3    H216312   6.379   1.939   2.351
 5436TIP3   OH216313   4.943   3.921   0.051
 5436TIP3    H116314   4.870   3.946   0.107
 5436TIP3    H216315   4.939   3.983  -0.022
 5437TIP3   OH216316   3.192   2.896   0.053
 5437TIP3    H116317   3.219   2.805   0.040
 5437TIP3    H216318   3.097   2.891   0.063
 5438TIP3   OH216319   5.616   5.441   2.427
 5438TIP3    H116320   5.665   5.470   2.350
 5438TIP3    H216321   5.682   5.400   2.483
 5439TIP3   OH216322   1.740   1.237   2.090
 5439TIP3    H116323   1.723   1.158   2.038
 5439TIP3    H216324   1.834   1.235   2.107
 5440TIP3   OH216325   3.583   0.415   1.036
 5440TIP3    H116326   3.582   0.510   1.026
 5440TIP3    H216327   3.613   0.400   1.126
 5441TIP3   OH216328   2.507   4.726   4.614
 5441TIP3    H116329   2.566   4.665   4.572
 5441TIP3    H216330   2.452   4.672   4.670
 5442TIP3   OH216331   1.496   0.390   0.622
 5442TIP3    H116332   1.448   0.438   0.554
 5442TIP3    H216333   1.583   0.377   0.585
 5443TIP3   OH216334   4.081   2.224   2.685
 5443TIP3    H116335   4.091   2.263   2.598
 5443TIP3    H216336   4.146   2.153   2.686
 5444TIP3   OH216337   4.672   0.348   4.505
 5444TIP3    H116338   4.719   0.426   4.475
 5444TIP3    H216339   4.739   0.279   4.508
 5445TIP3   OH216340   1.852   3.675   2.387
 5445TIP3    H116341   1.906   3.739   2.433
 5445TIP3    H216342   1.883   3.679   2.296
 5446TIP3   OH216343   4.956   4.680   1.804
 5446TIP3    H116344   4.881   4.702   1.859
 5446TIP3    H216345   4.993   4.765   1.779
 5447TIP3   OH216346   3.475   4.087   4.907
 5447TIP3    H116347   3.469   4.047   4.820
 5447TIP3    H216348   3.419   4.164   4.901
 5448TIP3   OH216349   2.564   0.359   1.219
 5448TIP3    H116350   2.497   0.350   1.150
 5448TIP3    H216351   2.550   0.283   1.275
 5449TIP3   OH216352   3.716   3.836   4.496
 5449TIP3    H116353   3.755   3.889   4.565
 5449TIP3    H216354   3.644   3.790   4.539
 5450TIP3   OH216355   3.730   2.158   1.962
 5450TIP3    H116356   3.707   2.066   1.947
 5450TIP3    H216357   3.823   2.155   1.988
 5451TIP3   OH216358   4.581   0.921   4.772
 5451TIP3    H116359   4.664   0.878   4.792
 5451TIP3    H216360   4.545   0.871   4.699
 5452TIP3   OH216361   3.879   0.338   3.143
 5452TIP3    H116362   3.819   0.275   3.103
 5452TIP3    H216363   3.949   0.348   3.078
 5453TIP3   OH216364   1.547   4.572   0.177
 5453TIP3    H116365   1.629   4.609   0.145
 5453TIP3    H216366   1.479   4.618   0.128
 5454TIP3   OH216367   2.021   3.200   4.796
 5454TIP3    H116368   1.991   3.273   4.741
 5454TIP3    H216369   2.103   3.173   4.755
 5455TIP3   OH216370   3.161   1.767   0.582
 5455TIP3    H116371   3.140   1.686   0.535
 5455TIP3    H216372   3.192   1.739   0.668
 5456TIP3   OH216373   3.628   5.672   5.054
 5456TIP3    H116374   3.560   5.606   5.043
 5456TIP3    H216375   3.707   5.631   5.017
 5457TIP3   OH216376   5.076   4.248   0.173
 5457TIP3    H116377   5.094   4.185   0.243
 5457TIP3    H216378   5.060   4.194   0.096
 5458TIP3   OH216379   0.944   5.095   2.492
 5458TIP3    H116380   0.911   5.114   2.580
 5458TIP3    H216381   1.020   5.039   2.507
 5459TIP3   OH216382   0.806   2.880   2.934
 5459TIP3    H116383   0.767   2.827   3.003
 5459TIP3    H216384   0.799   2.825   2.856
 5460TIP3   OH216385  -0.037   0.438   4.245
 5460TIP3    H116386   0.046   0.457   4.202
 5460TIP3    H216387  -0.012   0.413   4.334
 5461TIP3   OH216388   0.795   0.345   3.731
 5461TIP3    H116389   0.836   0.430   3.717
 5461TIP3    H216390   0.853   0.283   3.689
 5462TIP3   OH216391   5.768   4.656   2.457
 5462TIP3    H116392   5.780   4.585   2.520
 5462TIP3    H216393   5.673   4.659   2.442
 5463TIP3   OH216394   1.640   3.945   3.165
 5463TIP3    H116395   1.700   3.906   3.228
 5463TIP3    H216396   1.671   4.035   3.155
 5464TIP3   OH216397   0.904   4.295   2.111
 5464TIP3    H116398   0.907   4.325   2.202
 5464TIP3    H216399   0.833   4.231   2.108
 5465TIP3   OH216400   6.082   2.878   4.099
 5465TIP3    H116401   6.055   2.788   4.082
 5465TIP3    H216402   6.007   2.917   4.145
 5466TIP3   OH216403   0.043   1.365   1.387
 5466TIP3    H116404   0.134   1.334   1.381
 5466TIP3    H216405   0.010   1.359   1.297
 5467TIP3   OH216406   2.241   3.653   2.456
 5467TIP3    H116407   2.232   3.597   2.380
 5467TIP3    H216408   2.209   3.600   2.529
 5468TIP3   OH216409   4.507   5.719   4.673
 5468TIP3    H116410   4.493   5.813   4.662
 5468TIP3    H216411   4.474   5.680   4.592
 5469TIP3   OH216412   4.707   2.161   4.626
 5469TIP3    H116413   4.772   2.149   4.558
 5469TIP3    H216414   4.689   2.073   4.658
 5470TIP3   OH216415   1.397   5.887   1.869
 5470TIP3    H116416   1.320   5.878   1.925
 5470TIP3    H216417   1.369   5.851   1.784
 5471TIP3   OH216418   1.769   5.530   2.195
 5471TIP3    H116419   1.764   5.437   2.216
 5471TIP3    H216420   1.680   5.553   2.168
 5472TIP3   OH216421   0.939   4.543   0.424
 5472TIP3    H116422   1.025   4.520   0.390
 5472TIP3    H216423   0.891   4.459   0.426
 5473TIP3   OH216424   4.592   0.333   3.248
 5473TIP3    H116425   4.541   0.310   3.325
 5473TIP3    H216426   4.554   0.416   3.217
 5474TIP3   OH216427   4.133   4.395   5.108
 5474TIP3    H116428   4.121   4.435   5.194
 5474TIP3    H216429   4.227   4.378   5.102
 5475TIP3   OH216430   4.865   1.012   3.774
 5475TIP3    H116431   4.957   1.008   3.748
 5475TIP3    H216432   4.860   1.085   3.835
 5476TIP3   OH216433   3.814   1.192   2.023
 5476TIP3    H116434   3.880   1.222   2.085
 5476TIP3    H216435   3.824   1.097   2.021
 5477TIP3   OH216436   3.528   0.132   4.775
 5477TIP3    H116437   3.572   0.084   4.705
 5477TIP3    H216438   3.442   0.089   4.783
 5478TIP3   OH216439   6.049   0.802   3.463
 5478TIP3    H116440   6.086   0.760   3.386
 5478TIP3    H216441   6.055   0.736   3.532
 5479TIP3   OH216442   5.030   1.080   1.891
 5479TIP3    H116443   5.009   0.990   1.918
 5479TIP3    H216444   5.118   1.095   1.926
 5480TIP3   OH216445   4.257   2.094   1.853
 5480TIP3    H116446   4.209   2.047   1.920
 5480TIP3    H216447   4.258   2.185   1.883
 5481TIP3   OH216448   3.918   2.511   3.309
 5481TIP3    H116449   3.963   2.575   3.364
 5481TIP3    H216450   3.975   2.434   3.310
 5482TIP3   OH216451   1.333   3.109   3.039
 5482TIP3    H116452   1.278   3.050   3.090
 5482TIP3    H216453   1.273   3.148   2.975
 5483TIP3   OH216454   0.897   5.461   4.872
 5483TIP3    H116455   0.853   5.377   4.859
 5483TIP3    H216456   0.973   5.441   4.925
 5484TIP3   OH216457   0.687   2.923   1.387
 5484TIP3    H116458   0.752   2.915   1.457
 5484TIP3    H216459   0.729   2.980   1.322
 5485TIP3   OH216460   3.560   2.803   0.785
 5485TIP3    H116461   3.611   2.871   0.828
 5485TIP3    H216462   3.504   2.850   0.723
 5486TIP3   OH216463   1.498   2.896   0.956
 5486TIP3    H116464   1.534   2.923   1.041
 5486TIP3    H216465   1.552   2.942   0.892
 5487TIP3   OH216466   4.948   0.589   5.056
 5487TIP3    H116467   4.984   0.631   5.135
 5487TIP3    H216468   4.874   0.539   5.089
 5488TIP3   OH216469   3.175   2.561   3.305
 5488TIP3    H116470   3.167   2.575   3.399
 5488TIP3    H216471   3.101   2.609   3.267
 5489TIP3   OH216472   0.932   2.232   2.477
 5489TIP3    H116473   1.026   2.241   2.489
 5489TIP3    H216474   0.921   2.215   2.383
 5490TIP3   OH216475   3.710   0.732   1.633
 5490TIP3    H116476   3.647   0.790   1.677
 5490TIP3    H216477   3.761   0.694   1.705
 5491TIP3   OH216478   2.929   3.675   0.172
 5491TIP3    H116479   2.962   3.613   0.236
 5491TIP3    H216480   3.002   3.689   0.112
 5492TIP3   OH216481   2.446   4.552   4.080
 5492TIP3    H116482   2.472   4.475   4.029
 5492TIP3    H216483   2.361   4.578   4.043
 5493TIP3   OH216484   3.139   0.776   2.396
 5493TIP3    H116485   3.157   0.847   2.457
 5493TIP3    H216486   3.179   0.699   2.436
 5494TIP3   OH216487   5.051   4.481   2.209
 5494TIP3    H116488   5.110   4.545   2.250
 5494TIP3    H216489   4.999   4.446   2.282
 5495TIP3   OH216490   2.971   4.049   4.473
 5495TIP3    H116491   2.948   4.132   4.515
 5495TIP3    H216492   2.998   4.073   4.384
 5496TIP3   OH216493   2.649   1.684   1.392
 5496TIP3    H116494   2.569   1.716   1.435
 5496TIP3    H216495   2.675   1.756   1.334
 5497TIP3   OH216496   4.513   4.541   5.005
 5497TIP3    H116497   4.603   4.557   4.976
 5497TIP3    H216498   4.491   4.616   5.060
 5498TIP3   OH216499   5.708   3.660   0.833
 5498TIP3    H116500   5.668   3.689   0.751
 5498TIP3    H216501   5.769   3.730   0.855
 5499TIP3   OH216502   6.295   3.141   2.223
 5499TIP3    H116503   6.281   3.049   2.202
 5499TIP3    H216504   6.321   3.140   2.316
 5500TIP3   OH216505   2.114   0.645   5.164
 5500TIP3    H116506   2.054   0.570   5.168
 5500TIP3    H216507   2.199   0.609   5.192
 5501TIP3   OH216508   3.550   2.587   0.613
 5501TIP3    H116509   3.609   2.643   0.562
 5501TIP3    H216510   3.557   2.620   0.702
 5502TIP3   OH216511   6.330   2.451   4.230
 5502TIP3    H116512   6.267   2.425   4.164
 5502TIP3    H216513   6.378   2.371   4.251
 5503TIP3   OH216514   4.835   2.370   2.583
 5503TIP3    H116515   4.802   2.414   2.505
 5503TIP3    H216516   4.808   2.427   2.656
 5504TIP3   OH216517   5.212   5.487   2.971
 5504TIP3    H116518   5.129   5.524   2.942
 5504TIP3    H216519   5.232   5.534   3.052
 5505TIP3   OH216520   0.265   4.155   3.394
 5505TIP3    H116521   0.322   4.088   3.431
 5505TIP3    H216522   0.199   4.169   3.462
 5506TIP3   OH216523   0.283   2.730   4.683
 5506TIP3    H116524   0.362   2.773   4.717
 5506TIP3    H216525   0.212   2.762   4.738
 5507TIP3   OH216526   3.954   4.215   2.740
 5507TIP3    H116527   4.018   4.209   2.670
 5507TIP3    H216528   3.999   4.181   2.817
 5508TIP3   OH216529   0.363   5.048   1.360
 5508TIP3    H116530   0.385   4.959   1.332
 5508TIP3    H216531   0.278   5.066   1.318
 5509TIP3   OH216532   6.003   3.038   1.410
 5509TIP3    H116533   5.930   3.008   1.463
 5509TIP3    H216534   6.032   3.119   1.452
 5510TIP3   OH216535   3.049   5.932   1.468
 5510TIP3    H116536   2.956   5.914   1.483
 5510TIP3    H216537   3.066   5.899   1.380
 5511TIP3   OH216538   6.072   0.944   0.868
 5511TIP3    H116539   6.157   0.946   0.825
 5511TIP3    H216540   6.081   0.876   0.935
 5512TIP3   OH216541   4.666   5.392   1.587
 5512TIP3    H116542   4.614   5.470   1.605
 5512TIP3    H216543   4.701   5.366   1.672
 5513TIP3   OH216544   3.726   3.517   5.073
 5513TIP3    H116545   3.792   3.484   5.012
 5513TIP3    H216546   3.686   3.439   5.111
 5514TIP3   OH216547   1.819   1.307   5.249
 5514TIP3    H116548   1.844   1.232   5.195
 5514TIP3    H216549   1.768   1.363   5.191
 5515TIP3   OH216550   2.956   0.994   3.469
 5515TIP3    H116551   3.007   1.067   3.505
 5515TIP3    H216552   2.936   1.020   3.380
 5516TIP3   OH216553   2.951   1.119   2.247
 5516TIP3    H116554   3.012   1.077   2.186
 5516TIP3    H216555   2.882   1.055   2.260
 5517TIP3   OH216556   3.537   3.115   1.250
 5517TIP3    H116557   3.594   3.185   1.282
 5517TIP3    H216558   3.590   3.036   1.257
 5518TIP3   OH216559   5.398   3.018   3.898
 5518TIP3    H116560   5.438   3.006   3.984
 5518TIP3    H216561   5.322   3.074   3.914
 5519TIP3   OH216562   4.689   3.563   5.125
 5519TIP3    H116563   4.595   3.551   5.123
 5519TIP3    H216564   4.725   3.483   5.087
 5520TIP3   OH216565   2.764   4.352   4.673
 5520TIP3    H116566   2.723   4.432   4.638
 5520TIP3    H216567   2.842   4.340   4.619
 5521TIP3   OH216568   5.651   3.434   0.991
 5521TIP3    H116569   5.608   3.467   1.069
 5521TIP3    H216570   5.673   3.513   0.941
 5522TIP3   OH216571   4.362   3.347   0.206
 5522TIP3    H116572   4.337   3.325   0.116
 5522TIP3    H216573   4.454   3.320   0.213
 5523TIP3   OH216574   5.051   3.104   1.018
 5523TIP3    H116575   5.135   3.102   0.973
 5523TIP3    H216576   5.074   3.107   1.111
 5524TIP3   OH216577   3.877   4.030   1.593
 5524TIP3    H116578   3.852   4.118   1.620
 5524TIP3    H216579   3.818   3.972   1.642
 5525TIP3   OH216580   4.441   0.038   5.128
 5525TIP3    H116581   4.505   0.008   5.194
 5525TIP3    H216582   4.356   0.011   5.163
 5526TIP3   OH216583   6.395   1.570   2.666
 5526TIP3    H116584   6.334   1.641   2.687
 5526TIP3    H216585   6.347   1.490   2.687
 5527TIP3   OH216586   4.430   3.512   5.109
 5527TIP3    H116587   4.374   3.461   5.050
 5527TIP3    H216588   4.381   3.593   5.124
 5528TIP3   OH216589   0.924   5.450   3.812
 5528TIP3    H116590   0.931   5.457   3.907
 5528TIP3    H216591   0.997   5.502   3.778
 5529TIP3   OH216592   2.863   2.837   2.124
 5529TIP3    H116593   2.823   2.835   2.211
 5529TIP3    H216594   2.843   2.751   2.087
 5530TIP3   OH216595   2.541   2.957   2.803
 5530TIP3    H116596   2.546   2.885   2.866
 5530TIP3    H216597   2.585   3.030   2.845
 5531TIP3   OH216598   2.918   4.369   1.126
 5531TIP3    H116599   2.876   4.314   1.193
 5531TIP3    H216600   2.922   4.456   1.166
 5532TIP3   OH216601   5.034   1.537   4.552
 5532TIP3    H116602   4.952   1.551   4.504
 5532TIP3    H216603   5.065   1.625   4.572
 5533TIP3   OH216604   0.641   4.180   0.288
 5533TIP3    H116605   0.705   4.228   0.342
 5533TIP3    H216606   0.643   4.091   0.323
 5534TIP3   OH216607   1.281   2.620   2.288
 5534TIP3    H116608   1.365   2.623   2.333
 5534TIP3    H216609   1.274   2.531   2.255
 5535TIP3   OH216610   1.354   1.497   2.030
 5535TIP3    H116611   1.435   1.485   2.079
 5535TIP3    H216612   1.334   1.410   1.995
 5536TIP3   OH216613   4.837   2.677   3.655
 5536TIP3    H116614   4.844   2.748   3.718
 5536TIP3    H216615   4.743   2.658   3.650
 5537TIP3   OH216616   0.561   1.027   5.080
 5537TIP3    H116617   0.585   0.944   5.039
 5537TIP3    H216618   0.472   1.045   5.049
 5538TIP3   OH216619   2.053   5.749   4.855
 5538TIP3    H116620   2.092   5.778   4.773
 5538TIP3    H216621   2.057   5.653   4.850
 5539TIP3   OH216622   5.616   4.051   3.845
 5539TIP3    H116623   5.683   4.097   3.895
 5539TIP3    H216624   5.626   4.084   3.755
 5540TIP3   OH216625   2.066   0.812   0.857
 5540TIP3    H116626   2.078   0.904   0.881
 5540TIP3    H216627   2.043   0.769   0.939
 5541TIP3   OH216628   6.186   0.300   1.278
 5541TIP3    H116629   6.139   0.238   1.222
 5541TIP3    H216630   6.145   0.291   1.364
 5542TIP3   OH216631   0.884   5.900   2.412
 5542TIP3    H116632   0.836   5.910   2.330
 5542TIP3    H216633   0.883   5.806   2.429
 5543TIP3   OH216634   0.365   1.278   0.569
 5543TIP3    H116635   0.375   1.231   0.486
 5543TIP3    H216636   0.376   1.212   0.636
 5544TIP3   OH216637   1.600   2.672   3.702
 5544TIP3    H116638   1.570   2.736   3.637
 5544TIP3    H216639   1.670   2.624   3.658
 5545TIP3   OH216640   4.536   4.340   1.445
 5545TIP3    H116641   4.539   4.314   1.353
 5545TIP3    H216642   4.539   4.257   1.493
 5546TIP3   OH216643   0.499   2.988   2.976
 5546TIP3    H116644   0.417   2.938   2.980
 5546TIP3    H216645   0.514   3.003   2.882
 5547TIP3   OH216646   1.405   5.745   5.008
 5547TIP3    H116647   1.309   5.743   5.016
 5547TIP3    H216648   1.423   5.698   4.926
 5548TIP3   OH216649   4.255   2.880   3.505
 5548TIP3    H116650   4.301   2.955   3.543
 5548TIP3    H216651   4.299   2.864   3.422
 5549TIP3   OH216652   2.432   3.381   2.661
 5549TIP3    H116653   2.492   3.443   2.702
 5549TIP3    H216654   2.345   3.420   2.673
 5550TIP3   OH216655   2.008   1.600   5.182
 5550TIP3    H116656   2.060   1.639   5.253
 5550TIP3    H216657   2.034   1.649   5.104
 5551TIP3   OH216658   4.720   4.895   1.201
 5551TIP3    H116659   4.759   4.980   1.181
 5551TIP3    H216660   4.793   4.833   1.193
 5552TIP3   OH216661   5.333   5.286   5.092
 5552TIP3    H116662   5.313   5.296   4.999
 5552TIP3    H216663   5.417   5.240   5.093
 5553TIP3   OH216664   4.377   2.878   3.243
 5553TIP3    H116665   4.297   2.870   3.192
 5553TIP3    H216666   4.446   2.891   3.179
 5554TIP3   OH216667   1.503   5.804   2.805
 5554TIP3    H116668   1.480   5.872   2.742
 5554TIP3    H216669   1.429   5.742   2.802
 5555TIP3   OH216670   1.063   4.594   3.168
 5555TIP3    H116671   1.067   4.525   3.101
 5555TIP3    H216672   1.119   4.562   3.238
 5556TIP3   OH216673   3.327   3.077   1.088
 5556TIP3    H116674   3.393   3.138   1.121
 5556TIP3    H216675   3.305   3.022   1.163
 5557TIP3   OH216676   0.253   4.856   2.474
 5557TIP3    H116677   0.249   4.762   2.456
 5557TIP3    H216678   0.288   4.894   2.393
 5558TIP3   OH216679   4.066   4.613   3.059
 5558TIP3    H116680   3.988   4.600   3.006
 5558TIP3    H216681   4.081   4.707   3.058
 5559TIP3   OH216682  -0.037   1.220   0.758
 5559TIP3    H116683  -0.007   1.129   0.753
 5559TIP3    H216684   0.031   1.270   0.714
 5560TIP3   OH216685   2.473   4.318   2.392
 5560TIP3    H116686   2.407   4.387   2.388
 5560TIP3    H216687   2.432   4.247   2.442
 5561TIP3   OH216688   2.564   2.343   3.231
 5561TIP3    H116689   2.564   2.248   3.247
 5561TIP3    H216690   2.472   2.368   3.231
 5562TIP3   OH216691   5.579   3.607   2.191
 5562TIP3    H116692   5.606   3.684   2.141
 5562TIP3    H216693   5.583   3.635   2.282
 5563TIP3   OH216694   1.784   4.940   1.140
 5563TIP3    H116695   1.746   5.017   1.096
 5563TIP3    H216696   1.740   4.866   1.100
 5564TIP3   OH216697   3.377   3.502   2.441
 5564TIP3    H116698   3.472   3.492   2.446
 5564TIP3    H216699   3.357   3.502   2.347
 5565TIP3   OH216700   4.897   1.384   1.524
 5565TIP3    H116701   4.853   1.341   1.597
 5565TIP3    H216702   4.984   1.343   1.521
 5566TIP3   OH216703   0.242   4.117   0.835
 5566TIP3    H116704   0.260   4.067   0.755
 5566TIP3    H216705   0.293   4.073   0.903
 5567TIP3   OH216706   2.420   0.730   4.375
 5567TIP3    H116707   2.344   0.679   4.349
 5567TIP3    H216708   2.395   0.821   4.361
 5568TIP3   OH216709   2.608   2.007   4.016
 5568TIP3    H116710   2.598   2.037   3.926
 5568TIP3    H216711   2.675   2.064   4.054
 5569TIP3   OH216712   0.739   4.963   4.404
 5569TIP3    H116713   0.691   4.946   4.323
 5569TIP3    H216714   0.831   4.959   4.378
 5570TIP3   OH216715   1.688   5.225   4.137
 5570TIP3    H116716   1.733   5.153   4.093
 5570TIP3    H216717   1.687   5.199   4.229
 5571TIP3   OH216718   1.989   2.604   4.432
 5571TIP3    H116719   2.069   2.652   4.407
 5571TIP3    H216720   1.986   2.610   4.527
 5572TIP3   OH216721   0.179   2.569  -0.009
 5572TIP3    H116722   0.127   2.489  -0.001
 5572TIP3    H216723   0.126   2.637   0.032
 5573TIP3   OH216724   4.777   0.146   3.154
 5573TIP3    H116725   4.796   0.151   3.060
 5573TIP3    H216726   4.692   0.188   3.164
 5574TIP3   OH216727   0.152   2.851   5.133
 5574TIP3    H116728   0.070   2.817   5.168
 5574TIP3    H216729   0.185   2.909   5.202
 5575TIP3   OH216730   5.488   5.699   2.173
 5575TIP3    H116731   5.579   5.722   2.156
 5575TIP3    H216732   5.463   5.643   2.100
 5576TIP3   OH216733   5.942   2.026   0.862
 5576TIP3    H116734   5.914   1.986   0.780
 5576TIP3    H216735   5.881   2.098   0.876
 5577TIP3   OH216736   5.516   1.345   0.686
 5577TIP3    H116737   5.510   1.275   0.621
 5577TIP3    H216738   5.573   1.309   0.754
 5578TIP3   OH216739   3.806   1.443   3.927
 5578TIP3    H116740   3.847   1.469   4.009
 5578TIP3    H216741   3.719   1.414   3.951
 5579TIP3   OH216742   1.886   0.716   2.284
 5579TIP3    H116743   1.928   0.802   2.280
 5579TIP3    H216744   1.880   0.689   2.192
 5580TIP3   OH216745   6.292   5.274   3.011
 5580TIP3    H116746   6.264   5.201   2.956
 5580TIP3    H216747   6.308   5.345   2.949
 5581TIP3   OH216748   0.535   2.879   4.724
 5581TIP3    H116749   0.596   2.814   4.760
 5581TIP3    H216750   0.523   2.943   4.795
 5582TIP3   OH216751   1.248   4.232   4.196
 5582TIP3    H116752   1.165   4.185   4.185
 5582TIP3    H216753   1.309   4.187   4.138
 5583TIP3   OH216754   2.003   3.970   1.430
 5583TIP3    H116755   2.003   3.893   1.373
 5583TIP3    H216756   1.967   3.939   1.513
 5584TIP3   OH216757   3.176   2.636   0.686
 5584TIP3    H116758   3.112   2.565   0.681
 5584TIP3    H216759   3.199   2.655   0.595
 5585TIP3   OH216760   6.236   1.848   1.815
 5585TIP3    H116761   6.267   1.910   1.881
 5585TIP3    H216762   6.303   1.851   1.746
 5586TIP3   OH216763   4.924   3.457   4.519
 5586TIP3    H116764   4.926   3.539   4.568
 5586TIP3    H216765   4.956   3.391   4.581
 5587TIP3   OH216766   1.888   4.428   3.281
 5587TIP3    H116767   1.798   4.435   3.314
 5587TIP3    H216768   1.918   4.342   3.311
 5588TIP3   OH216769   2.270   2.306   2.291
 5588TIP3    H116770   2.193   2.327   2.344
 5588TIP3    H216771   2.324   2.252   2.347
 5589TIP3   OH216772   1.919   4.963   2.418
 5589TIP3    H116773   1.974   4.906   2.470
 5589TIP3    H216774   1.936   5.051   2.453
 5590TIP3   OH216775   6.082   1.076   2.699
 5590TIP3    H116776   6.091   0.994   2.651
 5590TIP3    H216777   6.062   1.142   2.632
 5591TIP3   OH216778   5.470   2.867   1.511
 5591TIP3    H116779   5.431   2.835   1.593
 5591TIP3    H216780   5.562   2.843   1.518
 5592TIP3   OH216781   3.765   0.882   2.294
 5592TIP3    H116782   3.846   0.853   2.336
 5592TIP3    H216783   3.737   0.807   2.242
 5593TIP3   OH216784   1.507   5.622   1.056
 5593TIP3    H116785   1.423   5.588   1.027
 5593TIP3    H216786   1.559   5.545   1.078
 5594TIP3   OH216787   5.617   2.430   2.663
 5594TIP3    H116788   5.704   2.470   2.662
 5594TIP3    H216789   5.603   2.407   2.755
 5595TIP3   OH216790   0.583   4.454   4.771
 5595TIP3    H116791   0.561   4.405   4.850
 5595TIP3    H216792   0.592   4.545   4.801
 5596TIP3   OH216793   1.392   5.170   3.375
 5596TIP3    H116794   1.333   5.170   3.299
 5596TIP3    H216795   1.347   5.116   3.440
 5597TIP3   OH216796   4.443   0.954   0.551
 5597TIP3    H116797   4.364   0.944   0.499
 5597TIP3    H216798   4.483   0.867   0.551
 5598TIP3   OH216799   3.495   4.003   4.644
 5598TIP3    H116800   3.520   4.048   4.563
 5598TIP3    H216801   3.446   3.926   4.615
 5599TIP3   OH216802   5.392   4.858   0.797
 5599TIP3    H116803   5.311   4.910   0.794
 5599TIP3    H216804   5.401   4.824   0.708
 5600TIP3   OH216805   0.709   4.425   3.681
 5600TIP3    H116806   0.760   4.502   3.656
 5600TIP3    H216807   0.760   4.351   3.649
 5601TIP3   OH216808   1.179   2.703   3.482
 5601TIP3    H116809   1.099   2.655   3.505
 5601TIP3    H216810   1.161   2.793   3.507
 5602TIP3   OH216811   3.421   3.371   2.896
 5602TIP3    H116812   3.358   3.389   2.827
 5602TIP3    H216813   3.502   3.351   2.850
 5603TIP3   OH216814   4.973   3.876   2.090
 5603TIP3    H116815   4.933   3.890   2.004
 5603TIP3    H216816   4.911   3.820   2.137
 5604TIP3   OH216817   2.917   5.555   1.654
 5604TIP3    H116818   2.880   5.591   1.573
 5604TIP3    H216819   2.848   5.500   1.690
 5605TIP3   OH216820   0.026   3.269   4.194
 5605TIP3    H116821   0.018   3.174   4.203
 5605TIP3    H216822   0.020   3.303   4.283
 5606TIP3   OH216823   1.829   2.328   3.845
 5606TIP3    H116824   1.802   2.245   3.884
 5606TIP3    H216825   1.912   2.309   3.803
 5607TIP3   OH216826   1.222   4.342   1.899
 5607TIP3    H116827   1.156   4.409   1.916
 5607TIP3    H216828   1.245   4.309   1.986
 5608TIP3   OH216829   1.860   0.024   0.368
 5608TIP3    H116830   1.833  -0.037   0.436
 5608TIP3    H216831   1.785   0.029   0.309
 5609TIP3   OH216832   1.395   0.425   3.110
 5609TIP3    H116833   1.371   0.469   3.192
 5609TIP3    H216834   1.345   0.343   3.111
 5610TIP3   OH216835   2.870   5.511   4.303
 5610TIP3    H116836   2.943   5.493   4.363
 5610TIP3    H216837   2.902   5.485   4.217
 5611TIP3   OH216838   1.453   0.195   1.028
 5611TIP3    H116839   1.406   0.262   0.979
 5611TIP3    H216840   1.543   0.200   0.996
 5612TIP3   OH216841   1.059   2.345   3.588
 5612TIP3    H116842   1.022   2.430   3.564
 5612TIP3    H216843   1.137   2.336   3.532
 5613TIP3   OH216844   0.980   2.800   4.368
 5613TIP3    H116845   0.895   2.796   4.412
 5613TIP3    H216846   0.959   2.805   4.275
 5614TIP3   OH216847   2.576   3.683   1.913
 5614TIP3    H116848   2.589   3.739   1.836
 5614TIP3    H216849   2.599   3.739   1.987
 5615TIP3   OH216850   3.690   1.885   2.526
 5615TIP3    H116851   3.782   1.865   2.507
 5615TIP3    H216852   3.681   1.979   2.509
 5616TIP3   OH216853   5.775   3.966   2.426
 5616TIP3    H116854   5.856   3.927   2.459
 5616TIP3    H216855   5.747   3.907   2.355
 5617TIP3   OH216856   2.960   0.923   4.007
 5617TIP3    H116857   2.924   0.882   4.085
 5617TIP3    H216858   3.020   0.990   4.040
 5618TIP3   OH216859   2.394   3.719   3.557
 5618TIP3    H116860   2.485   3.713   3.529
 5618TIP3    H216861   2.397   3.772   3.637
 5619TIP3   OH216862   6.164   2.784   1.456
 5619TIP3    H116863   6.203   2.806   1.371
 5619TIP3    H216864   6.074   2.817   1.450
 5620TIP3   OH216865   4.881   5.127   1.176
 5620TIP3    H116866   4.827   5.194   1.136
 5620TIP3    H216867   4.945   5.175   1.229
 5621TIP3   OH216868   0.694   3.099   3.589
 5621TIP3    H116869   0.739   3.021   3.622
 5621TIP3    H216870   0.724   3.108   3.499
 5622TIP3   OH216871   0.865   5.856   4.169
 5622TIP3    H116872   0.919   5.895   4.101
 5622TIP3    H216873   0.923   5.848   4.245
 5623TIP3   OH216874   1.045   3.528   4.305
 5623TIP3    H116875   0.976   3.566   4.251
 5623TIP3    H216876   1.002   3.505   4.388
 5624TIP3   OH216877   4.501   4.973   4.603
 5624TIP3    H116878   4.569   4.906   4.604
 5624TIP3    H216879   4.517   5.026   4.681
 5625TIP3   OH216880   6.260   2.105   4.110
 5625TIP3    H116881   6.341   2.056   4.099
 5625TIP3    H216882   6.270   2.180   4.050
 5626TIP3   OH216883   4.881   1.285   3.854
 5626TIP3    H116884   4.843   1.336   3.783
 5626TIP3    H216885   4.942   1.344   3.897
 5627TIP3   OH216886   2.891   4.689   0.266
 5627TIP3    H116887   2.811   4.692   0.319
 5627TIP3    H216888   2.957   4.654   0.325
 5628TIP3   OH216889   5.190   1.748   4.047
 5628TIP3    H116890   5.240   1.828   4.027
 5628TIP3    H216891   5.164   1.759   4.139
 5629TIP3   OH216892   3.408   5.048   4.558
 5629TIP3    H116893   3.448   5.089   4.481
 5629TIP3    H216894   3.421   4.954   4.545
 5630TIP3   OH216895   3.870   3.323   3.107
 5630TIP3    H116896   3.911   3.324   3.021
 5630TIP3    H216897   3.819   3.242   3.109
 5631TIP3   OH216898   1.888   0.724   0.057
 5631TIP3    H116899   1.838   0.763  -0.015
 5631TIP3    H216900   1.822   0.699   0.121
 5632TIP3   OH216901   5.726   5.363   3.833
 5632TIP3    H116902   5.656   5.370   3.768
 5632TIP3    H216903   5.715   5.276   3.870
 5633TIP3   OH216904   1.897   3.364   3.440
 5633TIP3    H116905   1.860   3.294   3.492
 5633TIP3    H216906   1.920   3.323   3.357
 5634TIP3   OH216907   4.454   0.568   3.238
 5634TIP3    H116908   4.369   0.543   3.276
 5634TIP3    H216909   4.440   0.655   3.202
 5635TIP3   OH216910   4.379   2.791   1.985
 5635TIP3    H116911   4.409   2.701   1.993
 5635TIP3    H216912   4.441   2.832   1.925
 5636TIP3   OH216913   0.498   4.506   3.177
 5636TIP3    H116914   0.582   4.540   3.208
 5636TIP3    H216915   0.497   4.527   3.083
 5637TIP3   OH216916   5.492   5.027   4.155
 5637TIP3    H116917   5.556   5.044   4.223
 5637TIP3    H216918   5.473   4.934   4.162
 5638TIP3   OH216919   5.716   5.625   2.763
 5638TIP3    H116920   5.791   5.683   2.751
 5638TIP3    H216921   5.751   5.537   2.752
 5639TIP3   OH216922   2.102   5.856   1.912
 5639TIP3    H116923   2.074   5.805   1.836
 5639TIP3    H216924   2.041   5.832   1.981
 5640TIP3   OH216925   1.991   4.135   3.054
 5640TIP3    H116926   1.934   4.205   3.023
 5640TIP3    H216927   1.936   4.057   3.056
 5641TIP3   OH216928   3.007   3.310   2.116
 5641TIP3    H116929   2.957   3.248   2.063
 5641TIP3    H216930   2.959   3.392   2.107
 5642TIP3   OH216931   4.428   2.120   2.649
 5642TIP3    H116932   4.418   2.025   2.636
 5642TIP3    H216933   4.494   2.146   2.584
 5643TIP3   OH216934   3.541   2.168   3.897
 5643TIP3    H116935   3.451   2.172   3.929
 5643TIP3    H216936   3.548   2.242   3.836
 5644TIP3   OH216937   5.479   1.489   2.337
 5644TIP3    H116938   5.402   1.481   2.394
 5644TIP3    H216939   5.444   1.482   2.248
 5645TIP3   OH216940   2.664   0.323   3.612
 5645TIP3    H116941   2.651   0.375   3.691
 5645TIP3    H216942   2.693   0.386   3.546
 5646TIP3   OH216943   3.026   0.721   1.692
 5646TIP3    H116944   2.969   0.697   1.619
 5646TIP3    H216945   3.040   0.639   1.739
 5647TIP3   OH216946   5.827   2.480   4.760
 5647TIP3    H116947   5.867   2.554   4.806
 5647TIP3    H216948   5.856   2.490   4.669
 5648TIP3   OH216949   4.020   2.987   2.734
 5648TIP3    H116950   4.050   2.981   2.824
 5648TIP3    H216951   4.079   2.928   2.686
 5649TIP3   OH216952   2.830   1.696   4.327
 5649TIP3    H116953   2.873   1.781   4.334
 5649TIP3    H216954   2.758   1.701   4.390
 5650TIP3   OH216955   2.129   1.502   1.832
 5650TIP3    H116956   2.043   1.514   1.791
 5650TIP3    H216957   2.191   1.540   1.769
 5651TIP3   OH216958   0.236   4.899   3.449
 5651TIP3    H116959   0.222   4.842   3.525
 5651TIP3    H216960   0.262   4.840   3.379
 5652TIP3   OH216961   2.354   0.792   3.154
 5652TIP3    H116962   2.366   0.775   3.061
 5652TIP3    H216963   2.273   0.745   3.177
 5653TIP3   OH216964   5.503   2.542   2.223
 5653TIP3    H116965   5.568   2.480   2.257
 5653TIP3    H216966   5.527   2.555   2.132
 5654TIP3   OH216967   5.957   0.513   1.126
 5654TIP3    H116968   6.043   0.471   1.130
 5654TIP3    H216969   5.895   0.441   1.118
 5655TIP3   OH216970   5.149   5.090   5.234
 5655TIP3    H116971   5.147   5.060   5.143
 5655TIP3    H216972   5.160   5.185   5.227
 5656TIP3   OH216973   1.766   3.271   0.977
 5656TIP3    H116974   1.804   3.270   1.065
 5656TIP3    H216975   1.749   3.363   0.959
 5657TIP3   OH216976   0.119   5.210   0.945
 5657TIP3    H116977   0.129   5.190   1.038
 5657TIP3    H216978   0.193   5.167   0.903
 5658TIP3   OH216979   5.374   1.819   0.567
 5658TIP3    H116980   5.469   1.825   0.576
 5658TIP3    H216981   5.355   1.726   0.578
 5659TIP3   OH216982   6.233   2.863   1.853
 5659TIP3    H116983   6.283   2.801   1.906
 5659TIP3    H216984   6.293   2.890   1.784
 5660TIP3   OH216985   0.240   0.283   2.330
 5660TIP3    H116986   0.290   0.203   2.313
 5660TIP3    H216987   0.235   0.288   2.426
 5661TIP3   OH216988   5.276   2.022   2.604
 5661TIP3    H116989   5.362   2.058   2.583
 5661TIP3    H216990   5.218   2.059   2.538
 5662TIP3   OH216991   6.342   0.534   2.216
 5662TIP3    H116992   6.341   0.573   2.128
 5662TIP3    H216993   6.360   0.442   2.202
 5663TIP3   OH216994   2.725   1.181   2.946
 5663TIP3    H116995   2.741   1.229   3.028
 5663TIP3    H216996   2.657   1.119   2.968
 5664TIP3   OH216997   2.662   0.876   4.602
 5664TIP3    H116998   2.576   0.870   4.644
 5664TIP3    H216999   2.719   0.822   4.657
 5665TIP3   OH217000   1.273  -0.048   1.808
 5665TIP3    H117001   1.310   0.038   1.826
 5665TIP3    H217002   1.248  -0.045   1.716
 5666TIP3   OH217003   5.340   0.671   3.940
 5666TIP3    H117004   5.272   0.732   3.972
 5666TIP3    H217005   5.420   0.701   3.983
 5667TIP3   OH217006   3.564   0.986   0.754
 5667TIP3    H117007   3.642   0.973   0.700
 5667TIP3    H217008   3.578   1.072   0.796
 5668TIP3   OH217009   1.809   3.942   3.630
 5668TIP3    H117010   1.725   3.971   3.595
 5668TIP3    H217011   1.798   3.848   3.645
 5669TIP3   OH217012   2.293   0.015   2.014
 5669TIP3    H117013   2.239  -0.044   2.065
 5669TIP3    H217014   2.270   0.102   2.045
 5670TIP3   OH217015   2.716   2.083   1.512
 5670TIP3    H117016   2.687   2.131   1.435
 5670TIP3    H217017   2.764   2.148   1.564
 5671TIP3   OH217018   5.788   3.138   2.242
 5671TIP3    H117019   5.729   3.112   2.314
 5671TIP3    H217020   5.756   3.225   2.216
 5672TIP3   OH217021   0.664   4.172   1.458
 5672TIP3    H117022   0.647   4.163   1.364
 5672TIP3    H217023   0.700   4.087   1.484
 5673TIP3   OH217024   2.454   3.935   1.740
 5673TIP3    H117025   2.472   3.855   1.690
 5673TIP3    H217026   2.479   4.006   1.680
 5674TIP3   OH217027   2.952   1.289   3.375
 5674TIP3    H117028   2.953   1.383   3.392
 5674TIP3    H217029   3.043   1.268   3.353
 5675TIP3   OH217030   4.995   4.375   0.639
 5675TIP3    H117031   4.900   4.380   0.627
 5675TIP3    H217032   5.013   4.430   0.715
 5676TIP3   OH217033   5.428   5.126   1.956
 5676TIP3    H117034   5.347   5.170   1.980
 5676TIP3    H217035   5.497   5.183   1.990
 5677TIP3   OH217036   3.561   5.510   4.438
 5677TIP3    H117037   3.516   5.578   4.388
 5677TIP3    H217038   3.654   5.523   4.419
 5678TIP3   OH217039   5.183   1.663   1.310
 5678TIP3    H117040   5.260   1.718   1.296
 5678TIP3    H217041   5.200   1.621   1.395
 5679TIP3   OH217042   5.681   2.952   3.249
 5679TIP3    H117043   5.742   2.965   3.322
 5679TIP3    H217044   5.658   2.859   3.255
 5680TIP3   OH217045   3.084   2.175   0.828
 5680TIP3    H117046   3.136   2.112   0.778
 5680TIP3    H217047   3.149   2.234   0.867
 5681TIP3   OH217048   2.435   1.243   0.609
 5681TIP3    H117049   2.389   1.249   0.693
 5681TIP3    H217050   2.516   1.195   0.629
 5682TIP3   OH217051   5.949   0.838   1.937
 5682TIP3    H117052   5.934   0.793   2.020
 5682TIP3    H217053   5.891   0.795   1.875
 5683TIP3   OH217054   2.075   0.863   2.939
 5683TIP3    H117055   2.080   0.906   2.854
 5683TIP3    H217056   2.107   0.774   2.923
 5684TIP3   OH217057   6.093   0.810   0.601
 5684TIP3    H117058   6.031   0.882   0.600
 5684TIP3    H217059   6.162   0.837   0.541
 5685TIP3   OH217060   0.663   4.007   1.762
 5685TIP3    H117061   0.568   3.996   1.769
 5685TIP3    H217062   0.687   4.051   1.844
 5686TIP3   OH217063   3.681   3.377   0.293
 5686TIP3    H117064   3.588   3.385   0.269
 5686TIP3    H217065   3.680   3.350   0.384
 5687TIP3   OH217066   5.294   0.504   3.722
 5687TIP3    H117067   5.323   0.558   3.795
 5687TIP3    H217068   5.207   0.474   3.748
 5688TIP3   OH217069   4.429   4.195   3.364
 5688TIP3    H117070   4.521   4.170   3.370
 5688TIP3    H217071   4.413   4.208   3.271
 5689TIP3   OH217072   5.296   2.491   0.402
 5689TIP3    H117073   5.312   2.398   0.418
 5689TIP3    H217074   5.201   2.498   0.397
 5690TIP3   OH217075   0.546   1.764   0.520
 5690TIP3    H117076   0.544   1.671   0.544
 5690TIP3    H217077   0.459   1.782   0.487
 5691TIP3   OH217078   6.141   5.301   1.977
 5691TIP3    H117079   6.082   5.376   1.973
 5691TIP3    H217080   6.130   5.266   2.065
 5692TIP3   OH217081   3.433   3.774   0.183
 5692TIP3    H117082   3.352   3.758   0.231
 5692TIP3    H217083   3.456   3.865   0.204
 5693TIP3   OH217084   1.920   2.573   2.481
 5693TIP3    H117085   1.877   2.657   2.463
 5693TIP3    H217086   1.859   2.507   2.447
 5694TIP3   OH217087   1.322   1.982   1.178
 5694TIP3    H117088   1.288   2.043   1.243
 5694TIP3    H217089   1.408   2.017   1.155
 5695TIP3   OH217090   4.710   0.876   3.955
 5695TIP3    H117091   4.783   0.913   3.904
 5695TIP3    H217092   4.634   0.886   3.898
 5696TIP3   OH217093   4.417   4.217   4.438
 5696TIP3    H117094   4.348   4.280   4.461
 5696TIP3    H217095   4.412   4.151   4.507
 5697TIP3   OH217096   1.777   5.329   1.694
 5697TIP3    H117097   1.721   5.300   1.766
 5697TIP3    H217098   1.852   5.269   1.696
 5698TIP3   OH217099   4.190   5.664   0.075
 5698TIP3    H117100   4.182   5.663  -0.020
 5698TIP3    H217101   4.283   5.678   0.092
 5699TIP3   OH217102   5.523   5.144   2.330
 5699TIP3    H117103   5.467   5.077   2.291
 5699TIP3    H217104   5.464   5.218   2.346
 5700TIP3   OH217105   3.382   4.213   2.812
 5700TIP3    H117106   3.410   4.290   2.862
 5700TIP3    H217107   3.314   4.173   2.866
 5701TIP3   OH217108   4.233   3.258   4.945
 5701TIP3    H117109   4.151   3.303   4.965
 5701TIP3    H217110   4.209   3.192   4.880
 5702TIP3   OH217111   3.217   1.277   0.985
 5702TIP3    H117112   3.247   1.222   1.057
 5702TIP3    H217113   3.228   1.366   1.016
 5703TIP3   OH217114   0.057   0.672   0.765
 5703TIP3    H117115  -0.008   0.631   0.822
 5703TIP3    H217116   0.094   0.600   0.715
 5704TIP3   OH217117   4.817   2.765   5.007
 5704TIP3    H117118   4.845   2.825   4.939
 5704TIP3    H217119   4.817   2.679   4.965
 5705TIP3   OH217120   5.351   5.415   0.264
 5705TIP3    H117121   5.381   5.333   0.225
 5705TIP3    H217122   5.431   5.464   0.281
 5706TIP3   OH217123   5.842   3.591   0.427
 5706TIP3    H117124   5.763   3.559   0.472
 5706TIP3    H217125   5.832   3.686   0.426
 5707TIP3   OH217126   3.956   4.314   3.371
 5707TIP3    H117127   4.018   4.386   3.380
 5707TIP3    H217128   3.931   4.291   3.460
 5708TIP3   OH217129   2.609   3.590   4.089
 5708TIP3    H117130   2.533   3.610   4.033
 5708TIP3    H217131   2.577   3.606   4.178
 5709TIP3   OH217132   5.762   4.728   4.069
 5709TIP3    H117133   5.687   4.720   4.127
 5709TIP3    H217134   5.786   4.820   4.072
 5710TIP3   OH217135   2.597   0.012   1.660
 5710TIP3    H117136   2.634  -0.013   1.745
 5710TIP3    H217137   2.620  -0.061   1.602
 5711TIP3   OH217138   5.915   3.327   3.222
 5711TIP3    H117139   5.884   3.300   3.308
 5711TIP3    H217140   5.856   3.398   3.196
 5712TIP3   OH217141   1.449   4.312   0.997
 5712TIP3    H117142   1.403   4.278   1.074
 5712TIP3    H217143   1.398   4.281   0.922
 5713TIP3   OH217144   4.272   3.345   4.067
 5713TIP3    H117145   4.335   3.296   4.120
 5713TIP3    H217146   4.211   3.382   4.131
 5714TIP3   OH217147   2.558   0.387   2.147
 5714TIP3    H117148   2.628   0.358   2.089
 5714TIP3    H217149   2.499   0.438   2.091
 5715TIP3   OH217150   3.928   2.854   3.265
 5715TIP3    H117151   3.973   2.885   3.186
 5715TIP3    H217152   3.987   2.787   3.301
 5716TIP3   OH217153   3.003   0.245   3.110
 5716TIP3    H117154   2.952   0.304   3.055
 5716TIP3    H217155   3.089   0.240   3.068
 5717TIP3   OH217156   2.229   5.802   2.199
 5717TIP3    H117157   2.224   5.797   2.294
 5717TIP3    H217158   2.250   5.894   2.180
 5718TIP3   OH217159   2.422   3.705   0.019
 5718TIP3    H117160   2.515   3.720   0.034
 5718TIP3    H217161   2.417   3.662  -0.066
 5719TIP3   OH217162   3.086   2.102   1.945
 5719TIP3    H117163   3.091   2.198   1.937
 5719TIP3    H217164   3.119   2.084   2.033
 5720TIP3   OH217165   5.445   4.193   5.119
 5720TIP3    H117166   5.359   4.189   5.076
 5720TIP3    H217167   5.442   4.122   5.184
 5721TIP3   OH217168   4.759   4.037   3.122
 5721TIP3    H117169   4.830   4.067   3.066
 5721TIP3    H217170   4.693   4.107   3.116
 5722TIP3   OH217171   5.465   4.817   2.373
 5722TIP3    H117172   5.483   4.745   2.312
 5722TIP3    H217173   5.404   4.873   2.325
 5723TIP3   OH217174   5.473   2.624   1.977
 5723TIP3    H117175   5.379   2.637   1.986
 5723TIP3    H217176   5.507   2.710   1.950
 5724TIP3   OH217177   3.318   4.709   0.905
 5724TIP3    H117178   3.309   4.614   0.897
 5724TIP3    H217179   3.313   4.726   0.999
 5725TIP3   OH217180   1.527   3.924   3.587
 5725TIP3    H117181   1.473   3.893   3.660
 5725TIP3    H217182   1.520   3.854   3.521
 5726TIP3   OH217183   5.522   5.803   3.231
 5726TIP3    H117184   5.506   5.723   3.181
 5726TIP3    H217185   5.557   5.865   3.167
 5727TIP3   OH217186   6.049   4.750   1.404
 5727TIP3    H117187   6.023   4.827   1.353
 5727TIP3    H217188   6.101   4.698   1.343
 5728TIP3   OH217189   2.267   1.891   3.847
 5728TIP3    H117190   2.335   1.849   3.795
 5728TIP3    H217191   2.187   1.845   3.824
 5729TIP3   OH217192   3.236   5.721   4.538
 5729TIP3    H117193   3.287   5.770   4.603
 5729TIP3    H217194   3.209   5.786   4.475
 5730TIP3   OH217195   0.981   0.496   2.529
 5730TIP3    H117196   1.020   0.560   2.469
 5730TIP3    H217197   0.892   0.483   2.495
 5731TIP3   OH217198   0.426   4.295   4.960
 5731TIP3    H117199   0.354   4.238   4.930
 5731TIP3    H217200   0.382   4.366   5.006
 5732TIP3   OH217201   2.221   4.062   2.326
 5732TIP3    H117202   2.298   4.087   2.275
 5732TIP3    H217203   2.257   4.039   2.412
 5733TIP3   OH217204   4.981   3.901   0.975
 5733TIP3    H117205   4.968   3.810   0.950
 5733TIP3    H217206   5.069   3.904   1.012
 5734TIP3   OH217207   5.205   2.154   2.350
 5734TIP3    H117208   5.187   2.233   2.401
 5734TIP3    H217209   5.300   2.149   2.347
 5735TIP3   OH217210   2.527   5.846   1.686
 5735TIP3    H117211   2.595   5.779   1.694
 5735TIP3    H217212   2.481   5.824   1.605
 5736TIP3   OH217213   3.107   4.423   4.735
 5736TIP3    H117214   3.178   4.378   4.781
 5736TIP3    H217215   3.140   4.511   4.720
 5737TIP3   OH217216   2.198   2.763   4.408
 5737TIP3    H117217   2.241   2.817   4.342
 5737TIP3    H217218   2.220   2.804   4.491
 5738TIP3   OH217219   0.212   4.934   0.768
 5738TIP3    H117220   0.227   4.902   0.678
 5738TIP3    H217221   0.119   4.958   0.769
 5739TIP3   OH217222   6.027   4.334   5.254
 5739TIP3    H117223   5.977   4.301   5.180
 5739TIP3    H217224   6.063   4.256   5.295
 5740TIP3   OH217225   5.710   3.790   1.180
 5740TIP3    H117226   5.778   3.805   1.245
 5740TIP3    H217227   5.724   3.858   1.114
 5741TIP3   OH217228   1.169   4.966   0.148
 5741TIP3    H117229   1.109   5.027   0.104
 5741TIP3    H217230   1.113   4.897   0.183
 5742TIP3   OH217231   4.054   2.703   3.940
 5742TIP3    H117232   4.127   2.714   3.879
 5742TIP3    H217233   4.027   2.792   3.962
 5743TIP3   OH217234   6.335   3.253   2.512
 5743TIP3    H117235   6.342   3.170   2.559
 5743TIP3    H217236   6.377   3.317   2.569
 5744TIP3   OH217237   5.594   1.819   3.407
 5744TIP3    H117238   5.607   1.777   3.492
 5744TIP3    H217239   5.528   1.886   3.423
 5745TIP3   OH217240   1.351   1.715   4.540
 5745TIP3    H117241   1.331   1.804   4.512
 5745TIP3    H217242   1.356   1.664   4.459
 5746TIP3   OH217243   6.119   1.098   3.056
 5746TIP3    H117244   6.144   1.169   2.997
 5746TIP3    H217245   6.054   1.138   3.114
 5747TIP3   OH217246   3.767   0.625   5.109
 5747TIP3    H117247   3.778   0.635   5.014
 5747TIP3    H217248   3.672   0.622   5.122
 5748TIP3   OH217249   4.914   3.847   2.448
 5748TIP3    H117250   4.916   3.874   2.540
 5748TIP3    H217251   4.928   3.928   2.399
 5749TIP3   OH217252   5.169   4.648   2.376
 5749TIP3    H117253   5.107   4.712   2.411
 5749TIP3    H217254   5.202   4.602   2.453
 5750TIP3   OH217255   1.638   1.502   5.054
 5750TIP3    H117256   1.593   1.583   5.076
 5750TIP3    H217257   1.568   1.439   5.039
 5751TIP3   OH217258   2.933   4.818   1.097
 5751TIP3    H117259   2.919   4.826   1.003
 5751TIP3    H217260   2.871   4.881   1.136
 5752TIP3   OH217261   4.349   4.082   1.872
 5752TIP3    H117262   4.405   4.158   1.886
 5752TIP3    H217263   4.298   4.074   1.953
 5753TIP3   OH217264   2.599   4.521   2.572
 5753TIP3    H117265   2.519   4.524   2.520
 5753TIP3    H217266   2.645   4.443   2.541
 5754TIP3   OH217267   0.804   3.429   3.844
 5754TIP3    H117268   0.791   3.429   3.749
 5754TIP3    H217269   0.734   3.484   3.878
 5755TIP3   OH217270   0.591   1.242   4.154
 5755TIP3    H117271   0.512   1.264   4.203
 5755TIP3    H217272   0.560   1.221   4.066
 5756TIP3   OH217273   2.631   5.931   4.892
 5756TIP3    H117274   2.538   5.951   4.883
 5756TIP3    H217275   2.657   5.897   4.806
 5757TIP3   OH217276   0.128   1.514   2.204
 5757TIP3    H117277   0.123   1.467   2.288
 5757TIP3    H217278   0.193   1.583   2.220
 5758TIP3   OH217279   1.943   5.270   4.736
 5758TIP3    H117280   1.909   5.229   4.815
 5758TIP3    H217281   1.915   5.213   4.665
 5759TIP3   OH217282   0.863   3.601   2.616
 5759TIP3    H117283   0.872   3.506   2.612
 5759TIP3    H217284   0.892   3.632   2.530
 5760TIP3   OH217285   5.030   2.369   1.137
 5760TIP3    H117286   4.966   2.423   1.183
 5760TIP3    H217287   4.983   2.334   1.062
 5761TIP3   OH217288   5.980   1.929   4.122
 5761TIP3    H117289   5.989   2.015   4.081
 5761TIP3    H217290   6.045   1.929   4.192
 5762TIP3   OH217291   5.061   1.944   1.886
 5762TIP3    H117292   4.989   1.948   1.823
 5762TIP3    H217293   5.099   2.032   1.884
 5763TIP3   OH217294   2.467   5.697   4.640
 5763TIP3    H117295   2.555   5.712   4.605
 5763TIP3    H217296   2.475   5.618   4.692
 5764TIP3   OH217297   5.331   0.306   3.173
 5764TIP3    H117298   5.400   0.258   3.218
 5764TIP3    H217299   5.373   0.342   3.095
 5765TIP3   OH217300   2.057   3.873   0.924
 5765TIP3    H117301   2.094   3.909   1.005
 5765TIP3    H217302   2.048   3.779   0.940
 5766TIP3   OH217303   1.942   4.157   2.355
 5766TIP3    H117304   2.024   4.110   2.370
 5766TIP3    H217305   1.968   4.235   2.307
 5767TIP3   OH217306   1.522   3.416   1.667
 5767TIP3    H117307   1.609   3.378   1.669
 5767TIP3    H217308   1.526   3.489   1.730
 5768TIP3   OH217309   3.789   4.835   2.001
 5768TIP3    H117310   3.711   4.786   1.974
 5768TIP3    H217311   3.823   4.872   1.920
 5769TIP3   OH217312   3.627   0.678   1.376
 5769TIP3    H117313   3.667   0.692   1.461
 5769TIP3    H217314   3.628   0.764   1.334
 5770TIP3   OH217315   6.002   2.141   1.721
 5770TIP3    H117316   5.999   2.049   1.695
 5770TIP3    H217317   5.911   2.171   1.713
 5771TIP3   OH217318   1.366   0.905   3.721
 5771TIP3    H117319   1.433   0.973   3.727
 5771TIP3    H217320   1.404   0.837   3.666
 5772TIP3   OH217321   4.403   5.198   0.286
 5772TIP3    H117322   4.453   5.243   0.218
 5772TIP3    H217323   4.469   5.160   0.343
 5773TIP3   OH217324   3.326   5.071   0.109
 5773TIP3    H117325   3.298   5.053   0.199
 5773TIP3    H217326   3.372   4.992   0.082
 5774TIP3   OH217327   4.770   2.568   2.789
 5774TIP3    H117328   4.832   2.631   2.826
 5774TIP3    H217329   4.751   2.508   2.861
 5775TIP3   OH217330  -0.004   2.334   4.998
 5775TIP3    H117331   0.041   2.292   5.072
 5775TIP3    H217332   0.038   2.298   4.920
 5776TIP3   OH217333   2.651   2.796   3.263
 5776TIP3    H117334   2.723   2.834   3.313
 5776TIP3    H217335   2.596   2.871   3.240
 5777TIP3   OH217336   6.326   5.629   4.629
 5777TIP3    H117337   6.389   5.701   4.633
 5777TIP3    H217338   6.344   5.578   4.708
 5778TIP3   OH217339   2.152   3.209   4.537
 5778TIP3    H117340   2.224   3.259   4.576
 5778TIP3    H217341   2.172   3.209   4.443
 5779TIP3   OH217342   6.206   3.940   2.085
 5779TIP3    H117343   6.271   3.902   2.026
 5779TIP3    H217344   6.126   3.890   2.067
 5780TIP3   OH217345   5.150   0.540   0.471
 5780TIP3    H117346   5.204   0.616   0.494
 5780TIP3    H217347   5.213   0.469   0.459
 5781TIP3   OH217348   5.941   5.792   4.629
 5781TIP3    H117349   5.849   5.767   4.634
 5781TIP3    H217350   5.988   5.709   4.625
 5782TIP3   OH217351   2.467   5.995   2.179
 5782TIP3    H117352   2.448   5.946   2.099
 5782TIP3    H217353   2.466   6.087   2.152
 5783TIP3   OH217354   1.895   2.285   4.746
 5783TIP3    H117355   1.840   2.363   4.736
 5783TIP3    H217356   1.903   2.250   4.657
 5784TIP3   OH217357   3.238   3.451   0.065
 5784TIP3    H117358   3.211   3.363   0.040
 5784TIP3    H217359   3.282   3.440   0.150
 5785TIP3   OH217360   3.144   1.573   2.762
 5785TIP3    H117361   3.051   1.552   2.766
 5785TIP3    H217362   3.181   1.508   2.702
 5786TIP3   OH217363   4.064   4.637   4.996
 5786TIP3    H117364   4.083   4.547   5.025
 5786TIP3    H217365   4.128   4.654   4.927
 5787TIP3   OH217366   3.393   5.168   3.556
 5787TIP3    H117367   3.423   5.207   3.638
 5787TIP3    H217368   3.411   5.235   3.490
 5788TIP3   OH217369   1.201   4.091   1.519
 5788TIP3    H117370   1.151   4.158   1.474
 5788TIP3    H217371   1.203   4.120   1.611
 5789TIP3   OH217372   3.945   5.671   3.483
 5789TIP3    H117373   3.956   5.692   3.390
 5789TIP3    H217374   4.014   5.720   3.527
 5790TIP3   OH217375   5.836   2.191   2.677
 5790TIP3    H117376   5.909   2.187   2.738
 5790TIP3    H217377   5.826   2.284   2.658
 5791TIP3   OH217378   2.275   5.803   0.769
 5791TIP3    H117379   2.263   5.887   0.725
 5791TIP3    H217380   2.218   5.808   0.846
 5792TIP3   OH217381   5.301   5.868   1.145
 5792TIP3    H117382   5.358   5.842   1.217
 5792TIP3    H217383   5.360   5.883   1.071
 5793TIP3   OH217384   0.404   2.425   5.026
 5793TIP3    H117385   0.352   2.358   5.071
 5793TIP3    H217386   0.492   2.388   5.022
 5794TIP3   OH217387   6.226   2.760   1.203
 5794TIP3    H117388   6.293   2.705   1.244
 5794TIP3    H217389   6.198   2.710   1.126
 5795TIP3   OH217390   6.029   0.529   2.923
 5795TIP3    H117391   6.012   0.457   2.862
 5795TIP3    H217392   6.043   0.486   3.007
 5796TIP3   OH217393   3.182   3.625   3.864
 5796TIP3    H117394   3.116   3.612   3.796
 5796TIP3    H217395   3.157   3.564   3.934
 5797TIP3   OH217396   3.982   0.271   2.226
 5797TIP3    H117397   3.964   0.193   2.174
 5797TIP3    H217398   4.059   0.311   2.184
 5798TIP3   OH217399   1.196   1.344   1.347
 5798TIP3    H117400   1.193   1.312   1.257
 5798TIP3    H217401   1.163   1.271   1.399
 5799TIP3   OH217402   1.854   2.414   0.513
 5799TIP3    H117403   1.844   2.407   0.608
 5799TIP3    H217404   1.874   2.325   0.485
 5800TIP3   OH217405   0.548   1.717   3.554
 5800TIP3    H117406   0.499   1.797   3.575
 5800TIP3    H217407   0.517   1.693   3.466
 5801TIP3   OH217408   0.893   1.421   0.055
 5801TIP3    H117409   0.802   1.445   0.074
 5801TIP3    H217410   0.907   1.341   0.105
 5802TIP3   OH217411   3.286   3.535   1.530
 5802TIP3    H117412   3.209   3.576   1.491
 5802TIP3    H217413   3.327   3.487   1.458
 5803TIP3   OH217414   3.979   0.751   3.861
 5803TIP3    H117415   3.931   0.805   3.924
 5803TIP3    H217416   3.933   0.764   3.778
 5804TIP3   OH217417   4.630   4.430   0.031
 5804TIP3    H117418   4.588   4.481  -0.039
 5804TIP3    H217419   4.560   4.374   0.065
 5805TIP3   OH217420   0.322   3.303   2.139
 5805TIP3    H117421   0.281   3.317   2.224
 5805TIP3    H217422   0.294   3.215   2.113
 5806TIP3   OH217423   3.971   0.383   3.427
 5806TIP3    H117424   3.911   0.353   3.495
 5806TIP3    H217425   3.949   0.331   3.350
 5807TIP3   OH217426   3.743   5.286   1.593
 5807TIP3    H117427   3.752   5.247   1.680
 5807TIP3    H217428   3.662   5.336   1.597
 5808TIP3   OH217429   5.524   0.132   0.527
 5808TIP3    H117430   5.534   0.224   0.501
 5808TIP3    H217431   5.589   0.120   0.596
 5809TIP3   OH217432   4.090   4.955   0.834
 5809TIP3    H117433   4.183   4.968   0.816
 5809TIP3    H217434   4.063   4.886   0.773
 5810TIP3   OH217435   5.546   4.954   1.440
 5810TIP3    H117436   5.455   4.957   1.470
 5810TIP3    H217437   5.554   4.871   1.394
 5811TIP3   OH217438   2.833   3.876   4.286
 5811TIP3    H117439   2.738   3.875   4.289
 5811TIP3    H217440   2.859   3.948   4.344
 5812TIP3   OH217441   0.405   0.736   3.335
 5812TIP3    H117442   0.389   0.830   3.328
 5812TIP3    H217443   0.398   0.704   3.245
 5813TIP3   OH217444   3.762   4.024   4.833
 5813TIP3    H117445   3.710   4.085   4.885
 5813TIP3    H217446   3.745   4.049   4.742
 5814TIP3   OH217447   3.781   2.986   3.508
 5814TIP3    H117448   3.814   2.960   3.421
 5814TIP3    H217449   3.770   2.903   3.555
 5815TIP3   OH217450   0.342   3.819   4.482
 5815TIP3    H117451   0.315   3.863   4.401
 5815TIP3    H217452   0.353   3.727   4.457
 5816TIP3   OH217453   4.390   5.880   2.244
 5816TIP3    H117454   4.456   5.818   2.276
 5816TIP3    H217455   4.364   5.846   2.159
 5817TIP3   OH217456   1.061   5.290   3.056
 5817TIP3    H117457   1.022   5.237   2.986
 5817TIP3    H217458   1.152   5.260   3.060
 5818TIP3   OH217459   3.393   4.695   4.944
 5818TIP3    H117460   3.327   4.689   4.874
 5818TIP3    H217461   3.458   4.757   4.910
 5819TIP3   OH217462   2.680   4.820   2.090
 5819TIP3    H117463   2.721   4.851   2.010
 5819TIP3    H217464   2.751   4.783   2.142
 5820TIP3   OH217465   1.040   4.282   1.409
 5820TIP3    H117466   0.997   4.252   1.489
 5820TIP3    H217467   0.973   4.275   1.342
 5821TIP3   OH217468   3.548   4.298   3.358
 5821TIP3    H117469   3.498   4.380   3.368
 5821TIP3    H217470   3.530   4.271   3.268
 5822TIP3   OH217471   3.397   4.897   3.431
 5822TIP3    H117472   3.483   4.857   3.445
 5822TIP3    H217473   3.396   4.972   3.491
 5823TIP3   OH217474   1.027   1.411   0.434
 5823TIP3    H117475   1.056   1.412   0.525
 5823TIP3    H217476   0.932   1.408   0.439
 5824TIP3   OH217477   4.340   0.520   1.589
 5824TIP3    H117478   4.402   0.592   1.603
 5824TIP3    H217479   4.266   0.542   1.646
 5825TIP3   OH217480   0.253   4.770   3.693
 5825TIP3    H117481   0.179   4.714   3.719
 5825TIP3    H217482   0.268   4.827   3.768
 5826TIP3   OH217483   4.943   3.056   0.392
 5826TIP3    H117484   4.919   3.013   0.474
 5826TIP3    H217485   4.889   3.135   0.390
 5827TIP3   OH217486   2.584   0.914   3.230
 5827TIP3    H117487   2.570   1.004   3.260
 5827TIP3    H217488   2.497   0.877   3.222
 5828TIP3   OH217489   2.980   1.430   1.719
 5828TIP3    H117490   2.934   1.347   1.729
 5828TIP3    H217491   2.935   1.475   1.648
 5829TIP3   OH217492   4.186   0.038   3.558
 5829TIP3    H117493   4.155  -0.032   3.501
 5829TIP3    H217494   4.189  -0.001   3.645
 5830TIP3   OH217495   2.578   0.187   2.930
 5830TIP3    H117496   2.613   0.256   2.986
 5830TIP3    H217497   2.620   0.107   2.961
 5831TIP3   OH217498   3.219   3.862   0.923
 5831TIP3    H117499   3.198   3.955   0.935
 5831TIP3    H217500   3.286   3.861   0.855
 5832TIP3   OH217501   1.565   0.470   2.706
 5832TIP3    H117502   1.479   0.477   2.748
 5832TIP3    H217503   1.621   0.530   2.757
 5833TIP3   OH217504   1.342   5.470   3.894
 5833TIP3    H117505   1.415   5.442   3.840
 5833TIP3    H217506   1.274   5.496   3.832
 5834TIP3   OH217507   5.440   3.750   1.163
 5834TIP3    H117508   5.533   3.773   1.175
 5834TIP3    H217509   5.432   3.735   1.069
 5835TIP3   OH217510   1.500   2.373   5.045
 5835TIP3    H117511   1.491   2.362   5.139
 5835TIP3    H217512   1.429   2.321   5.007
 5836TIP3   OH217513   0.319   1.259   2.677
 5836TIP3    H117514   0.279   1.196   2.737
 5836TIP3    H217515   0.361   1.323   2.734
 5837TIP3   OH217516   2.683   1.729   1.776
 5837TIP3    H117517   2.610   1.725   1.714
 5837TIP3    H217518   2.759   1.748   1.721
 5838TIP3   OH217519   1.965   1.320   4.185
 5838TIP3    H117520   1.985   1.262   4.112
 5838TIP3    H217521   2.050   1.345   4.221
 5839TIP3   OH217522   1.928   5.100   2.134
 5839TIP3    H117523   2.012   5.142   2.157
 5839TIP3    H217524   1.948   5.006   2.134
 5840TIP3   OH217525   2.160   2.881   3.377
 5840TIP3    H117526   2.243   2.834   3.371
 5840TIP3    H217527   2.136   2.900   3.286
 5841TIP3   OH217528   5.506   1.111   4.456
 5841TIP3    H117529   5.496   1.036   4.397
 5841TIP3    H217530   5.474   1.080   4.540
 5842TIP3   OH217531   0.564   1.920   3.202
 5842TIP3    H117532   0.516   1.840   3.222
 5842TIP3    H217533   0.632   1.926   3.269
 5843TIP3   OH217534   6.116   3.134   3.152
 5843TIP3    H117535   6.179   3.104   3.219
 5843TIP3    H217536   6.051   3.184   3.201
 5844TIP3   OH217537   3.317   2.519   1.450
 5844TIP3    H117538   3.339   2.486   1.537
 5844TIP3    H217539   3.401   2.533   1.407
 5845TIP3   OH217540   4.325   1.168   2.030
 5845TIP3    H117541   4.271   1.112   1.975
 5845TIP3    H217542   4.265   1.203   2.095
 5846TIP3   OH217543   1.326   3.554   0.152
 5846TIP3    H117544   1.304   3.465   0.180
 5846TIP3    H217545   1.389   3.585   0.217
 5847TIP3   OH217546   3.416   0.198   0.157
 5847TIP3    H117547   3.406   0.270   0.220
 5847TIP3    H217548   3.459   0.128   0.206
 5848TIP3   OH217549   2.627   2.845   2.547
 5848TIP3    H117550   2.602   2.871   2.636
 5848TIP3    H217551   2.711   2.802   2.557
 5849TIP3   OH217552   0.468   3.966   3.443
 5849TIP3    H117553   0.512   3.949   3.360
 5849TIP3    H217554   0.532   4.013   3.496
 5850TIP3   OH217555   4.177   4.025   1.160
 5850TIP3    H117556   4.127   4.055   1.084
 5850TIP3    H217557   4.118   3.964   1.204
 5851TIP3   OH217558   1.848   1.975   0.253
 5851TIP3    H117559   1.811   1.887   0.248
 5851TIP3    H217560   1.915   1.976   0.184
 5852TIP3   OH217561  -0.017   3.699   0.054
 5852TIP3    H117562   0.024   3.640   0.117
 5852TIP3    H217563   0.035   3.779   0.057
 5853TIP3   OH217564   4.444   0.812   4.565
 5853TIP3    H117565   4.407   0.784   4.481
 5853TIP3    H217566   4.367   0.821   4.622
 5854TIP3   OH217567   1.656   1.036   2.902
 5854TIP3    H117568   1.699   1.046   2.817
 5854TIP3    H217569   1.685   0.950   2.933
 5855TIP3   OH217570   5.804   4.170   3.349
 5855TIP3    H117571   5.825   4.189   3.258
 5855TIP3    H217572   5.769   4.081   3.348
 5856TIP3   OH217573   1.583   2.494   0.351
 5856TIP3    H117574   1.565   2.458   0.265
 5856TIP3    H217575   1.673   2.526   0.346
 5857TIP3   OH217576   6.267   3.199   1.636
 5857TIP3    H117577   6.269   3.119   1.583
 5857TIP3    H217578   6.338   3.187   1.700
 5858TIP3   OH217579   6.195   5.809   0.916
 5858TIP3    H117580   6.279   5.848   0.893
 5858TIP3    H217581   6.173   5.753   0.841
 5859TIP3   OH217582   2.791   5.535   4.699
 5859TIP3    H117583   2.777   5.597   4.628
 5859TIP3    H217584   2.848   5.581   4.760
 5860TIP3   OH217585   3.709   5.003   0.728
 5860TIP3    H117586   3.693   5.057   0.651
 5860TIP3    H217587   3.769   5.054   0.782
 5861TIP3   OH217588   5.095   5.316   4.540
 5861TIP3    H117589   5.021   5.257   4.551
 5861TIP3    H217590   5.067   5.398   4.581
 5862TIP3   OH217591   3.452   2.979   0.201
 5862TIP3    H117592   3.378   2.933   0.160
 5862TIP3    H217593   3.417   3.009   0.285
 5863TIP3   OH217594   2.372   0.839   1.037
 5863TIP3    H117595   2.369   0.747   1.063
 5863TIP3    H217596   2.396   0.837   0.944
 5864TIP3   OH217597   3.101   0.699   3.918
 5864TIP3    H117598   3.044   0.769   3.887
 5864TIP3    H217599   3.042   0.642   3.968
 5865TIP3   OH217600   4.077   1.938   3.841
 5865TIP3    H117601   4.092   1.878   3.768
 5865TIP3    H217602   4.116   2.021   3.813
 5866TIP3   OH217603   3.845   4.008   4.049
 5866TIP3    H117604   3.867   4.083   3.994
 5866TIP3    H217605   3.822   3.939   3.987
 5867TIP3   OH217606   5.041   5.191   0.236
 5867TIP3    H117607   5.108   5.204   0.304
 5867TIP3    H217608   4.969   5.247   0.263
 5868TIP3   OH217609   4.884   0.441   4.153
 5868TIP3    H117610   4.801   0.451   4.105
 5868TIP3    H217611   4.892   0.346   4.165
 5869TIP3   OH217612   1.851   5.556   1.560
 5869TIP3    H117613   1.797   5.498   1.614
 5869TIP3    H217614   1.833   5.644   1.593
 5870TIP3   OH217615   0.883   1.736   1.836
 5870TIP3    H117616   0.917   1.768   1.919
 5870TIP3    H217617   0.935   1.658   1.817
 5871TIP3   OH217618   2.954   3.403   4.868
 5871TIP3    H117619   2.945   3.340   4.940
 5871TIP3    H217620   2.911   3.362   4.794
 5872TIP3   OH217621   1.942   1.871   3.078
 5872TIP3    H117622   1.942   1.813   3.154
 5872TIP3    H217623   2.000   1.943   3.104
 5873TIP3   OH217624   3.190   2.574   2.285
 5873TIP3    H117625   3.197   2.481   2.262
 5873TIP3    H217626   3.097   2.594   2.277
 5874TIP3   OH217627   0.243   3.689   1.578
 5874TIP3    H117628   0.278   3.682   1.666
 5874TIP3    H217629   0.170   3.626   1.576
 5875TIP3   OH217630   1.163   3.132   1.998
 5875TIP3    H117631   1.244   3.182   1.988
 5875TIP3    H217632   1.126   3.128   1.910
 5876TIP3   OH217633   0.223   5.168   2.409
 5876TIP3    H117634   0.168   5.112   2.353
 5876TIP3    H217635   0.297   5.193   2.353
 5877TIP3   OH217636   1.548   0.035   2.648
 5877TIP3    H117637   1.489   0.103   2.682
 5877TIP3    H217638   1.489  -0.032   2.614
 5878TIP3   OH217639   4.648   2.473   3.101
 5878TIP3    H117640   4.719   2.485   3.164
 5878TIP3    H217641   4.584   2.540   3.124
 5879TIP3   OH217642   2.995   4.370   1.497
 5879TIP3    H117643   2.927   4.346   1.434
 5879TIP3    H217644   2.949   4.426   1.561
 5880TIP3   OH217645   2.670   4.294   0.686
 5880TIP3    H117646   2.691   4.220   0.629
 5880TIP3    H217647   2.578   4.280   0.709
 5881TIP3   OH217648   3.700   2.559   3.157
 5881TIP3    H117649   3.669   2.640   3.199
 5881TIP3    H217650   3.776   2.533   3.209
 5882TIP3   OH217651   5.790   2.866   2.491
 5882TIP3    H117652   5.804   2.806   2.565
 5882TIP3    H217653   5.721   2.825   2.440
 5883TIP3   OH217654   1.233   1.194  -0.004
 5883TIP3    H117655   1.324   1.167  -0.013
 5883TIP3    H217656   1.231   1.283  -0.038
 5884TIP3   OH217657   6.120   5.401   3.388
 5884TIP3    H117658   6.030   5.401   3.357
 5884TIP3    H217659   6.118   5.453   3.468
 5885TIP3   OH217660   3.370   2.385   2.618
 5885TIP3    H117661   3.353   2.479   2.614
 5885TIP3    H217662   3.283   2.345   2.612
 5886TIP3   OH217663   4.415   4.847   4.992
 5886TIP3    H117664   4.438   4.800   4.912
 5886TIP3    H217665   4.498   4.882   5.024
 5887TIP3   OH217666   5.173   3.128   1.287
 5887TIP3    H117667   5.244   3.064   1.288
 5887TIP3    H217668   5.215   3.210   1.261
 5888TIP3   OH217669   2.844   2.307   1.623
 5888TIP3    H117670   2.937   2.301   1.603
 5888TIP3    H217671   2.810   2.369   1.558
 5889TIP3   OH217672   2.672   5.070   1.634
 5889TIP3    H117673   2.743   5.133   1.640
 5889TIP3    H217674   2.715   4.986   1.619
 5890TIP3   OH217675   6.165   1.134   0.049
 5890TIP3    H117676   6.089   1.191   0.064
 5890TIP3    H217677   6.133   1.047   0.071
 5891TIP3   OH217678   6.061   3.717   1.095
 5891TIP3    H117679   6.106   3.736   1.012
 5891TIP3    H217680   6.030   3.627   1.085
 5892TIP3   OH217681   3.884   5.820   3.857
 5892TIP3    H117682   3.832   5.808   3.937
 5892TIP3    H217683   3.974   5.810   3.886
 5893TIP3   OH217684   2.342   4.579   0.531
 5893TIP3    H117685   2.255   4.547   0.554
 5893TIP3    H217686   2.386   4.592   0.615
 5894TIP3   OH217687   2.101   3.511   0.408
 5894TIP3    H117688   2.129   3.443   0.346
 5894TIP3    H217689   2.093   3.466   0.491
 5895TIP3   OH217690   3.309   4.246   2.554
 5895TIP3    H117691   3.230   4.193   2.547
 5895TIP3    H217692   3.337   4.236   2.645
 5896TIP3   OH217693   5.695   5.485   5.070
 5896TIP3    H117694   5.664   5.404   5.110
 5896TIP3    H217695   5.786   5.492   5.098
 5897TIP3   OH217696   1.514   2.647   2.456
 5897TIP3    H117697   1.585   2.584   2.447
 5897TIP3    H217698   1.541   2.703   2.529
 5898TIP3   OH217699   3.519   4.432   0.812
 5898TIP3    H117700   3.513   4.430   0.717
 5898TIP3    H217701   3.467   4.357   0.841
 5899TIP3   OH217702   5.609   2.026   2.634
 5899TIP3    H117703   5.620   1.974   2.713
 5899TIP3    H217704   5.681   2.089   2.635
 5900TIP3   OH217705   2.179   4.935   0.398
 5900TIP3    H117706   2.255   4.964   0.447
 5900TIP3    H217707   2.114   5.004   0.409
 5901TIP3   OH217708   3.336   1.024   5.132
 5901TIP3    H117709   3.242   1.039   5.119
 5901TIP3    H217710   3.378   1.082   5.069
 5902TIP3   OH217711   5.847   5.270   3.345
 5902TIP3    H117712   5.815   5.359   3.332
 5902TIP3    H217713   5.916   5.258   3.281
 5903TIP3   OH217714   5.769   3.946   3.033
 5903TIP3    H117715   5.743   3.907   2.950
 5903TIP3    H217716   5.753   3.877   3.098
 5904TIP3   OH217717   4.672   2.380   2.088
 5904TIP3    H117718   4.602   2.437   2.056
 5904TIP3    H217719   4.743   2.391   2.026
 5905TIP3   OH217720   4.087   0.001   1.344
 5905TIP3    H117721   4.088   0.058   1.267
 5905TIP3    H217722   4.172   0.015   1.385
 5906TIP3   OH217723   3.244   6.006   3.577
 5906TIP3    H117724   3.247   6.100   3.595
 5906TIP3    H217725   3.295   5.967   3.648
 5907TIP3   OH217726   4.512   3.242   2.232
 5907TIP3    H117727   4.527   3.251   2.326
 5907TIP3    H217728   4.465   3.322   2.208
 5908TIP3   OH217729   1.746   3.795   4.454
 5908TIP3    H117730   1.671   3.848   4.481
 5908TIP3    H217731   1.708   3.710   4.432
 5909TIP3   OH217732   3.670   2.892   1.324
 5909TIP3    H117733   3.644   2.845   1.245
 5909TIP3    H217734   3.633   2.840   1.396
 5910TIP3   OH217735   1.011   1.357   1.618
 5910TIP3    H117736   0.955   1.283   1.594
 5910TIP3    H217737   0.966   1.433   1.582
 5911TIP3   OH217738   0.965   4.794   0.261
 5911TIP3    H117739   0.912   4.764   0.187
 5911TIP3    H217740   1.032   4.726   0.271
 5912TIP3   OH217741   1.911   1.112   5.083
 5912TIP3    H117742   1.860   1.031   5.083
 5912TIP3    H217743   1.950   1.115   4.996
 5913TIP3   OH217744   3.174   0.300   4.490
 5913TIP3    H117745   3.252   0.316   4.436
 5913TIP3    H217746   3.195   0.340   4.574
 5914TIP3   OH217747   0.695   5.774   2.660
 5914TIP3    H117748   0.733   5.828   2.730
 5914TIP3    H217749   0.637   5.834   2.613
 5915TIP3   OH217750   6.197   1.285   1.896
 5915TIP3    H117751   6.127   1.327   1.846
 5915TIP3    H217752   6.256   1.356   1.921
 5916TIP3   OH217753   1.034   1.727   0.324
 5916TIP3    H117754   1.001   1.637   0.335
 5916TIP3    H217755   0.978   1.780   0.381
 5917TIP3   OH217756   0.861   0.842   0.708
 5917TIP3    H117757   0.884   0.790   0.785
 5917TIP3    H217758   0.765   0.842   0.707
 5918TIP3   OH217759   0.739   2.834   4.492
 5918TIP3    H117760   0.732   2.857   4.584
 5918TIP3    H217761   0.670   2.884   4.449
 5919TIP3   OH217762   1.725   3.169   0.311
 5919TIP3    H117763   1.782   3.098   0.285
 5919TIP3    H217764   1.649   3.126   0.350
 5920TIP3   OH217765   2.480   4.250   4.631
 5920TIP3    H117766   2.413   4.216   4.689
 5920TIP3    H217767   2.562   4.242   4.680
 5921TIP3   OH217768   5.849   2.018   1.279
 5921TIP3    H117769   5.808   2.089   1.231
 5921TIP3    H217770   5.782   1.949   1.283
 5922TIP3   OH217771   0.448   0.886   4.037
 5922TIP3    H117772   0.540   0.859   4.037
 5922TIP3    H217773   0.442   0.951   3.967
 5923TIP3   OH217774   5.075   4.207   3.222
 5923TIP3    H117775   4.998   4.216   3.279
 5923TIP3    H217776   5.039   4.191   3.135
 5924TIP3   OH217777   2.893   2.758   2.613
 5924TIP3    H117778   2.966   2.765   2.675
 5924TIP3    H217779   2.888   2.665   2.592
 5925TIP3   OH217780   4.578   0.734   0.272
 5925TIP3    H117781   4.551   0.647   0.303
 5925TIP3    H217782   4.576   0.727   0.177
 5926TIP3   OH217783   3.375   2.398   2.044
 5926TIP3    H117784   3.339   2.319   2.083
 5926TIP3    H217785   3.420   2.442   2.116
 5927TIP3   OH217786   3.782   2.737   3.653
 5927TIP3    H117787   3.818   2.655   3.686
 5927TIP3    H217788   3.742   2.778   3.730
 5928TIP3   OH217789   0.902   2.984   0.400
 5928TIP3    H117790   0.919   3.058   0.457
 5928TIP3    H217791   0.928   2.907   0.452
 5929TIP3   OH217792   2.387   5.396   1.732
 5929TIP3    H117793   2.292   5.408   1.736
 5929TIP3    H217794   2.400   5.301   1.726
 5930TIP3   OH217795   4.593   3.709   2.558
 5930TIP3    H117796   4.540   3.787   2.544
 5930TIP3    H217797   4.535   3.649   2.605
 5931TIP3   OH217798   4.927   0.705   3.194
 5931TIP3    H117799   5.013   0.683   3.158
 5931TIP3    H217800   4.876   0.625   3.184
 5932TIP3   OH217801   2.707   0.779   4.332
 5932TIP3    H117802   2.710   0.840   4.405
 5932TIP3    H217803   2.634   0.721   4.353
 5933TIP3   OH217804   5.869   5.749   0.215
 5933TIP3    H117805   5.866   5.840   0.242
 5933TIP3    H217806   5.957   5.720   0.238
 5934TIP3   OH217807   0.173   3.657   4.211
 5934TIP3    H117808   0.202   3.612   4.132
 5934TIP3    H217809   0.116   3.595   4.255
 5935TIP3   OH217810   2.308   3.795   1.451
 5935TIP3    H117811   2.357   3.842   1.383
 5935TIP3    H217812   2.222   3.781   1.412
 5936TIP3   OH217813   2.943   5.521   3.858
 5936TIP3    H117814   2.953   5.616   3.852
 5936TIP3    H217815   2.848   5.508   3.867
 5937TIP3   OH217816   4.736   1.343   1.268
 5937TIP3    H117817   4.785   1.358   1.349
 5937TIP3    H217818   4.798   1.297   1.211
 5938TIP3   OH217819   1.779   1.348   2.471
 5938TIP3    H117820   1.733   1.412   2.416
 5938TIP3    H217821   1.832   1.402   2.530
 5939TIP3   OH217822   5.576   2.365   4.579
 5939TIP3    H117823   5.618   2.448   4.601
 5939TIP3    H217824   5.518   2.387   4.506
 5940TIP3   OH217825   5.919   1.641   1.390
 5940TIP3    H117826   6.005   1.614   1.357
 5940TIP3    H217827   5.905   1.728   1.353
 5941TIP3   OH217828   0.315   1.744   0.199
 5941TIP3    H117829   0.227   1.724   0.168
 5941TIP3    H217830   0.304   1.824   0.251
 5942TIP3   OH217831   5.490   3.749   3.368
 5942TIP3    H117832   5.478   3.689   3.442
 5942TIP3    H217833   5.549   3.817   3.402
 5943TIP3   OH217834   1.838   1.043   1.032
 5943TIP3    H117835   1.933   1.044   1.022
 5943TIP3    H217836   1.805   1.052   0.942
 5944TIP3   OH217837   3.710   0.826   3.081
 5944TIP3    H117838   3.658   0.746   3.079
 5944TIP3    H217839   3.647   0.896   3.065
 5945TIP3   OH217840   1.330   5.552   2.148
 5945TIP3    H117841   1.324   5.536   2.054
 5945TIP3    H217842   1.301   5.643   2.159
 5946TIP3   OH217843   1.959   3.406   4.091
 5946TIP3    H117844   2.031   3.468   4.103
 5946TIP3    H217845   1.999   3.333   4.044
 5947TIP3   OH217846   6.134   1.859   3.474
 5947TIP3    H117847   6.136   1.860   3.570
 5947TIP3    H217848   6.081   1.783   3.452
 5948TIP3   OH217849   1.903   1.709   3.330
 5948TIP3    H117850   1.918   1.616   3.348
 5948TIP3    H217851   1.948   1.755   3.400
 5949TIP3   OH217852   6.273   1.623   3.562
 5949TIP3    H117853   6.366   1.637   3.545
 5949TIP3    H217854   6.263   1.640   3.656
 5950TIP3   OH217855   2.938   3.815   4.039
 5950TIP3    H117856   2.869   3.750   4.023
 5950TIP3    H217857   2.912   3.856   4.121
 5951TIP3   OH217858   3.720   0.197   1.251
 5951TIP3    H117859   3.704   0.102   1.255
 5951TIP3    H217860   3.649   0.234   1.303
 5952TIP3   OH217861   3.718   3.599   4.089
 5952TIP3    H117862   3.784   3.537   4.117
 5952TIP3    H217863   3.724   3.671   4.152
 5953TIP3   OH217864   3.026   1.849   3.401
 5953TIP3    H117865   2.960   1.870   3.466
 5953TIP3    H217866   2.997   1.895   3.322
 5954TIP3   OH217867   6.076   1.668   0.857
 5954TIP3    H117868   6.146   1.604   0.869
 5954TIP3    H217869   6.121   1.751   0.839
 5955TIP3   OH217870   4.549   1.709   0.248
 5955TIP3    H117871   4.635   1.669   0.258
 5955TIP3    H217872   4.515   1.718   0.337
 5956TIP3   OH217873   4.845   4.599   0.037
 5956TIP3    H117874   4.852   4.611  -0.058
 5956TIP3    H217875   4.762   4.552   0.049
 5957TIP3   OH217876   5.770   3.950  -0.020
 5957TIP3    H117877   5.844   3.988   0.027
 5957TIP3    H217878   5.703   4.017  -0.018
 5958TIP3   OH217879   0.976   0.877   4.318
 5958TIP3    H117880   1.069   0.880   4.293
 5958TIP3    H217881   0.977   0.873   4.414
 5959TIP3   OH217882   1.730   1.718   0.364
 5959TIP3    H117883   1.704   1.633   0.329
 5959TIP3    H217884   1.813   1.701   0.409
 5960TIP3   OH217885   4.503   5.474   2.831
 5960TIP3    H117886   4.419   5.506   2.863
 5960TIP3    H217887   4.505   5.498   2.738
 5961TIP3   OH217888   5.682   4.044   4.946
 5961TIP3    H117889   5.641   4.124   4.912
 5961TIP3    H217890   5.668   3.979   4.877
 5962TIP3   OH217891   3.488   1.567   0.095
 5962TIP3    H117892   3.483   1.509   0.019
 5962TIP3    H217893   3.561   1.625   0.076
 5963TIP3   OH217894   0.329   2.081   1.117
 5963TIP3    H117895   0.292   2.086   1.205
 5963TIP3    H217896   0.423   2.090   1.131
 5964TIP3   OH217897   1.230   0.689   1.753
 5964TIP3    H117898   1.143   0.665   1.785
 5964TIP3    H217899   1.268   0.606   1.723
 5965TIP3   OH217900   0.148   3.178   1.726
 5965TIP3    H117901   0.234   3.151   1.693
 5965TIP3    H217902   0.167   3.254   1.781
 5966TIP3   OH217903   5.517   5.334   4.218
 5966TIP3    H117904   5.527   5.247   4.181
 5966TIP3    H217905   5.451   5.376   4.163
 5967TIP3   OH217906   3.351   0.744   0.558
 5967TIP3    H117907   3.418   0.812   0.548
 5967TIP3    H217908   3.273   0.792   0.588
 5968TIP3   OH217909   3.245   5.763   3.977
 5968TIP3    H117910   3.195   5.715   3.911
 5968TIP3    H217911   3.332   5.723   3.975
 5969TIP3   OH217912   1.027   1.243   0.216
 5969TIP3    H117913   1.106   1.250   0.162
 5969TIP3    H217914   1.058   1.263   0.305
 5970TIP3   OH217915   5.251   0.361   2.133
 5970TIP3    H117916   5.317   0.305   2.093
 5970TIP3    H217917   5.170   0.309   2.130
 5971TIP3   OH217918   3.064   5.213   4.062
 5971TIP3    H117919   3.050   5.224   4.156
 5971TIP3    H217920   3.127   5.281   4.039
 5972TIP3   OH217921   0.688   4.495   5.178
 5972TIP3    H117922   0.740   4.418   5.157
 5972TIP3    H217923   0.750   4.556   5.218
 5973TIP3   OH217924   0.909   1.861   4.784
 5973TIP3    H117925   0.941   1.927   4.722
 5973TIP3    H217926   0.882   1.787   4.730
 5974TIP3   OH217927   3.203   4.953   3.199
 5974TIP3    H117928   3.274   4.894   3.174
 5974TIP3    H217929   3.214   4.965   3.294
 5975TIP3   OH217930   4.511   3.885   0.198
 5975TIP3    H117931   4.456   3.881   0.121
 5975TIP3    H217932   4.526   3.793   0.222
 5976TIP3   OH217933   5.356   3.199   2.173
 5976TIP3    H117934   5.401   3.188   2.089
 5976TIP3    H217935   5.421   3.169   2.238
 5977TIP3   OH217936   0.747   3.424   4.762
 5977TIP3    H117937   0.681   3.494   4.770
 5977TIP3    H217938   0.755   3.389   4.851
 5978TIP3   OH217939   6.020   1.708   3.101
 5978TIP3    H117940   6.098   1.666   3.136
 5978TIP3    H217941   5.947   1.658   3.138
 5979TIP3   OH217942   1.607   5.286   0.123
 5979TIP3    H117943   1.609   5.295   0.027
 5979TIP3    H217944   1.605   5.192   0.138
 5980TIP3   OH217945   0.578   3.480   3.151
 5980TIP3    H117946   0.559   3.387   3.136
 5980TIP3    H217947   0.495   3.516   3.183
 5981TIP3   OH217948   5.749   5.211   0.025
 5981TIP3    H117949   5.750   5.300   0.062
 5981TIP3    H217950   5.829   5.171   0.057
 5982TIP3   OH217951   3.749   2.145   4.073
 5982TIP3    H117952   3.709   2.181   4.152
 5982TIP3    H217953   3.677   2.142   4.010
 5983TIP3   OH217954   0.720   3.647   2.890
 5983TIP3    H117955   0.729   3.582   2.960
 5983TIP3    H217956   0.779   3.616   2.821
 5984TIP3   OH217957   2.592   2.578   2.713
 5984TIP3    H117958   2.623   2.633   2.785
 5984TIP3    H217959   2.515   2.623   2.680
 5985TIP3   OH217960   3.559   2.741   2.379
 5985TIP3    H117961   3.569   2.646   2.371
 5985TIP3    H217962   3.479   2.761   2.330
 5986TIP3   OH217963   2.595   1.325   4.042
 5986TIP3    H117964   2.595   1.309   3.948
 5986TIP3    H217965   2.678   1.288   4.072
 5987TIP3   OH217966   5.709   3.196   2.582
 5987TIP3    H117967   5.639   3.192   2.648
 5987TIP3    H217968   5.790   3.202   2.633
 5988TIP3   OH217969   5.495   4.100   1.773
 5988TIP3    H117970   5.513   4.115   1.866
 5988TIP3    H217971   5.487   4.188   1.736
 5989TIP3   OH217972   1.436   2.685   0.469
 5989TIP3    H117973   1.496   2.759   0.477
 5989TIP3    H217974   1.491   2.613   0.436
 5990TIP3   OH217975   0.173   1.656   1.193
 5990TIP3    H117976   0.249   1.708   1.170
 5990TIP3    H217977   0.198   1.611   1.274
 5991TIP3   OH217978   2.281   2.100   3.332
 5991TIP3    H117979   2.368   2.118   3.298
 5991TIP3    H217980   2.296   2.050   3.412
 5992TIP3   OH217981   0.566   5.536   3.820
 5992TIP3    H117982   0.642   5.593   3.834
 5992TIP3    H217983   0.596   5.449   3.845
 5993TIP3   OH217984   3.112   5.517   1.450
 5993TIP3    H117985   3.113   5.426   1.479
 5993TIP3    H217986   3.028   5.552   1.481
 5994TIP3   OH217987   1.679   5.835   3.644
 5994TIP3    H117988   1.608   5.840   3.709
 5994TIP3    H217989   1.752   5.881   3.686
 5995TIP3   OH217990   2.154   0.553   4.425
 5995TIP3    H117991   2.131   0.599   4.506
 5995TIP3    H217992   2.105   0.599   4.357
 5996TIP3   OH217993   5.489   0.331   0.162
 5996TIP3    H117994   5.447   0.413   0.187
 5996TIP3    H217995   5.567   0.357   0.114
 5997TIP3   OH217996   4.476   2.996   1.480
 5997TIP3    H117997   4.387   2.961   1.476
 5997TIP3    H217998   4.533   2.920   1.471
 5998TIP3   OH217999   1.484   3.963   2.832
 5998TIP3    H118000   1.497   3.999   2.745
 5998TIP3    H218001   1.569   3.927   2.857
 5999TIP3   OH218002   2.048   4.718   0.059
 5999TIP3    H118003   2.119   4.655   0.064
 5999TIP3    H218004   1.974   4.669   0.022
 6000TIP3   OH218005   4.108   4.888   3.036
 6000TIP3    H118006   4.025   4.898   3.081
 6000TIP3    H218007   4.154   4.970   3.051
 6001TIP3   OH218008   5.392   1.400   1.076
 6001TIP3    H118009   5.461   1.458   1.109
 6001TIP3    H218010   5.432   1.313   1.076
 6002TIP3   OH218011   4.923   0.629   2.232
 6002TIP3    H118012   4.900   0.688   2.305
 6002TIP3    H218013   5.017   0.615   2.241
 6003TIP3   OH218014   1.541   3.822   5.115
 6003TIP3    H118015   1.468   3.833   5.053
 6003TIP3    H218016   1.575   3.734   5.096
 6004TIP3   OH218017   6.195   1.847   4.291
 6004TIP3    H118018   6.210   1.845   4.385
 6004TIP3    H218019   6.248   1.921   4.260
 6005TIP3   OH218020   3.840   2.443   3.724
 6005TIP3    H118021   3.788   2.378   3.676
 6005TIP3    H218022   3.925   2.444   3.680
 6006TIP3   OH218023   0.760   1.286   4.965
 6006TIP3    H118024   0.797   1.198   4.955
 6006TIP3    H218025   0.705   1.279   5.044
 6007TIP3   OH218026   2.124   1.245   2.640
 6007TIP3    H118027   2.198   1.189   2.618
 6007TIP3    H218028   2.103   1.292   2.559
 6008TIP3   OH218029   1.483   3.557   1.196
 6008TIP3    H118030   1.460   3.473   1.235
 6008TIP3    H218031   1.479   3.619   1.268
 6009TIP3   OH218032   2.329   3.593   4.685
 6009TIP3    H118033   2.234   3.582   4.677
 6009TIP3    H218034   2.341   3.688   4.685
 6010TIP3   OH218035   0.838   1.795   2.994
 6010TIP3    H118036   0.889   1.732   2.943
 6010TIP3    H218037   0.862   1.777   3.085
 6011TIP3   OH218038   3.838   2.647   1.364
 6011TIP3    H118039   3.875   2.725   1.323
 6011TIP3    H218040   3.868   2.651   1.455
 6012TIP3   OH218041   5.750   4.295   2.808
 6012TIP3    H118042   5.797   4.353   2.748
 6012TIP3    H218043   5.746   4.212   2.762
 6013TIP3   OH218044   0.073   0.019   5.136
 6013TIP3    H118045   0.110   0.091   5.187
 6013TIP3    H218046  -0.006   0.055   5.096
 6014TIP3   OH218047   3.996   0.013   1.772
 6014TIP3    H118048   3.969   0.090   1.721
 6014TIP3    H218049   4.036  -0.046   1.707
 6015TIP3   OH218050   0.335   1.315   1.538
 6015TIP3    H118051   0.326   1.405   1.506
 6015TIP3    H218052   0.295   1.316   1.624
 6016TIP3   OH218053   2.436   4.425   4.423
 6016TIP3    H118054   2.447   4.355   4.487
 6016TIP3    H218055   2.363   4.477   4.456
 6017TIP3   OH218056   4.124   4.895   2.519
 6017TIP3    H118057   4.052   4.947   2.487
 6017TIP3    H218058   4.143   4.833   2.448
 6018TIP3   OH218059   2.688   4.735   1.465
 6018TIP3    H118060   2.601   4.727   1.427
 6018TIP3    H218061   2.728   4.808   1.418
 6019TIP3   OH218062   3.646   2.758   4.124
 6019TIP3    H118063   3.727   2.757   4.174
 6019TIP3    H218064   3.578   2.731   4.186
 6020TIP3   OH218065   0.068   1.766   2.478
 6020TIP3    H118066   0.163   1.767   2.475
 6020TIP3    H218067   0.046   1.679   2.513
 6021TIP3   OH218068   5.689   0.338   3.827
 6021TIP3    H118069   5.784   0.345   3.833
 6021TIP3    H218070   5.657   0.404   3.889
 6022TIP3   OH218071   2.691   2.593   0.104
 6022TIP3    H118072   2.676   2.498   0.099
 6022TIP3    H218073   2.656   2.627   0.021
 6023TIP3   OH218074   2.068   3.263   1.446
 6023TIP3    H118075   2.138   3.329   1.444
 6023TIP3    H218076   2.113   3.183   1.474
 6024TIP3   OH218077   0.442   3.092   1.691
 6024TIP3    H118078   0.510   3.102   1.757
 6024TIP3    H218079   0.443   3.175   1.642
 6025TIP3   OH218080   4.840   1.003   1.227
 6025TIP3    H118081   4.757   1.026   1.269
 6025TIP3    H218082   4.858   1.076   1.168
 6026TIP3   OH218083   5.117   4.539   1.440
 6026TIP3    H118084   5.148   4.551   1.530
 6026TIP3    H218085   5.185   4.487   1.398
 6027TIP3   OH218086   5.525   2.178   2.114
 6027TIP3    H118087   5.514   2.214   2.026
 6027TIP3    H218088   5.609   2.213   2.145
 6028TIP3   OH218089   6.290   4.842   1.870
 6028TIP3    H118090   6.199   4.841   1.897
 6028TIP3    H218091   6.289   4.812   1.779
 6029TIP3   OH218092   5.959   4.838   2.787
 6029TIP3    H118093   5.934   4.749   2.760
 6029TIP3    H218094   5.998   4.876   2.709
 6030TIP3   OH218095   0.177   0.270   1.392
 6030TIP3    H118096   0.265   0.233   1.391
 6030TIP3    H218097   0.179   0.340   1.327
 6031TIP3   OH218098   5.493   3.574   4.378
 6031TIP3    H118099   5.429   3.511   4.345
 6031TIP3    H218100   5.576   3.547   4.339
 6032TIP3   OH218101   4.879   1.179   0.495
 6032TIP3    H118102   4.783   1.177   0.501
 6032TIP3    H218103   4.899   1.119   0.423
 6033TIP3   OH218104   4.691   0.437   2.270
 6033TIP3    H118105   4.741   0.507   2.228
 6033TIP3    H218106   4.608   0.479   2.294
 6034TIP3   OH218107   5.454   4.982   3.071
 6034TIP3    H118108   5.404   5.062   3.054
 6034TIP3    H218109   5.542   5.012   3.091
 6035TIP3   OH218110   0.411   5.957   4.624
 6035TIP3    H118111   0.357   5.991   4.553
 6035TIP3    H218112   0.465   6.032   4.652
 6036TIP3   OH218113   5.031   4.974   4.998
 6036TIP3    H118114   5.101   4.957   4.935
 6036TIP3    H218115   5.024   4.892   5.048
 6037TIP3   OH218116   0.892   5.186   4.674
 6037TIP3    H118117   0.942   5.115   4.715
 6037TIP3    H218118   0.802   5.169   4.700
 6038TIP3   OH218119   1.178   0.728   1.000
 6038TIP3    H118120   1.233   0.762   0.929
 6038TIP3    H218121   1.236   0.726   1.076
 6039TIP3   OH218122   3.301   2.059   3.178
 6039TIP3    H118123   3.281   2.032   3.088
 6039TIP3    H218124   3.321   2.153   3.171
 6040TIP3   OH218125   5.053   1.555   0.353
 6040TIP3    H118126   5.097   1.472   0.338
 6040TIP3    H218127   5.094   1.616   0.291
 6041TIP3   OH218128   2.381   5.297   1.401
 6041TIP3    H118129   2.354   5.380   1.360
 6041TIP3    H218130   2.298   5.252   1.419
 6042TIP3   OH218131   4.365   2.475   2.782
 6042TIP3    H118132   4.311   2.505   2.709
 6042TIP3    H218133   4.353   2.380   2.784
 6043TIP3   OH218134   4.864   4.731   5.161
 6043TIP3    H118135   4.901   4.650   5.196
 6043TIP3    H218136   4.833   4.706   5.073
 6044TIP3   OH218137   5.528   2.377   1.902
 6044TIP3    H118138   5.483   2.457   1.929
 6044TIP3    H218139   5.617   2.404   1.880
 6045TIP3   OH218140   6.209   5.258   2.424
 6045TIP3    H118141   6.287   5.309   2.445
 6045TIP3    H218142   6.241   5.187   2.368
 6046TIP3   OH218143   5.862   4.945   1.223
 6046TIP3    H118144   5.802   5.005   1.268
 6046TIP3    H218145   5.808   4.868   1.205
 6047TIP3   OH218146   2.084   2.533   3.949
 6047TIP3    H118147   2.069   2.557   3.858
 6047TIP3    H218148   2.006   2.483   3.974
 6048TIP3   OH218149   0.805   1.722   4.413
 6048TIP3    H118150   0.819   1.814   4.390
 6048TIP3    H218151   0.892   1.682   4.409
 6049TIP3   OH218152   1.801   0.455   1.887
 6049TIP3    H118153   1.867   0.439   1.819
 6049TIP3    H218154   1.762   0.369   1.903
 6050TIP3   OH218155   1.685   2.645   3.301
 6050TIP3    H118156   1.730   2.561   3.288
 6050TIP3    H218157   1.659   2.643   3.393
 6051TIP3   OH218158   5.032   3.016   3.083
 6051TIP3    H118159   5.051   2.923   3.067
 6051TIP3    H218160   4.950   3.032   3.037
 6052TIP3   OH218161   1.129   2.967   3.584
 6052TIP3    H118162   1.106   3.060   3.583
 6052TIP3    H218163   1.209   2.963   3.636
 6053TIP3   OH218164   2.174   5.245   0.649
 6053TIP3    H118165   2.201   5.324   0.603
 6053TIP3    H218166   2.084   5.230   0.620
 6054TIP3   OH218167   5.163   1.278   0.045
 6054TIP3    H118168   5.128   1.193   0.074
 6054TIP3    H218169   5.240   1.292   0.100
 6055TIP3   OH218170   2.371   2.266   0.710
 6055TIP3    H118171   2.305   2.267   0.641
 6055TIP3    H218172   2.364   2.352   0.751
 6056TIP3   OH218173   0.794   4.957   3.656
 6056TIP3    H118174   0.747   4.978   3.576
 6056TIP3    H218175   0.822   5.042   3.691
 6057TIP3   OH218176   5.498   5.378   3.689
 6057TIP3    H118177   5.482   5.298   3.638
 6057TIP3    H218178   5.413   5.399   3.728
 6058TIP3   OH218179   2.437   4.715   1.318
 6058TIP3    H118180   2.391   4.798   1.328
 6058TIP3    H218181   2.384   4.651   1.365
 6059TIP3   OH218182   2.658   3.998   1.252
 6059TIP3    H118183   2.633   3.940   1.180
 6059TIP3    H218184   2.586   4.061   1.258
 6060TIP3   OH218185   0.422   3.555   5.045
 6060TIP3    H118186   0.380   3.578   5.128
 6060TIP3    H218187   0.412   3.633   4.990
 6061TIP3   OH218188   3.994   3.825   3.485
 6061TIP3    H118189   3.997   3.768   3.408
 6061TIP3    H218190   3.988   3.765   3.559
 6062TIP3   OH218191   4.170   1.795   3.629
 6062TIP3    H118192   4.140   1.827   3.544
 6062TIP3    H218193   4.245   1.739   3.608
 6063TIP3   OH218194   1.321   4.627   2.366
 6063TIP3    H118195   1.277   4.565   2.424
 6063TIP3    H218196   1.354   4.696   2.424
 6064TIP3   OH218197   5.457   3.418   3.964
 6064TIP3    H118198   5.387   3.442   3.904
 6064TIP3    H218199   5.521   3.373   3.908
 6065TIP3   OH218200   5.653   1.730   1.635
 6065TIP3    H118201   5.628   1.641   1.612
 6065TIP3    H218202   5.574   1.782   1.620
 6066TIP3   OH218203   3.140   1.966   1.471
 6066TIP3    H118204   3.191   1.927   1.542
 6066TIP3    H218205   3.158   2.060   1.478
 6067TIP3   OH218206   0.736   4.462   2.637
 6067TIP3    H118207   0.642   4.443   2.642
 6067TIP3    H218208   0.742   4.556   2.656
 6068TIP3   OH218209   3.958   2.588   5.190
 6068TIP3    H118210   4.007   2.581   5.108
 6068TIP3    H218211   4.018   2.633   5.250
 6069TIP3   OH218212   3.964   3.688   3.742
 6069TIP3    H118213   3.926   3.626   3.680
 6069TIP3    H218214   4.007   3.633   3.808
 6070TIP3   OH218215   0.781   2.040   1.662
 6070TIP3    H118216   0.715   2.105   1.685
 6070TIP3    H218217   0.774   1.974   1.731
 6071TIP3   OH218218   3.142   3.147   2.576
 6071TIP3    H118219   3.052   3.116   2.583
 6071TIP3    H218220   3.150   3.177   2.486
 6072TIP3   OH218221   4.656   2.150   1.322
 6072TIP3    H118222   4.682   2.234   1.360
 6072TIP3    H218223   4.599   2.111   1.388
 6073TIP3   OH218224   6.098   4.204   2.516
 6073TIP3    H118225   6.121   4.119   2.554
 6073TIP3    H218226   6.089   4.187   2.423
 6074TIP3   OH218227   1.679   2.618   1.783
 6074TIP3    H118228   1.643   2.540   1.826
 6074TIP3    H218229   1.683   2.593   1.690
 6075TIP3   OH218230   2.621   0.955   0.322
 6075TIP3    H118231   2.534   0.981   0.293
 6075TIP3    H218232   2.606   0.884   0.384
 6076TIP3   OH218233   3.230   5.821   0.363
 6076TIP3    H118234   3.323   5.838   0.357
 6076TIP3    H218235   3.222   5.725   0.362
 6077TIP3   OH218236   1.908   0.050   1.374
 6077TIP3    H118237   1.996   0.029   1.344
 6077TIP3    H218238   1.850   0.012   1.307
 6078TIP3   OH218239   5.897   1.709   3.369
 6078TIP3    H118240   5.836   1.783   3.361
 6078TIP3    H218241   5.842   1.636   3.397
 6079TIP3   OH218242   4.661   1.110   3.589
 6079TIP3    H118243   4.679   1.035   3.532
 6079TIP3    H218244   4.700   1.085   3.673
 6080TIP3   OH218245   2.113   1.058   0.993
 6080TIP3    H118246   2.155   1.123   0.936
 6080TIP3    H218247   2.173   1.047   1.066
 6081TIP3   OH218248   3.980   3.218   2.213
 6081TIP3    H118249   3.921   3.145   2.191
 6081TIP3    H218250   4.000   3.258   2.129
 6082TIP3   OH218251   1.802   1.351   3.130
 6082TIP3    H118252   1.842   1.373   3.214
 6082TIP3    H218253   1.812   1.431   3.077
 6083TIP3   OH218254   1.841   3.229   5.054
 6083TIP3    H118255   1.915   3.201   4.999
 6083TIP3    H218256   1.875   3.304   5.103
 6084TIP3   OH218257   1.011   5.713   1.740
 6084TIP3    H118258   0.920   5.740   1.743
 6084TIP3    H218259   1.012   5.636   1.684
 6085TIP3   OH218260   1.192   2.697   0.389
 6085TIP3    H118261   1.280   2.668   0.413
 6085TIP3    H218262   1.137   2.667   0.461
 6086TIP3   OH218263   4.773   0.228   0.536
 6086TIP3    H118264   4.839   0.236   0.467
 6086TIP3    H218265   4.818   0.258   0.615
 6087TIP3   OH218266   6.214   0.331   0.709
 6087TIP3    H118267   6.285   0.332   0.774
 6087TIP3    H218268   6.242   0.393   0.642
 6088TIP3   OH218269   2.244   3.315   3.829
 6088TIP3    H118270   2.154   3.312   3.798
 6088TIP3    H218271   2.296   3.335   3.750
 6089TIP3   OH218272   5.243   1.815   4.323
 6089TIP3    H118273   5.299   1.738   4.317
 6089TIP3    H218274   5.293   1.877   4.377
 6090TIP3   OH218275   2.824   0.308   1.674
 6090TIP3    H118276   2.819   0.212   1.682
 6090TIP3    H218277   2.785   0.327   1.589
 6091TIP3   OH218278   0.929   3.581   1.027
 6091TIP3    H118279   0.981   3.544   1.099
 6091TIP3    H218280   0.994   3.617   0.967
 6092TIP3   OH218281   6.266   2.262   0.242
 6092TIP3    H118282   6.226   2.328   0.299
 6092TIP3    H218283   6.245   2.291   0.154
 6093TIP3   OH218284   1.471   1.183   0.772
 6093TIP3    H118285   1.474   1.246   0.700
 6093TIP3    H218286   1.392   1.206   0.821
 6094TIP3   OH218287   2.895   2.501   2.305
 6094TIP3    H118288   2.828   2.509   2.372
 6094TIP3    H218289   2.847   2.481   2.225
 6095TIP3   OH218290   3.484   5.510   0.267
 6095TIP3    H118291   3.553   5.575   0.250
 6095TIP3    H218292   3.420   5.524   0.197
 6096TIP3   OH218293   3.142   3.314   0.765
 6096TIP3    H118294   3.097   3.292   0.684
 6096TIP3    H218295   3.107   3.252   0.829
 6097TIP3   OH218296   5.297   4.612   2.643
 6097TIP3    H118297   5.307   4.706   2.632
 6097TIP3    H218298   5.253   4.603   2.728
 6098TIP3   OH218299   0.702   4.959   0.222
 6098TIP3    H118300   0.797   4.954   0.235
 6098TIP3    H218301   0.680   4.880   0.172
 6099TIP3   OH218302   2.629   5.060   0.462
 6099TIP3    H118303   2.609   5.115   0.387
 6099TIP3    H218304   2.551   5.065   0.517
 6100TIP3   OH218305   5.766   1.844   3.123
 6100TIP3    H118306   5.713   1.825   3.200
 6100TIP3    H218307   5.836   1.778   3.126
 6101TIP3   OH218308   1.538   1.628   3.468
 6101TIP3    H118309   1.555   1.654   3.378
 6101TIP3    H218310   1.448   1.657   3.485
 6102TIP3   OH218311   2.118   5.585   1.565
 6102TIP3    H118312   2.140   5.516   1.628
 6102TIP3    H218313   2.028   5.565   1.538
 6103TIP3   OH218314   3.593   4.485   4.255
 6103TIP3    H118315   3.527   4.415   4.255
 6103TIP3    H218316   3.658   4.457   4.191
 6104TIP3   OH218317   5.446   3.752   4.572
 6104TIP3    H118318   5.360   3.725   4.604
 6104TIP3    H218319   5.461   3.698   4.495
 6105TIP3   OH218320   3.461   5.824   3.460
 6105TIP3    H118321   3.442   5.778   3.378
 6105TIP3    H218322   3.380   5.818   3.510
 6106TIP3   OH218323   6.068   3.579   2.382
 6106TIP3    H118324   6.046   3.545   2.295
 6106TIP3    H218325   5.990   3.560   2.434
 6107TIP3   OH218326   5.571   3.791   1.889
 6107TIP3    H118327   5.587   3.749   1.805
 6107TIP3    H218328   5.478   3.778   1.905
 6108TIP3   OH218329   3.809   2.201   4.975
 6108TIP3    H118330   3.805   2.122   4.921
 6108TIP3    H218331   3.726   2.201   5.023
 6109TIP3   OH218332   0.272   4.038   5.188
 6109TIP3    H118333   0.224   4.109   5.231
 6109TIP3    H218334   0.303   4.077   5.106
 6110TIP3   OH218335   5.924   1.286   0.096
 6110TIP3    H118336   5.838   1.268   0.057
 6110TIP3    H218337   5.909   1.282   0.190
 6111TIP3   OH218338   1.911   2.954   0.236
 6111TIP3    H118339   2.000   2.921   0.229
 6111TIP3    H218340   1.856   2.875   0.231
 6112TIP3   OH218341   6.325   3.940   1.641
 6112TIP3    H118342   6.368   3.882   1.704
 6112TIP3    H218343   6.232   3.928   1.658
 6113TIP3   OH218344   1.407   0.088   3.544
 6113TIP3    H118345   1.456   0.152   3.492
 6113TIP3    H218346   1.428   0.003   3.504
 6114TIP3   OH218347   5.295   1.416   2.586
 6114TIP3    H118348   5.302   1.333   2.539
 6114TIP3    H218349   5.288   1.391   2.678
 6115TIP3   OH218350   0.349   5.398   0.929
 6115TIP3    H118351   0.364   5.309   0.962
 6115TIP3    H218352   0.398   5.455   0.989
 6116TIP3   OH218353   0.454   0.811   0.122
 6116TIP3    H118354   0.506   0.856   0.055
 6116TIP3    H218355   0.485   0.847   0.205
 6117TIP3   OH218356   2.976   1.596   3.940
 6117TIP3    H118357   2.904   1.550   3.983
 6117TIP3    H218358   3.000   1.666   4.002
 6118TIP3   OH218359   2.533   1.746   1.076
 6118TIP3    H118360   2.604   1.758   1.138
 6118TIP3    H218361   2.552   1.808   1.005
 6119TIP3   OH218362   4.655   2.360   5.075
 6119TIP3    H118363   4.606   2.400   5.147
 6119TIP3    H218364   4.738   2.408   5.073
 6120TIP3   OH218365   4.401   4.284   5.070
 6120TIP3    H118366   4.486   4.263   5.109
 6120TIP3    H218367   4.419   4.357   5.012
 6121TIP3   OH218368   4.378   1.633   1.688
 6121TIP3    H118369   4.370   1.728   1.689
 6121TIP3    H218370   4.327   1.604   1.764
 6122TIP3   OH218371   2.876   2.375   0.780
 6122TIP3    H118372   2.951   2.315   0.781
 6122TIP3    H218373   2.801   2.317   0.766
 6123TIP3   OH218374   1.472   1.063   4.063
 6123TIP3    H118375   1.504   1.045   4.152
 6123TIP3    H218376   1.465   1.158   4.059
 6124TIP3   OH218377   3.667   5.718   0.553
 6124TIP3    H118378   3.632   5.629   0.551
 6124TIP3    H218379   3.762   5.706   0.554
 6125TIP3   OH218380   1.867   4.879   1.418
 6125TIP3    H118381   1.813   4.946   1.460
 6125TIP3    H218382   1.869   4.905   1.326
 6126TIP3   OH218383   2.296   0.990   4.299
 6126TIP3    H118384   2.326   1.056   4.237
 6126TIP3    H218385   2.282   1.038   4.381
 6127TIP3   OH218386   5.280   0.045   0.505
 6127TIP3    H118387   5.281  -0.025   0.439
 6127TIP3    H218388   5.373   0.067   0.517
 6128TIP3   OH218389   0.927   1.060   4.883
 6128TIP3    H118390   1.020   1.034   4.885
 6128TIP3    H218391   0.886   0.998   4.824
 6129TIP3   OH218392   3.465   0.131   0.773
 6129TIP3    H118393   3.438   0.108   0.862
 6129TIP3    H218394   3.393   0.184   0.739
 6130TIP3   OH218395   4.310   1.593   0.187
 6130TIP3    H118396   4.303   1.590   0.092
 6130TIP3    H218397   4.394   1.636   0.204
 6131TIP3   OH218398   5.051   2.402   3.560
 6131TIP3    H118399   5.017   2.491   3.571
 6131TIP3    H218400   5.145   2.410   3.573
 6132TIP3   OH218401   0.297   0.493   3.181
 6132TIP3    H118402   0.294   0.565   3.117
 6132TIP3    H218403   0.374   0.512   3.234
 6133TIP3   OH218404   0.552   1.682   2.962
 6133TIP3    H118405   0.508   1.685   3.047
 6133TIP3    H218406   0.609   1.759   2.962
 6134TIP3   OH218407   3.842   1.694   4.370
 6134TIP3    H118408   3.773   1.740   4.418
 6134TIP3    H218409   3.915   1.756   4.367
 6135TIP3   OH218410   5.624   2.893   4.046
 6135TIP3    H118411   5.669   2.853   4.120
 6135TIP3    H218412   5.608   2.821   3.986
 6136TIP3   OH218413   4.817   3.550   3.531
 6136TIP3    H118414   4.730   3.578   3.503
 6136TIP3    H218415   4.822   3.458   3.505
 6137TIP3   OH218416   6.318   1.676   4.091
 6137TIP3    H118417   6.240   1.651   4.141
 6137TIP3    H218418   6.383   1.699   4.158
 6138TIP3   OH218419   5.687   0.860   1.127
 6138TIP3    H118420   5.761   0.903   1.170
 6138TIP3    H218421   5.609   0.900   1.166
 6139TIP3   OH218422   4.657   5.781   2.667
 6139TIP3    H118423   4.651   5.830   2.749
 6139TIP3    H218424   4.738   5.810   2.627
 6140TIP3   OH218425   4.812   1.863   3.259
 6140TIP3    H118426   4.824   1.785   3.313
 6140TIP3    H218427   4.884   1.861   3.196
 6141TIP3   OH218428   4.978   0.471   4.550
 6141TIP3    H118429   5.028   0.517   4.617
 6141TIP3    H218430   4.931   0.540   4.503
 6142TIP3   OH218431   1.535   4.546   2.641
 6142TIP3    H118432   1.612   4.601   2.657
 6142TIP3    H218433   1.543   4.475   2.704
 6143TIP3   OH218434   5.566   1.051   0.727
 6143TIP3    H118435   5.499   0.987   0.748
 6143TIP3    H218436   5.630   1.043   0.798
 6144TIP3   OH218437   3.896   3.937   2.771
 6144TIP3    H118438   3.843   4.014   2.753
 6144TIP3    H218439   3.968   3.969   2.826
 6145TIP3   OH218440   3.006   2.421   4.212
 6145TIP3    H118441   3.082   2.399   4.265
 6145TIP3    H218442   3.040   2.432   4.123
 6146TIP3   OH218443   6.340   3.004   4.180
 6146TIP3    H118444   6.249   2.976   4.176
 6146TIP3    H218445   6.386   2.930   4.218
 6147TIP3   OH218446   5.171   2.627   1.957
 6147TIP3    H118447   5.201   2.708   1.999
 6147TIP3    H218448   5.118   2.584   2.024
 6148TIP3   OH218449   3.247   5.122   2.468
 6148TIP3    H118450   3.307   5.048   2.473
 6148TIP3    H218451   3.276   5.182   2.537
 6149TIP3   OH218452   1.876   4.839   4.209
 6149TIP3    H118453   1.863   4.879   4.123
 6149TIP3    H218454   1.955   4.787   4.200
 6150TIP3   OH218455   2.597   0.502   1.766
 6150TIP3    H118456   2.671   0.465   1.717
 6150TIP3    H218457   2.638   0.557   1.832
 6151TIP3   OH218458   2.695   3.446   0.691
 6151TIP3    H118459   2.659   3.361   0.666
 6151TIP3    H218460   2.644   3.472   0.768
 6152TIP3   OH218461   6.153   5.605   1.327
 6152TIP3    H118462   6.143   5.693   1.290
 6152TIP3    H218463   6.235   5.609   1.376
 6153TIP3   OH218464   3.002   1.456   1.296
 6153TIP3    H118465   3.074   1.513   1.268
 6153TIP3    H218466   2.954   1.508   1.360
 6154TIP3   OH218467   1.531   2.105   1.022
 6154TIP3    H118468   1.560   2.016   1.043
 6154TIP3    H218469   1.577   2.127   0.942
 6155TIP3   OH218470   2.069   2.570   3.261
 6155TIP3    H118471   2.080   2.658   3.225
 6155TIP3    H218472   1.982   2.544   3.232
 6156TIP3   OH218473   0.147   5.433   1.231
 6156TIP3    H118474   0.145   5.394   1.144
 6156TIP3    H218475   0.117   5.523   1.218
 6157TIP3   OH218476   4.093   2.864   1.982
 6157TIP3    H118477   4.171   2.847   2.035
 6157TIP3    H218478   4.117   2.939   1.928
 6158TIP3   OH218479   2.844   3.026   5.174
 6158TIP3    H118480   2.922   2.986   5.212
 6158TIP3    H218481   2.771   2.980   5.216
 6159TIP3   OH218482   1.959   4.931   1.817
 6159TIP3    H118483   1.867   4.905   1.810
 6159TIP3    H218484   1.993   4.879   1.890
 6160TIP3   OH218485   1.848   2.200   1.295
 6160TIP3    H118486   1.893   2.205   1.210
 6160TIP3    H218487   1.870   2.113   1.328
 6161TIP3   OH218488   3.538   1.937   3.135
 6161TIP3    H118489   3.517   1.901   3.048
 6161TIP3    H218490   3.454   1.962   3.172
 6162TIP3   OH218491   5.091   1.051   1.434
 6162TIP3    H118492   5.139   1.129   1.405
 6162TIP3    H218493   5.007   1.056   1.389
 6163TIP3   OH218494   4.825   0.973   2.442
 6163TIP3    H118495   4.896   0.936   2.495
 6163TIP3    H218496   4.835   0.931   2.357
 6164TIP3   OH218497   4.122  -0.007   2.971
 6164TIP3    H118498   4.085   0.028   2.890
 6164TIP3    H218499   4.157   0.069   3.017
 6165TIP3   OH218500   3.905   1.934   1.815
 6165TIP3    H118501   3.972   1.952   1.881
 6165TIP3    H218502   3.836   1.887   1.862
 6166TIP3   OH218503   1.812   4.076   0.266
 6166TIP3    H118504   1.809   4.137   0.193
 6166TIP3    H218505   1.766   3.998   0.234
 6167TIP3   OH218506   0.589   3.018   1.038
 6167TIP3    H118507   0.619   3.037   0.949
 6167TIP3    H218508   0.529   2.944   1.028
 6168TIP3   OH218509   5.988   1.439   4.480
 6168TIP3    H118510   5.925   1.462   4.411
 6168TIP3    H218511   6.067   1.413   4.432
 6169TIP3   OH218512   5.213   4.934   0.308
 6169TIP3    H118513   5.158   4.951   0.384
 6169TIP3    H218514   5.163   4.968   0.234
 6170TIP3   OH218515   3.371   4.190   3.936
 6170TIP3    H118516   3.310   4.146   3.877
 6170TIP3    H218517   3.450   4.136   3.934
 6171TIP3   OH218518   2.156   2.078   2.817
 6171TIP3    H118519   2.068   2.074   2.780
 6171TIP3    H218520   2.164   2.167   2.851
 6172TIP3   OH218521   4.508   2.957   0.387
 6172TIP3    H118522   4.427   2.980   0.341
 6172TIP3    H218523   4.480   2.900   0.458
 6173TIP3   OH218524   2.630   0.701   2.729
 6173TIP3    H118525   2.717   0.668   2.709
 6173TIP3    H218526   2.586   0.628   2.772
 6174TIP3   OH218527   0.288   0.020   3.921
 6174TIP3    H118528   0.239  -0.061   3.931
 6174TIP3    H218529   0.310   0.047   4.010
 6175TIP3   OH218530   1.190   0.416   2.286
 6175TIP3    H118531   1.172   0.510   2.282
 6175TIP3    H218532   1.232   0.395   2.203
 6176TIP3   OH218533   4.879  -0.030   0.220
 6176TIP3    H118534   4.817  -0.099   0.198
 6176TIP3    H218535   4.885  -0.033   0.316
 6177TIP3   OH218536   6.173   1.630   1.327
 6177TIP3    H118537   6.232   1.656   1.256
 6177TIP3    H218538   6.231   1.607   1.399
 6178TIP3   OH218539   5.756   0.793   3.522
 6178TIP3    H118540   5.847   0.814   3.500
 6178TIP3    H218541   5.744   0.703   3.493
 6179TIP3   OH218542   2.661   2.752   2.941
 6179TIP3    H118543   2.677   2.722   3.031
 6179TIP3    H218544   2.744   2.793   2.915
 6180TIP3   OH218545   0.330   1.811   2.630
 6180TIP3    H118546   0.374   1.896   2.626
 6180TIP3    H218547   0.401   1.747   2.622
 6181TIP3   OH218548   1.215   3.339   3.994
 6181TIP3    H118549   1.191   3.283   3.921
 6181TIP3    H218550   1.157   3.312   4.065
 6182TIP3   OH218551   2.588   4.388   4.892
 6182TIP3    H118552   2.531   4.314   4.869
 6182TIP3    H218553   2.671   4.368   4.849
 6183TIP3   OH218554   5.409   2.310   2.485
 6183TIP3    H118555   5.482   2.359   2.523
 6183TIP3    H218556   5.343   2.376   2.466
 6184TIP3   OH218557   3.352   5.219   2.219
 6184TIP3    H118558   3.443   5.204   2.246
 6184TIP3    H218559   3.300   5.192   2.294
 6185TIP3   OH218560   4.743   4.773   4.606
 6185TIP3    H118561   4.793   4.849   4.638
 6185TIP3    H218562   4.795   4.740   4.533
 6186TIP3   OH218563   5.178   4.044   3.825
 6186TIP3    H118564   5.186   3.962   3.776
 6186TIP3    H218565   5.153   4.109   3.760
 6187TIP3   OH218566   3.511   3.948   3.848
 6187TIP3    H118567   3.435   3.890   3.843
 6187TIP3    H218568   3.585   3.889   3.862
 6188TIP3   OH218569   6.215   0.557   0.915
 6188TIP3    H118570   6.198   0.616   0.988
 6188TIP3    H218571   6.128   0.540   0.878
 6189TIP3   OH218572   0.054   2.549   1.199
 6189TIP3    H118573   0.015   2.480   1.253
 6189TIP3    H218574   0.118   2.504   1.144
 6190TIP3   OH218575   5.530   2.667   2.598
 6190TIP3    H118576   5.544   2.727   2.671
 6190TIP3    H218577   5.540   2.580   2.636
 6191TIP3   OH218578   3.716   1.450   1.658
 6191TIP3    H118579   3.729   1.449   1.753
 6191TIP3    H218580   3.663   1.371   1.641
 6192TIP3   OH218581   2.341   2.706   2.710
 6192TIP3    H118582   2.274   2.696   2.642
 6192TIP3    H218583   2.313   2.783   2.760
 6193TIP3   OH218584   3.033   3.376   1.513
 6193TIP3    H118585   3.024   3.467   1.486
 6193TIP3    H218586   3.111   3.344   1.468
 6194TIP3   OH218587   4.512   4.028   0.577
 6194TIP3    H118588   4.602   4.036   0.608
 6194TIP3    H218589   4.511   4.074   0.493
 6195TIP3   OH218590   5.935   2.009   0.300
 6195TIP3    H118591   6.020   2.001   0.257
 6195TIP3    H218592   5.872   2.012   0.228
 6196TIP3   OH218593   0.041   4.636   3.783
 6196TIP3    H118594   0.077   4.579   3.715
 6196TIP3    H218595  -0.021   4.582   3.830
 6197TIP3   OH218596   1.256   0.664   0.680
 6197TIP3    H118597   1.275   0.612   0.602
 6197TIP3    H218598   1.202   0.736   0.649
 6198TIP3   OH218599   2.690   0.692   1.117
 6198TIP3    H118600   2.601   0.705   1.085
 6198TIP3    H218601   2.741   0.762   1.076
 6199TIP3   OH218602   2.933   1.318   0.227
 6199TIP3    H118603   2.891   1.232   0.230
 6199TIP3    H218604   2.999   1.314   0.297
 6200TIP3   OH218605   4.260   4.441   4.515
 6200TIP3    H118606   4.178   4.475   4.479
 6200TIP3    H218607   4.247   4.443   4.610
 6201TIP3   OH218608   5.849   4.575   2.743
 6201TIP3    H118609   5.864   4.532   2.828
 6201TIP3    H218610   5.757   4.600   2.746
 6202TIP3   OH218611   5.714   1.547   2.190
 6202TIP3    H118612   5.701   1.508   2.276
 6202TIP3    H218613   5.742   1.636   2.208
 6203TIP3   OH218614   2.006   1.704   2.343
 6203TIP3    H118615   1.991   1.785   2.294
 6203TIP3    H218616   2.028   1.732   2.431
 6204TIP3   OH218617   5.744   5.721   4.925
 6204TIP3    H118618   5.731   5.639   4.972
 6204TIP3    H218619   5.753   5.788   4.993
 6205TIP3   OH218620   4.710   4.786   3.574
 6205TIP3    H118621   4.768   4.759   3.645
 6205TIP3    H218622   4.708   4.881   3.580
 6206TIP3   OH218623   2.944   4.180   3.997
 6206TIP3    H118624   2.960   4.259   3.945
 6206TIP3    H218625   2.868   4.202   4.051
 6207TIP3   OH218626   5.857   3.238   3.460
 6207TIP3    H118627   5.834   3.303   3.526
 6207TIP3    H218628   5.804   3.161   3.483
 6208TIP3   OH218629   3.391   4.316   4.192
 6208TIP3    H118630   3.422   4.233   4.230
 6208TIP3    H218631   3.383   4.298   4.098
 6209TIP3   OH218632   2.837   2.886   0.439
 6209TIP3    H118633   2.838   2.956   0.374
 6209TIP3    H218634   2.930   2.867   0.455
 6210TIP3   OH218635   5.828   1.066   1.284
 6210TIP3    H118636   5.921   1.082   1.301
 6210TIP3    H218637   5.791   1.152   1.265
 6211TIP3   OH218638   1.846   4.035   0.856
 6211TIP3    H118639   1.903   3.958   0.859
 6211TIP3    H218640   1.887   4.097   0.916
 6212TIP3   OH218641   2.390   0.276   4.624
 6212TIP3    H118642   2.451   0.261   4.552
 6212TIP3    H218643   2.310   0.306   4.582
 6213TIP3   OH218644   4.150   3.766   4.154
 6213TIP3    H118645   4.164   3.781   4.061
 6213TIP3    H218646   4.098   3.685   4.158
 6214TIP3   OH218647   4.581   0.135   4.287
 6214TIP3    H118648   4.566   0.141   4.381
 6214TIP3    H218649   4.521   0.199   4.249
 6215TIP3   OH218650   1.957   5.194   2.565
 6215TIP3    H118651   1.883   5.252   2.546
 6215TIP3    H218652   2.033   5.237   2.526
 6216TIP3   OH218653   6.196   6.010   5.133
 6216TIP3    H118654   6.271   6.003   5.073
 6216TIP3    H218655   6.139   5.938   5.107
 6217TIP3   OH218656   1.388   1.831   3.184
 6217TIP3    H118657   1.469   1.790   3.153
 6217TIP3    H218658   1.322   1.763   3.175
 6218TIP3   OH218659   0.843   0.456   4.970
 6218TIP3    H118660   0.771   0.413   4.924
 6218TIP3    H218661   0.865   0.531   4.915
 6219TIP3   OH218662   3.854   0.640   4.831
 6219TIP3    H118663   3.879   0.670   4.743
 6219TIP3    H218664   3.758   0.639   4.829
 6220TIP3   OH218665   1.717   3.025   4.052
 6220TIP3    H118666   1.662   3.076   4.111
 6220TIP3    H218667   1.712   2.935   4.085
 6221TIP3   OH218668   6.091   3.503   0.494
 6221TIP3    H118669   6.131   3.444   0.432
 6221TIP3    H218670   6.002   3.517   0.461
 6222TIP3   OH218671   6.107   5.486   5.026
 6222TIP3    H118672   6.197   5.515   5.036
 6222TIP3    H218673   6.094   5.480   4.931
 6223TIP3   OH218674   0.523   4.574   1.222
 6223TIP3    H118675   0.535   4.515   1.296
 6223TIP3    H218676   0.513   4.661   1.263
 6224TIP3   OH218677   2.525   4.822   0.107
 6224TIP3    H118678   2.433   4.839   0.087
 6224TIP3    H218679   2.523   4.747   0.166
 6225TIP3   OH218680   3.670   3.160   3.703
 6225TIP3    H118681   3.716   3.109   3.637
 6225TIP3    H218682   3.584   3.119   3.710
 6226TIP3   OH218683   4.325   3.091   2.906
 6226TIP3    H118684   4.263   3.051   2.967
 6226TIP3    H218685   4.376   3.151   2.961
 6227TIP3   OH218686   4.063   1.790   4.686
 6227TIP3    H118687   4.129   1.756   4.625
 6227TIP3    H218688   4.099   1.770   4.773
 6228TIP3   OH218689   5.449   0.602   3.525
 6228TIP3    H118690   5.377   0.604   3.462
 6228TIP3    H218691   5.412   0.561   3.603
 6229TIP3   OH218692   0.860   1.756   1.554
 6229TIP3    H118693   0.902   1.674   1.528
 6229TIP3    H218694   0.900   1.777   1.638
 6230TIP3   OH218695   6.348   4.093   1.411
 6230TIP3    H118696   6.324   4.063   1.498
 6230TIP3    H218697   6.283   4.053   1.353
 6231TIP3   OH218698   5.087   0.577   3.002
 6231TIP3    H118699   5.170   0.610   3.037
 6231TIP3    H218700   5.071   0.496   3.050
 6232TIP3   OH218701   5.830   2.282   0.925
 6232TIP3    H118702   5.760   2.285   0.860
 6232TIP3    H218703   5.887   2.356   0.901
 6233TIP3   OH218704   5.750   3.765   2.674
 6233TIP3    H118705   5.816   3.831   2.655
 6233TIP3    H218706   5.798   3.692   2.713
 6234TIP3   OH218707   1.576   0.978   4.293
 6234TIP3    H118708   1.534   0.983   4.379
 6234TIP3    H218709   1.648   1.041   4.299
 6235TIP3   OH218710   0.412   5.937   4.268
 6235TIP3    H118711   0.476   5.986   4.218
 6235TIP3    H218712   0.447   5.848   4.272
 6236TIP3   OH218713   3.079   5.528   1.157
 6236TIP3    H118714   3.008   5.467   1.139
 6236TIP3    H218715   3.072   5.545   1.251
 6237TIP3   OH218716   0.942   2.025   2.863
 6237TIP3    H118717   0.884   1.965   2.911
 6237TIP3    H218718   1.001   1.968   2.815
 6238TIP3   OH218719   0.847   4.038   2.585
 6238TIP3    H118720   0.877   4.122   2.620
 6238TIP3    H218721   0.833   3.983   2.662
 6239TIP3   OH218722   0.199   2.731   0.843
 6239TIP3    H118723   0.171   2.640   0.834
 6239TIP3    H218724   0.154   2.778   0.773
 6240TIP3   OH218725   2.956   3.519   0.617
 6240TIP3    H118726   2.862   3.501   0.629
 6240TIP3    H218727   2.977   3.581   0.687
 6241TIP3   OH218728   6.005   5.868   3.512
 6241TIP3    H118729   5.975   5.821   3.590
 6241TIP3    H218730   5.933   5.859   3.449
 6242TIP3   OH218731   1.522   5.844   0.864
 6242TIP3    H118732   1.498   5.795   0.943
 6242TIP3    H218733   1.465   5.921   0.865
 6243TIP3   OH218734   2.434   1.520   4.702
 6243TIP3    H118735   2.524   1.489   4.702
 6243TIP3    H218736   2.434   1.596   4.643
 6244TIP3   OH218737   4.273   4.513   2.172
 6244TIP3    H118738   4.281   4.543   2.081
 6244TIP3    H218739   4.355   4.538   2.214
 6245TIP3   OH218740   3.626   0.091   0.535
 6245TIP3    H118741   3.565   0.109   0.607
 6245TIP3    H218742   3.711   0.079   0.577
 6246TIP3   OH218743   2.169   0.872   1.246
 6246TIP3    H118744   2.107   0.820   1.194
 6246TIP3    H218745   2.249   0.872   1.195
 6247TIP3   OH218746   1.573   4.414   1.547
 6247TIP3    H118747   1.479   4.408   1.566
 6247TIP3    H218748   1.613   4.440   1.630
 6248TIP3   OH218749   0.124   3.672   3.509
 6248TIP3    H118750   0.077   3.608   3.561
 6248TIP3    H218751   0.069   3.685   3.432
 6249TIP3   OH218752   5.417   5.951   4.273
 6249TIP3    H118753   5.329   5.921   4.252
 6249TIP3    H218754   5.404   6.038   4.312
 6250TIP3   OH218755   1.173   5.222   0.382
 6250TIP3    H118756   1.137   5.149   0.432
 6250TIP3    H218757   1.106   5.243   0.317
 6251TIP3   OH218758   5.622   0.546   2.788
 6251TIP3    H118759   5.619   0.557   2.693
 6251TIP3    H218760   5.690   0.607   2.817
 6252TIP3   OH218761   6.045   5.782   1.892
 6252TIP3    H118762   6.032   5.876   1.883
 6252TIP3    H218763   6.054   5.768   1.987
 6253TIP3   OH218764   4.358   4.092   0.349
 6253TIP3    H118765   4.394   4.017   0.301
 6253TIP3    H218766   4.264   4.085   0.339
 6254TIP3   OH218767   3.539   4.114   4.405
 6254TIP3    H118768   3.505   4.058   4.335
 6254TIP3    H218769   3.621   4.148   4.370
 6255TIP3   OH218770   5.259   5.231   4.333
 6255TIP3    H118771   5.349   5.255   4.356
 6255TIP3    H218772   5.208   5.251   4.412
 6256TIP3   OH218773   0.653   1.602   1.695
 6256TIP3    H118774   0.725   1.646   1.649
 6256TIP3    H218775   0.694   1.525   1.734
 6257TIP3   OH218776   0.295   2.968   4.300
 6257TIP3    H118777   0.329   3.055   4.318
 6257TIP3    H218778   0.245   2.945   4.378
 6258TIP3   OH218779   4.813   0.907   0.613
 6258TIP3    H118780   4.797   0.941   0.525
 6258TIP3    H218781   4.800   0.812   0.605
 6259TIP3   OH218782   5.941   5.646   0.930
 6259TIP3    H118783   5.863   5.598   0.957
 6259TIP3    H218784   6.014   5.588   0.955
 6260TIP3   OH218785   5.364   3.917   1.501
 6260TIP3    H118786   5.343   4.005   1.531
 6260TIP3    H218787   5.395   3.929   1.411
 6261TIP3   OH218788   1.790   5.107   3.443
 6261TIP3    H118789   1.777   5.176   3.377
 6261TIP3    H218790   1.875   5.069   3.421
 6262TIP3   OH218791   5.453   5.626   1.359
 6262TIP3    H118792   5.488   5.715   1.356
 6262TIP3    H218793   5.450   5.604   1.452
 6263TIP3   OH218794   2.014   2.360   3.415
 6263TIP3    H118795   2.047   2.369   3.504
 6263TIP3    H218796   2.045   2.438   3.369
 6264TIP3   OH218797   3.997   3.637   3.016
 6264TIP3    H118798   3.962   3.568   2.959
 6264TIP3    H218799   3.928   3.703   3.019
 6265TIP3   OH218800   1.785   0.523   3.498
 6265TIP3    H118801   1.877   0.518   3.471
 6265TIP3    H218802   1.759   0.612   3.475
 6266TIP3   OH218803   3.243   2.210   0.451
 6266TIP3    H118804   3.177   2.278   0.443
 6266TIP3    H218805   3.326   2.257   0.460
 6267TIP3   OH218806   3.405   4.088   0.508
 6267TIP3    H118807   3.320   4.079   0.465
 6267TIP3    H218808   3.466   4.108   0.438
 6268TIP3   OH218809   1.907   4.701   4.760
 6268TIP3    H118810   1.920   4.683   4.667
 6268TIP3    H218811   1.938   4.791   4.772
 6269TIP3   OH218812   3.006   0.109   0.263
 6269TIP3    H118813   2.936   0.074   0.319
 6269TIP3    H218814   3.047   0.032   0.225
 6270TIP3   OH218815   1.522   4.376   0.404
 6270TIP3    H118816   1.551   4.424   0.326
 6270TIP3    H218817   1.531   4.284   0.380
 6271TIP3   OH218818   0.185   1.302   3.949
 6271TIP3    H118819   0.218   1.391   3.943
 6271TIP3    H218820   0.140   1.287   3.866
 6272TIP3   OH218821   1.785   1.644   3.706
 6272TIP3    H118822   1.743   1.709   3.763
 6272TIP3    H218823   1.738   1.652   3.623
 6273TIP3   OH218824   1.833   4.193   4.018
 6273TIP3    H118825   1.787   4.112   3.996
 6273TIP3    H218826   1.924   4.167   4.028
 6274TIP3   OH218827   2.812   1.626   4.973
 6274TIP3    H118828   2.842   1.717   4.983
 6274TIP3    H218829   2.790   1.619   4.880
 6275TIP3   OH218830   1.036   3.957   1.168
 6275TIP3    H118831   1.122   3.959   1.125
 6275TIP3    H218832   1.028   3.866   1.199
 6276TIP3   OH218833   5.780   5.509   4.243
 6276TIP3    H118834   5.762   5.592   4.287
 6276TIP3    H218835   5.711   5.450   4.274
 6277TIP3   OH218836   4.920   1.305   2.963
 6277TIP3    H118837   4.883   1.217   2.957
 6277TIP3    H218838   4.857   1.362   2.920
 6278TIP3   OH218839   2.149   3.873   3.405
 6278TIP3    H118840   2.225   3.932   3.407
 6278TIP3    H218841   2.180   3.796   3.358
 6279TIP3   OH218842   5.056   5.711   0.679
 6279TIP3    H118843   5.066   5.805   0.695
 6279TIP3    H218844   5.005   5.679   0.753
 6280TIP3   OH218845   0.838   5.876   1.412
 6280TIP3    H118846   0.893   5.866   1.335
 6280TIP3    H218847   0.899   5.899   1.482
 6281TIP3   OH218848   4.885   0.164   4.529
 6281TIP3    H118849   4.942   0.125   4.595
 6281TIP3    H218850   4.922   0.251   4.515
 6282TIP3   OH218851   5.303   5.085   4.722
 6282TIP3    H118852   5.316   5.026   4.796
 6282TIP3    H218853   5.265   5.029   4.654
 6283TIP3   OH218854   3.942   3.666   1.729
 6283TIP3    H118855   3.969   3.575   1.739
 6283TIP3    H218856   4.024   3.716   1.736
 6284TIP3   OH218857   3.647   4.910   0.419
 6284TIP3    H118858   3.728   4.904   0.367
 6284TIP3    H218859   3.654   4.994   0.464
 6285TIP3   OH218860   4.994   1.935   3.034
 6285TIP3    H118861   4.984   2.030   3.031
 6285TIP3    H218862   5.078   1.918   2.992
 6286TIP3   OH218863   1.237   0.722   2.616
 6286TIP3    H118864   1.223   0.815   2.632
 6286TIP3    H218865   1.331   0.714   2.599
 6287TIP3   OH218866   2.608   3.888   2.587
 6287TIP3    H118867   2.631   3.958   2.526
 6287TIP3    H218868   2.655   3.910   2.668
 6288TIP3   OH218869   2.587   3.694   3.214
 6288TIP3    H118870   2.653   3.736   3.160
 6288TIP3    H218871   2.505   3.734   3.187
 6289TIP3   OH218872   6.298   1.294   3.743
 6289TIP3    H118873   6.350   1.291   3.663
 6289TIP3    H218874   6.269   1.384   3.750
 6290TIP3   OH218875   2.261   5.553   3.492
 6290TIP3    H118876   2.318   5.554   3.415
 6290TIP3    H218877   2.199   5.482   3.476
 6291TIP3   OH218878   5.396   5.191   1.630
 6291TIP3    H118879   5.438   5.247   1.696
 6291TIP3    H218880   5.304   5.189   1.655
 6292TIP3   OH218881   2.113   2.628   0.740
 6292TIP3    H118882   2.185   2.687   0.719
 6292TIP3    H218883   2.034   2.677   0.716
 6293TIP3   OH218884   5.740   2.373   3.066
 6293TIP3    H118885   5.696   2.304   3.016
 6293TIP3    H218886   5.757   2.334   3.152
 6294TIP3   OH218887   4.729   3.739   3.883
 6294TIP3    H118888   4.709   3.821   3.927
 6294TIP3    H218889   4.663   3.677   3.916
 6295TIP3   OH218890   3.320   3.592   3.007
 6295TIP3    H118891   3.354   3.614   3.094
 6295TIP3    H218892   3.364   3.510   2.984
 6296TIP3   OH218893   1.848   3.279   1.233
 6296TIP3    H118894   1.899   3.253   1.310
 6296TIP3    H218895   1.787   3.346   1.266
 6297TIP3   OH218896   4.625   0.880   5.187
 6297TIP3    H118897   4.706   0.930   5.186
 6297TIP3    H218898   4.649   0.793   5.157
 6298TIP3   OH218899   1.691   2.435   3.538
 6298TIP3    H118900   1.751   2.363   3.518
 6298TIP3    H218901   1.607   2.407   3.503
 6299TIP3   OH218902   0.256   2.829   1.878
 6299TIP3    H118903   0.208   2.791   1.951
 6299TIP3    H218904   0.188   2.849   1.813
 6300TIP3   OH218905   2.700   2.311   1.034
 6300TIP3    H118906   2.795   2.294   1.034
 6300TIP3    H218907   2.675   2.306   0.942
 6301TIP3   OH218908   0.624   4.231   4.033
 6301TIP3    H118909   0.619   4.320   3.999
 6301TIP3    H218910   0.537   4.216   4.072
 6302TIP3   OH218911   1.871   4.344   1.441
 6302TIP3    H118912   1.908   4.390   1.365
 6302TIP3    H218913   1.820   4.411   1.486
 6303TIP3   OH218914   2.821   1.270   0.663
 6303TIP3    H118915   2.866   1.228   0.736
 6303TIP3    H218916   2.751   1.209   0.639
 6304TIP3   OH218917   0.530   2.719   0.228
 6304TIP3    H118918   0.480   2.707   0.146
 6304TIP3    H218919   0.580   2.799   0.213
 6305TIP3   OH218920   6.093   3.113   0.104
 6305TIP3    H118921   6.020   3.056   0.081
 6305TIP3    H218922   6.171   3.058   0.092
 6306TIP3   OH218923   0.910   2.578   3.558
 6306TIP3    H118924   0.876   2.647   3.615
 6306TIP3    H218925   0.870   2.595   3.473
 6307TIP3   OH218926   5.900   3.884   5.215
 6307TIP3    H118927   5.834   3.935   5.168
 6307TIP3    H218928   5.935   3.823   5.150
 6308TIP3   OH218929   4.322   5.260   0.624
 6308TIP3    H118930   4.306   5.344   0.581
 6308TIP3    H218931   4.322   5.281   0.718
 6309TIP3   OH218932   4.086   4.650   0.908
 6309TIP3    H118933   4.010   4.688   0.865
 6309TIP3    H218934   4.049   4.594   0.976
 6310TIP3   OH218935   5.988   2.659   4.895
 6310TIP3    H118936   5.927   2.668   4.969
 6310TIP3    H218937   6.056   2.724   4.912
 6311TIP3   OH218938   3.720   4.201   1.922
 6311TIP3    H118939   3.712   4.287   1.881
 6311TIP3    H218940   3.699   4.216   2.014
 6312TIP3   OH218941   2.420   4.244   0.750
 6312TIP3    H118942   2.325   4.256   0.755
 6312TIP3    H218943   2.432   4.161   0.703
 6313TIP3   OH218944   6.205   0.358   4.599
 6313TIP3    H118945   6.115   0.374   4.626
 6313TIP3    H218946   6.245   0.314   4.674
 6314TIP3   OH218947   4.941   0.399   0.692
 6314TIP3    H118948   4.937   0.420   0.785
 6314TIP3    H218949   5.028   0.361   0.680
 6315TIP3   OH218950   1.625   2.219   4.502
 6315TIP3    H118951   1.669   2.297   4.468
 6315TIP3    H218952   1.670   2.146   4.459
 6316TIP3   OH218953   0.345   0.098   4.168
 6316TIP3    H118954   0.253   0.083   4.191
 6316TIP3    H218955   0.366   0.183   4.208
 6317TIP3   OH218956   0.353   3.595   3.274
 6317TIP3    H118957   0.341   3.671   3.218
 6317TIP3    H218958   0.305   3.617   3.354
 6318TIP3   OH218959   2.927   3.152   1.798
 6318TIP3    H118960   2.874   3.144   1.877
 6318TIP3    H218961   2.924   3.065   1.758
 6319TIP3   OH218962   1.879   3.681   0.451
 6319TIP3    H118963   1.961   3.631   0.449
 6319TIP3    H218964   1.813   3.617   0.476
 6320TIP3   OH218965   4.171   3.263   2.692
 6320TIP3    H118966   4.144   3.173   2.713
 6320TIP3    H218967   4.098   3.298   2.641
 6321TIP3   OH218968   5.202   0.624   3.432
 6321TIP3    H118969   5.150   0.557   3.476
 6321TIP3    H218970   5.213   0.591   3.343
 6322TIP3   OH218971   3.478   3.893   2.170
 6322TIP3    H118972   3.430   3.826   2.122
 6322TIP3    H218973   3.568   3.859   2.176
 6323TIP3   OH218974   0.063   5.866   1.817
 6323TIP3    H118975   0.096   5.911   1.895
 6323TIP3    H218976  -0.012   5.816   1.849
 6324TIP3   OH218977   0.322   1.142   0.339
 6324TIP3    H118978   0.250   1.198   0.312
 6324TIP3    H218979   0.280   1.073   0.391
 6325TIP3   OH218980   0.692   1.622   0.792
 6325TIP3    H118981   0.607   1.598   0.754
 6325TIP3    H218982   0.730   1.539   0.819
 6326TIP3   OH218983   0.532   4.836   1.316
 6326TIP3    H118984   0.554   4.837   1.409
 6326TIP3    H218985   0.611   4.868   1.273
 6327TIP3   OH218986   5.424   3.475   2.798
 6327TIP3    H118987   5.438   3.381   2.784
 6327TIP3    H218988   5.422   3.485   2.893
 6328TIP3   OH218989   2.417   0.766   2.898
 6328TIP3    H118990   2.461   0.811   2.826
 6328TIP3    H218991   2.418   0.674   2.873
 6329TIP3   OH218992   5.227   1.353   3.876
 6329TIP3    H118993   5.273   1.277   3.839
 6329TIP3    H218994   5.167   1.381   3.806
 6330TIP3   OH218995   0.590   3.370   2.769
 6330TIP3    H118996   0.651   3.297   2.757
 6330TIP3    H218997   0.552   3.383   2.682
 6331TIP3   OH218998   1.385   2.482   3.726
 6331TIP3    H118999   1.327   2.520   3.660
 6331TIP3    H219000   1.464   2.535   3.722
 6332TIP3   OH219001   1.855   2.326   1.801
 6332TIP3    H119002   1.793   2.379   1.851
 6332TIP3    H219003   1.806   2.300   1.723
 6333TIP3   OH219004   0.679   5.847   2.219
 6333TIP3    H119005   0.601   5.841   2.273
 6333TIP3    H219006   0.663   5.786   2.147
 6334TIP3   OH219007   0.453   2.194   2.016
 6334TIP3    H119008   0.392   2.257   1.978
 6334TIP3    H219009   0.430   2.110   1.977
 6335TIP3   OH219010   0.760   2.021   1.949
 6335TIP3    H119011   0.837   1.975   1.983
 6335TIP3    H219012   0.689   1.958   1.956
 6336TIP3   OH219013   4.716   2.309   3.378
 6336TIP3    H119014   4.736   2.264   3.296
 6336TIP3    H219015   4.738   2.246   3.446
 6337TIP3   OH219016   0.500   2.614   4.521
 6337TIP3    H119017   0.503   2.708   4.539
 6337TIP3    H219018   0.406   2.595   4.512
 6338TIP3   OH219019   1.740   3.859   2.726
 6338TIP3    H119020   1.696   3.774   2.724
 6338TIP3    H219021   1.831   3.839   2.745
 6339TIP3   OH219022   0.545   0.372   5.150
 6339TIP3    H119023   0.488   0.304   5.185
 6339TIP3    H219024   0.591   0.330   5.077
 6340TIP3   OH219025   2.578   5.733   3.695
 6340TIP3    H119026   2.576   5.744   3.600
 6340TIP3    H219027   2.649   5.790   3.725
 6341TIP3   OH219028   3.728   2.436   2.648
 6341TIP3    H119029   3.765   2.473   2.568
 6341TIP3    H219030   3.770   2.486   2.718
 6342TIP3   OH219031   1.409   3.804   4.308
 6342TIP3    H119032   1.468   3.866   4.351
 6342TIP3    H219033   1.452   3.785   4.224
 6343TIP3   OH219034   2.381   2.723   3.357
 6343TIP3    H119035   2.463   2.765   3.328
 6343TIP3    H219036   2.400   2.696   3.447
 6344TIP3   OH219037   1.629   4.514   0.688
 6344TIP3    H119038   1.694   4.568   0.643
 6344TIP3    H219039   1.647   4.425   0.658
 6345TIP3   OH219040   3.491   1.276   1.477
 6345TIP3    H119041   3.466   1.192   1.437
 6345TIP3    H219042   3.493   1.258   1.571
 6346TIP3   OH219043   2.177   5.408   3.868
 6346TIP3    H119044   2.241   5.466   3.909
 6346TIP3    H219045   2.094   5.456   3.872
 6347TIP3   OH219046   1.777   5.448   4.589
 6347TIP3    H119047   1.844   5.394   4.632
 6347TIP3    H219048   1.813   5.466   4.503
 6348TIP3   OH219049   3.000   3.263   5.117
 6348TIP3    H119050   2.949   3.187   5.145
 6348TIP3    H219051   3.068   3.272   5.183
 6349TIP3   OH219052   4.060   1.037   2.885
 6349TIP3    H119053   4.029   1.125   2.909
 6349TIP3    H219054   4.146   1.031   2.926
 6350TIP3   OH219055   0.994   4.159   1.893
 6350TIP3    H119056   0.977   4.225   1.961
 6350TIP3    H219057   1.089   4.159   1.881
 6351TIP3   OH219058   5.517   1.256   1.925
 6351TIP3    H119059   5.512   1.328   1.988
 6351TIP3    H219060   5.607   1.260   1.893
 6352TIP3   OH219061  -0.002   0.932   0.786
 6352TIP3    H119062   0.072   0.966   0.836
 6352TIP3    H219063   0.016   0.838   0.779
 6353TIP3   OH219064   6.210   2.125   4.551
 6353TIP3    H119065   6.136   2.102   4.496
 6353TIP3    H219066   6.205   2.066   4.626
 6354TIP3   OH219067   0.953   5.469   1.089
 6354TIP3    H119068   0.978   5.377   1.086
 6354TIP3    H219069   0.935   5.492   0.998
 6355TIP3   OH219070   5.651   5.672   0.799
 6355TIP3    H119071   5.698   5.613   0.740
 6355TIP3    H219072   5.712   5.744   0.814
 6356TIP3   OH219073   2.353   3.289   0.716
 6356TIP3    H119074   2.357   3.352   0.644
 6356TIP3    H219075   2.396   3.334   0.789
 6357TIP3   OH219076   5.651   5.481   0.309
 6357TIP3    H119077   5.609   5.463   0.392
 6357TIP3    H219078   5.727   5.423   0.307
 6358TIP3   OH219079   3.568   0.597   4.809
 6358TIP3    H119080   3.562   0.560   4.721
 6358TIP3    H219081   3.488   0.648   4.819
 6359TIP3   OH219082   3.582   2.246   4.553
 6359TIP3    H119083   3.562   2.337   4.535
 6359TIP3    H219084   3.563   2.235   4.646
 6360TIP3   OH219085   2.774   4.501   1.616
 6360TIP3    H119086   2.700   4.489   1.676
 6360TIP3    H219087   2.750   4.578   1.565
 6361TIP3   OH219088   4.758   1.871   1.381
 6361TIP3    H119089   4.733   1.782   1.404
 6361TIP3    H219090   4.690   1.926   1.420
 6362TIP3   OH219091   2.831   5.765   3.361
 6362TIP3    H119092   2.810   5.777   3.269
 6362TIP3    H219093   2.751   5.789   3.408
 6363TIP3   OH219094   4.651   2.812   1.826
 6363TIP3    H119095   4.741   2.788   1.850
 6363TIP3    H219096   4.661   2.882   1.762
 6364TIP3   OH219097   0.092   5.364   2.166
 6364TIP3    H119098   0.060   5.354   2.076
 6364TIP3    H219099   0.041   5.301   2.217
 6365TIP3   OH219100   4.052   1.353   3.494
 6365TIP3    H119101   4.053   1.378   3.586
 6365TIP3    H219102   4.066   1.258   3.496
 6366TIP3   OH219103   4.681   0.224   5.095
 6366TIP3    H119104   4.750   0.159   5.109
 6366TIP3    H219105   4.644   0.200   5.010
 6367TIP3   OH219106   2.888   0.719   1.940
 6367TIP3    H119107   2.940   0.711   1.860
 6367TIP3    H219108   2.948   0.695   2.011
 6368TIP3   OH219109   5.109   0.218   4.232
 6368TIP3    H119110   5.099   0.124   4.213
 6368TIP3    H219111   5.125   0.221   4.326
 6369TIP3   OH219112   3.370   4.782   2.968
 6369TIP3    H119113   3.312   4.716   3.006
 6369TIP3    H219114   3.458   4.753   2.993
 6370TIP3   OH219115   0.629   0.187   4.973
 6370TIP3    H119116   0.622   0.250   4.902
 6370TIP3    H219117   0.624   0.101   4.930
 6371TIP3   OH219118   2.043   1.717   3.819
 6371TIP3    H119119   1.955   1.695   3.788
 6371TIP3    H219120   2.058   1.657   3.892
 6372TIP3   OH219121   5.511   0.353   1.755
 6372TIP3    H119122   5.452   0.418   1.794
 6372TIP3    H219123   5.467   0.269   1.771
 6373TIP3   OH219124   5.644   2.431   0.763
 6373TIP3    H119125   5.558   2.473   0.764
 6373TIP3    H219126   5.706   2.503   0.750
 6374TIP3   OH219127   0.845   1.002   3.403
 6374TIP3    H119128   0.762   0.998   3.355
 6374TIP3    H219129   0.893   0.925   3.374
 6375TIP3   OH219130   0.368   4.993   1.957
 6375TIP3    H119131   0.431   4.930   1.993
 6375TIP3    H219132   0.422   5.064   1.923
 6376TIP3   OH219133   0.824   1.728   3.561
 6376TIP3    H119134   0.730   1.735   3.543
 6376TIP3    H219135   0.833   1.648   3.612
 6377TIP3   OH219136   1.762   3.368   1.947
 6377TIP3    H119137   1.710   3.287   1.954
 6377TIP3    H219138   1.826   3.348   1.879
 6378TIP3   OH219139   0.395   0.063   4.788
 6378TIP3    H119140   0.384   0.104   4.874
 6378TIP3    H219141   0.312   0.079   4.743
 6379TIP3   OH219142   4.347   3.355   3.283
 6379TIP3    H119143   4.376   3.346   3.192
 6379TIP3    H219144   4.252   3.358   3.277
 6380TIP3   OH219145   1.807   1.570   2.972
 6380TIP3    H119146   1.845   1.624   2.902
 6380TIP3    H219147   1.713   1.582   2.964
 6381TIP3   OH219148   1.148   5.478   0.676
 6381TIP3    H119149   1.186   5.533   0.607
 6381TIP3    H219150   1.186   5.391   0.661
 6382TIP3   OH219151   4.346   3.870   3.649
 6382TIP3    H119152   4.366   3.831   3.734
 6382TIP3    H219153   4.426   3.916   3.625
 6383TIP3   OH219154   4.837   3.263   3.790
 6383TIP3    H119155   4.807   3.273   3.699
 6383TIP3    H219156   4.926   3.299   3.790
 6384TIP3   OH219157   1.589   1.303   4.402
 6384TIP3    H119158   1.667   1.329   4.452
 6384TIP3    H219159   1.623   1.244   4.334
 6385TIP3   OH219160   4.527   5.113   4.830
 6385TIP3    H119161   4.580   5.185   4.862
 6385TIP3    H219162   4.440   5.130   4.865
 6386TIP3   OH219163   0.103   1.785   4.517
 6386TIP3    H119164   0.160   1.784   4.594
 6386TIP3    H219165   0.100   1.877   4.491
 6387TIP3   OH219166   3.862   2.630   1.061
 6387TIP3    H119167   3.874   2.665   1.149
 6387TIP3    H219168   3.951   2.619   1.026
 6388TIP3   OH219169   0.990   3.017   0.795
 6388TIP3    H119170   0.910   2.973   0.826
 6388TIP3    H219171   0.981   3.107   0.827
 6389TIP3   OH219172   3.514   3.708   3.560
 6389TIP3    H119173   3.591   3.755   3.591
 6389TIP3    H219174   3.471   3.678   3.640
 6390TIP3   OH219175   2.568   3.408   1.784
 6390TIP3    H119176   2.551   3.502   1.789
 6390TIP3    H219177   2.606   3.386   1.869
 6391TIP3   OH219178   3.623   1.557   1.121
 6391TIP3    H119179   3.576   1.632   1.084
 6391TIP3    H219180   3.562   1.521   1.186
 6392TIP3   OH219181   1.700   5.461   0.715
 6392TIP3    H119182   1.692   5.554   0.737
 6392TIP3    H219183   1.639   5.418   0.774
 6393TIP3   OH219184   5.257   3.092   2.806
 6393TIP3    H119185   5.202   3.013   2.811
 6393TIP3    H219186   5.246   3.122   2.716
 6394TIP3   OH219187   2.339   5.916   4.872
 6394TIP3    H119188   2.310   5.975   4.941
 6394TIP3    H219189   2.258   5.886   4.830
 6395TIP3   OH219190   2.350   3.742   1.110
 6395TIP3    H119191   2.417   3.768   1.047
 6395TIP3    H219192   2.393   3.675   1.164
 6396TIP3   OH219193   4.882   5.040   1.543
 6396TIP3    H119194   4.948   4.973   1.558
 6396TIP3    H219195   4.862   5.035   1.450
 6397TIP3   OH219196   6.056   4.469   2.519
 6397TIP3    H119197   6.050   4.373   2.515
 6397TIP3    H219198   5.991   4.494   2.585
 6398TIP3   OH219199   3.604   2.308   0.275
 6398TIP3    H119200   3.555   2.310   0.357
 6398TIP3    H219201   3.579   2.225   0.234
 6399TIP3   OH219202   5.281   4.639   5.098
 6399TIP3    H119203   5.354   4.577   5.109
 6399TIP3    H219204   5.207   4.584   5.073
 6400TIP3   OH219205   0.314   5.486   1.665
 6400TIP3    H119206   0.404   5.461   1.643
 6400TIP3    H219207   0.259   5.433   1.607
 6401TIP3   OH219208   2.314   0.753   2.043
 6401TIP3    H119209   2.361   0.733   2.123
 6401TIP3    H219210   2.343   0.687   1.980
 6402TIP3   OH219211   4.778   3.635   1.343
 6402TIP3    H119212   4.770   3.545   1.312
 6402TIP3    H219213   4.868   3.660   1.323
 6403TIP3   OH219214   4.346   0.809   1.529
 6403TIP3    H119215   4.423   0.785   1.477
 6403TIP3    H219216   4.323   0.897   1.499
 6404TIP3   OH219217   4.055   4.205   0.329
 6404TIP3    H119218   4.031   4.129   0.381
 6404TIP3    H219219   4.024   4.185   0.241
 6405TIP3   OH219220   1.266   4.987   1.705
 6405TIP3    H119221   1.338   4.989   1.768
 6405TIP3    H219222   1.191   5.023   1.752
 6406TIP3   OH219223   0.101   2.531   1.584
 6406TIP3    H119224   0.099   2.607   1.526
 6406TIP3    H219225   0.170   2.551   1.648
 6407TIP3   OH219226   1.215   3.071   0.577
 6407TIP3    H119227   1.182   3.010   0.643
 6407TIP3    H219228   1.182   3.157   0.605
 6408TIP3   OH219229   5.448   4.044   1.277
 6408TIP3    H119230   5.468   4.127   1.321
 6408TIP3    H219231   5.400   4.071   1.198
 6409TIP3   OH219232   5.815   5.757   1.684
 6409TIP3    H119233   5.876   5.695   1.642
 6409TIP3    H219234   5.809   5.830   1.622
 6410TIP3   OH219235   0.593   2.356   2.615
 6410TIP3    H119236   0.683   2.353   2.583
 6410TIP3    H219237   0.601   2.350   2.710
 6411TIP3   OH219238   2.639   5.222   3.612
 6411TIP3    H119239   2.557   5.207   3.658
 6411TIP3    H219240   2.688   5.141   3.624
 6412TIP3   OH219241   2.239   4.553   1.543
 6412TIP3    H119242   2.197   4.482   1.591
 6412TIP3    H219243   2.167   4.607   1.511
 6413TIP3   OH219244   4.722   3.672   0.872
 6413TIP3    H119245   4.817   3.667   0.879
 6413TIP3    H219246   4.690   3.660   0.961
 6414TIP3   OH219247   2.408   2.268   1.404
 6414TIP3    H119248   2.373   2.273   1.492
 6414TIP3    H219249   2.402   2.358   1.371
 6415TIP3   OH219250   5.480   4.356   0.523
 6415TIP3    H119251   5.398   4.400   0.503
 6415TIP3    H219252   5.467   4.266   0.494
 6416TIP3   OH219253   4.661   5.010   1.859
 6416TIP3    H119254   4.666   4.992   1.953
 6416TIP3    H219255   4.599   4.945   1.825
 6417TIP3   OH219256   4.702   3.779   3.192
 6417TIP3    H119257   4.612   3.782   3.160
 6417TIP3    H219258   4.740   3.863   3.167
 6418TIP3   OH219259   3.944   4.297   0.742
 6418TIP3    H119260   3.976   4.365   0.682
 6418TIP3    H219261   3.890   4.240   0.687
 6419TIP3   OH219262   5.458   5.913   0.917
 6419TIP3    H119263   5.484   5.996   0.878
 6419TIP3    H219264   5.494   5.847   0.859
 6420TIP3   OH219265   2.823   3.364   1.016
 6420TIP3    H119266   2.785   3.339   1.100
 6420TIP3    H219267   2.795   3.295   0.955
 6421TIP3   OH219268   4.481   1.626   2.532
 6421TIP3    H119269   4.404   1.591   2.576
 6421TIP3    H219270   4.555   1.600   2.587
 6422TIP3   OH219271   0.796   4.736   4.877
 6422TIP3    H119272   0.709   4.705   4.851
 6422TIP3    H219273   0.784   4.829   4.895
 6423TIP3   OH219274   5.596   3.259   3.771
 6423TIP3    H119275   5.505   3.242   3.748
 6423TIP3    H219276   5.641   3.176   3.754
 6424TIP3   OH219277   2.160   3.070   0.464
 6424TIP3    H119278   2.144   3.144   0.406
 6424TIP3    H219279   2.247   3.038   0.439
 6425TIP3   OH219280   1.244   1.447   2.913
 6425TIP3    H119281   1.189   1.390   2.967
 6425TIP3    H219282   1.313   1.477   2.973
 6426TIP3   OH219283   5.983   0.361   2.420
 6426TIP3    H119284   6.075   0.370   2.445
 6426TIP3    H219285   5.986   0.330   2.329
 6427TIP3   OH219286   1.958   2.694   0.069
 6427TIP3    H119287   2.019   2.760   0.034
 6427TIP3    H219288   1.997   2.610   0.044
 6428TIP3   OH219289   5.414   4.343   4.509
 6428TIP3    H119290   5.372   4.412   4.560
 6428TIP3    H219291   5.415   4.267   4.567
 6429TIP3   OH219292   0.621   0.622   3.819
 6429TIP3    H119293   0.630   0.535   3.779
 6429TIP3    H219294   0.597   0.680   3.746
 6430TIP3   OH219295   0.776   2.224   0.055
 6430TIP3    H119296   0.841   2.295   0.051
 6430TIP3    H219297   0.697   2.265   0.089
 6431TIP3   OH219298   0.847   5.938   2.837
 6431TIP3    H119299   0.892   6.021   2.823
 6431TIP3    H219300   0.912   5.884   2.883
 6432TIP3   OH219301   3.223   3.606   3.343
 6432TIP3    H119302   3.170   3.658   3.283
 6432TIP3    H219303   3.313   3.637   3.327
 6433TIP3   OH219304   4.592   3.201   0.229
 6433TIP3    H119305   4.600   3.171   0.138
 6433TIP3    H219306   4.574   3.121   0.279
 6434TIP3   OH219307   3.852   3.191   4.356
 6434TIP3    H119308   3.758   3.174   4.352
 6434TIP3    H219309   3.864   3.242   4.436
 6435TIP3   OH219310   1.947   0.563   3.898
 6435TIP3    H119311   1.928   0.485   3.950
 6435TIP3    H219312   1.864   0.585   3.857
 6436TIP3   OH219313   5.294   5.788   3.361
 6436TIP3    H119314   5.373   5.802   3.309
 6436TIP3    H219315   5.224   5.780   3.297
 6437TIP3   OH219316   0.562   2.040   4.823
 6437TIP3    H119317   0.645   2.087   4.818
 6437TIP3    H219318   0.579   1.971   4.888
 6438TIP3   OH219319   6.303   3.194   3.673
 6438TIP3    H119320   6.390   3.210   3.707
 6438TIP3    H219321   6.282   3.105   3.702
 6439TIP3   OH219322   2.106   1.337   5.103
 6439TIP3    H119323   2.124   1.256   5.150
 6439TIP3    H219324   2.083   1.400   5.171
 6440TIP3   OH219325   2.830   3.306   4.171
 6440TIP3    H119326   2.792   3.228   4.129
 6440TIP3    H219327   2.755   3.363   4.189
 6441TIP3   OH219328   5.909   5.925   3.015
 6441TIP3    H119329   5.903   6.018   3.038
 6441TIP3    H219330   5.818   5.898   3.004
 6442TIP3   OH219331   5.950   0.350   2.701
 6442TIP3    H119332   6.003   0.354   2.622
 6442TIP3    H219333   5.921   0.259   2.707
 6443TIP3   OH219334   3.346   1.712   4.722
 6443TIP3    H119335   3.271   1.693   4.778
 6443TIP3    H219336   3.315   1.692   4.634
 6444TIP3   OH219337   6.165   3.303   4.418
 6444TIP3    H119338   6.103   3.266   4.481
 6444TIP3    H219339   6.127   3.283   4.332
 6445TIP3   OH219340   1.730   0.621   2.846
 6445TIP3    H119341   1.770   0.657   2.767
 6445TIP3    H219342   1.762   0.677   2.917
 6446TIP3   OH219343   0.951   5.295   0.180
 6446TIP3    H119344   0.983   5.238   0.111
 6446TIP3    H219345   0.856   5.280   0.182
 6447TIP3   OH219346   4.018   3.433   1.615
 6447TIP3    H119347   4.060   3.374   1.553
 6447TIP3    H219348   3.935   3.456   1.574
 6448TIP3   OH219349   0.583   1.356   1.062
 6448TIP3    H119350   0.619   1.294   1.125
 6448TIP3    H219351   0.642   1.431   1.065
 6449TIP3   OH219352   1.445   5.105   2.335
 6449TIP3    H119353   1.363   5.123   2.289
 6449TIP3    H219354   1.499   5.060   2.270
 6450TIP3   OH219355   2.210   4.033   4.530
 6450TIP3    H119356   2.122   4.000   4.546
 6450TIP3    H219357   2.234   3.999   4.444
 6451TIP3   OH219358   1.499   0.765   0.929
 6451TIP3    H119359   1.424   0.824   0.926
 6451TIP3    H219360   1.546   0.790   1.008
 6452TIP3   OH219361   5.261   2.110   1.573
 6452TIP3    H119362   5.305   2.026   1.558
 6452TIP3    H219363   5.194   2.115   1.506
 6453TIP3   OH219364   0.749   5.276   0.834
 6453TIP3    H119365   0.738   5.224   0.914
 6453TIP3    H219366   0.832   5.322   0.846
 6454TIP3   OH219367   0.571   2.679   1.285
 6454TIP3    H119368   0.635   2.619   1.246
 6454TIP3    H219369   0.624   2.750   1.322
 6455TIP3   OH219370   2.613   3.292   4.765
 6455TIP3    H119371   2.649   3.379   4.752
 6455TIP3    H219372   2.674   3.250   4.826
 6456TIP3   OH219373   6.111   1.160   2.234
 6456TIP3    H119374   6.100   1.255   2.232
 6456TIP3    H219375   6.179   1.142   2.169
 6457TIP3   OH219376   4.431   3.835   3.151
 6457TIP3    H119377   4.388   3.781   3.217
 6457TIP3    H219378   4.437   3.779   3.074
 6458TIP3   OH219379   2.094   4.341   3.970
 6458TIP3    H119380   2.080   4.313   4.060
 6458TIP3    H219381   2.092   4.261   3.918
 6459TIP3   OH219382   0.968   0.186   3.554
 6459TIP3    H119383   0.957   0.105   3.605
 6459TIP3    H219384   0.976   0.156   3.464
 6460TIP3   OH219385   3.880   0.993   1.722
 6460TIP3    H119386   3.825   1.002   1.800
 6460TIP3    H219387   3.853   1.064   1.664
 6461TIP3   OH219388   0.938   4.021   4.504
 6461TIP3    H119389   1.030   4.000   4.514
 6461TIP3    H219390   0.938   4.100   4.449
 6462TIP3   OH219391   4.159   2.408   5.023
 6462TIP3    H119392   4.232   2.383   5.079
 6462TIP3    H219393   4.199   2.432   4.940
 6463TIP3   OH219394   6.145   5.528   4.007
 6463TIP3    H119395   6.173   5.443   3.973
 6463TIP3    H219396   6.051   5.517   4.021
 6464TIP3   OH219397   2.149   5.792   4.115
 6464TIP3    H119398   2.203   5.847   4.171
 6464TIP3    H219399   2.192   5.706   4.115
 6465TIP3   OH219400   6.153   1.906   4.691
 6465TIP3    H119401   6.128   1.814   4.690
 6465TIP3    H219402   6.176   1.924   4.782
 6466TIP3   OH219403   1.750   4.346   4.714
 6466TIP3    H119404   1.763   4.389   4.629
 6466TIP3    H219405   1.739   4.419   4.776
 6467TIP3   OH219406   1.731   4.367   1.052
 6467TIP3    H119407   1.650   4.328   1.019
 6467TIP3    H219408   1.709   4.397   1.140
 6468TIP3   OH219409   1.488   5.755   3.483
 6468TIP3    H119410   1.567   5.780   3.530
 6468TIP3    H219411   1.417   5.796   3.531
 6469TIP3   OH219412   4.354   2.434   3.227
 6469TIP3    H119413   4.359   2.510   3.169
 6469TIP3    H219414   4.441   2.394   3.222
 6470TIP3   OH219415   5.256   1.035   3.206
 6470TIP3    H119416   5.165   1.010   3.189
 6470TIP3    H219417   5.308   0.978   3.149
 6471TIP3   OH219418   0.740   4.707   3.558
 6471TIP3    H119419   0.745   4.800   3.580
 6471TIP3    H219420   0.647   4.688   3.554
 6472TIP3   OH219421   1.487   3.878   1.685
 6472TIP3    H119422   1.569   3.921   1.711
 6472TIP3    H219423   1.420   3.945   1.698
 6473TIP3   OH219424   2.657   2.477   1.386
 6473TIP3    H119425   2.652   2.461   1.292
 6473TIP3    H219426   2.576   2.524   1.407
 6474TIP3   OH219427   1.579   3.862   0.415
 6474TIP3    H119428   1.604   3.844   0.505
 6474TIP3    H219429   1.546   3.778   0.381
 6475TIP3   OH219430   5.827   3.492   3.701
 6475TIP3    H119431   5.845   3.420   3.761
 6475TIP3    H219432   5.911   3.511   3.660
 6476TIP3   OH219433   0.809   3.455   1.924
 6476TIP3    H119434   0.759   3.537   1.921
 6476TIP3    H219435   0.745   3.389   1.952
 6477TIP3   OH219436   0.141   2.865   2.288
 6477TIP3    H119437   0.171   2.780   2.255
 6477TIP3    H219438   0.056   2.879   2.246
 6478TIP3   OH219439   3.046   3.499   2.896
 6478TIP3    H119440   3.040   3.593   2.880
 6478TIP3    H219441   3.140   3.481   2.899
 6479TIP3   OH219442   4.253   4.298   0.503
 6479TIP3    H119443   4.177   4.294   0.445
 6479TIP3    H219444   4.317   4.237   0.463
 6480TIP3   OH219445   1.583   4.429   2.877
 6480TIP3    H119446   1.618   4.507   2.919
 6480TIP3    H219447   1.494   4.420   2.911
 6481TIP3   OH219448   5.291   5.671   2.703
 6481TIP3    H119449   5.234   5.607   2.662
 6481TIP3    H219450   5.361   5.686   2.640
 6482TIP3   OH219451   1.340   4.817   3.572
 6482TIP3    H119452   1.393   4.738   3.577
 6482TIP3    H219453   1.396   4.881   3.529
 6483TIP3   OH219454   3.549   3.304   1.495
 6483TIP3    H119455   3.578   3.393   1.476
 6483TIP3    H219456   3.468   3.293   1.446
 6484TIP3   OH219457   5.259   2.052   4.133
 6484TIP3    H119458   5.240   2.005   4.215
 6484TIP3    H219459   5.174   2.069   4.095
 6485TIP3   OH219460   3.132   5.252   3.194
 6485TIP3    H119461   3.132   5.345   3.218
 6485TIP3    H219462   3.047   5.220   3.224
 6486TIP3   OH219463   2.168   1.345   1.115
 6486TIP3    H119464   2.138   1.430   1.082
 6486TIP3    H219465   2.194   1.362   1.205
 6487TIP3   OH219466   5.723   2.833   1.636
 6487TIP3    H119467   5.810   2.804   1.664
 6487TIP3    H219468   5.727   2.928   1.638
 6488TIP3   OH219469   0.691   1.177   2.992
 6488TIP3    H119470   0.776   1.137   2.972
 6488TIP3    H219471   0.713   1.263   3.027
 6489TIP3   OH219472   3.477   0.994   3.077
 6489TIP3    H119473   3.413   1.007   3.006
 6489TIP3    H219474   3.426   0.959   3.149
 6490TIP3   OH219475   0.643   5.512   1.870
 6490TIP3    H119476   0.727   5.466   1.862
 6490TIP3    H219477   0.592   5.482   1.796
 6491TIP3   OH219478   1.293   4.624   3.317
 6491TIP3    H119479   1.323   4.587   3.401
 6491TIP3    H219480   1.269   4.714   3.339
 6492TIP3   OH219481   4.623   1.340   0.287
 6492TIP3    H119482   4.617   1.295   0.371
 6492TIP3    H219483   4.626   1.433   0.309
 6493TIP3   OH219484   0.474   2.722   2.071
 6493TIP3    H119485   0.559   2.679   2.059
 6493TIP3    H219486   0.457   2.766   1.988
 6494TIP3   OH219487   4.712   2.834   2.214
 6494TIP3    H119488   4.781   2.894   2.243
 6494TIP3    H219489   4.631   2.883   2.225
 6495TIP3   OH219490   1.747   3.557   1.000
 6495TIP3    H119491   1.723   3.649   0.993
 6495TIP3    H219492   1.726   3.533   1.090
 6496TIP3   OH219493   3.133   2.538   3.991
 6496TIP3    H119494   3.104   2.531   3.900
 6496TIP3    H219495   3.227   2.550   3.986
 6497TIP3   OH219496   5.237   2.019   0.013
 6497TIP3    H119497   5.182   2.041  -0.063
 6497TIP3    H219498   5.299   1.954  -0.021
 6498TIP3   OH219499   4.629   0.411   0.890
 6498TIP3    H119500   4.620   0.504   0.873
 6498TIP3    H219501   4.602   0.400   0.981
 6499TIP3   OH219502   1.117   5.788   5.064
 6499TIP3    H119503   1.084   5.747   4.984
 6499TIP3    H219504   1.045   5.780   5.127
 6500TIP3   OH219505   5.281   4.847   1.473
 6500TIP3    H119506   5.192   4.819   1.450
 6500TIP3    H219507   5.268   4.922   1.530
 6501TIP3   OH219508   0.947   5.448   4.077
 6501TIP3    H119509   1.040   5.456   4.099
 6501TIP3    H219510   0.907   5.528   4.112
 6502TIP3   OH219511   5.575   4.565   3.141
 6502TIP3    H119512   5.591   4.624   3.214
 6502TIP3    H219513   5.542   4.485   3.181
 6503TIP3   OH219514   0.726   1.358   4.693
 6503TIP3    H119515   0.730   1.350   4.789
 6503TIP3    H219516   0.674   1.283   4.665
 6504TIP3   OH219517   1.245   4.933   1.037
 6504TIP3    H119518   1.338   4.944   1.055
 6504TIP3    H219519   1.241   4.896   0.948
 6505TIP3   OH219520   4.419   4.706   4.254
 6505TIP3    H119521   4.425   4.681   4.346
 6505TIP3    H219522   4.420   4.801   4.255
 6506TIP3   OH219523   0.060   1.225   0.390
 6506TIP3    H119524  -0.012   1.166   0.413
 6506TIP3    H219525   0.053   1.297   0.453
 6507TIP3   OH219526   4.769   3.839   2.763
 6507TIP3    H119527   4.716   3.786   2.703
 6507TIP3    H219528   4.706   3.900   2.802
 6508TIP3   OH219529   2.308   3.690   0.483
 6508TIP3    H119530   2.226   3.665   0.439
 6508TIP3    H219531   2.297   3.782   0.505
 6509TIP3   OH219532   1.441   0.352   4.048
 6509TIP3    H119533   1.527   0.363   4.089
 6509TIP3    H219534   1.383   0.410   4.097
 6510TIP3   OH219535   0.228   4.112   1.312
 6510TIP3    H119536   0.139   4.104   1.347
 6510TIP3    H219537   0.285   4.095   1.386
 6511TIP3   OH219538   1.719   3.804   1.152
 6511TIP3    H119539   1.643   3.823   1.207
 6511TIP3    H219540   1.782   3.873   1.172
 6512TIP3   OH219541   2.851   1.903   5.014
 6512TIP3    H119542   2.854   1.933   5.105
 6512TIP3    H219543   2.768   1.937   4.981
 6513TIP3   OH219544   3.922   2.626   1.626
 6513TIP3    H119545   3.958   2.692   1.684
 6513TIP3    H219546   3.994   2.565   1.610
 6514TIP3   OH219547   1.072   0.234   1.952
 6514TIP3    H119548   0.983   0.232   1.986
 6514TIP3    H219549   1.062   0.246   1.858
 6515TIP3   OH219550   2.202   0.186   3.315
 6515TIP3    H119551   2.150   0.127   3.261
 6515TIP3    H219552   2.138   0.241   3.360
 6516TIP3   OH219553   2.783   1.940   4.469
 6516TIP3    H119554   2.787   1.963   4.562
 6516TIP3    H219555   2.689   1.939   4.449
 6517TIP3   OH219556   3.705   3.098   3.016
 6517TIP3    H119557   3.762   3.030   2.981
 6517TIP3    H219558   3.617   3.059   3.014
 6518TIP3   OH219559   6.014   2.304   4.153
 6518TIP3    H119560   6.088   2.291   4.094
 6518TIP3    H219561   6.039   2.258   4.233
 6519TIP3   OH219562   4.124   4.015   3.260
 6519TIP3    H119563   4.149   4.105   3.280
 6519TIP3    H219564   4.122   3.971   3.345
 6520TIP3   OH219565   6.030   3.949   3.477
 6520TIP3    H119566   5.980   4.024   3.511
 6520TIP3    H219567   6.002   3.875   3.531
 6521TIP3   OH219568   3.512   1.415   0.316
 6521TIP3    H119569   3.537   1.329   0.282
 6521TIP3    H219570   3.530   1.475   0.243
 6522TIP3   OH219571   3.205   1.983   3.791
 6522TIP3    H119572   3.246   1.949   3.871
 6522TIP3    H219573   3.250   1.937   3.720
 6523TIP3   OH219574   1.746   3.104   4.707
 6523TIP3    H119575   1.727   3.015   4.678
 6523TIP3    H219576   1.839   3.101   4.730
 6524TIP3   OH219577   4.935   4.277   5.074
 6524TIP3    H119578   4.937   4.226   5.155
 6524TIP3    H219579   4.844   4.306   5.067
 6525TIP3   OH219580   1.736   1.120   0.366
 6525TIP3    H119581   1.775   1.105   0.280
 6525TIP3    H219582   1.676   1.046   0.377
 6526TIP3   OH219583   5.048   1.961   2.186
 6526TIP3    H119584   5.103   1.930   2.114
 6526TIP3    H219585   5.107   2.011   2.242
 6527TIP3   OH219586   1.035   0.820   0.501
 6527TIP3    H119587   1.006   0.782   0.418
 6527TIP3    H219588   0.955   0.852   0.542
 6528TIP3   OH219589   5.761   5.477   1.029
 6528TIP3    H119590   5.836   5.442   1.078
 6528TIP3    H219591   5.684   5.438   1.072
 6529TIP3   OH219592   3.547   5.254   0.085
 6529TIP3    H119593   3.541   5.327   0.147
 6529TIP3    H219594   3.475   5.196   0.107
 6530TIP3   OH219595   4.977   2.433   3.103
 6530TIP3    H119596   5.059   2.418   3.150
 6530TIP3    H219597   4.933   2.502   3.153
 6531TIP3   OH219598   3.965   5.967   3.313
 6531TIP3    H119599   4.023   5.903   3.354
 6531TIP3    H219600   3.882   5.921   3.302
 6532TIP3   OH219601   0.718   5.472   4.294
 6532TIP3    H119602   0.635   5.425   4.286
 6532TIP3    H219603   0.784   5.404   4.282
 6533TIP3   OH219604   2.260   3.929   4.274
 6533TIP3    H119605   2.188   3.915   4.212
 6533TIP3    H219606   2.266   3.846   4.323
 6534TIP3   OH219607   2.309   2.783   4.800
 6534TIP3    H119608   2.311   2.870   4.759
 6534TIP3    H219609   2.375   2.788   4.870
 6535TIP3   OH219610   1.196   4.186   3.580
 6535TIP3    H119611   1.167   4.115   3.638
 6535TIP3    H219612   1.238   4.142   3.506
 6536TIP3   OH219613   4.063   0.726   2.724
 6536TIP3    H119614   4.019   0.763   2.801
 6536TIP3    H219615   4.058   0.631   2.736
 6537TIP3   OH219616   1.668   5.750   4.366
 6537TIP3    H119617   1.741   5.695   4.396
 6537TIP3    H219618   1.609   5.753   4.442
 6538TIP3   OH219619   0.209   5.617   0.783
 6538TIP3    H119620   0.143   5.548   0.777
 6538TIP3    H219621   0.262   5.593   0.859
 6539TIP3   OH219622   5.687   1.568   1.304
 6539TIP3    H119623   5.762   1.581   1.362
 6539TIP3    H219624   5.720   1.589   1.217
 6540TIP3   OH219625   2.297   0.014   4.765
 6540TIP3    H119626   2.336   0.094   4.729
 6540TIP3    H219627   2.328  -0.056   4.708
 6541TIP3   OH219628   1.699   3.005   3.737
 6541TIP3    H119629   1.652   2.989   3.819
 6541TIP3    H219630   1.669   3.091   3.708
 6542TIP3   OH219631   5.797   0.299   2.125
 6542TIP3    H119632   5.886   0.266   2.134
 6542TIP3    H219633   5.789   0.323   2.033
 6543TIP3   OH219634   1.267   0.160   0.792
 6543TIP3    H119635   1.221   0.208   0.860
 6543TIP3    H219636   1.257   0.214   0.714
 6544TIP3   OH219637   2.892   4.552   1.873
 6544TIP3    H119638   2.936   4.468   1.862
 6544TIP3    H219639   2.851   4.569   1.787
 6545TIP3   OH219640   1.547   5.969   1.593
 6545TIP3    H119641   1.629   5.997   1.552
 6545TIP3    H219642   1.482   6.034   1.565
 6546TIP3   OH219643   2.655   0.782   3.807
 6546TIP3    H119644   2.593   0.824   3.867
 6546TIP3    H219645   2.670   0.847   3.739
 6547TIP3   OH219646   5.573   2.644   1.129
 6547TIP3    H119647   5.539   2.591   1.201
 6547TIP3    H219648   5.570   2.734   1.162
 6548TIP3   OH219649   2.385   3.391   0.457
 6548TIP3    H119650   2.392   3.485   0.468
 6548TIP3    H219651   2.432   3.372   0.376
 6549TIP3   OH219652   3.612   6.029   3.585
 6549TIP3    H119653   3.536   6.047   3.641
 6549TIP3    H219654   3.587   5.952   3.534
 6550TIP3   OH219655   2.141   0.151   2.679
 6550TIP3    H119656   2.153   0.221   2.615
 6550TIP3    H219657   2.077   0.092   2.639
 6551TIP3   OH219658   4.352   2.469   0.028
 6551TIP3    H119659   4.328   2.514   0.109
 6551TIP3    H219660   4.288   2.398   0.019
 6552TIP3   OH219661   3.936   4.895   4.806
 6552TIP3    H119662   3.893   4.810   4.808
 6552TIP3    H219663   4.022   4.878   4.768
 6553TIP3   OH219664   0.611   2.043   0.574
 6553TIP3    H119665   0.615   1.960   0.527
 6553TIP3    H219666   0.518   2.058   0.588
 6554TIP3   OH219667   3.494   1.190   4.503
 6554TIP3    H119668   3.496   1.286   4.507
 6554TIP3    H219669   3.452   1.171   4.420
 6555TIP3   OH219670   2.367   3.330   4.639
 6555TIP3    H119671   2.450   3.298   4.675
 6555TIP3    H219672   2.378   3.425   4.632
 6556TIP3   OH219673   2.415   2.260   1.840
 6556TIP3    H119674   2.410   2.330   1.775
 6556TIP3    H219675   2.324   2.236   1.857
 6557TIP3   OH219676   4.488   2.957   2.226
 6557TIP3    H119677   4.459   2.926   2.140
 6557TIP3    H219678   4.475   3.051   2.223
 6558TIP3   OH219679   2.017   6.018  -0.008
 6558TIP3    H119680   2.020   6.091   0.054
 6558TIP3    H219681   2.068   5.949   0.034
 6559TIP3   OH219682   5.238   2.758   1.732
 6559TIP3    H119683   5.170   2.720   1.677
 6559TIP3    H219684   5.203   2.753   1.821
 6560TIP3   OH219685   2.718   2.542   4.349
 6560TIP3    H119686   2.661   2.618   4.338
 6560TIP3    H219687   2.769   2.561   4.428
 6561TIP3   OH219688   2.518   1.790   4.751
 6561TIP3    H119689   2.581   1.722   4.729
 6561TIP3    H219690   2.563   1.847   4.812
 6562TIP3   OH219691   2.444   2.652   4.596
 6562TIP3    H119692   2.457   2.736   4.552
 6562TIP3    H219693   2.386   2.673   4.669
 6563TIP3   OH219694   1.324   0.975   0.303
 6563TIP3    H119695   1.236   0.955   0.271
 6563TIP3    H219696   1.331   1.070   0.296
 6564TIP3   OH219697   3.397   3.435   0.667
 6564TIP3    H119698   3.332   3.396   0.726
 6564TIP3    H219699   3.345   3.469   0.594
 6565TIP3   OH219700   3.025   5.084   5.046
 6565TIP3    H119701   3.057   5.018   5.107
 6565TIP3    H219702   2.941   5.112   5.083
 6566TIP3   OH219703   1.052   0.498   0.134
 6566TIP3    H119704   1.065   0.519   0.042
 6566TIP3    H219705   0.974   0.547   0.159
 6567TIP3   OH219706   1.811   2.647   0.309
 6567TIP3    H119707   1.863   2.579   0.350
 6567TIP3    H219708   1.848   2.657   0.222
 6568TIP3   OH219709   0.692   3.386   1.153
 6568TIP3    H119710   0.724   3.395   1.242
 6568TIP3    H219711   0.601   3.358   1.164
 6569TIP3   OH219712   1.996   0.273   2.865
 6569TIP3    H119713   2.064   0.264   2.799
 6569TIP3    H219714   1.915   0.245   2.822
 6570TIP3   OH219715   3.927   4.464   2.331
 6570TIP3    H119716   3.982   4.514   2.391
 6570TIP3    H219717   3.985   4.397   2.294
 6571TIP3   OH219718   3.889   0.363   4.740
 6571TIP3    H119719   3.919   0.400   4.657
 6571TIP3    H219720   3.832   0.430   4.778
 6572TIP3   OH219721   5.005   4.791   1.447
 6572TIP3    H119722   4.988   4.820   1.357
 6572TIP3    H219723   4.985   4.697   1.445
 6573TIP3   OH219724   1.754   4.185   1.654
 6573TIP3    H119725   1.792   4.233   1.581
 6573TIP3    H219726   1.827   4.168   1.714
 6574TIP3   OH219727   6.140   4.158   1.083
 6574TIP3    H119728   6.076   4.206   1.135
 6574TIP3    H219729   6.159   4.080   1.135
 6575TIP3   OH219730   1.335   4.206   2.445
 6575TIP3    H119731   1.340   4.291   2.489
 6575TIP3    H219732   1.253   4.208   2.396
 6576TIP3   OH219733   2.125   2.648   0.402
 6576TIP3    H119734   2.145   2.695   0.322
 6576TIP3    H219735   2.093   2.715   0.463
 6577TIP3   OH219736   0.856   4.448   4.930
 6577TIP3    H119737   0.874   4.542   4.942
 6577TIP3    H219738   0.779   4.445   4.873
 6578TIP3   OH219739   3.489   4.445   2.918
 6578TIP3    H119740   3.512   4.388   2.992
 6578TIP3    H219741   3.541   4.524   2.933
 6579TIP3   OH219742   1.626   3.151   1.949
 6579TIP3    H119743   1.584   3.104   1.877
 6579TIP3    H219744   1.572   3.132   2.026
 6580TIP3   OH219745   1.631   4.488   1.270
 6580TIP3    H119746   1.595   4.471   1.357
 6580TIP3    H219747   1.558   4.522   1.220
 6581TIP3   OH219748   3.029   5.678   4.873
 6581TIP3    H119749   3.112   5.631   4.876
 6581TIP3    H219750   3.006   5.692   4.964
 6582TIP3   OH219751   4.440   1.501   1.316
 6582TIP3    H119752   4.446   1.544   1.230
 6582TIP3    H219753   4.384   1.425   1.301
 6583TIP3   OH219754   4.495   4.576   4.477
 6583TIP3    H119755   4.544   4.588   4.558
 6583TIP3    H219756   4.414   4.534   4.504
 6584TIP3   OH219757   5.130   5.625   4.939
 6584TIP3    H119758   5.164   5.650   4.853
 6584TIP3    H219759   5.059   5.564   4.920
 6585TIP3   OH219760   5.977   5.338   1.508
 6585TIP3    H119761   6.022   5.257   1.485
 6585TIP3    H219762   5.959   5.329   1.602
 6586TIP3   OH219763   1.725   4.797   2.490
 6586TIP3    H119764   1.762   4.884   2.474
 6586TIP3    H219765   1.646   4.794   2.435
 6587TIP3   OH219766   0.709   1.923   1.395
 6587TIP3    H119767   0.745   1.845   1.436
 6587TIP3    H219768   0.702   1.987   1.466
 6588TIP3   OH219769   1.729   2.037   4.333
 6588TIP3    H119770   1.653   1.986   4.305
 6588TIP3    H219771   1.796   1.971   4.353
 6589TIP3   OH219772   4.506   1.146   3.271
 6589TIP3    H119773   4.521   1.210   3.202
 6589TIP3    H219774   4.555   1.068   3.243
 6590TIP3   OH219775   2.453   3.071   2.449
 6590TIP3    H119776   2.500   3.002   2.496
 6590TIP3    H219777   2.519   3.140   2.435
 6591TIP3   OH219778   5.967   4.407   0.648
 6591TIP3    H119779   5.967   4.335   0.711
 6591TIP3    H219780   5.875   4.417   0.623
 6592TIP3   OH219781   2.886   5.260   1.546
 6592TIP3    H119782   2.912   5.237   1.457
 6592TIP3    H219783   2.803   5.306   1.536
 6593TIP3   OH219784   4.538   2.013   1.532
 6593TIP3    H119785   4.543   2.031   1.625
 6593TIP3    H219786   4.506   1.922   1.527
 6594TIP3   OH219787   4.084   5.413   4.736
 6594TIP3    H119788   4.094   5.381   4.646
 6594TIP3    H219789   3.990   5.430   4.746
 6595TIP3   OH219790   0.654   3.186   4.625
 6595TIP3    H119791   0.708   3.168   4.549
 6595TIP3    H219792   0.685   3.270   4.658
 6596TIP3   OH219793   1.951   2.826   3.546
 6596TIP3    H119794   2.026   2.836   3.488
 6596TIP3    H219795   1.974   2.754   3.604
 6597TIP3   OH219796   1.463   0.697   1.518
 6597TIP3    H119797   1.510   0.614   1.518
 6597TIP3    H219798   1.370   0.672   1.518
 6598TIP3   OH219799   1.062   1.037   0.772
 6598TIP3    H119800   1.025   0.963   0.725
 6598TIP3    H219801   0.986   1.083   0.809
 6599TIP3   OH219802   6.370   1.530   3.187
 6599TIP3    H119803   6.318   1.508   3.264
 6599TIP3    H219804   6.309   1.525   3.114
 6600TIP3   OH219805   4.111   5.589   4.369
 6600TIP3    H119806   4.100   5.517   4.431
 6600TIP3    H219807   4.127   5.547   4.285
 6601TIP3   OH219808   0.344   1.360   0.036
 6601TIP3    H119809   0.271   1.403  -0.008
 6601TIP3    H219810   0.348   1.273  -0.005
 6602TIP3   OH219811   5.097   3.532   1.485
 6602TIP3    H119812   5.175   3.536   1.540
 6602TIP3    H219813   5.071   3.440   1.488
 6603TIP3   OH219814   4.264   2.577   4.074
 6603TIP3    H119815   4.172   2.586   4.098
 6603TIP3    H219816   4.298   2.666   4.073
 6604TIP3   OH219817   0.640   2.371   4.532
 6604TIP3    H119818   0.611   2.462   4.537
 6604TIP3    H219819   0.621   2.344   4.442
 6605TIP3   OH219820   2.989   0.375   0.485
 6605TIP3    H119821   2.904   0.371   0.442
 6605TIP3    H219822   2.995   0.295   0.536
 6606TIP3   OH219823   5.056   1.716   0.676
 6606TIP3    H119824   5.015   1.706   0.590
 6606TIP3    H219825   5.111   1.639   0.686
 6607TIP3   OH219826   2.263   0.565   4.880
 6607TIP3    H119827   2.190   0.624   4.864
 6607TIP3    H219828   2.287   0.580   4.971
 6608TIP3   OH219829   3.811   0.453   4.089
 6608TIP3    H119830   3.884   0.464   4.028
 6608TIP3    H219831   3.773   0.541   4.096
 6609TIP3   OH219832   1.508   3.085   2.194
 6609TIP3    H119833   1.507   3.133   2.277
 6609TIP3    H219834   1.440   3.018   2.205
 6610TIP3   OH219835   3.771   1.248   4.221
 6610TIP3    H119836   3.757   1.325   4.275
 6610TIP3    H219837   3.730   1.269   4.137
 6611TIP3   OH219838   5.592   3.696   2.452
 6611TIP3    H119839   5.648   3.734   2.519
 6611TIP3    H219840   5.525   3.646   2.500
 6612TIP3   OH219841   3.480   1.522   1.994
 6612TIP3    H119842   3.551   1.507   1.931
 6612TIP3    H219843   3.518   1.579   2.060
 6613TIP3   OH219844   3.635   2.379   3.476
 6613TIP3    H119845   3.671   2.437   3.408
 6613TIP3    H219846   3.541   2.373   3.455
 6614TIP3   OH219847   0.354   2.883   2.460
 6614TIP3    H119848   0.281   2.886   2.399
 6614TIP3    H219849   0.358   2.792   2.489
 6615TIP3   OH219850   3.409   0.753   1.938
 6615TIP3    H119851   3.390   0.661   1.958
 6615TIP3    H219852   3.382   0.801   2.017
 6616TIP3   OH219853   4.440   3.320   3.029
 6616TIP3    H119854   4.385   3.391   2.997
 6616TIP3    H219855   4.519   3.363   3.062
 6617TIP3   OH219856   6.339   0.704   3.620
 6617TIP3    H119857   6.292   0.735   3.698
 6617TIP3    H219858   6.369   0.784   3.577
 6618TIP3   OH219859   0.561   2.885   4.281
 6618TIP3    H119860   0.572   2.836   4.199
 6618TIP3    H219861   0.474   2.923   4.275
 6619TIP3   OH219862   2.951   5.198   3.817
 6619TIP3    H119863   2.856   5.188   3.827
 6619TIP3    H219864   2.982   5.217   3.905
 6620TIP3   OH219865   1.826   5.854   4.774
 6620TIP3    H119866   1.766   5.780   4.785
 6620TIP3    H219867   1.908   5.823   4.814
 6621TIP3   OH219868   6.183   0.744   2.318
 6621TIP3    H119869   6.192   0.764   2.411
 6621TIP3    H219870   6.244   0.672   2.303
 6622TIP3   OH219871   4.158   5.867   1.466
 6622TIP3    H119872   4.183   5.930   1.398
 6622TIP3    H219873   4.235   5.812   1.477
 6623TIP3   OH219874   3.331   2.595   4.511
 6623TIP3    H119875   3.297   2.657   4.576
 6623TIP3    H219876   3.263   2.528   4.504
 6624TIP3   OH219877   4.383   4.365   2.912
 6624TIP3    H119878   4.435   4.321   2.845
 6624TIP3    H219879   4.352   4.295   2.969
 6625TIP3   OH219880   1.979   3.890   4.561
 6625TIP3    H119881   1.973   3.840   4.643
 6625TIP3    H219882   1.922   3.843   4.500
 6626TIP3   OH219883   0.316   5.694   0.375
 6626TIP3    H119884   0.293   5.740   0.456
 6626TIP3    H219885   0.243   5.633   0.361
 6627TIP3   OH219886   5.319   2.038   4.458
 6627TIP3    H119887   5.236   2.084   4.473
 6627TIP3    H219888   5.342   2.003   4.544
 6628TIP3   OH219889   6.065   4.747   2.038
 6628TIP3    H119890   6.022   4.678   2.088
 6628TIP3    H219891   6.008   4.824   2.048
 6629TIP3   OH219892   0.767   5.062   1.866
 6629TIP3    H119893   0.674   5.076   1.851
 6629TIP3    H219894   0.774   4.972   1.896
 6630TIP3   OH219895   3.223   1.905   1.760
 6630TIP3    H119896   3.185   1.980   1.805
 6630TIP3    H219897   3.187   1.828   1.805
 6631TIP3   OH219898   1.244   2.186   0.112
 6631TIP3    H119899   1.179   2.210   0.047
 6631TIP3    H219900   1.217   2.231   0.192
 6632TIP3   OH219901   2.178   2.433   1.038
 6632TIP3    H119902   2.177   2.341   1.064
 6632TIP3    H219903   2.091   2.447   1.000
 6633TIP3   OH219904   6.138   3.365   2.776
 6633TIP3    H119905   6.159   3.290   2.832
 6633TIP3    H219906   6.182   3.347   2.693
 6634TIP3   OH219907   5.660   0.349   0.427
 6634TIP3    H119908   5.698   0.422   0.474
 6634TIP3    H219909   5.598   0.389   0.366
 6635TIP3   OH219910   6.019   0.914   4.062
 6635TIP3    H119911   5.986   1.001   4.037
 6635TIP3    H219912   6.027   0.867   3.979
 6636TIP3   OH219913   2.195   5.550   0.914
 6636TIP3    H119914   2.120   5.589   0.958
 6636TIP3    H219915   2.172   5.551   0.821
 6637TIP3   OH219916   0.840   3.429   3.128
 6637TIP3    H119917   0.842   3.345   3.083
 6637TIP3    H219918   0.749   3.441   3.152
 6638TIP3   OH219919   1.099   1.000   3.592
 6638TIP3    H119920   1.076   0.935   3.526
 6638TIP3    H219921   1.172   0.961   3.639
 6639TIP3   OH219922   1.255   5.575   1.859
 6639TIP3    H119923   1.286   5.568   1.769
 6639TIP3    H219924   1.175   5.627   1.853
 6640TIP3   OH219925   5.657   4.694   0.894
 6640TIP3    H119926   5.648   4.727   0.805
 6640TIP3    H219927   5.568   4.672   0.921
 6641TIP3   OH219928   0.051   1.608   4.939
 6641TIP3    H119929   0.076   1.694   4.973
 6641TIP3    H219930   0.126   1.551   4.959
 6642TIP3   OH219931   2.646   2.600   1.132
 6642TIP3    H119932   2.690   2.550   1.063
 6642TIP3    H219933   2.559   2.559   1.139
 6643TIP3   OH219934   4.054   4.976   3.548
 6643TIP3    H119935   4.026   4.900   3.497
 6643TIP3    H219936   4.108   5.028   3.487
 6644TIP3   OH219937   3.543   2.171   1.282
 6644TIP3    H119938   3.472   2.107   1.284
 6644TIP3    H219939   3.586   2.162   1.367
 6645TIP3   OH219940   1.522   3.688   2.674
 6645TIP3    H119941   1.529   3.628   2.748
 6645TIP3    H219942   1.430   3.682   2.646
   6.36765   6.00348   5.19917   0.00000   0.00000  -2.12256   0.00000  -2.12256  -3.00174
