* GENERATED BY CHARMM-GUI (HTTP://WWW.CHARMM-GUI.ORG) V3.7 ON JUN, 13. 2026. JOB
* GENERATES IONS
*  DATE:     6/13/26      7: 7:27      CREATED BY USER: charmm-gui
*
       159  EXT
         1         1  GLY       N             -22.0569798882       -0.2324853562       -0.1762602164  PROA      1              97.7100000000
         2         1  GLY       HT1           -22.8235272069       -0.0383515719        0.4992523904  PROA      1               0.0000000000
         3         1  GLY       HT2           -21.6208912486       -1.1495153776        0.0484223918  PROA      1               0.0000000000
         4         1  GLY       HT3           -22.4440115030       -0.2603523719       -1.1411589648  PROA      1               0.0000000000
         5         1  GLY       CA            -21.0534360417        0.8166079475       -0.0864994880  PROA      1              98.0000000000
         6         1  GLY       HA1           -20.8022809630        0.9384696256        0.9567525048  PROA      1               0.0000000000
         7         1  GLY       HA2           -21.4937337199        1.7224980189       -0.4761210942  PROA      1               0.0000000000
         8         1  GLY       C             -19.7912105993        0.5027949129       -0.8673133659  PROA      1              98.2400000000
         9         1  GLY       O             -19.5991638189       -0.6285416283       -1.3184881265  PROA      1              97.9600000000
        10         2  PRO       N             -18.8063466738        1.3780236943       -1.1319255885  PROA      2              98.4500000000
        11         2  PRO       CD            -19.1384827855        2.6927743596       -0.9928777866  PROA      2              94.7500000000
        12         2  PRO       HD1           -19.2535649348        2.9364561404        0.0844604824  PROA      2               0.0000000000
        13         2  PRO       HD2           -20.0885733935        2.8963255563       -1.5306297776  PROA      2               0.0000000000
        14         2  PRO       CA            -17.5191782016        1.1126390589       -1.7802799049  PROA      2              98.4700000000
        15         2  PRO       HA            -17.6696650580        0.6213913357       -2.7282162129  PROA      2               0.0000000000
        16         2  PRO       CB            -16.8798108043        2.5008070323       -1.8730592604  PROA      2              98.3100000000
        17         2  PRO       HB1           -16.4525438070        2.6712828290       -2.8842246892  PROA      2               0.0000000000
        18         2  PRO       HB2           -16.0724811636        2.6142487491       -1.1184570891  PROA      2               0.0000000000
        19         2  PRO       CG            -17.9977398040        3.4555374839       -1.6015992882  PROA      2              96.9700000000
        20         2  PRO       HG1           -17.6564084059        4.2474043257       -0.9010746774  PROA      2               0.0000000000
        21         2  PRO       HG2           -18.3256916153        3.9325221295       -2.5498757281  PROA      2               0.0000000000
        22         2  PRO       C             -16.6384438358        0.1601860119       -0.9754562160  PROA      2              98.5300000000
        23         2  PRO       O             -16.8207745849        0.0201650340        0.2370336288  PROA      2              98.4200000000
        24         3  GLY       N             -15.7758833490       -0.5295921579       -1.7315286220  PROA      3              98.4100000000
        25         3  GLY       HN            -15.7426198523       -0.4654206582       -2.7258691634  PROA      3               0.0000000000
        26         3  GLY       CA            -14.8301829315       -1.4246274897       -1.0849124491  PROA      3              98.3800000000
        27         3  GLY       HA1           -14.3049451773       -1.9644727987       -1.8588488164  PROA      3               0.0000000000
        28         3  GLY       HA2           -15.3931566966       -2.1101927619       -0.4690017785  PROA      3               0.0000000000
        29         3  GLY       C             -13.8189112756       -0.6997979500       -0.2171193998  PROA      3              98.5700000000
        30         3  GLY       O             -13.7108044070        0.5266832516       -0.2733934352  PROA      3              98.4800000000
        31         4  ASP       N             -13.2186794457       -1.5182021063        0.6593926579  PROA      4              98.1100000000
        32         4  ASP       HN            -13.4764823666       -2.4694462865        0.8081570387  PROA      4               0.0000000000
        33         4  ASP       CA            -12.1158126015       -0.9684116501        1.4419763136  PROA      4              98.1000000000
        34         4  ASP       HA            -12.4789491995       -0.0968095203        1.9660040746  PROA      4               0.0000000000
        35         4  ASP       CB            -11.5921227193       -2.0063667022        2.4359180710  PROA      4              97.9200000000
        36         4  ASP       HB1           -10.6521832040       -1.6269592548        2.8900486717  PROA      4               0.0000000000
        37         4  ASP       HB2           -11.3789653406       -2.9504087231        1.8909231160  PROA      4               0.0000000000
        38         4  ASP       CG            -12.5767382420       -2.3085754519        3.5524534014  PROA      4              96.3100000000
        39         4  ASP       OD1           -13.4486899806       -1.4606234120        3.8427696145  PROA      4              95.6800000000
        40         4  ASP       OD2           -12.4784689216       -3.4018457773        4.1491955035  PROA      4              95.2300000000
        41         4  ASP       C             -10.9836983352       -0.4918198241        0.5352925101  PROA      4              98.3100000000
        42         4  ASP       O             -10.7354549499       -1.0813209059       -0.5182693989  PROA      4              98.1800000000
        43         5  PRO       N             -10.2880128172        0.4283681015        0.8155385479  PROA      5              98.3100000000
        44         5  PRO       CD            -10.5006285031        1.1212616027        1.9504249589  PROA      5              97.0200000000
        45         5  PRO       HD1           -10.2814621439        0.4787604535        2.8291974025  PROA      5               0.0000000000
        46         5  PRO       HD2           -11.5553374853        1.4666678613        1.9873858406  PROA      5               0.0000000000
        47         5  PRO       CA             -9.1051905337        0.8048569713        0.0376262286  PROA      5              98.3000000000
        48         5  PRO       HA             -9.3801933984        1.0251735020       -0.9813594100  PROA      5               0.0000000000
        49         5  PRO       CB             -8.5332493143        1.9914684634        0.8160929321  PROA      5              98.1900000000
        50         5  PRO       HB1            -8.3953029939        2.8700392503        0.1503904872  PROA      5               0.0000000000
        51         5  PRO       HB2            -7.5546334993        1.7291979941        1.2717252925  PROA      5               0.0000000000
        52         5  PRO       CG             -9.5499948224        2.2812258616        1.8731493270  PROA      5              97.3700000000
        53         5  PRO       HG1            -9.0461915923        2.4226330177        2.8531911183  PROA      5               0.0000000000
        54         5  PRO       HG2           -10.1058634817        3.2088144616        1.6184239576  PROA      5               0.0000000000
        55         5  PRO       C              -8.0827248555       -0.3241095948       -0.0641206603  PROA      5              98.4900000000
        56         5  PRO       O              -8.0612990627       -1.2210763448        0.7834001859  PROA      5              98.4400000000
        57         6  GLY       N              -7.3623731081       -0.1629757048       -1.1813915449  PROA      6              98.2000000000
        58         6  GLY       HN             -7.5050579058        0.5399463362       -1.8720295552  PROA      6               0.0000000000
        59         6  GLY       CA             -6.2903088192       -1.1322367585       -1.3437034988  PROA      6              98.1600000000
        60         6  GLY       HA1            -5.8323883353       -0.9596150438       -2.3064073234  PROA      6               0.0000000000
        61         6  GLY       HA2            -6.7293987724       -2.1183670780       -1.3115307452  PROA      6               0.0000000000
        62         6  GLY       C              -5.2264709606       -1.0313173078       -0.2669726713  PROA      6              98.4500000000
        63         6  GLY       O              -5.1719703600       -0.0437449492        0.4683011016  PROA      6              98.4000000000
        64         7  SER       N              -4.4203459376       -2.0142366166       -0.2349401915  PROA      7              98.3700000000
        65         7  SER       HN             -4.5039469776       -2.8132554851       -0.8252988547  PROA      7               0.0000000000
        66         7  SER       CA             -3.3081758064       -1.9886471819        0.7095129731  PROA      7              98.3300000000
        67         7  SER       HA             -3.6922995648       -1.6816699774        1.6709587360  PROA      7               0.0000000000
        68         7  SER       CB             -2.6589618131       -3.3697486934        0.8127835200  PROA      7              98.0800000000
        69         7  SER       HB1            -1.9998591524       -3.4060394723        1.7063693925  PROA      7               0.0000000000
        70         7  SER       HB2            -2.0565126569       -3.5676961568       -0.0994121090  PROA      7               0.0000000000
        71         7  SER       OG             -3.6444129217       -4.3802139764        0.9341590719  PROA      7              96.0500000000
        72         7  SER       HG1            -4.1346858163       -4.1769677487        1.7341112328  PROA      7               0.0000000000
        73         7  SER       C              -2.2623648511       -0.9550563640        0.3035185558  PROA      7              98.5600000000
        74         7  SER       O              -2.2046788961       -0.5454970440       -0.8572822428  PROA      7              98.5100000000
        75         8  ASP       N              -1.4733488308       -0.7006447369        1.2804189826  PROA      8              98.4000000000
        76         8  ASP       HN             -1.5752794376       -1.0513912559        2.2073112496  PROA      8               0.0000000000
        77         8  ASP       CA             -0.3482258584        0.1761928176        0.9704767300  PROA      8              98.3700000000
        78         8  ASP       HA             -0.7332656768        1.0497755810        0.4657341260  PROA      8               0.0000000000
        79         8  ASP       CB              0.3844248357        0.5813039419        2.2510984295  PROA      8              98.0600000000
        80         8  ASP       HB1             1.3182875480        1.1165421458        1.9770617546  PROA      8               0.0000000000
        81         8  ASP       HB2             0.6434101374       -0.3353049393        2.8224392839  PROA      8               0.0000000000
        82         8  ASP       CG             -0.4432100634        1.4874837799        3.1466538856  PROA      8              94.9000000000
        83         8  ASP       OD1            -1.5105668064        1.9679487405        2.7077951330  PROA      8              93.5500000000
        84         8  ASP       OD2            -0.0233035663        1.7249557843        4.2989744056  PROA      8              92.0900000000
        85         8  ASP       C               0.6212397128       -0.4972006756        0.0014939078  PROA      8              98.5400000000
        86         8  ASP       O               0.7346908535       -1.7246157205       -0.0183843811  PROA      8              98.4600000000
        87         9  GLY       N               1.3245866357        0.3889781387       -0.8028861112  PROA      9              98.0600000000
        88         9  GLY       HN              1.1817601161        1.3755886729       -0.7966951037  PROA      9               0.0000000000
        89         9  GLY       CA              2.3291857359       -0.1442091540       -1.7094521368  PROA      9              98.0000000000
        90         9  GLY       HA1             2.6634240891        0.6636157748       -2.3434797902  PROA      9               0.0000000000
        91         9  GLY       HA2             1.8613770370       -0.9150725900       -2.3037685862  PROA      9               0.0000000000
        92         9  GLY       C               3.5277500437       -0.7350745732       -0.9914530723  PROA      9              98.2900000000
        93         9  GLY       O               3.6795925291       -0.5627532242        0.2203155575  PROA      9              98.2100000000
        94        10  SER       N               4.3345487081       -1.3088429806       -1.8090181950  PROA      10             98.3100000000
        95        10  SER       HN              4.1612780697       -1.4180263095       -2.7845118982  PROA      10              0.0000000000
        96        10  SER       CA              5.5835660229       -1.8320542105       -1.2666790427  PROA      10             98.2700000000
        97        10  SER       HA              5.3537048902       -2.3801912853       -0.3650831339  PROA      10              0.0000000000
        98        10  SER       CB              6.2694291481       -2.7451278820       -2.2836521219  PROA      10             98.0400000000
        99        10  SER       HB1             7.1615434661       -3.2168104708       -1.8190283231  PROA      10              0.0000000000
       100        10  SER       HB2             6.5839557374       -2.1493117335       -3.1670002056  PROA      10              0.0000000000
       101        10  SER       OG              5.3883491584       -3.7677444486       -2.7159615128  PROA      10             95.6200000000
       102        10  SER       HG1             5.1481234653       -4.2606492571       -1.9279662931  PROA      10              0.0000000000
       103        10  SER       C               6.5281969268       -0.7036802330       -0.8655249297  PROA      10             98.5200000000
       104        10  SER       O               6.4646763166        0.3938677105       -1.4245943743  PROA      10             98.4800000000
       105        11  GLY       N               7.2872149838       -0.8452406135        0.2093565744  PROA      11             98.1200000000
       106        11  GLY       HN              7.2212881665       -1.6492673235        0.7947501150  PROA      11              0.0000000000
       107        11  GLY       CA              8.2655768016        0.1511117092        0.6146949546  PROA      11             98.0500000000
       108        11  GLY       HA1             8.6873180030       -0.1647039505        1.5573968137  PROA      11              0.0000000000
       109        11  GLY       HA2             7.7487305280        1.0917751212        0.7343370947  PROA      11              0.0000000000
       110        11  GLY       C               9.3872921952        0.3292730992       -0.3924882933  PROA      11             98.2900000000
       111        11  GLY       O               9.4346968671       -0.3704493515       -1.4054538846  PROA      11             98.1900000000
       112        12  PRO       N              10.1917972085        1.1322498902       -0.3263750821  PROA      12             98.5200000000
       113        12  PRO       CD             10.2191490762        1.9128077791        0.8778837179  PROA      12             96.5200000000
       114        12  PRO       HD1            10.3364341371        1.2442736374        1.7567107625  PROA      12              0.0000000000
       115        12  PRO       HD2             9.2790714751        2.4967590221        0.9689095820  PROA      12              0.0000000000
       116        12  PRO       CA             11.3554470400        1.3583445618       -1.1866403140  PROA      12             98.5500000000
       117        12  PRO       HA             11.0628598457        1.3510402370       -2.2243607965  PROA      12              0.0000000000
       118        12  PRO       CB             11.9083424107        2.6956026223       -0.6873041661  PROA      12             98.4500000000
       119        12  PRO       HB1            11.5345144851        3.5347643514       -1.3119098501  PROA      12              0.0000000000
       120        12  PRO       HB2            13.0189589928        2.6969386105       -0.7118196502  PROA      12              0.0000000000
       121        12  PRO       CG             11.4083843548        2.8153274028        0.7165989358  PROA      12             97.3700000000
       122        12  PRO       HG1            12.2075556739        2.5177965662        1.4287048836  PROA      12              0.0000000000
       123        12  PRO       HG2            11.1155852143        3.8666186315        0.9248048261  PROA      12              0.0000000000
       124        12  PRO       C              12.4039156103        0.2551019934       -1.0649255160  PROA      12             98.7100000000
       125        12  PRO       O              12.4455266307       -0.4520724885       -0.0544554396  PROA      12             98.6900000000
       126        13  GLY       N              13.1828322080        0.0018330058       -2.0418133057  PROA      13             98.4400000000
       127        13  GLY       HN             13.0657209490        0.4738770352       -2.9107517123  PROA      13              0.0000000000
       128        13  GLY       CA             14.2812260515       -0.9510020016       -2.0250081483  PROA      13             98.4600000000
       129        13  GLY       HA1            14.6922399752       -0.9986588000       -3.0225492115  PROA      13              0.0000000000
       130        13  GLY       HA2            13.8798300534       -1.9125764880       -1.7411991480  PROA      13              0.0000000000
       131        13  GLY       C              15.3843041730       -0.5715516344       -1.0549859441  PROA      13             98.6600000000
       132        13  GLY       O              15.4346989640        0.5629422641       -0.5765510380  PROA      13             98.6500000000
       133        14  ASP       N              16.1728577001       -1.2743161889       -0.6426725732  PROA      14             98.5500000000
       134        14  ASP       HN             16.0827495278       -2.2331139852       -0.8769520100  PROA      14              0.0000000000
       135        14  ASP       CA             17.3458600721       -1.0549202120        0.1984729794  PROA      14             98.5300000000
       136        14  ASP       HA             17.0369563654       -0.4846655178        1.0619273352  PROA      14              0.0000000000
       137        14  ASP       CB             17.9525161932       -2.3899020221        0.6323426804  PROA      14             98.3700000000
       138        14  ASP       HB1            18.9300118815       -2.1978500270        1.1235568826  PROA      14              0.0000000000
       139        14  ASP       HB2            18.1139789645       -3.0207574893       -0.2674485926  PROA      14              0.0000000000
       140        14  ASP       CG             17.0697290232       -3.1552069425        1.6029776228  PROA      14             97.2800000000
       141        14  ASP       OD1            16.2599503440       -2.5247560075        2.3172605563  PROA      14             96.5600000000
       142        14  ASP       OD2            17.1876035675       -4.3988436737        1.6572295598  PROA      14             95.8200000000
       143        14  ASP       C              18.3936710608       -0.2146200195       -0.5284883116  PROA      14             98.6600000000
       144        14  ASP       O              18.5397288261       -0.3129199619       -1.7481482029  PROA      14             98.6100000000
       145        15  PRO       N              18.9091081590        1.0179851252        0.0996758032  PROA      15             98.3900000000
       146        15  PRO       CD             18.4804656773        1.4006991478        1.3835424629  PROA      15             97.0200000000
       147        15  PRO       HD1            18.8376375627        0.6696346353        2.1388266855  PROA      15              0.0000000000
       148        15  PRO       HD2            17.3725604745        1.4654390397        1.4124585876  PROA      15              0.0000000000
       149        15  PRO       CA             19.9501077900        1.8618300445       -0.4927974202  PROA      15             98.2400000000
       150        15  PRO       HA             19.6014140583        2.2964979360       -1.4158314515  PROA      15              0.0000000000
       151        15  PRO       CB             20.2569940209        2.8727181694        0.6141036776  PROA      15             98.0900000000
       152        15  PRO       HB1            20.3140664455        3.9028981834        0.2023397607  PROA      15              0.0000000000
       153        15  PRO       HB2            21.2201402063        2.6314340013        1.1123094804  PROA      15              0.0000000000
       154        15  PRO       CG             19.1179565883        2.7474150295        1.5731833667  PROA      15             97.1800000000
       155        15  PRO       HG1            19.4894752961        2.8458824981        2.6155709711  PROA      15              0.0000000000
       156        15  PRO       HG2            18.3725526366        3.5484647731        1.3808654854  PROA      15              0.0000000000
       157        15  PRO       C              21.2014000756        1.0740431217       -0.8752217659  PROA      15             98.2800000000
       158        15  PRO       OT1            21.2108106673       -0.1660409834       -0.6522803989  PROA      15              0.0000000000
       159        15  PRO       OT2            22.1612700095        1.7038888903       -1.3943980535  PROA      15              0.0000000000
