Title t= 283.00000 step= 141500
19942
    1ASP      N    1   0.434   2.318   3.131
    1ASP    HT1    2   0.372   2.234   3.137
    1ASP    HT2    3   0.477   2.308   3.036
    1ASP    HT3    4   0.387   2.410   3.136
    1ASP     CA    5   0.527   2.310   3.241
    1ASP     HA    6   0.585   2.401   3.239
    1ASP     CB    7   0.431   2.305   3.366
    1ASP    HB1    8   0.372   2.211   3.367
    1ASP    HB2    9   0.342   2.371   3.358
    1ASP     CG   10   0.499   2.338   3.496
    1ASP    OD1   11   0.434   2.344   3.603
    1ASP    OD2   12   0.620   2.378   3.493
    1ASP      C   13   0.628   2.192   3.226
    1ASP      O   14   0.721   2.200   3.142
    2ALA      N   15   0.622   2.086   3.306
    2ALA     HN   16   0.547   2.077   3.371
    2ALA     CA   17   0.706   1.973   3.278
    2ALA     HA   18   0.808   2.005   3.264
    2ALA     CB   19   0.704   1.886   3.401
    2ALA    HB1   20   0.723   1.951   3.488
    2ALA    HB2   21   0.773   1.799   3.395
    2ALA    HB3   22   0.603   1.845   3.422
    2ALA      C   23   0.689   1.881   3.151
    2ALA      O   24   0.590   1.882   3.091
    3ASP      N   25   0.800   1.815   3.107
    3ASP     HN   26   0.888   1.824   3.153
    3ASP     CA   27   0.814   1.726   2.992
    3ASP     HA   28   0.743   1.768   2.922
    3ASP     CB   29   0.964   1.735   2.933
    3ASP    HB1   30   0.988   1.644   2.874
    3ASP    HB2   31   1.036   1.739   3.017
    3ASP     CG   32   0.985   1.851   2.838
    3ASP    OD1   33   1.098   1.865   2.781
    3ASP    OD2   34   0.899   1.937   2.807
    3ASP      C   35   0.767   1.593   3.030
    3ASP      O   36   0.807   1.527   3.126
    4GLY      N   37   0.687   1.538   2.940
    4GLY     HN   38   0.675   1.584   2.853
    4GLY     CA   39   0.646   1.391   2.945
    4GLY    HA1   40   0.548   1.384   2.900
    4GLY    HA2   41   0.644   1.359   3.048
    4GLY      C   42   0.746   1.308   2.880
    4GLY      O   43   0.859   1.352   2.864
    5PRO      N   44   0.709   1.183   2.836
    5PRO     CD   45   0.585   1.114   2.887
    5PRO    HD1   46   0.502   1.157   2.827
    5PRO    HD2   47   0.558   1.144   2.991
    5PRO     CA   48   0.790   1.087   2.761
    5PRO     HA   49   0.874   1.068   2.826
    5PRO     CB   50   0.690   0.966   2.747
    5PRO    HB1   51   0.737   0.869   2.724
    5PRO    HB2   52   0.613   0.989   2.670
    5PRO     CG   53   0.604   0.965   2.873
    5PRO    HG1   54   0.516   0.897   2.872
    5PRO    HG2   55   0.671   0.928   2.954
    5PRO      C   56   0.841   1.139   2.631
    5PRO      O   57   0.805   1.247   2.587
    6GLY      N   58   0.932   1.059   2.559
    6GLY     HN   59   0.951   0.966   2.589
    6GLY     CA   60   0.991   1.103   2.424
    6GLY    HA1   61   1.092   1.068   2.413
    6GLY    HA2   62   0.980   1.210   2.411
    6GLY      C   63   0.917   1.040   2.308
    6GLY      O   64   0.799   0.993   2.316
    7ASP      N   65   0.976   1.036   2.188
    7ASP     HN   66   1.059   1.089   2.172
    7ASP     CA   67   0.923   0.986   2.067
    7ASP     HA   68   0.816   1.003   2.064
    7ASP     CB   69   1.001   1.042   1.952
    7ASP    HB1   70   0.981   0.992   1.854
    7ASP    HB2   71   1.110   1.024   1.966
    7ASP     CG   72   0.977   1.186   1.921
    7ASP    OD1   73   0.870   1.244   1.948
    7ASP    OD2   74   1.078   1.243   1.870
    7ASP      C   75   0.941   0.836   2.068
    7ASP      O   76   1.052   0.786   2.094
    8PRO      N   77   0.841   0.751   2.042
    8PRO     CD   78   0.707   0.783   1.995
    8PRO    HD1   79   0.726   0.846   1.906
    8PRO    HD2   80   0.650   0.840   2.072
    8PRO     CA   81   0.858   0.608   2.065
    8PRO     HA   82   0.912   0.590   2.157
    8PRO     CB   83   0.715   0.552   2.068
    8PRO    HB1   84   0.670   0.561   2.169
    8PRO    HB2   85   0.696   0.448   2.036
    8PRO     CG   86   0.639   0.651   1.976
    8PRO    HG1   87   0.643   0.618   1.870
    8PRO    HG2   88   0.538   0.655   2.022
    8PRO      C   89   0.933   0.546   1.949
    8PRO      O   90   0.966   0.425   1.958
    9ASP      N   91   0.956   0.610   1.833
    9ASP     HN   92   0.911   0.699   1.823
    9ASP     CA   93   1.016   0.548   1.723
    9ASP     HA   94   1.016   0.440   1.732
    9ASP     CB   95   0.970   0.603   1.585
    9ASP    HB1   96   1.023   0.551   1.502
    9ASP    HB2   97   0.978   0.714   1.579
    9ASP     CG   98   0.827   0.552   1.567
    9ASP    OD1   99   0.746   0.640   1.526
    9ASP    OD2  100   0.789   0.434   1.593
    9ASP      C  101   1.165   0.574   1.725
    9ASP      O  102   1.235   0.541   1.630
   10ALA      N  103   1.218   0.615   1.844
   10ALA     HN  104   1.157   0.647   1.916
   10ALA     CA  105   1.353   0.635   1.891
   10ALA     HA  106   1.391   0.710   1.824
   10ALA     CB  107   1.348   0.677   2.036
   10ALA    HB1  108   1.444   0.705   2.084
   10ALA    HB2  109   1.299   0.604   2.104
   10ALA    HB3  110   1.289   0.771   2.046
   10ALA      C  111   1.432   0.506   1.888
   10ALA      O  112   1.397   0.407   1.955
   11GLY      N  113   1.550   0.495   1.812
   11GLY     HN  114   1.579   0.563   1.744
   11GLY     CA  115   1.638   0.380   1.831
   11GLY    HA1  116   1.582   0.289   1.812
   11GLY    HA2  117   1.688   0.383   1.927
   11GLY      C  118   1.745   0.372   1.726
   11GLY    OT1  119   1.808   0.480   1.708
   11GLY    OT2  120   1.774   0.271   1.659
   12LIT    LIT  121   2.341   1.508   0.201
   13LIT    LIT  122   1.291   2.763   1.120
   14LIT    LIT  123   2.481   0.742   3.993
   15LIT    LIT  124   1.509   2.514   0.057
   16LIT    LIT  125   3.718   5.991   3.384
   17LIT    LIT  126   2.181   4.821   3.446
   18LIT    LIT  127   0.140   5.395   2.034
   19LIT    LIT  128   4.912   5.896   1.010
   20LIT    LIT  129   2.490   2.115   5.051
   21LIT    LIT  130   1.795   5.505   2.522
   22LIT    LIT  131   3.934   3.351   0.638
   23LIT    LIT  132   2.399   2.493   2.344
   24LIT    LIT  133   1.797   5.028   4.709
   25LIT    LIT  134   4.355   0.621   1.067
   26LIT    LIT  135   3.081   1.347   5.047
   27LIT    LIT  136   1.555   0.511   2.516
   28LIT    LIT  137   0.507   2.460   3.740
   29LIT    LIT  138   2.761   3.936   4.189
   30LIT    LIT  139   1.735   2.194   1.910
   31LIT    LIT  140   4.008   0.667   3.908
   32LIT    LIT  141   2.987   4.599   2.201
   33LIT    LIT  142   5.721   1.290   3.171
   34CLA    CLA  143   5.494   2.648   2.027
   35CLA    CLA  144   5.716   0.924   4.157
   36CLA    CLA  145   3.291   0.345   4.042
   37CLA    CLA  146   2.064   0.578   3.777
   38CLA    CLA  147   1.945   2.569   5.073
   39CLA    CLA  148   1.635   1.977   0.599
   40CLA    CLA  149   3.661   3.383   0.126
   41CLA    CLA  150   1.284   4.038   1.118
   42CLA    CLA  151   3.411   3.551   0.857
   43CLA    CLA  152   3.360   2.396   2.369
   44CLA    CLA  153   4.292   3.919   4.636
   45CLA    CLA  154   1.099   4.400   1.845
   46CLA    CLA  155   2.914   5.637   3.898
   47CLA    CLA  156   3.186   1.300   4.842
   48CLA    CLA  157   2.823   3.953   4.877
   49CLA    CLA  158   5.645   5.623   1.308
   50CLA    CLA  159   3.003   2.229   3.216
   51CLA    CLA  160   0.498   5.911   0.511
   52TIP3   OH2  161   5.902   1.018   2.377
   52TIP3    H1  162   5.917   1.044   2.286
   52TIP3    H2  163   5.966   0.949   2.394
   53TIP3   OH2  164   4.559   5.320   1.897
   53TIP3    H1  165   4.465   5.326   1.913
   53TIP3    H2  166   4.599   5.354   1.978
   54TIP3   OH2  167   6.161   1.876   3.712
   54TIP3    H1  168   6.104   1.952   3.700
   54TIP3    H2  169   6.206   1.866   3.628
   55TIP3   OH2  170   2.712   4.380   1.879
   55TIP3    H1  171   2.750   4.374   1.966
   55TIP3    H2  172   2.755   4.456   1.839
   56TIP3   OH2  173   3.879   1.118   1.150
   56TIP3    H1  174   3.796   1.118   1.102
   56TIP3    H2  175   3.858   1.158   1.234
   57TIP3   OH2  176   5.991   3.943   0.323
   57TIP3    H1  177   6.034   3.865   0.288
   57TIP3    H2  178   6.031   3.955   0.409
   58TIP3   OH2  179   5.834   3.928   2.077
   58TIP3    H1  180   5.923   3.941   2.110
   58TIP3    H2  181   5.826   3.990   2.004
   59TIP3   OH2  182   0.958   5.558   0.271
   59TIP3    H1  183   0.881   5.607   0.302
   59TIP3    H2  184   0.973   5.592   0.183
   60TIP3   OH2  185   2.647   0.835   2.160
   60TIP3    H1  186   2.609   0.918   2.132
   60TIP3    H2  187   2.668   0.789   2.079
   61TIP3   OH2  188   5.227   2.631   0.953
   61TIP3    H1  189   5.148   2.602   0.999
   61TIP3    H2  190   5.231   2.575   0.875
   62TIP3   OH2  191   4.050   3.239   3.700
   62TIP3    H1  192   4.044   3.218   3.607
   62TIP3    H2  193   4.019   3.330   3.706
   63TIP3   OH2  194   5.624   3.720   0.752
   63TIP3    H1  195   5.546   3.667   0.770
   63TIP3    H2  196   5.590   3.798   0.709
   64TIP3   OH2  197   3.843   4.537   3.087
   64TIP3    H1  198   3.808   4.559   3.173
   64TIP3    H2  199   3.804   4.453   3.065
   65TIP3   OH2  200   4.387   3.405   4.416
   65TIP3    H1  201   4.369   3.416   4.322
   65TIP3    H2  202   4.308   3.435   4.459
   66TIP3   OH2  203   3.599   1.192   3.243
   66TIP3    H1  204   3.661   1.249   3.198
   66TIP3    H2  205   3.578   1.239   3.324
   67TIP3   OH2  206   1.400   4.625   0.260
   67TIP3    H1  207   1.337   4.681   0.214
   67TIP3    H2  208   1.347   4.575   0.321
   68TIP3   OH2  209   2.725   1.910   0.911
   68TIP3    H1  210   2.787   1.838   0.902
   68TIP3    H2  211   2.674   1.909   0.830
   69TIP3   OH2  212   1.929   5.696   4.881
   69TIP3    H1  213   1.925   5.767   4.945
   69TIP3    H2  214   1.875   5.627   4.917
   70TIP3   OH2  215   3.608   5.162   2.088
   70TIP3    H1  216   3.670   5.095   2.057
   70TIP3    H2  217   3.535   5.112   2.124
   71TIP3   OH2  218   5.106   4.356   2.492
   71TIP3    H1  219   5.012   4.341   2.480
   71TIP3    H2  220   5.128   4.417   2.421
   72TIP3   OH2  221   1.333   5.952   4.906
   72TIP3    H1  222   1.416   5.948   4.859
   72TIP3    H2  223   1.352   6.003   4.984
   73TIP3   OH2  224   0.617   4.651   2.231
   73TIP3    H1  225   0.650   4.696   2.153
   73TIP3    H2  226   0.614   4.559   2.205
   74TIP3   OH2  227   4.005   1.954   3.596
   74TIP3    H1  228   3.980   1.905   3.675
   74TIP3    H2  229   4.094   1.985   3.614
   75TIP3   OH2  230   4.163   5.132   3.015
   75TIP3    H1  231   4.194   5.184   3.089
   75TIP3    H2  232   4.223   5.058   3.011
   76TIP3   OH2  233   0.716   0.339   0.416
   76TIP3    H1  234   0.745   0.358   0.328
   76TIP3    H2  235   0.796   0.330   0.467
   77TIP3   OH2  236   0.063   0.805   3.713
   77TIP3    H1  237   0.130   0.851   3.664
   77TIP3    H2  238   0.045   0.726   3.661
   78TIP3   OH2  239   5.706   1.399   1.421
   78TIP3    H1  240   5.765   1.402   1.496
   78TIP3    H2  241   5.711   1.308   1.390
   79TIP3   OH2  242   5.385   1.055   2.379
   79TIP3    H1  243   5.404   1.012   2.462
   79TIP3    H2  244   5.341   1.136   2.404
   80TIP3   OH2  245   3.745   0.949   4.163
   80TIP3    H1  246   3.776   0.930   4.251
   80TIP3    H2  247   3.691   1.027   4.173
   81TIP3   OH2  248   1.384   3.271   3.782
   81TIP3    H1  249   1.402   3.365   3.772
   81TIP3    H2  250   1.289   3.264   3.774
   82TIP3   OH2  251   2.063   0.857   2.731
   82TIP3    H1  252   2.146   0.859   2.780
   82TIP3    H2  253   2.089   0.833   2.642
   83TIP3   OH2  254   6.123   2.484   3.548
   83TIP3    H1  255   6.121   2.578   3.533
   83TIP3    H2  256   6.216   2.461   3.542
   84TIP3   OH2  257   0.278   5.643   4.547
   84TIP3    H1  258   0.349   5.682   4.599
   84TIP3    H2  259   0.249   5.567   4.599
   85TIP3   OH2  260   6.268   0.678   0.149
   85TIP3    H1  261   6.194   0.655   0.205
   85TIP3    H2  262   6.254   0.627   0.069
   86TIP3   OH2  263   5.481   1.112   1.371
   86TIP3    H1  264   5.485   1.020   1.345
   86TIP3    H2  265   5.563   1.150   1.339
   87TIP3   OH2  266   3.935   4.386   1.572
   87TIP3    H1  267   3.991   4.460   1.592
   87TIP3    H2  268   3.846   4.421   1.578
   88TIP3   OH2  269   4.786   1.823   1.916
   88TIP3    H1  270   4.776   1.807   2.010
   88TIP3    H2  271   4.753   1.744   1.874
   89TIP3   OH2  272   0.342   3.405   4.068
   89TIP3    H1  273   0.399   3.339   4.107
   89TIP3    H2  274   0.320   3.463   4.142
   90TIP3   OH2  275   4.093   4.570   2.249
   90TIP3    H1  276   4.045   4.595   2.329
   90TIP3    H2  277   4.034   4.594   2.178
   91TIP3   OH2  278   3.879   5.818   4.701
   91TIP3    H1  279   3.860   5.870   4.779
   91TIP3    H2  280   3.797   5.773   4.681
   92TIP3   OH2  281   5.421   1.450   1.092
   92TIP3    H1  282   5.377   1.489   1.017
   92TIP3    H2  283   5.355   1.451   1.162
   93TIP3   OH2  284   3.437   4.241   2.215
   93TIP3    H1  285   3.428   4.167   2.156
   93TIP3    H2  286   3.508   4.216   2.275
   94TIP3   OH2  287   5.553   0.126   3.479
   94TIP3    H1  288   5.551   0.113   3.574
   94TIP3    H2  289   5.602   0.207   3.467
   95TIP3   OH2  290   1.546   5.628   3.145
   95TIP3    H1  291   1.490   5.599   3.074
   95TIP3    H2  292   1.630   5.648   3.103
   96TIP3   OH2  293   1.034   4.262   0.417
   96TIP3    H1  294   1.123   4.291   0.435
   96TIP3    H2  295   0.978   4.328   0.458
   97TIP3   OH2  296   5.375   3.791   4.804
   97TIP3    H1  297   5.339   3.715   4.849
   97TIP3    H2  298   5.310   3.812   4.736
   98TIP3   OH2  299   3.469   1.330   4.942
   98TIP3    H1  300   3.388   1.351   4.896
   98TIP3    H2  301   3.440   1.286   5.022
   99TIP3   OH2  302   2.636   1.868   3.779
   99TIP3    H1  303   2.547   1.862   3.744
   99TIP3    H2  304   2.638   1.950   3.827
  100TIP3   OH2  305   4.885   1.645   3.912
  100TIP3    H1  306   4.866   1.593   3.833
  100TIP3    H2  307   4.971   1.682   3.895
  101TIP3   OH2  308   5.223   3.541   3.013
  101TIP3    H1  309   5.177   3.600   2.954
  101TIP3    H2  310   5.311   3.534   2.977
  102TIP3   OH2  311   5.169   2.801   4.216
  102TIP3    H1  312   5.206   2.873   4.166
  102TIP3    H2  313   5.105   2.761   4.156
  103TIP3   OH2  314   3.788   1.417   2.389
  103TIP3    H1  315   3.805   1.502   2.348
  103TIP3    H2  316   3.853   1.358   2.352
  104TIP3   OH2  317   4.959   2.098   2.048
  104TIP3    H1  318   4.879   2.151   2.045
  104TIP3    H2  319   4.934   2.020   2.098
  105TIP3   OH2  320   1.876   3.021   0.152
  105TIP3    H1  321   1.848   3.109   0.177
  105TIP3    H2  322   1.946   2.999   0.214
  106TIP3   OH2  323   6.260   3.408   1.632
  106TIP3    H1  324   6.265   3.460   1.712
  106TIP3    H2  325   6.339   3.354   1.634
  107TIP3   OH2  326   1.413   4.617   5.038
  107TIP3    H1  327   1.320   4.628   5.055
  107TIP3    H2  328   1.422   4.524   5.014
  108TIP3   OH2  329   6.348   3.656   3.617
  108TIP3    H1  330   6.312   3.628   3.701
  108TIP3    H2  331   6.326   3.585   3.556
  109TIP3   OH2  332   0.224   1.895   0.894
  109TIP3    H1  333   0.188   1.812   0.863
  109TIP3    H2  334   0.288   1.870   0.961
  110TIP3   OH2  335   1.837   0.745   0.159
  110TIP3    H1  336   1.877   0.690   0.227
  110TIP3    H2  337   1.835   0.690   0.081
  111TIP3   OH2  338   0.879   3.848   0.760
  111TIP3    H1  339   0.950   3.903   0.791
  111TIP3    H2  340   0.917   3.799   0.687
  112TIP3   OH2  341   0.430   1.592   2.469
  112TIP3    H1  342   0.480   1.656   2.418
  112TIP3    H2  343   0.343   1.631   2.478
  113TIP3   OH2  344   5.733   3.433   0.553
  113TIP3    H1  345   5.674   3.491   0.602
  113TIP3    H2  346   5.787   3.493   0.501
  114TIP3   OH2  347   1.763   2.802   1.857
  114TIP3    H1  348   1.811   2.879   1.826
  114TIP3    H2  349   1.797   2.729   1.805
  115TIP3   OH2  350   0.357   1.060   4.306
  115TIP3    H1  351   0.410   1.136   4.326
  115TIP3    H2  352   0.404   0.987   4.346
  116TIP3   OH2  353   2.946   1.779   1.478
  116TIP3    H1  354   2.964   1.867   1.512
  116TIP3    H2  355   2.993   1.776   1.394
  117TIP3   OH2  356   2.532   3.796   2.807
  117TIP3    H1  357   2.508   3.770   2.718
  117TIP3    H2  358   2.520   3.891   2.809
  118TIP3   OH2  359   2.655   4.001   3.072
  118TIP3    H1  360   2.660   3.946   2.994
  118TIP3    H2  361   2.568   3.984   3.108
  119TIP3   OH2  362   4.102   4.648   2.739
  119TIP3    H1  363   4.131   4.717   2.679
  119TIP3    H2  364   4.029   4.687   2.787
  120TIP3   OH2  365   5.945   2.055   1.793
  120TIP3    H1  366   5.861   2.081   1.830
  120TIP3    H2  367   5.943   1.959   1.795
  121TIP3   OH2  368   0.909   5.554   0.828
  121TIP3    H1  369   1.003   5.555   0.845
  121TIP3    H2  370   0.900   5.513   0.742
  122TIP3   OH2  371   5.714   5.586   2.946
  122TIP3    H1  372   5.789   5.526   2.954
  122TIP3    H2  373   5.730   5.653   3.014
  123TIP3   OH2  374   1.361   5.254   0.718
  123TIP3    H1  375   1.374   5.264   0.812
  123TIP3    H2  376   1.345   5.160   0.705
  124TIP3   OH2  377   2.323   5.865   0.558
  124TIP3    H1  378   2.363   5.890   0.641
  124TIP3    H2  379   2.283   5.779   0.575
  125TIP3   OH2  380   3.580   3.483   0.422
  125TIP3    H1  381   3.642   3.428   0.376
  125TIP3    H2  382   3.548   3.429   0.495
  126TIP3   OH2  383   1.996   3.893   1.393
  126TIP3    H1  384   1.913   3.926   1.358
  126TIP3    H2  385   1.995   3.916   1.486
  127TIP3   OH2  386   1.324   3.435   4.269
  127TIP3    H1  387   1.360   3.523   4.279
  127TIP3    H2  388   1.401   3.379   4.256
  128TIP3   OH2  389   5.450   4.122   0.127
  128TIP3    H1  390   5.430   4.100   0.217
  128TIP3    H2  391   5.368   4.107   0.080
  129TIP3   OH2  392   6.153   1.432   3.394
  129TIP3    H1  393   6.122   1.457   3.481
  129TIP3    H2  394   6.245   1.407   3.408
  130TIP3   OH2  395   0.902   4.241   4.130
  130TIP3    H1  396   0.910   4.157   4.174
  130TIP3    H2  397   0.812   4.269   4.148
  131TIP3   OH2  398   1.914   4.697   1.758
  131TIP3    H1  399   1.869   4.726   1.678
  131TIP3    H2  400   1.981   4.637   1.727
  132TIP3   OH2  401   1.366   5.073   1.016
  132TIP3    H1  402   1.401   5.062   1.105
  132TIP3    H2  403   1.300   5.142   1.025
  133TIP3   OH2  404   4.841   4.609   0.120
  133TIP3    H1  405   4.805   4.522   0.103
  133TIP3    H2  406   4.846   4.614   0.216
  134TIP3   OH2  407   5.430   3.391   0.621
  134TIP3    H1  408   5.376   3.389   0.700
  134TIP3    H2  409   5.473   3.306   0.618
  135TIP3   OH2  410   0.057   2.771   3.287
  135TIP3    H1  411   0.031   2.679   3.283
  135TIP3    H2  412   0.137   2.775   3.236
  136TIP3   OH2  413   5.857   3.246   2.524
  136TIP3    H1  414   5.929   3.227   2.465
  136TIP3    H2  415   5.786   3.278   2.467
  137TIP3   OH2  416   0.096   4.722   5.169
  137TIP3    H1  417   0.060   4.791   5.114
  137TIP3    H2  418   0.125   4.766   5.248
  138TIP3   OH2  419   2.556   1.988   4.164
  138TIP3    H1  420   2.495   2.051   4.124
  138TIP3    H2  421   2.500   1.919   4.198
  139TIP3   OH2  422   0.969   4.374   3.342
  139TIP3    H1  423   0.994   4.373   3.434
  139TIP3    H2  424   0.874   4.366   3.343
  140TIP3   OH2  425   5.767   1.672   0.158
  140TIP3    H1  426   5.683   1.661   0.114
  140TIP3    H2  427   5.788   1.585   0.193
  141TIP3   OH2  428   5.629   3.361   2.728
  141TIP3    H1  429   5.624   3.455   2.749
  141TIP3    H2  430   5.709   3.354   2.675
  142TIP3   OH2  431   3.149   3.401   4.610
  142TIP3    H1  432   3.112   3.411   4.697
  142TIP3    H2  433   3.142   3.307   4.591
  143TIP3   OH2  434   0.206   1.366   2.612
  143TIP3    H1  435   0.172   1.453   2.634
  143TIP3    H2  436   0.238   1.332   2.696
  144TIP3   OH2  437   4.189   3.867   5.082
  144TIP3    H1  438   4.232   3.889   5.164
  144TIP3    H2  439   4.208   3.941   5.024
  145TIP3   OH2  440   2.372  -0.063   2.787
  145TIP3    H1  441   2.360  -0.071   2.693
  145TIP3    H2  442   2.421   0.018   2.799
  146TIP3   OH2  443   1.445   5.824   3.779
  146TIP3    H1  444   1.535   5.820   3.746
  146TIP3    H2  445   1.392   5.790   3.707
  147TIP3   OH2  446   1.480   3.756   0.353
  147TIP3    H1  447   1.546   3.746   0.422
  147TIP3    H2  448   1.500   3.687   0.291
  148TIP3   OH2  449   5.196   3.072   4.102
  148TIP3    H1  450   5.125   3.134   4.121
  148TIP3    H2  451   5.254   3.080   4.178
  149TIP3   OH2  452   0.157   5.757   1.833
  149TIP3    H1  453   0.223   5.736   1.767
  149TIP3    H2  454   0.207   5.777   1.912
  150TIP3   OH2  455   0.424   5.531   2.526
  150TIP3    H1  456   0.449   5.613   2.569
  150TIP3    H2  457   0.481   5.465   2.564
  151TIP3   OH2  458   4.688   2.041   1.801
  151TIP3    H1  459   4.750   2.114   1.800
  151TIP3    H2  460   4.738   1.967   1.835
  152TIP3   OH2  461   2.979   0.316   0.236
  152TIP3    H1  462   2.917   0.244   0.237
  152TIP3    H2  463   2.932   0.389   0.276
  153TIP3   OH2  464   5.790   5.301   3.854
  153TIP3    H1  465   5.773   5.211   3.824
  153TIP3    H2  466   5.834   5.343   3.780
  154TIP3   OH2  467   0.947   2.281   4.868
  154TIP3    H1  468   0.944   2.199   4.820
  154TIP3    H2  469   0.951   2.348   4.800
  155TIP3   OH2  470   1.291   3.242   1.776
  155TIP3    H1  471   1.234   3.177   1.816
  155TIP3    H2  472   1.239   3.322   1.774
  156TIP3   OH2  473   1.847   3.062   0.902
  156TIP3    H1  474   1.897   3.008   0.963
  156TIP3    H2  475   1.871   3.030   0.816
  157TIP3   OH2  476   0.737   3.581   4.183
  157TIP3    H1  477   0.822   3.557   4.144
  157TIP3    H2  478   0.755   3.662   4.231
  158TIP3   OH2  479   3.275   5.709   2.011
  158TIP3    H1  480   3.318   5.794   2.008
  158TIP3    H2  481   3.329   5.656   2.069
  159TIP3   OH2  482   1.987   5.112   0.422
  159TIP3    H1  483   1.894   5.095   0.407
  159TIP3    H2  484   2.026   5.113   0.334
  160TIP3   OH2  485   1.009   3.714   0.564
  160TIP3    H1  486   0.974   3.625   0.565
  160TIP3    H2  487   1.088   3.708   0.511
  161TIP3   OH2  488   3.556   5.101   1.293
  161TIP3    H1  489   3.603   5.153   1.359
  161TIP3    H2  490   3.483   5.157   1.267
  162TIP3   OH2  491   5.725   5.727   0.668
  162TIP3    H1  492   5.799   5.777   0.704
  162TIP3    H2  493   5.723   5.751   0.576
  163TIP3   OH2  494   5.234   0.018   4.432
  163TIP3    H1  495   5.186   0.001   4.351
  163TIP3    H2  496   5.171   0.064   4.488
  164TIP3   OH2  497   4.157   0.452   3.578
  164TIP3    H1  498   4.234   0.500   3.545
  164TIP3    H2  499   4.135   0.391   3.507
  165TIP3   OH2  500   3.793   2.825   2.717
  165TIP3    H1  501   3.824   2.876   2.791
  165TIP3    H2  502   3.700   2.810   2.736
  166TIP3   OH2  503   2.137   5.381   1.303
  166TIP3    H1  504   2.213   5.338   1.343
  166TIP3    H2  505   2.126   5.336   1.219
  167TIP3   OH2  506   4.743   1.602   1.719
  167TIP3    H1  507   4.821   1.548   1.705
  167TIP3    H2  508   4.708   1.616   1.631
  168TIP3   OH2  509   5.481   1.278   0.733
  168TIP3    H1  510   5.512   1.341   0.668
  168TIP3    H2  511   5.547   1.208   0.731
  169TIP3   OH2  512   4.844   0.292   4.237
  169TIP3    H1  513   4.805   0.269   4.152
  169TIP3    H2  514   4.932   0.323   4.215
  170TIP3   OH2  515   4.706   0.737   3.890
  170TIP3    H1  516   4.758   0.689   3.955
  170TIP3    H2  517   4.717   0.829   3.915
  171TIP3   OH2  518   3.104   4.548   1.179
  171TIP3    H1  519   3.132   4.472   1.129
  171TIP3    H2  520   3.010   4.553   1.165
  172TIP3   OH2  521   4.102   2.563   1.132
  172TIP3    H1  522   4.057   2.604   1.058
  172TIP3    H2  523   4.052   2.590   1.209
  173TIP3   OH2  524   1.963   3.508   2.836
  173TIP3    H1  525   1.999   3.590   2.802
  173TIP3    H2  526   1.915   3.534   2.914
  174TIP3   OH2  527   5.134   0.994   4.221
  174TIP3    H1  528   5.222   1.025   4.244
  174TIP3    H2  529   5.088   0.992   4.305
  175TIP3   OH2  530   2.531   3.336   1.044
  175TIP3    H1  531   2.468   3.379   0.987
  175TIP3    H2  532   2.544   3.399   1.116
  176TIP3   OH2  533   2.061   1.115   2.921
  176TIP3    H1  534   2.104   1.151   2.844
  176TIP3    H2  535   2.006   1.045   2.887
  177TIP3   OH2  536   5.699   0.944   4.787
  177TIP3    H1  537   5.627   0.971   4.730
  177TIP3    H2  538   5.656   0.899   4.860
  178TIP3   OH2  539   5.250   1.181   2.081
  178TIP3    H1  540   5.308   1.210   2.152
  178TIP3    H2  541   5.194   1.114   2.121
  179TIP3   OH2  542   2.351   3.571   0.914
  179TIP3    H1  543   2.378   3.624   0.989
  179TIP3    H2  544   2.266   3.535   0.940
  180TIP3   OH2  545   6.078   4.033   0.560
  180TIP3    H1  546   6.106   4.055   0.648
  180TIP3    H2  547   6.116   4.102   0.505
  181TIP3   OH2  548   1.150   5.821   0.274
  181TIP3    H1  549   1.232   5.856   0.308
  181TIP3    H2  550   1.083   5.850   0.337
  182TIP3   OH2  551   1.167   5.939   1.489
  182TIP3    H1  552   1.174   6.032   1.468
  182TIP3    H2  553   1.109   5.904   1.421
  183TIP3   OH2  554   0.543   5.231   4.639
  183TIP3    H1  555   0.485   5.166   4.601
  183TIP3    H2  556   0.593   5.266   4.565
  184TIP3   OH2  557   1.352   1.605   1.286
  184TIP3    H1  558   1.410   1.539   1.248
  184TIP3    H2  559   1.366   1.596   1.380
  185TIP3   OH2  560   2.153   3.815   3.042
  185TIP3    H1  561   2.089   3.743   3.036
  185TIP3    H2  562   2.155   3.852   2.954
  186TIP3   OH2  563   1.760   5.166   2.315
  186TIP3    H1  564   1.767   5.086   2.263
  186TIP3    H2  565   1.689   5.216   2.274
  187TIP3   OH2  566   0.584   2.304   5.015
  187TIP3    H1  567   0.509   2.316   4.956
  187TIP3    H2  568   0.552   2.333   5.100
  188TIP3   OH2  569   2.133   2.175   1.763
  188TIP3    H1  570   2.175   2.159   1.679
  188TIP3    H2  571   2.197   2.224   1.814
  189TIP3   OH2  572   4.552   0.386   1.810
  189TIP3    H1  573   4.482   0.335   1.849
  189TIP3    H2  574   4.528   0.477   1.827
  190TIP3   OH2  575   0.913   1.978   4.892
  190TIP3    H1  576   0.990   1.936   4.931
  190TIP3    H2  577   0.946   2.016   4.811
  191TIP3   OH2  578   3.413   5.580   2.255
  191TIP3    H1  579   3.507   5.599   2.258
  191TIP3    H2  580   3.406   5.490   2.285
  192TIP3   OH2  581   0.723   0.372   4.660
  192TIP3    H1  582   0.731   0.410   4.748
  192TIP3    H2  583   0.758   0.284   4.669
  193TIP3   OH2  584   4.963   2.438   4.425
  193TIP3    H1  585   4.874   2.474   4.426
  193TIP3    H2  586   4.980   2.420   4.332
  194TIP3   OH2  587   1.558   2.919   4.881
  194TIP3    H1  588   1.609   2.857   4.934
  194TIP3    H2  589   1.521   2.865   4.812
  195TIP3   OH2  590   3.564   0.361   0.459
  195TIP3    H1  591   3.623   0.408   0.401
  195TIP3    H2  592   3.622   0.307   0.513
  196TIP3   OH2  593   5.888   0.054   1.571
  196TIP3    H1  594   5.918   0.045   1.480
  196TIP3    H2  595   5.968   0.044   1.623
  197TIP3   OH2  596   4.215   2.477   4.477
  197TIP3    H1  597   4.238   2.550   4.535
  197TIP3    H2  598   4.131   2.445   4.510
  198TIP3   OH2  599   4.366   4.946   3.015
  198TIP3    H1  600   4.427   4.881   2.980
  198TIP3    H2  601   4.398   4.964   3.103
  199TIP3   OH2  602   1.698   0.197   3.979
  199TIP3    H1  603   1.786   0.170   3.952
  199TIP3    H2  604   1.696   0.292   3.965
  200TIP3   OH2  605   5.010   0.197   0.369
  200TIP3    H1  606   5.096   0.239   0.368
  200TIP3    H2  607   5.029   0.103   0.368
  201TIP3   OH2  608   5.544   3.690   3.197
  201TIP3    H1  609   5.451   3.685   3.222
  201TIP3    H2  610   5.583   3.744   3.266
  202TIP3   OH2  611   2.898   3.419   3.499
  202TIP3    H1  612   2.837   3.401   3.428
  202TIP3    H2  613   2.984   3.416   3.458
  203TIP3   OH2  614   4.269   2.821   2.725
  203TIP3    H1  615   4.245   2.749   2.783
  203TIP3    H2  616   4.201   2.887   2.740
  204TIP3   OH2  617   5.146   4.053   0.150
  204TIP3    H1  618   5.191   3.974   0.123
  204TIP3    H2  619   5.106   4.031   0.234
  205TIP3   OH2  620   2.043   1.084   3.735
  205TIP3    H1  621   1.992   1.162   3.713
  205TIP3    H2  622   1.978   1.016   3.752
  206TIP3   OH2  623   2.574   5.906   1.183
  206TIP3    H1  624   2.586   5.960   1.104
  206TIP3    H2  625   2.662   5.874   1.204
  207TIP3   OH2  626   4.863   2.854   5.156
  207TIP3    H1  627   4.885   2.765   5.129
  207TIP3    H2  628   4.944   2.903   5.146
  208TIP3   OH2  629   4.311   2.170   0.143
  208TIP3    H1  630   4.251   2.102   0.174
  208TIP3    H2  631   4.398   2.140   0.170
  209TIP3   OH2  632   5.518   4.473   0.371
  209TIP3    H1  633   5.598   4.439   0.332
  209TIP3    H2  634   5.509   4.425   0.454
  210TIP3   OH2  635   3.446   4.505   0.959
  210TIP3    H1  636   3.413   4.562   1.028
  210TIP3    H2  637   3.376   4.443   0.942
  211TIP3   OH2  638   1.924   3.954   1.661
  211TIP3    H1  639   1.833   3.926   1.658
  211TIP3    H2  640   1.971   3.879   1.698
  212TIP3   OH2  641   3.766   5.739   1.917
  212TIP3    H1  642   3.791   5.660   1.965
  212TIP3    H2  643   3.736   5.800   1.984
  213TIP3   OH2  644   0.369   1.724   3.817
  213TIP3    H1  645   0.457   1.744   3.851
  213TIP3    H2  646   0.354   1.633   3.844
  214TIP3   OH2  647   2.555   3.828   1.852
  214TIP3    H1  648   2.615   3.793   1.786
  214TIP3    H2  649   2.605   3.898   1.895
  215TIP3   OH2  650   3.815   3.757   0.682
  215TIP3    H1  651   3.758   3.758   0.758
  215TIP3    H2  652   3.758   3.777   0.608
  216TIP3   OH2  653   6.275   3.631   5.124
  216TIP3    H1  654   6.180   3.635   5.111
  216TIP3    H2  655   6.288   3.662   5.214
  217TIP3   OH2  656   4.775   1.494   0.141
  217TIP3    H1  657   4.729   1.527   0.219
  217TIP3    H2  658   4.728   1.414   0.118
  218TIP3   OH2  659   4.207   0.384   2.358
  218TIP3    H1  660   4.228   0.452   2.294
  218TIP3    H2  661   4.242   0.417   2.441
  219TIP3   OH2  662   2.712   4.468   0.790
  219TIP3    H1  663   2.653   4.527   0.836
  219TIP3    H2  664   2.654   4.408   0.743
  220TIP3   OH2  665   3.869   1.557   1.977
  220TIP3    H1  666   3.814   1.603   1.914
  220TIP3    H2  667   3.837   1.466   1.975
  221TIP3   OH2  668   6.248   4.613   3.170
  221TIP3    H1  669   6.239   4.566   3.253
  221TIP3    H2  670   6.322   4.673   3.184
  222TIP3   OH2  671   1.583   2.703   3.086
  222TIP3    H1  672   1.496   2.714   3.047
  222TIP3    H2  673   1.624   2.634   3.034
  223TIP3   OH2  674   2.701   5.259   1.432
  223TIP3    H1  675   2.785   5.279   1.474
  223TIP3    H2  676   2.649   5.339   1.443
  224TIP3   OH2  677   3.516   1.788   2.705
  224TIP3    H1  678   3.535   1.698   2.679
  224TIP3    H2  679   3.487   1.830   2.623
  225TIP3   OH2  680   5.766   5.440   3.359
  225TIP3    H1  681   5.854   5.407   3.376
  225TIP3    H2  682   5.708   5.370   3.390
  226TIP3   OH2  683   2.008   1.083   4.255
  226TIP3    H1  684   1.993   1.097   4.348
  226TIP3    H2  685   2.028   1.170   4.220
  227TIP3   OH2  686   4.419   5.346   0.899
  227TIP3    H1  687   4.515   5.347   0.889
  227TIP3    H2  688   4.403   5.399   0.977
  228TIP3   OH2  689   2.899   5.618   0.081
  228TIP3    H1  690   2.923   5.579   0.165
  228TIP3    H2  691   2.964   5.686   0.066
  229TIP3   OH2  692   1.444   1.612   1.797
  229TIP3    H1  693   1.402   1.526   1.798
  229TIP3    H2  694   1.536   1.594   1.819
  230TIP3   OH2  695   5.845   0.419   4.414
  230TIP3    H1  696   5.930   0.383   4.440
  230TIP3    H2  697   5.853   0.513   4.431
  231TIP3   OH2  698   0.053   4.429   2.886
  231TIP3    H1  699   0.126   4.442   2.826
  231TIP3    H2  700   0.029   4.518   2.914
  232TIP3   OH2  701   1.375   1.996   1.489
  232TIP3    H1  702   1.422   1.914   1.502
  232TIP3    H2  703   1.422   2.060   1.542
  233TIP3   OH2  704   4.115   3.012   4.204
  233TIP3    H1  705   4.185   3.042   4.263
  233TIP3    H2  706   4.087   3.091   4.158
  234TIP3   OH2  707   5.075   5.424   3.899
  234TIP3    H1  708   5.100   5.430   3.991
  234TIP3    H2  709   5.158   5.418   3.852
  235TIP3   OH2  710   3.065   4.605   0.648
  235TIP3    H1  711   3.021   4.620   0.732
  235TIP3    H2  712   3.115   4.524   0.662
  236TIP3   OH2  713   0.404   5.782   3.892
  236TIP3    H1  714   0.496   5.760   3.906
  236TIP3    H2  715   0.366   5.703   3.853
  237TIP3   OH2  716   2.504   3.040   1.801
  237TIP3    H1  717   2.457   3.013   1.722
  237TIP3    H2  718   2.480   2.973   1.866
  238TIP3   OH2  719   2.880   0.455   2.894
  238TIP3    H1  720   2.837   0.537   2.920
  238TIP3    H2  721   2.973   0.475   2.895
  239TIP3   OH2  722   3.983   4.317   2.766
  239TIP3    H1  723   4.073   4.331   2.734
  239TIP3    H2  724   3.934   4.391   2.731
  240TIP3   OH2  725   0.647   5.438   2.095
  240TIP3    H1  726   0.630   5.466   2.005
  240TIP3    H2  727   0.692   5.512   2.136
  241TIP3   OH2  728   5.600   0.631   1.064
  241TIP3    H1  729   5.540   0.601   0.996
  241TIP3    H2  730   5.687   0.616   1.028
  242TIP3   OH2  731   4.209   5.271   1.438
  242TIP3    H1  732   4.171   5.237   1.357
  242TIP3    H2  733   4.190   5.365   1.436
  243TIP3   OH2  734   0.673   0.063   3.764
  243TIP3    H1  735   0.655   0.070   3.670
  243TIP3    H2  736   0.760   0.024   3.769
  244TIP3   OH2  737   5.005   1.292   1.446
  244TIP3    H1  738   4.952   1.215   1.429
  244TIP3    H2  739   4.977   1.322   1.533
  245TIP3   OH2  740   0.353   0.886   0.110
  245TIP3    H1  741   0.419   0.917   0.172
  245TIP3    H2  742   0.400   0.825   0.053
  246TIP3   OH2  743   0.518   3.587   4.400
  246TIP3    H1  744   0.581   3.555   4.464
  246TIP3    H2  745   0.543   3.545   4.318
  247TIP3   OH2  746   3.948   3.472   3.662
  247TIP3    H1  747   3.852   3.474   3.665
  247TIP3    H2  748   3.970   3.526   3.586
  248TIP3   OH2  749   4.070   3.180   4.491
  248TIP3    H1  750   4.109   3.264   4.464
  248TIP3    H2  751   3.976   3.199   4.496
  249TIP3   OH2  752   0.695   1.361   1.789
  249TIP3    H1  753   0.616   1.312   1.766
  249TIP3    H2  754   0.745   1.301   1.845
  250TIP3   OH2  755   6.305   3.805   1.845
  250TIP3    H1  756   6.359   3.883   1.859
  250TIP3    H2  757   6.294   3.769   1.933
  251TIP3   OH2  758   3.554   1.405   0.359
  251TIP3    H1  759   3.512   1.320   0.345
  251TIP3    H2  760   3.541   1.423   0.451
  252TIP3   OH2  761   4.961   2.218   2.789
  252TIP3    H1  762   4.883   2.255   2.830
  252TIP3    H2  763   4.965   2.259   2.703
  253TIP3   OH2  764   2.606   3.929   0.540
  253TIP3    H1  765   2.583   3.847   0.497
  253TIP3    H2  766   2.522   3.970   0.561
  254TIP3   OH2  767   2.093   4.126   1.959
  254TIP3    H1  768   2.163   4.113   1.894
  254TIP3    H2  769   2.081   4.221   1.962
  255TIP3   OH2  770   3.595   1.209   3.832
  255TIP3    H1  771   3.675   1.235   3.877
  255TIP3    H2  772   3.623   1.187   3.743
  256TIP3   OH2  773   6.045   5.827   0.584
  256TIP3    H1  774   6.034   5.733   0.599
  256TIP3    H2  775   6.029   5.838   0.490
  257TIP3   OH2  776   1.190   5.898   3.818
  257TIP3    H1  777   1.267   5.843   3.832
  257TIP3    H2  778   1.223   5.973   3.769
  258TIP3   OH2  779   3.721   1.678   4.516
  258TIP3    H1  780   3.634   1.638   4.518
  258TIP3    H2  781   3.722   1.730   4.435
  259TIP3   OH2  782   1.698   2.750   2.703
  259TIP3    H1  783   1.683   2.836   2.662
  259TIP3    H2  784   1.611   2.720   2.729
  260TIP3   OH2  785   2.984   4.576   1.489
  260TIP3    H1  786   3.021   4.553   1.404
  260TIP3    H2  787   2.939   4.659   1.474
  261TIP3   OH2  788   3.619   4.047   3.044
  261TIP3    H1  789   3.566   3.979   3.084
  261TIP3    H2  790   3.577   4.129   3.070
  262TIP3   OH2  791   0.734   3.651   2.530
  262TIP3    H1  792   0.717   3.594   2.456
  262TIP3    H2  793   0.764   3.593   2.600
  263TIP3   OH2  794   2.790   2.529   2.280
  263TIP3    H1  795   2.755   2.603   2.330
  263TIP3    H2  796   2.885   2.546   2.276
  264TIP3   OH2  797   5.472   5.777   2.957
  264TIP3    H1  798   5.425   5.823   2.887
  264TIP3    H2  799   5.554   5.749   2.916
  265TIP3   OH2  800   0.393   4.456   0.691
  265TIP3    H1  801   0.393   4.551   0.703
  265TIP3    H2  802   0.312   4.438   0.644
  266TIP3   OH2  803   1.538   2.629   4.252
  266TIP3    H1  804   1.457   2.586   4.227
  266TIP3    H2  805   1.533   2.716   4.213
  267TIP3   OH2  806   3.061   5.932   0.379
  267TIP3    H1  807   3.113   5.989   0.435
  267TIP3    H2  808   3.078   5.844   0.412
  268TIP3   OH2  809   1.180   0.256  -0.015
  268TIP3    H1  810   1.125   0.321   0.029
  268TIP3    H2  811   1.228   0.306  -0.081
  269TIP3   OH2  812   1.936   3.632   3.069
  269TIP3    H1  813   1.924   3.574   3.143
  269TIP3    H2  814   1.873   3.702   3.082
  270TIP3   OH2  815   4.767   1.745   2.188
  270TIP3    H1  816   4.718   1.785   2.260
  270TIP3    H2  817   4.729   1.658   2.178
  271TIP3   OH2  818   3.416   5.496   3.249
  271TIP3    H1  819   3.429   5.570   3.309
  271TIP3    H2  820   3.505   5.466   3.230
  272TIP3   OH2  821   4.915   3.297   1.927
  272TIP3    H1  822   4.964   3.217   1.911
  272TIP3    H2  823   4.979   3.368   1.921
  273TIP3   OH2  824   4.809   2.826   1.047
  273TIP3    H1  825   4.766   2.838   1.132
  273TIP3    H2  826   4.738   2.803   0.987
  274TIP3   OH2  827   6.279   5.291   0.798
  274TIP3    H1  828   6.200   5.286   0.851
  274TIP3    H2  829   6.248   5.324   0.713
  275TIP3   OH2  830   4.968   4.986   2.799
  275TIP3    H1  831   5.047   5.029   2.768
  275TIP3    H2  832   4.984   4.892   2.785
  276TIP3   OH2  833   4.468   3.940   2.402
  276TIP3    H1  834   4.448   3.998   2.475
  276TIP3    H2  835   4.553   3.970   2.370
  277TIP3   OH2  836   4.400   4.046   0.536
  277TIP3    H1  837   4.455   4.122   0.558
  277TIP3    H2  838   4.387   4.002   0.620
  278TIP3   OH2  839   6.156   3.686   0.576
  278TIP3    H1  840   6.178   3.626   0.647
  278TIP3    H2  841   6.226   3.674   0.512
  279TIP3   OH2  842   5.293   4.234   0.888
  279TIP3    H1  843   5.320   4.312   0.937
  279TIP3    H2  844   5.327   4.161   0.939
  280TIP3   OH2  845   5.111   0.630   1.654
  280TIP3    H1  846   5.130   0.538   1.670
  280TIP3    H2  847   5.091   0.666   1.740
  281TIP3   OH2  848   1.630   5.257   5.076
  281TIP3    H1  849   1.635   5.164   5.094
  281TIP3    H2  850   1.598   5.263   4.986
  282TIP3   OH2  851   1.517   1.153   5.133
  282TIP3    H1  852   1.519   1.104   5.051
  282TIP3    H2  853   1.499   1.088   5.200
  283TIP3   OH2  854   3.722   4.790   2.621
  283TIP3    H1  855   3.677   4.768   2.703
  283TIP3    H2  856   3.654   4.783   2.554
  284TIP3   OH2  857   0.592   0.794   3.199
  284TIP3    H1  858   0.604   0.882   3.235
  284TIP3    H2  859   0.597   0.736   3.275
  285TIP3   OH2  860   4.145   0.736   4.542
  285TIP3    H1  861   4.150   0.668   4.475
  285TIP3    H2  862   4.231   0.736   4.584
  286TIP3   OH2  863   0.504   5.732   2.298
  286TIP3    H1  864   0.600   5.721   2.301
  286TIP3    H2  865   0.470   5.654   2.340
  287TIP3   OH2  866   3.622   0.544   0.717
  287TIP3    H1  867   3.567   0.467   0.724
  287TIP3    H2  868   3.711   0.510   0.709
  288TIP3   OH2  869   4.474   3.242   4.120
  288TIP3    H1  870   4.398   3.265   4.172
  288TIP3    H2  871   4.463   3.149   4.100
  289TIP3   OH2  872   0.999   1.795   2.204
  289TIP3    H1  873   0.992   1.700   2.213
  289TIP3    H2  874   1.065   1.821   2.268
  290TIP3   OH2  875   1.619   5.489   4.375
  290TIP3    H1  876   1.546   5.525   4.425
  290TIP3    H2  877   1.614   5.533   4.290
  291TIP3   OH2  878   1.197   3.933   2.648
  291TIP3    H1  879   1.279   3.981   2.660
  291TIP3    H2  880   1.184   3.932   2.554
  292TIP3   OH2  881   1.068   1.969   3.307
  292TIP3    H1  882   1.024   2.039   3.356
  292TIP3    H2  883   1.071   1.896   3.369
  293TIP3   OH2  884   4.190   0.621   1.952
  293TIP3    H1  885   4.113   0.570   1.930
  293TIP3    H2  886   4.187   0.630   2.048
  294TIP3   OH2  887   5.901   4.530   2.185
  294TIP3    H1  888   5.815   4.536   2.226
  294TIP3    H2  889   5.953   4.598   2.228
  295TIP3   OH2  890   5.533   0.635   3.405
  295TIP3    H1  891   5.474   0.560   3.397
  295TIP3    H2  892   5.585   0.633   3.325
  296TIP3   OH2  893   3.237   0.968   4.758
  296TIP3    H1  894   3.165   1.020   4.722
  296TIP3    H2  895   3.316   1.013   4.729
  297TIP3   OH2  896   5.449   5.268   0.833
  297TIP3    H1  897   5.411   5.354   0.852
  297TIP3    H2  898   5.385   5.205   0.866
  298TIP3   OH2  899   4.107   5.881   2.457
  298TIP3    H1  900   4.094   5.976   2.467
  298TIP3    H2  901   4.047   5.841   2.520
  299TIP3   OH2  902   5.717   2.609   3.000
  299TIP3    H1  903   5.778   2.670   2.957
  299TIP3    H2  904   5.675   2.562   2.929
  300TIP3   OH2  905   4.587   2.832   1.204
  300TIP3    H1  906   4.597   2.745   1.244
  300TIP3    H2  907   4.501   2.829   1.162
  301TIP3   OH2  908   1.076   3.760   2.860
  301TIP3    H1  909   1.055   3.717   2.777
  301TIP3    H2  910   1.118   3.842   2.834
  302TIP3   OH2  911   0.318   3.236   0.032
  302TIP3    H1  912   0.298   3.329   0.018
  302TIP3    H2  913   0.403   3.224  -0.009
  303TIP3   OH2  914   4.424   0.176   2.062
  303TIP3    H1  915   4.460   0.115   1.997
  303TIP3    H2  916   4.370   0.236   2.011
  304TIP3   OH2  917   2.905   2.079   1.220
  304TIP3    H1  918   2.994   2.058   1.248
  304TIP3    H2  919   2.885   2.162   1.264
  305TIP3   OH2  920   4.124   4.723   1.857
  305TIP3    H1  921   4.174   4.804   1.860
  305TIP3    H2  922   4.187   4.656   1.830
  306TIP3   OH2  923   5.492   5.583   3.572
  306TIP3    H1  924   5.405   5.619   3.587
  306TIP3    H2  925   5.516   5.610   3.483
  307TIP3   OH2  926   5.414   0.845   0.573
  307TIP3    H1  927   5.492   0.816   0.621
  307TIP3    H2  928   5.449   0.881   0.492
  308TIP3   OH2  929   3.425   0.861   3.019
  308TIP3    H1  930   3.350   0.862   2.958
  308TIP3    H2  931   3.404   0.792   3.081
  309TIP3   OH2  932   3.404   4.501   2.309
  309TIP3    H1  933   3.402   4.412   2.274
  309TIP3    H2  934   3.320   4.539   2.285
  310TIP3   OH2  935   2.777   2.873   0.105
  310TIP3    H1  936   2.739   2.855   0.191
  310TIP3    H2  937   2.719   2.938   0.066
  311TIP3   OH2  938   4.022   1.569   0.382
  311TIP3    H1  939   4.064   1.627   0.319
  311TIP3    H2  940   3.942   1.615   0.408
  312TIP3   OH2  941   0.693   5.647   0.395
  312TIP3    H1  942   0.665   5.584   0.460
  312TIP3    H2  943   0.637   5.723   0.409
  313TIP3   OH2  944   5.671   4.180   1.394
  313TIP3    H1  945   5.600   4.234   1.358
  313TIP3    H2  946   5.627   4.123   1.457
  314TIP3   OH2  947   4.424   4.056   1.806
  314TIP3    H1  948   4.497   4.116   1.816
  314TIP3    H2  949   4.347   4.106   1.834
  315TIP3   OH2  950   3.900   4.213   1.874
  315TIP3    H1  951   3.849   4.267   1.934
  315TIP3    H2  952   3.990   4.246   1.882
  316TIP3   OH2  953   5.767   1.971   4.827
  316TIP3    H1  954   5.700   1.974   4.896
  316TIP3    H2  955   5.790   2.062   4.812
  317TIP3   OH2  956   2.113   1.869   2.848
  317TIP3    H1  957   2.140   1.806   2.780
  317TIP3    H2  958   2.182   1.864   2.914
  318TIP3   OH2  959   3.570   0.765   0.886
  318TIP3    H1  960   3.558   0.679   0.845
  318TIP3    H2  961   3.528   0.756   0.971
  319TIP3   OH2  962   3.513   1.703   0.780
  319TIP3    H1  963   3.468   1.741   0.706
  319TIP3    H2  964   3.562   1.775   0.819
  320TIP3   OH2  965   0.510   3.293   1.260
  320TIP3    H1  966   0.544   3.382   1.269
  320TIP3    H2  967   0.416   3.302   1.276
  321TIP3   OH2  968   5.044   2.405   1.493
  321TIP3    H1  969   5.011   2.460   1.422
  321TIP3    H2  970   5.110   2.459   1.537
  322TIP3   OH2  971   1.588   5.891   4.805
  322TIP3    H1  972   1.581   5.814   4.861
  322TIP3    H2  973   1.657   5.870   4.742
  323TIP3   OH2  974   0.456   3.873   4.710
  323TIP3    H1  975   0.407   3.829   4.780
  323TIP3    H2  976   0.413   3.844   4.630
  324TIP3   OH2  977   1.047   4.890   4.286
  324TIP3    H1  978   0.967   4.912   4.239
  324TIP3    H2  979   1.020   4.875   4.376
  325TIP3   OH2  980   1.796   0.641   1.958
  325TIP3    H1  981   1.779   0.591   1.878
  325TIP3    H2  982   1.770   0.730   1.937
  326TIP3   OH2  983   2.722   0.077   3.211
  326TIP3    H1  984   2.799   0.035   3.174
  326TIP3    H2  985   2.722   0.049   3.303
  327TIP3   OH2  986   4.664   4.574   2.380
  327TIP3    H1  987   4.597   4.620   2.430
  327TIP3    H2  988   4.742   4.630   2.387
  328TIP3   OH2  989   4.566   2.394   2.711
  328TIP3    H1  990   4.651   2.375   2.670
  328TIP3    H2  991   4.573   2.485   2.738
  329TIP3   OH2  992   3.833   4.468   0.856
  329TIP3    H1  993   3.881   4.496   0.934
  329TIP3    H2  994   3.899   4.428   0.800
  330TIP3   OH2  995   2.866   0.505   0.956
  330TIP3    H1  996   2.826   0.548   1.032
  330TIP3    H2  997   2.930   0.568   0.924
  331TIP3   OH2  998   2.660   1.950   1.172
  331TIP3    H1  999   2.753   1.960   1.191
  331TIP3    H2 1000   2.656   1.919   1.081
  332TIP3   OH2 1001   0.688   5.714   4.538
  332TIP3    H1 1002   0.683   5.797   4.585
  332TIP3    H2 1003   0.640   5.729   4.457
  333TIP3   OH2 1004   5.755   4.397   1.051
  333TIP3    H1 1005   5.725   4.462   0.988
  333TIP3    H2 1006   5.701   4.320   1.034
  334TIP3   OH2 1007   1.254   3.135   4.324
  334TIP3    H1 1008   1.296   3.117   4.409
  334TIP3    H2 1009   1.172   3.178   4.347
  335TIP3   OH2 1010   2.939   3.101   1.172
  335TIP3    H1 1011   2.899   3.174   1.125
  335TIP3    H2 1012   2.865   3.047   1.200
  336TIP3   OH2 1013   2.251   4.440   2.261
  336TIP3    H1 1014   2.295   4.462   2.179
  336TIP3    H2 1015   2.222   4.349   2.249
  337TIP3   OH2 1016   3.129   1.811   4.480
  337TIP3    H1 1017   3.184   1.769   4.413
  337TIP3    H2 1018   3.041   1.776   4.464
  338TIP3   OH2 1019   4.853   2.597   3.527
  338TIP3    H1 1020   4.787   2.661   3.500
  338TIP3    H2 1021   4.827   2.516   3.483
  339TIP3   OH2 1022   1.797   5.595   0.014
  339TIP3    H1 1023   1.758   5.632   0.094
  339TIP3    H2 1024   1.877   5.552   0.044
  340TIP3   OH2 1025   3.008   2.033   2.448
  340TIP3    H1 1026   2.939   1.990   2.499
  340TIP3    H2 1027   3.033   2.109   2.500
  341TIP3   OH2 1028   4.310   2.844   2.372
  341TIP3    H1 1029   4.250   2.787   2.325
  341TIP3    H2 1030   4.389   2.846   2.318
  342TIP3   OH2 1031   5.612   2.083   2.487
  342TIP3    H1 1032   5.658   2.022   2.429
  342TIP3    H2 1033   5.525   2.044   2.497
  343TIP3   OH2 1034   2.212   4.280   0.527
  343TIP3    H1 1035   2.149   4.352   0.538
  343TIP3    H2 1036   2.160   4.209   0.490
  344TIP3   OH2 1037   5.180   1.108   0.341
  344TIP3    H1 1038   5.261   1.126   0.388
  344TIP3    H2 1039   5.208   1.081   0.254
  345TIP3   OH2 1040   0.596   1.216   1.523
  345TIP3    H1 1041   0.610   1.288   1.461
  345TIP3    H2 1042   0.684   1.192   1.552
  346TIP3   OH2 1043   0.172   1.120   0.450
  346TIP3    H1 1044   0.077   1.124   0.464
  346TIP3    H2 1045   0.210   1.144   0.535
  347TIP3   OH2 1046   2.192   4.490   2.620
  347TIP3    H1 1047   2.213   4.566   2.565
  347TIP3    H2 1048   2.223   4.514   2.707
  348TIP3   OH2 1049   2.330   1.672   1.616
  348TIP3    H1 1050   2.269   1.669   1.543
  348TIP3    H2 1051   2.411   1.635   1.581
  349TIP3   OH2 1052  -0.010   0.825   3.194
  349TIP3    H1 1053  -0.004   0.836   3.099
  349TIP3    H2 1054  -0.042   0.910   3.226
  350TIP3   OH2 1055   3.244   1.985   0.997
  350TIP3    H1 1056   3.155   1.998   0.964
  350TIP3    H2 1057   3.236   1.996   1.091
  351TIP3   OH2 1058   3.661   4.193   1.744
  351TIP3    H1 1059   3.674   4.155   1.657
  351TIP3    H2 1060   3.749   4.203   1.780
  352TIP3   OH2 1061   0.630   2.163   4.718
  352TIP3    H1 1062   0.575   2.147   4.795
  352TIP3    H2 1063   0.642   2.258   4.717
  353TIP3   OH2 1064   4.610   1.285   0.031
  353TIP3    H1 1065   4.569   1.222  -0.029
  353TIP3    H2 1066   4.541   1.308   0.093
  354TIP3   OH2 1067   0.751   5.124   0.354
  354TIP3    H1 1068   0.714   5.208   0.328
  354TIP3    H2 1069   0.710   5.104   0.438
  355TIP3   OH2 1070   2.895   4.029   2.256
  355TIP3    H1 1071   2.960   4.025   2.326
  355TIP3    H2 1072   2.898   3.942   2.216
  356TIP3   OH2 1073   5.251   0.754   0.787
  356TIP3    H1 1074   5.259   0.692   0.714
  356TIP3    H2 1075   5.284   0.836   0.752
  357TIP3   OH2 1076   4.064   0.140   3.703
  357TIP3    H1 1077   4.119   0.207   3.744
  357TIP3    H2 1078   4.086   0.059   3.748
  358TIP3   OH2 1079   1.565   4.196   4.780
  358TIP3    H1 1080   1.538   4.278   4.738
  358TIP3    H2 1081   1.642   4.168   4.731
  359TIP3   OH2 1082   4.288   4.388   0.681
  359TIP3    H1 1083   4.379   4.361   0.669
  359TIP3    H2 1084   4.287   4.481   0.662
  360TIP3   OH2 1085   5.212   0.246   0.760
  360TIP3    H1 1086   5.198   0.184   0.831
  360TIP3    H2 1087   5.139   0.308   0.767
  361TIP3   OH2 1088   4.241   4.499   2.908
  361TIP3    H1 1089   4.174   4.440   2.941
  361TIP3    H2 1090   4.192   4.565   2.858
  362TIP3   OH2 1091   3.680   5.525   2.216
  362TIP3    H1 1092   3.733   5.594   2.257
  362TIP3    H2 1093   3.737   5.448   2.218
  363TIP3   OH2 1094   0.917   2.372   0.301
  363TIP3    H1 1095   0.960   2.297   0.343
  363TIP3    H2 1096   0.823   2.357   0.315
  364TIP3   OH2 1097   0.969   1.815   1.125
  364TIP3    H1 1098   0.958   1.909   1.139
  364TIP3    H2 1099   0.929   1.798   1.040
  365TIP3   OH2 1100   3.090   3.521   1.271
  365TIP3    H1 1101   3.145   3.450   1.237
  365TIP3    H2 1102   3.107   3.594   1.212
  366TIP3   OH2 1103   2.706   2.967   1.239
  366TIP3    H1 1104   2.684   2.928   1.323
  366TIP3    H2 1105   2.622   2.980   1.195
  367TIP3   OH2 1106   4.293   3.371   4.786
  367TIP3    H1 1107   4.317   3.462   4.767
  367TIP3    H2 1108   4.228   3.349   4.719
  368TIP3   OH2 1109   4.548   3.417   2.364
  368TIP3    H1 1110   4.480   3.456   2.309
  368TIP3    H2 1111   4.501   3.367   2.430
  369TIP3   OH2 1112   0.046   1.371   4.658
  369TIP3    H1 1113   0.140   1.365   4.645
  369TIP3    H2 1114   0.029   1.314   4.733
  370TIP3   OH2 1115   3.828   1.239   1.414
  370TIP3    H1 1116   3.889   1.301   1.455
  370TIP3    H2 1117   3.766   1.295   1.366
  371TIP3   OH2 1118   2.686   2.151   0.512
  371TIP3    H1 1119   2.743   2.075   0.523
  371TIP3    H2 1120   2.726   2.201   0.441
  372TIP3   OH2 1121   5.190   2.927   0.441
  372TIP3    H1 1122   5.269   2.885   0.476
  372TIP3    H2 1123   5.220   3.012   0.409
  373TIP3   OH2 1124   1.010   4.358   2.341
  373TIP3    H1 1125   0.975   4.329   2.426
  373TIP3    H2 1126   0.987   4.288   2.281
  374TIP3   OH2 1127   1.287   4.324   5.162
  374TIP3    H1 1128   1.321   4.261   5.098
  374TIP3    H2 1129   1.195   4.300   5.172
  375TIP3   OH2 1130   3.001   0.317   1.281
  375TIP3    H1 1131   3.076   0.276   1.323
  375TIP3    H2 1132   2.999   0.406   1.316
  376TIP3   OH2 1133   0.070   0.438   2.537
  376TIP3    H1 1134   0.045   0.453   2.628
  376TIP3    H2 1135   0.056   0.523   2.494
  377TIP3   OH2 1136   1.032   0.372   0.368
  377TIP3    H1 1137   1.026   0.333   0.455
  377TIP3    H2 1138   1.035   0.467   0.384
  378TIP3   OH2 1139   4.611   0.365   0.127
  378TIP3    H1 1140   4.581   0.282   0.090
  378TIP3    H2 1141   4.629   0.420   0.051
  379TIP3   OH2 1142   5.187   4.568   1.282
  379TIP3    H1 1143   5.102   4.541   1.247
  379TIP3    H2 1144   5.189   4.663   1.269
  380TIP3   OH2 1145   4.500   3.576   3.714
  380TIP3    H1 1146   4.556   3.630   3.770
  380TIP3    H2 1147   4.459   3.514   3.774
  381TIP3   OH2 1148   5.129   5.663   2.818
  381TIP3    H1 1149   5.107   5.647   2.727
  381TIP3    H2 1150   5.182   5.742   2.817
  382TIP3   OH2 1151   2.757   2.221   2.935
  382TIP3    H1 1152   2.740   2.127   2.921
  382TIP3    H2 1153   2.838   2.223   2.986
  383TIP3   OH2 1154   2.140   0.059   2.245
  383TIP3    H1 1155   2.101   0.083   2.329
  383TIP3    H2 1156   2.118  -0.033   2.233
  384TIP3   OH2 1157   3.759   1.356   3.538
  384TIP3    H1 1158   3.798   1.440   3.561
  384TIP3    H2 1159   3.822   1.315   3.479
  385TIP3   OH2 1160   3.649   5.412   3.126
  385TIP3    H1 1161   3.674   5.319   3.126
  385TIP3    H2 1162   3.730   5.459   3.145
  386TIP3   OH2 1163   3.419   2.525   4.936
  386TIP3    H1 1164   3.482   2.509   5.006
  386TIP3    H2 1165   3.352   2.457   4.948
  387TIP3   OH2 1166   1.931   5.639   2.546
  387TIP3    H1 1167   1.940   5.734   2.535
  387TIP3    H2 1168   2.005   5.614   2.601
  388TIP3   OH2 1169   5.191   1.338   4.476
  388TIP3    H1 1170   5.164   1.428   4.492
  388TIP3    H2 1171   5.110   1.292   4.453
  389TIP3   OH2 1172   3.655   5.243   1.514
  389TIP3    H1 1173   3.591   5.306   1.545
  389TIP3    H2 1174   3.728   5.296   1.482
  390TIP3   OH2 1175   0.401   1.297   0.647
  390TIP3    H1 1176   0.335   1.238   0.685
  390TIP3    H2 1177   0.363   1.384   0.655
  391TIP3   OH2 1178   5.939   5.727   1.214
  391TIP3    H1 1179   5.987   5.645   1.224
  391TIP3    H2 1180   5.854   5.710   1.255
  392TIP3   OH2 1181   3.548   4.863   4.366
  392TIP3    H1 1182   3.479   4.927   4.355
  392TIP3    H2 1183   3.527   4.818   4.448
  393TIP3   OH2 1184   3.555   2.880   3.730
  393TIP3    H1 1185   3.523   2.952   3.783
  393TIP3    H2 1186   3.536   2.801   3.782
  394TIP3   OH2 1187   3.819   1.650   2.230
  394TIP3    H1 1188   3.830   1.605   2.146
  394TIP3    H2 1189   3.891   1.713   2.232
  395TIP3   OH2 1190   5.781   1.996   2.292
  395TIP3    H1 1191   5.718   1.950   2.237
  395TIP3    H2 1192   5.830   2.051   2.232
  396TIP3   OH2 1193   5.533   4.066   4.156
  396TIP3    H1 1194   5.571   4.024   4.079
  396TIP3    H2 1195   5.444   4.090   4.130
  397TIP3   OH2 1196   3.406   2.694   1.911
  397TIP3    H1 1197   3.344   2.732   1.973
  397TIP3    H2 1198   3.427   2.608   1.947
  398TIP3   OH2 1199   4.208   3.940   3.638
  398TIP3    H1 1200   4.159   3.896   3.569
  398TIP3    H2 1201   4.236   3.870   3.697
  399TIP3   OH2 1202   3.191   2.295   1.400
  399TIP3    H1 1203   3.109   2.316   1.445
  399TIP3    H2 1204   3.252   2.363   1.430
  400TIP3   OH2 1205   4.302   5.093   2.058
  400TIP3    H1 1206   4.307   5.180   2.019
  400TIP3    H2 1207   4.386   5.082   2.104
  401TIP3   OH2 1208   6.130   3.714   0.242
  401TIP3    H1 1209   6.164   3.756   0.163
  401TIP3    H2 1210   6.208   3.686   0.290
  402TIP3   OH2 1211   5.352   2.774   5.025
  402TIP3    H1 1212   5.311   2.860   5.031
  402TIP3    H2 1213   5.410   2.780   4.949
  403TIP3   OH2 1214   4.814   2.465   2.923
  403TIP3    H1 1215   4.775   2.506   2.846
  403TIP3    H2 1216   4.909   2.469   2.906
  404TIP3   OH2 1217   5.259   6.008   0.316
  404TIP3    H1 1218   5.279   6.059   0.238
  404TIP3    H2 1219   5.330   5.945   0.323
  405TIP3   OH2 1220   1.714   5.001   0.344
  405TIP3    H1 1221   1.735   4.938   0.275
  405TIP3    H2 1222   1.631   5.039   0.317
  406TIP3   OH2 1223   0.834   2.195   0.588
  406TIP3    H1 1224   0.750   2.229   0.557
  406TIP3    H2 1225   0.814   2.107   0.619
  407TIP3   OH2 1226   2.722   2.594   1.396
  407TIP3    H1 1227   2.663   2.631   1.461
  407TIP3    H2 1228   2.668   2.588   1.316
  408TIP3   OH2 1229   1.786   0.121   2.791
  408TIP3    H1 1230   1.851   0.161   2.733
  408TIP3    H2 1231   1.701   0.147   2.754
  409TIP3   OH2 1232   1.100   2.961   1.441
  409TIP3    H1 1233   1.148   3.039   1.413
  409TIP3    H2 1234   1.028   2.953   1.379
  410TIP3   OH2 1235   4.008   2.948   3.564
  410TIP3    H1 1236   3.977   3.013   3.627
  410TIP3    H2 1237   3.981   2.864   3.602
  411TIP3   OH2 1238   5.287   5.308   0.115
  411TIP3    H1 1239   5.379   5.328   0.133
  411TIP3    H2 1240   5.239   5.350   0.187
  412TIP3   OH2 1241   1.692   2.801   3.355
  412TIP3    H1 1242   1.777   2.810   3.311
  412TIP3    H2 1243   1.632   2.775   3.286
  413TIP3   OH2 1244   1.359   4.140   0.643
  413TIP3    H1 1245   1.399   4.098   0.567
  413TIP3    H2 1246   1.415   4.217   0.659
  414TIP3   OH2 1247   2.749   5.672   4.303
  414TIP3    H1 1248   2.678   5.642   4.360
  414TIP3    H2 1249   2.730   5.765   4.288
  415TIP3   OH2 1250   3.865   3.937   0.257
  415TIP3    H1 1251   3.794   3.926   0.193
  415TIP3    H2 1252   3.929   3.993   0.213
  416TIP3   OH2 1253   4.975   5.391   0.532
  416TIP3    H1 1254   5.059   5.378   0.489
  416TIP3    H2 1255   4.912   5.345   0.476
  417TIP3   OH2 1256   3.930   2.428   4.451
  417TIP3    H1 1257   3.924   2.414   4.357
  417TIP3    H2 1258   3.873   2.361   4.489
  418TIP3   OH2 1259   5.303   3.157   0.291
  418TIP3    H1 1260   5.323   3.214   0.218
  418TIP3    H2 1261   5.236   3.204   0.341
  419TIP3   OH2 1262   1.939   1.756   4.218
  419TIP3    H1 1263   1.934   1.676   4.270
  419TIP3    H2 1264   1.961   1.824   4.282
  420TIP3   OH2 1265   3.709   5.969   2.916
  420TIP3    H1 1266   3.756   5.890   2.941
  420TIP3    H2 1267   3.776   6.037   2.915
  421TIP3   OH2 1268   0.634   5.408   0.554
  421TIP3    H1 1269   0.593   5.463   0.621
  421TIP3    H2 1270   0.561   5.373   0.504
  422TIP3   OH2 1271   5.469   4.755   4.369
  422TIP3    H1 1272   5.527   4.713   4.432
  422TIP3    H2 1273   5.482   4.705   4.288
  423TIP3   OH2 1274   0.670   3.154   4.689
  423TIP3    H1 1275   0.713   3.072   4.711
  423TIP3    H2 1276   0.729   3.222   4.723
  424TIP3   OH2 1277   3.310   2.010   4.232
  424TIP3    H1 1278   3.353   1.924   4.228
  424TIP3    H2 1279   3.260   2.015   4.151
  425TIP3   OH2 1280   6.275   2.164   4.122
  425TIP3    H1 1281   6.219   2.226   4.169
  425TIP3    H2 1282   6.289   2.204   4.037
  426TIP3   OH2 1283   3.033   0.039   2.657
  426TIP3    H1 1284   2.989   0.023   2.740
  426TIP3    H2 1285   3.058   0.131   2.661
  427TIP3   OH2 1286   0.617   3.480   1.040
  427TIP3    H1 1287   0.612   3.522   1.126
  427TIP3    H2 1288   0.594   3.549   0.978
  428TIP3   OH2 1289   0.168   3.615   4.408
  428TIP3    H1 1290   0.184   3.566   4.488
  428TIP3    H2 1291   0.117   3.555   4.353
  429TIP3   OH2 1292   3.009   5.428   3.522
  429TIP3    H1 1293   2.927   5.379   3.518
  429TIP3    H2 1294   3.036   5.439   3.431
  430TIP3   OH2 1295   4.865   5.409   1.599
  430TIP3    H1 1296   4.770   5.402   1.598
  430TIP3    H2 1297   4.895   5.349   1.531
  431TIP3   OH2 1298   0.772   4.679   1.798
  431TIP3    H1 1299   0.728   4.722   1.725
  431TIP3    H2 1300   0.865   4.695   1.782
  432TIP3   OH2 1301   0.427   4.195   1.963
  432TIP3    H1 1302   0.377   4.182   1.882
  432TIP3    H2 1303   0.517   4.174   1.939
  433TIP3   OH2 1304   4.004   1.294   5.009
  433TIP3    H1 1305   3.940   1.348   4.963
  433TIP3    H2 1306   3.954   1.221   5.045
  434TIP3   OH2 1307   5.666   2.494   4.995
  434TIP3    H1 1308   5.600   2.464   5.057
  434TIP3    H2 1309   5.622   2.490   4.910
  435TIP3   OH2 1310   2.008   5.056   1.279
  435TIP3    H1 1311   2.000   4.961   1.281
  435TIP3    H2 1312   1.965   5.083   1.198
  436TIP3   OH2 1313   2.912   4.913   3.804
  436TIP3    H1 1314   2.927   4.922   3.710
  436TIP3    H2 1315   2.826   4.953   3.819
  437TIP3   OH2 1316   0.345   3.394   4.562
  437TIP3    H1 1317   0.359   3.428   4.650
  437TIP3    H2 1318   0.411   3.440   4.509
  438TIP3   OH2 1319   1.091   3.703   4.218
  438TIP3    H1 1320   1.080   3.615   4.183
  438TIP3    H2 1321   1.181   3.726   4.197
  439TIP3   OH2 1322   1.581   5.928   5.158
  439TIP3    H1 1323   1.542   6.010   5.128
  439TIP3    H2 1324   1.632   5.951   5.234
  440TIP3   OH2 1325   5.111   3.946   2.079
  440TIP3    H1 1326   5.154   3.911   2.157
  440TIP3    H2 1327   5.053   4.014   2.113
  441TIP3   OH2 1328   1.471   1.293   4.704
  441TIP3    H1 1329   1.383   1.289   4.742
  441TIP3    H2 1330   1.457   1.277   4.611
  442TIP3   OH2 1331   1.877   4.564   3.671
  442TIP3    H1 1332   1.873   4.607   3.585
  442TIP3    H2 1333   1.876   4.636   3.734
  443TIP3   OH2 1334   6.033   2.577   4.184
  443TIP3    H1 1335   6.051   2.669   4.165
  443TIP3    H2 1336   5.937   2.570   4.179
  444TIP3   OH2 1337   0.105   4.382   3.659
  444TIP3    H1 1338   0.123   4.291   3.636
  444TIP3    H2 1339   0.017   4.380   3.696
  445TIP3   OH2 1340   4.307   1.469   1.114
  445TIP3    H1 1341   4.349   1.539   1.163
  445TIP3    H2 1342   4.222   1.457   1.157
  446TIP3   OH2 1343   5.079   0.304   1.623
  446TIP3    H1 1344   5.065   0.252   1.702
  446TIP3    H2 1345   5.163   0.274   1.589
  447TIP3   OH2 1346   2.239   4.791   3.269
  447TIP3    H1 1347   2.200   4.734   3.202
  447TIP3    H2 1348   2.326   4.812   3.235
  448TIP3   OH2 1349   2.267   0.535   5.101
  448TIP3    H1 1350   2.276   0.440   5.111
  448TIP3    H2 1351   2.286   0.570   5.188
  449TIP3   OH2 1352   4.383   2.225   4.711
  449TIP3    H1 1353   4.412   2.134   4.702
  449TIP3    H2 1354   4.391   2.262   4.623
  450TIP3   OH2 1355   5.104   0.669   2.905
  450TIP3    H1 1356   5.087   0.682   2.998
  450TIP3    H2 1357   5.195   0.697   2.893
  451TIP3   OH2 1358   3.219   5.071   3.792
  451TIP3    H1 1359   3.241   5.163   3.779
  451TIP3    H2 1360   3.304   5.028   3.806
  452TIP3   OH2 1361   5.514   0.924   5.021
  452TIP3    H1 1362   5.601   0.927   5.060
  452TIP3    H2 1363   5.463   0.868   5.079
  453TIP3   OH2 1364   2.853   1.832   2.561
  453TIP3    H1 1365   2.765   1.795   2.573
  453TIP3    H2 1366   2.881   1.802   2.475
  454TIP3   OH2 1367   1.915   3.348   1.111
  454TIP3    H1 1368   1.821   3.346   1.123
  454TIP3    H2 1369   1.951   3.356   1.199
  455TIP3   OH2 1370   5.664   1.897   4.537
  455TIP3    H1 1371   5.752   1.865   4.516
  455TIP3    H2 1372   5.677   1.962   4.606
  456TIP3   OH2 1373   1.088   4.696   2.985
  456TIP3    H1 1374   1.050   4.609   2.987
  456TIP3    H2 1375   1.021   4.751   2.944
  457TIP3   OH2 1376   1.056   1.622   0.445
  457TIP3    H1 1377   1.099   1.651   0.526
  457TIP3    H2 1378   1.111   1.656   0.375
  458TIP3   OH2 1379   3.489   0.629   4.394
  458TIP3    H1 1380   3.414   0.660   4.342
  458TIP3    H2 1381   3.516   0.548   4.350
  459TIP3   OH2 1382   6.113   3.431   4.055
  459TIP3    H1 1383   6.188   3.372   4.045
  459TIP3    H2 1384   6.037   3.377   4.035
  460TIP3   OH2 1385   1.712   3.369   0.842
  460TIP3    H1 1386   1.761   3.406   0.769
  460TIP3    H2 1387   1.768   3.299   0.875
  461TIP3   OH2 1388   0.328   0.241   3.885
  461TIP3    H1 1389   0.333   0.163   3.941
  461TIP3    H2 1390   0.285   0.209   3.805
  462TIP3   OH2 1391   4.546   3.715   3.415
  462TIP3    H1 1392   4.628   3.743   3.458
  462TIP3    H2 1393   4.492   3.683   3.487
  463TIP3   OH2 1394   2.598   0.427   4.616
  463TIP3    H1 1395   2.621   0.458   4.528
  463TIP3    H2 1396   2.560   0.341   4.602
  464TIP3   OH2 1397   3.815   2.098   3.090
  464TIP3    H1 1398   3.873   2.036   3.134
  464TIP3    H2 1399   3.819   2.177   3.143
  465TIP3   OH2 1400   5.540   0.050   0.334
  465TIP3    H1 1401   5.526   0.126   0.390
  465TIP3    H2 1402   5.568  -0.020   0.394
  466TIP3   OH2 1403   4.906   1.181   0.204
  466TIP3    H1 1404   4.894   1.131   0.123
  466TIP3    H2 1405   4.997   1.165   0.228
  467TIP3   OH2 1406   4.580   3.385   3.322
  467TIP3    H1 1407   4.577   3.421   3.411
  467TIP3    H2 1408   4.490   3.389   3.291
  468TIP3   OH2 1409   5.591   4.471   2.949
  468TIP3    H1 1410   5.628   4.485   2.861
  468TIP3    H2 1411   5.502   4.507   2.943
  469TIP3   OH2 1412   6.164   5.235   2.018
  469TIP3    H1 1413   6.230   5.205   1.955
  469TIP3    H2 1414   6.147   5.326   1.993
  470TIP3   OH2 1415   3.059   4.184   2.445
  470TIP3    H1 1416   3.081   4.123   2.515
  470TIP3    H2 1417   3.105   4.265   2.468
  471TIP3   OH2 1418   6.210   1.281   1.181
  471TIP3    H1 1419   6.254   1.364   1.203
  471TIP3    H2 1420   6.140   1.306   1.121
  472TIP3   OH2 1421   3.212   0.733   4.863
  472TIP3    H1 1422   3.234   0.819   4.825
  472TIP3    H2 1423   3.198   0.677   4.787
  473TIP3   OH2 1424   1.895   1.060   2.622
  473TIP3    H1 1425   1.945   0.979   2.621
  473TIP3    H2 1426   1.818   1.041   2.568
  474TIP3   OH2 1427   4.593   4.115   3.999
  474TIP3    H1 1428   4.506   4.093   3.967
  474TIP3    H2 1429   4.607   4.059   4.075
  475TIP3   OH2 1430   3.796   4.952   1.364
  475TIP3    H1 1431   3.742   4.878   1.391
  475TIP3    H2 1432   3.745   4.996   1.297
  476TIP3   OH2 1433   3.539   2.946   0.941
  476TIP3    H1 1434   3.526   2.852   0.931
  476TIP3    H2 1435   3.500   2.966   1.027
  477TIP3   OH2 1436   6.062   4.743   2.263
  477TIP3    H1 1437   6.082   4.786   2.346
  477TIP3    H2 1438   6.063   4.814   2.199
  478TIP3   OH2 1439   5.625   3.161   5.090
  478TIP3    H1 1440   5.714   3.165   5.055
  478TIP3    H2 1441   5.620   3.234   5.152
  479TIP3   OH2 1442   0.489   3.516   1.734
  479TIP3    H1 1443   0.567   3.489   1.783
  479TIP3    H2 1444   0.516   3.515   1.642
  480TIP3   OH2 1445   5.967   0.470   3.407
  480TIP3    H1 1446   5.988   0.502   3.495
  480TIP3    H2 1447   5.993   0.542   3.349
  481TIP3   OH2 1448   1.319   2.111   4.694
  481TIP3    H1 1449   1.267   2.030   4.692
  481TIP3    H2 1450   1.266   2.173   4.743
  482TIP3   OH2 1451   5.203   4.703   0.471
  482TIP3    H1 1452   5.232   4.666   0.387
  482TIP3    H2 1453   5.152   4.632   0.511
  483TIP3   OH2 1454   3.375   0.123   1.117
  483TIP3    H1 1455   3.428   0.055   1.077
  483TIP3    H2 1456   3.395   0.202   1.067
  484TIP3   OH2 1457   5.366   2.005   3.077
  484TIP3    H1 1458   5.454   2.039   3.063
  484TIP3    H2 1459   5.312   2.050   3.013
  485TIP3   OH2 1460   0.356   3.220   0.535
  485TIP3    H1 1461   0.382   3.312   0.540
  485TIP3    H2 1462   0.346   3.203   0.442
  486TIP3   OH2 1463   1.598   3.068   1.708
  486TIP3    H1 1464   1.535   3.077   1.780
  486TIP3    H2 1465   1.584   3.145   1.654
  487TIP3   OH2 1466   1.064   0.120   2.302
  487TIP3    H1 1467   1.010   0.176   2.245
  487TIP3    H2 1468   1.090   0.047   2.245
  488TIP3   OH2 1469   1.213   5.070   1.925
  488TIP3    H1 1470   1.136   5.027   1.887
  488TIP3    H2 1471   1.183   5.102   2.010
  489TIP3   OH2 1472   2.986   2.649   4.224
  489TIP3    H1 1473   3.076   2.632   4.197
  489TIP3    H2 1474   2.987   2.636   4.319
  490TIP3   OH2 1475   4.523   2.130   2.761
  490TIP3    H1 1476   4.541   2.101   2.672
  490TIP3    H2 1477   4.518   2.225   2.755
  491TIP3   OH2 1478   3.040   1.560   2.906
  491TIP3    H1 1479   3.043   1.655   2.890
  491TIP3    H2 1480   3.106   1.546   2.974
  492TIP3   OH2 1481   3.073   1.494   2.410
  492TIP3    H1 1482   3.057   1.437   2.334
  492TIP3    H2 1483   2.992   1.543   2.419
  493TIP3   OH2 1484   6.134   2.312   1.855
  493TIP3    H1 1485   6.085   2.232   1.837
  493TIP3    H2 1486   6.168   2.299   1.944
  494TIP3   OH2 1487   1.200   4.046   2.201
  494TIP3    H1 1488   1.275   4.101   2.180
  494TIP3    H2 1489   1.142   4.052   2.125
  495TIP3   OH2 1490   2.667   4.609   1.522
  495TIP3    H1 1491   2.623   4.573   1.445
  495TIP3    H2 1492   2.714   4.535   1.560
  496TIP3   OH2 1493   0.604   2.618   2.902
  496TIP3    H1 1494   0.660   2.580   2.834
  496TIP3    H2 1495   0.650   2.600   2.984
  497TIP3   OH2 1496   5.550   2.057   3.800
  497TIP3    H1 1497   5.496   2.135   3.815
  497TIP3    H2 1498   5.563   2.019   3.887
  498TIP3   OH2 1499   3.681   5.785   3.824
  498TIP3    H1 1500   3.762   5.744   3.854
  498TIP3    H2 1501   3.637   5.716   3.774
  499TIP3   OH2 1502   4.461   0.307   0.555
  499TIP3    H1 1503   4.445   0.255   0.634
  499TIP3    H2 1504   4.548   0.345   0.568
  500TIP3   OH2 1505   5.509   5.113   0.597
  500TIP3    H1 1506   5.547   5.041   0.647
  500TIP3    H2 1507   5.475   5.173   0.664
  501TIP3   OH2 1508   0.296   0.849   1.419
  501TIP3    H1 1509   0.237   0.873   1.491
  501TIP3    H2 1510   0.267   0.762   1.391
  502TIP3   OH2 1511   2.842   2.277   4.025
  502TIP3    H1 1512   2.861   2.327   3.945
  502TIP3    H2 1513   2.840   2.342   4.095
  503TIP3   OH2 1514   5.845   3.984   0.092
  503TIP3    H1 1515   5.817   3.896   0.068
  503TIP3    H2 1516   5.878   3.975   0.181
  504TIP3   OH2 1517   1.186   4.311   1.568
  504TIP3    H1 1518   1.107   4.261   1.546
  504TIP3    H2 1519   1.164   4.355   1.650
  505TIP3   OH2 1520   0.327   2.061   3.091
  505TIP3    H1 1521   0.289   2.027   3.010
  505TIP3    H2 1522   0.383   1.990   3.122
  506TIP3   OH2 1523   5.155   0.153   3.139
  506TIP3    H1 1524   5.181   0.167   3.231
  506TIP3    H2 1525   5.175   0.236   3.096
  507TIP3   OH2 1526   3.109   1.168   3.859
  507TIP3    H1 1527   3.118   1.100   3.926
  507TIP3    H2 1528   3.091   1.248   3.909
  508TIP3   OH2 1529   0.281   5.248   1.685
  508TIP3    H1 1530   0.245   5.221   1.600
  508TIP3    H2 1531   0.309   5.339   1.672
  509TIP3   OH2 1532   1.463   3.020   3.826
  509TIP3    H1 1533   1.518   2.992   3.752
  509TIP3    H2 1534   1.446   3.113   3.808
  510TIP3   OH2 1535   3.552   0.773   1.349
  510TIP3    H1 1536   3.581   0.700   1.404
  510TIP3    H2 1537   3.592   0.851   1.388
  511TIP3   OH2 1538   1.039   2.165   0.413
  511TIP3    H1 1539   1.003   2.153   0.501
  511TIP3    H2 1540   0.988   2.106   0.358
  512TIP3   OH2 1541   2.169   4.955   2.293
  512TIP3    H1 1542   2.154   5.005   2.212
  512TIP3    H2 1543   2.101   4.888   2.293
  513TIP3   OH2 1544   3.785   4.845   3.699
  513TIP3    H1 1545   3.838   4.867   3.622
  513TIP3    H2 1546   3.722   4.916   3.707
  514TIP3   OH2 1547   4.343   4.294   3.874
  514TIP3    H1 1548   4.280   4.347   3.825
  514TIP3    H2 1549   4.427   4.338   3.859
  515TIP3   OH2 1550   6.226   5.187   2.367
  515TIP3    H1 1551   6.247   5.097   2.391
  515TIP3    H2 1552   6.148   5.209   2.418
  516TIP3   OH2 1553   2.210   1.033   1.882
  516TIP3    H1 1554   2.148   0.974   1.926
  516TIP3    H2 1555   2.227   0.992   1.798
  517TIP3   OH2 1556   3.976   0.860   2.669
  517TIP3    H1 1557   4.000   0.904   2.751
  517TIP3    H2 1558   3.931   0.780   2.698
  518TIP3   OH2 1559   5.596   5.908   3.818
  518TIP3    H1 1560   5.575   5.873   3.905
  518TIP3    H2 1561   5.662   5.849   3.783
  519TIP3   OH2 1562   1.000   1.518   4.136
  519TIP3    H1 1563   0.907   1.522   4.114
  519TIP3    H2 1564   1.037   1.459   4.070
  520TIP3   OH2 1565   4.869   4.175   5.064
  520TIP3    H1 1566   4.785   4.160   5.019
  520TIP3    H2 1567   4.921   4.223   5.000
  521TIP3   OH2 1568   2.845   1.386   0.278
  521TIP3    H1 1569   2.934   1.350   0.279
  521TIP3    H2 1570   2.846   1.449   0.206
  522TIP3   OH2 1571   1.502   4.563   3.900
  522TIP3    H1 1572   1.434   4.628   3.922
  522TIP3    H2 1573   1.506   4.564   3.804
  523TIP3   OH2 1574   3.662   5.577   1.183
  523TIP3    H1 1575   3.708   5.611   1.107
  523TIP3    H2 1576   3.591   5.640   1.198
  524TIP3   OH2 1577  -0.005   1.949   1.068
  524TIP3    H1 1578  -0.080   1.930   1.012
  524TIP3    H2 1579   0.071   1.934   1.012
  525TIP3   OH2 1580   1.030   0.671   3.534
  525TIP3    H1 1581   1.118   0.702   3.514
  525TIP3    H2 1582   0.996   0.638   3.451
  526TIP3   OH2 1583   1.886   1.345   3.128
  526TIP3    H1 1584   1.866   1.435   3.154
  526TIP3    H2 1585   1.963   1.353   3.072
  527TIP3   OH2 1586   1.768   1.336   4.703
  527TIP3    H1 1587   1.774   1.347   4.798
  527TIP3    H2 1588   1.676   1.316   4.687
  528TIP3   OH2 1589   0.368   5.521   1.641
  528TIP3    H1 1590   0.451   5.512   1.594
  528TIP3    H2 1591   0.315   5.577   1.584
  529TIP3   OH2 1592   3.680   4.098   3.401
  529TIP3    H1 1593   3.721   4.086   3.486
  529TIP3    H2 1594   3.703   4.019   3.352
  530TIP3   OH2 1595   3.202   3.953   4.712
  530TIP3    H1 1596   3.258   4.001   4.652
  530TIP3    H2 1597   3.122   3.937   4.662
  531TIP3   OH2 1598   0.594   1.971   1.647
  531TIP3    H1 1599   0.682   1.940   1.670
  531TIP3    H2 1600   0.574   1.928   1.564
  532TIP3   OH2 1601   3.073   2.384   0.897
  532TIP3    H1 1602   3.163   2.400   0.924
  532TIP3    H2 1603   3.022   2.389   0.978
  533TIP3   OH2 1604   0.090   3.650   1.650
  533TIP3    H1 1605   0.144   3.583   1.692
  533TIP3    H2 1606   0.033   3.683   1.720
  534TIP3   OH2 1607   6.274   1.429   4.379
  534TIP3    H1 1608   6.325   1.475   4.446
  534TIP3    H2 1609   6.187   1.469   4.383
  535TIP3   OH2 1610   0.241   2.910   3.733
  535TIP3    H1 1611   0.300   2.918   3.809
  535TIP3    H2 1612   0.164   2.961   3.757
  536TIP3   OH2 1613   2.097   5.624   0.630
  536TIP3    H1 1614   2.076   5.530   0.629
  536TIP3    H2 1615   2.094   5.647   0.723
  537TIP3   OH2 1616   0.106   2.966   1.265
  537TIP3    H1 1617   0.058   3.010   1.335
  537TIP3    H2 1618   0.048   2.895   1.237
  538TIP3   OH2 1619   4.379   4.717   3.633
  538TIP3    H1 1620   4.334   4.633   3.621
  538TIP3    H2 1621   4.468   4.701   3.604
  539TIP3   OH2 1622   5.412   4.183   2.841
  539TIP3    H1 1623   5.507   4.174   2.846
  539TIP3    H2 1624   5.396   4.217   2.753
  540TIP3   OH2 1625   0.646   0.396   1.357
  540TIP3    H1 1626   0.559   0.434   1.365
  540TIP3    H2 1627   0.697   0.436   1.427
  541TIP3   OH2 1628   3.770   2.616   4.900
  541TIP3    H1 1629   3.837   2.650   4.960
  541TIP3    H2 1630   3.816   2.603   4.817
  542TIP3   OH2 1631   2.524   1.667   1.994
  542TIP3    H1 1632   2.604   1.710   2.025
  542TIP3    H2 1633   2.501   1.714   1.914
  543TIP3   OH2 1634   1.843   3.390   2.403
  543TIP3    H1 1635   1.907   3.389   2.475
  543TIP3    H2 1636   1.814   3.299   2.397
  544TIP3   OH2 1637   0.901   3.440   1.125
  544TIP3    H1 1638   0.940   3.517   1.165
  544TIP3    H2 1639   0.828   3.474   1.073
  545TIP3   OH2 1640   3.873   2.930   2.951
  545TIP3    H1 1641   3.886   2.867   3.022
  545TIP3    H2 1642   3.825   3.002   2.993
  546TIP3   OH2 1643   0.362   5.070   2.764
  546TIP3    H1 1644   0.417   5.148   2.764
  546TIP3    H2 1645   0.316   5.072   2.848
  547TIP3   OH2 1646   2.743   3.288   3.714
  547TIP3    H1 1647   2.652   3.281   3.686
  547TIP3    H2 1648   2.792   3.303   3.632
  548TIP3   OH2 1649   1.894   2.109   4.739
  548TIP3    H1 1650   1.803   2.079   4.742
  548TIP3    H2 1651   1.897   2.170   4.665
  549TIP3   OH2 1652   1.114   4.637   3.567
  549TIP3    H1 1653   1.052   4.596   3.627
  549TIP3    H2 1654   1.066   4.644   3.484
  550TIP3   OH2 1655   1.584   0.901   3.094
  550TIP3    H1 1656   1.540   0.845   3.030
  550TIP3    H2 1657   1.668   0.922   3.053
  551TIP3   OH2 1658   1.943   2.799   2.175
  551TIP3    H1 1659   2.012   2.861   2.151
  551TIP3    H2 1660   1.914   2.762   2.092
  552TIP3   OH2 1661   0.602   2.803   3.723
  552TIP3    H1 1662   0.587   2.894   3.696
  552TIP3    H2 1663   0.653   2.811   3.804
  553TIP3   OH2 1664   1.185   4.013   4.240
  553TIP3    H1 1665   1.184   3.979   4.150
  553TIP3    H2 1666   1.274   4.043   4.253
  554TIP3   OH2 1667   1.462   3.953   2.551
  554TIP3    H1 1668   1.471   4.041   2.514
  554TIP3    H2 1669   1.523   3.900   2.501
  555TIP3   OH2 1670   4.726   2.597   0.841
  555TIP3    H1 1671   4.725   2.520   0.898
  555TIP3    H2 1672   4.642   2.639   0.855
  556TIP3   OH2 1673   0.523   0.174   1.893
  556TIP3    H1 1674   0.467   0.160   1.816
  556TIP3    H2 1675   0.606   0.205   1.857
  557TIP3   OH2 1676   5.051   2.638   1.930
  557TIP3    H1 1677   5.131   2.597   1.897
  557TIP3    H2 1678   5.055   2.728   1.899
  558TIP3   OH2 1679   1.038   0.469   1.232
  558TIP3    H1 1680   0.951   0.504   1.215
  558TIP3    H2 1681   1.047   0.395   1.171
  559TIP3   OH2 1682   0.882   5.364   2.979
  559TIP3    H1 1683   0.812   5.323   3.029
  559TIP3    H2 1684   0.901   5.302   2.909
  560TIP3   OH2 1685   2.562   0.928   1.740
  560TIP3    H1 1686   2.545   0.868   1.667
  560TIP3    H2 1687   2.585   0.871   1.813
  561TIP3   OH2 1688   4.207   3.402   1.801
  561TIP3    H1 1689   4.203   3.469   1.869
  561TIP3    H2 1690   4.121   3.405   1.758
  562TIP3   OH2 1691   3.383   3.184   1.620
  562TIP3    H1 1692   3.408   3.268   1.658
  562TIP3    H2 1693   3.302   3.202   1.572
  563TIP3   OH2 1694   5.309   5.479   1.931
  563TIP3    H1 1695   5.274   5.391   1.947
  563TIP3    H2 1696   5.241   5.538   1.963
  564TIP3   OH2 1697   3.044   1.282   4.570
  564TIP3    H1 1698   2.993   1.201   4.582
  564TIP3    H2 1699   3.073   1.305   4.658
  565TIP3   OH2 1700   6.145   0.527   3.100
  565TIP3    H1 1701   6.239   0.542   3.113
  565TIP3    H2 1702   6.106   0.614   3.107
  566TIP3   OH2 1703   2.945   2.864   0.438
  566TIP3    H1 1704   2.906   2.901   0.517
  566TIP3    H2 1705   2.870   2.840   0.384
  567TIP3   OH2 1706   3.422   5.705   1.175
  567TIP3    H1 1707   3.454   5.792   1.152
  567TIP3    H2 1708   3.354   5.721   1.240
  568TIP3   OH2 1709   0.572   4.051   4.925
  568TIP3    H1 1710   0.509   4.123   4.928
  568TIP3    H2 1711   0.535   3.991   4.860
  569TIP3   OH2 1712   2.090   1.929   1.922
  569TIP3    H1 1713   2.098   2.002   1.860
  569TIP3    H2 1714   2.181   1.904   1.941
  570TIP3   OH2 1715   5.105   3.070   2.132
  570TIP3    H1 1716   5.102   3.143   2.194
  570TIP3    H2 1717   5.199   3.052   2.120
  571TIP3   OH2 1718   1.933   2.436   4.041
  571TIP3    H1 1719   1.886   2.471   4.116
  571TIP3    H2 1720   1.996   2.504   4.018
  572TIP3   OH2 1721   2.726   5.290   0.622
  572TIP3    H1 1722   2.775   5.212   0.649
  572TIP3    H2 1723   2.698   5.271   0.533
  573TIP3   OH2 1724   4.657   0.812   4.730
  573TIP3    H1 1725   4.702   0.741   4.683
  573TIP3    H2 1726   4.725   0.878   4.744
  574TIP3   OH2 1727   2.804   0.747   2.959
  574TIP3    H1 1728   2.886   0.795   2.965
  574TIP3    H2 1729   2.761   0.764   3.043
  575TIP3   OH2 1730   6.127   4.263   1.251
  575TIP3    H1 1731   6.102   4.322   1.323
  575TIP3    H2 1732   6.105   4.176   1.284
  576TIP3   OH2 1733   1.736   0.126   4.925
  576TIP3    H1 1734   1.675   0.147   4.853
  576TIP3    H2 1735   1.804   0.193   4.917
  577TIP3   OH2 1736   0.786   3.206   1.216
  577TIP3    H1 1737   0.698   3.241   1.233
  577TIP3    H2 1738   0.832   3.278   1.171
  578TIP3   OH2 1739   4.271   4.152   3.224
  578TIP3    H1 1740   4.196   4.210   3.211
  578TIP3    H2 1741   4.251   4.075   3.170
  579TIP3   OH2 1742   5.914   4.536   1.853
  579TIP3    H1 1743   5.882   4.504   1.938
  579TIP3    H2 1744   6.008   4.524   1.857
  580TIP3   OH2 1745   4.569   1.786   0.570
  580TIP3    H1 1746   4.622   1.844   0.623
  580TIP3    H2 1747   4.498   1.757   0.628
  581TIP3   OH2 1748   0.875   3.045   3.587
  581TIP3    H1 1749   0.837   3.031   3.500
  581TIP3    H2 1750   0.956   2.995   3.585
  582TIP3   OH2 1751   6.254   1.036   0.496
  582TIP3    H1 1752   6.191   1.101   0.468
  582TIP3    H2 1753   6.245   1.033   0.591
  583TIP3   OH2 1754   5.772   1.192   0.416
  583TIP3    H1 1755   5.780   1.138   0.337
  583TIP3    H2 1756   5.751   1.279   0.382
  584TIP3   OH2 1757   5.910   1.637   3.624
  584TIP3    H1 1758   5.902   1.580   3.700
  584TIP3    H2 1759   5.859   1.714   3.646
  585TIP3   OH2 1760   4.875   4.079   0.102
  585TIP3    H1 1761   4.909   4.015   0.039
  585TIP3    H2 1762   4.822   4.026   0.163
  586TIP3   OH2 1763   5.727   1.125   3.079
  586TIP3    H1 1764   5.803   1.072   3.056
  586TIP3    H2 1765   5.664   1.110   3.009
  587TIP3   OH2 1766   2.819   4.557   1.152
  587TIP3    H1 1767   2.786   4.467   1.152
  587TIP3    H2 1768   2.748   4.608   1.191
  588TIP3   OH2 1769   5.936   0.975   3.036
  588TIP3    H1 1770   5.926   0.922   2.957
  588TIP3    H2 1771   5.964   0.913   3.103
  589TIP3   OH2 1772   5.503   0.082   4.643
  589TIP3    H1 1773   5.538   0.092   4.554
  589TIP3    H2 1774   5.427   0.024   4.632
  590TIP3   OH2 1775   0.939   1.945   0.259
  590TIP3    H1 1776   0.907   1.929   0.170
  590TIP3    H2 1777   0.903   1.874   0.311
  591TIP3   OH2 1778   0.721   5.187   3.425
  591TIP3    H1 1779   0.670   5.127   3.480
  591TIP3    H2 1780   0.699   5.274   3.456
  592TIP3   OH2 1781   3.868   2.665   1.296
  592TIP3    H1 1782   3.794   2.725   1.306
  592TIP3    H2 1783   3.843   2.587   1.345
  593TIP3   OH2 1784   6.373   2.155   3.754
  593TIP3    H1 1785   6.314   2.175   3.682
  593TIP3    H2 1786   6.349   2.216   3.823
  594TIP3   OH2 1787   0.967   3.249   4.302
  594TIP3    H1 1788   1.009   3.315   4.358
  594TIP3    H2 1789   0.873   3.265   4.315
  595TIP3   OH2 1790   1.790   2.499   3.605
  595TIP3    H1 1791   1.792   2.458   3.519
  595TIP3    H2 1792   1.722   2.566   3.598
  596TIP3   OH2 1793   5.766   4.878   2.495
  596TIP3    H1 1794   5.676   4.862   2.522
  596TIP3    H2 1795   5.759   4.935   2.418
  597TIP3   OH2 1796   2.486   5.266   2.451
  597TIP3    H1 1797   2.570   5.310   2.461
  597TIP3    H2 1798   2.448   5.305   2.372
  598TIP3   OH2 1799   4.721   4.613   1.196
  598TIP3    H1 1800   4.655   4.546   1.210
  598TIP3    H2 1801   4.798   4.566   1.164
  599TIP3   OH2 1802   0.160   0.580   3.495
  599TIP3    H1 1803   0.159   0.561   3.401
  599TIP3    H2 1804   0.084   0.533   3.529
  600TIP3   OH2 1805   4.281   0.696   0.200
  600TIP3    H1 1806   4.345   0.766   0.186
  600TIP3    H2 1807   4.329   0.629   0.250
  601TIP3   OH2 1808   6.092   5.156   5.103
  601TIP3    H1 1809   6.171   5.208   5.095
  601TIP3    H2 1810   6.042   5.197   5.173
  602TIP3   OH2 1811   1.425   3.958   1.394
  602TIP3    H1 1812   1.365   3.968   1.468
  602TIP3    H2 1813   1.373   3.983   1.317
  603TIP3   OH2 1814   2.849   2.498   1.108
  603TIP3    H1 1815   2.769   2.548   1.096
  603TIP3    H2 1816   2.839   2.422   1.050
  604TIP3   OH2 1817   4.117   4.454   3.792
  604TIP3    H1 1818   4.112   4.375   3.738
  604TIP3    H2 1819   4.031   4.495   3.783
  605TIP3   OH2 1820   0.272   0.755   0.781
  605TIP3    H1 1821   0.332   0.808   0.728
  605TIP3    H2 1822   0.226   0.701   0.717
  606TIP3   OH2 1823   0.338   0.534   1.851
  606TIP3    H1 1824   0.391   0.537   1.772
  606TIP3    H2 1825   0.376   0.463   1.903
  607TIP3   OH2 1826   0.979   2.542   4.719
  607TIP3    H1 1827   0.974   2.635   4.743
  607TIP3    H2 1828   0.893   2.523   4.682
  608TIP3   OH2 1829   6.191   1.244   1.991
  608TIP3    H1 1830   6.255   1.286   2.048
  608TIP3    H2 1831   6.233   1.241   1.905
  609TIP3   OH2 1832   0.509   0.012   4.850
  609TIP3    H1 1833   0.528  -0.067   4.800
  609TIP3    H2 1834   0.582   0.021   4.911
  610TIP3   OH2 1835   6.348   5.019   3.411
  610TIP3    H1 1836   6.322   5.011   3.503
  610TIP3    H2 1837   6.265   5.023   3.364
  611TIP3   OH2 1838   3.532   5.008   3.705
  611TIP3    H1 1839   3.544   4.990   3.611
  611TIP3    H2 1840   3.591   5.081   3.723
  612TIP3   OH2 1841   3.899   0.699   1.673
  612TIP3    H1 1842   3.863   0.683   1.586
  612TIP3    H2 1843   3.862   0.630   1.728
  613TIP3   OH2 1844   6.315   3.354   0.465
  613TIP3    H1 1845   6.326   3.446   0.443
  613TIP3    H2 1846   6.383   3.336   0.529
  614TIP3   OH2 1847   2.411   1.708   5.038
  614TIP3    H1 1848   2.434   1.616   5.037
  614TIP3    H2 1849   2.392   1.730   4.947
  615TIP3   OH2 1850   2.675   1.496   2.855
  615TIP3    H1 1851   2.726   1.431   2.806
  615TIP3    H2 1852   2.740   1.544   2.906
  616TIP3   OH2 1853   1.295   1.764   2.922
  616TIP3    H1 1854   1.219   1.801   2.877
  616TIP3    H2 1855   1.348   1.840   2.946
  617TIP3   OH2 1856   5.186   0.963   1.581
  617TIP3    H1 1857   5.241   0.928   1.510
  617TIP3    H2 1858   5.190   1.058   1.570
  618TIP3   OH2 1859   3.645   4.194   0.586
  618TIP3    H1 1860   3.584   4.172   0.656
  618TIP3    H2 1861   3.606   4.158   0.507
  619TIP3   OH2 1862   2.755   2.846   2.099
  619TIP3    H1 1863   2.733   2.758   2.068
  619TIP3    H2 1864   2.846   2.858   2.073
  620TIP3   OH2 1865   3.461   2.098   3.095
  620TIP3    H1 1866   3.501   2.018   3.063
  620TIP3    H2 1867   3.414   2.071   3.174
  621TIP3   OH2 1868   0.215   0.678   4.029
  621TIP3    H1 1869   0.140   0.646   4.078
  621TIP3    H2 1870   0.246   0.753   4.078
  622TIP3   OH2 1871   0.532   3.035   0.773
  622TIP3    H1 1872   0.498   3.052   0.861
  622TIP3    H2 1873   0.479   3.092   0.717
  623TIP3   OH2 1874   4.074   6.003   4.623
  623TIP3    H1 1875   4.117   5.951   4.692
  623TIP3    H2 1876   3.983   5.972   4.623
  624TIP3   OH2 1877   3.637   4.437   1.570
  624TIP3    H1 1878   3.614   4.378   1.642
  624TIP3    H2 1879   3.602   4.395   1.492
  625TIP3   OH2 1880   0.588   0.512   3.266
  625TIP3    H1 1881   0.572   0.487   3.357
  625TIP3    H2 1882   0.503   0.505   3.223
  626TIP3   OH2 1883   4.771   3.390   5.188
  626TIP3    H1 1884   4.686   3.396   5.144
  626TIP3    H2 1885   4.825   3.455   5.144
  627TIP3   OH2 1886   1.876   3.741   3.667
  627TIP3    H1 1887   1.804   3.695   3.710
  627TIP3    H2 1888   1.863   3.726   3.573
  628TIP3   OH2 1889   4.910   5.921   0.587
  628TIP3    H1 1890   4.862   5.997   0.556
  628TIP3    H2 1891   5.000   5.952   0.599
  629TIP3   OH2 1892   0.630   1.642   2.681
  629TIP3    H1 1893   0.644   1.736   2.679
  629TIP3    H2 1894   0.557   1.627   2.621
  630TIP3   OH2 1895   2.621   4.869   1.569
  630TIP3    H1 1896   2.635   4.919   1.488
  630TIP3    H2 1897   2.653   4.781   1.548
  631TIP3   OH2 1898   5.164   1.409   0.517
  631TIP3    H1 1899   5.179   1.326   0.473
  631TIP3    H2 1900   5.077   1.402   0.554
  632TIP3   OH2 1901   4.177   5.596   4.299
  632TIP3    H1 1902   4.126   5.550   4.232
  632TIP3    H2 1903   4.246   5.641   4.250
  633TIP3   OH2 1904   2.358   2.657   2.232
  633TIP3    H1 1905   2.293   2.651   2.162
  633TIP3    H2 1906   2.393   2.746   2.224
  634TIP3   OH2 1907   0.051   0.342   5.171
  634TIP3    H1 1908   0.112   0.356   5.243
  634TIP3    H2 1909   0.105   0.348   5.092
  635TIP3   OH2 1910   4.530   3.828   1.111
  635TIP3    H1 1911   4.438   3.840   1.131
  635TIP3    H2 1912   4.575   3.836   1.195
  636TIP3   OH2 1913   6.392   1.326   0.886
  636TIP3    H1 1914   6.359   1.270   0.956
  636TIP3    H2 1915   6.326   1.320   0.817
  637TIP3   OH2 1916   3.720   2.392   3.422
  637TIP3    H1 1917   3.765   2.308   3.435
  637TIP3    H2 1918   3.627   2.370   3.430
  638TIP3   OH2 1919   5.408   1.329   4.339
  638TIP3    H1 1920   5.316   1.321   4.363
  638TIP3    H2 1921   5.451   1.364   4.417
  639TIP3   OH2 1922   4.287   2.149   4.100
  639TIP3    H1 1923   4.207   2.098   4.117
  639TIP3    H2 1924   4.333   2.099   4.033
  640TIP3   OH2 1925   2.984   5.452   0.619
  640TIP3    H1 1926   2.910   5.393   0.631
  640TIP3    H2 1927   3.034   5.415   0.547
  641TIP3   OH2 1928   6.001   3.753   2.953
  641TIP3    H1 1929   6.040   3.683   3.005
  641TIP3    H2 1930   6.074   3.788   2.902
  642TIP3   OH2 1931   3.219   4.025   4.289
  642TIP3    H1 1932   3.301   4.013   4.242
  642TIP3    H2 1933   3.243   4.075   4.367
  643TIP3   OH2 1934   0.716   3.862   1.949
  643TIP3    H1 1935   0.630   3.861   1.991
  643TIP3    H2 1936   0.765   3.794   1.994
  644TIP3   OH2 1937   5.029   0.245   2.450
  644TIP3    H1 1938   4.950   0.210   2.491
  644TIP3    H2 1939   5.070   0.299   2.518
  645TIP3   OH2 1940   4.676   1.604   1.466
  645TIP3    H1 1941   4.595   1.564   1.434
  645TIP3    H2 1942   4.711   1.650   1.390
  646TIP3   OH2 1943   0.867   3.820   1.098
  646TIP3    H1 1944   0.877   3.878   1.022
  646TIP3    H2 1945   0.775   3.827   1.122
  647TIP3   OH2 1946   3.902   2.982   4.822
  647TIP3    H1 1947   3.894   2.947   4.733
  647TIP3    H2 1948   3.821   2.955   4.865
  648TIP3   OH2 1949   6.391   3.179   4.805
  648TIP3    H1 1950   6.382   3.172   4.900
  648TIP3    H2 1951   6.308   3.215   4.775
  649TIP3   OH2 1952   0.483   0.806   4.429
  649TIP3    H1 1953   0.496   0.738   4.363
  649TIP3    H2 1954   0.568   0.849   4.437
  650TIP3   OH2 1955   5.802   3.364   1.713
  650TIP3    H1 1956   5.844   3.363   1.627
  650TIP3    H2 1957   5.760   3.278   1.719
  651TIP3   OH2 1958   3.083   1.161   0.498
  651TIP3    H1 1959   3.097   1.224   0.569
  651TIP3    H2 1960   3.076   1.215   0.420
  652TIP3   OH2 1961   0.566   2.277   2.909
  652TIP3    H1 1962   0.537   2.282   2.818
  652TIP3    H2 1963   0.649   2.229   2.905
  653TIP3   OH2 1964   1.245   5.454   0.012
  653TIP3    H1 1965   1.286   5.503   0.083
  653TIP3    H2 1966   1.172   5.509  -0.016
  654TIP3   OH2 1967   5.130   5.936   5.142
  654TIP3    H1 1968   5.112   5.879   5.068
  654TIP3    H2 1969   5.054   5.927   5.200
  655TIP3   OH2 1970   3.955   1.002   1.426
  655TIP3    H1 1971   4.044   1.037   1.431
  655TIP3    H2 1972   3.902   1.076   1.396
  656TIP3   OH2 1973   4.618   0.375   1.157
  656TIP3    H1 1974   4.626   0.469   1.145
  656TIP3    H2 1975   4.696   0.350   1.207
  657TIP3   OH2 1976   4.391   0.138   0.771
  657TIP3    H1 1977   4.397   0.044   0.785
  657TIP3    H2 1978   4.477   0.172   0.798
  658TIP3   OH2 1979   3.901   2.815   3.211
  658TIP3    H1 1980   3.875   2.767   3.289
  658TIP3    H2 1981   3.981   2.860   3.235
  659TIP3   OH2 1982   0.090   1.010   0.982
  659TIP3    H1 1983   0.143   1.011   1.061
  659TIP3    H2 1984   0.000   1.000   1.013
  660TIP3   OH2 1985   3.649   3.045   4.966
  660TIP3    H1 1986   3.609   3.104   4.902
  660TIP3    H2 1987   3.645   3.094   5.049
  661TIP3   OH2 1988   1.096   5.167   3.441
  661TIP3    H1 1989   1.073   5.235   3.504
  661TIP3    H2 1990   1.102   5.212   3.357
  662TIP3   OH2 1991   4.368   0.552   3.874
  662TIP3    H1 1992   4.447   0.529   3.923
  662TIP3    H2 1993   4.353   0.644   3.895
  663TIP3   OH2 1994   2.003   4.874   3.501
  663TIP3    H1 1995   1.972   4.959   3.471
  663TIP3    H2 1996   1.933   4.840   3.556
  664TIP3   OH2 1997   1.810   5.744   4.160
  664TIP3    H1 1998   1.862   5.780   4.088
  664TIP3    H2 1999   1.841   5.792   4.237
  665TIP3   OH2 2000   4.645   1.115   2.176
  665TIP3    H1 2001   4.614   1.058   2.106
  665TIP3    H2 2002   4.720   1.162   2.140
  666TIP3   OH2 2003   5.167   4.530   2.271
  666TIP3    H1 2004   5.165   4.611   2.219
  666TIP3    H2 2005   5.231   4.548   2.340
  667TIP3   OH2 2006   1.830   1.426   1.288
  667TIP3    H1 2007   1.877   1.419   1.371
  667TIP3    H2 2008   1.879   1.371   1.228
  668TIP3   OH2 2009   2.223   4.428   3.363
  668TIP3    H1 2010   2.162   4.487   3.319
  668TIP3    H2 2011   2.195   4.340   3.338
  669TIP3   OH2 2012   1.921   2.196   1.961
  669TIP3    H1 2013   1.990   2.179   1.897
  669TIP3    H2 2014   1.965   2.191   2.046
  670TIP3   OH2 2015   0.554   1.263   4.387
  670TIP3    H1 2016   0.533   1.344   4.434
  670TIP3    H2 2017   0.638   1.236   4.423
  671TIP3   OH2 2018   4.746   0.028   0.926
  671TIP3    H1 2019   4.665   0.076   0.905
  671TIP3    H2 2020   4.762  -0.027   0.849
  672TIP3   OH2 2021   0.673   4.559   4.018
  672TIP3    H1 2022   0.768   4.557   4.028
  672TIP3    H2 2023   0.659   4.609   3.938
  673TIP3   OH2 2024   5.081   5.345   4.372
  673TIP3    H1 2025   5.112   5.262   4.408
  673TIP3    H2 2026   4.986   5.337   4.370
  674TIP3   OH2 2027   5.598   1.948   3.306
  674TIP3    H1 2028   5.538   2.019   3.331
  674TIP3    H2 2029   5.666   1.950   3.372
  675TIP3   OH2 2030   5.706   2.954   0.320
  675TIP3    H1 2031   5.643   2.933   0.251
  675TIP3    H2 2032   5.791   2.933   0.282
  676TIP3   OH2 2033   3.031   5.437   2.087
  676TIP3    H1 2034   3.086   5.433   2.009
  676TIP3    H2 2035   3.093   5.423   2.159
  677TIP3   OH2 2036   6.014   5.622   1.684
  677TIP3    H1 2037   5.923   5.637   1.659
  677TIP3    H2 2038   6.019   5.648   1.776
  678TIP3   OH2 2039   6.041   1.470   5.100
  678TIP3    H1 2040   6.104   1.489   5.170
  678TIP3    H2 2041   5.956   1.493   5.138
  679TIP3   OH2 2042   5.647   3.092   1.857
  679TIP3    H1 2043   5.688   3.047   1.783
  679TIP3    H2 2044   5.696   3.061   1.934
  680TIP3   OH2 2045   4.859   1.046   1.464
  680TIP3    H1 2046   4.784   0.988   1.474
  680TIP3    H2 2047   4.901   1.018   1.383
  681TIP3   OH2 2048   0.293   3.693   0.420
  681TIP3    H1 2049   0.363   3.703   0.484
  681TIP3    H2 2050   0.313   3.611   0.375
  682TIP3   OH2 2051   4.612   3.678   4.742
  682TIP3    H1 2052   4.627   3.621   4.666
  682TIP3    H2 2053   4.660   3.636   4.813
  683TIP3   OH2 2054   4.903   3.069   2.431
  683TIP3    H1 2055   4.935   3.032   2.513
  683TIP3    H2 2056   4.875   3.158   2.453
  684TIP3   OH2 2057   2.574   4.737   3.330
  684TIP3    H1 2058   2.527   4.673   3.277
  684TIP3    H2 2059   2.575   4.816   3.276
  685TIP3   OH2 2060   4.837   3.199   3.776
  685TIP3    H1 2061   4.886   3.134   3.827
  685TIP3    H2 2062   4.751   3.160   3.763
  686TIP3   OH2 2063   0.753   4.107   2.829
  686TIP3    H1 2064   0.762   4.017   2.861
  686TIP3    H2 2065   0.697   4.100   2.751
  687TIP3   OH2 2066   2.204   1.209   1.282
  687TIP3    H1 2067   2.293   1.230   1.310
  687TIP3    H2 2068   2.162   1.174   1.361
  688TIP3   OH2 2069   0.344   1.799   5.091
  688TIP3    H1 2070   0.281   1.853   5.041
  688TIP3    H2 2071   0.307   1.711   5.087
  689TIP3   OH2 2072   5.344   0.855   1.010
  689TIP3    H1 2073   5.310   0.794   0.945
  689TIP3    H2 2074   5.433   0.875   0.981
  690TIP3   OH2 2075   5.698   1.738   1.346
  690TIP3    H1 2076   5.668   1.682   1.275
  690TIP3    H2 2077   5.666   1.825   1.322
  691TIP3   OH2 2078   4.202   2.705   4.611
  691TIP3    H1 2079   4.267   2.763   4.651
  691TIP3    H2 2080   4.137   2.765   4.573
  692TIP3   OH2 2081   3.683   0.439   2.750
  692TIP3    H1 2082   3.626   0.514   2.763
  692TIP3    H2 2083   3.750   0.470   2.689
  693TIP3   OH2 2084   2.067   4.638   0.826
  693TIP3    H1 2085   2.151   4.630   0.870
  693TIP3    H2 2086   2.059   4.731   0.805
  694TIP3   OH2 2087   2.880   3.505   4.740
  694TIP3    H1 2088   2.811   3.523   4.676
  694TIP3    H2 2089   2.940   3.579   4.733
  695TIP3   OH2 2090   2.762   1.288   1.817
  695TIP3    H1 2091   2.834   1.345   1.843
  695TIP3    H2 2092   2.700   1.295   1.890
  696TIP3   OH2 2093   4.923   5.031   0.980
  696TIP3    H1 2094   4.861   5.048   1.051
  696TIP3    H2 2095   5.007   5.065   1.012
  697TIP3   OH2 2096   1.843   4.216   4.103
  697TIP3    H1 2097   1.918   4.172   4.063
  697TIP3    H2 2098   1.800   4.260   4.030
  698TIP3   OH2 2099   2.063   0.798   1.971
  698TIP3    H1 2100   2.107   0.765   1.892
  698TIP3    H2 2101   2.006   0.726   1.998
  699TIP3   OH2 2102   6.024   4.369   3.166
  699TIP3    H1 2103   6.011   4.460   3.141
  699TIP3    H2 2104   6.088   4.372   3.237
  700TIP3   OH2 2105   1.153   0.127   1.312
  700TIP3    H1 2106   1.239   0.163   1.292
  700TIP3    H2 2107   1.171   0.053   1.370
  701TIP3   OH2 2108   3.200   3.090   1.163
  701TIP3    H1 2109   3.108   3.075   1.141
  701TIP3    H2 2110   3.222   3.172   1.118
  702TIP3   OH2 2111   4.063   5.461   3.731
  702TIP3    H1 2112   4.003   5.389   3.750
  702TIP3    H2 2113   4.019   5.513   3.664
  703TIP3   OH2 2114   1.943   5.937   2.565
  703TIP3    H1 2115   1.933   5.983   2.482
  703TIP3    H2 2116   2.006   5.990   2.614
  704TIP3   OH2 2117   3.413   1.648   1.327
  704TIP3    H1 2118   3.381   1.634   1.239
  704TIP3    H2 2119   3.432   1.561   1.361
  705TIP3   OH2 2120   5.962   5.465   0.035
  705TIP3    H1 2121   6.041   5.518   0.050
  705TIP3    H2 2122   5.992   5.392  -0.018
  706TIP3   OH2 2123   3.222   2.808   1.744
  706TIP3    H1 2124   3.268   2.745   1.799
  706TIP3    H2 2125   3.274   2.813   1.664
  707TIP3   OH2 2126   4.345   1.970   1.315
  707TIP3    H1 2127   4.413   1.941   1.376
  707TIP3    H2 2128   4.302   2.043   1.359
  708TIP3   OH2 2129   4.898   4.642   0.391
  708TIP3    H1 2130   4.842   4.653   0.468
  708TIP3    H2 2131   4.966   4.581   0.420
  709TIP3   OH2 2132   5.283   0.148   3.400
  709TIP3    H1 2133   5.233   0.102   3.467
  709TIP3    H2 2134   5.374   0.139   3.427
  710TIP3   OH2 2135   5.850   2.497   0.698
  710TIP3    H1 2136   5.851   2.493   0.793
  710TIP3    H2 2137   5.879   2.411   0.669
  711TIP3   OH2 2138   2.262   3.303   5.112
  711TIP3    H1 2139   2.330   3.328   5.173
  711TIP3    H2 2140   2.180   3.324   5.157
  712TIP3   OH2 2141   0.542   5.873   1.568
  712TIP3    H1 2142   0.571   5.906   1.482
  712TIP3    H2 2143   0.500   5.789   1.548
  713TIP3   OH2 2144   2.701   0.369   4.864
  713TIP3    H1 2145   2.662   0.402   4.783
  713TIP3    H2 2146   2.651   0.290   4.883
  714TIP3   OH2 2147   1.805   3.200   4.021
  714TIP3    H1 2148   1.851   3.261   4.078
  714TIP3    H2 2149   1.724   3.180   4.067
  715TIP3   OH2 2150   1.329   0.880   3.734
  715TIP3    H1 2151   1.350   0.949   3.797
  715TIP3    H2 2152   1.329   0.924   3.649
  716TIP3   OH2 2153   2.812   5.794   4.832
  716TIP3    H1 2154   2.774   5.825   4.915
  716TIP3    H2 2155   2.879   5.859   4.811
  717TIP3   OH2 2156   5.160   5.600   1.577
  717TIP3    H1 2157   5.151   5.544   1.654
  717TIP3    H2 2158   5.084   5.658   1.581
  718TIP3   OH2 2159   3.201   1.049   5.031
  718TIP3    H1 2160   3.192   1.125   4.972
  718TIP3    H2 2161   3.221   0.976   4.972
  719TIP3   OH2 2162   0.378   2.476   2.869
  719TIP3    H1 2163   0.391   2.416   2.796
  719TIP3    H2 2164   0.450   2.539   2.862
  720TIP3   OH2 2165   5.953   4.368   4.117
  720TIP3    H1 2166   5.872   4.326   4.143
  720TIP3    H2 2167   5.983   4.318   4.041
  721TIP3   OH2 2168   1.496   4.081   3.984
  721TIP3    H1 2169   1.463   4.170   3.995
  721TIP3    H2 2170   1.479   4.038   4.067
  722TIP3   OH2 2171   3.365   5.038   2.633
  722TIP3    H1 2172   3.429   5.093   2.589
  722TIP3    H2 2173   3.416   4.966   2.670
  723TIP3   OH2 2174   4.097   2.954   1.070
  723TIP3    H1 2175   4.073   2.997   1.153
  723TIP3    H2 2176   4.025   2.976   1.010
  724TIP3   OH2 2177   0.730   4.653   0.603
  724TIP3    H1 2178   0.691   4.667   0.689
  724TIP3    H2 2179   0.762   4.739   0.576
  725TIP3   OH2 2180   4.505   5.398   4.805
  725TIP3    H1 2181   4.486   5.432   4.718
  725TIP3    H2 2182   4.420   5.373   4.841
  726TIP3   OH2 2183   5.047   1.224   1.005
  726TIP3    H1 2184   5.124   1.196   1.054
  726TIP3    H2 2185   4.986   1.150   1.012
  727TIP3   OH2 2186   2.483   3.402   3.869
  727TIP3    H1 2187   2.568   3.407   3.912
  727TIP3    H2 2188   2.501   3.363   3.783
  728TIP3   OH2 2189   5.427   4.694   2.070
  728TIP3    H1 2190   5.516   4.703   2.104
  728TIP3    H2 2191   5.421   4.602   2.042
  729TIP3   OH2 2192   4.711   3.925   4.618
  729TIP3    H1 2193   4.644   3.870   4.658
  729TIP3    H2 2194   4.662   3.996   4.575
  730TIP3   OH2 2195   1.085   5.636   5.061
  730TIP3    H1 2196   1.162   5.590   5.094
  730TIP3    H2 2197   1.053   5.581   4.989
  731TIP3   OH2 2198   5.731   0.357   4.155
  731TIP3    H1 2199   5.761   0.359   4.246
  731TIP3    H2 2200   5.689   0.271   4.146
  732TIP3   OH2 2201   3.234   3.670   0.323
  732TIP3    H1 2202   3.202   3.580   0.313
  732TIP3    H2 2203   3.280   3.669   0.407
  733TIP3   OH2 2204   0.474   3.361   3.531
  733TIP3    H1 2205   0.502   3.452   3.519
  733TIP3    H2 2206   0.432   3.339   3.448
  734TIP3   OH2 2207   4.395   5.801   3.726
  734TIP3    H1 2208   4.371   5.832   3.639
  734TIP3    H2 2209   4.394   5.705   3.718
  735TIP3   OH2 2210   6.214   2.279   2.585
  735TIP3    H1 2211   6.130   2.259   2.627
  735TIP3    H2 2212   6.275   2.289   2.658
  736TIP3   OH2 2213   1.902   5.848   3.298
  736TIP3    H1 2214   1.945   5.909   3.358
  736TIP3    H2 2215   1.809   5.851   3.324
  737TIP3   OH2 2216   4.023   0.642   3.711
  737TIP3    H1 2217   4.061   0.571   3.659
  737TIP3    H2 2218   4.017   0.716   3.651
  738TIP3   OH2 2219   5.452   1.055   3.422
  738TIP3    H1 2220   5.506   1.109   3.364
  738TIP3    H2 2221   5.476   1.083   3.511
  739TIP3   OH2 2222   2.847   5.728   2.573
  739TIP3    H1 2223   2.837   5.654   2.513
  739TIP3    H2 2224   2.940   5.728   2.595
  740TIP3   OH2 2225   2.373   2.909   4.313
  740TIP3    H1 2226   2.451   2.859   4.334
  740TIP3    H2 2227   2.347   2.879   4.226
  741TIP3   OH2 2228   3.627   2.637   0.993
  741TIP3    H1 2229   3.598   2.618   1.082
  741TIP3    H2 2230   3.609   2.557   0.944
  742TIP3   OH2 2231   3.138   3.927   3.265
  742TIP3    H1 2232   3.045   3.905   3.277
  742TIP3    H2 2233   3.173   3.853   3.216
  743TIP3   OH2 2234   0.266   1.454   1.493
  743TIP3    H1 2235   0.314   1.450   1.576
  743TIP3    H2 2236   0.274   1.366   1.457
  744TIP3   OH2 2237   0.258   3.072   4.901
  744TIP3    H1 2238   0.296   3.004   4.846
  744TIP3    H2 2239   0.200   3.121   4.843
  745TIP3   OH2 2240   5.534   2.468   4.725
  745TIP3    H1 2241   5.544   2.403   4.655
  745TIP3    H2 2242   5.501   2.546   4.681
  746TIP3   OH2 2243   4.378   5.525   0.018
  746TIP3    H1 2244   4.303   5.561  -0.029
  746TIP3    H2 2245   4.344   5.500   0.103
  747TIP3   OH2 2246   3.822  -0.030   0.978
  747TIP3    H1 2247   3.896  -0.081   1.011
  747TIP3    H2 2248   3.858   0.017   0.902
  748TIP3   OH2 2249   5.773   5.963   0.898
  748TIP3    H1 2250   5.684   5.995   0.909
  748TIP3    H2 2251   5.812   5.971   0.986
  749TIP3   OH2 2252   2.670   0.523   1.739
  749TIP3    H1 2253   2.631   0.457   1.795
  749TIP3    H2 2254   2.657   0.490   1.650
  750TIP3   OH2 2255   5.863   0.775   2.154
  750TIP3    H1 2256   5.775   0.739   2.156
  750TIP3    H2 2257   5.870   0.818   2.069
  751TIP3   OH2 2258   1.188   5.677   2.031
  751TIP3    H1 2259   1.170   5.671   2.125
  751TIP3    H2 2260   1.177   5.769   2.010
  752TIP3   OH2 2261   4.591   3.083   3.807
  752TIP3    H1 2262   4.506   3.125   3.818
  752TIP3    H2 2263   4.584   3.002   3.856
  753TIP3   OH2 2264   2.786   1.651   3.884
  753TIP3    H1 2265   2.866   1.695   3.856
  753TIP3    H2 2266   2.716   1.713   3.860
  754TIP3   OH2 2267   1.516   2.160   2.881
  754TIP3    H1 2268   1.444   2.157   2.817
  754TIP3    H2 2269   1.493   2.093   2.946
  755TIP3   OH2 2270   4.684   1.095   1.091
  755TIP3    H1 2271   4.660   1.091   0.998
  755TIP3    H2 2272   4.772   1.057   1.094
  756TIP3   OH2 2273   1.190   3.159   1.259
  756TIP3    H1 2274   1.261   3.182   1.198
  756TIP3    H2 2275   1.162   3.243   1.296
  757TIP3   OH2 2276   1.854   1.779   4.959
  757TIP3    H1 2277   1.946   1.771   4.984
  757TIP3    H2 2278   1.813   1.700   4.995
  758TIP3   OH2 2279   6.044   0.188   2.663
  758TIP3    H1 2280   6.058   0.264   2.606
  758TIP3    H2 2281   5.960   0.152   2.633
  759TIP3   OH2 2282   5.300   0.086   1.006
  759TIP3    H1 2283   5.357   0.084   0.929
  759TIP3    H2 2284   5.345   0.144   1.067
  760TIP3   OH2 2285   2.501   0.764   2.638
  760TIP3    H1 2286   2.502   0.790   2.545
  760TIP3    H2 2287   2.591   0.741   2.657
  761TIP3   OH2 2288   0.948   1.430   1.715
  761TIP3    H1 2289   1.013   1.368   1.749
  761TIP3    H2 2290   0.864   1.396   1.746
  762TIP3   OH2 2291   3.303   3.061   2.149
  762TIP3    H1 2292   3.392   3.090   2.128
  762TIP3    H2 2293   3.264   3.041   2.064
  763TIP3   OH2 2294   2.160   1.456   0.242
  763TIP3    H1 2295   2.120   1.408   0.314
  763TIP3    H2 2296   2.086   1.496   0.196
  764TIP3   OH2 2297   6.011   5.695   2.234
  764TIP3    H1 2298   5.959   5.774   2.222
  764TIP3    H2 2299   6.098   5.726   2.259
  765TIP3   OH2 2300   0.929   0.885   3.685
  765TIP3    H1 2301   0.879   0.817   3.730
  765TIP3    H2 2302   0.991   0.837   3.630
  766TIP3   OH2 2303   0.261   5.749   2.985
  766TIP3    H1 2304   0.278   5.814   3.053
  766TIP3    H2 2305   0.255   5.800   2.904
  767TIP3   OH2 2306   4.937   0.715   2.107
  767TIP3    H1 2307   4.910   0.681   2.022
  767TIP3    H2 2308   4.874   0.677   2.169
  768TIP3   OH2 2309   4.369   5.854   3.987
  768TIP3    H1 2310   4.386   5.845   3.893
  768TIP3    H2 2311   4.277   5.876   3.994
  769TIP3   OH2 2312   3.450   3.786   4.405
  769TIP3    H1 2313   3.426   3.782   4.498
  769TIP3    H2 2314   3.413   3.707   4.367
  770TIP3   OH2 2315   1.315   5.700   1.475
  770TIP3    H1 2316   1.330   5.653   1.557
  770TIP3    H2 2317   1.255   5.770   1.498
  771TIP3   OH2 2318   4.841   5.181   3.569
  771TIP3    H1 2319   4.900   5.219   3.505
  771TIP3    H2 2320   4.875   5.208   3.654
  772TIP3   OH2 2321   2.957   2.478   2.580
  772TIP3    H1 2322   3.043   2.520   2.573
  772TIP3    H2 2323   2.915   2.495   2.496
  773TIP3   OH2 2324   6.139   3.579   0.980
  773TIP3    H1 2325   6.082   3.567   0.905
  773TIP3    H2 2326   6.224   3.604   0.943
  774TIP3   OH2 2327   5.222   3.775   0.047
  774TIP3    H1 2328   5.314   3.776   0.072
  774TIP3    H2 2329   5.191   3.687   0.069
  775TIP3   OH2 2330   4.999   4.575   1.737
  775TIP3    H1 2331   4.926   4.636   1.724
  775TIP3    H2 2332   5.055   4.619   1.801
  776TIP3   OH2 2333   0.010   5.369   1.452
  776TIP3    H1 2334  -0.027   5.363   1.540
  776TIP3    H2 2335   0.028   5.278   1.427
  777TIP3   OH2 2336   6.140   0.919   1.474
  777TIP3    H1 2337   6.178   1.007   1.471
  777TIP3    H2 2338   6.070   0.922   1.408
  778TIP3   OH2 2339   5.273   3.093   4.374
  778TIP3    H1 2340   5.348   3.050   4.415
  778TIP3    H2 2341   5.232   3.143   4.444
  779TIP3   OH2 2342   5.320   4.935   2.005
  779TIP3    H1 2343   5.391   4.881   2.042
  779TIP3    H2 2344   5.311   4.902   1.916
  780TIP3   OH2 2345   3.774   3.649   4.699
  780TIP3    H1 2346   3.692   3.599   4.700
  780TIP3    H2 2347   3.758   3.722   4.760
  781TIP3   OH2 2348   5.697   5.863   2.037
  781TIP3    H1 2349   5.670   5.892   1.950
  781TIP3    H2 2350   5.665   5.773   2.044
  782TIP3   OH2 2351   3.061   0.535   5.035
  782TIP3    H1 2352   3.099   0.587   4.965
  782TIP3    H2 2353   3.131   0.530   5.101
  783TIP3   OH2 2354   2.473   3.024   4.678
  783TIP3    H1 2355   2.463   3.101   4.735
  783TIP3    H2 2356   2.527   3.055   4.606
  784TIP3   OH2 2357   3.950   3.405   1.724
  784TIP3    H1 2358   3.887   3.369   1.787
  784TIP3    H2 2359   3.904   3.478   1.682
  785TIP3   OH2 2360   4.513   5.951   5.018
  785TIP3    H1 2361   4.555   5.971   4.934
  785TIP3    H2 2362   4.420   5.944   4.996
  786TIP3   OH2 2363   4.928   3.720   2.683
  786TIP3    H1 2364   4.973   3.730   2.599
  786TIP3    H2 2365   4.847   3.675   2.662
  787TIP3   OH2 2366   2.309   1.178   3.942
  787TIP3    H1 2367   2.281   1.235   3.870
  787TIP3    H2 2368   2.400   1.157   3.922
  788TIP3   OH2 2369   0.874   2.693   0.447
  788TIP3    H1 2370   0.847   2.666   0.359
  788TIP3    H2 2371   0.841   2.782   0.457
  789TIP3   OH2 2372   2.599   5.926   4.641
  789TIP3    H1 2373   2.638   5.988   4.579
  789TIP3    H2 2374   2.674   5.886   4.685
  790TIP3   OH2 2375   0.366   3.999   4.179
  790TIP3    H1 2376   0.289   3.967   4.131
  790TIP3    H2 2377   0.381   3.935   4.247
  791TIP3   OH2 2378   0.914   1.367   4.621
  791TIP3    H1 2379   0.995   1.416   4.611
  791TIP3    H2 2380   0.850   1.430   4.653
  792TIP3   OH2 2381   5.708   4.206   2.104
  792TIP3    H1 2382   5.788   4.221   2.053
  792TIP3    H2 2383   5.642   4.183   2.038
  793TIP3   OH2 2384   1.420   2.184   1.720
  793TIP3    H1 2385   1.510   2.209   1.699
  793TIP3    H2 2386   1.430   2.111   1.782
  794TIP3   OH2 2387   3.677   1.423   1.281
  794TIP3    H1 2388   3.658   1.485   1.210
  794TIP3    H2 2389   3.592   1.389   1.307
  795TIP3   OH2 2390   5.475   4.970   2.506
  795TIP3    H1 2391   5.537   4.992   2.436
  795TIP3    H2 2392   5.450   5.054   2.543
  796TIP3   OH2 2393   2.275   0.565   2.707
  796TIP3    H1 2394   2.370   0.565   2.704
  796TIP3    H2 2395   2.253   0.573   2.800
  797TIP3   OH2 2396   4.827   2.315   2.358
  797TIP3    H1 2397   4.772   2.254   2.310
  797TIP3    H2 2398   4.845   2.386   2.296
  798TIP3   OH2 2399   1.586   0.924   4.589
  798TIP3    H1 2400   1.496   0.925   4.623
  798TIP3    H2 2401   1.641   0.926   4.668
  799TIP3   OH2 2402   6.200   4.983   3.652
  799TIP3    H1 2403   6.146   4.997   3.574
  799TIP3    H2 2404   6.171   5.050   3.714
  800TIP3   OH2 2405   2.179   4.901   0.979
  800TIP3    H1 2406   2.208   4.816   1.012
  800TIP3    H2 2407   2.243   4.924   0.912
  801TIP3   OH2 2408   0.215   5.961   4.998
  801TIP3    H1 2409   0.170   5.920   5.071
  801TIP3    H2 2410   0.264   5.890   4.957
  802TIP3   OH2 2411   4.934   3.581   0.588
  802TIP3    H1 2412   4.886   3.537   0.659
  802TIP3    H2 2413   4.867   3.601   0.523
  803TIP3   OH2 2414   0.155   5.591   3.195
  803TIP3    H1 2415   0.101   5.643   3.255
  803TIP3    H2 2416   0.180   5.653   3.126
  804TIP3   OH2 2417   6.018   1.516   4.415
  804TIP3    H1 2418   5.980   1.590   4.462
  804TIP3    H2 2419   5.942   1.463   4.387
  805TIP3   OH2 2420   1.544   2.729   0.387
  805TIP3    H1 2421   1.453   2.756   0.378
  805TIP3    H2 2422   1.590   2.808   0.415
  806TIP3   OH2 2423   4.443   5.576   0.352
  806TIP3    H1 2424   4.419   5.562   0.443
  806TIP3    H2 2425   4.473   5.667   0.348
  807TIP3   OH2 2426   5.495   2.136   3.513
  807TIP3    H1 2427   5.505   2.076   3.586
  807TIP3    H2 2428   5.439   2.206   3.547
  808TIP3   OH2 2429   5.124   0.336   1.226
  808TIP3    H1 2430   5.166   0.408   1.273
  808TIP3    H2 2431   5.036   0.368   1.207
  809TIP3   OH2 2432   3.124   5.000   3.165
  809TIP3    H1 2433   3.114   5.089   3.132
  809TIP3    H2 2434   3.087   4.944   3.097
  810TIP3   OH2 2435   6.228   1.639   1.811
  810TIP3    H1 2436   6.255   1.636   1.719
  810TIP3    H2 2437   6.162   1.571   1.819
  811TIP3   OH2 2438   1.455   3.250   1.163
  811TIP3    H1 2439   1.503   3.174   1.132
  811TIP3    H2 2440   1.505   3.325   1.132
  812TIP3   OH2 2441   0.156   3.135   1.084
  812TIP3    H1 2442   0.100   3.092   1.020
  812TIP3    H2 2443   0.146   3.083   1.164
  813TIP3   OH2 2444   3.785   0.255   1.735
  813TIP3    H1 2445   3.803   0.182   1.675
  813TIP3    H2 2446   3.723   0.219   1.798
  814TIP3   OH2 2447   4.385   3.686   3.190
  814TIP3    H1 2448   4.463   3.701   3.243
  814TIP3    H2 2449   4.417   3.636   3.114
  815TIP3   OH2 2450   2.649   2.960   3.514
  815TIP3    H1 2451   2.606   2.954   3.599
  815TIP3    H2 2452   2.584   2.926   3.452
  816TIP3   OH2 2453   0.731   5.264   0.065
  816TIP3    H1 2454   0.693   5.185   0.028
  816TIP3    H2 2455   0.659   5.308   0.109
  817TIP3   OH2 2456   3.345   2.238   1.888
  817TIP3    H1 2457   3.305   2.206   1.807
  817TIP3    H2 2458   3.289   2.203   1.957
  818TIP3   OH2 2459   4.685   4.972   2.526
  818TIP3    H1 2460   4.728   4.911   2.466
  818TIP3    H2 2461   4.695   5.058   2.485
  819TIP3   OH2 2462   4.598   1.117   0.801
  819TIP3    H1 2463   4.610   1.206   0.836
  819TIP3    H2 2464   4.503   1.108   0.792
  820TIP3   OH2 2465   3.439   3.864   2.119
  820TIP3    H1 2466   3.490   3.854   2.199
  820TIP3    H2 2467   3.359   3.909   2.146
  821TIP3   OH2 2468   5.058   5.197   4.895
  821TIP3    H1 2469   5.053   5.102   4.899
  821TIP3    H2 2470   5.102   5.221   4.977
  822TIP3   OH2 2471   4.347   5.745   2.241
  822TIP3    H1 2472   4.406   5.732   2.315
  822TIP3    H2 2473   4.333   5.840   2.238
  823TIP3   OH2 2474   2.141   3.609   0.121
  823TIP3    H1 2475   2.200   3.549   0.076
  823TIP3    H2 2476   2.079   3.637   0.054
  824TIP3   OH2 2477   4.037   0.746   4.221
  824TIP3    H1 2478   4.072   0.661   4.194
  824TIP3    H2 2479   3.947   0.727   4.247
  825TIP3   OH2 2480   2.462   5.999   1.934
  825TIP3    H1 2481   2.539   6.056   1.931
  825TIP3    H2 2482   2.453   5.967   1.844
  826TIP3   OH2 2483   0.905   1.726   4.302
  826TIP3    H1 2484   0.970   1.679   4.250
  826TIP3    H2 2485   0.880   1.801   4.247
  827TIP3   OH2 2486   3.431   1.838   1.720
  827TIP3    H1 2487   3.462   1.888   1.644
  827TIP3    H2 2488   3.470   1.882   1.795
  828TIP3   OH2 2489   0.539   5.890   5.039
  828TIP3    H1 2490   0.633   5.898   5.053
  828TIP3    H2 2491   0.529   5.815   4.979
  829TIP3   OH2 2492   4.184   3.519   1.314
  829TIP3    H1 2493   4.222   3.589   1.260
  829TIP3    H2 2494   4.159   3.563   1.395
  830TIP3   OH2 2495   5.008   4.344   3.661
  830TIP3    H1 2496   5.055   4.292   3.596
  830TIP3    H2 2497   5.073   4.406   3.694
  831TIP3   OH2 2498   0.097   0.579   3.227
  831TIP3    H1 2499   0.063   0.655   3.273
  831TIP3    H2 2500   0.123   0.612   3.141
  832TIP3   OH2 2501   1.311   0.460   2.910
  832TIP3    H1 2502   1.279   0.474   2.999
  832TIP3    H2 2503   1.306   0.365   2.898
  833TIP3   OH2 2504   4.885   1.176   2.044
  833TIP3    H1 2505   4.934   1.097   2.070
  833TIP3    H2 2506   4.951   1.246   2.046
  834TIP3   OH2 2507   5.820   5.741   2.515
  834TIP3    H1 2508   5.880   5.742   2.441
  834TIP3    H2 2509   5.764   5.665   2.500
  835TIP3   OH2 2510   5.022   1.868   2.218
  835TIP3    H1 2511   4.952   1.806   2.239
  835TIP3    H2 2512   5.037   1.916   2.299
  836TIP3   OH2 2513   2.535   2.966   2.523
  836TIP3    H1 2514   2.584   3.030   2.574
  836TIP3    H2 2515   2.467   2.934   2.583
  837TIP3   OH2 2516   5.774   3.067   4.080
  837TIP3    H1 2517   5.688   3.094   4.047
  837TIP3    H2 2518   5.833   3.137   4.054
  838TIP3   OH2 2519   3.819   0.234   3.195
  838TIP3    H1 2520   3.859   0.319   3.213
  838TIP3    H2 2521   3.756   0.252   3.125
  839TIP3   OH2 2522   1.432   1.903   1.133
  839TIP3    H1 2523   1.505   1.847   1.158
  839TIP3    H2 2524   1.354   1.848   1.141
  840TIP3   OH2 2525   0.549   3.026   1.907
  840TIP3    H1 2526   0.556   2.963   1.836
  840TIP3    H2 2527   0.469   3.001   1.953
  841TIP3   OH2 2528   5.686   1.529   4.195
  841TIP3    H1 2529   5.768   1.530   4.147
  841TIP3    H2 2530   5.707   1.486   4.278
  842TIP3   OH2 2531   2.088   4.861   1.555
  842TIP3    H1 2532   2.054   4.865   1.466
  842TIP3    H2 2533   2.052   4.938   1.599
  843TIP3   OH2 2534   1.473   1.882   4.974
  843TIP3    H1 2535   1.454   1.869   4.882
  843TIP3    H2 2536   1.406   1.943   5.004
  844TIP3   OH2 2537   3.349   0.077   0.773
  844TIP3    H1 2538   3.264   0.121   0.771
  844TIP3    H2 2539   3.412   0.146   0.793
  845TIP3   OH2 2540   5.031   4.011   2.695
  845TIP3    H1 2541   5.015   3.917   2.683
  845TIP3    H2 2542   4.989   4.052   2.619
  846TIP3   OH2 2543   6.269   1.102   4.114
  846TIP3    H1 2544   6.303   1.090   4.026
  846TIP3    H2 2545   6.248   1.013   4.144
  847TIP3   OH2 2546   5.478   5.300   3.139
  847TIP3    H1 2547   5.566   5.271   3.113
  847TIP3    H2 2548   5.425   5.220   3.139
  848TIP3   OH2 2549   0.837   5.928   4.220
  848TIP3    H1 2550   0.841   5.843   4.176
  848TIP3    H2 2551   0.913   5.976   4.188
  849TIP3   OH2 2552   3.463   3.445   2.891
  849TIP3    H1 2553   3.388   3.403   2.850
  849TIP3    H2 2554   3.534   3.434   2.828
  850TIP3   OH2 2555   5.476   2.852   4.782
  850TIP3    H1 2556   5.446   2.939   4.806
  850TIP3    H2 2557   5.572   2.857   4.789
  851TIP3   OH2 2558   5.268   5.013   0.053
  851TIP3    H1 2559   5.178   5.005   0.024
  851TIP3    H2 2560   5.276   5.103   0.083
  852TIP3   OH2 2561   5.418   0.585   3.864
  852TIP3    H1 2562   5.331   0.571   3.903
  852TIP3    H2 2563   5.454   0.658   3.914
  853TIP3   OH2 2564   4.125   1.184   0.817
  853TIP3    H1 2565   4.083   1.243   0.755
  853TIP3    H2 2566   4.201   1.234   0.848
  854TIP3   OH2 2567   4.187   3.294   3.165
  854TIP3    H1 2568   4.178   3.199   3.158
  854TIP3    H2 2569   4.098   3.327   3.175
  855TIP3   OH2 2570   1.423   4.965   4.499
  855TIP3    H1 2571   1.442   4.918   4.418
  855TIP3    H2 2572   1.353   4.915   4.540
  856TIP3   OH2 2573   1.932   5.129   3.426
  856TIP3    H1 2574   1.994   5.198   3.448
  856TIP3    H2 2575   1.874   5.123   3.503
  857TIP3   OH2 2576   3.786   4.924   0.242
  857TIP3    H1 2577   3.794   4.829   0.235
  857TIP3    H2 2578   3.701   4.944   0.201
  858TIP3   OH2 2579   4.167   1.178   2.431
  858TIP3    H1 2580   4.173   1.222   2.516
  858TIP3    H2 2581   4.256   1.184   2.395
  859TIP3   OH2 2582   0.835   1.104   1.577
  859TIP3    H1 2583   0.838   1.014   1.609
  859TIP3    H2 2584   0.898   1.107   1.505
  860TIP3   OH2 2585   0.383   3.158   2.212
  860TIP3    H1 2586   0.353   3.116   2.131
  860TIP3    H2 2587   0.309   3.148   2.272
  861TIP3   OH2 2588   3.103   2.821   0.910
  861TIP3    H1 2589   3.103   2.832   1.006
  861TIP3    H2 2590   3.129   2.907   0.876
  862TIP3   OH2 2591   2.663   5.175   0.379
  862TIP3    H1 2592   2.607   5.212   0.311
  862TIP3    H2 2593   2.653   5.081   0.370
  863TIP3   OH2 2594   3.617   0.209   1.307
  863TIP3    H1 2595   3.707   0.227   1.281
  863TIP3    H2 2596   3.568   0.208   1.225
  864TIP3   OH2 2597   5.801   0.405   1.207
  864TIP3    H1 2598   5.831   0.377   1.294
  864TIP3    H2 2599   5.851   0.485   1.190
  865TIP3   OH2 2600   5.073   2.424   3.862
  865TIP3    H1 2601   5.071   2.511   3.900
  865TIP3    H2 2602   4.981   2.397   3.858
  866TIP3   OH2 2603   4.114   5.903   0.679
  866TIP3    H1 2604   4.137   5.842   0.608
  866TIP3    H2 2605   4.024   5.930   0.660
  867TIP3   OH2 2606   2.863   0.679   4.442
  867TIP3    H1 2607   2.767   0.684   4.436
  867TIP3    H2 2608   2.882   0.585   4.438
  868TIP3   OH2 2609   5.301   0.691   0.357
  868TIP3    H1 2610   5.366   0.710   0.424
  868TIP3    H2 2611   5.220   0.674   0.406
  869TIP3   OH2 2612   3.806   4.729   1.083
  869TIP3    H1 2613   3.829   4.736   0.990
  869TIP3    H2 2614   3.733   4.790   1.094
  870TIP3   OH2 2615   0.087   2.964   2.548
  870TIP3    H1 2616   0.003   2.983   2.590
  870TIP3    H2 2617   0.150   2.965   2.619
  871TIP3   OH2 2618   5.671   3.962   3.928
  871TIP3    H1 2619   5.621   3.962   3.846
  871TIP3    H2 2620   5.762   3.952   3.900
  872TIP3   OH2 2621   3.778   3.310   3.941
  872TIP3    H1 2622   3.734   3.349   4.017
  872TIP3    H2 2623   3.774   3.377   3.873
  873TIP3   OH2 2624   4.276   0.665   3.327
  873TIP3    H1 2625   4.328   0.727   3.378
  873TIP3    H2 2626   4.321   0.582   3.337
  874TIP3   OH2 2627   3.838   4.502   2.631
  874TIP3    H1 2628   3.867   4.573   2.573
  874TIP3    H2 2629   3.776   4.544   2.691
  875TIP3   OH2 2630   2.829   0.968   1.725
  875TIP3    H1 2631   2.736   0.955   1.708
  875TIP3    H2 2632   2.853   1.044   1.672
  876TIP3   OH2 2633   1.860   3.047   1.769
  876TIP3    H1 2634   1.766   3.064   1.756
  876TIP3    H2 2635   1.903   3.127   1.741
  877TIP3   OH2 2636   2.951   3.939   4.598
  877TIP3    H1 2637   2.904   3.940   4.681
  877TIP3    H2 2638   2.919   4.015   4.551
  878TIP3   OH2 2639   5.275   4.322   0.311
  878TIP3    H1 2640   5.352   4.369   0.345
  878TIP3    H2 2641   5.284   4.233   0.345
  879TIP3   OH2 2642   2.443   4.586   1.784
  879TIP3    H1 2643   2.425   4.639   1.706
  879TIP3    H2 2644   2.451   4.497   1.751
  880TIP3   OH2 2645   2.343   5.777   2.110
  880TIP3    H1 2646   2.378   5.829   2.037
  880TIP3    H2 2647   2.394   5.696   2.108
  881TIP3   OH2 2648   5.483   3.819   0.167
  881TIP3    H1 2649   5.536   3.770   0.104
  881TIP3    H2 2650   5.545   3.878   0.209
  882TIP3   OH2 2651   4.269   5.326   4.901
  882TIP3    H1 2652   4.185   5.369   4.887
  882TIP3    H2 2653   4.300   5.359   4.985
  883TIP3   OH2 2654   2.978   1.606   3.229
  883TIP3    H1 2655   2.910   1.595   3.295
  883TIP3    H2 2656   3.031   1.527   3.236
  884TIP3   OH2 2657   3.231   1.963   2.876
  884TIP3    H1 2658   3.149   1.933   2.838
  884TIP3    H2 2659   3.281   1.996   2.801
  885TIP3   OH2 2660   1.279   0.991   3.488
  885TIP3    H1 2661   1.204   1.047   3.466
  885TIP3    H2 2662   1.320   0.972   3.404
  886TIP3   OH2 2663   1.863   1.971   2.775
  886TIP3    H1 2664   1.857   1.938   2.685
  886TIP3    H2 2665   1.936   1.922   2.814
  887TIP3   OH2 2666   3.816   3.867   2.538
  887TIP3    H1 2667   3.831   3.953   2.579
  887TIP3    H2 2668   3.804   3.807   2.611
  888TIP3   OH2 2669   0.905   3.222   3.258
  888TIP3    H1 2670   0.989   3.231   3.302
  888TIP3    H2 2671   0.868   3.311   3.257
  889TIP3   OH2 2672   3.709   0.579   4.526
  889TIP3    H1 2673   3.625   0.613   4.496
  889TIP3    H2 2674   3.687   0.496   4.569
  890TIP3   OH2 2675   1.554   4.492   0.032
  890TIP3    H1 2676   1.516   4.574   0.064
  890TIP3    H2 2677   1.588   4.448   0.110
  891TIP3   OH2 2678   1.558   4.326   4.212
  891TIP3    H1 2679   1.610   4.401   4.183
  891TIP3    H2 2680   1.492   4.315   4.144
  892TIP3   OH2 2681   1.941   0.853   3.888
  892TIP3    H1 2682   2.015   0.887   3.938
  892TIP3    H2 2683   1.979   0.783   3.834
  893TIP3   OH2 2684   4.187   5.564   5.164
  893TIP3    H1 2685   4.206   5.643   5.213
  893TIP3    H2 2686   4.126   5.592   5.096
  894TIP3   OH2 2687   2.751   5.046   3.566
  894TIP3    H1 2688   2.771   5.092   3.485
  894TIP3    H2 2689   2.777   5.106   3.635
  895TIP3   OH2 2690   5.203   5.779   0.664
  895TIP3    H1 2691   5.186   5.841   0.593
  895TIP3    H2 2692   5.298   5.767   0.662
  896TIP3   OH2 2693   2.538   0.193   4.445
  896TIP3    H1 2694   2.614   0.159   4.398
  896TIP3    H2 2695   2.467   0.191   4.380
  897TIP3   OH2 2696   2.682   3.553   0.839
  897TIP3    H1 2697   2.718   3.530   0.753
  897TIP3    H2 2698   2.627   3.478   0.862
  898TIP3   OH2 2699   3.161   1.588   1.482
  898TIP3    H1 2700   3.202   1.640   1.413
  898TIP3    H2 2701   3.067   1.606   1.474
  899TIP3   OH2 2702   0.144   4.413   0.566
  899TIP3    H1 2703   0.145   4.321   0.594
  899TIP3    H2 2704   0.052   4.434   0.554
  900TIP3   OH2 2705   6.140   0.116   1.694
  900TIP3    H1 2706   6.193   0.196   1.693
  900TIP3    H2 2707   6.151   0.082   1.783
  901TIP3   OH2 2708   2.212   1.874   0.123
  901TIP3    H1 2709   2.132   1.848   0.169
  901TIP3    H2 2710   2.183   1.936   0.056
  902TIP3   OH2 2711   2.150   1.175   0.106
  902TIP3    H1 2712   2.116   1.246   0.051
  902TIP3    H2 2713   2.072   1.131   0.140
  903TIP3   OH2 2714   2.536   3.778   0.866
  903TIP3    H1 2715   2.549   3.833   0.789
  903TIP3    H2 2716   2.603   3.710   0.859
  904TIP3   OH2 2717   3.837   2.030   0.651
  904TIP3    H1 2718   3.880   2.097   0.598
  904TIP3    H2 2719   3.865   1.947   0.612
  905TIP3   OH2 2720   6.301   4.160   4.196
  905TIP3    H1 2721   6.343   4.204   4.269
  905TIP3    H2 2722   6.360   4.173   4.122
  906TIP3   OH2 2723   2.725   1.412   3.187
  906TIP3    H1 2724   2.678   1.388   3.267
  906TIP3    H2 2725   2.720   1.508   3.183
  907TIP3   OH2 2726   0.174   3.388   0.704
  907TIP3    H1 2727   0.205   3.479   0.705
  907TIP3    H2 2728   0.236   3.341   0.759
  908TIP3   OH2 2729   2.902   2.654   4.505
  908TIP3    H1 2730   2.811   2.675   4.523
  908TIP3    H2 2731   2.944   2.650   4.591
  909TIP3   OH2 2732   4.394   3.010   2.957
  909TIP3    H1 2733   4.402   3.105   2.969
  909TIP3    H2 2734   4.306   2.998   2.922
  910TIP3   OH2 2735   5.219   2.605   0.662
  910TIP3    H1 2736   5.125   2.616   0.648
  910TIP3    H2 2737   5.255   2.693   0.661
  911TIP3   OH2 2738   1.200   3.332   2.761
  911TIP3    H1 2739   1.184   3.423   2.784
  911TIP3    H2 2740   1.295   3.324   2.758
  912TIP3   OH2 2741   2.240   0.787   3.074
  912TIP3    H1 2742   2.278   0.827   2.996
  912TIP3    H2 2743   2.223   0.861   3.132
  913TIP3   OH2 2744   5.747   2.930   4.848
  913TIP3    H1 2745   5.753   2.851   4.903
  913TIP3    H2 2746   5.782   3.000   4.904
  914TIP3   OH2 2747   4.071   0.225   2.002
  914TIP3    H1 2748   4.004   0.286   2.031
  914TIP3    H2 2749   4.112   0.194   2.083
  915TIP3   OH2 2750   4.030   0.347   4.601
  915TIP3    H1 2751   4.125   0.348   4.592
  915TIP3    H2 2752   4.014   0.379   4.690
  916TIP3   OH2 2753   4.759   5.330   0.422
  916TIP3    H1 2754   4.732   5.354   0.333
  916TIP3    H2 2755   4.677   5.325   0.471
  917TIP3   OH2 2756   5.689   3.934   4.874
  917TIP3    H1 2757   5.667   3.879   4.799
  917TIP3    H2 2758   5.783   3.920   4.887
  918TIP3   OH2 2759   5.534   2.063   0.232
  918TIP3    H1 2760   5.495   1.988   0.187
  918TIP3    H2 2761   5.459   2.111   0.268
  919TIP3   OH2 2762   3.790   3.256   4.537
  919TIP3    H1 2763   3.739   3.298   4.606
  919TIP3    H2 2764   3.731   3.193   4.497
  920TIP3   OH2 2765   4.149   3.021   2.865
  920TIP3    H1 2766   4.148   3.100   2.811
  920TIP3    H2 2767   4.056   3.000   2.878
  921TIP3   OH2 2768   5.601   0.554   2.642
  921TIP3    H1 2769   5.683   0.599   2.619
  921TIP3    H2 2770   5.629   0.480   2.695
  922TIP3   OH2 2771   1.620   3.663   0.565
  922TIP3    H1 2772   1.607   3.572   0.540
  922TIP3    H2 2773   1.707   3.666   0.604
  923TIP3   OH2 2774   1.098   4.607   4.397
  923TIP3    H1 2775   1.054   4.683   4.435
  923TIP3    H2 2776   1.162   4.581   4.462
  924TIP3   OH2 2777   2.098   2.282   4.531
  924TIP3    H1 2778   2.005   2.302   4.526
  924TIP3    H2 2779   2.141   2.361   4.498
  925TIP3   OH2 2780   1.610   1.210   2.720
  925TIP3    H1 2781   1.528   1.162   2.733
  925TIP3    H2 2782   1.631   1.245   2.806
  926TIP3   OH2 2783   3.405   2.043   0.183
  926TIP3    H1 2784   3.426   2.100   0.108
  926TIP3    H2 2785   3.366   2.102   0.248
  927TIP3   OH2 2786   2.248   1.466   2.564
  927TIP3    H1 2787   2.176   1.407   2.585
  927TIP3    H2 2788   2.269   1.447   2.473
  928TIP3   OH2 2789   6.064   1.198   5.048
  928TIP3    H1 2790   6.041   1.289   5.067
  928TIP3    H2 2791   6.118   1.171   5.123
  929TIP3   OH2 2792   1.760   1.123   0.857
  929TIP3    H1 2793   1.831   1.167   0.810
  929TIP3    H2 2794   1.787   1.031   0.860
  930TIP3   OH2 2795   4.296   5.136   0.765
  930TIP3    H1 2796   4.381   5.104   0.737
  930TIP3    H2 2797   4.316   5.213   0.818
  931TIP3   OH2 2798   2.711   1.827   1.797
  931TIP3    H1 2799   2.713   1.744   1.749
  931TIP3    H2 2800   2.712   1.895   1.730
  932TIP3   OH2 2801   0.196   5.398   4.008
  932TIP3    H1 2802   0.239   5.373   3.926
  932TIP3    H2 2803   0.124   5.455   3.979
  933TIP3   OH2 2804   4.206   5.043   1.630
  933TIP3    H1 2805   4.199   5.138   1.623
  933TIP3    H2 2806   4.188   5.011   1.542
  934TIP3   OH2 2807   2.761   2.484   0.659
  934TIP3    H1 2808   2.832   2.549   0.663
  934TIP3    H2 2809   2.703   2.508   0.732
  935TIP3   OH2 2810   2.084   1.635   5.162
  935TIP3    H1 2811   2.136   1.569   5.116
  935TIP3    H2 2812   2.141   1.668   5.231
  936TIP3   OH2 2813   2.585   4.821   2.867
  936TIP3    H1 2814   2.600   4.875   2.945
  936TIP3    H2 2815   2.494   4.835   2.845
  937TIP3   OH2 2816   5.411   1.581  -0.010
  937TIP3    H1 2817   5.322   1.587   0.024
  937TIP3    H2 2818   5.439   1.491   0.008
  938TIP3   OH2 2819   2.813   4.293   2.569
  938TIP3    H1 2820   2.745   4.307   2.503
  938TIP3    H2 2821   2.863   4.218   2.537
  939TIP3   OH2 2822   0.461   2.566   4.526
  939TIP3    H1 2823   0.494   2.565   4.616
  939TIP3    H2 2824   0.367   2.547   4.535
  940TIP3   OH2 2825   4.872   0.230   3.153
  940TIP3    H1 2826   4.805   0.163   3.143
  940TIP3    H2 2827   4.954   0.184   3.137
  941TIP3   OH2 2828   3.929   5.813   2.989
  941TIP3    H1 2829   3.915   5.726   2.953
  941TIP3    H2 2830   4.023   5.829   2.979
  942TIP3   OH2 2831   2.218   1.575   4.005
  942TIP3    H1 2832   2.174   1.505   3.957
  942TIP3    H2 2833   2.173   1.655   3.977
  943TIP3   OH2 2834   3.761   1.808   2.826
  943TIP3    H1 2835   3.669   1.798   2.800
  943TIP3    H2 2836   3.773   1.903   2.833
  944TIP3   OH2 2837   2.652   5.552   5.062
  944TIP3    H1 2838   2.720   5.530   4.998
  944TIP3    H2 2839   2.614   5.468   5.087
  945TIP3   OH2 2840   2.634   1.600   4.238
  945TIP3    H1 2841   2.619   1.509   4.263
  945TIP3    H2 2842   2.629   1.600   4.142
  946TIP3   OH2 2843   5.912   5.858   4.927
  946TIP3    H1 2844   5.940   5.948   4.946
  946TIP3    H2 2845   5.902   5.818   5.014
  947TIP3   OH2 2846   2.321   0.172   4.264
  947TIP3    H1 2847   2.377   0.196   4.190
  947TIP3    H2 2848   2.270   0.097   4.232
  948TIP3   OH2 2849   4.302   2.861   0.017
  948TIP3    H1 2850   4.326   2.919   0.089
  948TIP3    H2 2851   4.308   2.773   0.053
  949TIP3   OH2 2852   4.664   2.996   0.610
  949TIP3    H1 2853   4.758   2.992   0.593
  949TIP3    H2 2854   4.623   2.988   0.524
  950TIP3   OH2 2855   3.300   1.100   3.469
  950TIP3    H1 2856   3.227   1.106   3.407
  950TIP3    H2 2857   3.320   1.191   3.491
  951TIP3   OH2 2858   3.850   4.891   0.730
  951TIP3    H1 2859   3.857   4.797   0.711
  951TIP3    H2 2860   3.813   4.929   0.651
  952TIP3   OH2 2861   0.676   5.284   3.783
  952TIP3    H1 2862   0.680   5.320   3.694
  952TIP3    H2 2863   0.747   5.220   3.786
  953TIP3   OH2 2864   2.205   4.140   3.639
  953TIP3    H1 2865   2.269   4.167   3.573
  953TIP3    H2 2866   2.148   4.216   3.650
  954TIP3   OH2 2867   3.027   2.673   4.742
  954TIP3    H1 2868   3.008   2.722   4.822
  954TIP3    H2 2869   3.111   2.632   4.759
  955TIP3   OH2 2870   5.929   2.703   1.162
  955TIP3    H1 2871   5.944   2.694   1.256
  955TIP3    H2 2872   5.927   2.798   1.148
  956TIP3   OH2 2873   1.589   1.444   0.709
  956TIP3    H1 2874   1.499   1.457   0.741
  956TIP3    H2 2875   1.580   1.381   0.638
  957TIP3   OH2 2876   0.761   5.917   2.459
  957TIP3    H1 2877   0.769   5.978   2.385
  957TIP3    H2 2878   0.803   5.961   2.532
  958TIP3   OH2 2879   0.873   1.271   0.170
  958TIP3    H1 2880   0.897   1.360   0.194
  958TIP3    H2 2881   0.815   1.281   0.094
  959TIP3   OH2 2882   0.278   4.522   0.997
  959TIP3    H1 2883   0.263   4.596   0.938
  959TIP3    H2 2884   0.233   4.448   0.955
  960TIP3   OH2 2885   0.180   1.167   1.490
  960TIP3    H1 2886   0.085   1.164   1.480
  960TIP3    H2 2887   0.199   1.097   1.553
  961TIP3   OH2 2888   1.331   4.201   1.918
  961TIP3    H1 2889   1.357   4.221   2.008
  961TIP3    H2 2890   1.261   4.263   1.899
  962TIP3   OH2 2891   3.467   2.059   0.832
  962TIP3    H1 2892   3.386   2.044   0.880
  962TIP3    H2 2893   3.439   2.099   0.750
  963TIP3   OH2 2894   3.335   2.714   1.086
  963TIP3    H1 2895   3.385   2.633   1.080
  963TIP3    H2 2896   3.248   2.686   1.114
  964TIP3   OH2 2897   3.632   3.410   4.748
  964TIP3    H1 2898   3.578   3.394   4.825
  964TIP3    H2 2899   3.572   3.406   4.674
  965TIP3   OH2 2900   3.061   5.057   3.580
  965TIP3    H1 2901   3.002   5.122   3.619
  965TIP3    H2 2902   3.121   5.034   3.651
  966TIP3   OH2 2903   5.724   5.152   0.858
  966TIP3    H1 2904   5.732   5.174   0.951
  966TIP3    H2 2905   5.646   5.198   0.829
  967TIP3   OH2 2906   2.581   2.600   4.991
  967TIP3    H1 2907   2.519   2.619   4.921
  967TIP3    H2 2908   2.537   2.630   5.071
  968TIP3   OH2 2909   5.051   0.402   4.489
  968TIP3    H1 2910   5.105   0.460   4.543
  968TIP3    H2 2911   4.965   0.404   4.530
  969TIP3   OH2 2912   3.906   1.552   3.111
  969TIP3    H1 2913   3.981   1.591   3.155
  969TIP3    H2 2914   3.926   1.562   3.017
  970TIP3   OH2 2915   0.677   5.095   2.732
  970TIP3    H1 2916   0.628   5.168   2.694
  970TIP3    H2 2917   0.650   5.092   2.823
  971TIP3   OH2 2918   5.879   3.619   0.453
  971TIP3    H1 2919   5.845   3.709   0.455
  971TIP3    H2 2920   5.972   3.628   0.473
  972TIP3   OH2 2921   3.947   3.326   0.840
  972TIP3    H1 2922   3.862   3.319   0.884
  972TIP3    H2 2923   4.010   3.335   0.912
  973TIP3   OH2 2924   5.712   5.231   1.600
  973TIP3    H1 2925   5.647   5.298   1.621
  973TIP3    H2 2926   5.681   5.153   1.647
  974TIP3   OH2 2927   2.826   3.310   1.553
  974TIP3    H1 2928   2.839   3.315   1.648
  974TIP3    H2 2929   2.798   3.220   1.538
  975TIP3   OH2 2930   3.234   3.157   0.359
  975TIP3    H1 2931   3.240   3.078   0.305
  975TIP3    H2 2932   3.141   3.164   0.381
  976TIP3   OH2 2933   5.061   2.898   1.866
  976TIP3    H1 2934   5.127   2.900   1.797
  976TIP3    H2 2935   5.106   2.930   1.944
  977TIP3   OH2 2936   2.538   5.711   4.468
  977TIP3    H1 2937   2.532   5.799   4.506
  977TIP3    H2 2938   2.447   5.688   4.448
  978TIP3   OH2 2939   6.208   4.821   2.492
  978TIP3    H1 2940   6.264   4.857   2.423
  978TIP3    H2 2941   6.225   4.876   2.568
  979TIP3   OH2 2942   2.363   5.403   0.465
  979TIP3    H1 2943   2.386   5.341   0.396
  979TIP3    H2 2944   2.296   5.459   0.426
  980TIP3   OH2 2945   3.954   2.592   4.695
  980TIP3    H1 2946   3.948   2.545   4.611
  980TIP3    H2 2947   4.038   2.637   4.691
  981TIP3   OH2 2948   1.231   2.913   0.108
  981TIP3    H1 2949   1.198   3.000   0.084
  981TIP3    H2 2950   1.244   2.868   0.025
  982TIP3   OH2 2951   1.116   4.203   0.783
  982TIP3    H1 2952   1.100   4.286   0.738
  982TIP3    H2 2953   1.194   4.168   0.740
  983TIP3   OH2 2954   0.453   5.629   3.504
  983TIP3    H1 2955   0.431   5.610   3.595
  983TIP3    H2 2956   0.419   5.717   3.489
  984TIP3   OH2 2957   0.702   1.927   2.647
  984TIP3    H1 2958   0.729   1.978   2.571
  984TIP3    H2 2959   0.773   1.937   2.711
  985TIP3   OH2 2960   1.033   2.362   1.752
  985TIP3    H1 2961   1.049   2.289   1.691
  985TIP3    H2 2962   0.957   2.334   1.803
  986TIP3   OH2 2963   3.383   5.821   0.152
  986TIP3    H1 2964   3.380   5.738   0.200
  986TIP3    H2 2965   3.374   5.888   0.219
  987TIP3   OH2 2966   3.189   0.203   3.754
  987TIP3    H1 2967   3.270   0.177   3.710
  987TIP3    H2 2968   3.218   0.244   3.836
  988TIP3   OH2 2969   1.571   2.956   1.979
  988TIP3    H1 2970   1.524   2.889   2.029
  988TIP3    H2 2971   1.649   2.912   1.946
  989TIP3   OH2 2972   4.016   5.591   3.515
  989TIP3    H1 2973   4.005   5.579   3.421
  989TIP3    H2 2974   4.001   5.684   3.530
  990TIP3   OH2 2975   0.850   4.976   1.169
  990TIP3    H1 2976   0.867   4.882   1.177
  990TIP3    H2 2977   0.910   5.017   1.231
  991TIP3   OH2 2978   2.501   4.937   3.156
  991TIP3    H1 2979   2.582   4.972   3.118
  991TIP3    H2 2980   2.453   5.015   3.185
  992TIP3   OH2 2981   3.137   5.398   1.823
  992TIP3    H1 2982   3.139   5.310   1.785
  992TIP3    H2 2983   3.225   5.432   1.810
  993TIP3   OH2 2984   4.304   3.878   1.614
  993TIP3    H1 2985   4.338   3.959   1.651
  993TIP3    H2 2986   4.371   3.849   1.553
  994TIP3   OH2 2987   6.017   5.194   0.260
  994TIP3    H1 2988   5.995   5.109   0.220
  994TIP3    H2 2989   6.111   5.203   0.246
  995TIP3   OH2 2990   5.764   3.042   0.953
  995TIP3    H1 2991   5.700   3.010   0.890
  995TIP3    H2 2992   5.784   3.131   0.924
  996TIP3   OH2 2993   3.876   5.028   4.962
  996TIP3    H1 2994   3.879   5.047   5.055
  996TIP3    H2 2995   3.965   5.045   4.931
  997TIP3   OH2 2996   5.671   4.145   1.004
  997TIP3    H1 2997   5.706   4.161   0.917
  997TIP3    H2 2998   5.747   4.119   1.056
  998TIP3   OH2 2999   2.693   0.926   4.647
  998TIP3    H1 3000   2.621   0.986   4.663
  998TIP3    H2 3001   2.667   0.844   4.689
  999TIP3   OH2 3002   3.137   0.055   3.358
  999TIP3    H1 3003   3.080   0.020   3.290
  999TIP3    H2 3004   3.226   0.039   3.327
 1000TIP3   OH2 3005   1.764   2.427   3.326
 1000TIP3    H1 3006   1.833   2.435   3.260
 1000TIP3    H2 3007   1.717   2.348   3.301
 1001TIP3   OH2 3008   2.003   2.804   0.730
 1001TIP3    H1 3009   1.942   2.731   0.724
 1001TIP3    H2 3010   2.088   2.766   0.712
 1002TIP3   OH2 3011   1.496   0.337   0.288
 1002TIP3    H1 3012   1.458   0.421   0.261
 1002TIP3    H2 3013   1.566   0.361   0.349
 1003TIP3   OH2 3014   5.162   5.960   3.099
 1003TIP3    H1 3015   5.153   5.996   3.187
 1003TIP3    H2 3016   5.256   5.966   3.080
 1004TIP3   OH2 3017   0.842   4.965   0.172
 1004TIP3    H1 3018   0.800   4.880   0.181
 1004TIP3    H2 3019   0.795   5.022   0.233
 1005TIP3   OH2 3020   4.643   2.689   1.593
 1005TIP3    H1 3021   4.685   2.633   1.658
 1005TIP3    H2 3022   4.601   2.627   1.532
 1006TIP3   OH2 3023   4.725   3.088   4.189
 1006TIP3    H1 3024   4.693   2.998   4.193
 1006TIP3    H2 3025   4.647   3.142   4.190
 1007TIP3   OH2 3026   2.601   0.626   4.391
 1007TIP3    H1 3027   2.663   0.590   4.328
 1007TIP3    H2 3028   2.515   0.607   4.352
 1008TIP3   OH2 3029   2.151   2.957   2.463
 1008TIP3    H1 3030   2.176   2.921   2.548
 1008TIP3    H2 3031   2.074   3.010   2.481
 1009TIP3   OH2 3032   2.831   2.500   4.946
 1009TIP3    H1 3033   2.863   2.453   4.869
 1009TIP3    H2 3034   2.738   2.514   4.929
 1010TIP3   OH2 3035   3.507   1.478   1.691
 1010TIP3    H1 3036   3.505   1.409   1.757
 1010TIP3    H2 3037   3.582   1.532   1.715
 1011TIP3   OH2 3038   5.634   0.750   4.580
 1011TIP3    H1 3039   5.688   0.680   4.616
 1011TIP3    H2 3040   5.692   0.826   4.574
 1012TIP3   OH2 3041   0.205   2.737   4.054
 1012TIP3    H1 3042   0.204   2.678   4.129
 1012TIP3    H2 3043   0.114   2.763   4.042
 1013TIP3   OH2 3044   5.879   4.877   1.168
 1013TIP3    H1 3045   5.869   4.963   1.210
 1013TIP3    H2 3046   5.797   4.865   1.119
 1014TIP3   OH2 3047   4.290   4.514   4.263
 1014TIP3    H1 3048   4.381   4.483   4.263
 1014TIP3    H2 3049   4.238   4.434   4.268
 1015TIP3   OH2 3050   4.937   5.708   3.654
 1015TIP3    H1 3051   4.943   5.762   3.576
 1015TIP3    H2 3052   4.844   5.686   3.661
 1016TIP3   OH2 3053   4.592   1.160   4.559
 1016TIP3    H1 3054   4.680   1.152   4.597
 1016TIP3    H2 3055   4.608   1.168   4.465
 1017TIP3   OH2 3056   5.711   0.356   2.802
 1017TIP3    H1 3057   5.660   0.313   2.871
 1017TIP3    H2 3058   5.796   0.372   2.842
 1018TIP3   OH2 3059   1.762   0.491   1.299
 1018TIP3    H1 3060   1.698   0.493   1.370
 1018TIP3    H2 3061   1.730   0.554   1.235
 1019TIP3   OH2 3062   4.192   4.452   4.853
 1019TIP3    H1 3063   4.186   4.534   4.804
 1019TIP3    H2 3064   4.109   4.408   4.835
 1020TIP3   OH2 3065   0.371   4.820   3.544
 1020TIP3    H1 3066   0.412   4.806   3.459
 1020TIP3    H2 3067   0.328   4.737   3.564
 1021TIP3   OH2 3068   0.755   2.890   0.282
 1021TIP3    H1 3069   0.732   2.859   0.195
 1021TIP3    H2 3070   0.719   2.979   0.286
 1022TIP3   OH2 3071   1.499   4.776   1.691
 1022TIP3    H1 3072   1.420   4.727   1.712
 1022TIP3    H2 3073   1.516   4.758   1.599
 1023TIP3   OH2 3074   1.451   2.453   2.889
 1023TIP3    H1 3075   1.367   2.450   2.935
 1023TIP3    H2 3076   1.508   2.394   2.938
 1024TIP3   OH2 3077   5.323   0.128   2.235
 1024TIP3    H1 3078   5.240   0.096   2.270
 1024TIP3    H2 3079   5.362   0.180   2.305
 1025TIP3   OH2 3080   1.803   0.980   3.369
 1025TIP3    H1 3081   1.845   0.911   3.420
 1025TIP3    H2 3082   1.810   0.949   3.278
 1026TIP3   OH2 3083   0.395   5.077   0.259
 1026TIP3    H1 3084   0.462   5.009   0.253
 1026TIP3    H2 3085   0.351   5.076   0.174
 1027TIP3   OH2 3086   3.785   3.850   3.401
 1027TIP3    H1 3087   3.876   3.840   3.373
 1027TIP3    H2 3088   3.785   3.822   3.493
 1028TIP3   OH2 3089   2.553   0.159   4.950
 1028TIP3    H1 3090   2.472   0.108   4.939
 1028TIP3    H2 3091   2.607   0.105   5.008
 1029TIP3   OH2 3092   5.986   3.373   1.139
 1029TIP3    H1 3093   6.064   3.370   1.195
 1029TIP3    H2 3094   6.011   3.431   1.067
 1030TIP3   OH2 3095   4.261   0.323   2.910
 1030TIP3    H1 3096   4.231   0.414   2.901
 1030TIP3    H2 3097   4.314   0.324   2.990
 1031TIP3   OH2 3098   3.176   5.441   1.028
 1031TIP3    H1 3099   3.222   5.524   1.032
 1031TIP3    H2 3100   3.085   5.463   1.046
 1032TIP3   OH2 3101   0.719   4.574   3.473
 1032TIP3    H1 3102   0.730   4.584   3.378
 1032TIP3    H2 3103   0.698   4.662   3.504
 1033TIP3   OH2 3104   5.982   1.789   4.751
 1033TIP3    H1 3105   5.990   1.846   4.675
 1033TIP3    H2 3106   5.914   1.831   4.805
 1034TIP3   OH2 3107   4.468   5.685   1.225
 1034TIP3    H1 3108   4.496   5.662   1.136
 1034TIP3    H2 3109   4.540   5.655   1.281
 1035TIP3   OH2 3110   2.290   3.565   2.054
 1035TIP3    H1 3111   2.332   3.482   2.034
 1035TIP3    H2 3112   2.362   3.624   2.079
 1036TIP3   OH2 3113   3.973   0.949   1.686
 1036TIP3    H1 3114   3.964   0.949   1.591
 1036TIP3    H2 3115   3.988   0.857   1.708
 1037TIP3   OH2 3116   0.137   5.343   2.407
 1037TIP3    H1 3117   0.194   5.343   2.485
 1037TIP3    H2 3118   0.074   5.273   2.424
 1038TIP3   OH2 3119   6.091   4.334   2.881
 1038TIP3    H1 3120   6.172   4.384   2.893
 1038TIP3    H2 3121   6.077   4.289   2.964
 1039TIP3   OH2 3122   2.019   3.496   4.899
 1039TIP3    H1 3123   2.026   3.533   4.811
 1039TIP3    H2 3124   1.927   3.469   4.906
 1040TIP3   OH2 3125   4.593   5.409   1.360
 1040TIP3    H1 3126   4.591   5.427   1.454
 1040TIP3    H2 3127   4.680   5.438   1.332
 1041TIP3   OH2 3128   5.260   2.965   1.191
 1041TIP3    H1 3129   5.177   3.012   1.190
 1041TIP3    H2 3130   5.258   2.914   1.272
 1042TIP3   OH2 3131   2.898   0.317   0.552
 1042TIP3    H1 3132   2.882   0.256   0.479
 1042TIP3    H2 3133   2.836   0.389   0.537
 1043TIP3   OH2 3134   2.314   3.917   2.614
 1043TIP3    H1 3135   2.272   3.963   2.687
 1043TIP3    H2 3136   2.271   3.952   2.536
 1044TIP3   OH2 3137   5.436   3.088   3.736
 1044TIP3    H1 3138   5.503   3.103   3.803
 1044TIP3    H2 3139   5.440   3.166   3.681
 1045TIP3   OH2 3140   4.388   0.939   0.053
 1045TIP3    H1 3141   4.476   0.908   0.031
 1045TIP3    H2 3142   4.399   0.987   0.135
 1046TIP3   OH2 3143   3.756   3.918   1.031
 1046TIP3    H1 3144   3.771   3.983   0.962
 1046TIP3    H2 3145   3.721   3.842   0.986
 1047TIP3   OH2 3146   3.145   0.398   2.927
 1047TIP3    H1 3147   3.199   0.477   2.919
 1047TIP3    H2 3148   3.191   0.344   2.992
 1048TIP3   OH2 3149   3.687   2.337   4.866
 1048TIP3    H1 3150   3.669   2.431   4.861
 1048TIP3    H2 3151   3.602   2.298   4.883
 1049TIP3   OH2 3152   3.620   5.282   4.440
 1049TIP3    H1 3153   3.637   5.190   4.423
 1049TIP3    H2 3154   3.583   5.315   4.358
 1050TIP3   OH2 3155   1.218   5.950   3.108
 1050TIP3    H1 3156   1.175   5.948   3.022
 1050TIP3    H2 3157   1.308   5.925   3.091
 1051TIP3   OH2 3158   4.535   1.039   1.931
 1051TIP3    H1 3159   4.530   1.128   1.898
 1051TIP3    H2 3160   4.444   1.010   1.938
 1052TIP3   OH2 3161   2.755   0.600   3.237
 1052TIP3    H1 3162   2.828   0.574   3.292
 1052TIP3    H2 3163   2.718   0.518   3.206
 1053TIP3   OH2 3164   3.888   4.101   3.592
 1053TIP3    H1 3165   3.888   4.009   3.616
 1053TIP3    H2 3166   3.980   4.127   3.594
 1054TIP3   OH2 3167   2.556   1.924   0.686
 1054TIP3    H1 3168   2.477   1.881   0.718
 1054TIP3    H2 3169   2.536   1.947   0.595
 1055TIP3   OH2 3170   3.820   4.541   3.386
 1055TIP3    H1 3171   3.883   4.591   3.439
 1055TIP3    H2 3172   3.742   4.596   3.384
 1056TIP3   OH2 3173   1.523   5.692   0.782
 1056TIP3    H1 3174   1.449   5.708   0.841
 1056TIP3    H2 3175   1.564   5.612   0.817
 1057TIP3   OH2 3176   3.015   2.710   2.892
 1057TIP3    H1 3177   3.084   2.645   2.903
 1057TIP3    H2 3178   2.943   2.679   2.947
 1058TIP3   OH2 3179   3.807   4.155   2.616
 1058TIP3    H1 3180   3.729   4.183   2.664
 1058TIP3    H2 3181   3.876   4.214   2.646
 1059TIP3   OH2 3182   5.166   2.308   2.556
 1059TIP3    H1 3183   5.210   2.382   2.515
 1059TIP3    H2 3184   5.204   2.302   2.643
 1060TIP3   OH2 3185   3.171   0.076   4.145
 1060TIP3    H1 3186   3.202   0.131   4.074
 1060TIP3    H2 3187   3.250   0.045   4.188
 1061TIP3   OH2 3188   3.084   0.214   0.742
 1061TIP3    H1 3189   3.098   0.305   0.769
 1061TIP3    H2 3190   3.019   0.220   0.672
 1062TIP3   OH2 3191   0.321   1.815   3.244
 1062TIP3    H1 3192   0.230   1.818   3.273
 1062TIP3    H2 3193   0.369   1.866   3.310
 1063TIP3   OH2 3194   4.372   1.366   2.901
 1063TIP3    H1 3195   4.293   1.370   2.848
 1063TIP3    H2 3196   4.432   1.310   2.851
 1064TIP3   OH2 3197   5.091   0.871   5.084
 1064TIP3    H1 3198   5.152   0.798   5.080
 1064TIP3    H2 3199   5.066   0.877   5.176
 1065TIP3   OH2 3200   3.000   4.569   3.953
 1065TIP3    H1 3201   3.041   4.565   4.039
 1065TIP3    H2 3202   2.997   4.477   3.924
 1066TIP3   OH2 3203   4.444   1.774   4.918
 1066TIP3    H1 3204   4.410   1.713   4.853
 1066TIP3    H2 3205   4.512   1.823   4.872
 1067TIP3   OH2 3206   0.263   5.978   0.724
 1067TIP3    H1 3207   0.188   5.946   0.673
 1067TIP3    H2 3208   0.337   5.973   0.663
 1068TIP3   OH2 3209   3.497   3.667   0.161
 1068TIP3    H1 3210   3.538   3.611   0.226
 1068TIP3    H2 3211   3.406   3.674   0.189
 1069TIP3   OH2 3212   2.433   3.913   3.197
 1069TIP3    H1 3213   2.435   3.963   3.278
 1069TIP3    H2 3214   2.398   3.828   3.222
 1070TIP3   OH2 3215   0.087   2.400   2.282
 1070TIP3    H1 3216   0.114   2.339   2.351
 1070TIP3    H2 3217   0.129   2.367   2.203
 1071TIP3   OH2 3218   5.010   5.745   2.582
 1071TIP3    H1 3219   5.051   5.687   2.518
 1071TIP3    H2 3220   5.029   5.833   2.551
 1072TIP3   OH2 3221   1.337   4.433   3.483
 1072TIP3    H1 3222   1.248   4.444   3.516
 1072TIP3    H2 3223   1.354   4.339   3.489
 1073TIP3   OH2 3224   2.538   0.154   2.835
 1073TIP3    H1 3225   2.630   0.129   2.844
 1073TIP3    H2 3226   2.537   0.248   2.851
 1074TIP3   OH2 3227   0.152   3.276   3.541
 1074TIP3    H1 3228   0.139   3.222   3.463
 1074TIP3    H2 3229   0.247   3.292   3.543
 1075TIP3   OH2 3230   2.868   3.893   3.299
 1075TIP3    H1 3231   2.788   3.847   3.324
 1075TIP3    H2 3232   2.838   3.965   3.243
 1076TIP3   OH2 3233   5.099   3.504   3.591
 1076TIP3    H1 3234   5.013   3.468   3.568
 1076TIP3    H2 3235   5.113   3.476   3.681
 1077TIP3   OH2 3236   2.799   2.319   0.094
 1077TIP3    H1 3237   2.777   2.408   0.066
 1077TIP3    H2 3238   2.776   2.264   0.020
 1078TIP3   OH2 3239   1.749   5.927   3.922
 1078TIP3    H1 3240   1.832   5.891   3.953
 1078TIP3    H2 3241   1.752   6.019   3.950
 1079TIP3   OH2 3242   4.890   1.495   3.021
 1079TIP3    H1 3243   4.826   1.438   3.065
 1079TIP3    H2 3244   4.894   1.573   3.076
 1080TIP3   OH2 3245   5.248   5.942   0.907
 1080TIP3    H1 3246   5.186   6.012   0.928
 1080TIP3    H2 3247   5.220   5.910   0.821
 1081TIP3   OH2 3248   5.663   5.209   3.482
 1081TIP3    H1 3249   5.699   5.143   3.422
 1081TIP3    H2 3250   5.569   5.192   3.483
 1082TIP3   OH2 3251   5.491   0.968   2.146
 1082TIP3    H1 3252   5.573   1.015   2.158
 1082TIP3    H2 3253   5.447   0.975   2.231
 1083TIP3   OH2 3254   4.990   1.562   5.015
 1083TIP3    H1 3255   5.048   1.607   4.954
 1083TIP3    H2 3256   5.031   1.572   5.100
 1084TIP3   OH2 3257   4.975   1.367   4.249
 1084TIP3    H1 3258   4.980   1.316   4.168
 1084TIP3    H2 3259   5.042   1.435   4.239
 1085TIP3   OH2 3260   2.167   5.071   3.071
 1085TIP3    H1 3261   2.213   5.096   3.151
 1085TIP3    H2 3262   2.237   5.059   3.006
 1086TIP3   OH2 3263   3.549   0.399   4.241
 1086TIP3    H1 3264   3.623   0.401   4.181
 1086TIP3    H2 3265   3.477   0.363   4.190
 1087TIP3   OH2 3266   2.980   4.472   3.576
 1087TIP3    H1 3267   2.916   4.447   3.509
 1087TIP3    H2 3268   2.993   4.566   3.563
 1088TIP3   OH2 3269   1.546   5.699   5.018
 1088TIP3    H1 3270   1.626   5.653   5.043
 1088TIP3    H2 3271   1.546   5.778   5.072
 1089TIP3   OH2 3272   3.504   1.029   1.462
 1089TIP3    H1 3273   3.476   1.045   1.372
 1089TIP3    H2 3274   3.464   0.945   1.486
 1090TIP3   OH2 3275   5.191   4.301   2.109
 1090TIP3    H1 3276   5.182   4.357   2.187
 1090TIP3    H2 3277   5.120   4.238   2.117
 1091TIP3   OH2 3278   5.193   0.715   4.092
 1091TIP3    H1 3279   5.189   0.809   4.111
 1091TIP3    H2 3280   5.120   0.700   4.032
 1092TIP3   OH2 3281  -0.045   1.058   1.777
 1092TIP3    H1 3282   0.033   1.095   1.819
 1092TIP3    H2 3283  -0.011   1.009   1.702
 1093TIP3   OH2 3284   5.163   1.053   3.490
 1093TIP3    H1 3285   5.255   1.042   3.469
 1093TIP3    H2 3286   5.157   1.143   3.525
 1094TIP3   OH2 3287   2.862   1.448   4.434
 1094TIP3    H1 3288   2.918   1.401   4.495
 1094TIP3    H2 3289   2.868   1.399   4.352
 1095TIP3   OH2 3290   2.948   0.449   3.358
 1095TIP3    H1 3291   2.967   0.355   3.367
 1095TIP3    H2 3292   3.034   0.491   3.363
 1096TIP3   OH2 3293   5.352   0.824   1.947
 1096TIP3    H1 3294   5.394   0.851   1.865
 1096TIP3    H2 3295   5.375   0.894   2.009
 1097TIP3   OH2 3296   3.597   2.494   0.168
 1097TIP3    H1 3297   3.508   2.528   0.166
 1097TIP3    H2 3298   3.607   2.456   0.255
 1098TIP3   OH2 3299   6.235   5.495   3.013
 1098TIP3    H1 3300   6.187   5.577   3.023
 1098TIP3    H2 3301   6.246   5.463   3.102
 1099TIP3   OH2 3302   1.145   1.079   5.189
 1099TIP3    H1 3303   1.170   1.024   5.115
 1099TIP3    H2 3304   1.212   1.060   5.256
 1100TIP3   OH2 3305   1.333   1.714   2.445
 1100TIP3    H1 3306   1.327   1.707   2.349
 1100TIP3    H2 3307   1.242   1.717   2.475
 1101TIP3   OH2 3308   4.865   4.639   2.117
 1101TIP3    H1 3309   4.940   4.682   2.075
 1101TIP3    H2 3310   4.891   4.630   2.209
 1102TIP3   OH2 3311   0.262   2.775   0.728
 1102TIP3    H1 3312   0.263   2.866   0.700
 1102TIP3    H2 3313   0.254   2.778   0.823
 1103TIP3   OH2 3314   3.675   2.852   1.389
 1103TIP3    H1 3315   3.652   2.874   1.480
 1103TIP3    H2 3316   3.592   2.849   1.343
 1104TIP3   OH2 3317   2.264   2.357   2.386
 1104TIP3    H1 3318   2.189   2.322   2.338
 1104TIP3    H2 3319   2.254   2.320   2.474
 1105TIP3   OH2 3320   1.901   2.564   0.884
 1105TIP3    H1 3321   1.865   2.479   0.907
 1105TIP3    H2 3322   1.828   2.625   0.891
 1106TIP3   OH2 3323   1.348   2.455   2.408
 1106TIP3    H1 3324   1.385   2.541   2.388
 1106TIP3    H2 3325   1.265   2.452   2.361
 1107TIP3   OH2 3326   5.074   5.316   2.921
 1107TIP3    H1 3327   5.144   5.382   2.924
 1107TIP3    H2 3328   5.086   5.272   2.837
 1108TIP3   OH2 3329   1.987   3.360   2.023
 1108TIP3    H1 3330   1.893   3.363   2.043
 1108TIP3    H2 3331   2.018   3.449   2.041
 1109TIP3   OH2 3332   3.671   5.755   2.631
 1109TIP3    H1 3333   3.663   5.850   2.618
 1109TIP3    H2 3334   3.595   5.731   2.682
 1110TIP3   OH2 3335   1.396   5.876   1.888
 1110TIP3    H1 3336   1.427   5.849   1.974
 1110TIP3    H2 3337   1.442   5.819   1.827
 1111TIP3   OH2 3338   2.522   4.660   0.192
 1111TIP3    H1 3339   2.493   4.747   0.222
 1111TIP3    H2 3340   2.482   4.650   0.106
 1112TIP3   OH2 3341   5.010   5.829   3.419
 1112TIP3    H1 3342   4.959   5.845   3.339
 1112TIP3    H2 3343   5.077   5.898   3.419
 1113TIP3   OH2 3344   2.550   3.186   0.654
 1113TIP3    H1 3345   2.474   3.225   0.696
 1113TIP3    H2 3346   2.534   3.092   0.659
 1114TIP3   OH2 3347   5.942   5.391   2.923
 1114TIP3    H1 3348   6.002   5.458   2.957
 1114TIP3    H2 3349   5.986   5.308   2.940
 1115TIP3   OH2 3350   5.698   4.720   1.280
 1115TIP3    H1 3351   5.732   4.634   1.306
 1115TIP3    H2 3352   5.745   4.742   1.200
 1116TIP3   OH2 3353   2.270   0.929   3.665
 1116TIP3    H1 3354   2.236   0.885   3.587
 1116TIP3    H2 3355   2.207   1.000   3.682
 1117TIP3   OH2 3356   6.098   0.541   0.364
 1117TIP3    H1 3357   6.174   0.512   0.415
 1117TIP3    H2 3358   6.043   0.463   0.356
 1118TIP3   OH2 3359   1.168   1.634   0.066
 1118TIP3    H1 3360   1.232   1.682   0.117
 1118TIP3    H2 3361   1.216   1.561   0.028
 1119TIP3   OH2 3362   5.685   5.171   2.601
 1119TIP3    H1 3363   5.637   5.236   2.653
 1119TIP3    H2 3364   5.773   5.209   2.591
 1120TIP3   OH2 3365   0.395   2.616   3.711
 1120TIP3    H1 3366   0.463   2.681   3.696
 1120TIP3    H2 3367   0.319   2.666   3.739
 1121TIP3   OH2 3368   0.807   2.940   4.865
 1121TIP3    H1 3369   0.770   2.872   4.808
 1121TIP3    H2 3370   0.731   2.981   4.906
 1122TIP3   OH2 3371   4.398   5.855   1.555
 1122TIP3    H1 3372   4.431   5.945   1.546
 1122TIP3    H2 3373   4.356   5.837   1.471
 1123TIP3   OH2 3374   1.929   1.356   3.620
 1123TIP3    H1 3375   1.968   1.320   3.540
 1123TIP3    H2 3376   1.834   1.352   3.605
 1124TIP3   OH2 3377   3.005   3.424   2.427
 1124TIP3    H1 3378   3.068   3.358   2.396
 1124TIP3    H2 3379   2.923   3.376   2.434
 1125TIP3   OH2 3380   3.967   1.441   1.557
 1125TIP3    H1 3381   3.958   1.398   1.642
 1125TIP3    H2 3382   3.942   1.532   1.573
 1126TIP3   OH2 3383   4.336   3.578   2.284
 1126TIP3    H1 3384   4.259   3.546   2.236
 1126TIP3    H2 3385   4.359   3.661   2.240
 1127TIP3   OH2 3386   3.920   4.806   2.908
 1127TIP3    H1 3387   3.834   4.771   2.930
 1127TIP3    H2 3388   3.910   4.901   2.914
 1128TIP3   OH2 3389   4.321   5.301   3.175
 1128TIP3    H1 3390   4.374   5.341   3.106
 1128TIP3    H2 3391   4.347   5.346   3.255
 1129TIP3   OH2 3392   2.413   3.225   2.947
 1129TIP3    H1 3393   2.330   3.203   2.904
 1129TIP3    H2 3394   2.451   3.294   2.893
 1130TIP3   OH2 3395   3.219   4.785   0.982
 1130TIP3    H1 3396   3.215   4.693   1.010
 1130TIP3    H2 3397   3.193   4.782   0.889
 1131TIP3   OH2 3398   3.140   0.546   4.635
 1131TIP3    H1 3399   3.185   0.481   4.582
 1131TIP3    H2 3400   3.068   0.498   4.675
 1132TIP3   OH2 3401   1.455   0.028   2.977
 1132TIP3    H1 3402   1.442  -0.028   2.900
 1132TIP3    H2 3403   1.543   0.065   2.965
 1133TIP3   OH2 3404   6.125   5.764   2.599
 1133TIP3    H1 3405   6.032   5.785   2.590
 1133TIP3    H2 3406   6.148   5.793   2.687
 1134TIP3   OH2 3407   3.301   5.044   0.337
 1134TIP3    H1 3408   3.213   5.007   0.338
 1134TIP3    H2 3409   3.357   4.972   0.367
 1135TIP3   OH2 3410   5.523   1.408   4.603
 1135TIP3    H1 3411   5.606   1.364   4.622
 1135TIP3    H2 3412   5.531   1.495   4.642
 1136TIP3   OH2 3413   3.876   4.952   3.235
 1136TIP3    H1 3414   3.903   4.974   3.324
 1136TIP3    H2 3415   3.952   4.907   3.197
 1137TIP3   OH2 3416   3.169   0.512   0.791
 1137TIP3    H1 3417   3.178   0.509   0.695
 1137TIP3    H2 3418   3.107   0.584   0.806
 1138TIP3   OH2 3419   1.624   3.291   1.565
 1138TIP3    H1 3420   1.658   3.381   1.568
 1138TIP3    H2 3421   1.541   3.299   1.519
 1139TIP3   OH2 3422   3.414   0.892   2.476
 1139TIP3    H1 3423   3.396   0.963   2.414
 1139TIP3    H2 3424   3.419   0.936   2.561
 1140TIP3   OH2 3425   4.995   3.637   1.145
 1140TIP3    H1 3426   5.004   3.666   1.235
 1140TIP3    H2 3427   4.939   3.702   1.104
 1141TIP3   OH2 3428   1.256   3.639   0.062
 1141TIP3    H1 3429   1.283   3.726   0.091
 1141TIP3    H2 3430   1.292   3.580   0.128
 1142TIP3   OH2 3431   5.084   5.416   1.774
 1142TIP3    H1 3432   5.021   5.407   1.702
 1142TIP3    H2 3433   5.074   5.335   1.824
 1143TIP3   OH2 3434   5.727   1.165   1.282
 1143TIP3    H1 3435   5.783   1.094   1.312
 1143TIP3    H2 3436   5.710   1.145   1.190
 1144TIP3   OH2 3437   5.480   4.078   1.567
 1144TIP3    H1 3438   5.506   3.986   1.573
 1144TIP3    H2 3439   5.421   4.092   1.641
 1145TIP3   OH2 3440   1.516   3.371   2.985
 1145TIP3    H1 3441   1.538   3.464   2.991
 1145TIP3    H2 3442   1.540   3.346   2.895
 1146TIP3   OH2 3443   2.765   3.795   2.128
 1146TIP3    H1 3444   2.806   3.724   2.079
 1146TIP3    H2 3445   2.754   3.761   2.216
 1147TIP3   OH2 3446   4.205   1.803   4.561
 1147TIP3    H1 3447   4.144   1.737   4.594
 1147TIP3    H2 3448   4.269   1.754   4.510
 1148TIP3   OH2 3449   4.292   4.490   1.798
 1148TIP3    H1 3450   4.316   4.469   1.707
 1148TIP3    H2 3451   4.251   4.410   1.831
 1149TIP3   OH2 3452   1.844   1.472   2.474
 1149TIP3    H1 3453   1.905   1.451   2.404
 1149TIP3    H2 3454   1.769   1.512   2.429
 1150TIP3   OH2 3455   3.325   5.398   4.998
 1150TIP3    H1 3456   3.255   5.369   4.941
 1150TIP3    H2 3457   3.281   5.436   5.074
 1151TIP3   OH2 3458   4.020   4.086   4.439
 1151TIP3    H1 3459   3.931   4.106   4.406
 1151TIP3    H2 3460   4.008   4.073   4.533
 1152TIP3   OH2 3461   2.498   5.493   2.218
 1152TIP3    H1 3462   2.524   5.564   2.276
 1152TIP3    H2 3463   2.557   5.499   2.143
 1153TIP3   OH2 3464   0.810   0.029   1.643
 1153TIP3    H1 3465   0.770   0.103   1.689
 1153TIP3    H2 3466   0.895   0.062   1.614
 1154TIP3   OH2 3467   1.085   5.027   0.278
 1154TIP3    H1 3468   1.001   4.997   0.244
 1154TIP3    H2 3469   1.095   5.116   0.245
 1155TIP3   OH2 3470   5.690   0.669   1.944
 1155TIP3    H1 3471   5.600   0.639   1.960
 1155TIP3    H2 3472   5.687   0.763   1.958
 1156TIP3   OH2 3473   1.404   5.916   0.410
 1156TIP3    H1 3474   1.386   5.938   0.502
 1156TIP3    H2 3475   1.451   5.833   0.414
 1157TIP3   OH2 3476   5.719   1.368   2.807
 1157TIP3    H1 3477   5.681   1.287   2.841
 1157TIP3    H2 3478   5.680   1.437   2.861
 1158TIP3   OH2 3479   5.043   3.398   4.957
 1158TIP3    H1 3480   5.068   3.328   4.897
 1158TIP3    H2 3481   5.124   3.421   5.003
 1159TIP3   OH2 3482   3.270   4.703   2.528
 1159TIP3    H1 3483   3.300   4.617   2.558
 1159TIP3    H2 3484   3.348   4.743   2.489
 1160TIP3   OH2 3485   5.282   2.862   0.182
 1160TIP3    H1 3486   5.227   2.904   0.116
 1160TIP3    H2 3487   5.234   2.872   0.264
 1161TIP3   OH2 3488   1.759   5.306   0.111
 1161TIP3    H1 3489   1.686   5.297   0.051
 1161TIP3    H2 3490   1.731   5.259   0.190
 1162TIP3   OH2 3491   2.403   2.268   1.827
 1162TIP3    H1 3492   2.365   2.272   1.915
 1162TIP3    H2 3493   2.389   2.356   1.792
 1163TIP3   OH2 3494   3.204   2.585   3.769
 1163TIP3    H1 3495   3.276   2.595   3.706
 1163TIP3    H2 3496   3.157   2.668   3.763
 1164TIP3   OH2 3497   2.443   2.036   2.233
 1164TIP3    H1 3498   2.531   2.070   2.250
 1164TIP3    H2 3499   2.395   2.053   2.314
 1165TIP3   OH2 3500   1.615   2.208   3.248
 1165TIP3    H1 3501   1.562   2.175   3.321
 1165TIP3    H2 3502   1.553   2.259   3.195
 1166TIP3   OH2 3503   5.370   2.243   1.728
 1166TIP3    H1 3504   5.405   2.256   1.639
 1166TIP3    H2 3505   5.340   2.330   1.754
 1167TIP3   OH2 3506   2.823   0.168   2.895
 1167TIP3    H1 3507   2.861   0.254   2.880
 1167TIP3    H2 3508   2.875   0.131   2.967
 1168TIP3   OH2 3509   5.697   0.775   0.620
 1168TIP3    H1 3510   5.741   0.707   0.671
 1168TIP3    H2 3511   5.750   0.783   0.540
 1169TIP3   OH2 3512   0.507   0.838   1.100
 1169TIP3    H1 3513   0.581   0.853   1.159
 1169TIP3    H2 3514   0.463   0.923   1.094
 1170TIP3   OH2 3515   4.152   1.047   4.100
 1170TIP3    H1 3516   4.191   1.135   4.100
 1170TIP3    H2 3517   4.143   1.024   4.192
 1171TIP3   OH2 3518   2.593   2.640   1.144
 1171TIP3    H1 3519   2.562   2.729   1.158
 1171TIP3    H2 3520   2.565   2.619   1.055
 1172TIP3   OH2 3521   4.337   0.579   1.453
 1172TIP3    H1 3522   4.418   0.569   1.503
 1172TIP3    H2 3523   4.365   0.610   1.367
 1173TIP3   OH2 3524   3.696   2.717   4.282
 1173TIP3    H1 3525   3.679   2.655   4.353
 1173TIP3    H2 3526   3.791   2.723   4.277
 1174TIP3   OH2 3527   2.259   5.532   5.197
 1174TIP3    H1 3528   2.272   5.498   5.109
 1174TIP3    H2 3529   2.167   5.557   5.201
 1175TIP3   OH2 3530   4.096   4.243   2.312
 1175TIP3    H1 3531   4.077   4.160   2.356
 1175TIP3    H2 3532   4.184   4.266   2.342
 1176TIP3   OH2 3533   4.900   5.630   2.973
 1176TIP3    H1 3534   4.975   5.645   2.916
 1176TIP3    H2 3535   4.938   5.596   3.054
 1177TIP3   OH2 3536   4.276   5.339   1.932
 1177TIP3    H1 3537   4.218   5.369   1.863
 1177TIP3    H2 3538   4.243   5.382   2.011
 1178TIP3   OH2 3539   0.191   4.149   2.522
 1178TIP3    H1 3540   0.176   4.132   2.615
 1178TIP3    H2 3541   0.115   4.113   2.478
 1179TIP3   OH2 3542   0.447   3.156   2.949
 1179TIP3    H1 3543   0.470   3.249   2.952
 1179TIP3    H2 3544   0.525   3.113   2.916
 1180TIP3   OH2 3545   3.530   2.989   0.120
 1180TIP3    H1 3546   3.537   3.033   0.205
 1180TIP3    H2 3547   3.593   3.034   0.065
 1181TIP3   OH2 3548   1.285   0.591   0.473
 1181TIP3    H1 3549   1.277   0.570   0.566
 1181TIP3    H2 3550   1.194   0.606   0.445
 1182TIP3   OH2 3551   3.148   4.953   2.367
 1182TIP3    H1 3552   3.199   5.009   2.309
 1182TIP3    H2 3553   3.179   4.974   2.455
 1183TIP3   OH2 3554   3.881   0.694   2.898
 1183TIP3    H1 3555   3.793   0.657   2.898
 1183TIP3    H2 3556   3.871   0.780   2.940
 1184TIP3   OH2 3557   5.674   3.426   3.302
 1184TIP3    H1 3558   5.626   3.354   3.261
 1184TIP3    H2 3559   5.638   3.505   3.262
 1185TIP3   OH2 3560   4.526   4.202   0.098
 1185TIP3    H1 3561   4.562   4.116   0.121
 1185TIP3    H2 3562   4.509   4.197   0.004
 1186TIP3   OH2 3563   0.429   4.151   3.207
 1186TIP3    H1 3564   0.423   4.058   3.185
 1186TIP3    H2 3565   0.412   4.196   3.124
 1187TIP3   OH2 3566   0.035   5.277   2.150
 1187TIP3    H1 3567  -0.053   5.239   2.141
 1187TIP3    H2 3568   0.043   5.296   2.244
 1188TIP3   OH2 3569   4.466   3.411   5.113
 1188TIP3    H1 3570   4.403   3.409   5.185
 1188TIP3    H2 3571   4.470   3.504   5.087
 1189TIP3   OH2 3572   1.073   2.062   3.058
 1189TIP3    H1 3573   1.029   1.998   3.003
 1189TIP3    H2 3574   1.068   2.026   3.147
 1190TIP3   OH2 3575   2.169   3.035   0.702
 1190TIP3    H1 3576   2.173   2.971   0.773
 1190TIP3    H2 3577   2.110   3.103   0.734
 1191TIP3   OH2 3578   5.174   2.172   3.894
 1191TIP3    H1 3579   5.180   2.126   3.811
 1191TIP3    H2 3580   5.151   2.262   3.870
 1192TIP3   OH2 3581   0.134   5.615   2.524
 1192TIP3    H1 3582   0.117   5.604   2.617
 1192TIP3    H2 3583   0.227   5.597   2.514
 1193TIP3   OH2 3584   4.936   4.410   4.193
 1193TIP3    H1 3585   4.919   4.316   4.181
 1193TIP3    H2 3586   4.909   4.450   4.110
 1194TIP3   OH2 3587   2.526   2.185   2.528
 1194TIP3    H1 3588   2.444   2.206   2.572
 1194TIP3    H2 3589   2.582   2.149   2.598
 1195TIP3   OH2 3590   5.591   4.276   3.582
 1195TIP3    H1 3591   5.680   4.241   3.591
 1195TIP3    H2 3592   5.560   4.287   3.672
 1196TIP3   OH2 3593   0.901   5.875   3.822
 1196TIP3    H1 3594   0.988   5.892   3.859
 1196TIP3    H2 3595   0.918   5.824   3.743
 1197TIP3   OH2 3596   4.052   1.409   0.125
 1197TIP3    H1 3597   4.057   1.436   0.217
 1197TIP3    H2 3598   4.143   1.406   0.096
 1198TIP3   OH2 3599   6.154   5.504   0.391
 1198TIP3    H1 3600   6.189   5.454   0.317
 1198TIP3    H2 3601   6.232   5.542   0.432
 1199TIP3   OH2 3602   0.347   1.543   2.982
 1199TIP3    H1 3603   0.365   1.635   2.964
 1199TIP3    H2 3604   0.411   1.519   3.050
 1200TIP3   OH2 3605   3.012   4.874   2.977
 1200TIP3    H1 3606   2.983   4.786   3.000
 1200TIP3    H2 3607   3.047   4.866   2.888
 1201TIP3   OH2 3608   4.953   5.319   3.337
 1201TIP3    H1 3609   5.035   5.367   3.332
 1201TIP3    H2 3610   4.927   5.307   3.245
 1202TIP3   OH2 3611   1.191   1.226   1.179
 1202TIP3    H1 3612   1.134   1.220   1.255
 1202TIP3    H2 3613   1.280   1.221   1.215
 1203TIP3   OH2 3614   5.100   2.201   1.319
 1203TIP3    H1 3615   5.164   2.257   1.276
 1203TIP3    H2 3616   5.066   2.254   1.391
 1204TIP3   OH2 3617   5.795   3.777   1.015
 1204TIP3    H1 3618   5.834   3.744   0.934
 1204TIP3    H2 3619   5.700   3.771   1.000
 1205TIP3   OH2 3620   2.098   1.661   3.465
 1205TIP3    H1 3621   2.084   1.697   3.552
 1205TIP3    H2 3622   2.130   1.735   3.413
 1206TIP3   OH2 3623   0.905   0.980   0.465
 1206TIP3    H1 3624   0.985   0.996   0.515
 1206TIP3    H2 3625   0.935   0.964   0.376
 1207TIP3   OH2 3626   1.596   4.333   4.482
 1207TIP3    H1 3627   1.582   4.425   4.506
 1207TIP3    H2 3628   1.601   4.333   4.387
 1208TIP3   OH2 3629   5.366   2.379   3.617
 1208TIP3    H1 3630   5.278   2.408   3.592
 1208TIP3    H2 3631   5.425   2.441   3.575
 1209TIP3   OH2 3632   0.082   5.629   0.445
 1209TIP3    H1 3633   0.147   5.651   0.512
 1209TIP3    H2 3634   0.053   5.541   0.468
 1210TIP3   OH2 3635   2.085   2.935   0.318
 1210TIP3    H1 3636   2.072   2.920   0.411
 1210TIP3    H2 3637   2.175   2.967   0.311
 1211TIP3   OH2 3638   4.253   5.520   2.370
 1211TIP3    H1 3639   4.247   5.594   2.310
 1211TIP3    H2 3640   4.174   5.526   2.423
 1212TIP3   OH2 3641   2.503   5.973   3.908
 1212TIP3    H1 3642   2.578   5.918   3.930
 1212TIP3    H2 3643   2.484   5.951   3.816
 1213TIP3   OH2 3644   0.794   4.051   3.475
 1213TIP3    H1 3645   0.726   3.996   3.514
 1213TIP3    H2 3646   0.876   4.016   3.510
 1214TIP3   OH2 3647   1.365   4.129   3.520
 1214TIP3    H1 3648   1.341   4.126   3.612
 1214TIP3    H2 3649   1.451   4.088   3.516
 1215TIP3   OH2 3650   2.456   5.781   0.089
 1215TIP3    H1 3651   2.461   5.807   0.181
 1215TIP3    H2 3652   2.513   5.842   0.043
 1216TIP3   OH2 3653   5.753   1.415   0.718
 1216TIP3    H1 3654   5.734   1.480   0.785
 1216TIP3    H2 3655   5.847   1.420   0.705
 1217TIP3   OH2 3656   6.122   3.120   2.941
 1217TIP3    H1 3657   6.029   3.144   2.939
 1217TIP3    H2 3658   6.123   3.029   2.968
 1218TIP3   OH2 3659   5.259   2.938   3.871
 1218TIP3    H1 3660   5.228   2.999   3.938
 1218TIP3    H2 3661   5.327   2.986   3.824
 1219TIP3   OH2 3662   3.345   4.048   1.341
 1219TIP3    H1 3663   3.300   3.968   1.315
 1219TIP3    H2 3664   3.405   4.066   1.269
 1220TIP3   OH2 3665   5.250   1.432   4.785
 1220TIP3    H1 3666   5.298   1.481   4.852
 1220TIP3    H2 3667   5.318   1.382   4.739
 1221TIP3   OH2 3668   4.358   1.450   0.057
 1221TIP3    H1 3669   4.418   1.451   0.132
 1221TIP3    H2 3670   4.370   1.535   0.015
 1222TIP3   OH2 3671   5.018   0.852   0.237
 1222TIP3    H1 3672   5.002   0.875   0.328
 1222TIP3    H2 3673   5.026   0.936   0.192
 1223TIP3   OH2 3674   2.496   1.123   4.701
 1223TIP3    H1 3675   2.415   1.076   4.683
 1223TIP3    H2 3676   2.467   1.207   4.738
 1224TIP3   OH2 3677   2.236   5.775   4.329
 1224TIP3    H1 3678   2.295   5.821   4.269
 1224TIP3    H2 3679   2.244   5.823   4.411
 1225TIP3   OH2 3680   5.509   1.189   2.658
 1225TIP3    H1 3681   5.463   1.124   2.605
 1225TIP3    H2 3682   5.587   1.210   2.607
 1226TIP3   OH2 3683  -0.027   0.413   3.623
 1226TIP3    H1 3684  -0.054   0.325   3.650
 1226TIP3    H2 3685  -0.057   0.470   3.693
 1227TIP3   OH2 3686   4.204   4.259   1.943
 1227TIP3    H1 3687   4.249   4.315   2.006
 1227TIP3    H2 3688   4.166   4.189   1.996
 1228TIP3   OH2 3689   2.316   5.939   4.561
 1228TIP3    H1 3690   2.232   5.920   4.602
 1228TIP3    H2 3691   2.380   5.928   4.631
 1229TIP3   OH2 3692   0.997   3.070   3.960
 1229TIP3    H1 3693   0.985   3.024   4.043
 1229TIP3    H2 3694   0.913   3.061   3.915
 1230TIP3   OH2 3695   2.451   3.148   2.303
 1230TIP3    H1 3696   2.459   3.080   2.370
 1230TIP3    H2 3697   2.383   3.114   2.244
 1231TIP3   OH2 3698   1.793   2.084   1.437
 1231TIP3    H1 3699   1.881   2.064   1.404
 1231TIP3    H2 3700   1.734   2.047   1.372
 1232TIP3   OH2 3701   2.413   4.398   4.020
 1232TIP3    H1 3702   2.459   4.377   3.940
 1232TIP3    H2 3703   2.324   4.420   3.992
 1233TIP3   OH2 3704   5.887   3.051   3.239
 1233TIP3    H1 3705   5.848   3.047   3.152
 1233TIP3    H2 3706   5.862   2.968   3.281
 1234TIP3   OH2 3707   4.041   0.901   2.105
 1234TIP3    H1 3708   3.975   0.970   2.107
 1234TIP3    H2 3709   3.996   0.824   2.070
 1235TIP3   OH2 3710   0.920   3.666   1.432
 1235TIP3    H1 3711   0.864   3.744   1.441
 1235TIP3    H2 3712   0.995   3.697   1.381
 1236TIP3   OH2 3713   2.771   4.066   0.930
 1236TIP3    H1 3714   2.810   4.041   1.013
 1236TIP3    H2 3715   2.790   3.992   0.871
 1237TIP3   OH2 3716   6.188   1.733   0.923
 1237TIP3    H1 3717   6.126   1.783   0.870
 1237TIP3    H2 3718   6.163   1.753   1.013
 1238TIP3   OH2 3719   4.742   3.970   1.684
 1238TIP3    H1 3720   4.836   3.984   1.669
 1238TIP3    H2 3721   4.739   3.913   1.761
 1239TIP3   OH2 3722   3.952   1.259   2.808
 1239TIP3    H1 3723   3.864   1.284   2.836
 1239TIP3    H2 3724   3.991   1.339   2.774
 1240TIP3   OH2 3725   2.661   1.370   2.246
 1240TIP3    H1 3726   2.636   1.460   2.266
 1240TIP3    H2 3727   2.626   1.353   2.159
 1241TIP3   OH2 3728   2.350   5.448   4.436
 1241TIP3    H1 3729   2.279   5.429   4.375
 1241TIP3    H2 3730   2.420   5.388   4.411
 1242TIP3   OH2 3731   3.731   2.211   0.852
 1242TIP3    H1 3732   3.744   2.137   0.792
 1242TIP3    H2 3733   3.809   2.265   0.841
 1243TIP3   OH2 3734   0.645   4.169   1.052
 1243TIP3    H1 3735   0.660   4.241   0.991
 1243TIP3    H2 3736   0.551   4.171   1.068
 1244TIP3   OH2 3737   1.134   5.729   2.612
 1244TIP3    H1 3738   1.101   5.801   2.558
 1244TIP3    H2 3739   1.063   5.711   2.674
 1245TIP3   OH2 3740   0.421   3.977   1.352
 1245TIP3    H1 3741   0.473   4.010   1.426
 1245TIP3    H2 3742   0.338   3.950   1.392
 1246TIP3   OH2 3743   2.898   3.831   0.262
 1246TIP3    H1 3744   2.813   3.865   0.235
 1246TIP3    H2 3745   2.948   3.909   0.287
 1247TIP3   OH2 3746   4.614   4.515   0.401
 1247TIP3    H1 3747   4.666   4.436   0.384
 1247TIP3    H2 3748   4.654   4.553   0.479
 1248TIP3   OH2 3749   3.637   1.911   2.212
 1248TIP3    H1 3750   3.665   1.822   2.234
 1248TIP3    H2 3751   3.571   1.932   2.279
 1249TIP3   OH2 3752   1.699   2.756   1.107
 1249TIP3    H1 3753   1.688   2.663   1.126
 1249TIP3    H2 3754   1.713   2.760   1.012
 1250TIP3   OH2 3755   4.106   4.087   2.941
 1250TIP3    H1 3756   4.032   4.030   2.962
 1250TIP3    H2 3757   4.183   4.033   2.958
 1251TIP3   OH2 3758   4.660   1.023   0.546
 1251TIP3    H1 3759   4.679   1.107   0.505
 1251TIP3    H2 3760   4.666   1.041   0.640
 1252TIP3   OH2 3761   2.320   0.964   1.177
 1252TIP3    H1 3762   2.348   1.035   1.119
 1252TIP3    H2 3763   2.237   0.995   1.214
 1253TIP3   OH2 3764   5.296   4.196   1.743
 1253TIP3    H1 3765   5.287   4.257   1.670
 1253TIP3    H2 3766   5.208   4.163   1.759
 1254TIP3   OH2 3767   5.990   3.459   0.259
 1254TIP3    H1 3768   5.923   3.510   0.305
 1254TIP3    H2 3769   6.059   3.522   0.240
 1255TIP3   OH2 3770   6.256   0.861   4.250
 1255TIP3    H1 3771   6.213   0.907   4.322
 1255TIP3    H2 3772   6.348   0.857   4.276
 1256TIP3   OH2 3773   3.856   1.619   3.570
 1256TIP3    H1 3774   3.774   1.608   3.619
 1256TIP3    H2 3775   3.836   1.684   3.503
 1257TIP3   OH2 3776   1.417   4.263   2.188
 1257TIP3    H1 3777   1.369   4.275   2.270
 1257TIP3    H2 3778   1.482   4.334   2.188
 1258TIP3   OH2 3779   2.362   3.915   4.163
 1258TIP3    H1 3780   2.340   3.920   4.070
 1258TIP3    H2 3781   2.355   4.005   4.194
 1259TIP3   OH2 3782   3.796   3.612   1.644
 1259TIP3    H1 3783   3.787   3.707   1.655
 1259TIP3    H2 3784   3.729   3.575   1.702
 1260TIP3   OH2 3785   5.923   3.269   3.955
 1260TIP3    H1 3786   5.866   3.332   3.912
 1260TIP3    H2 3787   5.950   3.209   3.886
 1261TIP3   OH2 3788   1.639   2.893   3.643
 1261TIP3    H1 3789   1.719   2.927   3.683
 1261TIP3    H2 3790   1.664   2.873   3.553
 1262TIP3   OH2 3791   0.798   1.692   1.319
 1262TIP3    H1 3792   0.857   1.689   1.395
 1262TIP3    H2 3793   0.846   1.742   1.253
 1263TIP3   OH2 3794   2.536   3.422   2.366
 1263TIP3    H1 3795   2.535   3.327   2.354
 1263TIP3    H2 3796   2.446   3.445   2.386
 1264TIP3   OH2 3797   1.280   2.351   1.885
 1264TIP3    H1 3798   1.207   2.369   1.826
 1264TIP3    H2 3799   1.336   2.291   1.837
 1265TIP3   OH2 3800   4.937   4.007   4.728
 1265TIP3    H1 3801   4.862   3.989   4.672
 1265TIP3    H2 3802   4.923   4.097   4.758
 1266TIP3   OH2 3803   3.795   5.901   1.258
 1266TIP3    H1 3804   3.849   5.835   1.215
 1266TIP3    H2 3805   3.852   5.977   1.269
 1267TIP3   OH2 3806   5.407   5.255   2.615
 1267TIP3    H1 3807   5.494   5.283   2.642
 1267TIP3    H2 3808   5.380   5.320   2.550
 1268TIP3   OH2 3809   4.684   3.078   1.248
 1268TIP3    H1 3810   4.631   2.998   1.238
 1268TIP3    H2 3811   4.760   3.050   1.298
 1269TIP3   OH2 3812   3.038   0.757   0.853
 1269TIP3    H1 3813   3.039   0.771   0.758
 1269TIP3    H2 3814   2.956   0.796   0.882
 1270TIP3   OH2 3815   1.836   2.301   4.516
 1270TIP3    H1 3816   1.799   2.374   4.566
 1270TIP3    H2 3817   1.772   2.285   4.447
 1271TIP3   OH2 3818   4.434   1.434   2.417
 1271TIP3    H1 3819   4.390   1.512   2.452
 1271TIP3    H2 3820   4.504   1.416   2.480
 1272TIP3   OH2 3821   5.372   0.242   4.306
 1272TIP3    H1 3822   5.330   0.175   4.361
 1272TIP3    H2 3823   5.434   0.284   4.365
 1273TIP3   OH2 3824   5.528   3.809   1.583
 1273TIP3    H1 3825   5.515   3.785   1.675
 1273TIP3    H2 3826   5.587   3.742   1.549
 1274TIP3   OH2 3827   5.194   2.825   2.645
 1274TIP3    H1 3828   5.186   2.906   2.596
 1274TIP3    H2 3829   5.286   2.799   2.632
 1275TIP3   OH2 3830   3.224   3.055   1.875
 1275TIP3    H1 3831   3.245   2.974   1.830
 1275TIP3    H2 3832   3.236   3.123   1.809
 1276TIP3   OH2 3833   0.644   2.973   4.134
 1276TIP3    H1 3834   0.723   2.976   4.187
 1276TIP3    H2 3835   0.622   2.880   4.128
 1277TIP3   OH2 3836   1.535   4.860   2.332
 1277TIP3    H1 3837   1.595   4.820   2.269
 1277TIP3    H2 3838   1.461   4.889   2.280
 1278TIP3   OH2 3839   5.843   5.829   4.594
 1278TIP3    H1 3840   5.902   5.872   4.532
 1278TIP3    H2 3841   5.877   5.854   4.680
 1279TIP3   OH2 3842   1.371   1.716   2.182
 1279TIP3    H1 3843   1.382   1.629   2.142
 1279TIP3    H2 3844   1.373   1.776   2.108
 1280TIP3   OH2 3845   3.269   2.269   0.281
 1280TIP3    H1 3846   3.206   2.228   0.341
 1280TIP3    H2 3847   3.298   2.348   0.327
 1281TIP3   OH2 3848   2.100   1.056   0.405
 1281TIP3    H1 3849   2.126   0.986   0.346
 1281TIP3    H2 3850   2.049   1.116   0.351
 1282TIP3   OH2 3851   2.259   1.333   2.883
 1282TIP3    H1 3852   2.311   1.413   2.872
 1282TIP3    H2 3853   2.184   1.360   2.936
 1283TIP3   OH2 3854   3.748   3.151   0.287
 1283TIP3    H1 3855   3.832   3.126   0.249
 1283TIP3    H2 3856   3.726   3.233   0.242
 1284TIP3   OH2 3857   4.394   0.773   4.271
 1284TIP3    H1 3858   4.316   0.820   4.299
 1284TIP3    H2 3859   4.366   0.682   4.263
 1285TIP3   OH2 3860   3.554   4.361   0.251
 1285TIP3    H1 3861   3.496   4.338   0.178
 1285TIP3    H2 3862   3.642   4.354   0.214
 1286TIP3   OH2 3863   0.347   3.527   0.142
 1286TIP3    H1 3864   0.281   3.562   0.202
 1286TIP3    H2 3865   0.308   3.537   0.055
 1287TIP3   OH2 3866   4.121   2.447   3.919
 1287TIP3    H1 3867   4.185   2.484   3.859
 1287TIP3    H2 3868   4.174   2.406   3.988
 1288TIP3   OH2 3869   4.881   1.022   2.611
 1288TIP3    H1 3870   4.861   0.930   2.626
 1288TIP3    H2 3871   4.797   1.061   2.586
 1289TIP3   OH2 3872   4.280   5.639   3.162
 1289TIP3    H1 3873   4.334   5.711   3.130
 1289TIP3    H2 3874   4.197   5.648   3.115
 1290TIP3   OH2 3875   1.956   1.582   0.131
 1290TIP3    H1 3876   1.862   1.566   0.124
 1290TIP3    H2 3877   1.963   1.671   0.165
 1291TIP3   OH2 3878   4.976   2.024   1.645
 1291TIP3    H1 3879   4.931   2.104   1.674
 1291TIP3    H2 3880   4.924   1.993   1.571
 1292TIP3   OH2 3881   2.788   3.855   0.744
 1292TIP3    H1 3882   2.867   3.833   0.695
 1292TIP3    H2 3883   2.731   3.896   0.679
 1293TIP3   OH2 3884   0.059   1.869   3.302
 1293TIP3    H1 3885   0.000   1.825   3.363
 1293TIP3    H2 3886   0.036   1.833   3.216
 1294TIP3   OH2 3887   2.278   0.379   3.853
 1294TIP3    H1 3888   2.216   0.311   3.827
 1294TIP3    H2 3889   2.223   0.457   3.865
 1295TIP3   OH2 3890   1.709   1.996   1.924
 1295TIP3    H1 3891   1.617   1.978   1.943
 1295TIP3    H2 3892   1.758   1.948   1.991
 1296TIP3   OH2 3893   0.368   2.215   2.191
 1296TIP3    H1 3894   0.341   2.124   2.177
 1296TIP3    H2 3895   0.350   2.258   2.108
 1297TIP3   OH2 3896   6.050   1.496   4.817
 1297TIP3    H1 3897   5.999   1.573   4.793
 1297TIP3    H2 3898   6.023   1.477   4.907
 1298TIP3   OH2 3899  -0.043   5.117   4.098
 1298TIP3    H1 3900  -0.013   5.027   4.114
 1298TIP3    H2 3901   0.022   5.172   4.140
 1299TIP3   OH2 3902   1.826   4.462   4.319
 1299TIP3    H1 3903   1.859   4.452   4.409
 1299TIP3    H2 3904   1.828   4.374   4.283
 1300TIP3   OH2 3905   3.624   0.369   4.685
 1300TIP3    H1 3906   3.679   0.290   4.683
 1300TIP3    H2 3907   3.577   0.363   4.768
 1301TIP3   OH2 3908   5.938   3.048   2.133
 1301TIP3    H1 3909   5.892   3.123   2.095
 1301TIP3    H2 3910   5.876   2.976   2.125
 1302TIP3   OH2 3911   4.405   4.371   0.259
 1302TIP3    H1 3912   4.472   4.427   0.299
 1302TIP3    H2 3913   4.453   4.318   0.195
 1303TIP3   OH2 3914   0.512   5.729   2.681
 1303TIP3    H1 3915   0.472   5.808   2.645
 1303TIP3    H2 3916   0.547   5.756   2.766
 1304TIP3   OH2 3917   2.183   4.653   3.552
 1304TIP3    H1 3918   2.186   4.657   3.648
 1304TIP3    H2 3919   2.207   4.563   3.531
 1305TIP3   OH2 3920   1.249   2.043   3.625
 1305TIP3    H1 3921   1.244   2.125   3.673
 1305TIP3    H2 3922   1.295   1.983   3.685
 1306TIP3   OH2 3923   2.011   4.744   1.296
 1306TIP3    H1 3924   2.049   4.657   1.310
 1306TIP3    H2 3925   1.917   4.730   1.302
 1307TIP3   OH2 3926   6.040   2.526   0.977
 1307TIP3    H1 3927   6.112   2.588   0.989
 1307TIP3    H2 3928   5.966   2.566   1.022
 1308TIP3   OH2 3929   0.267   2.029   0.649
 1308TIP3    H1 3930   0.255   1.987   0.734
 1308TIP3    H2 3931   0.187   2.008   0.600
 1309TIP3   OH2 3932   2.319   1.935   2.485
 1309TIP3    H1 3933   2.250   2.000   2.489
 1309TIP3    H2 3934   2.291   1.866   2.546
 1310TIP3   OH2 3935   2.335   5.635   3.163
 1310TIP3    H1 3936   2.269   5.700   3.140
 1310TIP3    H2 3937   2.363   5.599   3.079
 1311TIP3   OH2 3938   1.804   4.384   1.810
 1311TIP3    H1 3939   1.710   4.403   1.801
 1311TIP3    H2 3940   1.842   4.411   1.727
 1312TIP3   OH2 3941   3.189   3.273   2.271
 1312TIP3    H1 3942   3.256   3.340   2.285
 1312TIP3    H2 3943   3.239   3.194   2.251
 1313TIP3   OH2 3944   0.231   5.065   3.648
 1313TIP3    H1 3945   0.237   4.969   3.648
 1313TIP3    H2 3946   0.177   5.086   3.724
 1314TIP3   OH2 3947   2.503   0.355   1.868
 1314TIP3    H1 3948   2.484   0.261   1.876
 1314TIP3    H2 3949   2.529   0.382   1.956
 1315TIP3   OH2 3950   3.253   5.333   4.246
 1315TIP3    H1 3951   3.337   5.314   4.204
 1315TIP3    H2 3952   3.209   5.249   4.252
 1316TIP3   OH2 3953  -0.021   2.705   2.459
 1316TIP3    H1 3954   0.048   2.772   2.450
 1316TIP3    H2 3955  -0.098   2.754   2.488
 1317TIP3   OH2 3956   5.936   1.157   4.568
 1317TIP3    H1 3957   6.004   1.220   4.593
 1317TIP3    H2 3958   5.861   1.180   4.623
 1318TIP3   OH2 3959   4.568   5.948   2.939
 1318TIP3    H1 3960   4.500   6.008   2.908
 1318TIP3    H2 3961   4.605   5.910   2.860
 1319TIP3   OH2 3962   5.440   3.608   5.207
 1319TIP3    H1 3963   5.441   3.590   5.113
 1319TIP3    H2 3964   5.401   3.695   5.215
 1320TIP3   OH2 3965   0.623   1.483   1.407
 1320TIP3    H1 3966   0.622   1.500   1.501
 1320TIP3    H2 3967   0.613   1.569   1.367
 1321TIP3   OH2 3968   3.089   5.392   1.522
 1321TIP3    H1 3969   3.164   5.444   1.492
 1321TIP3    H2 3970   3.122   5.303   1.528
 1322TIP3   OH2 3971   4.014   1.688   4.864
 1322TIP3    H1 3972   4.030   1.739   4.785
 1322TIP3    H2 3973   4.009   1.753   4.934
 1323TIP3   OH2 3974   2.041   5.460   0.074
 1323TIP3    H1 3975   2.006   5.436   0.160
 1323TIP3    H2 3976   2.083   5.545   0.087
 1324TIP3   OH2 3977   5.694   5.457   4.275
 1324TIP3    H1 3978   5.754   5.384   4.261
 1324TIP3    H2 3979   5.736   5.532   4.233
 1325TIP3   OH2 3980   1.347   0.241   1.738
 1325TIP3    H1 3981   1.405   0.248   1.662
 1325TIP3    H2 3982   1.387   0.298   1.804
 1326TIP3   OH2 3983   0.750   3.008   4.425
 1326TIP3    H1 3984   0.730   3.074   4.492
 1326TIP3    H2 3985   0.669   2.960   4.413
 1327TIP3   OH2 3986   3.495   2.707   2.519
 1327TIP3    H1 3987   3.437   2.641   2.481
 1327TIP3    H2 3988   3.460   2.790   2.487
 1328TIP3   OH2 3989   6.046   1.780   2.224
 1328TIP3    H1 3990   6.091   1.847   2.172
 1328TIP3    H2 3991   5.988   1.830   2.282
 1329TIP3   OH2 3992   6.188   4.147   3.306
 1329TIP3    H1 3993   6.245   4.222   3.288
 1329TIP3    H2 3994   6.125   4.180   3.370
 1330TIP3   OH2 3995   3.121   1.465   3.954
 1330TIP3    H1 3996   3.093   1.504   4.037
 1330TIP3    H2 3997   3.210   1.434   3.971
 1331TIP3   OH2 3998   0.690   2.525   3.742
 1331TIP3    H1 3999   0.769   2.479   3.769
 1331TIP3    H2 4000   0.723   2.607   3.704
 1332TIP3   OH2 4001   3.553   5.189   4.755
 1332TIP3    H1 4002   3.508   5.238   4.686
 1332TIP3    H2 4003   3.612   5.253   4.795
 1333TIP3   OH2 4004   0.199   2.357   0.417
 1333TIP3    H1 4005   0.178   2.363   0.324
 1333TIP3    H2 4006   0.278   2.409   0.427
 1334TIP3   OH2 4007   3.528   1.048   4.970
 1334TIP3    H1 4008   3.506   1.123   4.915
 1334TIP3    H2 4009   3.447   1.031   5.019
 1335TIP3   OH2 4010   5.989   2.102   4.573
 1335TIP3    H1 4011   6.052   2.133   4.638
 1335TIP3    H2 4012   5.907   2.144   4.596
 1336TIP3   OH2 4013   5.553   4.346   3.844
 1336TIP3    H1 4014   5.560   4.441   3.834
 1336TIP3    H2 4015   5.459   4.329   3.838
 1337TIP3   OH2 4016   0.953   1.734   0.745
 1337TIP3    H1 4017   0.924   1.659   0.798
 1337TIP3    H2 4018   1.044   1.713   0.722
 1338TIP3   OH2 4019   0.815   2.110   2.472
 1338TIP3    H1 4020   0.850   2.123   2.385
 1338TIP3    H2 4021   0.775   2.194   2.495
 1339TIP3   OH2 4022   1.800   0.607   4.378
 1339TIP3    H1 4023   1.795   0.643   4.289
 1339TIP3    H2 4024   1.708   0.600   4.405
 1340TIP3   OH2 4025   2.253   3.531   2.392
 1340TIP3    H1 4026   2.189   3.487   2.448
 1340TIP3    H2 4027   2.200   3.584   2.333
 1341TIP3   OH2 4028   0.575   1.936   4.181
 1341TIP3    H1 4029   0.501   1.896   4.226
 1341TIP3    H2 4030   0.647   1.930   4.243
 1342TIP3   OH2 4031   5.418   5.561   1.695
 1342TIP3    H1 4032   5.334   5.593   1.662
 1342TIP3    H2 4033   5.398   5.528   1.783
 1343TIP3   OH2 4034   1.730   3.950   1.350
 1343TIP3    H1 4035   1.717   4.019   1.416
 1343TIP3    H2 4036   1.672   3.879   1.378
 1344TIP3   OH2 4037   0.816   0.763   0.232
 1344TIP3    H1 4038   0.897   0.730   0.193
 1344TIP3    H2 4039   0.785   0.829   0.169
 1345TIP3   OH2 4040   1.322   0.852   2.584
 1345TIP3    H1 4041   1.269   0.829   2.661
 1345TIP3    H2 4042   1.260   0.849   2.511
 1346TIP3   OH2 4043   2.205   0.292   0.184
 1346TIP3    H1 4044   2.296   0.265   0.197
 1346TIP3    H2 4045   2.170   0.229   0.121
 1347TIP3   OH2 4046   1.149   1.033   1.476
 1347TIP3    H1 4047   1.083   1.015   1.409
 1347TIP3    H2 4048   1.231   1.002   1.438
 1348TIP3   OH2 4049   2.167   4.170   1.212
 1348TIP3    H1 4050   2.102   4.139   1.276
 1348TIP3    H2 4051   2.250   4.133   1.242
 1349TIP3   OH2 4052   3.392   0.198   1.643
 1349TIP3    H1 4053   3.349   0.254   1.707
 1349TIP3    H2 4054   3.464   0.157   1.693
 1350TIP3   OH2 4055   1.694   4.229   5.082
 1350TIP3    H1 4056   1.653   4.242   4.997
 1350TIP3    H2 4057   1.752   4.154   5.070
 1351TIP3   OH2 4058   2.459   2.042   2.982
 1351TIP3    H1 4059   2.462   2.001   3.068
 1351TIP3    H2 4060   2.548   2.035   2.948
 1352TIP3   OH2 4061   4.311   3.648   0.770
 1352TIP3    H1 4062   4.394   3.621   0.810
 1352TIP3    H2 4063   4.296   3.584   0.701
 1353TIP3   OH2 4064   3.777   1.054   2.908
 1353TIP3    H1 4065   3.870   1.042   2.888
 1353TIP3    H2 4066   3.775   1.124   2.973
 1354TIP3   OH2 4067   3.884   2.123   0.335
 1354TIP3    H1 4068   3.892   2.211   0.371
 1354TIP3    H2 4069   3.974   2.097   0.316
 1355TIP3   OH2 4070   0.298   5.289   1.965
 1355TIP3    H1 4071   0.291   5.266   1.872
 1355TIP3    H2 4072   0.380   5.250   1.994
 1356TIP3   OH2 4073   1.747   2.040   2.279
 1356TIP3    H1 4074   1.804   1.991   2.219
 1356TIP3    H2 4075   1.722   1.976   2.346
 1357TIP3   OH2 4076   5.274   4.631   0.218
 1357TIP3    H1 4077   5.340   4.697   0.193
 1357TIP3    H2 4078   5.325   4.554   0.240
 1358TIP3   OH2 4079   6.258   3.505   3.419
 1358TIP3    H1 4080   6.298   3.448   3.354
 1358TIP3    H2 4081   6.187   3.549   3.372
 1359TIP3   OH2 4082   3.357   5.802   3.179
 1359TIP3    H1 4083   3.282   5.798   3.239
 1359TIP3    H2 4084   3.332   5.867   3.114
 1360TIP3   OH2 4085   0.363   4.895   4.858
 1360TIP3    H1 4086   0.282   4.943   4.876
 1360TIP3    H2 4087   0.353   4.864   4.768
 1361TIP3   OH2 4088   5.601   3.899   2.471
 1361TIP3    H1 4089   5.589   3.974   2.413
 1361TIP3    H2 4090   5.693   3.901   2.494
 1362TIP3   OH2 4091   4.314   0.878   2.303
 1362TIP3    H1 4092   4.340   0.956   2.255
 1362TIP3    H2 4093   4.229   0.900   2.341
 1363TIP3   OH2 4094   5.501   1.674   2.469
 1363TIP3    H1 4095   5.458   1.690   2.385
 1363TIP3    H2 4096   5.591   1.653   2.446
 1364TIP3   OH2 4097   5.071   1.564   4.478
 1364TIP3    H1 4098   5.065   1.624   4.405
 1364TIP3    H2 4099   5.026   1.608   4.550
 1365TIP3   OH2 4100   4.427   5.548   0.637
 1365TIP3    H1 4101   4.434   5.477   0.700
 1365TIP3    H2 4102   4.357   5.604   0.672
 1366TIP3   OH2 4103   5.567   2.534   1.264
 1366TIP3    H1 4104   5.605   2.585   1.336
 1366TIP3    H2 4105   5.593   2.582   1.185
 1367TIP3   OH2 4106   0.148   1.651   2.430
 1367TIP3    H1 4107   0.062   1.617   2.455
 1367TIP3    H2 4108   0.173   1.598   2.354
 1368TIP3   OH2 4109   5.244   4.501   3.419
 1368TIP3    H1 4110   5.326   4.522   3.465
 1368TIP3    H2 4111   5.268   4.431   3.359
 1369TIP3   OH2 4112   1.519   3.560   5.024
 1369TIP3    H1 4113   1.507   3.477   5.070
 1369TIP3    H2 4114   1.457   3.557   4.951
 1370TIP3   OH2 4115   4.697   3.861   1.331
 1370TIP3    H1 4116   4.772   3.802   1.332
 1370TIP3    H2 4117   4.734   3.947   1.308
 1371TIP3   OH2 4118   4.087   5.542   4.562
 1371TIP3    H1 4119   4.101   5.573   4.473
 1371TIP3    H2 4120   3.999   5.504   4.561
 1372TIP3   OH2 4121   1.545   1.580   1.035
 1372TIP3    H1 4122   1.613   1.517   1.012
 1372TIP3    H2 4123   1.586   1.638   1.099
 1373TIP3   OH2 4124   5.625   5.551   2.463
 1373TIP3    H1 4125   5.684   5.488   2.422
 1373TIP3    H2 4126   5.537   5.518   2.442
 1374TIP3   OH2 4127   2.480   3.262   3.620
 1374TIP3    H1 4128   2.393   3.301   3.632
 1374TIP3    H2 4129   2.486   3.244   3.526
 1375TIP3   OH2 4130   3.449   0.079   3.361
 1375TIP3    H1 4131   3.452   0.174   3.352
 1375TIP3    H2 4132   3.501   0.046   3.287
 1376TIP3   OH2 4133   1.725   1.691   1.234
 1376TIP3    H1 4134   1.781   1.717   1.307
 1376TIP3    H2 4135   1.750   1.600   1.216
 1377TIP3   OH2 4136   2.112   1.575   4.823
 1377TIP3    H1 4137   2.134   1.666   4.841
 1377TIP3    H2 4138   2.112   1.568   4.728
 1378TIP3   OH2 4139   2.612   0.135   0.129
 1378TIP3    H1 4140   2.650   0.223   0.120
 1378TIP3    H2 4141   2.618   0.098   0.041
 1379TIP3   OH2 4142   5.426   4.420   1.266
 1379TIP3    H1 4143   5.422   4.429   1.171
 1379TIP3    H2 4144   5.339   4.447   1.296
 1380TIP3   OH2 4145   3.781   4.647   0.291
 1380TIP3    H1 4146   3.712   4.592   0.255
 1380TIP3    H2 4147   3.862   4.602   0.268
 1381TIP3   OH2 4148   5.773   2.352   4.299
 1381TIP3    H1 4149   5.778   2.447   4.291
 1381TIP3    H2 4150   5.694   2.328   4.251
 1382TIP3   OH2 4151   3.281   3.051   2.691
 1382TIP3    H1 4152   3.334   2.993   2.635
 1382TIP3    H2 4153   3.287   3.012   2.778
 1383TIP3   OH2 4154   1.783   4.743   1.534
 1383TIP3    H1 4155   1.723   4.816   1.516
 1383TIP3    H2 4156   1.737   4.666   1.503
 1384TIP3   OH2 4157   0.101   4.702   0.845
 1384TIP3    H1 4158   0.047   4.624   0.834
 1384TIP3    H2 4159   0.038   4.770   0.870
 1385TIP3   OH2 4160   5.194   5.413   1.113
 1385TIP3    H1 4161   5.206   5.471   1.189
 1385TIP3    H2 4162   5.163   5.472   1.044
 1386TIP3   OH2 4163   1.969   5.543   2.132
 1386TIP3    H1 4164   2.058   5.517   2.156
 1386TIP3    H2 4165   1.980   5.601   2.057
 1387TIP3   OH2 4166   1.870   2.372   1.366
 1387TIP3    H1 4167   1.845   2.282   1.389
 1387TIP3    H2 4168   1.922   2.402   1.440
 1388TIP3   OH2 4169   0.644   0.972   5.032
 1388TIP3    H1 4170   0.658   0.880   5.011
 1388TIP3    H2 4171   0.577   0.971   5.101
 1389TIP3   OH2 4172   2.166   1.426   3.307
 1389TIP3    H1 4173   2.118   1.474   3.375
 1389TIP3    H2 4174   2.151   1.334   3.328
 1390TIP3   OH2 4175   4.302   5.277   2.491
 1390TIP3    H1 4176   4.300   5.353   2.434
 1390TIP3    H2 4177   4.271   5.204   2.437
 1391TIP3   OH2 4178   4.273   3.191   1.321
 1391TIP3    H1 4179   4.272   3.227   1.409
 1391TIP3    H2 4180   4.239   3.102   1.330
 1392TIP3   OH2 4181  -0.034   3.475   4.240
 1392TIP3    H1 4182  -0.008   3.401   4.184
 1392TIP3    H2 4183  -0.031   3.551   4.182
 1393TIP3   OH2 4184   3.408   2.758   0.216
 1393TIP3    H1 4185   3.430   2.843   0.178
 1393TIP3    H2 4186   3.340   2.722   0.159
 1394TIP3   OH2 4187   5.858   0.637   2.848
 1394TIP3    H1 4188   5.764   0.616   2.851
 1394TIP3    H2 4189   5.902   0.554   2.865
 1395TIP3   OH2 4190   3.382   1.082   1.224
 1395TIP3    H1 4191   3.428   1.018   1.170
 1395TIP3    H2 4192   3.356   1.151   1.163
 1396TIP3   OH2 4193   5.181   5.627   1.286
 1396TIP3    H1 4194   5.177   5.617   1.381
 1396TIP3    H2 4195   5.241   5.701   1.272
 1397TIP3   OH2 4196   0.275   0.664   2.138
 1397TIP3    H1 4197   0.299   0.597   2.074
 1397TIP3    H2 4198   0.206   0.715   2.095
 1398TIP3   OH2 4199   5.673   1.087   0.656
 1398TIP3    H1 4200   5.754   1.037   0.666
 1398TIP3    H2 4201   5.692   1.150   0.586
 1399TIP3   OH2 4202   4.504   1.398   3.905
 1399TIP3    H1 4203   4.537   1.309   3.891
 1399TIP3    H2 4204   4.415   1.396   3.871
 1400TIP3   OH2 4205   5.098   3.649   4.496
 1400TIP3    H1 4206   5.014   3.611   4.524
 1400TIP3    H2 4207   5.096   3.738   4.530
 1401TIP3   OH2 4208   0.829   0.631   1.091
 1401TIP3    H1 4209   0.800   0.660   1.004
 1401TIP3    H2 4210   0.786   0.691   1.152
 1402TIP3   OH2 4211   5.872   3.868   1.381
 1402TIP3    H1 4212   5.814   3.815   1.435
 1402TIP3    H2 4213   5.936   3.806   1.347
 1403TIP3   OH2 4214   0.753   5.675   1.294
 1403TIP3    H1 4215   0.720   5.756   1.254
 1403TIP3    H2 4216   0.769   5.617   1.220
 1404TIP3   OH2 4217   3.174   4.755   3.834
 1404TIP3    H1 4218   3.098   4.719   3.879
 1404TIP3    H2 4219   3.143   4.836   3.794
 1405TIP3   OH2 4220   3.778   2.095   3.948
 1405TIP3    H1 4221   3.832   2.174   3.938
 1405TIP3    H2 4222   3.692   2.121   3.915
 1406TIP3   OH2 4223   2.962   2.410   0.422
 1406TIP3    H1 4224   2.961   2.392   0.516
 1406TIP3    H2 4225   2.948   2.325   0.380
 1407TIP3   OH2 4226   2.261   5.411   2.952
 1407TIP3    H1 4227   2.313   5.376   2.880
 1407TIP3    H2 4228   2.191   5.461   2.909
 1408TIP3   OH2 4229   5.222   2.816   1.417
 1408TIP3    H1 4230   5.136   2.788   1.448
 1408TIP3    H2 4231   5.282   2.747   1.446
 1409TIP3   OH2 4232   1.798   0.208   1.397
 1409TIP3    H1 4233   1.776   0.293   1.359
 1409TIP3    H2 4234   1.827   0.229   1.486
 1410TIP3   OH2 4235   5.488   1.680   1.846
 1410TIP3    H1 4236   5.542   1.692   1.768
 1410TIP3    H2 4237   5.476   1.768   1.881
 1411TIP3   OH2 4238   3.381   3.633   0.565
 1411TIP3    H1 4239   3.365   3.609   0.656
 1411TIP3    H2 4240   3.429   3.558   0.529
 1412TIP3   OH2 4241   2.568   3.327   4.708
 1412TIP3    H1 4242   2.476   3.319   4.682
 1412TIP3    H2 4243   2.599   3.405   4.662
 1413TIP3   OH2 4244   0.646   2.714   4.141
 1413TIP3    H1 4245   0.597   2.633   4.155
 1413TIP3    H2 4246   0.738   2.686   4.142
 1414TIP3   OH2 4247   6.007   5.944   4.404
 1414TIP3    H1 4248   6.099   5.969   4.410
 1414TIP3    H2 4249   5.964   6.018   4.362
 1415TIP3   OH2 4250   0.434   4.832   1.394
 1415TIP3    H1 4251   0.356   4.777   1.388
 1415TIP3    H2 4252   0.506   4.775   1.369
 1416TIP3   OH2 4253   5.322   1.387   2.780
 1416TIP3    H1 4254   5.378   1.318   2.744
 1416TIP3    H2 4255   5.303   1.444   2.705
 1417TIP3   OH2 4256   5.396   5.966   0.008
 1417TIP3    H1 4257   5.426   6.057  -0.001
 1417TIP3    H2 4258   5.457   5.915  -0.045
 1418TIP3   OH2 4259   1.203   4.523   0.949
 1418TIP3    H1 4260   1.183   4.430   0.959
 1418TIP3    H2 4261   1.124   4.560   0.909
 1419TIP3   OH2 4262   2.285   3.725   3.306
 1419TIP3    H1 4263   2.234   3.731   3.387
 1419TIP3    H2 4264   2.232   3.771   3.241
 1420TIP3   OH2 4265   2.181   2.603   4.091
 1420TIP3    H1 4266   2.255   2.656   4.122
 1420TIP3    H2 4267   2.107   2.632   4.144
 1421TIP3   OH2 4268   1.399   0.866   1.046
 1421TIP3    H1 4269   1.420   0.955   1.016
 1421TIP3    H2 4270   1.445   0.809   0.984
 1422TIP3   OH2 4271   6.144   0.708   1.669
 1422TIP3    H1 4272   6.234   0.686   1.692
 1422TIP3    H2 4273   6.152   0.768   1.595
 1423TIP3   OH2 4274   5.477   1.153   1.022
 1423TIP3    H1 4275   5.401   1.095   1.020
 1423TIP3    H2 4276   5.445   1.237   0.990
 1424TIP3   OH2 4277   3.461   4.192   3.995
 1424TIP3    H1 4278   3.489   4.270   4.044
 1424TIP3    H2 4279   3.528   4.181   3.928
 1425TIP3   OH2 4280   2.911   5.936   1.892
 1425TIP3    H1 4281   2.838   5.941   1.954
 1425TIP3    H2 4282   2.976   5.883   1.937
 1426TIP3   OH2 4283   3.121   3.499   1.552
 1426TIP3    H1 4284   3.099   3.406   1.551
 1426TIP3    H2 4285   3.121   3.525   1.460
 1427TIP3   OH2 4286   5.257   2.999   2.896
 1427TIP3    H1 4287   5.197   2.955   2.835
 1427TIP3    H2 4288   5.257   3.090   2.867
 1428TIP3   OH2 4289   4.518   6.013   4.164
 1428TIP3    H1 4290   4.439   5.974   4.125
 1428TIP3    H2 4291   4.591   5.970   4.119
 1429TIP3   OH2 4292   1.688   2.927   4.242
 1429TIP3    H1 4293   1.669   2.923   4.336
 1429TIP3    H2 4294   1.783   2.937   4.237
 1430TIP3   OH2 4295   2.671   2.421   3.795
 1430TIP3    H1 4296   2.716   2.479   3.734
 1430TIP3    H2 4297   2.661   2.473   3.875
 1431TIP3   OH2 4298   1.064   2.355   1.351
 1431TIP3    H1 4299   1.145   2.381   1.396
 1431TIP3    H2 4300   1.067   2.259   1.349
 1432TIP3   OH2 4301   1.571   4.561   3.636
 1432TIP3    H1 4302   1.511   4.554   3.561
 1432TIP3    H2 4303   1.601   4.472   3.651
 1433TIP3   OH2 4304   2.571   3.926   2.366
 1433TIP3    H1 4305   2.582   3.991   2.435
 1433TIP3    H2 4306   2.615   3.848   2.399
 1434TIP3   OH2 4307   6.037   1.823   4.208
 1434TIP3    H1 4308   6.007   1.869   4.130
 1434TIP3    H2 4309   6.002   1.735   4.198
 1435TIP3   OH2 4310   3.153   4.329   3.752
 1435TIP3    H1 4311   3.098   4.386   3.698
 1435TIP3    H2 4312   3.225   4.304   3.694
 1436TIP3   OH2 4313   1.187   4.685   0.054
 1436TIP3    H1 4314   1.269   4.733   0.061
 1436TIP3    H2 4315   1.131   4.739  -0.002
 1437TIP3   OH2 4316   2.872   2.769   3.273
 1437TIP3    H1 4317   2.910   2.708   3.210
 1437TIP3    H2 4318   2.778   2.768   3.254
 1438TIP3   OH2 4319   3.741   2.472   1.924
 1438TIP3    H1 4320   3.794   2.514   1.991
 1438TIP3    H2 4321   3.650   2.487   1.952
 1439TIP3   OH2 4322   5.737   4.856   5.116
 1439TIP3    H1 4323   5.812   4.898   5.073
 1439TIP3    H2 4324   5.663   4.876   5.060
 1440TIP3   OH2 4325   0.081   4.165   4.622
 1440TIP3    H1 4326   0.045   4.209   4.699
 1440TIP3    H2 4327   0.095   4.075   4.650
 1441TIP3   OH2 4328   1.001   3.044   2.617
 1441TIP3    H1 4329   0.968   3.008   2.534
 1441TIP3    H2 4330   1.022   2.968   2.670
 1442TIP3   OH2 4331   2.705   2.578   0.375
 1442TIP3    H1 4332   2.784   2.602   0.327
 1442TIP3    H2 4333   2.736   2.520   0.445
 1443TIP3   OH2 4334   2.430   3.663   2.572
 1443TIP3    H1 4335   2.373   3.739   2.582
 1443TIP3    H2 4336   2.380   3.602   2.518
 1444TIP3   OH2 4337   6.049   3.174   2.338
 1444TIP3    H1 4338   6.125   3.229   2.320
 1444TIP3    H2 4339   6.027   3.134   2.254
 1445TIP3   OH2 4340   1.688   1.559   3.895
 1445TIP3    H1 4341   1.709   1.506   3.972
 1445TIP3    H2 4342   1.758   1.626   3.893
 1446TIP3   OH2 4343   4.932   5.789   2.142
 1446TIP3    H1 4344   4.839   5.807   2.154
 1446TIP3    H2 4345   4.977   5.852   2.199
 1447TIP3   OH2 4346   3.773   5.483   0.532
 1447TIP3    H1 4347   3.804   5.410   0.480
 1447TIP3    H2 4348   3.802   5.464   0.621
 1448TIP3   OH2 4349   2.892   0.431   4.411
 1448TIP3    H1 4350   2.865   0.393   4.494
 1448TIP3    H2 4351   2.986   0.412   4.405
 1449TIP3   OH2 4352   5.387   4.267   2.575
 1449TIP3    H1 4353   5.420   4.271   2.486
 1449TIP3    H2 4354   5.308   4.320   2.574
 1450TIP3   OH2 4355   2.740   1.381   3.777
 1450TIP3    H1 4356   2.751   1.465   3.821
 1450TIP3    H2 4357   2.780   1.394   3.691
 1451TIP3   OH2 4358   1.484   1.726   1.542
 1451TIP3    H1 4359   1.417   1.704   1.606
 1451TIP3    H2 4360   1.555   1.764   1.594
 1452TIP3   OH2 4361   0.598   4.463   1.852
 1452TIP3    H1 4362   0.643   4.547   1.849
 1452TIP3    H2 4363   0.629   4.416   1.774
 1453TIP3   OH2 4364   2.754   2.079   1.931
 1453TIP3    H1 4365   2.716   2.134   1.863
 1453TIP3    H2 4366   2.694   2.005   1.938
 1454TIP3   OH2 4367   0.180   0.907   1.653
 1454TIP3    H1 4368   0.262   0.919   1.701
 1454TIP3    H2 4369   0.150   0.820   1.677
 1455TIP3   OH2 4370   2.689   2.077   5.115
 1455TIP3    H1 4371   2.783   2.077   5.100
 1455TIP3    H2 4372   2.678   2.043   5.204
 1456TIP3   OH2 4373   5.980   3.157   3.687
 1456TIP3    H1 4374   6.017   3.069   3.678
 1456TIP3    H2 4375   6.053   3.216   3.670
 1457TIP3   OH2 4376   5.846   3.923   2.570
 1457TIP3    H1 4377   5.908   3.996   2.565
 1457TIP3    H2 4378   5.900   3.848   2.596
 1458TIP3   OH2 4379   5.102   0.672   0.547
 1458TIP3    H1 4380   5.063   0.745   0.499
 1458TIP3    H2 4381   5.036   0.650   0.613
 1459TIP3   OH2 4382   0.205   3.052   0.688
 1459TIP3    H1 4383   0.270   3.112   0.652
 1459TIP3    H2 4384   0.122   3.100   0.682
 1460TIP3   OH2 4385   1.578   0.735   0.863
 1460TIP3    H1 4386   1.521   0.664   0.895
 1460TIP3    H2 4387   1.665   0.696   0.859
 1461TIP3   OH2 4388   1.936   2.983   4.360
 1461TIP3    H1 4389   1.947   2.955   4.451
 1461TIP3    H2 4390   1.978   3.069   4.356
 1462TIP3   OH2 4391   6.199   0.366   3.926
 1462TIP3    H1 4392   6.229   0.455   3.907
 1462TIP3    H2 4393   6.216   0.355   4.020
 1463TIP3   OH2 4394   0.701   4.245   3.268
 1463TIP3    H1 4395   0.606   4.252   3.262
 1463TIP3    H2 4396   0.717   4.164   3.317
 1464TIP3   OH2 4397   3.331   1.001   4.215
 1464TIP3    H1 4398   3.312   0.907   4.219
 1464TIP3    H2 4399   3.317   1.031   4.305
 1465TIP3   OH2 4400   5.990   5.443   0.807
 1465TIP3    H1 4401   5.962   5.443   0.716
 1465TIP3    H2 4402   5.924   5.389   0.852
 1466TIP3   OH2 4403   0.110   0.425   1.982
 1466TIP3    H1 4404   0.107   0.334   1.951
 1466TIP3    H2 4405   0.168   0.422   2.058
 1467TIP3   OH2 4406   6.039   0.850   3.475
 1467TIP3    H1 4407   6.060   0.796   3.551
 1467TIP3    H2 4408   5.956   0.891   3.498
 1468TIP3   OH2 4409   0.809   4.737   2.572
 1468TIP3    H1 4410   0.856   4.721   2.490
 1468TIP3    H2 4411   0.827   4.828   2.593
 1469TIP3   OH2 4412   4.321   3.082   4.371
 1469TIP3    H1 4413   4.377   3.160   4.368
 1469TIP3    H2 4414   4.285   3.083   4.460
 1470TIP3   OH2 4415   2.939   2.253   0.690
 1470TIP3    H1 4416   2.977   2.298   0.765
 1470TIP3    H2 4417   2.855   2.296   0.676
 1471TIP3   OH2 4418   3.049   4.776   4.544
 1471TIP3    H1 4419   3.053   4.849   4.482
 1471TIP3    H2 4420   3.032   4.818   4.629
 1472TIP3   OH2 4421   2.063   3.549   0.914
 1472TIP3    H1 4422   2.004   3.484   0.950
 1472TIP3    H2 4423   2.084   3.607   0.987
 1473TIP3   OH2 4424   2.457   0.036   2.529
 1473TIP3    H1 4425   2.395   0.100   2.564
 1473TIP3    H2 4426   2.509   0.086   2.465
 1474TIP3   OH2 4427   0.022   1.969   0.509
 1474TIP3    H1 4428  -0.050   1.912   0.536
 1474TIP3    H2 4429   0.028   1.957   0.414
 1475TIP3   OH2 4430   1.678   3.924   0.608
 1475TIP3    H1 4431   1.663   3.961   0.695
 1475TIP3    H2 4432   1.650   3.833   0.615
 1476TIP3   OH2 4433   3.229   2.165   1.651
 1476TIP3    H1 4434   3.181   2.083   1.640
 1476TIP3    H2 4435   3.218   2.211   1.568
 1477TIP3   OH2 4436   5.335   1.828   4.711
 1477TIP3    H1 4437   5.384   1.779   4.644
 1477TIP3    H2 4438   5.335   1.918   4.679
 1478TIP3   OH2 4439   2.954   4.408   4.225
 1478TIP3    H1 4440   2.960   4.375   4.315
 1478TIP3    H2 4441   3.036   4.381   4.184
 1479TIP3   OH2 4442   1.551   1.574   4.700
 1479TIP3    H1 4443   1.608   1.582   4.776
 1479TIP3    H2 4444   1.549   1.481   4.681
 1480TIP3   OH2 4445   1.014   4.164   3.887
 1480TIP3    H1 4446   0.982   4.192   3.973
 1480TIP3    H2 4447   0.967   4.219   3.825
 1481TIP3   OH2 4448   4.609   1.013   4.256
 1481TIP3    H1 4449   4.592   0.920   4.244
 1481TIP3    H2 4450   4.525   1.051   4.279
 1482TIP3   OH2 4451   5.516   2.562   3.827
 1482TIP3    H1 4452   5.524   2.546   3.733
 1482TIP3    H2 4453   5.606   2.559   3.859
 1483TIP3   OH2 4454   4.296   4.305   2.705
 1483TIP3    H1 4455   4.292   4.306   2.800
 1483TIP3    H2 4456   4.386   4.328   2.684
 1484TIP3   OH2 4457   3.741   1.532   2.853
 1484TIP3    H1 4458   3.753   1.626   2.837
 1484TIP3    H2 4459   3.676   1.506   2.788
 1485TIP3   OH2 4460   4.977   5.826   0.843
 1485TIP3    H1 4461   5.007   5.735   0.844
 1485TIP3    H2 4462   4.973   5.849   0.750
 1486TIP3   OH2 4463   0.189   0.117   1.416
 1486TIP3    H1 4464   0.119   0.145   1.358
 1486TIP3    H2 4465   0.263   0.100   1.358
 1487TIP3   OH2 4466   3.647   0.972   0.640
 1487TIP3    H1 4467   3.698   1.026   0.700
 1487TIP3    H2 4468   3.641   0.887   0.684
 1488TIP3   OH2 4469   3.983   5.696   4.991
 1488TIP3    H1 4470   3.979   5.775   5.046
 1488TIP3    H2 4471   3.892   5.670   4.980
 1489TIP3   OH2 4472   4.673   0.302   2.436
 1489TIP3    H1 4473   4.740   0.247   2.477
 1489TIP3    H2 4474   4.600   0.299   2.498
 1490TIP3   OH2 4475   4.550   2.022   1.529
 1490TIP3    H1 4476   4.625   1.975   1.493
 1490TIP3    H2 4477   4.577   2.048   1.617
 1491TIP3   OH2 4478   1.130   2.908   1.712
 1491TIP3    H1 4479   1.110   2.919   1.619
 1491TIP3    H2 4480   1.141   2.814   1.723
 1492TIP3   OH2 4481   3.914   3.100   2.129
 1492TIP3    H1 4482   3.947   3.145   2.052
 1492TIP3    H2 4483   3.956   3.014   2.126
 1493TIP3   OH2 4484   5.363   0.446   2.555
 1493TIP3    H1 4485   5.446   0.493   2.563
 1493TIP3    H2 4486   5.360   0.419   2.463
 1494TIP3   OH2 4487   2.195   4.738   4.792
 1494TIP3    H1 4488   2.129   4.689   4.841
 1494TIP3    H2 4489   2.238   4.792   4.858
 1495TIP3   OH2 4490   5.919   4.441   0.434
 1495TIP3    H1 4491   5.883   4.354   0.452
 1495TIP3    H2 4492   5.960   4.432   0.348
 1496TIP3   OH2 4493   3.721   3.261   1.792
 1496TIP3    H1 4494   3.690   3.351   1.782
 1496TIP3    H2 4495   3.666   3.210   1.732
 1497TIP3   OH2 4496   4.981   4.137   3.859
 1497TIP3    H1 4497   5.068   4.097   3.850
 1497TIP3    H2 4498   4.985   4.215   3.805
 1498TIP3   OH2 4499   4.905   0.037   3.511
 1498TIP3    H1 4500   4.864  -0.048   3.529
 1498TIP3    H2 4501   4.997   0.025   3.534
 1499TIP3   OH2 4502   2.935   4.626   0.897
 1499TIP3    H1 4503   2.911   4.632   0.990
 1499TIP3    H2 4504   2.865   4.574   0.857
 1500TIP3   OH2 4505   2.414   4.088   0.673
 1500TIP3    H1 4506   2.466   4.159   0.709
 1500TIP3    H2 4507   2.343   4.131   0.625
 1501TIP3   OH2 4508   2.151   0.265   1.518
 1501TIP3    H1 4509   2.133   0.222   1.602
 1501TIP3    H2 4510   2.112   0.352   1.528
 1502TIP3   OH2 4511   4.262   5.905   4.922
 1502TIP3    H1 4512   4.227   5.855   4.848
 1502TIP3    H2 4513   4.193   5.905   4.987
 1503TIP3   OH2 4514   5.770   5.367   2.332
 1503TIP3    H1 4515   5.792   5.299   2.268
 1503TIP3    H2 4516   5.838   5.359   2.399
 1504TIP3   OH2 4517   1.634   5.760   1.482
 1504TIP3    H1 4518   1.631   5.698   1.409
 1504TIP3    H2 4519   1.564   5.823   1.462
 1505TIP3   OH2 4520   0.623   3.106   5.002
 1505TIP3    H1 4521   0.583   3.169   4.942
 1505TIP3    H2 4522   0.641   3.157   5.081
 1506TIP3   OH2 4523   2.445   4.920   2.020
 1506TIP3    H1 4524   2.431   4.971   2.099
 1506TIP3    H2 4525   2.496   4.978   1.962
 1507TIP3   OH2 4526   5.557   4.527   0.033
 1507TIP3    H1 4527   5.637   4.475   0.034
 1507TIP3    H2 4528   5.581   4.607  -0.015
 1508TIP3   OH2 4529   4.956   2.974   3.645
 1508TIP3    H1 4530   5.046   2.988   3.614
 1508TIP3    H2 4531   4.901   3.021   3.582
 1509TIP3   OH2 4532   0.490   1.920   2.825
 1509TIP3    H1 4533   0.574   1.943   2.785
 1509TIP3    H2 4534   0.510   1.903   2.917
 1510TIP3   OH2 4535   0.728   3.327   0.833
 1510TIP3    H1 4536   0.682   3.351   0.913
 1510TIP3    H2 4537   0.792   3.397   0.820
 1511TIP3   OH2 4538   5.284   2.093   2.285
 1511TIP3    H1 4539   5.271   2.116   2.377
 1511TIP3    H2 4540   5.207   2.128   2.240
 1512TIP3   OH2 4541   0.404   2.788   0.183
 1512TIP3    H1 4542   0.434   2.764   0.096
 1512TIP3    H2 4543   0.415   2.883   0.187
 1513TIP3   OH2 4544   4.535   5.146   0.247
 1513TIP3    H1 4545   4.609   5.087   0.260
 1513TIP3    H2 4546   4.576   5.230   0.227
 1514TIP3   OH2 4547   3.155   0.716   4.409
 1514TIP3    H1 4548   3.061   0.709   4.421
 1514TIP3    H2 4549   3.192   0.655   4.474
 1515TIP3   OH2 4550   0.485   2.758   2.447
 1515TIP3    H1 4551   0.546   2.694   2.483
 1515TIP3    H2 4552   0.415   2.706   2.409
 1516TIP3   OH2 4553   3.588   4.268   2.757
 1516TIP3    H1 4554   3.633   4.285   2.840
 1516TIP3    H2 4555   3.513   4.214   2.782
 1517TIP3   OH2 4556   5.555   5.628   1.947
 1517TIP3    H1 4557   5.635   5.576   1.957
 1517TIP3    H2 4558   5.485   5.563   1.940
 1518TIP3   OH2 4559   0.973   4.505   0.804
 1518TIP3    H1 4560   0.953   4.498   0.711
 1518TIP3    H2 4561   0.890   4.490   0.848
 1519TIP3   OH2 4562   2.376   1.648   0.076
 1519TIP3    H1 4563   2.427   1.651  -0.005
 1519TIP3    H2 4564   2.344   1.738   0.087
 1520TIP3   OH2 4565   0.701   1.031   3.255
 1520TIP3    H1 4566   0.741   1.085   3.323
 1520TIP3    H2 4567   0.624   1.081   3.226
 1521TIP3   OH2 4568   0.129   2.079   1.298
 1521TIP3    H1 4569   0.096   2.026   1.226
 1521TIP3    H2 4570   0.224   2.074   1.289
 1522TIP3   OH2 4571   0.819   1.048   1.156
 1522TIP3    H1 4572   0.849   0.968   1.200
 1522TIP3    H2 4573   0.874   1.117   1.192
 1523TIP3   OH2 4574   4.640   3.663   2.212
 1523TIP3    H1 4575   4.589   3.619   2.280
 1523TIP3    H2 4576   4.654   3.595   2.145
 1524TIP3   OH2 4577   2.412   5.593   0.982
 1524TIP3    H1 4578   2.498   5.593   0.940
 1524TIP3    H2 4579   2.390   5.500   0.990
 1525TIP3   OH2 4580   0.633   2.698   4.773
 1525TIP3    H1 4581   0.624   2.635   4.702
 1525TIP3    H2 4582   0.683   2.653   4.840
 1526TIP3   OH2 4583   4.665   2.160   2.208
 1526TIP3    H1 4584   4.685   2.223   2.138
 1526TIP3    H2 4585   4.578   2.128   2.187
 1527TIP3   OH2 4586   3.184   1.122   2.634
 1527TIP3    H1 4587   3.158   1.202   2.678
 1527TIP3    H2 4588   3.120   1.111   2.563
 1528TIP3   OH2 4589   3.934   4.340   1.284
 1528TIP3    H1 4590   3.859   4.398   1.268
 1528TIP3    H2 4591   3.961   4.360   1.374
 1529TIP3   OH2 4592   1.463   0.429   2.662
 1529TIP3    H1 4593   1.426   0.471   2.740
 1529TIP3    H2 4594   1.492   0.343   2.692
 1530TIP3   OH2 4595   3.128   5.041   5.006
 1530TIP3    H1 4596   3.078   4.976   5.056
 1530TIP3    H2 4597   3.210   5.050   5.053
 1531TIP3   OH2 4598   6.168   4.764   3.458
 1531TIP3    H1 4599   6.210   4.774   3.543
 1531TIP3    H2 4600   6.075   4.755   3.478
 1532TIP3   OH2 4601   2.900   4.559   4.617
 1532TIP3    H1 4602   2.955   4.634   4.593
 1532TIP3    H2 4603   2.882   4.572   4.710
 1533TIP3   OH2 4604   4.898   0.940   2.926
 1533TIP3    H1 4605   4.922   0.923   3.017
 1533TIP3    H2 4606   4.894   0.852   2.886
 1534TIP3   OH2 4607   2.687   3.677   3.884
 1534TIP3    H1 4608   2.741   3.739   3.933
 1534TIP3    H2 4609   2.746   3.638   3.820
 1535TIP3   OH2 4610   6.105   1.323   4.168
 1535TIP3    H1 4611   6.154   1.243   4.145
 1535TIP3    H2 4612   6.156   1.363   4.238
 1536TIP3   OH2 4613   4.444   3.679   0.388
 1536TIP3    H1 4614   4.513   3.676   0.454
 1536TIP3    H2 4615   4.471   3.749   0.328
 1537TIP3   OH2 4616   3.580   0.691   2.835
 1537TIP3    H1 4617   3.567   0.670   2.928
 1537TIP3    H2 4618   3.511   0.754   2.815
 1538TIP3   OH2 4619   0.732   4.683   0.160
 1538TIP3    H1 4620   0.808   4.646   0.115
 1538TIP3    H2 4621   0.725   4.632   0.241
 1539TIP3   OH2 4622   4.295   4.090   4.061
 1539TIP3    H1 4623   4.285   4.131   3.975
 1539TIP3    H2 4624   4.207   4.062   4.085
 1540TIP3   OH2 4625   4.764   0.238   3.970
 1540TIP3    H1 4626   4.833   0.198   3.917
 1540TIP3    H2 4627   4.684   0.196   3.940
 1541TIP3   OH2 4628   2.140   3.843   4.732
 1541TIP3    H1 4629   2.166   3.760   4.694
 1541TIP3    H2 4630   2.220   3.877   4.772
 1542TIP3   OH2 4631   2.359   5.264   2.690
 1542TIP3    H1 4632   2.415   5.266   2.613
 1542TIP3    H2 4633   2.282   5.213   2.663
 1543TIP3   OH2 4634   4.067   4.998   1.377
 1543TIP3    H1 4635   4.083   5.058   1.304
 1543TIP3    H2 4636   3.972   4.982   1.373
 1544TIP3   OH2 4637   5.087   3.495   3.942
 1544TIP3    H1 4638   5.169   3.500   3.990
 1544TIP3    H2 4639   5.060   3.587   3.932
 1545TIP3   OH2 4640   0.545   5.048   3.557
 1545TIP3    H1 4641   0.541   5.043   3.653
 1545TIP3    H2 4642   0.465   5.006   3.527
 1546TIP3   OH2 4643   5.112   4.770   4.505
 1546TIP3    H1 4644   5.186   4.828   4.489
 1546TIP3    H2 4645   5.137   4.688   4.463
 1547TIP3   OH2 4646   3.518   2.532   1.675
 1547TIP3    H1 4647   3.524   2.490   1.761
 1547TIP3    H2 4648   3.582   2.603   1.678
 1548TIP3   OH2 4649   3.210   2.535   2.919
 1548TIP3    H1 4650   3.230   2.497   3.005
 1548TIP3    H2 4651   3.270   2.491   2.859
 1549TIP3   OH2 4652   5.726   0.214   2.448
 1549TIP3    H1 4653   5.630   0.210   2.446
 1549TIP3    H2 4654   5.748   0.280   2.383
 1550TIP3   OH2 4655   1.677   4.620   1.919
 1550TIP3    H1 4656   1.606   4.609   1.856
 1550TIP3    H2 4657   1.752   4.578   1.876
 1551TIP3   OH2 4658   0.057   4.565   4.172
 1551TIP3    H1 4659   0.073   4.552   4.265
 1551TIP3    H2 4660   0.100   4.491   4.129
 1552TIP3   OH2 4661   5.107   0.034   4.164
 1552TIP3    H1 4662   5.072   0.118   4.135
 1552TIP3    H2 4663   5.150  -0.003   4.087
 1553TIP3   OH2 4664   2.493   5.539   2.654
 1553TIP3    H1 4665   2.504   5.531   2.559
 1553TIP3    H2 4666   2.536   5.461   2.689
 1554TIP3   OH2 4667   4.748   4.653   0.604
 1554TIP3    H1 4668   4.690   4.602   0.660
 1554TIP3    H2 4669   4.769   4.731   0.656
 1555TIP3   OH2 4670   2.987   4.972   0.064
 1555TIP3    H1 4671   2.926   4.999  -0.005
 1555TIP3    H2 4672   2.948   5.008   0.144
 1556TIP3   OH2 4673   0.519   1.270   0.385
 1556TIP3    H1 4674   0.475   1.298   0.465
 1556TIP3    H2 4675   0.610   1.259   0.411
 1557TIP3   OH2 4676   3.328   3.544   2.344
 1557TIP3    H1 4677   3.408   3.493   2.334
 1557TIP3    H2 4678   3.356   3.623   2.391
 1558TIP3   OH2 4679   2.830   0.799   2.382
 1558TIP3    H1 4680   2.768   0.809   2.310
 1558TIP3    H2 4681   2.784   0.744   2.446
 1559TIP3   OH2 4682   6.139   2.813   0.683
 1559TIP3    H1 4683   6.205   2.754   0.719
 1559TIP3    H2 4684   6.188   2.875   0.629
 1560TIP3   OH2 4685   6.065   2.861   4.238
 1560TIP3    H1 4686   5.997   2.927   4.249
 1560TIP3    H2 4687   6.145   2.904   4.269
 1561TIP3   OH2 4688   2.685   2.897   1.507
 1561TIP3    H1 4689   2.730   2.926   1.586
 1561TIP3    H2 4690   2.606   2.951   1.503
 1562TIP3   OH2 4691   4.547   0.302   2.671
 1562TIP3    H1 4692   4.610   0.291   2.742
 1562TIP3    H2 4693   4.470   0.252   2.699
 1563TIP3   OH2 4694   5.361   0.376   1.036
 1563TIP3    H1 4695   5.280   0.368   1.086
 1563TIP3    H2 4696   5.338   0.341   0.949
 1564TIP3   OH2 4697   5.198   5.134   1.089
 1564TIP3    H1 4698   5.212   5.228   1.081
 1564TIP3    H2 4699   5.243   5.110   1.171
 1565TIP3   OH2 4700   2.312   4.444   1.989
 1565TIP3    H1 4701   2.370   4.490   1.928
 1565TIP3    H2 4702   2.224   4.475   1.966
 1566TIP3   OH2 4703   2.140   5.927   1.164
 1566TIP3    H1 4704   2.172   5.905   1.252
 1566TIP3    H2 4705   2.205   5.888   1.105
 1567TIP3   OH2 4706   2.841   0.539   0.272
 1567TIP3    H1 4707   2.756   0.584   0.276
 1567TIP3    H2 4708   2.901   0.599   0.317
 1568TIP3   OH2 4709   2.675   1.842   3.398
 1568TIP3    H1 4710   2.753   1.875   3.355
 1568TIP3    H2 4711   2.697   1.840   3.491
 1569TIP3   OH2 4712   3.189   1.623   4.700
 1569TIP3    H1 4713   3.108   1.665   4.672
 1569TIP3    H2 4714   3.162   1.551   4.756
 1570TIP3   OH2 4715   1.135   5.744   4.096
 1570TIP3    H1 4716   1.191   5.702   4.031
 1570TIP3    H2 4717   1.170   5.833   4.104
 1571TIP3   OH2 4718   6.313   5.197   4.454
 1571TIP3    H1 4719   6.240   5.249   4.487
 1571TIP3    H2 4720   6.348   5.249   4.381
 1572TIP3   OH2 4721   3.949   3.857   3.964
 1572TIP3    H1 4722   3.859   3.877   3.989
 1572TIP3    H2 4723   4.002   3.890   4.037
 1573TIP3   OH2 4724   4.600   5.448   1.651
 1573TIP3    H1 4725   4.593   5.538   1.681
 1573TIP3    H2 4726   4.599   5.395   1.731
 1574TIP3   OH2 4727   3.206   5.869   4.678
 1574TIP3    H1 4728   3.211   5.797   4.741
 1574TIP3    H2 4729   3.134   5.924   4.711
 1575TIP3   OH2 4730   0.349   3.420   2.233
 1575TIP3    H1 4731   0.438   3.445   2.209
 1575TIP3    H2 4732   0.350   3.325   2.234
 1576TIP3   OH2 4733   2.448   2.307   5.115
 1576TIP3    H1 4734   2.392   2.368   5.067
 1576TIP3    H2 4735   2.466   2.351   5.198
 1577TIP3   OH2 4736   3.719   4.648   2.212
 1577TIP3    H1 4737   3.739   4.571   2.265
 1577TIP3    H2 4738   3.804   4.691   2.199
 1578TIP3   OH2 4739   0.786   5.048   3.206
 1578TIP3    H1 4740   0.757   5.112   3.271
 1578TIP3    H2 4741   0.843   4.989   3.255
 1579TIP3   OH2 4742   5.976   2.630   2.526
 1579TIP3    H1 4743   6.028   2.618   2.446
 1579TIP3    H2 4744   5.971   2.543   2.564
 1580TIP3   OH2 4745   2.600   2.183   4.338
 1580TIP3    H1 4746   2.562   2.252   4.284
 1580TIP3    H2 4747   2.596   2.105   4.284
 1581TIP3   OH2 4748   4.572   1.800   2.380
 1581TIP3    H1 4749   4.573   1.770   2.471
 1581TIP3    H2 4750   4.491   1.765   2.344
 1582TIP3   OH2 4751   0.736   2.397   2.523
 1582TIP3    H1 4752   0.658   2.416   2.471
 1582TIP3    H2 4753   0.804   2.454   2.485
 1583TIP3   OH2 4754   6.097   2.412   1.317
 1583TIP3    H1 4755   6.138   2.421   1.404
 1583TIP3    H2 4756   6.058   2.498   1.301
 1584TIP3   OH2 4757   6.143   1.308   4.632
 1584TIP3    H1 4758   6.110   1.357   4.707
 1584TIP3    H2 4759   6.234   1.337   4.622
 1585TIP3   OH2 4760   6.304   1.104   3.112
 1585TIP3    H1 4761   6.275   1.137   3.026
 1585TIP3    H2 4762   6.229   1.117   3.169
 1586TIP3   OH2 4763   5.886   2.347   0.306
 1586TIP3    H1 4764   5.833   2.343   0.227
 1586TIP3    H2 4765   5.971   2.311   0.279
 1587TIP3   OH2 4766   2.804   4.247   2.123
 1587TIP3    H1 4767   2.894   4.219   2.143
 1587TIP3    H2 4768   2.751   4.168   2.131
 1588TIP3   OH2 4769   6.312   0.609   3.863
 1588TIP3    H1 4770   6.384   0.669   3.844
 1588TIP3    H2 4771   6.295   0.621   3.957
 1589TIP3   OH2 4772   1.340   2.517   4.985
 1589TIP3    H1 4773   1.404   2.476   5.043
 1589TIP3    H2 4774   1.287   2.444   4.952
 1590TIP3   OH2 4775   2.829   5.032   0.632
 1590TIP3    H1 4776   2.924   5.028   0.619
 1590TIP3    H2 4777   2.814   4.986   0.714
 1591TIP3   OH2 4778   2.303   0.242   2.637
 1591TIP3    H1 4779   2.362   0.316   2.620
 1591TIP3    H2 4780   2.234   0.279   2.692
 1592TIP3   OH2 4781   6.060   1.749   3.411
 1592TIP3    H1 4782   5.991   1.701   3.456
 1592TIP3    H2 4783   6.138   1.735   3.464
 1593TIP3   OH2 4784   0.328   1.372   4.172
 1593TIP3    H1 4785   0.409   1.329   4.199
 1593TIP3    H2 4786   0.300   1.422   4.249
 1594TIP3   OH2 4787   5.265   3.466   1.576
 1594TIP3    H1 4788   5.192   3.429   1.625
 1594TIP3    H2 4789   5.229   3.485   1.489
 1595TIP3   OH2 4790   2.934   1.919   3.898
 1595TIP3    H1 4791   3.002   1.923   3.965
 1595TIP3    H2 4792   2.865   1.978   3.929
 1596TIP3   OH2 4793   0.638   1.993   0.550
 1596TIP3    H1 4794   0.680   1.908   0.542
 1596TIP3    H2 4795   0.572   1.994   0.481
 1597TIP3   OH2 4796   2.515   0.792   0.984
 1597TIP3    H1 4797   2.470   0.876   0.996
 1597TIP3    H2 4798   2.449   0.736   0.942
 1598TIP3   OH2 4799   1.146   3.424   0.924
 1598TIP3    H1 4800   1.208   3.488   0.957
 1598TIP3    H2 4801   1.110   3.383   1.002
 1599TIP3   OH2 4802   2.248   0.552   4.667
 1599TIP3    H1 4803   2.159   0.518   4.652
 1599TIP3    H2 4804   2.293   0.480   4.710
 1600TIP3   OH2 4805   4.136   0.251   0.802
 1600TIP3    H1 4806   4.094   0.246   0.716
 1600TIP3    H2 4807   4.223   0.214   0.788
 1601TIP3   OH2 4808   0.708   0.759   1.282
 1601TIP3    H1 4809   0.717   0.696   1.353
 1601TIP3    H2 4810   0.684   0.841   1.325
 1602TIP3   OH2 4811   6.327   1.352   4.937
 1602TIP3    H1 4812   6.293   1.263   4.946
 1602TIP3    H2 4813   6.288   1.401   5.010
 1603TIP3   OH2 4814   3.729   4.920   2.016
 1603TIP3    H1 4815   3.805   4.864   2.033
 1603TIP3    H2 4816   3.664   4.861   1.978
 1604TIP3   OH2 4817   3.855   2.173   3.524
 1604TIP3    H1 4818   3.878   2.080   3.523
 1604TIP3    H2 4819   3.931   2.217   3.561
 1605TIP3   OH2 4820   3.956   4.921   4.212
 1605TIP3    H1 4821   3.936   4.873   4.132
 1605TIP3    H2 4822   3.997   4.856   4.270
 1606TIP3   OH2 4823   4.100   0.420   4.861
 1606TIP3    H1 4824   4.043   0.473   4.917
 1606TIP3    H2 4825   4.109   0.337   4.906
 1607TIP3   OH2 4826   2.283   1.531   0.521
 1607TIP3    H1 4827   2.291   1.436   0.509
 1607TIP3    H2 4828   2.313   1.547   0.610
 1608TIP3   OH2 4829   5.126   1.345   3.525
 1608TIP3    H1 4830   5.154   1.402   3.596
 1608TIP3    H2 4831   5.167   1.382   3.447
 1609TIP3   OH2 4832   5.942   3.823   4.851
 1609TIP3    H1 4833   6.010   3.876   4.891
 1609TIP3    H2 4834   5.955   3.834   4.756
 1610TIP3   OH2 4835   5.401   0.394   1.655
 1610TIP3    H1 4836   5.418   0.476   1.701
 1610TIP3    H2 4837   5.464   0.394   1.582
 1611TIP3   OH2 4838   2.884   5.879   5.140
 1611TIP3    H1 4839   2.928   5.796   5.124
 1611TIP3    H2 4840   2.946   5.946   5.109
 1612TIP3   OH2 4841   5.236   1.997   1.514
 1612TIP3    H1 4842   5.171   1.942   1.558
 1612TIP3    H2 4843   5.184   2.051   1.454
 1613TIP3   OH2 4844   4.940   2.688   0.646
 1613TIP3    H1 4845   4.950   2.782   0.660
 1613TIP3    H2 4846   4.877   2.660   0.712
 1614TIP3   OH2 4847   2.516   0.230   1.164
 1614TIP3    H1 4848   2.457   0.177   1.111
 1614TIP3    H2 4849   2.553   0.168   1.227
 1615TIP3   OH2 4850   5.763   0.795   2.492
 1615TIP3    H1 4851   5.701   0.754   2.431
 1615TIP3    H2 4852   5.784   0.879   2.452
 1616TIP3   OH2 4853   4.697   0.196   2.155
 1616TIP3    H1 4854   4.622   0.146   2.123
 1616TIP3    H2 4855   4.663   0.243   2.231
 1617TIP3   OH2 4856   5.608   1.993   1.295
 1617TIP3    H1 4857   5.550   1.985   1.219
 1617TIP3    H2 4858   5.624   2.087   1.304
 1618TIP3   OH2 4859   5.511   1.483   2.986
 1618TIP3    H1 4860   5.440   1.450   2.931
 1618TIP3    H2 4861   5.472   1.558   3.032
 1619TIP3   OH2 4862   4.201   2.858   3.975
 1619TIP3    H1 4863   4.144   2.928   3.943
 1619TIP3    H2 4864   4.180   2.852   4.068
 1620TIP3   OH2 4865   0.927   2.975   4.229
 1620TIP3    H1 4866   0.886   2.938   4.307
 1620TIP3    H2 4867   0.984   3.044   4.261
 1621TIP3   OH2 4868   3.638   2.066   4.456
 1621TIP3    H1 4869   3.554   2.110   4.446
 1621TIP3    H2 4870   3.621   1.992   4.513
 1622TIP3   OH2 4871   5.033   0.608   3.915
 1622TIP3    H1 4872   5.043   0.690   3.866
 1622TIP3    H2 4873   4.996   0.547   3.852
 1623TIP3   OH2 4874   6.006   5.125   0.849
 1623TIP3    H1 4875   6.014   5.127   0.944
 1623TIP3    H2 4876   5.912   5.131   0.832
 1624TIP3   OH2 4877   1.691   0.736   3.831
 1624TIP3    H1 4878   1.717   0.806   3.890
 1624TIP3    H2 4879   1.729   0.656   3.869
 1625TIP3   OH2 4880   2.040   3.857   3.857
 1625TIP3    H1 4881   1.984   3.835   3.783
 1625TIP3    H2 4882   2.026   3.787   3.921
 1626TIP3   OH2 4883   6.146   0.260   3.236
 1626TIP3    H1 4884   6.137   0.339   3.183
 1626TIP3    H2 4885   6.078   0.269   3.303
 1627TIP3   OH2 4886   5.736   3.106   3.513
 1627TIP3    H1 4887   5.790   3.080   3.439
 1627TIP3    H2 4888   5.785   3.078   3.590
 1628TIP3   OH2 4889   5.934   2.992   1.824
 1628TIP3    H1 4890   5.986   2.938   1.765
 1628TIP3    H2 4891   5.857   2.939   1.845
 1629TIP3   OH2 4892   4.276   4.491   3.492
 1629TIP3    H1 4893   4.331   4.413   3.480
 1629TIP3    H2 4894   4.257   4.521   3.403
 1630TIP3   OH2 4895   1.577   2.499   2.240
 1630TIP3    H1 4896   1.636   2.511   2.315
 1630TIP3    H2 4897   1.501   2.454   2.277
 1631TIP3   OH2 4898   0.053   2.880   5.048
 1631TIP3    H1 4899   0.126   2.927   5.007
 1631TIP3    H2 4900  -0.010   2.948   5.070
 1632TIP3   OH2 4901   0.630   1.411   5.044
 1632TIP3    H1 4902   0.672   1.494   5.066
 1632TIP3    H2 4903   0.702   1.352   5.024
 1633TIP3   OH2 4904   2.096   6.040   0.462
 1633TIP3    H1 4905   2.024   5.980   0.437
 1633TIP3    H2 4906   2.162   5.983   0.500
 1634TIP3   OH2 4907   0.730   1.546   3.987
 1634TIP3    H1 4908   0.728   1.453   4.011
 1634TIP3    H2 4909   0.752   1.546   3.894
 1635TIP3   OH2 4910   1.479   2.881   4.058
 1635TIP3    H1 4911   1.566   2.905   4.087
 1635TIP3    H2 4912   1.461   2.940   3.985
 1636TIP3   OH2 4913   5.908   2.279   1.180
 1636TIP3    H1 4914   5.973   2.321   1.237
 1636TIP3    H2 4915   5.946   2.283   1.093
 1637TIP3   OH2 4916   5.044   2.856   2.336
 1637TIP3    H1 4917   5.119   2.880   2.282
 1637TIP3    H2 4918   5.001   2.939   2.356
 1638TIP3   OH2 4919   4.423   1.672   4.481
 1638TIP3    H1 4920   4.487   1.640   4.418
 1638TIP3    H2 4921   4.472   1.687   4.561
 1639TIP3   OH2 4922   1.292   3.812   4.380
 1639TIP3    H1 4923   1.352   3.866   4.432
 1639TIP3    H2 4924   1.230   3.875   4.342
 1640TIP3   OH2 4925   1.759   2.271   3.908
 1640TIP3    H1 4926   1.734   2.194   3.960
 1640TIP3    H2 4927   1.841   2.301   3.948
 1641TIP3   OH2 4928   5.215   5.117   2.766
 1641TIP3    H1 4929   5.245   5.060   2.837
 1641TIP3    H2 4930   5.294   5.140   2.718
 1642TIP3   OH2 4931   4.026   0.466   3.988
 1642TIP3    H1 4932   4.077   0.390   3.961
 1642TIP3    H2 4933   3.961   0.431   4.049
 1643TIP3   OH2 4934   3.605   1.919   4.083
 1643TIP3    H1 4935   3.687   1.964   4.060
 1643TIP3    H2 4936   3.552   1.924   4.004
 1644TIP3   OH2 4937   3.078   5.764   3.362
 1644TIP3    H1 4938   3.107   5.674   3.349
 1644TIP3    H2 4939   3.040   5.764   3.450
 1645TIP3   OH2 4940   4.624   5.299   3.245
 1645TIP3    H1 4941   4.574   5.371   3.206
 1645TIP3    H2 4942   4.716   5.327   3.236
 1646TIP3   OH2 4943   3.798   1.898   1.828
 1646TIP3    H1 4944   3.769   1.987   1.847
 1646TIP3    H2 4945   3.718   1.846   1.829
 1647TIP3   OH2 4946   4.331   1.281   4.609
 1647TIP3    H1 4947   4.424   1.261   4.621
 1647TIP3    H2 4948   4.285   1.204   4.641
 1648TIP3   OH2 4949   5.303   3.265   5.090
 1648TIP3    H1 4950   5.376   3.325   5.069
 1648TIP3    H2 4951   5.334   3.217   5.167
 1649TIP3   OH2 4952   3.632   2.100   2.620
 1649TIP3    H1 4953   3.622   2.151   2.700
 1649TIP3    H2 4954   3.546   2.061   2.605
 1650TIP3   OH2 4955   5.534   4.629   3.255
 1650TIP3    H1 4956   5.538   4.618   3.350
 1650TIP3    H2 4957   5.536   4.540   3.220
 1651TIP3   OH2 4958   3.296   2.703   3.143
 1651TIP3    H1 4959   3.256   2.666   3.065
 1651TIP3    H2 4960   3.383   2.663   3.146
 1652TIP3   OH2 4961   5.699   1.506   1.159
 1652TIP3    H1 4962   5.728   1.446   1.227
 1652TIP3    H2 4963   5.611   1.475   1.136
 1653TIP3   OH2 4964   0.596   2.469   0.985
 1653TIP3    H1 4965   0.615   2.548   0.936
 1653TIP3    H2 4966   0.507   2.445   0.961
 1654TIP3   OH2 4967   1.798   5.351   1.214
 1654TIP3    H1 4968   1.826   5.359   1.305
 1654TIP3    H2 4969   1.705   5.330   1.219
 1655TIP3   OH2 4970   1.929   0.357   0.051
 1655TIP3    H1 4971   1.897   0.439   0.013
 1655TIP3    H2 4972   1.964   0.308  -0.023
 1656TIP3   OH2 4973   3.295   3.364   1.074
 1656TIP3    H1 4974   3.358   3.419   1.026
 1656TIP3    H2 4975   3.214   3.371   1.024
 1657TIP3   OH2 4976   2.815   1.756   3.020
 1657TIP3    H1 4977   2.749   1.735   3.085
 1657TIP3    H2 4978   2.897   1.725   3.058
 1658TIP3   OH2 4979   3.131   0.964   2.150
 1658TIP3    H1 4980   3.190   1.037   2.168
 1658TIP3    H2 4981   3.101   0.978   2.061
 1659TIP3   OH2 4982   2.674   3.470   4.337
 1659TIP3    H1 4983   2.632   3.468   4.252
 1659TIP3    H2 4984   2.745   3.405   4.330
 1660TIP3   OH2 4985   2.650   4.364   2.335
 1660TIP3    H1 4986   2.577   4.418   2.364
 1660TIP3    H2 4987   2.617   4.316   2.259
 1661TIP3   OH2 4988   2.186   2.689   4.928
 1661TIP3    H1 4989   2.110   2.636   4.950
 1661TIP3    H2 4990   2.151   2.777   4.912
 1662TIP3   OH2 4991   0.602   0.105   3.484
 1662TIP3    H1 4992   0.551   0.057   3.419
 1662TIP3    H2 4993   0.576   0.197   3.473
 1663TIP3   OH2 4994   2.748   5.875   3.995
 1663TIP3    H1 4995   2.782   5.868   4.084
 1663TIP3    H2 4996   2.812   5.826   3.941
 1664TIP3   OH2 4997   1.492   5.017   1.302
 1664TIP3    H1 4998   1.449   5.102   1.312
 1664TIP3    H2 4999   1.548   5.011   1.380
 1665TIP3   OH2 5000   3.667   3.186   2.613
 1665TIP3    H1 5001   3.759   3.163   2.622
 1665TIP3    H2 5002   3.632   3.123   2.550
 1666TIP3   OH2 5003   5.680   2.621   2.517
 1666TIP3    H1 5004   5.774   2.604   2.512
 1666TIP3    H2 5005   5.641   2.557   2.457
 1667TIP3   OH2 5006   2.628   3.544   1.849
 1667TIP3    H1 5007   2.603   3.480   1.916
 1667TIP3    H2 5008   2.606   3.629   1.887
 1668TIP3   OH2 5009   1.895   1.604   4.576
 1668TIP3    H1 5010   1.964   1.588   4.511
 1668TIP3    H2 5011   1.894   1.526   4.630
 1669TIP3   OH2 5012   2.888   1.528   0.552
 1669TIP3    H1 5013   2.863   1.588   0.482
 1669TIP3    H2 5014   2.817   1.464   0.555
 1670TIP3   OH2 5015   5.472   5.476   4.698
 1670TIP3    H1 5016   5.560   5.509   4.681
 1670TIP3    H2 5017   5.431   5.472   4.612
 1671TIP3   OH2 5018   6.004   2.757   4.959
 1671TIP3    H1 5019   6.034   2.712   5.038
 1671TIP3    H2 5020   5.909   2.746   4.960
 1672TIP3   OH2 5021   1.585   4.092   0.135
 1672TIP3    H1 5022   1.629   4.090   0.220
 1672TIP3    H2 5023   1.557   4.183   0.124
 1673TIP3   OH2 5024   0.540   2.661   1.956
 1673TIP3    H1 5025   0.595   2.651   2.034
 1673TIP3    H2 5026   0.454   2.630   1.984
 1674TIP3   OH2 5027   0.507   1.789   0.975
 1674TIP3    H1 5028   0.577   1.763   0.916
 1674TIP3    H2 5029   0.523   1.882   0.992
 1675TIP3   OH2 5030   0.839   5.413   2.499
 1675TIP3    H1 5031   0.916   5.390   2.551
 1675TIP3    H2 5032   0.845   5.508   2.488
 1676TIP3   OH2 5033   4.480   4.617   0.738
 1676TIP3    H1 5034   4.490   4.682   0.808
 1676TIP3    H2 5035   4.441   4.665   0.665
 1677TIP3   OH2 5036   5.787   0.415   3.904
 1677TIP3    H1 5037   5.811   0.508   3.895
 1677TIP3    H2 5038   5.746   0.409   3.990
 1678TIP3   OH2 5039   2.425   0.901   0.064
 1678TIP3    H1 5040   2.436   0.857  -0.021
 1678TIP3    H2 5041   2.424   0.994   0.043
 1679TIP3   OH2 5042   3.430   1.132   3.024
 1679TIP3    H1 5043   3.476   1.160   3.104
 1679TIP3    H2 5044   3.440   1.036   3.024
 1680TIP3   OH2 5045   0.160   4.293   0.923
 1680TIP3    H1 5046   0.085   4.259   0.973
 1680TIP3    H2 5047   0.167   4.233   0.848
 1681TIP3   OH2 5048   1.999   3.363   1.368
 1681TIP3    H1 5049   1.928   3.389   1.427
 1681TIP3    H2 5050   2.071   3.421   1.391
 1682TIP3   OH2 5051   0.069   2.756   3.585
 1682TIP3    H1 5052   0.123   2.698   3.531
 1682TIP3    H2 5053   0.131   2.819   3.622
 1683TIP3   OH2 5054   5.209   2.077   2.841
 1683TIP3    H1 5055   5.252   2.160   2.818
 1683TIP3    H2 5056   5.116   2.096   2.834
 1684TIP3   OH2 5057   5.759   5.693   1.620
 1684TIP3    H1 5058   5.747   5.688   1.525
 1684TIP3    H2 5059   5.683   5.742   1.651
 1685TIP3   OH2 5060   2.885   0.827   0.194
 1685TIP3    H1 5061   2.821   0.799   0.260
 1685TIP3    H2 5062   2.953   0.760   0.198
 1686TIP3   OH2 5063   0.480   0.341   3.482
 1686TIP3    H1 5064   0.487   0.348   3.577
 1686TIP3    H2 5065   0.393   0.303   3.467
 1687TIP3   OH2 5066   2.142   5.396   4.285
 1687TIP3    H1 5067   2.063   5.347   4.310
 1687TIP3    H2 5068   2.109   5.465   4.227
 1688TIP3   OH2 5069   3.111   2.142   0.496
 1688TIP3    H1 5070   3.045   2.098   0.442
 1688TIP3    H2 5071   3.062   2.178   0.569
 1689TIP3   OH2 5072   4.629   2.379   3.103
 1689TIP3    H1 5073   4.695   2.416   3.045
 1689TIP3    H2 5074   4.608   2.450   3.164
 1690TIP3   OH2 5075   4.914   3.466   4.605
 1690TIP3    H1 5076   4.891   3.478   4.698
 1690TIP3    H2 5077   4.830   3.453   4.561
 1691TIP3   OH2 5078   4.565   1.534   2.210
 1691TIP3    H1 5079   4.512   1.552   2.132
 1691TIP3    H2 5080   4.505   1.490   2.270
 1692TIP3   OH2 5081   1.311   0.863   0.560
 1692TIP3    H1 5082   1.336   0.782   0.516
 1692TIP3    H2 5083   1.392   0.893   0.602
 1693TIP3   OH2 5084   0.374   2.845   4.805
 1693TIP3    H1 5085   0.327   2.762   4.814
 1693TIP3    H2 5086   0.465   2.821   4.794
 1694TIP3   OH2 5087   5.179   5.561   4.747
 1694TIP3    H1 5088   5.268   5.528   4.737
 1694TIP3    H2 5089   5.125   5.501   4.696
 1695TIP3   OH2 5090   3.603   4.671   3.512
 1695TIP3    H1 5091   3.554   4.654   3.593
 1695TIP3    H2 5092   3.540   4.715   3.455
 1696TIP3   OH2 5093   2.389   0.487   3.290
 1696TIP3    H1 5094   2.442   0.548   3.342
 1696TIP3    H2 5095   2.318   0.462   3.350
 1697TIP3   OH2 5096   4.652   2.831   3.929
 1697TIP3    H1 5097   4.625   2.746   3.964
 1697TIP3    H2 5098   4.718   2.810   3.863
 1698TIP3   OH2 5099   3.723   2.484   1.444
 1698TIP3    H1 5100   3.771   2.469   1.526
 1698TIP3    H2 5101   3.708   2.396   1.409
 1699TIP3   OH2 5102   1.186   0.156   4.551
 1699TIP3    H1 5103   1.173   0.130   4.460
 1699TIP3    H2 5104   1.252   0.096   4.585
 1700TIP3   OH2 5105   1.083   2.623   1.714
 1700TIP3    H1 5106   1.036   2.541   1.729
 1700TIP3    H2 5107   1.175   2.601   1.724
 1701TIP3   OH2 5108   0.777   1.147   3.499
 1701TIP3    H1 5109   0.860   1.181   3.536
 1701TIP3    H2 5110   0.709   1.193   3.548
 1702TIP3   OH2 5111   6.328   3.126   5.071
 1702TIP3    H1 5112   6.240   3.114   5.034
 1702TIP3    H2 5113   6.324   3.210   5.115
 1703TIP3   OH2 5114   4.283   5.740   0.809
 1703TIP3    H1 5115   4.233   5.810   0.770
 1703TIP3    H2 5116   4.219   5.671   0.826
 1704TIP3   OH2 5117   1.618   2.713   1.442
 1704TIP3    H1 5118   1.651   2.790   1.395
 1704TIP3    H2 5119   1.575   2.750   1.519
 1705TIP3   OH2 5120   4.245   0.727   2.541
 1705TIP3    H1 5121   4.271   0.640   2.569
 1705TIP3    H2 5122   4.183   0.713   2.470
 1706TIP3   OH2 5123   1.309   1.568   3.307
 1706TIP3    H1 5124   1.398   1.532   3.303
 1706TIP3    H2 5125   1.272   1.549   3.221
 1707TIP3   OH2 5126   1.882   2.284   2.311
 1707TIP3    H1 5127   1.867   2.300   2.405
 1707TIP3    H2 5128   1.849   2.195   2.297
 1708TIP3   OH2 5129   5.738   2.778   1.885
 1708TIP3    H1 5130   5.664   2.757   1.941
 1708TIP3    H2 5131   5.793   2.699   1.889
 1709TIP3   OH2 5132   0.007   4.015   2.399
 1709TIP3    H1 5133  -0.074   3.966   2.415
 1709TIP3    H2 5134   0.021   4.008   2.305
 1710TIP3   OH2 5135   1.764   2.131   1.688
 1710TIP3    H1 5136   1.774   2.109   1.595
 1710TIP3    H2 5137   1.721   2.054   1.726
 1711TIP3   OH2 5138   3.212   4.375   0.682
 1711TIP3    H1 5139   3.281   4.382   0.616
 1711TIP3    H2 5140   3.259   4.351   0.763
 1712TIP3   OH2 5141   1.357   3.189   3.104
 1712TIP3    H1 5142   1.421   3.121   3.128
 1712TIP3    H2 5143   1.411   3.266   3.084
 1713TIP3   OH2 5144   0.886   5.116   3.778
 1713TIP3    H1 5145   0.940   5.141   3.853
 1713TIP3    H2 5146   0.948   5.080   3.715
 1714TIP3   OH2 5147   3.308   0.335   4.609
 1714TIP3    H1 5148   3.402   0.328   4.592
 1714TIP3    H2 5149   3.291   0.272   4.679
 1715TIP3   OH2 5150   2.085   5.142   1.514
 1715TIP3    H1 5151   2.052   5.110   1.429
 1715TIP3    H2 5152   2.169   5.182   1.493
 1716TIP3   OH2 5153   2.453   0.794   2.349
 1716TIP3    H1 5154   2.517   0.818   2.282
 1716TIP3    H2 5155   2.381   0.857   2.337
 1717TIP3   OH2 5156   1.618   0.192   0.723
 1717TIP3    H1 5157   1.692   0.229   0.771
 1717TIP3    H2 5158   1.609   0.103   0.757
 1718TIP3   OH2 5159   1.206   1.315   4.832
 1718TIP3    H1 5160   1.143   1.245   4.811
 1718TIP3    H2 5161   1.180   1.388   4.777
 1719TIP3   OH2 5162   3.284   2.069   3.957
 1719TIP3    H1 5163   3.235   2.151   3.951
 1719TIP3    H2 5164   3.274   2.029   3.871
 1720TIP3   OH2 5165   4.403   4.219   3.474
 1720TIP3    H1 5166   4.375   4.197   3.385
 1720TIP3    H2 5167   4.469   4.154   3.495
 1721TIP3   OH2 5168   2.232   2.342   3.683
 1721TIP3    H1 5169   2.308   2.296   3.647
 1721TIP3    H2 5170   2.170   2.346   3.611
 1722TIP3   OH2 5171   6.128   5.873   2.893
 1722TIP3    H1 5172   6.088   5.959   2.898
 1722TIP3    H2 5173   6.219   5.887   2.920
 1723TIP3   OH2 5174   1.407   2.816   4.604
 1723TIP3    H1 5175   1.362   2.750   4.656
 1723TIP3    H2 5176   1.347   2.836   4.532
 1724TIP3   OH2 5177   4.213   1.226   1.833
 1724TIP3    H1 5178   4.290   1.260   1.878
 1724TIP3    H2 5179   4.211   1.133   1.857
 1725TIP3   OH2 5180   1.728   4.796   2.130
 1725TIP3    H1 5181   1.776   4.878   2.114
 1725TIP3    H2 5182   1.736   4.747   2.049
 1726TIP3   OH2 5183   5.445   3.992   0.978
 1726TIP3    H1 5184   5.455   3.917   1.037
 1726TIP3    H2 5185   5.526   4.041   0.988
 1727TIP3   OH2 5186   5.976   3.642   5.051
 1727TIP3    H1 5187   5.935   3.692   4.981
 1727TIP3    H2 5188   5.910   3.640   5.121
 1728TIP3   OH2 5189   2.170   1.577   4.560
 1728TIP3    H1 5190   2.188   1.578   4.466
 1728TIP3    H2 5191   2.249   1.614   4.599
 1729TIP3   OH2 5192   5.287   2.680   3.940
 1729TIP3    H1 5193   5.282   2.768   3.903
 1729TIP3    H2 5194   5.360   2.638   3.895
 1730TIP3   OH2 5195   1.826   4.752   0.634
 1730TIP3    H1 5196   1.756   4.689   0.656
 1730TIP3    H2 5197   1.836   4.805   0.713
 1731TIP3   OH2 5198   2.469   4.393   1.333
 1731TIP3    H1 5199   2.504   4.304   1.335
 1731TIP3    H2 5200   2.377   4.383   1.359
 1732TIP3   OH2 5201   0.669   5.881   1.142
 1732TIP3    H1 5202   0.729   5.956   1.138
 1732TIP3    H2 5203   0.650   5.861   1.050
 1733TIP3   OH2 5204   4.975   1.810   0.385
 1733TIP3    H1 5205   4.941   1.725   0.413
 1733TIP3    H2 5206   5.037   1.835   0.454
 1734TIP3   OH2 5207   0.172   1.010   2.849
 1734TIP3    H1 5208   0.114   1.080   2.817
 1734TIP3    H2 5209   0.221   1.050   2.921
 1735TIP3   OH2 5210   0.449   0.577   2.330
 1735TIP3    H1 5211   0.488   0.660   2.357
 1735TIP3    H2 5212   0.386   0.601   2.262
 1736TIP3   OH2 5213   2.557   3.650   0.498
 1736TIP3    H1 5214   2.641   3.658   0.543
 1736TIP3    H2 5215   2.567   3.574   0.442
 1737TIP3   OH2 5216   0.728   1.789   4.865
 1737TIP3    H1 5217   0.793   1.859   4.867
 1737TIP3    H2 5218   0.644   1.835   4.855
 1738TIP3   OH2 5219   2.147   0.158   4.611
 1738TIP3    H1 5220   2.235   0.121   4.605
 1738TIP3    H2 5221   2.152   0.220   4.683
 1739TIP3   OH2 5222   1.201   4.962   4.892
 1739TIP3    H1 5223   1.201   5.049   4.851
 1739TIP3    H2 5224   1.176   4.978   4.982
 1740TIP3   OH2 5225   0.246   5.586   5.056
 1740TIP3    H1 5226   0.341   5.585   5.068
 1740TIP3    H2 5227   0.212   5.529   5.126
 1741TIP3   OH2 5228   6.343   3.924   3.334
 1741TIP3    H1 5229   6.269   3.984   3.327
 1741TIP3    H2 5230   6.304   3.837   3.327
 1742TIP3   OH2 5231   3.802   1.011   4.721
 1742TIP3    H1 5232   3.765   1.054   4.799
 1742TIP3    H2 5233   3.891   0.987   4.748
 1743TIP3   OH2 5234   3.619   2.188   3.719
 1743TIP3    H1 5235   3.570   2.244   3.659
 1743TIP3    H2 5236   3.711   2.204   3.697
 1744TIP3   OH2 5237   1.581   4.503   2.691
 1744TIP3    H1 5238   1.580   4.510   2.787
 1744TIP3    H2 5239   1.594   4.592   2.660
 1745TIP3   OH2 5240   2.936   2.045   1.589
 1745TIP3    H1 5241   2.963   2.007   1.673
 1745TIP3    H2 5242   2.948   2.139   1.601
 1746TIP3   OH2 5243   3.533   0.180   3.945
 1746TIP3    H1 5244   3.455   0.222   3.980
 1746TIP3    H2 5245   3.556   0.231   3.868
 1747TIP3   OH2 5246   1.939   5.367   4.045
 1747TIP3    H1 5247   2.007   5.434   4.050
 1747TIP3    H2 5248   1.943   5.335   3.955
 1748TIP3   OH2 5249   2.666   3.647   2.361
 1748TIP3    H1 5250   2.644   3.556   2.341
 1748TIP3    H2 5251   2.659   3.654   2.456
 1749TIP3   OH2 5252   2.193   3.758   3.558
 1749TIP3    H1 5253   2.275   3.745   3.605
 1749TIP3    H2 5254   2.126   3.763   3.626
 1750TIP3   OH2 5255   4.061   4.308   0.829
 1750TIP3    H1 5256   4.082   4.273   0.916
 1750TIP3    H2 5257   4.145   4.336   0.794
 1751TIP3   OH2 5258   5.105   1.870   0.149
 1751TIP3    H1 5259   5.082   1.834   0.234
 1751TIP3    H2 5260   5.028   1.856   0.094
 1752TIP3   OH2 5261   5.498   3.994   3.711
 1752TIP3    H1 5262   5.428   4.007   3.775
 1752TIP3    H2 5263   5.460   4.021   3.628
 1753TIP3   OH2 5264   1.841   2.311   0.301
 1753TIP3    H1 5265   1.762   2.270   0.336
 1753TIP3    H2 5266   1.902   2.239   0.287
 1754TIP3   OH2 5267   3.473   4.852   0.392
 1754TIP3    H1 5268   3.520   4.846   0.309
 1754TIP3    H2 5269   3.411   4.779   0.389
 1755TIP3   OH2 5270   6.248   1.359   0.635
 1755TIP3    H1 5271   6.193   1.315   0.571
 1755TIP3    H2 5272   6.187   1.391   0.701
 1756TIP3   OH2 5273   5.467   5.632   0.061
 1756TIP3    H1 5274   5.519   5.566   0.015
 1756TIP3    H2 5275   5.517   5.713   0.052
 1757TIP3   OH2 5276   1.067   4.120   3.206
 1757TIP3    H1 5277   1.037   4.147   3.119
 1757TIP3    H2 5278   1.071   4.201   3.256
 1758TIP3   OH2 5279   5.790   3.582   2.893
 1758TIP3    H1 5280   5.826   3.510   2.842
 1758TIP3    H2 5281   5.860   3.648   2.894
 1759TIP3   OH2 5282   1.485   2.264   1.389
 1759TIP3    H1 5283   1.454   2.350   1.416
 1759TIP3    H2 5284   1.408   2.221   1.351
 1760TIP3   OH2 5285   4.147   3.709   3.824
 1760TIP3    H1 5286   4.224   3.666   3.860
 1760TIP3    H2 5287   4.086   3.714   3.897
 1761TIP3   OH2 5288   0.562   1.235   3.856
 1761TIP3    H1 5289   0.573   1.145   3.824
 1761TIP3    H2 5290   0.606   1.237   3.940
 1762TIP3   OH2 5291   2.483   0.354   1.560
 1762TIP3    H1 5292   2.399   0.347   1.514
 1762TIP3    H2 5293   2.469   0.304   1.641
 1763TIP3   OH2 5294   2.198   4.713   4.181
 1763TIP3    H1 5295   2.175   4.779   4.246
 1763TIP3    H2 5296   2.184   4.756   4.096
 1764TIP3   OH2 5297   2.217   5.569   4.645
 1764TIP3    H1 5298   2.282   5.635   4.669
 1764TIP3    H2 5299   2.261   5.515   4.579
 1765TIP3   OH2 5300   3.904   3.718   0.398
 1765TIP3    H1 5301   3.973   3.743   0.459
 1765TIP3    H2 5302   3.898   3.791   0.337
 1766TIP3   OH2 5303   1.086   0.927   0.672
 1766TIP3    H1 5304   1.168   0.900   0.630
 1766TIP3    H2 5305   1.057   0.849   0.719
 1767TIP3   OH2 5306   4.612   4.316   1.903
 1767TIP3    H1 5307   4.589   4.369   1.826
 1767TIP3    H2 5308   4.604   4.376   1.977
 1768TIP3   OH2 5309   3.154   4.766   1.659
 1768TIP3    H1 5310   3.166   4.773   1.564
 1768TIP3    H2 5311   3.140   4.673   1.675
 1769TIP3   OH2 5312   5.670   2.677   1.043
 1769TIP3    H1 5313   5.715   2.630   0.973
 1769TIP3    H2 5314   5.614   2.740   0.998
 1770TIP3   OH2 5315   5.761   5.821   0.401
 1770TIP3    H1 5316   5.799   5.909   0.399
 1770TIP3    H2 5317   5.825   5.766   0.357
 1771TIP3   OH2 5318   2.947   2.762   1.750
 1771TIP3    H1 5319   2.946   2.832   1.815
 1771TIP3    H2 5320   3.037   2.761   1.718
 1772TIP3   OH2 5321   4.609   4.066   3.530
 1772TIP3    H1 5322   4.670   4.037   3.463
 1772TIP3    H2 5323   4.653   4.140   3.572
 1773TIP3   OH2 5324   2.228   2.391   4.922
 1773TIP3    H1 5325   2.208   2.456   4.989
 1773TIP3    H2 5326   2.184   2.312   4.951
 1774TIP3   OH2 5327   5.158   1.566   2.125
 1774TIP3    H1 5328   5.122   1.571   2.213
 1774TIP3    H2 5329   5.113   1.637   2.078
 1775TIP3   OH2 5330   2.462   0.837   4.180
 1775TIP3    H1 5331   2.387   0.883   4.217
 1775TIP3    H2 5332   2.535   0.859   4.239
 1776TIP3   OH2 5333   4.709   5.551   0.814
 1776TIP3    H1 5334   4.689   5.458   0.801
 1776TIP3    H2 5335   4.805   5.556   0.806
 1777TIP3   OH2 5336   5.760   2.244   3.787
 1777TIP3    H1 5337   5.734   2.317   3.843
 1777TIP3    H2 5338   5.681   2.191   3.777
 1778TIP3   OH2 5339   0.871   3.519   3.241
 1778TIP3    H1 5340   0.918   3.579   3.300
 1778TIP3    H2 5341   0.910   3.536   3.155
 1779TIP3   OH2 5342   2.984   5.879   3.115
 1779TIP3    H1 5343   3.018   5.967   3.102
 1779TIP3    H2 5344   2.997   5.861   3.208
 1780TIP3   OH2 5345   4.249   5.837   1.329
 1780TIP3    H1 5346   4.170   5.808   1.283
 1780TIP3    H2 5347   4.313   5.852   1.260
 1781TIP3   OH2 5348   1.943   4.497   0.139
 1781TIP3    H1 5349   1.898   4.444   0.205
 1781TIP3    H2 5350   1.989   4.564   0.190
 1782TIP3   OH2 5351   2.690   5.444   0.042
 1782TIP3    H1 5352   2.728   5.369   0.088
 1782TIP3    H2 5353   2.748   5.518   0.064
 1783TIP3   OH2 5354   3.624   2.416   0.683
 1783TIP3    H1 5355   3.657   2.343   0.735
 1783TIP3    H2 5356   3.528   2.407   0.687
 1784TIP3   OH2 5357   5.430   2.858   0.581
 1784TIP3    H1 5358   5.412   2.930   0.642
 1784TIP3    H2 5359   5.479   2.795   0.633
 1785TIP3   OH2 5360   3.347   5.601   2.999
 1785TIP3    H1 5361   3.363   5.684   3.043
 1785TIP3    H2 5362   3.334   5.538   3.071
 1786TIP3   OH2 5363   2.984   2.626   0.749
 1786TIP3    H1 5364   3.032   2.549   0.778
 1786TIP3    H2 5365   3.004   2.693   0.815
 1787TIP3   OH2 5366   3.163   5.671   0.345
 1787TIP3    H1 5367   3.210   5.588   0.340
 1787TIP3    H2 5368   3.072   5.647   0.364
 1788TIP3   OH2 5369   5.350   2.504   3.093
 1788TIP3    H1 5370   5.402   2.447   3.035
 1788TIP3    H2 5371   5.389   2.591   3.081
 1789TIP3   OH2 5372   4.935   3.046   3.995
 1789TIP3    H1 5373   4.900   3.096   4.068
 1789TIP3    H2 5374   5.010   2.999   4.032
 1790TIP3   OH2 5375   6.245   0.353   1.569
 1790TIP3    H1 5376   6.173   0.360   1.631
 1790TIP3    H2 5377   6.232   0.427   1.509
 1791TIP3   OH2 5378   2.120   4.582   3.119
 1791TIP3    H1 5379   2.030   4.579   3.087
 1791TIP3    H2 5380   2.161   4.504   3.082
 1792TIP3   OH2 5381   2.210   0.211   5.138
 1792TIP3    H1 5382   2.247   0.147   5.078
 1792TIP3    H2 5383   2.122   0.178   5.157
 1793TIP3   OH2 5384   1.472   0.616   3.685
 1793TIP3    H1 5385   1.548   0.605   3.628
 1793TIP3    H2 5386   1.451   0.710   3.679
 1794TIP3   OH2 5387   6.061   2.222   3.479
 1794TIP3    H1 5388   6.111   2.205   3.399
 1794TIP3    H2 5389   6.076   2.314   3.498
 1795TIP3   OH2 5390   1.485   5.432   5.267
 1795TIP3    H1 5391   1.398   5.397   5.249
 1795TIP3    H2 5392   1.542   5.389   5.203
 1796TIP3   OH2 5393   4.774   0.228   1.795
 1796TIP3    H1 5394   4.707   0.293   1.772
 1796TIP3    H2 5395   4.794   0.183   1.712
 1797TIP3   OH2 5396   1.999   2.102   0.292
 1797TIP3    H1 5397   2.043   2.030   0.248
 1797TIP3    H2 5398   1.977   2.068   0.379
 1798TIP3   OH2 5399   3.292   0.580   0.475
 1798TIP3    H1 5400   3.370   0.633   0.485
 1798TIP3    H2 5401   3.315   0.515   0.408
 1799TIP3   OH2 5402   6.135   5.035   4.764
 1799TIP3    H1 5403   6.118   5.075   4.679
 1799TIP3    H2 5404   6.054   4.989   4.786
 1800TIP3   OH2 5405   3.057   2.541   2.261
 1800TIP3    H1 5406   3.084   2.632   2.250
 1800TIP3    H2 5407   3.130   2.500   2.306
 1801TIP3   OH2 5408   3.471   1.424   4.229
 1801TIP3    H1 5409   3.440   1.447   4.316
 1801TIP3    H2 5410   3.558   1.465   4.222
 1802TIP3   OH2 5411   1.622   2.544   0.203
 1802TIP3    H1 5412   1.701   2.507   0.243
 1802TIP3    H2 5413   1.590   2.607   0.268
 1803TIP3   OH2 5414   0.510   2.884   4.420
 1803TIP3    H1 5415   0.467   2.800   4.433
 1803TIP3    H2 5416   0.439   2.943   4.394
 1804TIP3   OH2 5417   0.883   5.667   4.112
 1804TIP3    H1 5418   0.883   5.575   4.137
 1804TIP3    H2 5419   0.974   5.694   4.118
 1805TIP3   OH2 5420   3.759   3.937   5.106
 1805TIP3    H1 5421   3.790   3.994   5.176
 1805TIP3    H2 5422   3.834   3.880   5.087
 1806TIP3   OH2 5423   4.720   3.924   2.292
 1806TIP3    H1 5424   4.688   3.834   2.291
 1806TIP3    H2 5425   4.728   3.948   2.200
 1807TIP3   OH2 5426   0.357   1.583   0.710
 1807TIP3    H1 5427   0.428   1.643   0.731
 1807TIP3    H2 5428   0.282   1.616   0.760
 1808TIP3   OH2 5429   1.487   0.451   2.337
 1808TIP3    H1 5430   1.555   0.474   2.274
 1808TIP3    H2 5431   1.436   0.383   2.294
 1809TIP3   OH2 5432   0.338   4.192   4.729
 1809TIP3    H1 5433   0.251   4.193   4.688
 1809TIP3    H2 5434   0.398   4.206   4.656
 1810TIP3   OH2 5435   5.991   4.111   1.864
 1810TIP3    H1 5436   6.082   4.083   1.859
 1810TIP3    H2 5437   5.995   4.199   1.903
 1811TIP3   OH2 5438   0.279   5.322   0.993
 1811TIP3    H1 5439   0.221   5.388   0.955
 1811TIP3    H2 5440   0.366   5.344   0.960
 1812TIP3   OH2 5441   0.381   1.594   0.431
 1812TIP3    H1 5442   0.358   1.592   0.524
 1812TIP3    H2 5443   0.333   1.521   0.393
 1813TIP3   OH2 5444   0.764   3.105   3.845
 1813TIP3    H1 5445   0.712   3.100   3.764
 1813TIP3    H2 5446   0.771   3.199   3.863
 1814TIP3   OH2 5447   3.188   2.053   1.267
 1814TIP3    H1 5448   3.212   2.013   1.351
 1814TIP3    H2 5449   3.191   2.147   1.283
 1815TIP3   OH2 5450   4.576   4.688   4.077
 1815TIP3    H1 5451   4.501   4.647   4.034
 1815TIP3    H2 5452   4.598   4.629   4.149
 1816TIP3   OH2 5453   6.134   4.420   1.487
 1816TIP3    H1 5454   6.113   4.513   1.477
 1816TIP3    H2 5455   6.050   4.378   1.504
 1817TIP3   OH2 5456   4.692   4.103   2.077
 1817TIP3    H1 5457   4.647   4.176   2.034
 1817TIP3    H2 5458   4.658   4.025   2.032
 1818TIP3   OH2 5459   5.652   2.975   2.107
 1818TIP3    H1 5460   5.571   2.935   2.077
 1818TIP3    H2 5461   5.668   2.934   2.192
 1819TIP3   OH2 5462   0.146   5.610   1.493
 1819TIP3    H1 5463   0.083   5.676   1.466
 1819TIP3    H2 5464   0.095   5.530   1.501
 1820TIP3   OH2 5465   3.667   3.048   2.311
 1820TIP3    H1 5466   3.725   3.038   2.387
 1820TIP3    H2 5467   3.726   3.052   2.236
 1821TIP3   OH2 5468   3.610   0.133   4.330
 1821TIP3    H1 5469   3.679   0.110   4.393
 1821TIP3    H2 5470   3.616   0.228   4.321
 1822TIP3   OH2 5471   5.169   5.450   4.152
 1822TIP3    H1 5472   5.157   5.538   4.188
 1822TIP3    H2 5473   5.173   5.394   4.229
 1823TIP3   OH2 5474   2.425   4.432   3.696
 1823TIP3    H1 5475   2.502   4.391   3.735
 1823TIP3    H2 5476   2.423   4.520   3.733
 1824TIP3   OH2 5477   4.789   2.092   5.134
 1824TIP3    H1 5478   4.737   2.011   5.135
 1824TIP3    H2 5479   4.729   2.158   5.099
 1825TIP3   OH2 5480   4.055   1.324   4.656
 1825TIP3    H1 5481   4.105   1.288   4.728
 1825TIP3    H2 5482   3.989   1.380   4.697
 1826TIP3   OH2 5483   0.507   4.820   0.208
 1826TIP3    H1 5484   0.487   4.779   0.293
 1826TIP3    H2 5485   0.577   4.765   0.172
 1827TIP3   OH2 5486   2.371   3.566   4.312
 1827TIP3    H1 5487   2.415   3.644   4.346
 1827TIP3    H2 5488   2.410   3.552   4.225
 1828TIP3   OH2 5489   5.117   1.817   3.922
 1828TIP3    H1 5490   5.143   1.885   3.985
 1828TIP3    H2 5491   5.176   1.744   3.940
 1829TIP3   OH2 5492   1.910   3.305   1.702
 1829TIP3    H1 5493   1.855   3.355   1.642
 1829TIP3    H2 5494   1.901   3.350   1.786
 1830TIP3   OH2 5495   4.442   0.977   3.128
 1830TIP3    H1 5496   4.439   1.014   3.216
 1830TIP3    H2 5497   4.467   1.051   3.072
 1831TIP3   OH2 5498   2.640   4.233   0.673
 1831TIP3    H1 5499   2.679   4.257   0.589
 1831TIP3    H2 5500   2.712   4.197   0.724
 1832TIP3   OH2 5501   4.105   0.482   0.317
 1832TIP3    H1 5502   4.082   0.501   0.408
 1832TIP3    H2 5503   4.200   0.487   0.315
 1833TIP3   OH2 5504   4.121   4.809   3.761
 1833TIP3    H1 5505   4.121   4.900   3.731
 1833TIP3    H2 5506   4.212   4.781   3.752
 1834TIP3   OH2 5507   4.942   3.003   0.592
 1834TIP3    H1 5508   5.019   2.990   0.536
 1834TIP3    H2 5509   4.958   3.087   0.635
 1835TIP3   OH2 5510   2.971   3.183   5.063
 1835TIP3    H1 5511   2.995   3.091   5.058
 1835TIP3    H2 5512   2.950   3.198   5.155
 1836TIP3   OH2 5513   5.355   3.568   4.080
 1836TIP3    H1 5514   5.306   3.628   4.136
 1836TIP3    H2 5515   5.372   3.617   4.000
 1837TIP3   OH2 5516   1.542   5.311   1.161
 1837TIP3    H1 5517   1.535   5.252   1.086
 1837TIP3    H2 5518   1.455   5.349   1.170
 1838TIP3   OH2 5519   2.128   4.480   1.285
 1838TIP3    H1 5520   2.087   4.401   1.248
 1838TIP3    H2 5521   2.157   4.453   1.372
 1839TIP3   OH2 5522   5.857   0.741   0.386
 1839TIP3    H1 5523   5.842   0.664   0.332
 1839TIP3    H2 5524   5.949   0.735   0.412
 1840TIP3   OH2 5525   1.339   5.228   4.432
 1840TIP3    H1 5526   1.386   5.309   4.448
 1840TIP3    H2 5527   1.401   5.159   4.454
 1841TIP3   OH2 5528   0.518   1.230   2.275
 1841TIP3    H1 5529   0.462   1.155   2.294
 1841TIP3    H2 5530   0.547   1.261   2.361
 1842TIP3   OH2 5531   5.907   0.640   3.606
 1842TIP3    H1 5532   5.817   0.673   3.610
 1842TIP3    H2 5533   5.934   0.635   3.698
 1843TIP3   OH2 5534   1.827   3.662   2.356
 1843TIP3    H1 5535   1.808   3.579   2.400
 1843TIP3    H2 5536   1.857   3.636   2.269
 1844TIP3   OH2 5537   2.880   4.691   3.319
 1844TIP3    H1 5538   2.916   4.751   3.385
 1844TIP3    H2 5539   2.796   4.729   3.295
 1845TIP3   OH2 5540   0.965   4.090   4.377
 1845TIP3    H1 5541   0.989   4.175   4.415
 1845TIP3    H2 5542   1.046   4.057   4.341
 1846TIP3   OH2 5543   4.953   1.760   1.556
 1846TIP3    H1 5544   4.965   1.825   1.625
 1846TIP3    H2 5545   4.869   1.719   1.576
 1847TIP3   OH2 5546   0.756   0.466   2.814
 1847TIP3    H1 5547   0.751   0.424   2.729
 1847TIP3    H2 5548   0.826   0.420   2.860
 1848TIP3   OH2 5549   3.974   5.607   3.220
 1848TIP3    H1 5550   3.989   5.513   3.222
 1848TIP3    H2 5551   3.995   5.633   3.130
 1849TIP3   OH2 5552   1.025   4.674   1.725
 1849TIP3    H1 5553   1.004   4.592   1.770
 1849TIP3    H2 5554   1.111   4.657   1.685
 1850TIP3   OH2 5555   3.328   2.090   2.619
 1850TIP3    H1 5556   3.259   2.156   2.619
 1850TIP3    H2 5557   3.370   2.098   2.534
 1851TIP3   OH2 5558   5.925   0.325   1.465
 1851TIP3    H1 5559   5.925   0.239   1.506
 1851TIP3    H2 5560   5.925   0.386   1.539
 1852TIP3   OH2 5561   0.738   2.630   3.156
 1852TIP3    H1 5562   0.694   2.642   3.241
 1852TIP3    H2 5563   0.807   2.566   3.174
 1853TIP3   OH2 5564   0.728   3.869   4.807
 1853TIP3    H1 5565   0.648   3.867   4.753
 1853TIP3    H2 5566   0.776   3.945   4.774
 1854TIP3   OH2 5567   2.775   5.020   2.151
 1854TIP3    H1 5568   2.683   4.997   2.146
 1854TIP3    H2 5569   2.802   4.994   2.239
 1855TIP3   OH2 5570   0.865   2.059   1.320
 1855TIP3    H1 5571   0.950   2.102   1.308
 1855TIP3    H2 5572   0.804   2.113   1.270
 1856TIP3   OH2 5573   0.347   1.063   2.595
 1856TIP3    H1 5574   0.301   1.058   2.679
 1856TIP3    H2 5575   0.401   1.141   2.602
 1857TIP3   OH2 5576   5.134   2.129   3.398
 1857TIP3    H1 5577   5.085   2.161   3.474
 1857TIP3    H2 5578   5.191   2.202   3.374
 1858TIP3   OH2 5579   2.927   5.695   3.604
 1858TIP3    H1 5580   2.945   5.683   3.697
 1858TIP3    H2 5581   2.942   5.609   3.565
 1859TIP3   OH2 5582   5.843   0.889   0.005
 1859TIP3    H1 5583   5.884   0.886  -0.081
 1859TIP3    H2 5584   5.869   0.808   0.048
 1860TIP3   OH2 5585   1.297   2.583   3.305
 1860TIP3    H1 5586   1.323   2.524   3.234
 1860TIP3    H2 5587   1.303   2.530   3.384
 1861TIP3   OH2 5588   3.676   5.169   3.195
 1861TIP3    H1 5589   3.587   5.132   3.197
 1861TIP3    H2 5590   3.732   5.095   3.217
 1862TIP3   OH2 5591   0.778   0.695   3.027
 1862TIP3    H1 5592   0.750   0.634   2.958
 1862TIP3    H2 5593   0.699   0.710   3.079
 1863TIP3   OH2 5594   5.777   3.361   0.070
 1863TIP3    H1 5595   5.862   3.385   0.108
 1863TIP3    H2 5596   5.721   3.346   0.146
 1864TIP3   OH2 5597   0.887   0.734   4.368
 1864TIP3    H1 5598   0.846   0.790   4.434
 1864TIP3    H2 5599   0.847   0.761   4.285
 1865TIP3   OH2 5600   4.866   3.557   3.388
 1865TIP3    H1 5601   4.837   3.480   3.437
 1865TIP3    H2 5602   4.856   3.630   3.450
 1866TIP3   OH2 5603   1.085   0.502   4.808
 1866TIP3    H1 5604   1.047   0.497   4.720
 1866TIP3    H2 5605   1.038   0.575   4.850
 1867TIP3   OH2 5606   2.361   5.409   0.059
 1867TIP3    H1 5607   2.295   5.477   0.044
 1867TIP3    H2 5608   2.445   5.456   0.058
 1868TIP3   OH2 5609   3.798   3.395   4.953
 1868TIP3    H1 5610   3.754   3.405   4.869
 1868TIP3    H2 5611   3.870   3.335   4.935
 1869TIP3   OH2 5612   5.047   5.336   4.652
 1869TIP3    H1 5613   5.067   5.292   4.735
 1869TIP3    H2 5614   5.050   5.267   4.586
 1870TIP3   OH2 5615   3.587   4.064   1.171
 1870TIP3    H1 5616   3.637   3.993   1.131
 1870TIP3    H2 5617   3.598   4.137   1.111
 1871TIP3   OH2 5618   4.930   4.330   1.849
 1871TIP3    H1 5619   4.836   4.343   1.863
 1871TIP3    H2 5620   4.961   4.415   1.816
 1872TIP3   OH2 5621   4.818   4.507   3.959
 1872TIP3    H1 5622   4.732   4.467   3.950
 1872TIP3    H2 5623   4.857   4.501   3.872
 1873TIP3   OH2 5624   2.214   4.450   4.645
 1873TIP3    H1 5625   2.227   4.502   4.724
 1873TIP3    H2 5626   2.265   4.496   4.578
 1874TIP3   OH2 5627   4.172   1.854   0.536
 1874TIP3    H1 5628   4.083   1.826   0.557
 1874TIP3    H2 5629   4.164   1.948   0.521
 1875TIP3   OH2 5630   5.416   1.029   4.299
 1875TIP3    H1 5631   5.495   1.018   4.247
 1875TIP3    H2 5632   5.421   1.118   4.333
 1876TIP3   OH2 5633   5.290   2.129   0.786
 1876TIP3    H1 5634   5.280   2.072   0.863
 1876TIP3    H2 5635   5.347   2.079   0.727
 1877TIP3   OH2 5636   4.135   4.215   1.082
 1877TIP3    H1 5637   4.212   4.161   1.098
 1877TIP3    H2 5638   4.137   4.280   1.152
 1878TIP3   OH2 5639   0.211   3.392   3.825
 1878TIP3    H1 5640   0.275   3.413   3.758
 1878TIP3    H2 5641   0.257   3.405   3.908
 1879TIP3   OH2 5642   1.036   4.720   3.303
 1879TIP3    H1 5643   1.082   4.723   3.219
 1879TIP3    H2 5644   0.945   4.702   3.281
 1880TIP3   OH2 5645  -0.006   0.121   3.758
 1880TIP3    H1 5646   0.012   0.135   3.851
 1880TIP3    H2 5647   0.080   0.125   3.716
 1881TIP3   OH2 5648   2.006   0.102   1.233
 1881TIP3    H1 5649   2.005   0.007   1.218
 1881TIP3    H2 5650   1.954   0.114   1.313
 1882TIP3   OH2 5651   1.145   0.817   4.300
 1882TIP3    H1 5652   1.054   0.796   4.317
 1882TIP3    H2 5653   1.176   0.859   4.381
 1883TIP3   OH2 5654   5.674   1.460   2.001
 1883TIP3    H1 5655   5.658   1.482   2.093
 1883TIP3    H2 5656   5.756   1.504   1.980
 1884TIP3   OH2 5657   4.019   2.780   0.025
 1884TIP3    H1 5658   4.007   2.859   0.077
 1884TIP3    H2 5659   4.060   2.810  -0.056
 1885TIP3   OH2 5660   3.192   2.380   5.013
 1885TIP3    H1 5661   3.177   2.402   5.105
 1885TIP3    H2 5662   3.156   2.292   5.004
 1886TIP3   OH2 5663   1.972   0.989   2.127
 1886TIP3    H1 5664   1.881   0.988   2.098
 1886TIP3    H2 5665   2.015   0.923   2.072
 1887TIP3   OH2 5666   5.533   2.943   0.091
 1887TIP3    H1 5667   5.443   2.912   0.103
 1887TIP3    H2 5668   5.584   2.863   0.076
 1888TIP3   OH2 5669   0.799   3.773   5.053
 1888TIP3    H1 5670   0.808   3.810   4.965
 1888TIP3    H2 5671   0.784   3.680   5.039
 1889TIP3   OH2 5672   0.572   4.625   3.769
 1889TIP3    H1 5673   0.554   4.531   3.766
 1889TIP3    H2 5674   0.489   4.665   3.795
 1890TIP3   OH2 5675   2.383   5.642   3.993
 1890TIP3    H1 5676   2.431   5.567   4.029
 1890TIP3    H2 5677   2.297   5.636   4.035
 1891TIP3   OH2 5678   0.009   4.965   4.589
 1891TIP3    H1 5679  -0.009   5.032   4.523
 1891TIP3    H2 5680  -0.073   4.957   4.638
 1892TIP3   OH2 5681   6.081   4.036   1.419
 1892TIP3    H1 5682   6.025   3.962   1.397
 1892TIP3    H2 5683   6.025   4.095   1.470
 1893TIP3   OH2 5684   0.058   3.970   4.354
 1893TIP3    H1 5685   0.009   4.020   4.289
 1893TIP3    H2 5686   0.128   3.927   4.304
 1894TIP3   OH2 5687   1.194  -0.080   2.515
 1894TIP3    H1 5688   1.215  -0.153   2.458
 1894TIP3    H2 5689   1.203  -0.002   2.460
 1895TIP3   OH2 5690   0.823   5.941   3.111
 1895TIP3    H1 5691   0.892   5.936   3.044
 1895TIP3    H2 5692   0.808   5.850   3.136
 1896TIP3   OH2 5693   2.200   3.294   1.039
 1896TIP3    H1 5694   2.245   3.308   1.123
 1896TIP3    H2 5695   2.107   3.302   1.060
 1897TIP3   OH2 5696   2.935   3.005   4.622
 1897TIP3    H1 5697   2.873   3.073   4.649
 1897TIP3    H2 5698   2.894   2.923   4.649
 1898TIP3   OH2 5699   2.127   2.523   2.077
 1898TIP3    H1 5700   2.037   2.500   2.102
 1898TIP3    H2 5701   2.117   2.578   2.000
 1899TIP3   OH2 5702   4.961   2.772   4.055
 1899TIP3    H1 5703   4.927   2.858   4.028
 1899TIP3    H2 5704   4.971   2.723   3.973
 1900TIP3   OH2 5705   0.203   3.835   3.531
 1900TIP3    H1 5706   0.188   3.880   3.448
 1900TIP3    H2 5707   0.131   3.772   3.538
 1901TIP3   OH2 5708   3.862   4.121   0.835
 1901TIP3    H1 5709   3.807   4.110   0.757
 1901TIP3    H2 5710   3.933   4.178   0.806
 1902TIP3   OH2 5711   4.732   5.124   1.613
 1902TIP3    H1 5712   4.666   5.192   1.627
 1902TIP3    H2 5713   4.681   5.046   1.591
 1903TIP3   OH2 5714   5.576   3.034   2.653
 1903TIP3    H1 5715   5.556   3.109   2.598
 1903TIP3    H2 5716   5.669   3.044   2.675
 1904TIP3   OH2 5717   1.413   2.626   1.205
 1904TIP3    H1 5718   1.432   2.541   1.167
 1904TIP3    H2 5719   1.464   2.628   1.286
 1905TIP3   OH2 5720   5.189   5.722   0.016
 1905TIP3    H1 5721   5.279   5.697   0.038
 1905TIP3    H2 5722   5.198   5.793  -0.048
 1906TIP3   OH2 5723   4.373   1.749   0.766
 1906TIP3    H1 5724   4.310   1.755   0.837
 1906TIP3    H2 5725   4.320   1.745   0.686
 1907TIP3   OH2 5726   0.062   3.107   3.760
 1907TIP3    H1 5727   0.072   3.192   3.803
 1907TIP3    H2 5728   0.091   3.121   3.670
 1908TIP3   OH2 5729   4.249   2.727   1.911
 1908TIP3    H1 5730   4.269   2.648   1.960
 1908TIP3    H2 5731   4.273   2.799   1.969
 1909TIP3   OH2 5732   2.499   5.285   3.074
 1909TIP3    H1 5733   2.429   5.349   3.090
 1909TIP3    H2 5734   2.536   5.267   3.161
 1910TIP3   OH2 5735   5.278   1.102   0.645
 1910TIP3    H1 5736   5.339   1.068   0.581
 1910TIP3    H2 5737   5.332   1.154   0.705
 1911TIP3   OH2 5738   0.585   3.390   0.185
 1911TIP3    H1 5739   0.641   3.454   0.229
 1911TIP3    H2 5740   0.498   3.428   0.187
 1912TIP3   OH2 5741   4.242   0.544   4.230
 1912TIP3    H1 5742   4.161   0.512   4.269
 1912TIP3    H2 5743   4.253   0.491   4.151
 1913TIP3   OH2 5744   5.703   0.920   1.079
 1913TIP3    H1 5745   5.640   0.910   1.150
 1913TIP3    H2 5746   5.650   0.925   1.000
 1914TIP3   OH2 5747   5.835   0.687   3.877
 1914TIP3    H1 5748   5.877   0.765   3.912
 1914TIP3    H2 5749   5.762   0.720   3.824
 1915TIP3   OH2 5750   3.666   5.857   4.371
 1915TIP3    H1 5751   3.576   5.888   4.386
 1915TIP3    H2 5752   3.720   5.935   4.383
 1916TIP3   OH2 5753   1.411   4.884   0.034
 1916TIP3    H1 5754   1.372   4.936  -0.036
 1916TIP3    H2 5755   1.505   4.886   0.016
 1917TIP3   OH2 5756   5.820   1.322   4.388
 1917TIP3    H1 5757   5.831   1.283   4.301
 1917TIP3    H2 5758   5.876   1.269   4.445
 1918TIP3   OH2 5759   5.906   1.918   3.989
 1918TIP3    H1 5760   5.956   1.967   3.923
 1918TIP3    H2 5761   5.872   1.842   3.943
 1919TIP3   OH2 5762   2.443   1.214   1.408
 1919TIP3    H1 5763   2.434   1.254   1.495
 1919TIP3    H2 5764   2.511   1.148   1.420
 1920TIP3   OH2 5765   1.348   3.066   2.644
 1920TIP3    H1 5766   1.304   3.062   2.559
 1920TIP3    H2 5767   1.278   3.054   2.708
 1921TIP3   OH2 5768   4.107   1.951   2.612
 1921TIP3    H1 5769   4.019   1.984   2.591
 1921TIP3    H2 5770   4.098   1.916   2.700
 1922TIP3   OH2 5771   2.396   2.621   0.507
 1922TIP3    H1 5772   2.347   2.634   0.426
 1922TIP3    H2 5773   2.472   2.569   0.480
 1923TIP3   OH2 5774   3.852   4.577   3.761
 1923TIP3    H1 5775   3.834   4.658   3.714
 1923TIP3    H2 5776   3.797   4.511   3.718
 1924TIP3   OH2 5777   2.741  -0.001   4.624
 1924TIP3    H1 5778   2.804   0.035   4.685
 1924TIP3    H2 5779   2.762   0.040   4.540
 1925TIP3   OH2 5780   5.323   5.813   4.745
 1925TIP3    H1 5781   5.331   5.737   4.803
 1925TIP3    H2 5782   5.321   5.888   4.804
 1926TIP3   OH2 5783   0.359   4.260   2.946
 1926TIP3    H1 5784   0.295   4.216   2.890
 1926TIP3    H2 5785   0.437   4.269   2.892
 1927TIP3   OH2 5786   3.653   3.867   2.339
 1927TIP3    H1 5787   3.717   3.885   2.407
 1927TIP3    H2 5788   3.670   3.777   2.312
 1928TIP3   OH2 5789   2.319   1.680   3.200
 1928TIP3    H1 5790   2.243   1.736   3.186
 1928TIP3    H2 5791   2.284   1.591   3.201
 1929TIP3   OH2 5792   1.176   1.505   1.111
 1929TIP3    H1 5793   1.176   1.410   1.123
 1929TIP3    H2 5794   1.230   1.539   1.182
 1930TIP3   OH2 5795   6.164   2.254   4.855
 1930TIP3    H1 5796   6.199   2.289   4.773
 1930TIP3    H2 5797   6.075   2.288   4.860
 1931TIP3   OH2 5798   5.543   4.503   0.721
 1931TIP3    H1 5799   5.605   4.448   0.674
 1931TIP3    H2 5800   5.565   4.593   0.695
 1932TIP3   OH2 5801   1.267   1.300   0.646
 1932TIP3    H1 5802   1.227   1.383   0.621
 1932TIP3    H2 5803   1.210   1.266   0.715
 1933TIP3   OH2 5804   1.424   0.177   4.030
 1933TIP3    H1 5805   1.492   0.222   4.080
 1933TIP3    H2 5806   1.411   0.231   3.953
 1934TIP3   OH2 5807   3.288   1.329   3.726
 1934TIP3    H1 5808   3.347   1.349   3.799
 1934TIP3    H2 5809   3.217   1.279   3.766
 1935TIP3   OH2 5810   3.334   5.074   2.175
 1935TIP3    H1 5811   3.329   4.982   2.150
 1935TIP3    H2 5812   3.309   5.121   2.096
 1936TIP3   OH2 5813   1.332   5.598   4.228
 1936TIP3    H1 5814   1.408   5.649   4.258
 1936TIP3    H2 5815   1.258   5.658   4.237
 1937TIP3   OH2 5816   3.840   0.095   1.536
 1937TIP3    H1 5817   3.851   0.120   1.444
 1937TIP3    H2 5818   3.762   0.039   1.536
 1938TIP3   OH2 5819   0.190   4.039   3.830
 1938TIP3    H1 5820   0.225   4.093   3.759
 1938TIP3    H2 5821   0.150   3.965   3.786
 1939TIP3   OH2 5822   4.004   2.769   4.240
 1939TIP3    H1 5823   4.007   2.861   4.215
 1939TIP3    H2 5824   4.040   2.766   4.328
 1940TIP3   OH2 5825   0.220   1.186   3.603
 1940TIP3    H1 5826   0.282   1.259   3.597
 1940TIP3    H2 5827   0.267   1.119   3.652
 1941TIP3   OH2 5828   1.698   5.522   4.057
 1941TIP3    H1 5829   1.713   5.607   4.097
 1941TIP3    H2 5830   1.782   5.476   4.066
 1942TIP3   OH2 5831   0.903   0.143   2.070
 1942TIP3    H1 5832   0.983   0.133   2.019
 1942TIP3    H2 5833   0.836   0.167   2.006
 1943TIP3   OH2 5834   4.812   5.736   1.066
 1943TIP3    H1 5835   4.835   5.680   1.140
 1943TIP3    H2 5836   4.758   5.680   1.009
 1944TIP3   OH2 5837   0.715   4.831   3.531
 1944TIP3    H1 5838   0.807   4.854   3.520
 1944TIP3    H2 5839   0.669   4.915   3.529
 1945TIP3   OH2 5840   1.304   5.797   0.047
 1945TIP3    H1 5841   1.255   5.803  -0.035
 1945TIP3    H2 5842   1.243   5.829   0.113
 1946TIP3   OH2 5843   0.784   1.233   0.424
 1946TIP3    H1 5844   0.794   1.141   0.449
 1946TIP3    H2 5845   0.820   1.238   0.336
 1947TIP3   OH2 5846   0.839   2.504   0.639
 1947TIP3    H1 5847   0.859   2.574   0.577
 1947TIP3    H2 5848   0.924   2.470   0.665
 1948TIP3   OH2 5849   5.943   5.730   3.293
 1948TIP3    H1 5850   5.864   5.775   3.263
 1948TIP3    H2 5851   5.926   5.713   3.386
 1949TIP3   OH2 5852   0.772   4.882   3.869
 1949TIP3    H1 5853   0.731   4.849   3.789
 1949TIP3    H2 5854   0.788   4.975   3.852
 1950TIP3   OH2 5855   1.376   1.049   4.270
 1950TIP3    H1 5856   1.413   0.963   4.247
 1950TIP3    H2 5857   1.285   1.031   4.291
 1951TIP3   OH2 5858   1.616   5.412   2.948
 1951TIP3    H1 5859   1.681   5.373   2.890
 1951TIP3    H2 5860   1.533   5.402   2.901
 1952TIP3   OH2 5861   3.289   4.514   1.541
 1952TIP3    H1 5862   3.280   4.425   1.508
 1952TIP3    H2 5863   3.272   4.570   1.465
 1953TIP3   OH2 5864   1.247   0.118   3.434
 1953TIP3    H1 5865   1.307   0.117   3.360
 1953TIP3    H2 5866   1.263   0.202   3.477
 1954TIP3   OH2 5867   0.842   5.001   2.529
 1954TIP3    H1 5868   0.782   4.984   2.456
 1954TIP3    H2 5869   0.785   5.034   2.599
 1955TIP3   OH2 5870   4.633   2.308   5.072
 1955TIP3    H1 5871   4.660   2.331   4.983
 1955TIP3    H2 5872   4.544   2.273   5.062
 1956TIP3   OH2 5873   2.817   3.170   2.918
 1956TIP3    H1 5874   2.889   3.107   2.919
 1956TIP3    H2 5875   2.835   3.226   2.843
 1957TIP3   OH2 5876   6.197   4.329   3.709
 1957TIP3    H1 5877   6.158   4.314   3.795
 1957TIP3    H2 5878   6.181   4.248   3.660
 1958TIP3   OH2 5879   0.984   5.549   3.167
 1958TIP3    H1 5880   0.952   5.490   3.098
 1958TIP3    H2 5881   1.064   5.507   3.199
 1959TIP3   OH2 5882   4.012   3.533   4.725
 1959TIP3    H1 5883   4.003   3.441   4.750
 1959TIP3    H2 5884   3.924   3.570   4.735
 1960TIP3   OH2 5885   3.536   4.852   2.309
 1960TIP3    H1 5886   3.595   4.776   2.315
 1960TIP3    H2 5887   3.467   4.823   2.250
 1961TIP3   OH2 5888   2.268   4.493   1.527
 1961TIP3    H1 5889   2.294   4.586   1.533
 1961TIP3    H2 5890   2.341   4.446   1.568
 1962TIP3   OH2 5891   5.929   0.255   0.522
 1962TIP3    H1 5892   5.936   0.260   0.617
 1962TIP3    H2 5893   5.985   0.182   0.497
 1963TIP3   OH2 5894   3.670   1.623   3.260
 1963TIP3    H1 5895   3.732   1.606   3.190
 1963TIP3    H2 5896   3.692   1.711   3.292
 1964TIP3   OH2 5897   1.233   5.799   4.470
 1964TIP3    H1 5898   1.143   5.780   4.443
 1964TIP3    H2 5899   1.269   5.852   4.399
 1965TIP3   OH2 5900   5.342   5.540   0.844
 1965TIP3    H1 5901   5.302   5.573   0.924
 1965TIP3    H2 5902   5.336   5.613   0.782
 1966TIP3   OH2 5903   0.705   4.310   3.008
 1966TIP3    H1 5904   0.703   4.305   3.103
 1966TIP3    H2 5905   0.726   4.221   2.979
 1967TIP3   OH2 5906   5.072   3.237   4.695
 1967TIP3    H1 5907   4.990   3.272   4.660
 1967TIP3    H2 5908   5.136   3.307   4.681
 1968TIP3   OH2 5909   2.852   4.625   4.885
 1968TIP3    H1 5910   2.916   4.656   4.948
 1968TIP3    H2 5911   2.777   4.597   4.938
 1969TIP3   OH2 5912   5.439   1.792   3.941
 1969TIP3    H1 5913   5.427   1.737   4.019
 1969TIP3    H2 5914   5.446   1.881   3.975
 1970TIP3   OH2 5915   2.054   4.343   5.164
 1970TIP3    H1 5916   2.141   4.306   5.149
 1970TIP3    H2 5917   1.996   4.267   5.170
 1971TIP3   OH2 5918   0.830   5.950   5.026
 1971TIP3    H1 5919   0.821   6.006   5.103
 1971TIP3    H2 5920   0.925   5.936   5.017
 1972TIP3   OH2 5921   4.975   5.787   4.048
 1972TIP3    H1 5922   4.954   5.717   3.987
 1972TIP3    H2 5923   5.067   5.807   4.032
 1973TIP3   OH2 5924   0.663   4.363   0.704
 1973TIP3    H1 5925   0.677   4.375   0.798
 1973TIP3    H2 5926   0.586   4.415   0.685
 1974TIP3   OH2 5927   3.299   3.104   0.002
 1974TIP3    H1 5928   3.388   3.070   0.016
 1974TIP3    H2 5929   3.242   3.030   0.022
 1975TIP3   OH2 5930   4.082   4.741   4.863
 1975TIP3    H1 5931   4.009   4.684   4.888
 1975TIP3    H2 5932   4.042   4.827   4.852
 1976TIP3   OH2 5933   5.738   0.692   4.970
 1976TIP3    H1 5934   5.765   0.749   5.043
 1976TIP3    H2 5935   5.802   0.709   4.901
 1977TIP3   OH2 5936   3.594   0.732   4.092
 1977TIP3    H1 5937   3.500   0.722   4.077
 1977TIP3    H2 5938   3.608   0.827   4.092
 1978TIP3   OH2 5939   1.903   4.242   2.281
 1978TIP3    H1 5940   1.875   4.290   2.203
 1978TIP3    H2 5941   1.875   4.298   2.354
 1979TIP3   OH2 5942   4.309   0.044   0.152
 1979TIP3    H1 5943   4.278   0.070   0.238
 1979TIP3    H2 5944   4.231   0.010   0.107
 1980TIP3   OH2 5945   2.067   1.809   1.038
 1980TIP3    H1 5946   2.156   1.777   1.053
 1980TIP3    H2 5947   2.011   1.732   1.051
 1981TIP3   OH2 5948   5.340   4.564   3.024
 1981TIP3    H1 5949   5.322   4.621   3.099
 1981TIP3    H2 5950   5.337   4.475   3.060
 1982TIP3   OH2 5951   1.180   5.643   2.315
 1982TIP3    H1 5952   1.204   5.551   2.324
 1982TIP3    H2 5953   1.193   5.680   2.402
 1983TIP3   OH2 5954   4.369   5.746   4.500
 1983TIP3    H1 5955   4.440   5.804   4.526
 1983TIP3    H2 5956   4.391   5.720   4.410
 1984TIP3   OH2 5957   6.057   1.478   0.826
 1984TIP3    H1 5958   6.033   1.455   0.916
 1984TIP3    H2 5959   6.091   1.567   0.832
 1985TIP3   OH2 5960   3.695   4.643   2.869
 1985TIP3    H1 5961   3.620   4.583   2.869
 1985TIP3    H2 5962   3.758   4.602   2.928
 1986TIP3   OH2 5963   0.931   1.869   3.867
 1986TIP3    H1 5964   0.962   1.950   3.827
 1986TIP3    H2 5965   1.002   1.806   3.852
 1987TIP3   OH2 5966   3.379   4.055   2.566
 1987TIP3    H1 5967   3.401   4.146   2.547
 1987TIP3    H2 5968   3.390   4.046   2.661
 1988TIP3   OH2 5969   6.211   2.627   2.763
 1988TIP3    H1 5970   6.295   2.622   2.718
 1988TIP3    H2 5971   6.216   2.559   2.831
 1989TIP3   OH2 5972   3.419   2.988   2.411
 1989TIP3    H1 5973   3.369   2.978   2.330
 1989TIP3    H2 5974   3.510   2.991   2.382
 1990TIP3   OH2 5975   3.544   5.171   0.424
 1990TIP3    H1 5976   3.557   5.211   0.338
 1990TIP3    H2 5977   3.452   5.145   0.424
 1991TIP3   OH2 5978   1.496   5.984   3.165
 1991TIP3    H1 5979   1.540   5.972   3.081
 1991TIP3    H2 5980   1.566   5.977   3.230
 1992TIP3   OH2 5981   0.394   2.075   0.410
 1992TIP3    H1 5982   0.353   2.162   0.406
 1992TIP3    H2 5983   0.373   2.043   0.498
 1993TIP3   OH2 5984   0.867   3.573   3.549
 1993TIP3    H1 5985   0.828   3.634   3.612
 1993TIP3    H2 5986   0.807   3.499   3.547
 1994TIP3   OH2 5987   6.070   4.676   1.492
 1994TIP3    H1 5988   6.131   4.747   1.511
 1994TIP3    H2 5989   6.000   4.687   1.558
 1995TIP3   OH2 5990   5.251   5.827   4.052
 1995TIP3    H1 5991   5.252   5.868   4.139
 1995TIP3    H2 5992   5.300   5.746   4.063
 1996TIP3   OH2 5993   1.762   0.774   4.787
 1996TIP3    H1 5994   1.850   0.785   4.751
 1996TIP3    H2 5995   1.740   0.683   4.769
 1997TIP3   OH2 5996   1.332   0.305   1.031
 1997TIP3    H1 5997   1.331   0.224   0.980
 1997TIP3    H2 5998   1.379   0.282   1.112
 1998TIP3   OH2 5999   0.560   0.710   5.166
 1998TIP3    H1 6000   0.475   0.684   5.200
 1998TIP3    H2 6001   0.622   0.680   5.232
 1999TIP3   OH2 6002   2.601   2.192   0.768
 1999TIP3    H1 6003   2.585   2.098   0.776
 1999TIP3    H2 6004   2.619   2.206   0.676
 2000TIP3   OH2 6005   0.157   3.166   2.383
 2000TIP3    H1 6006   0.072   3.209   2.375
 2000TIP3    H2 6007   0.137   3.078   2.415
 2001TIP3   OH2 6008   0.085   1.659   3.956
 2001TIP3    H1 6009   0.107   1.662   4.049
 2001TIP3    H2 6010   0.065   1.750   3.933
 2002TIP3   OH2 6011   2.808   5.743   2.238
 2002TIP3    H1 6012   2.896   5.774   2.216
 2002TIP3    H2 6013   2.792   5.671   2.177
 2003TIP3   OH2 6014   3.684   1.176   0.952
 2003TIP3    H1 6015   3.596   1.138   0.955
 2003TIP3    H2 6016   3.674   1.256   0.901
 2004TIP3   OH2 6017   0.127   4.892   1.480
 2004TIP3    H1 6018   0.060   4.848   1.428
 2004TIP3    H2 6019   0.177   4.821   1.520
 2005TIP3   OH2 6020   4.819   1.127   1.711
 2005TIP3    H1 6021   4.848   1.114   1.621
 2005TIP3    H2 6022   4.894   1.100   1.764
 2006TIP3   OH2 6023   1.274   4.390   2.409
 2006TIP3    H1 6024   1.186   4.368   2.381
 2006TIP3    H2 6025   1.280   4.485   2.400
 2007TIP3   OH2 6026   5.634   5.575   5.024
 2007TIP3    H1 6027   5.671   5.610   5.105
 2007TIP3    H2 6028   5.692   5.609   4.955
 2008TIP3   OH2 6029   0.120   0.289   1.021
 2008TIP3    H1 6030   0.171   0.212   1.048
 2008TIP3    H2 6031   0.184   0.350   0.986
 2009TIP3   OH2 6032   0.644   0.354   2.340
 2009TIP3    H1 6033   0.571   0.416   2.331
 2009TIP3    H2 6034   0.616   0.276   2.293
 2010TIP3   OH2 6035   5.361   4.647   5.192
 2010TIP3    H1 6036   5.267   4.634   5.182
 2010TIP3    H2 6037   5.401   4.573   5.146
 2011TIP3   OH2 6038   5.120   1.515   2.390
 2011TIP3    H1 6039   5.025   1.509   2.398
 2011TIP3    H2 6040   5.149   1.555   2.472
 2012TIP3   OH2 6041   1.370   4.448   1.386
 2012TIP3    H1 6042   1.319   4.407   1.456
 2012TIP3    H2 6043   1.412   4.375   1.341
 2013TIP3   OH2 6044   5.560   1.271   3.271
 2013TIP3    H1 6045   5.486   1.225   3.230
 2013TIP3    H2 6046   5.519   1.341   3.322
 2014TIP3   OH2 6047   4.782   3.904   0.498
 2014TIP3    H1 6048   4.792   3.929   0.590
 2014TIP3    H2 6049   4.733   3.822   0.500
 2015TIP3   OH2 6050   0.076   0.300   4.413
 2015TIP3    H1 6051   0.161   0.256   4.413
 2015TIP3    H2 6052   0.088   0.376   4.471
 2016TIP3   OH2 6053   2.659   2.803   4.656
 2016TIP3    H1 6054   2.591   2.869   4.654
 2016TIP3    H2 6055   2.685   2.797   4.748
 2017TIP3   OH2 6056   2.025   2.312   2.954
 2017TIP3    H1 6057   1.944   2.274   2.920
 2017TIP3    H2 6058   2.064   2.242   3.007
 2018TIP3   OH2 6059   3.773   0.131   0.332
 2018TIP3    H1 6060   3.754   0.103   0.422
 2018TIP3    H2 6061   3.711   0.082   0.278
 2019TIP3   OH2 6062   3.200  -0.030   2.445
 2019TIP3    H1 6063   3.130  -0.025   2.379
 2019TIP3    H2 6064   3.162   0.010   2.523
 2020TIP3   OH2 6065   1.312   0.728   1.436
 2020TIP3    H1 6066   1.283   0.675   1.510
 2020TIP3    H2 6067   1.362   0.799   1.476
 2021TIP3   OH2 6068   2.495   5.129   0.677
 2021TIP3    H1 6069   2.571   5.174   0.642
 2021TIP3    H2 6070   2.430   5.198   0.691
 2022TIP3   OH2 6071   2.371   1.987   4.507
 2022TIP3    H1 6072   2.452   2.031   4.531
 2022TIP3    H2 6073   2.373   1.983   4.411
 2023TIP3   OH2 6074   4.584   1.630   0.291
 2023TIP3    H1 6075   4.519   1.561   0.308
 2023TIP3    H2 6076   4.596   1.672   0.376
 2024TIP3   OH2 6077   4.330   3.406   1.535
 2024TIP3    H1 6078   4.284   3.487   1.509
 2024TIP3    H2 6079   4.314   3.399   1.629
 2025TIP3   OH2 6080   3.473   1.338   3.499
 2025TIP3    H1 6081   3.431   1.316   3.582
 2025TIP3    H2 6082   3.562   1.364   3.523
 2026TIP3   OH2 6083   3.098   4.196   2.162
 2026TIP3    H1 6084   3.071   4.187   2.253
 2026TIP3    H2 6085   3.188   4.163   2.160
 2027TIP3   OH2 6086   4.551   0.679   1.909
 2027TIP3    H1 6087   4.523   0.717   1.992
 2027TIP3    H2 6088   4.632   0.724   1.888
 2028TIP3   OH2 6089   5.418   4.888   4.786
 2028TIP3    H1 6090   5.390   4.961   4.840
 2028TIP3    H2 6091   5.511   4.878   4.803
 2029TIP3   OH2 6092   0.103   0.656   1.760
 2029TIP3    H1 6093   0.135   0.662   1.850
 2029TIP3    H2 6094   0.148   0.580   1.723
 2030TIP3   OH2 6095   3.401   5.683   4.569
 2030TIP3    H1 6096   3.369   5.772   4.557
 2030TIP3    H2 6097   3.329   5.627   4.541
 2031TIP3   OH2 6098   4.194   2.444   3.309
 2031TIP3    H1 6099   4.210   2.387   3.233
 2031TIP3    H2 6100   4.099   2.457   3.309
 2032TIP3   OH2 6101   0.843   4.251   4.899
 2032TIP3    H1 6102   0.776   4.220   4.960
 2032TIP3    H2 6103   0.913   4.186   4.905
 2033TIP3   OH2 6104   6.199   1.024   1.098
 2033TIP3    H1 6105   6.200   1.107   1.146
 2033TIP3    H2 6106   6.108   1.015   1.068
 2034TIP3   OH2 6107   0.540   3.249   4.183
 2034TIP3    H1 6108   0.611   3.279   4.240
 2034TIP3    H2 6109   0.568   3.163   4.153
 2035TIP3   OH2 6110   2.086   4.678   2.266
 2035TIP3    H1 6111   2.103   4.702   2.175
 2035TIP3    H2 6112   2.116   4.587   2.272
 2036TIP3   OH2 6113   4.120   1.624   3.839
 2036TIP3    H1 6114   4.025   1.619   3.842
 2036TIP3    H2 6115   4.144   1.671   3.919
 2037TIP3   OH2 6116   1.207   0.750   1.201
 2037TIP3    H1 6117   1.249   0.762   1.286
 2037TIP3    H2 6118   1.260   0.802   1.140
 2038TIP3   OH2 6119   5.334   2.646   2.286
 2038TIP3    H1 6120   5.325   2.741   2.292
 2038TIP3    H2 6121   5.369   2.631   2.198
 2039TIP3   OH2 6122   2.136   2.939   3.800
 2039TIP3    H1 6123   2.161   2.858   3.754
 2039TIP3    H2 6124   2.053   2.964   3.761
 2040TIP3   OH2 6125   5.031   5.511   0.019
 2040TIP3    H1 6126   4.998   5.488  -0.068
 2040TIP3    H2 6127   5.106   5.568   0.002
 2041TIP3   OH2 6128   1.427   0.968   0.166
 2041TIP3    H1 6129   1.344   0.933   0.199
 2041TIP3    H2 6130   1.493   0.906   0.198
 2042TIP3   OH2 6131   3.741   1.007   0.377
 2042TIP3    H1 6132   3.745   0.926   0.326
 2042TIP3    H2 6133   3.706   0.981   0.462
 2043TIP3   OH2 6134   2.202   0.802   1.696
 2043TIP3    H1 6135   2.238   0.714   1.709
 2043TIP3    H2 6136   2.244   0.834   1.616
 2044TIP3   OH2 6137   4.758   1.264   3.249
 2044TIP3    H1 6138   4.846   1.248   3.282
 2044TIP3    H2 6139   4.735   1.351   3.283
 2045TIP3   OH2 6140   3.407   1.504   1.068
 2045TIP3    H1 6141   3.495   1.539   1.082
 2045TIP3    H2 6142   3.417   1.442   0.996
 2046TIP3   OH2 6143   2.547   4.079   3.822
 2046TIP3    H1 6144   2.523   4.063   3.731
 2046TIP3    H2 6145   2.467   4.063   3.872
 2047TIP3   OH2 6146   4.516   2.574   5.169
 2047TIP3    H1 6147   4.608   2.578   5.195
 2047TIP3    H2 6148   4.514   2.510   5.098
 2048TIP3   OH2 6149   2.554   0.429   0.294
 2048TIP3    H1 6150   2.499   0.379   0.354
 2048TIP3    H2 6151   2.553   0.379   0.212
 2049TIP3   OH2 6152   2.295   1.398   2.296
 2049TIP3    H1 6153   2.214   1.447   2.283
 2049TIP3    H2 6154   2.340   1.403   2.211
 2050TIP3   OH2 6155   0.703   5.408   4.494
 2050TIP3    H1 6156   0.706   5.484   4.436
 2050TIP3    H2 6157   0.721   5.334   4.438
 2051TIP3   OH2 6158   5.632   2.472   2.282
 2051TIP3    H1 6159   5.591   2.512   2.206
 2051TIP3    H2 6160   5.710   2.430   2.248
 2052TIP3   OH2 6161   1.254   3.961   2.954
 2052TIP3    H1 6162   1.337   4.008   2.948
 2052TIP3    H2 6163   1.187   4.029   2.945
 2053TIP3   OH2 6164   2.507   5.246   4.309
 2053TIP3    H1 6165   2.581   5.246   4.369
 2053TIP3    H2 6166   2.467   5.160   4.319
 2054TIP3   OH2 6167   3.067   2.792   3.720
 2054TIP3    H1 6168   2.975   2.816   3.734
 2054TIP3    H2 6169   3.074   2.781   3.625
 2055TIP3   OH2 6170   5.945   5.505   4.600
 2055TIP3    H1 6171   5.987   5.575   4.649
 2055TIP3    H2 6172   5.931   5.541   4.512
 2056TIP3   OH2 6173   2.983   2.033   0.877
 2056TIP3    H1 6174   2.973   2.111   0.822
 2056TIP3    H2 6175   2.894   2.015   0.910
 2057TIP3   OH2 6176   2.035   2.600   4.659
 2057TIP3    H1 6177   1.988   2.520   4.683
 2057TIP3    H2 6178   2.095   2.615   4.732
 2058TIP3   OH2 6179   0.395   5.173   4.173
 2058TIP3    H1 6180   0.358   5.116   4.106
 2058TIP3    H2 6181   0.487   5.185   4.147
 2059TIP3   OH2 6182   6.237   2.892   2.781
 2059TIP3    H1 6183   6.250   2.798   2.767
 2059TIP3    H2 6184   6.316   2.921   2.826
 2060TIP3   OH2 6185   3.685   5.003   3.472
 2060TIP3    H1 6186   3.776   5.034   3.464
 2060TIP3    H2 6187   3.681   4.926   3.415
 2061TIP3   OH2 6188   1.307   3.896   0.871
 2061TIP3    H1 6189   1.295   3.947   0.951
 2061TIP3    H2 6190   1.331   3.961   0.804
 2062TIP3   OH2 6191   4.371   2.236   2.044
 2062TIP3    H1 6192   4.346   2.195   2.127
 2062TIP3    H2 6193   4.369   2.164   1.980
 2063TIP3   OH2 6194   4.000   2.405   2.331
 2063TIP3    H1 6195   3.970   2.324   2.290
 2063TIP3    H2 6196   3.959   2.405   2.418
 2064TIP3   OH2 6197   3.170   4.346   0.987
 2064TIP3    H1 6198   3.083   4.334   0.948
 2064TIP3    H2 6199   3.203   4.257   0.999
 2065TIP3   OH2 6200   4.966   0.087   2.785
 2065TIP3    H1 6201   5.061   0.077   2.783
 2065TIP3    H2 6202   4.952   0.180   2.804
 2066TIP3   OH2 6203   6.120   1.180   3.308
 2066TIP3    H1 6204   6.118   1.274   3.326
 2066TIP3    H2 6205   6.135   1.139   3.393
 2067TIP3   OH2 6206   5.292   5.713   4.483
 2067TIP3    H1 6207   5.305   5.619   4.470
 2067TIP3    H2 6208   5.273   5.723   4.576
 2068TIP3   OH2 6209   6.310   5.194   4.931
 2068TIP3    H1 6210   6.314   5.275   4.881
 2068TIP3    H2 6211   6.246   5.140   4.885
 2069TIP3   OH2 6212   4.006   0.439   3.126
 2069TIP3    H1 6213   3.940   0.432   3.057
 2069TIP3    H2 6214   4.017   0.533   3.140
 2070TIP3   OH2 6215   4.643   2.947   0.094
 2070TIP3    H1 6216   4.698   2.919   0.021
 2070TIP3    H2 6217   4.630   2.867   0.146
 2071TIP3   OH2 6218   3.789   3.626   4.165
 2071TIP3    H1 6219   3.756   3.695   4.223
 2071TIP3    H2 6220   3.769   3.545   4.211
 2072TIP3   OH2 6221   0.312   1.699   1.123
 2072TIP3    H1 6222   0.269   1.648   1.055
 2072TIP3    H2 6223   0.401   1.713   1.090
 2073TIP3   OH2 6224   0.400   3.016   3.346
 2073TIP3    H1 6225   0.489   3.046   3.367
 2073TIP3    H2 6226   0.346   3.047   3.419
 2074TIP3   OH2 6227   3.261   3.931   4.975
 2074TIP3    H1 6228   3.206   3.909   4.900
 2074TIP3    H2 6229   3.284   3.846   5.014
 2075TIP3   OH2 6230   4.486   3.702   1.431
 2075TIP3    H1 6231   4.516   3.775   1.376
 2075TIP3    H2 6232   4.458   3.635   1.368
 2076TIP3   OH2 6233   6.352   1.645   4.813
 2076TIP3    H1 6234   6.283   1.665   4.876
 2076TIP3    H2 6235   6.330   1.559   4.779
 2077TIP3   OH2 6236   6.044   3.859   0.778
 2077TIP3    H1 6237   6.093   3.911   0.841
 2077TIP3    H2 6238   6.095   3.862   0.698
 2078TIP3   OH2 6239   2.996   1.848   2.785
 2078TIP3    H1 6240   2.935   1.892   2.845
 2078TIP3    H2 6241   2.959   1.863   2.698
 2079TIP3   OH2 6242   1.762   5.690   4.653
 2079TIP3    H1 6243   1.827   5.669   4.585
 2079TIP3    H2 6244   1.811   5.685   4.735
 2080TIP3   OH2 6245   3.887   1.160   2.270
 2080TIP3    H1 6246   3.797   1.130   2.268
 2080TIP3    H2 6247   3.914   1.152   2.362
 2081TIP3   OH2 6248   1.690   3.246   3.739
 2081TIP3    H1 6249   1.622   3.230   3.804
 2081TIP3    H2 6250   1.769   3.263   3.790
 2082TIP3   OH2 6251   1.871   5.011   4.886
 2082TIP3    H1 6252   1.828   5.007   4.971
 2082TIP3    H2 6253   1.958   5.046   4.905
 2083TIP3   OH2 6254   0.997   0.395   2.889
 2083TIP3    H1 6255   1.066   0.338   2.857
 2083TIP3    H2 6256   1.005   0.391   2.985
 2084TIP3   OH2 6257   4.251   0.368   0.029
 2084TIP3    H1 6258   4.207   0.453   0.036
 2084TIP3    H2 6259   4.213   0.315   0.099
 2085TIP3   OH2 6260   1.550   5.045   2.535
 2085TIP3    H1 6261   1.617   5.113   2.543
 2085TIP3    H2 6262   1.572   4.998   2.454
 2086TIP3   OH2 6263   4.384   1.574   2.014
 2086TIP3    H1 6264   4.426   1.616   1.939
 2086TIP3    H2 6265   4.315   1.520   1.975
 2087TIP3   OH2 6266   3.784   5.303   3.519
 2087TIP3    H1 6267   3.712   5.313   3.457
 2087TIP3    H2 6268   3.817   5.392   3.530
 2088TIP3   OH2 6269   4.026   1.953   0.867
 2088TIP3    H1 6270   3.961   1.974   0.799
 2088TIP3    H2 6271   4.053   2.039   0.900
 2089TIP3   OH2 6272   0.640   5.556   1.534
 2089TIP3    H1 6273   0.681   5.476   1.501
 2089TIP3    H2 6274   0.658   5.622   1.467
 2090TIP3   OH2 6275   5.471   5.213   2.101
 2090TIP3    H1 6276   5.421   5.140   2.065
 2090TIP3    H2 6277   5.542   5.171   2.150
 2091TIP3   OH2 6278   0.429   4.560   4.252
 2091TIP3    H1 6279   0.370   4.485   4.254
 2091TIP3    H2 6280   0.422   4.599   4.339
 2092TIP3   OH2 6281   2.956   6.011   4.784
 2092TIP3    H1 6282   2.983   6.073   4.717
 2092TIP3    H2 6283   2.997   6.043   4.864
 2093TIP3   OH2 6284   4.154   0.389   1.402
 2093TIP3    H1 6285   4.202   0.468   1.426
 2093TIP3    H2 6286   4.119   0.356   1.485
 2094TIP3   OH2 6287   2.971   2.039   2.172
 2094TIP3    H1 6288   2.879   2.063   2.176
 2094TIP3    H2 6289   3.000   2.040   2.264
 2095TIP3   OH2 6290   0.186   1.191   1.875
 2095TIP3    H1 6291   0.269   1.177   1.828
 2095TIP3    H2 6292   0.167   1.284   1.862
 2096TIP3   OH2 6293   1.273   1.675   4.469
 2096TIP3    H1 6294   1.355   1.720   4.446
 2096TIP3    H2 6295   1.282   1.588   4.432
 2097TIP3   OH2 6296   4.718   3.503   1.347
 2097TIP3    H1 6297   4.705   3.499   1.441
 2097TIP3    H2 6298   4.655   3.568   1.316
 2098TIP3   OH2 6299   4.337   1.586   0.483
 2098TIP3    H1 6300   4.277   1.659   0.499
 2098TIP3    H2 6301   4.282   1.516   0.448
 2099TIP3   OH2 6302   3.926   3.481   2.652
 2099TIP3    H1 6303   3.923   3.505   2.559
 2099TIP3    H2 6304   3.996   3.416   2.657
 2100TIP3   OH2 6305   5.818   0.099   0.779
 2100TIP3    H1 6306   5.874   0.173   0.801
 2100TIP3    H2 6307   5.858   0.060   0.701
 2101TIP3   OH2 6308   2.122   0.607   0.144
 2101TIP3    H1 6309   2.081   0.560   0.072
 2101TIP3    H2 6310   2.073   0.580   0.221
 2102TIP3   OH2 6311   0.713   4.168   0.191
 2102TIP3    H1 6312   0.700   4.083   0.150
 2102TIP3    H2 6313   0.624   4.201   0.208
 2103TIP3   OH2 6314   5.219   4.833   1.238
 2103TIP3    H1 6315   5.310   4.836   1.268
 2103TIP3    H2 6316   5.172   4.887   1.302
 2104TIP3   OH2 6317   3.380   3.761   2.545
 2104TIP3    H1 6318   3.406   3.848   2.577
 2104TIP3    H2 6319   3.341   3.718   2.622
 2105TIP3   OH2 6320   4.434   1.311   1.967
 2105TIP3    H1 6321   4.488   1.343   1.895
 2105TIP3    H2 6322   4.494   1.304   2.041
 2106TIP3   OH2 6323   2.923   1.087   3.660
 2106TIP3    H1 6324   2.988   1.127   3.718
 2106TIP3    H2 6325   2.864   1.159   3.637
 2107TIP3   OH2 6326   5.709   2.112   1.895
 2107TIP3    H1 6327   5.683   2.192   1.941
 2107TIP3    H2 6328   5.630   2.059   1.893
 2108TIP3   OH2 6329   0.963   1.179   3.714
 2108TIP3    H1 6330   0.937   1.098   3.759
 2108TIP3    H2 6331   1.024   1.150   3.646
 2109TIP3   OH2 6332   1.935   1.025   0.169
 2109TIP3    H1 6333   1.857   1.077   0.152
 2109TIP3    H2 6334   1.903   0.934   0.170
 2110TIP3   OH2 6335   2.547   3.995   2.084
 2110TIP3    H1 6336   2.501   4.075   2.111
 2110TIP3    H2 6337   2.613   3.982   2.152
 2111TIP3   OH2 6338   4.699   4.307   4.424
 2111TIP3    H1 6339   4.644   4.229   4.420
 2111TIP3    H2 6340   4.768   4.290   4.360
 2112TIP3   OH2 6341   0.113   5.204   2.685
 2112TIP3    H1 6342   0.126   5.113   2.659
 2112TIP3    H2 6343   0.200   5.234   2.710
 2113TIP3   OH2 6344   4.610   4.157   2.687
 2113TIP3    H1 6345   4.675   4.151   2.757
 2113TIP3    H2 6346   4.595   4.250   2.676
 2114TIP3   OH2 6347   0.359   0.432   3.134
 2114TIP3    H1 6348   0.279   0.482   3.147
 2114TIP3    H2 6349   0.373   0.433   3.039
 2115TIP3   OH2 6350   2.997   1.060   1.213
 2115TIP3    H1 6351   3.007   1.000   1.288
 2115TIP3    H2 6352   3.073   1.041   1.158
 2116TIP3   OH2 6353   3.457   2.456   4.196
 2116TIP3    H1 6354   3.513   2.468   4.272
 2116TIP3    H2 6355   3.483   2.371   4.160
 2117TIP3   OH2 6356   2.255   3.568   4.694
 2117TIP3    H1 6357   2.294   3.542   4.777
 2117TIP3    H2 6358   2.262   3.490   4.638
 2118TIP3   OH2 6359   4.869   5.318   3.087
 2118TIP3    H1 6360   4.940   5.339   3.026
 2118TIP3    H2 6361   4.830   5.238   3.051
 2119TIP3   OH2 6362   2.648   5.463   4.560
 2119TIP3    H1 6363   2.629   5.551   4.529
 2119TIP3    H2 6364   2.571   5.437   4.611
 2120TIP3   OH2 6365   1.864   5.618   1.581
 2120TIP3    H1 6366   1.902   5.678   1.645
 2120TIP3    H2 6367   1.797   5.671   1.537
 2121TIP3   OH2 6368   5.320   4.864   3.788
 2121TIP3    H1 6369   5.345   4.914   3.710
 2121TIP3    H2 6370   5.225   4.872   3.793
 2122TIP3   OH2 6371   2.618   4.658   1.992
 2122TIP3    H1 6372   2.561   4.725   2.031
 2122TIP3    H2 6373   2.565   4.617   1.924
 2123TIP3   OH2 6374   4.766   0.852   1.878
 2123TIP3    H1 6375   4.854   0.887   1.868
 2123TIP3    H2 6376   4.712   0.928   1.897
 2124TIP3   OH2 6377   0.446   3.080   1.067
 2124TIP3    H1 6378   0.485   3.154   1.114
 2124TIP3    H2 6379   0.352   3.093   1.077
 2125TIP3   OH2 6380   2.072   3.997   3.459
 2125TIP3    H1 6381   2.094   3.906   3.478
 2125TIP3    H2 6382   2.116   4.047   3.527
 2126TIP3   OH2 6383   3.041   2.980   2.910
 2126TIP3    H1 6384   3.023   2.887   2.898
 2126TIP3    H2 6385   3.135   2.984   2.929
 2127TIP3   OH2 6386   6.067   5.120   4.231
 2127TIP3    H1 6387   6.149   5.118   4.181
 2127TIP3    H2 6388   6.014   5.187   4.189
 2128TIP3   OH2 6389   2.483   4.554   3.162
 2128TIP3    H1 6390   2.538   4.479   3.141
 2128TIP3    H2 6391   2.393   4.520   3.155
 2129TIP3   OH2 6392   6.201   5.205   3.224
 2129TIP3    H1 6393   6.295   5.210   3.240
 2129TIP3    H2 6394   6.164   5.278   3.273
 2130TIP3   OH2 6395   1.862   2.505   2.123
 2130TIP3    H1 6396   1.774   2.508   2.085
 2130TIP3    H2 6397   1.868   2.419   2.163
 2131TIP3   OH2 6398   5.361   3.332   2.604
 2131TIP3    H1 6399   5.329   3.422   2.610
 2131TIP3    H2 6400   5.425   3.325   2.675
 2132TIP3   OH2 6401   2.865   3.668   1.004
 2132TIP3    H1 6402   2.804   3.696   1.072
 2132TIP3    H2 6403   2.809   3.651   0.928
 2133TIP3   OH2 6404   4.019   5.863   1.533
 2133TIP3    H1 6405   4.101   5.866   1.485
 2133TIP3    H2 6406   4.016   5.946   1.581
 2134TIP3   OH2 6407   4.490   2.930   0.414
 2134TIP3    H1 6408   4.501   2.840   0.443
 2134TIP3    H2 6409   4.442   2.923   0.331
 2135TIP3   OH2 6410   1.866   4.776   3.877
 2135TIP3    H1 6411   1.790   4.824   3.911
 2135TIP3    H2 6412   1.875   4.702   3.936
 2136TIP3   OH2 6413   4.822   4.095   1.284
 2136TIP3    H1 6414   4.817   4.160   1.355
 2136TIP3    H2 6415   4.911   4.103   1.250
 2137TIP3   OH2 6416   1.516   5.284   4.806
 2137TIP3    H1 6417   1.429   5.246   4.798
 2137TIP3    H2 6418   1.502   5.377   4.817
 2138TIP3   OH2 6419   6.016   3.109   4.518
 2138TIP3    H1 6420   6.048   3.147   4.437
 2138TIP3    H2 6421   6.066   3.028   4.528
 2139TIP3   OH2 6422   5.713   2.323   3.081
 2139TIP3    H1 6423   5.688   2.315   3.172
 2139TIP3    H2 6424   5.722   2.417   3.066
 2140TIP3   OH2 6425   1.470   1.282   1.278
 2140TIP3    H1 6426   1.554   1.327   1.285
 2140TIP3    H2 6427   1.488   1.204   1.226
 2141TIP3   OH2 6428   4.133   2.643   2.296
 2141TIP3    H1 6429   4.204   2.607   2.243
 2141TIP3    H2 6430   4.084   2.566   2.326
 2142TIP3   OH2 6431   3.900   3.000   1.689
 2142TIP3    H1 6432   3.805   3.005   1.675
 2142TIP3    H2 6433   3.938   3.045   1.613
 2143TIP3   OH2 6434   5.416   2.817   0.990
 2143TIP3    H1 6435   5.352   2.750   0.968
 2143TIP3    H2 6436   5.383   2.856   1.071
 2144TIP3   OH2 6437   1.561   5.777   4.299
 2144TIP3    H1 6438   1.647   5.753   4.264
 2144TIP3    H2 6439   1.532   5.850   4.245
 2145TIP3   OH2 6440   5.039   4.075   1.776
 2145TIP3    H1 6441   5.045   4.002   1.837
 2145TIP3    H2 6442   4.995   4.145   1.825
 2146TIP3   OH2 6443   0.979   2.260   5.209
 2146TIP3    H1 6444   0.895   2.302   5.226
 2146TIP3    H2 6445   0.957   2.176   5.170
 2147TIP3   OH2 6446   6.053   5.793   4.010
 2147TIP3    H1 6447   6.143   5.825   4.019
 2147TIP3    H2 6448   6.023   5.827   3.926
 2148TIP3   OH2 6449   5.434   3.075   4.913
 2148TIP3    H1 6450   5.508   3.094   4.972
 2148TIP3    H2 6451   5.363   3.129   4.946
 2149TIP3   OH2 6452   1.897   2.229   3.634
 2149TIP3    H1 6453   1.815   2.187   3.608
 2149TIP3    H2 6454   1.870   2.299   3.694
 2150TIP3   OH2 6455   2.642   3.732   5.155
 2150TIP3    H1 6456   2.702   3.659   5.173
 2150TIP3    H2 6457   2.654   3.751   5.062
 2151TIP3   OH2 6458   3.830   5.398   1.308
 2151TIP3    H1 6459   3.774   5.449   1.249
 2151TIP3    H2 6460   3.854   5.320   1.257
 2152TIP3   OH2 6461   4.699   4.619   3.380
 2152TIP3    H1 6462   4.790   4.612   3.351
 2152TIP3    H2 6463   4.648   4.590   3.305
 2153TIP3   OH2 6464   1.665   2.999   0.425
 2153TIP3    H1 6465   1.680   3.045   0.343
 2153TIP3    H2 6466   1.602   3.053   0.472
 2154TIP3   OH2 6467   5.295   0.159   1.579
 2154TIP3    H1 6468   5.337   0.233   1.623
 2154TIP3    H2 6469   5.365   0.118   1.529
 2155TIP3   OH2 6470   0.334   0.946   4.055
 2155TIP3    H1 6471   0.347   0.980   4.143
 2155TIP3    H2 6472   0.297   1.019   4.006
 2156TIP3   OH2 6473   5.026   0.079   0.990
 2156TIP3    H1 6474   5.114   0.074   1.026
 2156TIP3    H2 6475   4.969   0.043   1.058
 2157TIP3   OH2 6476   4.558   5.719   1.741
 2157TIP3    H1 6477   4.502   5.724   1.818
 2157TIP3    H2 6478   4.524   5.787   1.683
 2158TIP3   OH2 6479   1.229   5.419   5.183
 2158TIP3    H1 6480   1.181   5.404   5.265
 2158TIP3    H2 6481   1.204   5.345   5.127
 2159TIP3   OH2 6482   5.593   3.209   3.946
 2159TIP3    H1 6483   5.619   3.285   3.893
 2159TIP3    H2 6484   5.530   3.243   4.009
 2160TIP3   OH2 6485   1.226   3.916   3.234
 2160TIP3    H1 6486   1.226   3.876   3.147
 2160TIP3    H2 6487   1.169   3.992   3.224
 2161TIP3   OH2 6488   0.949   2.614   1.284
 2161TIP3    H1 6489   0.859   2.622   1.313
 2161TIP3    H2 6490   0.972   2.523   1.301
 2162TIP3   OH2 6491   3.812   3.217   0.560
 2162TIP3    H1 6492   3.764   3.160   0.620
 2162TIP3    H2 6493   3.798   3.178   0.474
 2163TIP3   OH2 6494   4.112   4.585   1.487
 2163TIP3    H1 6495   4.131   4.679   1.481
 2163TIP3    H2 6496   4.173   4.544   1.425
 2164TIP3   OH2 6497   3.634   3.169   2.937
 2164TIP3    H1 6498   3.604   3.231   2.870
 2164TIP3    H2 6499   3.630   3.083   2.894
 2165TIP3   OH2 6500   2.426   5.633   1.695
 2165TIP3    H1 6501   2.337   5.597   1.697
 2165TIP3    H2 6502   2.413   5.728   1.699
 2166TIP3   OH2 6503   0.816   3.244   0.584
 2166TIP3    H1 6504   0.769   3.262   0.665
 2166TIP3    H2 6505   0.829   3.149   0.585
 2167TIP3   OH2 6506   2.389   5.183   4.998
 2167TIP3    H1 6507   2.408   5.160   4.907
 2167TIP3    H2 6508   2.308   5.234   4.994
 2168TIP3   OH2 6509   0.920   5.228   1.768
 2168TIP3    H1 6510   0.919   5.133   1.760
 2168TIP3    H2 6511   0.861   5.246   1.841
 2169TIP3   OH2 6512   4.523   5.059   2.208
 2169TIP3    H1 6513   4.558   4.984   2.160
 2169TIP3    H2 6514   4.598   5.093   2.257
 2170TIP3   OH2 6515   0.149   0.754   0.267
 2170TIP3    H1 6516   0.194   0.822   0.217
 2170TIP3    H2 6517   0.089   0.714   0.205
 2171TIP3   OH2 6518   1.265   4.205   3.769
 2171TIP3    H1 6519   1.337   4.225   3.829
 2171TIP3    H2 6520   1.193   4.177   3.826
 2172TIP3   OH2 6521   3.862   0.264   2.874
 2172TIP3    H1 6522   3.791   0.313   2.833
 2172TIP3    H2 6523   3.942   0.294   2.831
 2173TIP3   OH2 6524   3.262   5.051   0.951
 2173TIP3    H1 6525   3.344   5.080   0.911
 2173TIP3    H2 6526   3.275   4.958   0.967
 2174TIP3   OH2 6527   3.070   0.672   0.325
 2174TIP3    H1 6528   3.148   0.631   0.362
 2174TIP3    H2 6529   3.088   0.765   0.326
 2175TIP3   OH2 6530   1.427   1.818   4.708
 2175TIP3    H1 6531   1.346   1.808   4.659
 2175TIP3    H2 6532   1.453   1.728   4.729
 2176TIP3   OH2 6533   3.002   3.862   3.560
 2176TIP3    H1 6534   3.093   3.835   3.546
 2176TIP3    H2 6535   2.976   3.904   3.478
 2177TIP3   OH2 6536   2.544   1.884   2.684
 2177TIP3    H1 6537   2.481   1.911   2.617
 2177TIP3    H2 6538   2.575   1.798   2.655
 2178TIP3   OH2 6539   2.897   5.666   2.974
 2178TIP3    H1 6540   2.915   5.744   3.027
 2178TIP3    H2 6541   2.834   5.695   2.909
 2179TIP3   OH2 6542   4.127   2.952   3.320
 2179TIP3    H1 6543   4.111   2.940   3.413
 2179TIP3    H2 6544   4.214   2.991   3.315
 2180TIP3   OH2 6545   1.645   1.762   4.508
 2180TIP3    H1 6546   1.736   1.748   4.532
 2180TIP3    H2 6547   1.596   1.745   4.588
 2181TIP3   OH2 6548   1.302   5.937   4.217
 2181TIP3    H1 6549   1.377   5.923   4.159
 2181TIP3    H2 6550   1.326   6.013   4.269
 2182TIP3   OH2 6551   6.138   3.167   1.886
 2182TIP3    H1 6552   6.067   3.104   1.872
 2182TIP3    H2 6553   6.097   3.253   1.874
 2183TIP3   OH2 6554   1.739   0.217   4.266
 2183TIP3    H1 6555   1.827   0.245   4.291
 2183TIP3    H2 6556   1.749   0.188   4.175
 2184TIP3   OH2 6557   1.107   3.980   3.510
 2184TIP3    H1 6558   1.141   3.944   3.428
 2184TIP3    H2 6559   1.146   4.068   3.515
 2185TIP3   OH2 6560   4.058   4.008   4.164
 2185TIP3    H1 6561   4.011   4.085   4.132
 2185TIP3    H2 6562   4.039   4.007   4.258
 2186TIP3   OH2 6563   0.593   2.296   1.392
 2186TIP3    H1 6564   0.509   2.328   1.426
 2186TIP3    H2 6565   0.638   2.261   1.469
 2187TIP3   OH2 6566   5.267   4.737   0.986
 2187TIP3    H1 6567   5.270   4.763   1.078
 2187TIP3    H2 6568   5.175   4.745   0.962
 2188TIP3   OH2 6569   1.826   0.446   1.030
 2188TIP3    H1 6570   1.795   0.434   1.120
 2188TIP3    H2 6571   1.899   0.383   1.022
 2189TIP3   OH2 6572   0.617   5.482   4.733
 2189TIP3    H1 6573   0.671   5.513   4.661
 2189TIP3    H2 6574   0.586   5.396   4.705
 2190TIP3   OH2 6575   3.970   0.406   0.100
 2190TIP3    H1 6576   3.878   0.422   0.118
 2190TIP3    H2 6577   4.015   0.427   0.182
 2191TIP3   OH2 6578   4.149   3.295   2.776
 2191TIP3    H1 6579   4.117   3.361   2.839
 2191TIP3    H2 6580   4.242   3.314   2.767
 2192TIP3   OH2 6581   4.030   0.237   0.559
 2192TIP3    H1 6582   4.109   0.190   0.532
 2192TIP3    H2 6583   3.974   0.234   0.482
 2193TIP3   OH2 6584   1.652   2.383   4.329
 2193TIP3    H1 6585   1.667   2.370   4.235
 2193TIP3    H2 6586   1.626   2.475   4.336
 2194TIP3   OH2 6587   0.884   4.437   0.537
 2194TIP3    H1 6588   0.864   4.530   0.539
 2194TIP3    H2 6589   0.801   4.394   0.559
 2195TIP3   OH2 6590   3.196   5.562   3.793
 2195TIP3    H1 6591   3.160   5.477   3.820
 2195TIP3    H2 6592   3.125   5.624   3.811
 2196TIP3   OH2 6593   5.130   5.174   2.202
 2196TIP3    H1 6594   5.222   5.179   2.176
 2196TIP3    H2 6595   5.132   5.188   2.297
 2197TIP3   OH2 6596   0.545   5.350   0.257
 2197TIP3    H1 6597   0.480   5.420   0.254
 2197TIP3    H2 6598   0.494   5.270   0.244
 2198TIP3   OH2 6599   1.506   5.413   3.902
 2198TIP3    H1 6600   1.578   5.430   3.963
 2198TIP3    H2 6601   1.549   5.407   3.816
 2199TIP3   OH2 6602   2.459   0.135   3.613
 2199TIP3    H1 6603   2.390   0.114   3.676
 2199TIP3    H2 6604   2.417   0.195   3.551
 2200TIP3   OH2 6605   0.120   0.510   4.616
 2200TIP3    H1 6606   0.132   0.547   4.703
 2200TIP3    H2 6607   0.203   0.467   4.597
 2201TIP3   OH2 6608   1.603   2.140   3.686
 2201TIP3    H1 6609   1.623   2.217   3.739
 2201TIP3    H2 6610   1.567   2.077   3.749
 2202TIP3   OH2 6611   5.121   5.113   4.515
 2202TIP3    H1 6612   5.193   5.055   4.539
 2202TIP3    H2 6613   5.043   5.057   4.514
 2203TIP3   OH2 6614   5.802   4.213   3.778
 2203TIP3    H1 6615   5.861   4.288   3.790
 2203TIP3    H2 6616   5.759   4.203   3.863
 2204TIP3   OH2 6617   3.881   4.640   0.576
 2204TIP3    H1 6618   3.875   4.547   0.553
 2204TIP3    H2 6619   3.873   4.686   0.492
 2205TIP3   OH2 6620   6.224   0.864   2.065
 2205TIP3    H1 6621   6.131   0.856   2.084
 2205TIP3    H2 6622   6.253   0.939   2.116
 2206TIP3   OH2 6623   1.487   3.177   0.265
 2206TIP3    H1 6624   1.468   3.167   0.171
 2206TIP3    H2 6625   1.401   3.178   0.306
 2207TIP3   OH2 6626   1.867   5.042   3.076
 2207TIP3    H1 6627   1.943   5.052   3.133
 2207TIP3    H2 6628   1.797   5.088   3.121
 2208TIP3   OH2 6629   0.449   3.500   5.024
 2208TIP3    H1 6630   0.356   3.484   5.009
 2208TIP3    H2 6631   0.494   3.434   4.971
 2209TIP3   OH2 6632   1.013   1.525   2.198
 2209TIP3    H1 6633   1.052   1.547   2.114
 2209TIP3    H2 6634   0.924   1.497   2.177
 2210TIP3   OH2 6635   4.050   5.813   0.079
 2210TIP3    H1 6636   4.139   5.806   0.114
 2210TIP3    H2 6637   4.041   5.736   0.022
 2211TIP3   OH2 6638   3.238   2.902   4.791
 2211TIP3    H1 6639   3.201   2.890   4.703
 2211TIP3    H2 6640   3.316   2.846   4.791
 2212TIP3   OH2 6641   1.353   0.568   0.960
 2212TIP3    H1 6642   1.264   0.605   0.957
 2212TIP3    H2 6643   1.341   0.479   0.992
 2213TIP3   OH2 6644   2.316   0.555   1.783
 2213TIP3    H1 6645   2.375   0.481   1.766
 2213TIP3    H2 6646   2.230   0.514   1.794
 2214TIP3   OH2 6647   2.355   1.869   1.100
 2214TIP3    H1 6648   2.401   1.845   1.181
 2214TIP3    H2 6649   2.347   1.965   1.105
 2215TIP3   OH2 6650   3.571   5.887   0.878
 2215TIP3    H1 6651   3.627   5.829   0.930
 2215TIP3    H2 6652   3.628   5.962   0.858
 2216TIP3   OH2 6653   2.187   2.963   2.185
 2216TIP3    H1 6654   2.207   2.924   2.270
 2216TIP3    H2 6655   2.169   3.055   2.203
 2217TIP3   OH2 6656   1.703   2.071   4.412
 2217TIP3    H1 6657   1.662   2.070   4.498
 2217TIP3    H2 6658   1.755   1.991   4.409
 2218TIP3   OH2 6659   1.991   1.532   0.952
 2218TIP3    H1 6660   1.900   1.502   0.946
 2218TIP3    H2 6661   2.002   1.591   0.878
 2219TIP3   OH2 6662   6.021   3.328   1.518
 2219TIP3    H1 6663   6.099   3.366   1.559
 2219TIP3    H2 6664   6.026   3.356   1.426
 2220TIP3   OH2 6665   4.656   3.747   3.882
 2220TIP3    H1 6666   4.633   3.765   3.973
 2220TIP3    H2 6667   4.609   3.814   3.832
 2221TIP3   OH2 6668   2.903   4.610   2.661
 2221TIP3    H1 6669   2.936   4.520   2.655
 2221TIP3    H2 6670   2.840   4.607   2.733
 2222TIP3   OH2 6671   3.191   2.111   4.938
 2222TIP3    H1 6672   3.218   2.067   4.857
 2222TIP3    H2 6673   3.185   2.040   5.002
 2223TIP3   OH2 6674   1.519   1.254   0.536
 2223TIP3    H1 6675   1.504   1.233   0.444
 2223TIP3    H2 6676   1.432   1.249   0.577
 2224TIP3   OH2 6677   1.448   1.998   1.919
 2224TIP3    H1 6678   1.404   1.914   1.908
 2224TIP3    H2 6679   1.443   2.016   2.013
 2225TIP3   OH2 6680   0.603   3.899   1.130
 2225TIP3    H1 6681   0.607   3.929   1.220
 2225TIP3    H2 6682   0.611   3.979   1.078
 2226TIP3   OH2 6683   3.284   4.248   1.516
 2226TIP3    H1 6684   3.192   4.225   1.530
 2226TIP3    H2 6685   3.321   4.174   1.469
 2227TIP3   OH2 6686   0.313   0.190   4.385
 2227TIP3    H1 6687   0.290   0.131   4.313
 2227TIP3    H2 6688   0.403   0.166   4.408
 2228TIP3   OH2 6689   0.438   5.322   2.858
 2228TIP3    H1 6690   0.463   5.376   2.783
 2228TIP3    H2 6691   0.437   5.383   2.932
 2229TIP3   OH2 6692   1.500   2.809   1.659
 2229TIP3    H1 6693   1.417   2.799   1.705
 2229TIP3    H2 6694   1.535   2.893   1.689
 2230TIP3   OH2 6695   2.231   1.318   0.793
 2230TIP3    H1 6696   2.283   1.398   0.804
 2230TIP3    H2 6697   2.254   1.287   0.705
 2231TIP3   OH2 6698   3.539   5.871   1.522
 2231TIP3    H1 6699   3.524   5.781   1.552
 2231TIP3    H2 6700   3.633   5.885   1.534
 2232TIP3   OH2 6701   0.585   3.551   2.067
 2232TIP3    H1 6702   0.525   3.495   2.018
 2232TIP3    H2 6703   0.543   3.637   2.066
 2233TIP3   OH2 6704   5.842   0.597   0.098
 2233TIP3    H1 6705   5.819   0.590   0.005
 2233TIP3    H2 6706   5.801   0.520   0.139
 2234TIP3   OH2 6707   0.249   0.369   4.964
 2234TIP3    H1 6708   0.205   0.300   4.914
 2234TIP3    H2 6709   0.287   0.425   4.896
 2235TIP3   OH2 6710   4.409   0.591   3.596
 2235TIP3    H1 6711   4.498   0.618   3.621
 2235TIP3    H2 6712   4.365   0.574   3.679
 2236TIP3   OH2 6713   1.326   2.470   4.152
 2236TIP3    H1 6714   1.249   2.413   4.152
 2236TIP3    H2 6715   1.389   2.425   4.096
 2237TIP3   OH2 6716   6.099   5.145   3.861
 2237TIP3    H1 6717   6.012   5.125   3.895
 2237TIP3    H2 6718   6.110   5.239   3.879
 2238TIP3   OH2 6719   0.536   3.985   3.543
 2238TIP3    H1 6720   0.454   3.971   3.590
 2238TIP3    H2 6721   0.546   4.080   3.539
 2239TIP3   OH2 6722   4.335   0.454   1.171
 2239TIP3    H1 6723   4.263   0.417   1.222
 2239TIP3    H2 6724   4.397   0.382   1.161
 2240TIP3   OH2 6725   5.545   2.522   2.754
 2240TIP3    H1 6726   5.599   2.480   2.687
 2240TIP3    H2 6727   5.492   2.585   2.706
 2241TIP3   OH2 6728   3.273   4.938   4.376
 2241TIP3    H1 6729   3.216   5.015   4.372
 2241TIP3    H2 6730   3.282   4.910   4.285
 2242TIP3   OH2 6731   2.957   0.899   0.604
 2242TIP3    H1 6732   2.885   0.866   0.550
 2242TIP3    H2 6733   2.955   0.994   0.590
 2243TIP3   OH2 6734   2.433   3.657   4.040
 2243TIP3    H1 6735   2.516   3.677   3.997
 2243TIP3    H2 6736   2.417   3.731   4.098
 2244TIP3   OH2 6737   1.524   3.951   3.187
 2244TIP3    H1 6738   1.495   3.983   3.101
 2244TIP3    H2 6739   1.449   3.965   3.244
 2245TIP3   OH2 6740   2.992   3.608   1.778
 2245TIP3    H1 6741   3.040   3.567   1.706
 2245TIP3    H2 6742   2.941   3.536   1.816
 2246TIP3   OH2 6743   4.174   5.684   1.858
 2246TIP3    H1 6744   4.176   5.622   1.931
 2246TIP3    H2 6745   4.133   5.635   1.786
 2247TIP3   OH2 6746   4.732   3.205   4.684
 2247TIP3    H1 6747   4.735   3.110   4.696
 2247TIP3    H2 6748   4.676   3.236   4.756
 2248TIP3   OH2 6749   3.589   5.514   3.715
 2248TIP3    H1 6750   3.520   5.541   3.654
 2248TIP3    H2 6751   3.546   5.515   3.801
 2249TIP3   OH2 6752   1.562   2.581   3.491
 2249TIP3    H1 6753   1.633   2.574   3.427
 2249TIP3    H2 6754   1.487   2.540   3.448
 2250TIP3   OH2 6755   4.724   2.921   4.666
 2250TIP3    H1 6756   4.688   2.885   4.747
 2250TIP3    H2 6757   4.649   2.922   4.605
 2251TIP3   OH2 6758   0.177   2.712   1.816
 2251TIP3    H1 6759   0.139   2.795   1.788
 2251TIP3    H2 6760   0.209   2.672   1.735
 2252TIP3   OH2 6761   1.527   0.239   4.451
 2252TIP3    H1 6762   1.607   0.220   4.401
 2252TIP3    H2 6763   1.459   0.244   4.384
 2253TIP3   OH2 6764   3.141   3.446   3.029
 2253TIP3    H1 6765   3.086   3.387   3.081
 2253TIP3    H2 6766   3.170   3.392   2.956
 2254TIP3   OH2 6767   4.655   0.784   0.346
 2254TIP3    H1 6768   4.742   0.784   0.386
 2254TIP3    H2 6769   4.667   0.740   0.262
 2255TIP3   OH2 6770   2.484   0.513   1.146
 2255TIP3    H1 6771   2.471   0.509   1.051
 2255TIP3    H2 6772   2.492   0.421   1.172
 2256TIP3   OH2 6773   5.048   4.322   3.208
 2256TIP3    H1 6774   5.075   4.230   3.213
 2256TIP3    H2 6775   4.979   4.323   3.141
 2257TIP3   OH2 6776   3.068   4.055   0.312
 2257TIP3    H1 6777   3.019   4.129   0.275
 2257TIP3    H2 6778   3.094   4.085   0.399
 2258TIP3   OH2 6779   3.266   3.984   2.322
 2258TIP3    H1 6780   3.313   4.019   2.398
 2258TIP3    H2 6781   3.246   3.893   2.346
 2259TIP3   OH2 6782   0.091   5.878   1.257
 2259TIP3    H1 6783   0.120   5.958   1.300
 2259TIP3    H2 6784   0.162   5.857   1.195
 2260TIP3   OH2 6785   5.347   1.740   2.989
 2260TIP3    H1 6786   5.257   1.768   2.971
 2260TIP3    H2 6787   5.380   1.804   3.053
 2261TIP3   OH2 6788   5.483   0.821   3.994
 2261TIP3    H1 6789   5.556   0.849   4.050
 2261TIP3    H2 6790   5.410   0.807   4.055
 2262TIP3   OH2 6791   3.677   3.563   1.144
 2262TIP3    H1 6792   3.731   3.510   1.203
 2262TIP3    H2 6793   3.661   3.644   1.192
 2263TIP3   OH2 6794   2.549   0.663   3.423
 2263TIP3    H1 6795   2.614   0.651   3.354
 2263TIP3    H2 6796   2.600   0.687   3.500
 2264TIP3   OH2 6797   2.775   5.275   2.963
 2264TIP3    H1 6798   2.681   5.292   2.958
 2264TIP3    H2 6799   2.812   5.322   2.888
 2265TIP3   OH2 6800   3.393   1.363   2.875
 2265TIP3    H1 6801   3.439   1.445   2.896
 2265TIP3    H2 6802   3.411   1.306   2.950
 2266TIP3   OH2 6803   1.822   4.296   0.564
 2266TIP3    H1 6804   1.836   4.276   0.657
 2266TIP3    H2 6805   1.862   4.382   0.552
 2267TIP3   OH2 6806   0.545   4.327   3.547
 2267TIP3    H1 6807   0.546   4.332   3.643
 2267TIP3    H2 6808   0.581   4.410   3.518
 2268TIP3   OH2 6809   0.329   4.375   2.453
 2268TIP3    H1 6810   0.291   4.292   2.481
 2268TIP3    H2 6811   0.304   4.383   2.361
 2269TIP3   OH2 6812   0.191   3.886   1.483
 2269TIP3    H1 6813   0.120   3.948   1.465
 2269TIP3    H2 6814   0.152   3.821   1.541
 2270TIP3   OH2 6815   5.703   3.285   4.433
 2270TIP3    H1 6816   5.680   3.245   4.349
 2270TIP3    H2 6817   5.738   3.371   4.410
 2271TIP3   OH2 6818   3.338   3.873   3.713
 2271TIP3    H1 6819   3.298   3.885   3.800
 2271TIP3    H2 6820   3.394   3.950   3.703
 2272TIP3   OH2 6821   2.378   5.910   1.659
 2272TIP3    H1 6822   2.399   5.958   1.578
 2272TIP3    H2 6823   2.283   5.917   1.667
 2273TIP3   OH2 6824   2.108   0.067   3.490
 2273TIP3    H1 6825   2.019   0.069   3.456
 2273TIP3    H2 6826   2.103   0.109   3.576
 2274TIP3   OH2 6827   6.203   3.354   4.461
 2274TIP3    H1 6828   6.230   3.389   4.377
 2274TIP3    H2 6829   6.283   3.316   4.498
 2275TIP3   OH2 6830   5.842   2.791   3.953
 2275TIP3    H1 6831   5.789   2.844   4.013
 2275TIP3    H2 6832   5.778   2.739   3.905
 2276TIP3   OH2 6833   4.142   3.496   4.497
 2276TIP3    H1 6834   4.083   3.485   4.572
 2276TIP3    H2 6835   4.099   3.562   4.443
 2277TIP3   OH2 6836   3.451   1.026   0.935
 2277TIP3    H1 6837   3.486   0.938   0.920
 2277TIP3    H2 6838   3.389   1.039   0.863
 2278TIP3   OH2 6839   1.048   2.760   4.887
 2278TIP3    H1 6840   1.008   2.715   4.961
 2278TIP3    H2 6841   1.080   2.843   4.923
 2279TIP3   OH2 6842   4.475   5.914   0.045
 2279TIP3    H1 6843   4.567   5.890   0.033
 2279TIP3    H2 6844   4.478   5.992   0.101
 2280TIP3   OH2 6845   0.251   2.233   4.046
 2280TIP3    H1 6846   0.341   2.245   4.075
 2280TIP3    H2 6847   0.223   2.151   4.088
 2281TIP3   OH2 6848   5.528   3.794   3.494
 2281TIP3    H1 6849   5.518   3.856   3.422
 2281TIP3    H2 6850   5.557   3.847   3.568
 2282TIP3   OH2 6851   5.386   1.789   3.425
 2282TIP3    H1 6852   5.441   1.772   3.502
 2282TIP3    H2 6853   5.434   1.856   3.376
 2283TIP3   OH2 6854   3.665   5.305   2.585
 2283TIP3    H1 6855   3.735   5.346   2.635
 2283TIP3    H2 6856   3.698   5.218   2.565
 2284TIP3   OH2 6857   6.257   1.151   1.425
 2284TIP3    H1 6858   6.230   1.190   1.342
 2284TIP3    H2 6859   6.248   1.221   1.489
 2285TIP3   OH2 6860   6.380   2.359   0.914
 2285TIP3    H1 6861   6.305   2.342   0.857
 2285TIP3    H2 6862   6.352   2.330   1.000
 2286TIP3   OH2 6863   4.670   5.797   0.677
 2286TIP3    H1 6864   4.755   5.826   0.645
 2286TIP3    H2 6865   4.687   5.715   0.722
 2287TIP3   OH2 6866   3.149   2.941   0.189
 2287TIP3    H1 6867   3.100   2.906   0.263
 2287TIP3    H2 6868   3.107   2.903   0.111
 2288TIP3   OH2 6869   2.534   3.447   1.603
 2288TIP3    H1 6870   2.579   3.367   1.628
 2288TIP3    H2 6871   2.557   3.510   1.672
 2289TIP3   OH2 6872   0.541   3.079   3.671
 2289TIP3    H1 6873   0.501   3.156   3.632
 2289TIP3    H2 6874   0.495   3.068   3.755
 2290TIP3   OH2 6875   3.452   2.259   1.026
 2290TIP3    H1 6876   3.462   2.198   1.099
 2290TIP3    H2 6877   3.495   2.217   0.952
 2291TIP3   OH2 6878   6.174   2.897   4.578
 2291TIP3    H1 6879   6.255   2.849   4.595
 2291TIP3    H2 6880   6.105   2.833   4.596
 2292TIP3   OH2 6881   3.801   2.997   4.151
 2292TIP3    H1 6882   3.821   3.046   4.071
 2292TIP3    H2 6883   3.708   2.976   4.144
 2293TIP3   OH2 6884   4.096   1.328   2.203
 2293TIP3    H1 6885   4.181   1.286   2.193
 2293TIP3    H2 6886   4.037   1.258   2.230
 2294TIP3   OH2 6887   1.025   2.962   4.517
 2294TIP3    H1 6888   0.941   3.007   4.506
 2294TIP3    H2 6889   1.055   2.991   4.603
 2295TIP3   OH2 6890   5.402   2.419   2.439
 2295TIP3    H1 6891   5.494   2.410   2.416
 2295TIP3    H2 6892   5.373   2.496   2.389
 2296TIP3   OH2 6893   0.660   4.654   4.448
 2296TIP3    H1 6894   0.686   4.715   4.517
 2296TIP3    H2 6895   0.645   4.571   4.493
 2297TIP3   OH2 6896  -0.003   3.190   1.405
 2297TIP3    H1 6897  -0.033   3.205   1.494
 2297TIP3    H2 6898  -0.061   3.244   1.351
 2298TIP3   OH2 6899   2.753   3.085   2.265
 2298TIP3    H1 6900   2.658   3.095   2.259
 2298TIP3    H2 6901   2.773   3.015   2.202
 2299TIP3   OH2 6902   5.287   0.954   2.999
 2299TIP3    H1 6903   5.241   0.957   2.915
 2299TIP3    H2 6904   5.265   1.038   3.041
 2300TIP3   OH2 6905   3.885   5.910   0.265
 2300TIP3    H1 6906   3.823   5.837   0.273
 2300TIP3    H2 6907   3.952   5.879   0.205
 2301TIP3   OH2 6908   2.366   0.145   0.956
 2301TIP3    H1 6909   2.273   0.123   0.963
 2301TIP3    H2 6910   2.398   0.092   0.882
 2302TIP3   OH2 6911   3.945   4.830   3.945
 2302TIP3    H1 6912   4.024   4.805   3.897
 2302TIP3    H2 6913   3.883   4.854   3.877
 2303TIP3   OH2 6914   2.223   4.238   4.850
 2303TIP3    H1 6915   2.236   4.300   4.778
 2303TIP3    H2 6916   2.131   4.213   4.844
 2304TIP3   OH2 6917   6.100   2.677   3.927
 2304TIP3    H1 6918   6.012   2.697   3.959
 2304TIP3    H2 6919   6.134   2.760   3.895
 2305TIP3   OH2 6920   3.306   5.518   1.426
 2305TIP3    H1 6921   3.284   5.590   1.367
 2305TIP3    H2 6922   3.401   5.520   1.432
 2306TIP3   OH2 6923   0.458   4.748   3.252
 2306TIP3    H1 6924   0.424   4.793   3.174
 2306TIP3    H2 6925   0.426   4.658   3.242
 2307TIP3   OH2 6926   1.355   1.819   3.396
 2307TIP3    H1 6927   1.277   1.827   3.451
 2307TIP3    H2 6928   1.355   1.728   3.368
 2308TIP3   OH2 6929   3.550   1.693   0.140
 2308TIP3    H1 6930   3.455   1.680   0.145
 2308TIP3    H2 6931   3.564   1.730   0.053
 2309TIP3   OH2 6932   3.408   3.847   1.011
 2309TIP3    H1 6933   3.496   3.884   1.011
 2309TIP3    H2 6934   3.417   3.764   0.964
 2310TIP3   OH2 6935   2.144   5.277   3.525
 2310TIP3    H1 6936   2.235   5.249   3.537
 2310TIP3    H2 6937   2.147   5.335   3.449
 2311TIP3   OH2 6938   0.434   4.693   2.433
 2311TIP3    H1 6939   0.461   4.644   2.511
 2311TIP3    H2 6940   0.500   4.670   2.367
 2312TIP3   OH2 6941   4.896   4.142   4.137
 2312TIP3    H1 6942   4.929   4.146   4.047
 2312TIP3    H2 6943   4.802   4.129   4.129
 2313TIP3   OH2 6944   4.101   1.276   1.186
 2313TIP3    H1 6945   4.165   1.225   1.235
 2313TIP3    H2 6946   4.029   1.215   1.170
 2314TIP3   OH2 6947   2.557   5.020   1.350
 2314TIP3    H1 6948   2.582   5.034   1.259
 2314TIP3    H2 6949   2.574   5.104   1.393
 2315TIP3   OH2 6950   5.560   4.232   4.836
 2315TIP3    H1 6951   5.575   4.152   4.886
 2315TIP3    H2 6952   5.617   4.223   4.759
 2316TIP3   OH2 6953   2.917   5.343   2.717
 2316TIP3    H1 6954   3.004   5.375   2.692
 2316TIP3    H2 6955   2.927   5.249   2.727
 2317TIP3   OH2 6956   5.796   0.040   2.643
 2317TIP3    H1 6957   5.793   0.042   2.739
 2317TIP3    H2 6958   5.751   0.119   2.615
 2318TIP3   OH2 6959   0.866   2.714   3.579
 2318TIP3    H1 6960   0.883   2.733   3.672
 2318TIP3    H2 6961   0.928   2.771   3.532
 2319TIP3   OH2 6962   1.344   3.678   2.622
 2319TIP3    H1 6963   1.336   3.637   2.536
 2319TIP3    H2 6964   1.287   3.755   2.618
 2320TIP3   OH2 6965   4.469   5.368   2.933
 2320TIP3    H1 6966   4.499   5.284   2.898
 2320TIP3    H2 6967   4.533   5.432   2.902
 2321TIP3   OH2 6968   0.030   1.901   0.229
 2321TIP3    H1 6969   0.030   1.810   0.256
 2321TIP3    H2 6970   0.118   1.917   0.197
 2322TIP3   OH2 6971   0.563   4.477   4.634
 2322TIP3    H1 6972   0.507   4.521   4.697
 2322TIP3    H2 6973   0.536   4.385   4.638
 2323TIP3   OH2 6974   4.634   1.334   1.785
 2323TIP3    H1 6975   4.683   1.252   1.789
 2323TIP3    H2 6976   4.656   1.372   1.700
 2324TIP3   OH2 6977   1.100   3.618   5.020
 2324TIP3    H1 6978   1.090   3.700   5.068
 2324TIP3    H2 6979   1.059   3.635   4.935
 2325TIP3   OH2 6980   6.228   4.495   2.322
 2325TIP3    H1 6981   6.302   4.555   2.322
 2325TIP3    H2 6982   6.159   4.541   2.275
 2326TIP3   OH2 6983   2.740   0.637   1.190
 2326TIP3    H1 6984   2.686   0.702   1.145
 2326TIP3    H2 6985   2.680   0.592   1.249
 2327TIP3   OH2 6986   5.864   2.618   3.254
 2327TIP3    H1 6987   5.794   2.661   3.303
 2327TIP3    H2 6988   5.824   2.597   3.169
 2328TIP3   OH2 6989   5.151   4.193   2.873
 2328TIP3    H1 6990   5.240   4.176   2.844
 2328TIP3    H2 6991   5.098   4.124   2.831
 2329TIP3   OH2 6992   3.606  -0.013   2.518
 2329TIP3    H1 6993   3.560   0.054   2.568
 2329TIP3    H2 6994   3.697  -0.005   2.546
 2330TIP3   OH2 6995   4.317   5.008   0.114
 2330TIP3    H1 6996   4.372   5.064   0.169
 2330TIP3    H2 6997   4.231   5.008   0.157
 2331TIP3   OH2 6998   3.093   4.652   5.009
 2331TIP3    H1 6999   3.136   4.620   5.088
 2331TIP3    H2 7000   3.149   4.620   4.938
 2332TIP3   OH2 7001   1.675   4.999   0.614
 2332TIP3    H1 7002   1.661   5.091   0.589
 2332TIP3    H2 7003   1.703   4.956   0.533
 2333TIP3   OH2 7004   3.476   5.028   1.694
 2333TIP3    H1 7005   3.501   4.940   1.667
 2333TIP3    H2 7006   3.557   5.079   1.685
 2334TIP3   OH2 7007   0.357   5.370   0.640
 2334TIP3    H1 7008   0.314   5.436   0.587
 2334TIP3    H2 7009   0.409   5.420   0.703
 2335TIP3   OH2 7010   4.631   0.036   3.109
 2335TIP3    H1 7011   4.560  -0.017   3.073
 2335TIP3    H2 7012   4.656   0.094   3.037
 2336TIP3   OH2 7013   1.289   1.554   3.612
 2336TIP3    H1 7014   1.332   1.582   3.530
 2336TIP3    H2 7015   1.355   1.500   3.655
 2337TIP3   OH2 7016   5.344   4.069   0.418
 2337TIP3    H1 7017   5.422   4.014   0.413
 2337TIP3    H2 7018   5.281   4.017   0.468
 2338TIP3   OH2 7019   4.259   3.057   5.195
 2338TIP3    H1 7020   4.232   3.029   5.107
 2338TIP3    H2 7021   4.312   2.985   5.228
 2339TIP3   OH2 7022   3.323   1.125   4.451
 2339TIP3    H1 7023   3.398   1.071   4.474
 2339TIP3    H2 7024   3.339   1.208   4.494
 2340TIP3   OH2 7025   5.109   1.363   1.920
 2340TIP3    H1 7026   5.166   1.293   1.951
 2340TIP3    H2 7027   5.134   1.439   1.973
 2341TIP3   OH2 7028   3.089   1.006   4.386
 2341TIP3    H1 7029   3.154   1.039   4.447
 2341TIP3    H2 7030   3.106   0.912   4.382
 2342TIP3   OH2 7031   1.591   2.947   2.579
 2342TIP3    H1 7032   1.521   3.011   2.595
 2342TIP3    H2 7033   1.603   2.947   2.484
 2343TIP3   OH2 7034   4.970   2.000   4.645
 2343TIP3    H1 7035   5.040   2.060   4.670
 2343TIP3    H2 7036   4.982   1.987   4.551
 2344TIP3   OH2 7037   3.935   3.569   5.128
 2344TIP3    H1 7038   3.942   3.635   5.060
 2344TIP3    H2 7039   3.879   3.501   5.090
 2345TIP3   OH2 7040   1.258   3.648   2.316
 2345TIP3    H1 7041   1.203   3.708   2.365
 2345TIP3    H2 7042   1.198   3.586   2.277
 2346TIP3   OH2 7043   5.532   5.198   4.781
 2346TIP3    H1 7044   5.486   5.145   4.847
 2346TIP3    H2 7045   5.474   5.272   4.766
 2347TIP3   OH2 7046   5.647   3.608   1.828
 2347TIP3    H1 7047   5.613   3.565   1.750
 2347TIP3    H2 7048   5.740   3.619   1.810
 2348TIP3   OH2 7049   3.313   5.429   0.311
 2348TIP3    H1 7050   3.400   5.459   0.338
 2348TIP3    H2 7051   3.327   5.389   0.225
 2349TIP3   OH2 7052   3.568   0.152   1.886
 2349TIP3    H1 7053   3.516   0.216   1.934
 2349TIP3    H2 7054   3.527   0.068   1.906
 2350TIP3   OH2 7055   3.492   0.368   0.068
 2350TIP3    H1 7056   3.450   0.454   0.062
 2350TIP3    H2 7057   3.442   0.322   0.136
 2351TIP3   OH2 7058   4.824   1.840   3.399
 2351TIP3    H1 7059   4.911   1.860   3.433
 2351TIP3    H2 7060   4.798   1.919   3.351
 2352TIP3   OH2 7061   3.014   5.718   2.033
 2352TIP3    H1 7062   2.993   5.630   2.064
 2352TIP3    H2 7063   3.104   5.710   1.999
 2353TIP3   OH2 7064   2.248   0.696   0.524
 2353TIP3    H1 7065   2.258   0.601   0.520
 2353TIP3    H2 7066   2.240   0.724   0.433
 2354TIP3   OH2 7067   4.569   5.830   0.410
 2354TIP3    H1 7068   4.587   5.924   0.406
 2354TIP3    H2 7069   4.612   5.800   0.490
 2355TIP3   OH2 7070   5.475   1.971   1.885
 2355TIP3    H1 7071   5.425   2.037   1.836
 2355TIP3    H2 7072   5.462   1.994   1.977
 2356TIP3   OH2 7073   4.007   1.570   4.244
 2356TIP3    H1 7074   4.047   1.508   4.304
 2356TIP3    H2 7075   3.940   1.614   4.296
 2357TIP3   OH2 7076   4.580   5.387   3.741
 2357TIP3    H1 7077   4.577   5.330   3.664
 2357TIP3    H2 7078   4.532   5.466   3.714
 2358TIP3   OH2 7079   4.956   4.154   2.188
 2358TIP3    H1 7080   4.941   4.190   2.276
 2358TIP3    H2 7081   4.873   4.166   2.143
 2359TIP3   OH2 7082   5.997   0.299   0.789
 2359TIP3    H1 7083   6.077   0.274   0.835
 2359TIP3    H2 7084   6.012   0.391   0.763
 2360TIP3   OH2 7085   2.788   0.465   4.162
 2360TIP3    H1 7086   2.819   0.460   4.252
 2360TIP3    H2 7087   2.866   0.450   4.109
 2361TIP3   OH2 7088   1.727   2.561   2.481
 2361TIP3    H1 7089   1.688   2.623   2.542
 2361TIP3    H2 7090   1.819   2.556   2.508
 2362TIP3   OH2 7091   5.912   5.488   3.657
 2362TIP3    H1 7092   5.933   5.461   3.567
 2362TIP3    H2 7093   5.995   5.483   3.704
 2363TIP3   OH2 7094   2.887   5.858   0.780
 2363TIP3    H1 7095   2.799   5.844   0.745
 2363TIP3    H2 7096   2.876   5.928   0.844
 2364TIP3   OH2 7097   0.046   5.139   3.834
 2364TIP3    H1 7098  -0.038   5.171   3.800
 2364TIP3    H2 7099   0.026   5.113   3.924
 2365TIP3   OH2 7100   0.157   2.209   4.501
 2365TIP3    H1 7101   0.131   2.239   4.414
 2365TIP3    H2 7102   0.244   2.173   4.489
 2366TIP3   OH2 7103   5.049   5.776   4.937
 2366TIP3    H1 7104   5.041   5.833   4.861
 2366TIP3    H2 7105   5.061   5.688   4.900
 2367TIP3   OH2 7106   4.561   3.666   0.853
 2367TIP3    H1 7107   4.537   3.735   0.915
 2367TIP3    H2 7108   4.600   3.598   0.908
 2368TIP3   OH2 7109   1.178   1.321   2.129
 2368TIP3    H1 7110   1.134   1.312   2.044
 2368TIP3    H2 7111   1.122   1.382   2.177
 2369TIP3   OH2 7112   2.740   0.983   2.701
 2369TIP3    H1 7113   2.691   0.985   2.783
 2369TIP3    H2 7114   2.723   1.068   2.661
 2370TIP3   OH2 7115   0.899   3.662   2.052
 2370TIP3    H1 7116   0.859   3.575   2.053
 2370TIP3    H2 7117   0.989   3.646   2.023
 2371TIP3   OH2 7118   5.824   1.452   3.122
 2371TIP3    H1 7119   5.813   1.546   3.111
 2371TIP3    H2 7120   5.918   1.437   3.113
 2372TIP3   OH2 7121   5.135   2.280   2.095
 2372TIP3    H1 7122   5.083   2.204   2.070
 2372TIP3    H2 7123   5.081   2.326   2.159
 2373TIP3   OH2 7124   3.642   0.576   3.535
 2373TIP3    H1 7125   3.664   0.641   3.602
 2373TIP3    H2 7126   3.691   0.603   3.458
 2374TIP3   OH2 7127   0.465   1.861   4.764
 2374TIP3    H1 7128   0.465   1.944   4.812
 2374TIP3    H2 7129   0.390   1.813   4.799
 2375TIP3   OH2 7130   2.370   1.838   3.646
 2375TIP3    H1 7131   2.355   1.877   3.560
 2375TIP3    H2 7132   2.283   1.832   3.685
 2376TIP3   OH2 7133   3.232   1.093   0.732
 2376TIP3    H1 7134   3.143   1.074   0.701
 2376TIP3    H2 7135   3.289   1.050   0.668
 2377TIP3   OH2 7136   3.429   5.382   2.680
 2377TIP3    H1 7137   3.516   5.366   2.641
 2377TIP3    H2 7138   3.432   5.336   2.764
 2378TIP3   OH2 7139   3.559   0.597   3.841
 2378TIP3    H1 7140   3.471   0.560   3.847
 2378TIP3    H2 7141   3.545   0.692   3.842
 2379TIP3   OH2 7142   4.799   2.361   3.390
 2379TIP3    H1 7143   4.879   2.348   3.339
 2379TIP3    H2 7144   4.738   2.297   3.355
 2380TIP3   OH2 7145   4.805   2.389   3.847
 2380TIP3    H1 7146   4.744   2.320   3.820
 2380TIP3    H2 7147   4.748   2.458   3.882
 2381TIP3   OH2 7148   1.580   0.130   5.150
 2381TIP3    H1 7149   1.561   0.211   5.197
 2381TIP3    H2 7150   1.660   0.148   5.102
 2382TIP3   OH2 7151   0.403   3.875   5.166
 2382TIP3    H1 7152   0.462   3.921   5.107
 2382TIP3    H2 7153   0.456   3.806   5.204
 2383TIP3   OH2 7154   2.670   3.776   1.201
 2383TIP3    H1 7155   2.732   3.812   1.264
 2383TIP3    H2 7156   2.618   3.852   1.173
 2384TIP3   OH2 7157   6.186   1.082   3.566
 2384TIP3    H1 7158   6.205   1.138   3.642
 2384TIP3    H2 7159   6.130   1.013   3.600
 2385TIP3   OH2 7160   0.794   0.183   4.022
 2385TIP3    H1 7161   0.856   0.120   3.986
 2385TIP3    H2 7162   0.718   0.131   4.047
 2386TIP3   OH2 7163   3.995   0.439   4.324
 2386TIP3    H1 7164   3.914   0.477   4.291
 2386TIP3    H2 7165   3.978   0.420   4.416
 2387TIP3   OH2 7166   4.174   1.736   4.089
 2387TIP3    H1 7167   4.098   1.707   4.140
 2387TIP3    H2 7168   4.212   1.807   4.141
 2388TIP3   OH2 7169   5.793   4.657   0.609
 2388TIP3    H1 7170   5.828   4.584   0.557
 2388TIP3    H2 7171   5.737   4.705   0.548
 2389TIP3   OH2 7172   2.152   0.970   4.055
 2389TIP3    H1 7173   2.189   1.050   4.019
 2389TIP3    H2 7174   2.127   0.992   4.145
 2390TIP3   OH2 7175   3.434   5.876   5.023
 2390TIP3    H1 7176   3.357   5.843   4.977
 2390TIP3    H2 7177   3.496   5.897   4.953
 2391TIP3   OH2 7178   4.399   5.398   3.959
 2391TIP3    H1 7179   4.439   5.396   3.873
 2391TIP3    H2 7180   4.455   5.342   4.013
 2392TIP3   OH2 7181   4.579   5.749   5.199
 2392TIP3    H1 7182   4.607   5.683   5.136
 2392TIP3    H2 7183   4.549   5.822   5.145
 2393TIP3   OH2 7184   0.839   4.887   0.506
 2393TIP3    H1 7185   0.791   4.964   0.536
 2393TIP3    H2 7186   0.893   4.919   0.434
 2394TIP3   OH2 7187   5.431   1.667   2.123
 2394TIP3    H1 7188   5.432   1.614   2.044
 2394TIP3    H2 7189   5.352   1.721   2.116
 2395TIP3   OH2 7190   0.253   1.302   2.876
 2395TIP3    H1 7191   0.222   1.255   2.954
 2395TIP3    H2 7192   0.291   1.382   2.910
 2396TIP3   OH2 7193   2.792   2.572   3.586
 2396TIP3    H1 7194   2.865   2.525   3.544
 2396TIP3    H2 7195   2.725   2.577   3.519
 2397TIP3   OH2 7196   1.454   3.518   1.285
 2397TIP3    H1 7197   1.445   3.514   1.190
 2397TIP3    H2 7198   1.397   3.449   1.317
 2398TIP3   OH2 7199   5.285   2.517   4.172
 2398TIP3    H1 7200   5.325   2.582   4.229
 2398TIP3    H2 7201   5.258   2.566   4.094
 2399TIP3   OH2 7202   4.382   1.120   4.335
 2399TIP3    H1 7203   4.373   1.211   4.363
 2399TIP3    H2 7204   4.304   1.077   4.367
 2400TIP3   OH2 7205   0.587   2.898   2.905
 2400TIP3    H1 7206   0.556   2.816   2.866
 2400TIP3    H2 7207   0.620   2.949   2.831
 2401TIP3   OH2 7208   1.653   2.463   5.093
 2401TIP3    H1 7209   1.747   2.473   5.108
 2401TIP3    H2 7210   1.647   2.408   5.016
 2402TIP3   OH2 7211   6.188   0.540   2.273
 2402TIP3    H1 7212   6.220   0.451   2.288
 2402TIP3    H2 7213   6.172   0.544   2.179
 2403TIP3   OH2 7214   3.637   4.932   4.855
 2403TIP3    H1 7215   3.586   5.012   4.844
 2403TIP3    H2 7216   3.724   4.962   4.878
 2404TIP3   OH2 7217   0.096   0.839   0.523
 2404TIP3    H1 7218   0.123   0.809   0.436
 2404TIP3    H2 7219   0.040   0.914   0.506
 2405TIP3   OH2 7220   3.006   3.442   0.973
 2405TIP3    H1 7221   2.965   3.529   0.980
 2405TIP3    H2 7222   2.933   3.381   0.981
 2406TIP3   OH2 7223   0.295   0.505   0.950
 2406TIP3    H1 7224   0.389   0.521   0.951
 2406TIP3    H2 7225   0.262   0.556   0.876
 2407TIP3   OH2 7226   4.182   4.372   5.123
 2407TIP3    H1 7227   4.199   4.416   5.040
 2407TIP3    H2 7228   4.152   4.441   5.181
 2408TIP3   OH2 7229   2.939   0.990   2.946
 2408TIP3    H1 7230   2.889   0.980   2.864
 2408TIP3    H2 7231   2.914   1.077   2.978
 2409TIP3   OH2 7232   6.267   5.838   4.993
 2409TIP3    H1 7233   6.315   5.774   4.940
 2409TIP3    H2 7234   6.328   5.861   5.063
 2410TIP3   OH2 7235   0.355   2.533   1.197
 2410TIP3    H1 7236   0.364   2.496   1.285
 2410TIP3    H2 7237   0.341   2.626   1.212
 2411TIP3   OH2 7238   5.974   2.611   2.240
 2411TIP3    H1 7239   6.016   2.645   2.161
 2411TIP3    H2 7240   6.037   2.548   2.275
 2412TIP3   OH2 7241   1.102   2.714   1.093
 2412TIP3    H1 7242   1.037   2.705   1.162
 2412TIP3    H2 7243   1.052   2.702   1.012
 2413TIP3   OH2 7244   1.594   3.608   2.891
 2413TIP3    H1 7245   1.635   3.584   2.808
 2413TIP3    H2 7246   1.554   3.694   2.874
 2414TIP3   OH2 7247   0.949   5.174   2.811
 2414TIP3    H1 7248   0.868   5.143   2.771
 2414TIP3    H2 7249   1.007   5.192   2.737
 2415TIP3   OH2 7250   3.211   3.092   0.800
 2415TIP3    H1 7251   3.295   3.064   0.765
 2415TIP3    H2 7252   3.194   3.176   0.756
 2416TIP3   OH2 7253   4.111   2.122   5.117
 2416TIP3    H1 7254   4.052   2.153   5.187
 2416TIP3    H2 7255   4.171   2.062   5.161
 2417TIP3   OH2 7256   2.346   4.834   4.571
 2417TIP3    H1 7257   2.365   4.819   4.663
 2417TIP3    H2 7258   2.357   4.748   4.530
 2418TIP3   OH2 7259   1.513   4.230   1.016
 2418TIP3    H1 7260   1.440   4.168   1.014
 2418TIP3    H2 7261   1.527   4.248   1.109
 2419TIP3   OH2 7262   4.832   2.248   1.671
 2419TIP3    H1 7263   4.759   2.307   1.694
 2419TIP3    H2 7264   4.890   2.302   1.617
 2420TIP3   OH2 7265   3.626   1.554   4.859
 2420TIP3    H1 7266   3.582   1.475   4.890
 2420TIP3    H2 7267   3.573   1.626   4.895
 2421TIP3   OH2 7268   3.869   1.029   0.813
 2421TIP3    H1 7269   3.944   1.086   0.794
 2421TIP3    H2 7270   3.812   1.084   0.868
 2422TIP3   OH2 7271   4.795   2.068   3.212
 2422TIP3    H1 7272   4.878   2.036   3.175
 2422TIP3    H2 7273   4.800   2.163   3.202
 2423TIP3   OH2 7274   2.447   2.450   2.766
 2423TIP3    H1 7275   2.537   2.419   2.754
 2423TIP3    H2 7276   2.395   2.371   2.780
 2424TIP3   OH2 7277   3.217   2.581   2.577
 2424TIP3    H1 7278   3.278   2.533   2.521
 2424TIP3    H2 7279   3.258   2.579   2.663
 2425TIP3   OH2 7280   3.595   0.367   1.562
 2425TIP3    H1 7281   3.521   0.307   1.574
 2425TIP3    H2 7282   3.666   0.327   1.613
 2426TIP3   OH2 7283   2.238   3.475   3.700
 2426TIP3    H1 7284   2.240   3.435   3.613
 2426TIP3    H2 7285   2.295   3.551   3.693
 2427TIP3   OH2 7286   5.934   4.613   2.846
 2427TIP3    H1 7287   5.995   4.541   2.832
 2427TIP3    H2 7288   5.853   4.585   2.803
 2428TIP3   OH2 7289   4.961   4.507   1.104
 2428TIP3    H1 7290   4.973   4.431   1.046
 2428TIP3    H2 7291   4.991   4.581   1.051
 2429TIP3   OH2 7292   2.578   3.095   4.151
 2429TIP3    H1 7293   2.668   3.071   4.130
 2429TIP3    H2 7294   2.525   3.037   4.095
 2430TIP3   OH2 7295   4.981   2.824   4.715
 2430TIP3    H1 7296   4.893   2.859   4.708
 2430TIP3    H2 7297   5.004   2.798   4.625
 2431TIP3   OH2 7298   1.251   4.493   4.589
 2431TIP3    H1 7299   1.335   4.527   4.557
 2431TIP3    H2 7300   1.269   4.467   4.680
 2432TIP3   OH2 7301   4.902   5.273   0.087
 2432TIP3    H1 7302   4.874   5.265  -0.004
 2432TIP3    H2 7303   4.956   5.352   0.089
 2433TIP3   OH2 7304   1.532   4.642   1.420
 2433TIP3    H1 7305   1.595   4.622   1.350
 2433TIP3    H2 7306   1.471   4.569   1.418
 2434TIP3   OH2 7307   3.312   1.693   4.079
 2434TIP3    H1 7308   3.235   1.751   4.087
 2434TIP3    H2 7309   3.344   1.709   3.991
 2435TIP3   OH2 7310   0.701   2.233   1.634
 2435TIP3    H1 7311   0.683   2.139   1.641
 2435TIP3    H2 7312   0.700   2.265   1.724
 2436TIP3   OH2 7313   0.403   1.962   3.472
 2436TIP3    H1 7314   0.351   2.036   3.501
 2436TIP3    H2 7315   0.456   1.939   3.549
 2437TIP3   OH2 7316   4.700   0.688   5.007
 2437TIP3    H1 7317   4.742   0.611   5.046
 2437TIP3    H2 7318   4.760   0.716   4.938
 2438TIP3   OH2 7319   5.463   2.025   0.603
 2438TIP3    H1 7320   5.415   2.069   0.533
 2438TIP3    H2 7321   5.547   2.070   0.606
 2439TIP3   OH2 7322   3.329   3.544   4.806
 2439TIP3    H1 7323   3.287   3.474   4.856
 2439TIP3    H2 7324   3.337   3.510   4.717
 2440TIP3   OH2 7325   4.441   0.181   4.409
 2440TIP3    H1 7326   4.454   0.156   4.500
 2440TIP3    H2 7327   4.500   0.124   4.359
 2441TIP3   OH2 7328   1.504   4.091   2.947
 2441TIP3    H1 7329   1.564   4.162   2.924
 2441TIP3    H2 7330   1.529   4.019   2.889
 2442TIP3   OH2 7331   1.685   2.496   1.588
 2442TIP3    H1 7332   1.678   2.586   1.555
 2442TIP3    H2 7333   1.689   2.442   1.509
 2443TIP3   OH2 7334   0.031   2.055   2.046
 2443TIP3    H1 7335   0.028   2.019   2.135
 2443TIP3    H2 7336  -0.018   1.992   1.993
 2444TIP3   OH2 7337   4.832   2.705   3.183
 2444TIP3    H1 7338   4.753   2.654   3.204
 2444TIP3    H2 7339   4.901   2.664   3.235
 2445TIP3   OH2 7340   0.596   0.952   1.420
 2445TIP3    H1 7341   0.505   0.934   1.396
 2445TIP3    H2 7342   0.600   1.047   1.429
 2446TIP3   OH2 7343   3.204   2.777   2.101
 2446TIP3    H1 7344   3.140   2.841   2.070
 2446TIP3    H2 7345   3.197   2.781   2.197
 2447TIP3   OH2 7346   6.133   0.671   4.910
 2447TIP3    H1 7347   6.076   0.745   4.889
 2447TIP3    H2 7348   6.152   0.631   4.825
 2448TIP3   OH2 7349   2.688   5.561   0.980
 2448TIP3    H1 7350   2.642   5.533   1.060
 2448TIP3    H2 7351   2.781   5.547   1.000
 2449TIP3   OH2 7352   6.296   4.994   0.571
 2449TIP3    H1 7353   6.220   5.050   0.553
 2449TIP3    H2 7354   6.336   5.033   0.649
 2450TIP3   OH2 7355   5.423   0.305   4.022
 2450TIP3    H1 7356   5.422   0.395   4.054
 2450TIP3    H2 7357   5.408   0.252   4.101
 2451TIP3   OH2 7358   6.080   2.172   0.432
 2451TIP3    H1 7359   6.157   2.159   0.488
 2451TIP3    H2 7360   6.074   2.092   0.381
 2452TIP3   OH2 7361   2.672   0.907   4.341
 2452TIP3    H1 7362   2.734   0.871   4.278
 2452TIP3    H2 7363   2.708   0.883   4.427
 2453TIP3   OH2 7364   3.808   0.112   3.610
 2453TIP3    H1 7365   3.893   0.090   3.647
 2453TIP3    H2 7366   3.782   0.192   3.657
 2454TIP3   OH2 7367   1.763   3.846   4.960
 2454TIP3    H1 7368   1.748   3.771   4.901
 2454TIP3    H2 7369   1.858   3.853   4.966
 2455TIP3   OH2 7370   2.693   3.569   2.849
 2455TIP3    H1 7371   2.629   3.637   2.870
 2455TIP3    H2 7372   2.650   3.515   2.783
 2456TIP3   OH2 7373   4.444   2.966   4.073
 2456TIP3    H1 7374   4.364   2.923   4.044
 2456TIP3    H2 7375   4.515   2.910   4.042
 2457TIP3   OH2 7376   0.490   5.131   2.419
 2457TIP3    H1 7377   0.566   5.079   2.394
 2457TIP3    H2 7378   0.428   5.068   2.455
 2458TIP3   OH2 7379   2.995   0.179   3.554
 2458TIP3    H1 7380   3.062   0.181   3.623
 2458TIP3    H2 7381   3.042   0.151   3.476
 2459TIP3   OH2 7382   2.579   1.265   0.870
 2459TIP3    H1 7383   2.620   1.345   0.901
 2459TIP3    H2 7384   2.652   1.204   0.856
 2460TIP3   OH2 7385   3.542   3.599   2.059
 2460TIP3    H1 7386   3.517   3.687   2.089
 2460TIP3    H2 7387   3.629   3.611   2.020
 2461TIP3   OH2 7388   5.799   0.062   4.606
 2461TIP3    H1 7389   5.824   0.148   4.640
 2461TIP3    H2 7390   5.843   0.055   4.522
 2462TIP3   OH2 7391   1.598   1.811   4.240
 2462TIP3    H1 7392   1.665   1.777   4.298
 2462TIP3    H2 7393   1.535   1.854   4.298
 2463TIP3   OH2 7394   2.621   1.049   5.041
 2463TIP3    H1 7395   2.712   1.036   5.013
 2463TIP3    H2 7396   2.585   0.961   5.047
 2464TIP3   OH2 7397   0.823   2.976   0.982
 2464TIP3    H1 7398   0.833   2.904   0.920
 2464TIP3    H2 7399   0.758   3.034   0.941
 2465TIP3   OH2 7400   1.169   1.620   4.941
 2465TIP3    H1 7401   1.111   1.558   4.984
 2465TIP3    H2 7402   1.239   1.635   5.004
 2466TIP3   OH2 7403   4.941   1.226   3.978
 2466TIP3    H1 7404   4.905   1.290   3.917
 2466TIP3    H2 7405   4.969   1.153   3.922
 2467TIP3   OH2 7406   0.052   4.877   4.206
 2467TIP3    H1 7407   0.137   4.849   4.239
 2467TIP3    H2 7408  -0.012   4.831   4.261
 2468TIP3   OH2 7409   1.735   4.359   3.898
 2468TIP3    H1 7410   1.695   4.432   3.946
 2468TIP3    H2 7411   1.739   4.390   3.807
 2469TIP3   OH2 7412   1.601   4.563   2.949
 2469TIP3    H1 7413   1.512   4.570   2.982
 2469TIP3    H2 7414   1.639   4.650   2.964
 2470TIP3   OH2 7415   1.366   2.591   1.760
 2470TIP3    H1 7416   1.370   2.539   1.840
 2470TIP3    H2 7417   1.456   2.590   1.727
 2471TIP3   OH2 7418   2.614   1.663   3.187
 2471TIP3    H1 7419   2.519   1.654   3.202
 2471TIP3    H2 7420   2.642   1.728   3.252
 2472TIP3   OH2 7421   4.028   0.641   2.384
 2472TIP3    H1 7422   4.059   0.613   2.298
 2472TIP3    H2 7423   4.016   0.735   2.376
 2473TIP3   OH2 7424   2.495   3.711   2.137
 2473TIP3    H1 7425   2.559   3.669   2.194
 2473TIP3    H2 7426   2.528   3.800   2.125
 2474TIP3   OH2 7427   3.240   2.363   3.920
 2474TIP3    H1 7428   3.312   2.377   3.981
 2474TIP3    H2 7429   3.243   2.439   3.862
 2475TIP3   OH2 7430   5.603   2.463   1.657
 2475TIP3    H1 7431   5.550   2.486   1.733
 2475TIP3    H2 7432   5.609   2.367   1.661
 2476TIP3   OH2 7433   1.891   5.337   2.485
 2476TIP3    H1 7434   1.858   5.268   2.428
 2476TIP3    H2 7435   1.986   5.333   2.476
 2477TIP3   OH2 7436   4.536   2.090   3.260
 2477TIP3    H1 7437   4.631   2.080   3.247
 2477TIP3    H2 7438   4.505   2.131   3.180
 2478TIP3   OH2 7439   2.453   2.916   1.169
 2478TIP3    H1 7440   2.392   2.937   1.239
 2478TIP3    H2 7441   2.403   2.928   1.088
 2479TIP3   OH2 7442   5.765   1.486   2.556
 2479TIP3    H1 7443   5.707   1.443   2.494
 2479TIP3    H2 7444   5.746   1.444   2.640
 2480TIP3   OH2 7445   5.309   2.967   3.511
 2480TIP3    H1 7446   5.334   3.020   3.435
 2480TIP3    H2 7447   5.367   2.996   3.581
 2481TIP3   OH2 7448   0.402   0.352   0.623
 2481TIP3    H1 7449   0.451   0.406   0.561
 2481TIP3    H2 7450   0.333   0.409   0.656
 2482TIP3   OH2 7451   5.167   2.721   3.523
 2482TIP3    H1 7452   5.083   2.763   3.542
 2482TIP3    H2 7453   5.232   2.791   3.533
 2483TIP3   OH2 7454   4.943   2.584   0.165
 2483TIP3    H1 7455   5.038   2.584   0.155
 2483TIP3    H2 7456   4.927   2.648   0.234
 2484TIP3   OH2 7457   3.583   5.919  -0.003
 2484TIP3    H1 7458   3.639   5.850  -0.040
 2484TIP3    H2 7459   3.506   5.872   0.029
 2485TIP3   OH2 7460   1.063   2.575   2.948
 2485TIP3    H1 7461   1.090   2.485   2.967
 2485TIP3    H2 7462   0.968   2.574   2.958
 2486TIP3   OH2 7463   2.562   2.671   1.626
 2486TIP3    H1 7464   2.590   2.752   1.585
 2486TIP3    H2 7465   2.595   2.677   1.716
 2487TIP3   OH2 7466   3.589   0.298   3.066
 2487TIP3    H1 7467   3.549   0.225   3.114
 2487TIP3    H2 7468   3.563   0.283   2.975
 2488TIP3   OH2 7469   3.372   5.179   3.179
 2488TIP3    H1 7470   3.365   5.268   3.214
 2488TIP3    H2 7471   3.331   5.124   3.245
 2489TIP3   OH2 7472   4.506   1.775   3.202
 2489TIP3    H1 7473   4.440   1.773   3.271
 2489TIP3    H2 7474   4.560   1.852   3.222
 2490TIP3   OH2 7475   6.127   3.358   4.807
 2490TIP3    H1 7476   6.091   3.355   4.895
 2490TIP3    H2 7477   6.052   3.340   4.750
 2491TIP3   OH2 7478   1.582   2.410   4.052
 2491TIP3    H1 7479   1.634   2.442   3.978
 2491TIP3    H2 7480   1.572   2.316   4.035
 2492TIP3   OH2 7481   4.846   1.488   2.040
 2492TIP3    H1 7482   4.791   1.473   1.963
 2492TIP3    H2 7483   4.910   1.554   2.011
 2493TIP3   OH2 7484   2.976   3.314   3.854
 2493TIP3    H1 7485   2.917   3.269   3.793
 2493TIP3    H2 7486   3.049   3.252   3.867
 2494TIP3   OH2 7487   2.454   4.307   1.649
 2494TIP3    H1 7488   2.412   4.232   1.608
 2494TIP3    H2 7489   2.546   4.281   1.659
 2495TIP3   OH2 7490   0.755   1.726   3.688
 2495TIP3    H1 7491   0.806   1.785   3.743
 2495TIP3    H2 7492   0.665   1.760   3.693
 2496TIP3   OH2 7493   0.747   2.978   0.604
 2496TIP3    H1 7494   0.676   2.985   0.668
 2496TIP3    H2 7495   0.703   2.967   0.520
 2497TIP3   OH2 7496   2.756   3.439   4.026
 2497TIP3    H1 7497   2.788   3.384   3.955
 2497TIP3    H2 7498   2.768   3.529   3.995
 2498TIP3   OH2 7499   1.339   2.207   1.157
 2498TIP3    H1 7500   1.372   2.295   1.137
 2498TIP3    H2 7501   1.377   2.151   1.089
 2499TIP3   OH2 7502   4.864   5.863   4.432
 2499TIP3    H1 7503   4.906   5.863   4.518
 2499TIP3    H2 7504   4.885   5.777   4.396
 2500TIP3   OH2 7505   1.888   4.782   2.426
 2500TIP3    H1 7506   1.804   4.789   2.381
 2500TIP3    H2 7507   1.945   4.736   2.365
 2501TIP3   OH2 7508   4.424   1.066   5.023
 2501TIP3    H1 7509   4.416   1.094   5.114
 2501TIP3    H2 7510   4.434   0.971   5.028
 2502TIP3   OH2 7511   2.420   3.181   4.930
 2502TIP3    H1 7512   2.486   3.161   4.996
 2502TIP3    H2 7513   2.338   3.188   4.979
 2503TIP3   OH2 7514   3.121   4.454   2.147
 2503TIP3    H1 7515   3.118   4.359   2.137
 2503TIP3    H2 7516   3.198   4.480   2.096
 2504TIP3   OH2 7517   5.427   0.555   1.900
 2504TIP3    H1 7518   5.395   0.644   1.917
 2504TIP3    H2 7519   5.351   0.499   1.913
 2505TIP3   OH2 7520   2.891   3.279   4.354
 2505TIP3    H1 7521   2.887   3.228   4.435
 2505TIP3    H2 7522   2.971   3.331   4.362
 2506TIP3   OH2 7523   1.732   4.690   3.324
 2506TIP3    H1 7524   1.756   4.752   3.392
 2506TIP3    H2 7525   1.683   4.743   3.260
 2507TIP3   OH2 7526   1.985   0.180   4.026
 2507TIP3    H1 7527   2.021   0.100   4.064
 2507TIP3    H2 7528   2.001   0.247   4.092
 2508TIP3   OH2 7529   5.288   4.668   1.591
 2508TIP3    H1 7530   5.203   4.710   1.606
 2508TIP3    H2 7531   5.332   4.673   1.676
 2509TIP3   OH2 7532   2.426   1.382   4.734
 2509TIP3    H1 7533   2.475   1.443   4.679
 2509TIP3    H2 7534   2.450   1.407   4.824
 2510TIP3   OH2 7535   3.466   4.610   1.244
 2510TIP3    H1 7536   3.484   4.688   1.295
 2510TIP3    H2 7537   3.540   4.552   1.261
 2511TIP3   OH2 7538   4.843   4.389   2.494
 2511TIP3    H1 7539   4.798   4.474   2.491
 2511TIP3    H2 7540   4.773   4.325   2.482
 2512TIP3   OH2 7541   2.975   5.176   4.017
 2512TIP3    H1 7542   2.909   5.189   4.085
 2512TIP3    H2 7543   3.009   5.088   4.033
 2513TIP3   OH2 7544   1.627   2.583   1.987
 2513TIP3    H1 7545   1.571   2.608   2.061
 2513TIP3    H2 7546   1.654   2.667   1.948
 2514TIP3   OH2 7547   2.102   2.651   0.427
 2514TIP3    H1 7548   2.099   2.568   0.379
 2514TIP3    H2 7549   2.176   2.699   0.389
 2515TIP3   OH2 7550   0.721   1.550   4.691
 2515TIP3    H1 7551   0.632   1.537   4.722
 2515TIP3    H2 7552   0.751   1.629   4.735
 2516TIP3   OH2 7553   5.450   5.028   3.593
 2516TIP3    H1 7554   5.456   4.997   3.503
 2516TIP3    H2 7555   5.368   5.077   3.597
 2517TIP3   OH2 7556   5.834   3.632   2.059
 2517TIP3    H1 7557   5.866   3.721   2.070
 2517TIP3    H2 7558   5.739   3.640   2.051
 2518TIP3   OH2 7559   5.477   1.549   0.662
 2518TIP3    H1 7560   5.509   1.625   0.711
 2518TIP3    H2 7561   5.399   1.521   0.710
 2519TIP3   OH2 7562   4.447   2.029   4.503
 2519TIP3    H1 7563   4.502   2.079   4.443
 2519TIP3    H2 7564   4.385   1.984   4.447
 2520TIP3   OH2 7565   2.813   3.040   0.638
 2520TIP3    H1 7566   2.862   3.109   0.682
 2520TIP3    H2 7567   2.721   3.064   0.652
 2521TIP3   OH2 7568   3.210   2.497   3.358
 2521TIP3    H1 7569   3.247   2.496   3.270
 2521TIP3    H2 7570   3.139   2.433   3.355
 2522TIP3   OH2 7571   1.955   1.279   1.110
 2522TIP3    H1 7572   1.952   1.341   1.037
 2522TIP3    H2 7573   2.021   1.214   1.084
 2523TIP3   OH2 7574   3.578   3.925   0.123
 2523TIP3    H1 7575   3.558   3.833   0.138
 2523TIP3    H2 7576   3.578   3.964   0.210
 2524TIP3   OH2 7577   6.227   2.865   3.073
 2524TIP3    H1 7578   6.168   2.809   3.022
 2524TIP3    H2 7579   6.226   2.827   3.161
 2525TIP3   OH2 7580   2.258   5.589   1.440
 2525TIP3    H1 7581   2.284   5.631   1.358
 2525TIP3    H2 7582   2.192   5.525   1.415
 2526TIP3   OH2 7583   5.332   3.878   2.505
 2526TIP3    H1 7584   5.280   3.953   2.476
 2526TIP3    H2 7585   5.422   3.900   2.479
 2527TIP3   OH2 7586   0.069   1.874   1.624
 2527TIP3    H1 7587   0.093   1.923   1.546
 2527TIP3    H2 7588   0.063   1.783   1.596
 2528TIP3   OH2 7589   3.864   5.867   3.345
 2528TIP3    H1 7590   3.866   5.791   3.288
 2528TIP3    H2 7591   3.932   5.851   3.410
 2529TIP3   OH2 7592   4.925   3.486   2.842
 2529TIP3    H1 7593   4.951   3.509   2.931
 2529TIP3    H2 7594   4.905   3.569   2.800
 2530TIP3   OH2 7595   2.662   1.660   2.630
 2530TIP3    H1 7596   2.629   1.576   2.598
 2530TIP3    H2 7597   2.701   1.640   2.714
 2531TIP3   OH2 7598   4.096   6.004   3.182
 2531TIP3    H1 7599   4.093   6.091   3.221
 2531TIP3    H2 7600   4.007   5.989   3.149
 2532TIP3   OH2 7601   2.583   0.690   0.705
 2532TIP3    H1 7602   2.520   0.762   0.698
 2532TIP3    H2 7603   2.540   0.626   0.762
 2533TIP3   OH2 7604   2.314   0.062   1.450
 2533TIP3    H1 7605   2.231   0.109   1.463
 2533TIP3    H2 7606   2.365   0.084   1.528
 2534TIP3   OH2 7607   2.112   2.421   0.250
 2534TIP3    H1 7608   2.083   2.477   0.177
 2534TIP3    H2 7609   2.032   2.378   0.280
 2535TIP3   OH2 7610   2.308   4.576   0.008
 2535TIP3    H1 7611   2.334   4.493   0.050
 2535TIP3    H2 7612   2.259   4.622   0.075
 2536TIP3   OH2 7613   1.532   5.708   0.159
 2536TIP3    H1 7614   1.439   5.726   0.143
 2536TIP3    H2 7615   1.532   5.630   0.215
 2537TIP3   OH2 7616   2.254   5.808   5.194
 2537TIP3    H1 7617   2.290   5.722   5.172
 2537TIP3    H2 7618   2.289   5.827   5.281
 2538TIP3   OH2 7619   4.847   5.081   0.581
 2538TIP3    H1 7620   4.943   5.087   0.585
 2538TIP3    H2 7621   4.820   5.152   0.524
 2539TIP3   OH2 7622   1.165   5.686   0.619
 2539TIP3    H1 7623   1.235   5.665   0.558
 2539TIP3    H2 7624   1.088   5.641   0.585
 2540TIP3   OH2 7625   5.620   3.931   0.377
 2540TIP3    H1 7626   5.558   3.874   0.421
 2540TIP3    H2 7627   5.705   3.911   0.418
 2541TIP3   OH2 7628   0.971   4.809   2.162
 2541TIP3    H1 7629   0.994   4.724   2.127
 2541TIP3    H2 7630   0.964   4.796   2.257
 2542TIP3   OH2 7631   6.106   5.294   4.600
 2542TIP3    H1 7632   6.025   5.345   4.603
 2542TIP3    H2 7633   6.158   5.326   4.674
 2543TIP3   OH2 7634   4.912   0.628   1.468
 2543TIP3    H1 7635   4.993   0.648   1.515
 2543TIP3    H2 7636   4.908   0.533   1.467
 2544TIP3   OH2 7637   4.927   2.958   3.185
 2544TIP3    H1 7638   5.009   2.919   3.214
 2544TIP3    H2 7639   4.873   2.883   3.160
 2545TIP3   OH2 7640   5.629   2.414   0.473
 2545TIP3    H1 7641   5.722   2.439   0.471
 2545TIP3    H2 7642   5.585   2.482   0.422
 2546TIP3   OH2 7643   2.250   0.446   0.465
 2546TIP3    H1 7644   2.201   0.435   0.384
 2546TIP3    H2 7645   2.310   0.371   0.467
 2547TIP3   OH2 7646   0.824   3.074   1.667
 2547TIP3    H1 7647   0.746   3.082   1.612
 2547TIP3    H2 7648   0.838   2.980   1.675
 2548TIP3   OH2 7649   1.767   2.022   3.079
 2548TIP3    H1 7650   1.728   2.056   3.159
 2548TIP3    H2 7651   1.759   2.094   3.016
 2549TIP3   OH2 7652   0.039   5.199   1.848
 2549TIP3    H1 7653   0.095   5.250   1.790
 2549TIP3    H2 7654   0.055   5.108   1.824
 2550TIP3   OH2 7655   1.973   0.773   1.417
 2550TIP3    H1 7656   1.997   0.791   1.327
 2550TIP3    H2 7657   1.999   0.683   1.432
 2551TIP3   OH2 7658   3.206   0.548   3.376
 2551TIP3    H1 7659   3.256   0.593   3.444
 2551TIP3    H2 7660   3.155   0.616   3.334
 2552TIP3   OH2 7661   2.708   1.966   2.889
 2552TIP3    H1 7662   2.655   1.947   2.812
 2552TIP3    H2 7663   2.734   1.880   2.921
 2553TIP3   OH2 7664   1.447   0.669   3.314
 2553TIP3    H1 7665   1.398   0.738   3.269
 2553TIP3    H2 7666   1.394   0.590   3.302
 2554TIP3   OH2 7667   5.514   2.021   5.023
 2554TIP3    H1 7668   5.459   2.098   5.036
 2554TIP3    H2 7669   5.452   1.948   5.016
 2555TIP3   OH2 7670   4.306   4.401   2.135
 2555TIP3    H1 7671   4.238   4.461   2.165
 2555TIP3    H2 7672   4.353   4.376   2.214
 2556TIP3   OH2 7673   3.790   0.497   1.864
 2556TIP3    H1 7674   3.701   0.519   1.836
 2556TIP3    H2 7675   3.808   0.412   1.823
 2557TIP3   OH2 7676   5.343   4.428   4.700
 2557TIP3    H1 7677   5.418   4.376   4.728
 2557TIP3    H2 7678   5.284   4.366   4.657
 2558TIP3   OH2 7679   2.948   2.347   3.516
 2558TIP3    H1 7680   2.976   2.290   3.445
 2558TIP3    H2 7681   2.970   2.299   3.596
 2559TIP3   OH2 7682   6.015   3.707   1.179
 2559TIP3    H1 7683   5.927   3.706   1.140
 2559TIP3    H2 7684   6.067   3.651   1.122
 2560TIP3   OH2 7685   2.969   0.787   1.593
 2560TIP3    H1 7686   2.900   0.811   1.654
 2560TIP3    H2 7687   3.044   0.841   1.619
 2561TIP3   OH2 7688   4.367   3.105   3.463
 2561TIP3    H1 7689   4.344   3.195   3.441
 2561TIP3    H2 7690   4.382   3.063   3.379
 2562TIP3   OH2 7691   1.640   3.364   0.476
 2562TIP3    H1 7692   1.646   3.307   0.400
 2562TIP3    H2 7693   1.585   3.316   0.538
 2563TIP3   OH2 7694   1.488   1.228   0.266
 2563TIP3    H1 7695   1.430   1.290   0.221
 2563TIP3    H2 7696   1.479   1.147   0.216
 2564TIP3   OH2 7697   4.872   2.546   2.144
 2564TIP3    H1 7698   4.840   2.610   2.207
 2564TIP3    H2 7699   4.916   2.598   2.077
 2565TIP3   OH2 7700   0.564   3.713   0.060
 2565TIP3    H1 7701   0.590   3.802   0.085
 2565TIP3    H2 7702   0.504   3.725  -0.013
 2566TIP3   OH2 7703   0.502   3.115   2.480
 2566TIP3    H1 7704   0.529   3.023   2.486
 2566TIP3    H2 7705   0.468   3.123   2.390
 2567TIP3   OH2 7706   4.752   4.398   2.846
 2567TIP3    H1 7707   4.737   4.307   2.869
 2567TIP3    H2 7708   4.846   4.403   2.829
 2568TIP3   OH2 7709   3.239   4.259   3.358
 2568TIP3    H1 7710   3.155   4.246   3.313
 2568TIP3    H2 7711   3.263   4.171   3.388
 2569TIP3   OH2 7712   0.559   0.825   2.348
 2569TIP3    H1 7713   0.496   0.897   2.338
 2569TIP3    H2 7714   0.644   0.868   2.354
 2570TIP3   OH2 7715   0.580   0.130   4.400
 2570TIP3    H1 7716   0.656   0.179   4.368
 2570TIP3    H2 7717   0.613   0.041   4.413
 2571TIP3   OH2 7718   3.489   2.135   4.961
 2571TIP3    H1 7719   3.529   2.072   4.901
 2571TIP3    H2 7720   3.395   2.118   4.953
 2572TIP3   OH2 7721   3.438   1.207   2.655
 2572TIP3    H1 7722   3.420   1.264   2.730
 2572TIP3    H2 7723   3.353   1.170   2.633
 2573TIP3   OH2 7724   0.536   5.532   3.252
 2573TIP3    H1 7725   0.485   5.566   3.326
 2573TIP3    H2 7726   0.608   5.594   3.242
 2574TIP3   OH2 7727   0.204   0.523   0.615
 2574TIP3    H1 7728   0.113   0.513   0.587
 2574TIP3    H2 7729   0.252   0.545   0.535
 2575TIP3   OH2 7730   2.858   4.372   5.155
 2575TIP3    H1 7731   2.880   4.331   5.071
 2575TIP3    H2 7732   2.792   4.438   5.133
 2576TIP3   OH2 7733   3.214   0.922   0.340
 2576TIP3    H1 7734   3.167   0.982   0.398
 2576TIP3    H2 7735   3.294   0.899   0.389
 2577TIP3   OH2 7736   0.154   4.131   0.685
 2577TIP3    H1 7737   0.246   4.155   0.676
 2577TIP3    H2 7738   0.142   4.058   0.624
 2578TIP3   OH2 7739   4.611   0.003   3.628
 2578TIP3    H1 7740   4.690  -0.043   3.597
 2578TIP3    H2 7741   4.632   0.096   3.617
 2579TIP3   OH2 7742   5.730   3.533   4.359
 2579TIP3    H1 7743   5.639   3.558   4.372
 2579TIP3    H2 7744   5.776   3.617   4.348
 2580TIP3   OH2 7745   1.287   4.994   4.224
 2580TIP3    H1 7746   1.306   5.059   4.292
 2580TIP3    H2 7747   1.198   4.964   4.244
 2581TIP3   OH2 7748   4.174   2.138   0.500
 2581TIP3    H1 7749   4.196   2.205   0.436
 2581TIP3    H2 7750   4.163   2.186   0.583
 2582TIP3   OH2 7751   4.917   3.721   1.442
 2582TIP3    H1 7752   4.898   3.630   1.421
 2582TIP3    H2 7753   4.934   3.721   1.536
 2583TIP3   OH2 7754   3.624   1.667   3.704
 2583TIP3    H1 7755   3.611   1.756   3.671
 2583TIP3    H2 7756   3.539   1.642   3.740
 2584TIP3   OH2 7757   4.656   0.458   3.098
 2584TIP3    H1 7758   4.711   0.472   3.174
 2584TIP3    H2 7759   4.591   0.528   3.102
 2585TIP3   OH2 7760   0.844   3.435   3.889
 2585TIP3    H1 7761   0.826   3.407   3.800
 2585TIP3    H2 7762   0.809   3.524   3.893
 2586TIP3   OH2 7763   2.499   0.997   3.191
 2586TIP3    H1 7764   2.416   0.949   3.201
 2586TIP3    H2 7765   2.473   1.089   3.184
 2587TIP3   OH2 7766   0.248   2.164   3.599
 2587TIP3    H1 7767   0.194   2.183   3.676
 2587TIP3    H2 7768   0.317   2.230   3.602
 2588TIP3   OH2 7769   3.114   2.922   4.101
 2588TIP3    H1 7770   3.151   2.835   4.119
 2588TIP3    H2 7771   3.099   2.960   4.187
 2589TIP3   OH2 7772   0.591   1.813   3.931
 2589TIP3    H1 7773   0.637   1.730   3.942
 2589TIP3    H2 7774   0.583   1.848   4.020
 2590TIP3   OH2 7775   5.785   1.883   0.990
 2590TIP3    H1 7776   5.741   1.966   0.975
 2590TIP3    H2 7777   5.780   1.870   1.085
 2591TIP3   OH2 7778   0.524   3.641   2.794
 2591TIP3    H1 7779   0.483   3.619   2.710
 2591TIP3    H2 7780   0.613   3.609   2.787
 2592TIP3   OH2 7781   5.034   4.676   2.573
 2592TIP3    H1 7782   5.110   4.644   2.524
 2592TIP3    H2 7783   5.056   4.662   2.665
 2593TIP3   OH2 7784   4.802   5.608   1.795
 2593TIP3    H1 7785   4.729   5.655   1.755
 2593TIP3    H2 7786   4.815   5.531   1.739
 2594TIP3   OH2 7787   4.913   2.597   5.063
 2594TIP3    H1 7788   4.860   2.585   5.142
 2594TIP3    H2 7789   4.953   2.511   5.048
 2595TIP3   OH2 7790   4.885   0.450   1.074
 2595TIP3    H1 7791   4.908   0.377   1.017
 2595TIP3    H2 7792   4.953   0.515   1.057
 2596TIP3   OH2 7793   0.080   0.290   3.270
 2596TIP3    H1 7794  -0.011   0.265   3.256
 2596TIP3    H2 7795   0.078   0.385   3.277
 2597TIP3   OH2 7796   3.929   5.156   4.058
 2597TIP3    H1 7797   3.965   5.082   4.106
 2597TIP3    H2 7798   3.942   5.231   4.116
 2598TIP3   OH2 7799   5.359   0.365   4.985
 2598TIP3    H1 7800   5.384   0.317   4.906
 2598TIP3    H2 7801   5.396   0.452   4.974
 2599TIP3   OH2 7802   2.710   3.483   4.993
 2599TIP3    H1 7803   2.622   3.518   4.981
 2599TIP3    H2 7804   2.749   3.484   4.906
 2600TIP3   OH2 7805   5.710   0.351   3.533
 2600TIP3    H1 7806   5.659   0.332   3.612
 2600TIP3    H2 7807   5.745   0.439   3.548
 2601TIP3   OH2 7808   3.176   3.411   0.314
 2601TIP3    H1 7809   3.102   3.405   0.254
 2601TIP3    H2 7810   3.208   3.321   0.321
 2602TIP3   OH2 7811   0.895   2.832   3.852
 2602TIP3    H1 7812   0.873   2.847   3.944
 2602TIP3    H2 7813   0.895   2.919   3.813
 2603TIP3   OH2 7814   1.233   5.208   4.769
 2603TIP3    H1 7815   1.200   5.213   4.679
 2603TIP3    H2 7816   1.202   5.289   4.811
 2604TIP3   OH2 7817   1.360   5.162   3.312
 2604TIP3    H1 7818   1.394   5.224   3.376
 2604TIP3    H2 7819   1.280   5.128   3.353
 2605TIP3   OH2 7820   1.514   4.457   3.227
 2605TIP3    H1 7821   1.462   4.474   3.148
 2605TIP3    H2 7822   1.450   4.445   3.296
 2606TIP3   OH2 7823   2.108   5.133   2.527
 2606TIP3    H1 7824   2.145   5.058   2.480
 2606TIP3    H2 7825   2.109   5.205   2.464
 2607TIP3   OH2 7826   3.465   0.470   1.271
 2607TIP3    H1 7827   3.501   0.427   1.194
 2607TIP3    H2 7828   3.519   0.437   1.343
 2608TIP3   OH2 7829   4.837   2.791   2.911
 2608TIP3    H1 7830   4.929   2.769   2.903
 2608TIP3    H2 7831   4.809   2.749   2.993
 2609TIP3   OH2 7832   3.369   0.364   2.281
 2609TIP3    H1 7833   3.413   0.280   2.267
 2609TIP3    H2 7834   3.365   0.404   2.194
 2610TIP3   OH2 7835   5.133   5.219   2.469
 2610TIP3    H1 7836   5.198   5.199   2.536
 2610TIP3    H2 7837   5.050   5.223   2.516
 2611TIP3   OH2 7838   2.156   0.489   2.127
 2611TIP3    H1 7839   2.228   0.522   2.072
 2611TIP3    H2 7840   2.144   0.557   2.194
 2612TIP3   OH2 7841   3.280   3.137   3.210
 2612TIP3    H1 7842   3.340   3.210   3.194
 2612TIP3    H2 7843   3.195   3.178   3.224
 2613TIP3   OH2 7844   3.610   2.893   3.121
 2613TIP3    H1 7845   3.697   2.875   3.156
 2613TIP3    H2 7846   3.553   2.894   3.198
 2614TIP3   OH2 7847   5.311   5.782   3.359
 2614TIP3    H1 7848   5.293   5.728   3.281
 2614TIP3    H2 7849   5.276   5.868   3.337
 2615TIP3   OH2 7850   3.225   5.134   1.536
 2615TIP3    H1 7851   3.137   5.100   1.554
 2615TIP3    H2 7852   3.281   5.090   1.601
 2616TIP3   OH2 7853   5.969   3.671   2.593
 2616TIP3    H1 7854   6.002   3.603   2.652
 2616TIP3    H2 7855   5.938   3.623   2.516
 2617TIP3   OH2 7856   4.034   1.540   1.299
 2617TIP3    H1 7857   4.009   1.511   1.387
 2617TIP3    H2 7858   4.056   1.459   1.252
 2618TIP3   OH2 7859   0.507   5.089   1.523
 2618TIP3    H1 7860   0.434   5.124   1.574
 2618TIP3    H2 7861   0.473   5.007   1.487
 2619TIP3   OH2 7862   2.095   5.961   1.702
 2619TIP3    H1 7863   2.034   5.925   1.767
 2619TIP3    H2 7864   2.077   6.055   1.703
 2620TIP3   OH2 7865   0.915   5.836   1.631
 2620TIP3    H1 7866   0.987   5.856   1.692
 2620TIP3    H2 7867   0.902   5.918   1.583
 2621TIP3   OH2 7868   1.891   4.668   0.355
 2621TIP3    H1 7869   1.819   4.652   0.415
 2621TIP3    H2 7870   1.854   4.726   0.288
 2622TIP3   OH2 7871   0.363   2.615   1.601
 2622TIP3    H1 7872   0.376   2.561   1.679
 2622TIP3    H2 7873   0.418   2.691   1.615
 2623TIP3   OH2 7874   0.972   1.074   4.705
 2623TIP3    H1 7875   0.960   1.025   4.787
 2623TIP3    H2 7876   0.920   1.153   4.717
 2624TIP3   OH2 7877   0.993   5.940   2.904
 2624TIP3    H1 7878   1.075   5.971   2.866
 2624TIP3    H2 7879   0.970   5.864   2.850
 2625TIP3   OH2 7880   0.462   2.607   5.019
 2625TIP3    H1 7881   0.407   2.664   5.073
 2625TIP3    H2 7882   0.517   2.560   5.081
 2626TIP3   OH2 7883   5.210   2.603   0.110
 2626TIP3    H1 7884   5.233   2.603   0.017
 2626TIP3    H2 7885   5.253   2.682   0.145
 2627TIP3   OH2 7886   0.076   0.707   1.009
 2627TIP3    H1 7887   0.050   0.795   0.983
 2627TIP3    H2 7888   0.172   0.710   1.011
 2628TIP3   OH2 7889   0.936   0.743   4.039
 2628TIP3    H1 7890   0.858   0.749   3.985
 2628TIP3    H2 7891   1.000   0.801   3.997
 2629TIP3   OH2 7892   4.455   3.160   2.603
 2629TIP3    H1 7893   4.507   3.173   2.682
 2629TIP3    H2 7894   4.515   3.116   2.542
 2630TIP3   OH2 7895   5.430   1.579   4.944
 2630TIP3    H1 7896   5.401   1.616   5.027
 2630TIP3    H2 7897   5.426   1.652   4.882
 2631TIP3   OH2 7898   1.954   5.848   0.988
 2631TIP3    H1 7899   1.991   5.770   0.947
 2631TIP3    H2 7900   1.986   5.845   1.078
 2632TIP3   OH2 7901   1.785   4.133   4.572
 2632TIP3    H1 7902   1.725   4.196   4.534
 2632TIP3    H2 7903   1.851   4.119   4.505
 2633TIP3   OH2 7904   3.985   3.020   0.196
 2633TIP3    H1 7905   4.034   3.027   0.278
 2633TIP3    H2 7906   4.034   3.074   0.134
 2634TIP3   OH2 7907   5.272   0.181   0.502
 2634TIP3    H1 7908   5.362   0.213   0.494
 2634TIP3    H2 7909   5.263   0.157   0.594
 2635TIP3   OH2 7910   6.002   5.335   3.443
 2635TIP3    H1 7911   6.013   5.242   3.464
 2635TIP3    H2 7912   6.077   5.378   3.483
 2636TIP3   OH2 7913   0.860   1.920   4.128
 2636TIP3    H1 7914   0.867   1.912   4.033
 2636TIP3    H2 7915   0.850   2.014   4.143
 2637TIP3   OH2 7916   2.713   4.515   0.284
 2637TIP3    H1 7917   2.697   4.450   0.216
 2637TIP3    H2 7918   2.644   4.580   0.272
 2638TIP3   OH2 7919   3.681   4.393   4.100
 2638TIP3    H1 7920   3.660   4.434   4.184
 2638TIP3    H2 7921   3.741   4.454   4.058
 2639TIP3   OH2 7922   6.279   0.295   2.341
 2639TIP3    H1 7923   6.331   0.218   2.319
 2639TIP3    H2 7924   6.321   0.330   2.420
 2640TIP3   OH2 7925   3.621   2.563   2.743
 2640TIP3    H1 7926   3.553   2.564   2.675
 2640TIP3    H2 7927   3.696   2.606   2.702
 2641TIP3   OH2 7928   0.872   5.742   2.747
 2641TIP3    H1 7929   0.836   5.755   2.659
 2641TIP3    H2 7930   0.798   5.713   2.800
 2642TIP3   OH2 7931   3.299   0.648   2.500
 2642TIP3    H1 7932   3.339   0.734   2.487
 2642TIP3    H2 7933   3.211   0.666   2.532
 2643TIP3   OH2 7934   2.794   3.505   0.586
 2643TIP3    H1 7935   2.883   3.537   0.595
 2643TIP3    H2 7936   2.797   3.445   0.511
 2644TIP3   OH2 7937   4.002   3.864   4.683
 2644TIP3    H1 7938   3.993   3.788   4.625
 2644TIP3    H2 7939   4.095   3.886   4.679
 2645TIP3   OH2 7940   2.184   5.686   0.052
 2645TIP3    H1 7941   2.170   5.742  -0.024
 2645TIP3    H2 7942   2.268   5.714   0.089
 2646TIP3   OH2 7943   4.176   2.409   0.499
 2646TIP3    H1 7944   4.196   2.487   0.552
 2646TIP3    H2 7945   4.153   2.444   0.413
 2647TIP3   OH2 7946   3.729   3.848   4.341
 2647TIP3    H1 7947   3.759   3.936   4.316
 2647TIP3    H2 7948   3.648   3.863   4.389
 2648TIP3   OH2 7949   0.718   2.524   1.582
 2648TIP3    H1 7950   0.716   2.460   1.511
 2648TIP3    H2 7951   0.714   2.472   1.662
 2649TIP3   OH2 7952   0.083   4.767   3.273
 2649TIP3    H1 7953   0.127   4.707   3.333
 2649TIP3    H2 7954   0.052   4.838   3.329
 2650TIP3   OH2 7955   6.069   3.029   5.008
 2650TIP3    H1 7956   6.053   2.943   4.970
 2650TIP3    H2 7957   5.985   3.075   4.998
 2651TIP3   OH2 7958   2.209   3.525   3.968
 2651TIP3    H1 7959   2.223   3.477   3.886
 2651TIP3    H2 7960   2.291   3.571   3.984
 2652TIP3   OH2 7961   2.037   1.985   1.254
 2652TIP3    H1 7962   2.113   1.927   1.250
 2652TIP3    H2 7963   2.007   1.992   1.164
 2653TIP3   OH2 7964   4.256   0.950   2.712
 2653TIP3    H1 7965   4.326   0.991   2.662
 2653TIP3    H2 7966   4.228   0.876   2.659
 2654TIP3   OH2 7967   4.623   1.993   0.987
 2654TIP3    H1 7968   4.545   2.044   1.010
 2654TIP3    H2 7969   4.595   1.902   0.991
 2655TIP3   OH2 7970   5.849   5.394   1.394
 2655TIP3    H1 7971   5.808   5.349   1.467
 2655TIP3    H2 7972   5.801   5.477   1.387
 2656TIP3   OH2 7973   5.815   1.221   4.096
 2656TIP3    H1 7974   5.767   1.139   4.107
 2656TIP3    H2 7975   5.906   1.198   4.117
 2657TIP3   OH2 7976   5.914   4.727   3.566
 2657TIP3    H1 7977   5.859   4.738   3.644
 2657TIP3    H2 7978   5.879   4.650   3.522
 2658TIP3   OH2 7979   5.574   3.973   3.289
 2658TIP3    H1 7980   5.654   4.014   3.322
 2658TIP3    H2 7981   5.578   3.987   3.194
 2659TIP3   OH2 7982   3.583   1.935   3.632
 2659TIP3    H1 7983   3.498   1.942   3.590
 2659TIP3    H2 7984   3.591   2.015   3.684
 2660TIP3   OH2 7985   0.299   2.974   2.002
 2660TIP3    H1 7986   0.238   3.031   1.954
 2660TIP3    H2 7987   0.245   2.900   2.031
 2661TIP3   OH2 7988   1.384   4.524   1.899
 2661TIP3    H1 7989   1.294   4.497   1.882
 2661TIP3    H2 7990   1.435   4.485   1.828
 2662TIP3   OH2 7991   4.123   3.315   2.384
 2662TIP3    H1 7992   4.161   3.268   2.310
 2662TIP3    H2 7993   4.127   3.252   2.457
 2663TIP3   OH2 7994   1.178   5.077   1.523
 2663TIP3    H1 7995   1.138   5.071   1.610
 2663TIP3    H2 7996   1.188   4.986   1.494
 2664TIP3   OH2 7997   0.861   3.457   0.397
 2664TIP3    H1 7998   0.772   3.490   0.396
 2664TIP3    H2 7999   0.856   3.377   0.450
 2665TIP3   OH2 8000   2.268   5.931   2.757
 2665TIP3    H1 8001   2.207   5.989   2.803
 2665TIP3    H2 8002   2.275   5.854   2.814
 2666TIP3   OH2 8003   4.036   3.701   2.238
 2666TIP3    H1 8004   3.950   3.672   2.270
 2666TIP3    H2 8005   4.033   3.797   2.246
 2667TIP3   OH2 8006   0.994   1.697   1.895
 2667TIP3    H1 8007   0.990   1.677   1.801
 2667TIP3    H2 8008   0.905   1.682   1.926
 2668TIP3   OH2 8009   1.723   5.256   4.174
 2668TIP3    H1 8010   1.808   5.276   4.134
 2668TIP3    H2 8011   1.700   5.336   4.222
 2669TIP3   OH2 8012   2.588   2.220   1.259
 2669TIP3    H1 8013   2.500   2.233   1.225
 2669TIP3    H2 8014   2.614   2.134   1.227
 2670TIP3   OH2 8015   2.071   4.743   4.465
 2670TIP3    H1 8016   2.054   4.653   4.494
 2670TIP3    H2 8017   2.154   4.766   4.506
 2671TIP3   OH2 8018   2.156   2.658   1.846
 2671TIP3    H1 8019   2.232   2.607   1.819
 2671TIP3    H2 8020   2.171   2.745   1.808
 2672TIP3   OH2 8021   5.253   4.909   1.747
 2672TIP3    H1 8022   5.297   4.982   1.702
 2672TIP3    H2 8023   5.160   4.933   1.745
 2673TIP3   OH2 8024   4.252   2.784   3.573
 2673TIP3    H1 8025   4.185   2.725   3.537
 2673TIP3    H2 8026   4.204   2.862   3.599
 2674TIP3   OH2 8027   5.302   3.788   1.372
 2674TIP3    H1 8028   5.359   3.791   1.448
 2674TIP3    H2 8029   5.213   3.792   1.408
 2675TIP3   OH2 8030   4.268   4.888   4.681
 2675TIP3    H1 8031   4.305   4.959   4.734
 2675TIP3    H2 8032   4.234   4.825   4.745
 2676TIP3   OH2 8033   1.970   4.469   4.547
 2676TIP3    H1 8034   1.917   4.451   4.625
 2676TIP3    H2 8035   2.058   4.439   4.571
 2677TIP3   OH2 8036   5.252   0.759   0.070
 2677TIP3    H1 8037   5.158   0.754   0.087
 2677TIP3    H2 8038   5.293   0.726   0.151
 2678TIP3   OH2 8039   5.752   5.111   1.313
 2678TIP3    H1 8040   5.802   5.191   1.324
 2678TIP3    H2 8041   5.791   5.050   1.377
 2679TIP3   OH2 8042   5.474   4.397   2.090
 2679TIP3    H1 8043   5.505   4.374   2.002
 2679TIP3    H2 8044   5.379   4.389   2.085
 2680TIP3   OH2 8045   2.318   4.919   3.534
 2680TIP3    H1 8046   2.323   5.014   3.543
 2680TIP3    H2 8047   2.387   4.885   3.593
 2681TIP3   OH2 8048   5.239   2.454   1.885
 2681TIP3    H1 8049   5.210   2.393   1.953
 2681TIP3    H2 8050   5.306   2.507   1.929
 2682TIP3   OH2 8051   2.246   0.974   4.321
 2682TIP3    H1 8052   2.288   0.926   4.393
 2682TIP3    H2 8053   2.153   0.974   4.342
 2683TIP3   OH2 8054   4.814   5.301   4.336
 2683TIP3    H1 8055   4.767   5.261   4.409
 2683TIP3    H2 8056   4.750   5.360   4.296
 2684TIP3   OH2 8057   2.014   1.788   3.130
 2684TIP3    H1 8058   1.940   1.795   3.070
 2684TIP3    H2 8059   1.978   1.748   3.209
 2685TIP3   OH2 8060   1.010   3.628   4.549
 2685TIP3    H1 8061   1.032   3.704   4.495
 2685TIP3    H2 8062   1.066   3.558   4.516
 2686TIP3   OH2 8063   5.909   1.180   2.618
 2686TIP3    H1 8064   5.922   1.098   2.666
 2686TIP3    H2 8065   5.895   1.154   2.528
 2687TIP3   OH2 8066   5.230   2.582   5.193
 2687TIP3    H1 8067   5.172   2.534   5.134
 2687TIP3    H2 8068   5.245   2.666   5.150
 2688TIP3   OH2 8069   6.298   3.611   1.421
 2688TIP3    H1 8070   6.235   3.679   1.444
 2688TIP3    H2 8071   6.347   3.594   1.502
 2689TIP3   OH2 8072   3.975   1.626   4.565
 2689TIP3    H1 8073   3.993   1.549   4.512
 2689TIP3    H2 8074   3.879   1.633   4.567
 2690TIP3   OH2 8075   2.478   5.224   3.850
 2690TIP3    H1 8076   2.564   5.185   3.865
 2690TIP3    H2 8077   2.460   5.276   3.928
 2691TIP3   OH2 8078   5.768   0.927   5.123
 2691TIP3    H1 8079   5.767   0.997   5.187
 2691TIP3    H2 8080   5.824   0.960   5.052
 2692TIP3   OH2 8081   2.449   4.908   0.836
 2692TIP3    H1 8082   2.483   4.963   0.766
 2692TIP3    H2 8083   2.495   4.824   0.824
 2693TIP3   OH2 8084   1.149   2.360   4.605
 2693TIP3    H1 8085   1.112   2.443   4.635
 2693TIP3    H2 8086   1.221   2.385   4.547
 2694TIP3   OH2 8087   5.375   4.139   1.302
 2694TIP3    H1 8088   5.390   4.231   1.282
 2694TIP3    H2 8089   5.439   4.118   1.369
 2695TIP3   OH2 8090   4.695   0.736   1.615
 2695TIP3    H1 8091   4.778   0.711   1.575
 2695TIP3    H2 8092   4.717   0.760   1.705
 2696TIP3   OH2 8093   0.851   1.916   1.679
 2696TIP3    H1 8094   0.893   1.836   1.647
 2696TIP3    H2 8095   0.910   1.950   1.746
 2697TIP3   OH2 8096   1.398   5.596   2.915
 2697TIP3    H1 8097   1.327   5.532   2.909
 2697TIP3    H2 8098   1.381   5.657   2.843
 2698TIP3   OH2 8099   4.554   4.418   2.669
 2698TIP3    H1 8100   4.531   4.507   2.641
 2698TIP3    H2 8101   4.623   4.431   2.734
 2699TIP3   OH2 8102   5.200   1.828   0.549
 2699TIP3    H1 8103   5.222   1.784   0.467
 2699TIP3    H2 8104   5.280   1.873   0.575
 2700TIP3   OH2 8105   1.681   4.373   0.246
 2700TIP3    H1 8106   1.654   4.440   0.309
 2700TIP3    H2 8107   1.698   4.295   0.300
 2701TIP3   OH2 8108   0.420   2.600   0.600
 2701TIP3    H1 8109   0.376   2.677   0.635
 2701TIP3    H2 8110   0.388   2.527   0.653
 2702TIP3   OH2 8111   5.682   4.748   2.200
 2702TIP3    H1 8112   5.769   4.742   2.160
 2702TIP3    H2 8113   5.678   4.838   2.233
 2703TIP3   OH2 8114   2.834   2.140   4.457
 2703TIP3    H1 8115   2.857   2.232   4.467
 2703TIP3    H2 8116   2.740   2.140   4.442
 2704TIP3   OH2 8117   0.060   1.005   2.539
 2704TIP3    H1 8118   0.151   0.978   2.524
 2704TIP3    H2 8119   0.051   1.087   2.490
 2705TIP3   OH2 8120   0.073   1.644   3.119
 2705TIP3    H1 8121   0.047   1.571   3.175
 2705TIP3    H2 8122   0.169   1.644   3.123
 2706TIP3   OH2 8123   3.347   2.415   0.657
 2706TIP3    H1 8124   3.351   2.486   0.722
 2706TIP3    H2 8125   3.319   2.459   0.576
 2707TIP3   OH2 8126   3.405   3.703   5.004
 2707TIP3    H1 8127   3.366   3.625   4.963
 2707TIP3    H2 8128   3.456   3.667   5.077
 2708TIP3   OH2 8129   3.473   4.350   3.648
 2708TIP3    H1 8130   3.447   4.403   3.723
 2708TIP3    H2 8131   3.566   4.371   3.634
 2709TIP3   OH2 8132   5.259   0.895   1.274
 2709TIP3    H1 8133   5.259   0.905   1.179
 2709TIP3    H2 8134   5.350   0.876   1.296
 2710TIP3   OH2 8135   4.247   4.951   4.397
 2710TIP3    H1 8136   4.178   4.887   4.382
 2710TIP3    H2 8137   4.274   4.937   4.488
 2711TIP3   OH2 8138   3.610   4.942   5.133
 2711TIP3    H1 8139   3.685   4.904   5.179
 2711TIP3    H2 8140   3.633   4.935   5.040
 2712TIP3   OH2 8141   2.785   3.895   1.414
 2712TIP3    H1 8142   2.832   3.830   1.466
 2712TIP3    H2 8143   2.735   3.945   1.478
 2713TIP3   OH2 8144   5.449   0.805   3.185
 2713TIP3    H1 8145   5.429   0.865   3.113
 2713TIP3    H2 8146   5.533   0.834   3.219
 2714TIP3   OH2 8147   2.824   0.167   1.995
 2714TIP3    H1 8148   2.797   0.134   1.909
 2714TIP3    H2 8149   2.743   0.191   2.038
 2715TIP3   OH2 8150   0.142   5.327   3.557
 2715TIP3    H1 8151   0.194   5.264   3.508
 2715TIP3    H2 8152   0.171   5.317   3.648
 2716TIP3   OH2 8153   0.816   0.596   2.431
 2716TIP3    H1 8154   0.774   0.671   2.389
 2716TIP3    H2 8155   0.765   0.520   2.401
 2717TIP3   OH2 8156   4.159   1.707   1.686
 2717TIP3    H1 8157   4.065   1.709   1.669
 2717TIP3    H2 8158   4.167   1.662   1.771
 2718TIP3   OH2 8159   2.558   1.602   1.462
 2718TIP3    H1 8160   2.584   1.558   1.381
 2718TIP3    H2 8161   2.636   1.597   1.518
 2719TIP3   OH2 8162   5.811   2.879   0.581
 2719TIP3    H1 8163   5.865   2.807   0.548
 2719TIP3    H2 8164   5.765   2.912   0.504
 2720TIP3   OH2 8165   5.175   5.687   1.011
 2720TIP3    H1 8166   5.157   5.694   1.105
 2720TIP3    H2 8167   5.219   5.768   0.989
 2721TIP3   OH2 8168   3.747   4.357   2.053
 2721TIP3    H1 8169   3.675   4.408   2.017
 2721TIP3    H2 8170   3.747   4.378   2.146
 2722TIP3   OH2 8171   6.040   4.451   1.040
 2722TIP3    H1 8172   5.995   4.391   1.100
 2722TIP3    H2 8173   5.971   4.503   1.001
 2723TIP3   OH2 8174   5.317   3.345   0.897
 2723TIP3    H1 8175   5.231   3.345   0.941
 2723TIP3    H2 8176   5.359   3.264   0.926
 2724TIP3   OH2 8177   6.057   4.188   0.794
 2724TIP3    H1 8178   6.112   4.189   0.872
 2724TIP3    H2 8179   6.067   4.276   0.757
 2725TIP3   OH2 8180   3.712   0.859   2.259
 2725TIP3    H1 8181   3.796   0.819   2.237
 2725TIP3    H2 8182   3.705   0.851   2.354
 2726TIP3   OH2 8183   0.949   1.114   0.838
 2726TIP3    H1 8184   1.030   1.154   0.869
 2726TIP3    H2 8185   0.979   1.041   0.783
 2727TIP3   OH2 8186   4.045   3.979   2.394
 2727TIP3    H1 8187   4.102   3.988   2.471
 2727TIP3    H2 8188   3.981   3.913   2.420
 2728TIP3   OH2 8189   4.899   1.896   3.744
 2728TIP3    H1 8190   4.974   1.871   3.798
 2728TIP3    H2 8191   4.891   1.825   3.681
 2729TIP3   OH2 8192   0.237   5.357   4.615
 2729TIP3    H1 8193   0.218   5.271   4.651
 2729TIP3    H2 8194   0.320   5.346   4.569
 2730TIP3   OH2 8195   3.795   5.326   4.877
 2730TIP3    H1 8196   3.858   5.397   4.865
 2730TIP3    H2 8197   3.849   5.247   4.882
 2731TIP3   OH2 8198   4.843   0.369   0.468
 2731TIP3    H1 8199   4.837   0.412   0.383
 2731TIP3    H2 8200   4.900   0.293   0.453
 2732TIP3   OH2 8201   5.583   0.309   3.759
 2732TIP3    H1 8202   5.612   0.371   3.826
 2732TIP3    H2 8203   5.617   0.224   3.787
 2733TIP3   OH2 8204   5.166   4.232   4.604
 2733TIP3    H1 8205   5.228   4.184   4.550
 2733TIP3    H2 8206   5.083   4.226   4.557
 2734TIP3   OH2 8207   4.499   1.878   4.219
 2734TIP3    H1 8208   4.416   1.868   4.265
 2734TIP3    H2 8209   4.477   1.927   4.140
 2735TIP3   OH2 8210   6.052   0.971   1.814
 2735TIP3    H1 8211   6.063   0.880   1.786
 2735TIP3    H2 8212   6.136   1.012   1.797
 2736TIP3   OH2 8213   2.826   2.349   4.707
 2736TIP3    H1 8214   2.897   2.382   4.652
 2736TIP3    H2 8215   2.756   2.413   4.696
 2737TIP3   OH2 8216   3.520   3.350   0.649
 2737TIP3    H1 8217   3.601   3.306   0.677
 2737TIP3    H2 8218   3.493   3.402   0.724
 2738TIP3   OH2 8219   0.262   5.806   4.325
 2738TIP3    H1 8220   0.261   5.775   4.416
 2738TIP3    H2 8221   0.355   5.822   4.307
 2739TIP3   OH2 8222   2.583   5.304   5.156
 2739TIP3    H1 8223   2.643   5.237   5.189
 2739TIP3    H2 8224   2.517   5.255   5.107
 2740TIP3   OH2 8225   1.606   4.770   2.575
 2740TIP3    H1 8226   1.571   4.806   2.493
 2740TIP3    H2 8227   1.595   4.841   2.639
 2741TIP3   OH2 8228   4.224   4.084   0.333
 2741TIP3    H1 8229   4.302   4.087   0.387
 2741TIP3    H2 8230   4.251   4.037   0.254
 2742TIP3   OH2 8231   5.201   1.249   2.444
 2742TIP3    H1 8232   5.161   1.262   2.529
 2742TIP3    H2 8233   5.158   1.312   2.386
 2743TIP3   OH2 8234   3.298   1.774   2.112
 2743TIP3    H1 8235   3.295   1.720   2.191
 2743TIP3    H2 8236   3.374   1.741   2.064
 2744TIP3   OH2 8237   1.334   2.467   0.123
 2744TIP3    H1 8238   1.295   2.379   0.113
 2744TIP3    H2 8239   1.274   2.512   0.182
 2745TIP3   OH2 8240   3.048   5.648   0.803
 2745TIP3    H1 8241   2.966   5.691   0.779
 2745TIP3    H2 8242   3.045   5.564   0.758
 2746TIP3   OH2 8243   3.538   2.798   2.893
 2746TIP3    H1 8244   3.511   2.709   2.914
 2746TIP3    H2 8245   3.573   2.832   2.976
 2747TIP3   OH2 8246   5.001   5.032   1.679
 2747TIP3    H1 8247   5.019   5.091   1.752
 2747TIP3    H2 8248   4.910   5.050   1.655
 2748TIP3   OH2 8249   1.713   0.951   4.146
 2748TIP3    H1 8250   1.639   0.920   4.199
 2748TIP3    H2 8251   1.786   0.957   4.209
 2749TIP3   OH2 8252   2.020   4.497   0.580
 2749TIP3    H1 8253   2.007   4.586   0.548
 2749TIP3    H2 8254   2.044   4.508   0.673
 2750TIP3   OH2 8255   5.557   2.569   3.537
 2750TIP3    H1 8256   5.552   2.649   3.484
 2750TIP3    H2 8257   5.643   2.532   3.518
 2751TIP3   OH2 8258   3.382   4.871   4.626
 2751TIP3    H1 8259   3.411   4.937   4.688
 2751TIP3    H2 8260   3.368   4.919   4.545
 2752TIP3   OH2 8261   1.162   3.519   3.218
 2752TIP3    H1 8262   1.169   3.425   3.231
 2752TIP3    H2 8263   1.140   3.530   3.126
 2753TIP3   OH2 8264   0.568   3.577   4.780
 2753TIP3    H1 8265   0.602   3.647   4.837
 2753TIP3    H2 8266   0.495   3.540   4.829
 2754TIP3   OH2 8267   0.454   3.422   2.966
 2754TIP3    H1 8268   0.467   3.496   2.907
 2754TIP3    H2 8269   0.495   3.450   3.048
 2755TIP3   OH2 8270   5.189   5.145   3.732
 2755TIP3    H1 8271   5.104   5.144   3.777
 2755TIP3    H2 8272   5.251   5.174   3.800
 2756TIP3   OH2 8273   0.860   3.789   4.342
 2756TIP3    H1 8274   0.862   3.726   4.415
 2756TIP3    H2 8275   0.949   3.789   4.307
 2757TIP3   OH2 8276   6.073   1.367   2.246
 2757TIP3    H1 8277   6.101   1.364   2.337
 2757TIP3    H2 8278   6.115   1.291   2.205
 2758TIP3   OH2 8279   4.988   1.943   0.682
 2758TIP3    H1 8280   5.070   1.903   0.655
 2758TIP3    H2 8281   4.982   2.024   0.631
 2759TIP3   OH2 8282   1.835   0.725   2.798
 2759TIP3    H1 8283   1.797   0.808   2.826
 2759TIP3    H2 8284   1.917   0.750   2.755
 2760TIP3   OH2 8285   5.196   2.066   1.852
 2760TIP3    H1 8286   5.270   2.111   1.809
 2760TIP3    H2 8287   5.124   2.075   1.789
 2761TIP3   OH2 8288   5.074   2.207   0.405
 2761TIP3    H1 8289   5.056   2.301   0.411
 2761TIP3    H2 8290   4.993   2.169   0.371
 2762TIP3   OH2 8291   5.968   1.292   1.033
 2762TIP3    H1 8292   5.878   1.324   1.030
 2762TIP3    H2 8293   5.967   1.213   0.980
 2763TIP3   OH2 8294   2.964   3.153   0.413
 2763TIP3    H1 8295   2.912   3.208   0.472
 2763TIP3    H2 8296   2.936   3.064   0.432
 2764TIP3   OH2 8297   1.122   5.602   3.737
 2764TIP3    H1 8298   1.199   5.595   3.794
 2764TIP3    H2 8299   1.134   5.685   3.691
 2765TIP3   OH2 8300   2.402   5.193   3.581
 2765TIP3    H1 8301   2.405   5.212   3.675
 2765TIP3    H2 8302   2.493   5.199   3.552
 2766TIP3   OH2 8303   1.520   1.091   1.711
 2766TIP3    H1 8304   1.428   1.087   1.738
 2766TIP3    H2 8305   1.544   1.182   1.723
 2767TIP3   OH2 8306   1.825   2.958   3.858
 2767TIP3    H1 8307   1.800   3.047   3.880
 2767TIP3    H2 8308   1.839   2.914   3.942
 2768TIP3   OH2 8309   3.917   2.858   2.381
 2768TIP3    H1 8310   4.007   2.836   2.404
 2768TIP3    H2 8311   3.871   2.774   2.383
 2769TIP3   OH2 8312   1.136   2.563   0.312
 2769TIP3    H1 8313   1.057   2.512   0.295
 2769TIP3    H2 8314   1.183   2.512   0.378
 2770TIP3   OH2 8315   2.752   0.227   2.452
 2770TIP3    H1 8316   2.848   0.234   2.452
 2770TIP3    H2 8317   2.724   0.290   2.519
 2771TIP3   OH2 8318   1.150   2.088   4.037
 2771TIP3    H1 8319   1.070   2.122   3.997
 2771TIP3    H2 8320   1.130   1.996   4.056
 2772TIP3   OH2 8321   0.749   1.447   3.677
 2772TIP3    H1 8322   0.839   1.412   3.673
 2772TIP3    H2 8323   0.761   1.542   3.681
 2773TIP3   OH2 8324   0.194   1.187   4.009
 2773TIP3    H1 8325   0.111   1.197   4.056
 2773TIP3    H2 8326   0.251   1.255   4.044
 2774TIP3   OH2 8327   2.546   5.477   1.488
 2774TIP3    H1 8328   2.545   5.525   1.405
 2774TIP3    H2 8329   2.518   5.541   1.553
 2775TIP3   OH2 8330   2.672   1.368   0.613
 2775TIP3    H1 8331   2.622   1.331   0.686
 2775TIP3    H2 8332   2.655   1.309   0.540
 2776TIP3   OH2 8333   2.793   3.279   0.983
 2776TIP3    H1 8334   2.787   3.293   0.888
 2776TIP3    H2 8335   2.702   3.270   1.011
 2777TIP3   OH2 8336   3.761   0.292   4.093
 2777TIP3    H1 8337   3.826   0.233   4.132
 2777TIP3    H2 8338   3.690   0.234   4.066
 2778TIP3   OH2 8339   3.761   5.702   0.936
 2778TIP3    H1 8340   3.810   5.778   0.906
 2778TIP3    H2 8341   3.797   5.629   0.885
 2779TIP3   OH2 8342   3.146   3.345   4.894
 2779TIP3    H1 8343   3.119   3.404   4.965
 2779TIP3    H2 8344   3.087   3.269   4.902
 2780TIP3   OH2 8345   5.852   4.468   3.458
 2780TIP3    H1 8346   5.777   4.422   3.496
 2780TIP3    H2 8347   5.828   4.483   3.367
 2781TIP3   OH2 8348   4.177   0.867   3.158
 2781TIP3    H1 8349   4.265   0.889   3.127
 2781TIP3    H2 8350   4.192   0.804   3.229
 2782TIP3   OH2 8351   5.462   5.347   4.202
 2782TIP3    H1 8352   5.549   5.377   4.227
 2782TIP3    H2 8353   5.450   5.264   4.248
 2783TIP3   OH2 8354   4.872   5.213   2.633
 2783TIP3    H1 8355   4.872   5.124   2.668
 2783TIP3    H2 8356   4.781   5.227   2.605
 2784TIP3   OH2 8357   4.540   4.850   5.009
 2784TIP3    H1 8358   4.482   4.924   4.991
 2784TIP3    H2 8359   4.627   4.888   5.016
 2785TIP3   OH2 8360   4.058   3.194  -0.010
 2785TIP3    H1 8361   4.026   3.176  -0.099
 2785TIP3    H2 8362   4.046   3.288   0.001
 2786TIP3   OH2 8363   1.525   5.616   2.140
 2786TIP3    H1 8364   1.458   5.675   2.175
 2786TIP3    H2 8365   1.475   5.545   2.100
 2787TIP3   OH2 8366   5.821   4.664   1.634
 2787TIP3    H1 8367   5.859   4.611   1.704
 2787TIP3    H2 8368   5.757   4.606   1.592
 2788TIP3   OH2 8369   3.623   3.647   2.517
 2788TIP3    H1 8370   3.635   3.586   2.590
 2788TIP3    H2 8371   3.532   3.675   2.524
 2789TIP3   OH2 8372   3.528   4.849   1.403
 2789TIP3    H1 8373   3.534   4.915   1.335
 2789TIP3    H2 8374   3.449   4.873   1.452
 2790TIP3   OH2 8375   0.015   1.708   2.866
 2790TIP3    H1 8376  -0.012   1.629   2.819
 2790TIP3    H2 8377   0.025   1.680   2.957
 2791TIP3   OH2 8378   3.080   5.912   3.925
 2791TIP3    H1 8379   3.167   5.879   3.949
 2791TIP3    H2 8380   3.024   5.835   3.930
 2792TIP3   OH2 8381   4.546   5.063   0.700
 2792TIP3    H1 8382   4.546   5.147   0.654
 2792TIP3    H2 8383   4.522   4.999   0.632
 2793TIP3   OH2 8384   1.351   0.944   3.226
 2793TIP3    H1 8385   1.429   0.947   3.170
 2793TIP3    H2 8386   1.293   1.011   3.189
 2794TIP3   OH2 8387   5.516   4.532   1.813
 2794TIP3    H1 8388   5.523   4.537   1.718
 2794TIP3    H2 8389   5.607   4.523   1.843
 2795TIP3   OH2 8390   1.956   4.215   4.777
 2795TIP3    H1 8391   1.898   4.183   4.707
 2795TIP3    H2 8392   1.910   4.292   4.812
 2796TIP3   OH2 8393   0.310   4.203   3.637
 2796TIP3    H1 8394   0.301   4.167   3.549
 2796TIP3    H2 8395   0.389   4.257   3.633
 2797TIP3   OH2 8396   6.198   2.286   3.219
 2797TIP3    H1 8397   6.278   2.241   3.193
 2797TIP3    H2 8398   6.128   2.236   3.178
 2798TIP3   OH2 8399   6.289   3.065   4.351
 2798TIP3    H1 8400   6.343   3.087   4.426
 2798TIP3    H2 8401   6.333   3.106   4.277
 2799TIP3   OH2 8402   1.879   5.026   2.670
 2799TIP3    H1 8403   1.872   4.951   2.610
 2799TIP3    H2 8404   1.957   5.073   2.641
 2800TIP3   OH2 8405   3.834   1.716   0.071
 2800TIP3    H1 8406   3.802   1.679   0.153
 2800TIP3    H2 8407   3.765   1.776   0.043
 2801TIP3   OH2 8408   2.814   4.908   2.389
 2801TIP3    H1 8409   2.773   4.909   2.475
 2801TIP3    H2 8410   2.907   4.895   2.408
 2802TIP3   OH2 8411   5.036   5.987   2.382
 2802TIP3    H1 8412   5.109   5.939   2.342
 2802TIP3    H2 8413   5.070   6.075   2.396
 2803TIP3   OH2 8414   0.080   5.497   0.891
 2803TIP3    H1 8415   0.024   5.428   0.856
 2803TIP3    H2 8416   0.033   5.578   0.870
 2804TIP3   OH2 8417   1.406   0.199   1.270
 2804TIP3    H1 8418   1.463   0.124   1.285
 2804TIP3    H2 8419   1.428   0.262   1.340
 2805TIP3   OH2 8420   0.707   3.481   4.576
 2805TIP3    H1 8421   0.644   3.493   4.647
 2805TIP3    H2 8422   0.792   3.494   4.617
 2806TIP3   OH2 8423   4.005   5.547   2.484
 2806TIP3    H1 8424   3.998   5.627   2.536
 2806TIP3    H2 8425   3.964   5.569   2.400
 2807TIP3   OH2 8426   2.193   4.180   2.218
 2807TIP3    H1 8427   2.261   4.118   2.247
 2807TIP3    H2 8428   2.185   4.163   2.124
 2808TIP3   OH2 8429   0.889   1.184   5.080
 2808TIP3    H1 8430   0.809   1.132   5.077
 2808TIP3    H2 8431   0.952   1.130   5.128
 2809TIP3   OH2 8432   2.247   2.220   2.660
 2809TIP3    H1 8433   2.188   2.146   2.648
 2809TIP3    H2 8434   2.190   2.294   2.683
 2810TIP3   OH2 8435   2.710   5.183   4.471
 2810TIP3    H1 8436   2.769   5.241   4.519
 2810TIP3    H2 8437   2.700   5.107   4.528
 2811TIP3   OH2 8438   1.884   5.359   1.545
 2811TIP3    H1 8439   1.887   5.454   1.544
 2811TIP3    H2 8440   1.964   5.333   1.590
 2812TIP3   OH2 8441   0.447   4.785   2.821
 2812TIP3    H1 8442   0.393   4.762   2.897
 2812TIP3    H2 8443   0.432   4.878   2.808
 2813TIP3   OH2 8444   4.794   2.744   2.297
 2813TIP3    H1 8445   4.762   2.741   2.387
 2813TIP3    H2 8446   4.865   2.809   2.299
 2814TIP3   OH2 8447   1.237   4.840   1.355
 2814TIP3    H1 8448   1.261   4.754   1.318
 2814TIP3    H2 8449   1.313   4.895   1.337
 2815TIP3   OH2 8450   6.236   5.434   1.693
 2815TIP3    H1 8451   6.189   5.351   1.693
 2815TIP3    H2 8452   6.172   5.499   1.664
 2816TIP3   OH2 8453   1.298   5.562   3.936
 2816TIP3    H1 8454   1.318   5.522   4.021
 2816TIP3    H2 8455   1.370   5.534   3.879
 2817TIP3   OH2 8456   4.258   1.858   3.749
 2817TIP3    H1 8457   4.315   1.852   3.672
 2817TIP3    H2 8458   4.218   1.771   3.756
 2818TIP3   OH2 8459   3.682   4.170   3.845
 2818TIP3    H1 8460   3.645   4.168   3.757
 2818TIP3    H2 8461   3.775   4.190   3.832
 2819TIP3   OH2 8462   5.071   1.211   4.824
 2819TIP3    H1 8463   5.146   1.152   4.827
 2819TIP3    H2 8464   5.109   1.298   4.814
 2820TIP3   OH2 8465   0.502   2.412   2.404
 2820TIP3    H1 8466   0.428   2.463   2.373
 2820TIP3    H2 8467   0.535   2.366   2.327
 2821TIP3   OH2 8468   6.096   0.313   4.493
 2821TIP3    H1 8469   6.125   0.221   4.489
 2821TIP3    H2 8470   6.124   0.342   4.580
 2822TIP3   OH2 8471   5.755   0.336   0.323
 2822TIP3    H1 8472   5.776   0.248   0.291
 2822TIP3    H2 8473   5.796   0.339   0.410
 2823TIP3   OH2 8474   4.492   2.650   0.483
 2823TIP3    H1 8475   4.446   2.652   0.399
 2823TIP3    H2 8476   4.577   2.611   0.463
 2824TIP3   OH2 8477   4.226   0.130   2.237
 2824TIP3    H1 8478   4.233   0.205   2.295
 2824TIP3    H2 8479   4.300   0.140   2.176
 2825TIP3   OH2 8480   2.827   3.516   1.359
 2825TIP3    H1 8481   2.832   3.444   1.422
 2825TIP3    H2 8482   2.916   3.524   1.324
 2826TIP3   OH2 8483   4.635   4.859   2.033
 2826TIP3    H1 8484   4.590   4.830   1.954
 2826TIP3    H2 8485   4.697   4.789   2.053
 2827TIP3   OH2 8486   4.529   4.763   1.739
 2827TIP3    H1 8487   4.519   4.684   1.791
 2827TIP3    H2 8488   4.450   4.813   1.755
 2828TIP3   OH2 8489   5.119   3.771   2.878
 2828TIP3    H1 8490   5.184   3.836   2.849
 2828TIP3    H2 8491   5.070   3.750   2.799
 2829TIP3   OH2 8492   4.358   4.002   2.800
 2829TIP3    H1 8493   4.388   4.074   2.854
 2829TIP3    H2 8494   4.434   3.945   2.790
 2830TIP3   OH2 8495   4.826   0.853   3.508
 2830TIP3    H1 8496   4.800   0.940   3.538
 2830TIP3    H2 8497   4.867   0.868   3.423
 2831TIP3   OH2 8498   5.490   3.546   2.948
 2831TIP3    H1 8499   5.512   3.585   2.863
 2831TIP3    H2 8500   5.540   3.598   3.011
 2832TIP3   OH2 8501   1.229   4.809   4.606
 2832TIP3    H1 8502   1.215   4.757   4.685
 2832TIP3    H2 8503   1.142   4.844   4.585
 2833TIP3   OH2 8504   5.209   0.941   3.955
 2833TIP3    H1 8505   5.290   0.977   3.918
 2833TIP3    H2 8506   5.178   1.008   4.016
 2834TIP3   OH2 8507   2.646   3.207   5.114
 2834TIP3    H1 8508   2.609   3.269   5.177
 2834TIP3    H2 8509   2.705   3.260   5.061
 2835TIP3   OH2 8510   5.653   2.869   1.271
 2835TIP3    H1 8511   5.692   2.817   1.341
 2835TIP3    H2 8512   5.663   2.815   1.192
 2836TIP3   OH2 8513   4.878   4.868   0.772
 2836TIP3    H1 8514   4.889   4.930   0.844
 2836TIP3    H2 8515   4.828   4.917   0.706
 2837TIP3   OH2 8516   5.453   1.222   5.164
 2837TIP3    H1 8517   5.375   1.242   5.216
 2837TIP3    H2 8518   5.419   1.176   5.088
 2838TIP3   OH2 8519   1.634   1.301   2.993
 2838TIP3    H1 8520   1.597   1.387   3.014
 2838TIP3    H2 8521   1.715   1.297   3.043
 2839TIP3   OH2 8522   5.823   5.799   3.552
 2839TIP3    H1 8523   5.783   5.746   3.622
 2839TIP3    H2 8524   5.750   5.823   3.496
 2840TIP3   OH2 8525   3.430   4.402   0.510
 2840TIP3    H1 8526   3.503   4.425   0.568
 2840TIP3    H2 8527   3.473   4.378   0.427
 2841TIP3   OH2 8528   1.520   3.217   2.041
 2841TIP3    H1 8529   1.428   3.243   2.050
 2841TIP3    H2 8530   1.518   3.122   2.037
 2842TIP3   OH2 8531   5.696   4.877   4.828
 2842TIP3    H1 8532   5.778   4.901   4.870
 2842TIP3    H2 8533   5.722   4.831   4.748
 2843TIP3   OH2 8534   5.172   1.536   5.248
 2843TIP3    H1 8535   5.195   1.444   5.255
 2843TIP3    H2 8536   5.254   1.583   5.263
 2844TIP3   OH2 8537   0.174   4.585   3.492
 2844TIP3    H1 8538   0.228   4.538   3.428
 2844TIP3    H2 8539   0.154   4.519   3.559
 2845TIP3   OH2 8540   0.722   1.697   0.092
 2845TIP3    H1 8541   0.645   1.644   0.113
 2845TIP3    H2 8542   0.796   1.648   0.127
 2846TIP3   OH2 8543   0.729   4.806   2.023
 2846TIP3    H1 8544   0.749   4.772   1.936
 2846TIP3    H2 8545   0.814   4.826   2.061
 2847TIP3   OH2 8546   5.831   4.876   4.539
 2847TIP3    H1 8547   5.922   4.903   4.528
 2847TIP3    H2 8548   5.780   4.949   4.505
 2848TIP3   OH2 8549   5.203   3.723   4.244
 2848TIP3    H1 8550   5.130   3.771   4.203
 2848TIP3    H2 8551   5.169   3.695   4.329
 2849TIP3   OH2 8552   4.094   1.347   0.550
 2849TIP3    H1 8553   4.039   1.410   0.503
 2849TIP3    H2 8554   4.053   1.262   0.533
 2850TIP3   OH2 8555   4.924   0.045   2.169
 2850TIP3    H1 8556   4.897  -0.033   2.218
 2850TIP3    H2 8557   4.844   0.097   2.163
 2851TIP3   OH2 8558   4.313   4.919   1.841
 2851TIP3    H1 8559   4.312   4.964   1.926
 2851TIP3    H2 8560   4.274   4.982   1.781
 2852TIP3   OH2 8561   5.451   2.769   2.607
 2852TIP3    H1 8562   5.478   2.854   2.641
 2852TIP3    H2 8563   5.524   2.741   2.552
 2853TIP3   OH2 8564   2.501   3.389   2.017
 2853TIP3    H1 8565   2.442   3.314   2.003
 2853TIP3    H2 8566   2.527   3.381   2.109
 2854TIP3   OH2 8567   1.913   0.192   0.992
 2854TIP3    H1 8568   1.949   0.184   1.080
 2854TIP3    H2 8569   1.900   0.102   0.963
 2855TIP3   OH2 8570   4.949   1.407   1.707
 2855TIP3    H1 8571   4.939   1.319   1.744
 2855TIP3    H2 8572   5.038   1.433   1.732
 2856TIP3   OH2 8573   1.006   0.665   2.859
 2856TIP3    H1 8574   1.033   0.575   2.876
 2856TIP3    H2 8575   0.927   0.676   2.912
 2857TIP3   OH2 8576   1.640   1.902   0.283
 2857TIP3    H1 8577   1.656   1.981   0.231
 2857TIP3    H2 8578   1.628   1.934   0.372
 2858TIP3   OH2 8579   4.955   4.537   3.335
 2858TIP3    H1 8580   4.957   4.456   3.284
 2858TIP3    H2 8581   5.037   4.537   3.384
 2859TIP3   OH2 8582   4.511   3.239   4.858
 2859TIP3    H1 8583   4.432   3.281   4.823
 2859TIP3    H2 8584   4.517   3.270   4.948
 2860TIP3   OH2 8585   4.025   5.014   2.081
 2860TIP3    H1 8586   3.979   5.092   2.048
 2860TIP3    H2 8587   4.116   5.042   2.091
 2861TIP3   OH2 8588   4.631   2.351   4.801
 2861TIP3    H1 8589   4.543   2.328   4.772
 2861TIP3    H2 8590   4.689   2.293   4.751
 2862TIP3   OH2 8591   6.062   0.131   2.927
 2862TIP3    H1 8592   6.047   0.130   2.832
 2862TIP3    H2 8593   6.157   0.124   2.936
 2863TIP3   OH2 8594   4.861   3.742   0.093
 2863TIP3    H1 8595   4.775   3.757   0.053
 2863TIP3    H2 8596   4.921   3.797   0.043
 2864TIP3   OH2 8597   3.307   1.594   2.301
 2864TIP3    H1 8598   3.363   1.517   2.286
 2864TIP3    H2 8599   3.237   1.562   2.357
 2865TIP3   OH2 8600   2.527   3.557   0.228
 2865TIP3    H1 8601   2.455   3.496   0.209
 2865TIP3    H2 8602   2.606   3.509   0.203
 2866TIP3   OH2 8603   0.860   2.476   2.256
 2866TIP3    H1 8604   0.790   2.523   2.211
 2866TIP3    H2 8605   0.888   2.535   2.325
 2867TIP3   OH2 8606   6.331   3.970   0.826
 2867TIP3    H1 8607   6.358   3.928   0.744
 2867TIP3    H2 8608   6.354   4.062   0.814
 2868TIP3   OH2 8609   2.886   5.537   2.389
 2868TIP3    H1 8610   2.980   5.522   2.378
 2868TIP3    H2 8611   2.866   5.611   2.332
 2869TIP3   OH2 8612   0.018   5.877   0.670
 2869TIP3    H1 8613   0.008   5.788   0.702
 2869TIP3    H2 8614  -0.019   5.876   0.582
 2870TIP3   OH2 8615   1.208   2.715   1.425
 2870TIP3    H1 8616   1.126   2.671   1.400
 2870TIP3    H2 8617   1.186   2.808   1.423
 2871TIP3   OH2 8618   0.750   2.505   0.077
 2871TIP3    H1 8619   0.671   2.542   0.038
 2871TIP3    H2 8620   0.718   2.437   0.136
 2872TIP3   OH2 8621   1.790   5.665   2.837
 2872TIP3    H1 8622   1.796   5.639   2.929
 2872TIP3    H2 8623   1.871   5.633   2.797
 2873TIP3   OH2 8624   4.572   0.444   1.543
 2873TIP3    H1 8625   4.561   0.432   1.637
 2873TIP3    H2 8626   4.667   0.439   1.529
 2874TIP3   OH2 8627   4.458   5.097   1.084
 2874TIP3    H1 8628   4.421   5.018   1.044
 2874TIP3    H2 8629   4.461   5.161   1.013
 2875TIP3   OH2 8630   1.613   0.352   3.307
 2875TIP3    H1 8631   1.607   0.303   3.389
 2875TIP3    H2 8632   1.654   0.435   3.331
 2876TIP3   OH2 8633   3.064   4.913   4.783
 2876TIP3    H1 8634   3.080   4.983   4.847
 2876TIP3    H2 8635   3.100   4.834   4.824
 2877TIP3   OH2 8636   4.544   4.373   3.217
 2877TIP3    H1 8637   4.596   4.426   3.158
 2877TIP3    H2 8638   4.475   4.432   3.248
 2878TIP3   OH2 8639   3.071   0.706   4.033
 2878TIP3    H1 8640   3.165   0.706   4.017
 2878TIP3    H2 8641   3.032   0.693   3.946
 2879TIP3   OH2 8642   1.527   0.115   2.416
 2879TIP3    H1 8643   1.572   0.036   2.386
 2879TIP3    H2 8644   1.524   0.172   2.340
 2880TIP3   OH2 8645   6.343   4.035   1.363
 2880TIP3    H1 8646   6.358   4.092   1.287
 2880TIP3    H2 8647   6.254   4.055   1.391
 2881TIP3   OH2 8648   2.568   4.102   4.949
 2881TIP3    H1 8649   2.653   4.058   4.941
 2881TIP3    H2 8650   2.579   4.184   4.901
 2882TIP3   OH2 8651   3.010   0.784   3.290
 2882TIP3    H1 8652   3.017   0.817   3.379
 2882TIP3    H2 8653   2.917   0.794   3.267
 2883TIP3   OH2 8654   6.269   4.317   1.713
 2883TIP3    H1 8655   6.234   4.332   1.626
 2883TIP3    H2 8656   6.362   4.341   1.707
 2884TIP3   OH2 8657   2.859   1.055   4.894
 2884TIP3    H1 8658   2.902   1.022   4.815
 2884TIP3    H2 8659   2.889   0.997   4.964
 2885TIP3   OH2 8660   6.175   4.259   0.420
 2885TIP3    H1 8661   6.210   4.348   0.428
 2885TIP3    H2 8662   6.179   4.241   0.326
 2886TIP3   OH2 8663   0.686   0.340   3.043
 2886TIP3    H1 8664   0.700   0.383   2.959
 2886TIP3    H2 8665   0.662   0.412   3.102
 2887TIP3   OH2 8666   5.505   1.972   1.545
 2887TIP3    H1 8667   5.541   1.978   1.456
 2887TIP3    H2 8668   5.421   1.927   1.534
 2888TIP3   OH2 8669   5.830   1.231   3.342
 2888TIP3    H1 8670   5.821   1.239   3.437
 2888TIP3    H2 8671   5.915   1.189   3.329
 2889TIP3   OH2 8672   0.552   5.217   5.187
 2889TIP3    H1 8673   0.582   5.227   5.097
 2889TIP3    H2 8674   0.507   5.132   5.189
 2890TIP3   OH2 8675   4.382   4.330   2.409
 2890TIP3    H1 8676   4.381   4.384   2.488
 2890TIP3    H2 8677   4.471   4.294   2.406
 2891TIP3   OH2 8678   0.259   1.861   2.075
 2891TIP3    H1 8679   0.176   1.862   2.123
 2891TIP3    H2 8680   0.233   1.859   1.982
 2892TIP3   OH2 8681   2.055   3.752   2.767
 2892TIP3    H1 8682   2.073   3.744   2.673
 2892TIP3    H2 8683   2.031   3.844   2.778
 2893TIP3   OH2 8684   4.634   3.440   4.189
 2893TIP3    H1 8685   4.701   3.419   4.123
 2893TIP3    H2 8686   4.577   3.363   4.190
 2894TIP3   OH2 8687   3.822   5.437   4.528
 2894TIP3    H1 8688   3.779   5.512   4.570
 2894TIP3    H2 8689   3.752   5.375   4.511
 2895TIP3   OH2 8690   1.798   0.564   3.151
 2895TIP3    H1 8691   1.828   0.654   3.158
 2895TIP3    H2 8692   1.705   0.571   3.126
 2896TIP3   OH2 8693   4.314   3.946   0.803
 2896TIP3    H1 8694   4.230   3.967   0.845
 2896TIP3    H2 8695   4.298   3.861   0.761
 2897TIP3   OH2 8696   5.005   4.951   2.254
 2897TIP3    H1 8697   5.041   5.033   2.221
 2897TIP3    H2 8698   5.082   4.898   2.275
 2898TIP3   OH2 8699   1.634   4.922   4.707
 2898TIP3    H1 8700   1.570   4.921   4.636
 2898TIP3    H2 8701   1.586   4.890   4.783
 2899TIP3   OH2 8702   1.711   3.933   3.403
 2899TIP3    H1 8703   1.663   3.962   3.326
 2899TIP3    H2 8704   1.691   3.998   3.470
 2900TIP3   OH2 8705   1.151   2.910   5.097
 2900TIP3    H1 8706   1.077   2.884   5.152
 2900TIP3    H2 8707   1.228   2.881   5.146
 2901TIP3   OH2 8708   2.121   0.306   2.855
 2901TIP3    H1 8709   2.062   0.272   2.922
 2901TIP3    H2 8710   2.185   0.358   2.904
 2902TIP3   OH2 8711   4.398   3.434   2.756
 2902TIP3    H1 8712   4.384   3.522   2.721
 2902TIP3    H2 8713   4.483   3.407   2.721
 2903TIP3   OH2 8714   5.340   2.298   2.777
 2903TIP3    H1 8715   5.434   2.286   2.785
 2903TIP3    H2 8716   5.326   2.392   2.789
 2904TIP3   OH2 8717   2.775   3.059   1.715
 2904TIP3    H1 8718   2.819   3.129   1.763
 2904TIP3    H2 8719   2.691   3.048   1.760
 2905TIP3   OH2 8720   5.273   1.017   4.924
 2905TIP3    H1 8721   5.204   0.972   4.972
 2905TIP3    H2 8722   5.353   0.997   4.973
 2906TIP3   OH2 8723   2.057   5.138   0.683
 2906TIP3    H1 8724   2.020   5.142   0.595
 2906TIP3    H2 8725   2.059   5.044   0.704
 2907TIP3   OH2 8726   5.831   2.639   0.304
 2907TIP3    H1 8727   5.849   2.558   0.256
 2907TIP3    H2 8728   5.893   2.638   0.377
 2908TIP3   OH2 8729   3.217   3.364   0.720
 2908TIP3    H1 8730   3.237   3.425   0.791
 2908TIP3    H2 8731   3.299   3.356   0.672
 2909TIP3   OH2 8732   3.359   2.152   0.602
 2909TIP3    H1 8733   3.352   2.247   0.601
 2909TIP3    H2 8734   3.275   2.121   0.568
 2910TIP3   OH2 8735   2.682   5.793   3.608
 2910TIP3    H1 8736   2.765   5.745   3.607
 2910TIP3    H2 8737   2.617   5.728   3.633
 2911TIP3   OH2 8738   1.385   4.738   4.309
 2911TIP3    H1 8739   1.331   4.798   4.258
 2911TIP3    H2 8740   1.441   4.695   4.244
 2912TIP3   OH2 8741   1.713   0.534   2.192
 2912TIP3    H1 8742   1.769   0.581   2.130
 2912TIP3    H2 8743   1.758   0.450   2.205
 2913TIP3   OH2 8744   1.649   5.533   2.636
 2913TIP3    H1 8745   1.671   5.561   2.725
 2913TIP3    H2 8746   1.555   5.548   2.629
 2914TIP3   OH2 8747   3.172   0.340   1.761
 2914TIP3    H1 8748   3.108   0.410   1.746
 2914TIP3    H2 8749   3.163   0.319   1.854
 2915TIP3   OH2 8750   1.940   4.113   5.030
 2915TIP3    H1 8751   1.973   4.023   5.030
 2915TIP3    H2 8752   1.956   4.144   4.941
 2916TIP3   OH2 8753   2.354   3.318   0.197
 2916TIP3    H1 8754   2.429   3.263   0.219
 2916TIP3    H2 8755   2.302   3.321   0.277
 2917TIP3   OH2 8756   1.631   1.018   2.513
 2917TIP3    H1 8757   1.591   0.955   2.574
 2917TIP3    H2 8758   1.620   1.103   2.555
 2918TIP3   OH2 8759   5.597   0.702   2.238
 2918TIP3    H1 8760   5.570   0.612   2.252
 2918TIP3    H2 8761   5.516   0.749   2.221
 2919TIP3   OH2 8762   1.213   0.905   4.994
 2919TIP3    H1 8763   1.124   0.898   4.959
 2919TIP3    H2 8764   1.234   0.817   5.024
 2920TIP3   OH2 8765   5.210   2.926   3.198
 2920TIP3    H1 8766   5.228   3.010   3.241
 2920TIP3    H2 8767   5.194   2.948   3.106
 2921TIP3   OH2 8768   0.258   2.770   1.013
 2921TIP3    H1 8769   0.353   2.764   1.019
 2921TIP3    H2 8770   0.229   2.785   1.103
 2922TIP3   OH2 8771   3.789   2.167   2.176
 2922TIP3    H1 8772   3.728   2.228   2.217
 2922TIP3    H2 8773   3.757   2.080   2.202
 2923TIP3   OH2 8774   0.671   0.675   3.520
 2923TIP3    H1 8775   0.652   0.739   3.589
 2923TIP3    H2 8776   0.696   0.596   3.567
 2924TIP3   OH2 8777   1.368   1.485   2.036
 2924TIP3    H1 8778   1.325   1.418   2.090
 2924TIP3    H2 8779   1.356   1.455   1.946
 2925TIP3   OH2 8780   1.211   3.051   2.920
 2925TIP3    H1 8781   1.124   3.073   2.954
 2925TIP3    H2 8782   1.270   3.107   2.969
 2926TIP3   OH2 8783   5.488   5.376   1.519
 2926TIP3    H1 8784   5.469   5.455   1.569
 2926TIP3    H2 8785   5.511   5.408   1.431
 2927TIP3   OH2 8786   2.096   1.425   3.824
 2927TIP3    H1 8787   2.019   1.413   3.768
 2927TIP3    H2 8788   2.160   1.362   3.791
 2928TIP3   OH2 8789   2.744   4.664   3.952
 2928TIP3    H1 8790   2.828   4.632   3.919
 2928TIP3    H2 8791   2.760   4.681   4.045
 2929TIP3   OH2 8792   6.005   4.977   1.743
 2929TIP3    H1 8793   6.094   4.944   1.736
 2929TIP3    H2 8794   6.008   5.063   1.700
 2930TIP3   OH2 8795   3.465   1.434   0.630
 2930TIP3    H1 8796   3.394   1.384   0.670
 2930TIP3    H2 8797   3.489   1.499   0.697
 2931TIP3   OH2 8798   0.799   3.541   0.028
 2931TIP3    H1 8799   0.718   3.592   0.031
 2931TIP3    H2 8800   0.861   3.592   0.080
 2932TIP3   OH2 8801   2.922   4.944   0.877
 2932TIP3    H1 8802   2.919   4.908   0.966
 2932TIP3    H2 8803   3.010   4.923   0.845
 2933TIP3   OH2 8804   2.090   1.768   3.719
 2933TIP3    H1 8805   2.021   1.724   3.769
 2933TIP3    H2 8806   2.125   1.834   3.779
 2934TIP3   OH2 8807   0.236   1.518   4.394
 2934TIP3    H1 8808   0.279   1.450   4.447
 2934TIP3    H2 8809   0.167   1.552   4.451
 2935TIP3   OH2 8810   0.851   2.414   3.969
 2935TIP3    H1 8811   0.858   2.456   4.054
 2935TIP3    H2 8812   0.898   2.472   3.909
 2936TIP3   OH2 8813   1.894   5.400   3.286
 2936TIP3    H1 8814   1.850   5.402   3.371
 2936TIP3    H2 8815   1.847   5.333   3.236
 2937TIP3   OH2 8816   4.131   2.949   4.971
 2937TIP3    H1 8817   4.063   2.940   4.904
 2937TIP3    H2 8818   4.135   2.863   5.013
 2938TIP3   OH2 8819   5.001   1.876   0.957
 2938TIP3    H1 8820   4.963   1.918   0.879
 2938TIP3    H2 8821   4.948   1.908   1.030
 2939TIP3   OH2 8822   1.410   1.661   5.139
 2939TIP3    H1 8823   1.448   1.732   5.088
 2939TIP3    H2 8824   1.442   1.581   5.096
 2940TIP3   OH2 8825   1.290   1.388   4.401
 2940TIP3    H1 8826   1.366   1.336   4.428
 2940TIP3    H2 8827   1.316   1.429   4.319
 2941TIP3   OH2 8828   6.154   0.581   4.605
 2941TIP3    H1 8829   6.089   0.594   4.536
 2941TIP3    H2 8830   6.231   0.546   4.560
 2942TIP3   OH2 8831   0.278   3.105   5.191
 2942TIP3    H1 8832   0.198   3.095   5.243
 2942TIP3    H2 8833   0.256   3.068   5.105
 2943TIP3   OH2 8834   3.469   2.448   2.028
 2943TIP3    H1 8835   3.432   2.449   2.117
 2943TIP3    H2 8836   3.422   2.378   1.983
 2944TIP3   OH2 8837   0.094   3.436   1.104
 2944TIP3    H1 8838   0.098   3.495   1.028
 2944TIP3    H2 8839   0.134   3.355   1.074
 2945TIP3   OH2 8840   4.787   5.117   2.302
 2945TIP3    H1 8841   4.872   5.093   2.265
 2945TIP3    H2 8842   4.787   5.212   2.302
 2946TIP3   OH2 8843   5.720   1.217   4.736
 2946TIP3    H1 8844   5.722   1.126   4.766
 2946TIP3    H2 8845   5.721   1.269   4.816
 2947TIP3   OH2 8846   2.181   0.412   0.765
 2947TIP3    H1 8847   2.174   0.396   0.671
 2947TIP3    H2 8848   2.156   0.329   0.805
 2948TIP3   OH2 8849   4.558  -0.031   4.208
 2948TIP3    H1 8850   4.599  -0.024   4.122
 2948TIP3    H2 8851   4.627  -0.064   4.265
 2949TIP3   OH2 8852   2.777   1.615   1.624
 2949TIP3    H1 8853   2.831   1.659   1.558
 2949TIP3    H2 8854   2.838   1.563   1.675
 2950TIP3   OH2 8855   4.160   1.757   1.222
 2950TIP3    H1 8856   4.128   1.673   1.255
 2950TIP3    H2 8857   4.166   1.813   1.299
 2951TIP3   OH2 8858   3.981   3.445   0.128
 2951TIP3    H1 8859   3.887   3.426   0.133
 2951TIP3    H2 8860   3.986   3.540   0.137
 2952TIP3   OH2 8861   0.087   4.537   2.036
 2952TIP3    H1 8862   0.158   4.525   1.973
 2952TIP3    H2 8863   0.083   4.631   2.050
 2953TIP3   OH2 8864   6.127   3.200   0.313
 2953TIP3    H1 8865   6.070   3.273   0.289
 2953TIP3    H2 8866   6.192   3.239   0.371
 2954TIP3   OH2 8867   5.404   5.624   0.313
 2954TIP3    H1 8868   5.409   5.645   0.220
 2954TIP3    H2 8869   5.420   5.708   0.357
 2955TIP3   OH2 8870   1.324   3.534   3.688
 2955TIP3    H1 8871   1.291   3.488   3.611
 2955TIP3    H2 8872   1.270   3.613   3.694
 2956TIP3   OH2 8873   0.339   3.401   3.278
 2956TIP3    H1 8874   0.421   3.452   3.279
 2956TIP3    H2 8875   0.271   3.466   3.261
 2957TIP3   OH2 8876   5.354   5.054   3.144
 2957TIP3    H1 8877   5.270   5.084   3.177
 2957TIP3    H2 8878   5.389   4.998   3.213
 2958TIP3   OH2 8879   4.382   4.751   0.167
 2958TIP3    H1 8880   4.351   4.835   0.131
 2958TIP3    H2 8881   4.470   4.770   0.199
 2959TIP3   OH2 8882   5.420   1.914   2.583
 2959TIP3    H1 8883   5.337   1.872   2.607
 2959TIP3    H2 8884   5.473   1.844   2.546
 2960TIP3   OH2 8885   0.594   5.333   2.584
 2960TIP3    H1 8886   0.677   5.366   2.549
 2960TIP3    H2 8887   0.558   5.281   2.512
 2961TIP3   OH2 8888   0.136   4.782   2.688
 2961TIP3    H1 8889   0.133   4.691   2.718
 2961TIP3    H2 8890   0.085   4.830   2.754
 2962TIP3   OH2 8891   0.891   2.909   2.353
 2962TIP3    H1 8892   0.966   2.936   2.300
 2962TIP3    H2 8893   0.815   2.931   2.300
 2963TIP3   OH2 8894   4.583   3.233   0.085
 2963TIP3    H1 8895   4.585   3.138   0.098
 2963TIP3    H2 8896   4.539   3.245   0.000
 2964TIP3   OH2 8897   2.090   4.254   0.959
 2964TIP3    H1 8898   2.130   4.219   1.038
 2964TIP3    H2 8899   2.149   4.324   0.931
 2965TIP3   OH2 8900   3.022   1.965   1.846
 2965TIP3    H1 8901   3.112   1.986   1.868
 2965TIP3    H2 8902   2.972   1.985   1.925
 2966TIP3   OH2 8903   5.903   3.306   4.678
 2966TIP3    H1 8904   5.960   3.249   4.626
 2966TIP3    H2 8905   5.839   3.339   4.615
 2967TIP3   OH2 8906   4.088   5.039   0.932
 2967TIP3    H1 8907   4.048   4.965   0.885
 2967TIP3    H2 8908   4.164   5.063   0.879
 2968TIP3   OH2 8909   0.343   4.527   5.044
 2968TIP3    H1 8910   0.370   4.450   5.096
 2968TIP3    H2 8911   0.272   4.566   5.095
 2969TIP3   OH2 8912   0.984   2.117   3.775
 2969TIP3    H1 8913   1.044   2.185   3.742
 2969TIP3    H2 8914   0.897   2.149   3.752
 2970TIP3   OH2 8915   1.187   0.215   2.813
 2970TIP3    H1 8916   1.177   0.225   2.718
 2970TIP3    H2 8917   1.171   0.122   2.828
 2971TIP3   OH2 8918   0.958   0.789   2.621
 2971TIP3    H1 8919   0.899   0.739   2.566
 2971TIP3    H2 8920   0.979   0.730   2.694
 2972TIP3   OH2 8921   3.446   0.877   1.990
 2972TIP3    H1 8922   3.408   0.793   2.018
 2972TIP3    H2 8923   3.516   0.852   1.929
 2973TIP3   OH2 8924   0.239   0.142   0.218
 2973TIP3    H1 8925   0.291   0.223   0.225
 2973TIP3    H2 8926   0.148   0.172   0.214
 2974TIP3   OH2 8927   0.569   0.333   3.752
 2974TIP3    H1 8928   0.494   0.341   3.811
 2974TIP3    H2 8929   0.605   0.247   3.771
 2975TIP3   OH2 8930   0.438   4.998   1.160
 2975TIP3    H1 8931   0.380   4.941   1.109
 2975TIP3    H2 8932   0.438   4.959   1.247
 2976TIP3   OH2 8933   6.426   5.068   0.796
 2976TIP3    H1 8934   6.397   4.993   0.847
 2976TIP3    H2 8935   6.385   5.143   0.839
 2977TIP3   OH2 8936   2.721   4.136   1.779
 2977TIP3    H1 8937   2.704   4.223   1.816
 2977TIP3    H2 8938   2.802   4.108   1.823
 2978TIP3   OH2 8939   5.479   0.046   1.399
 2978TIP3    H1 8940   5.510  -0.007   1.325
 2978TIP3    H2 8941   5.534   0.018   1.473
 2979TIP3   OH2 8942   2.122   0.151   0.795
 2979TIP3    H1 8943   2.144   0.071   0.746
 2979TIP3    H2 8944   2.041   0.129   0.841
 2980TIP3   OH2 8945   1.671   1.309   3.564
 2980TIP3    H1 8946   1.649   1.330   3.474
 2980TIP3    H2 8947   1.600   1.347   3.615
 2981TIP3   OH2 8948   3.472   1.720   5.035
 2981TIP3    H1 8949   3.471   1.809   5.071
 2981TIP3    H2 8950   3.380   1.698   5.022
 2982TIP3   OH2 8951   3.727   5.385   5.131
 2982TIP3    H1 8952   3.725   5.377   5.036
 2982TIP3    H2 8953   3.762   5.302   5.163
 2983TIP3   OH2 8954   4.486   5.244   0.508
 2983TIP3    H1 8955   4.492   5.183   0.435
 2983TIP3    H2 8956   4.411   5.299   0.488
 2984TIP3   OH2 8957   0.870   2.803   1.997
 2984TIP3    H1 8958   0.965   2.792   2.008
 2984TIP3    H2 8959   0.858   2.811   1.903
 2985TIP3   OH2 8960   5.992   0.041   4.037
 2985TIP3    H1 8961   5.988  -0.033   3.977
 2985TIP3    H2 8962   5.974   0.117   3.982
 2986TIP3   OH2 8963   1.759   1.678   0.705
 2986TIP3    H1 8964   1.696   1.609   0.682
 2986TIP3    H2 8965   1.734   1.752   0.650
 2987TIP3   OH2 8966   2.926   3.823   4.236
 2987TIP3    H1 8967   2.926   3.764   4.311
 2987TIP3    H2 8968   3.018   3.842   4.220
 2988TIP3   OH2 8969   0.963   3.106   3.042
 2988TIP3    H1 8970   0.901   3.033   3.042
 2988TIP3    H2 8971   0.932   3.164   3.111
 2989TIP3   OH2 8972   2.488   1.973   3.241
 2989TIP3    H1 8973   2.537   1.913   3.297
 2989TIP3    H2 8974   2.544   2.050   3.234
 2990TIP3   OH2 8975   0.514   1.938   0.184
 2990TIP3    H1 8976   0.494   1.844   0.173
 2990TIP3    H2 8977   0.459   1.965   0.257
 2991TIP3   OH2 8978   0.082   2.589   1.298
 2991TIP3    H1 8979   0.155   2.595   1.236
 2991TIP3    H2 8980   0.017   2.650   1.264
 2992TIP3   OH2 8981   4.966   2.731   1.507
 2992TIP3    H1 8982   4.920   2.683   1.439
 2992TIP3    H2 8983   4.947   2.683   1.588
 2993TIP3   OH2 8984   1.289   1.329   3.994
 2993TIP3    H1 8985   1.301   1.389   4.067
 2993TIP3    H2 8986   1.336   1.250   4.020
 2994TIP3   OH2 8987   3.107   5.123   0.634
 2994TIP3    H1 8988   3.156   5.045   0.659
 2994TIP3    H2 8989   3.078   5.161   0.717
 2995TIP3   OH2 8990   0.753   0.969   0.074
 2995TIP3    H1 8991   0.743   1.012  -0.012
 2995TIP3    H2 8992   0.675   0.995   0.123
 2996TIP3   OH2 8993   1.378   5.545   4.851
 2996TIP3    H1 8994   1.295   5.554   4.897
 2996TIP3    H2 8995   1.427   5.624   4.874
 2997TIP3   OH2 8996   2.107   2.067   3.023
 2997TIP3    H1 8997   2.038   2.010   3.058
 2997TIP3    H2 8998   2.153   2.012   2.960
 2998TIP3   OH2 8999   3.398   1.003   0.536
 2998TIP3    H1 9000   3.410   1.065   0.464
 2998TIP3    H2 9001   3.487   0.976   0.559
 2999TIP3   OH2 9002   4.608   1.406   0.840
 2999TIP3    H1 9003   4.634   1.493   0.869
 2999TIP3    H2 9004   4.612   1.409   0.745
 3000TIP3   OH2 9005   4.938   5.119   3.862
 3000TIP3    H1 9006   4.974   5.153   3.944
 3000TIP3    H2 9007   4.887   5.043   3.888
 3001TIP3   OH2 9008   0.363   3.868   2.675
 3001TIP3    H1 9009   0.270   3.858   2.696
 3001TIP3    H2 9010   0.407   3.804   2.731
 3002TIP3   OH2 9011   1.357   2.832   3.527
 3002TIP3    H1 9012   1.353   2.788   3.443
 3002TIP3    H2 9013   1.426   2.788   3.575
 3003TIP3   OH2 9014   2.729   1.721   0.307
 3003TIP3    H1 9015   2.693   1.800   0.267
 3003TIP3    H2 9016   2.824   1.732   0.300
 3004TIP3   OH2 9017   5.233   1.802   1.123
 3004TIP3    H1 9018   5.217   1.806   1.218
 3004TIP3    H2 9019   5.153   1.837   1.084
 3005TIP3   OH2 9020   5.120   4.043   3.198
 3005TIP3    H1 9021   5.209   4.036   3.162
 3005TIP3    H2 9022   5.070   3.976   3.150
 3006TIP3   OH2 9023   2.316   3.259   0.761
 3006TIP3    H1 9024   2.263   3.184   0.733
 3006TIP3    H2 9025   2.264   3.299   0.831
 3007TIP3   OH2 9026   3.725   1.149   0.107
 3007TIP3    H1 9027   3.708   1.056   0.118
 3007TIP3    H2 9028   3.643   1.184   0.072
 3008TIP3   OH2 9029   5.937   2.424   5.002
 3008TIP3    H1 9030   5.969   2.485   5.069
 3008TIP3    H2 9031   5.845   2.449   4.989
 3009TIP3   OH2 9032   1.530   0.529   4.492
 3009TIP3    H1 9033   1.526   0.439   4.460
 3009TIP3    H2 9034   1.441   0.547   4.524
 3010TIP3   OH2 9035   5.586   0.575   0.287
 3010TIP3    H1 9036   5.626   0.489   0.281
 3010TIP3    H2 9037   5.508   0.568   0.232
 3011TIP3   OH2 9038   0.344   4.936   0.021
 3011TIP3    H1 9039   0.385   4.893   0.096
 3011TIP3    H2 9040   0.371   4.883  -0.054
 3012TIP3   OH2 9041   0.994   2.476   3.464
 3012TIP3    H1 9042   0.904   2.450   3.442
 3012TIP3    H2 9043   0.984   2.550   3.523
 3013TIP3   OH2 9044   2.611   1.098   2.917
 3013TIP3    H1 9045   2.560   1.136   2.988
 3013TIP3    H2 9046   2.694   1.146   2.918
 3014TIP3   OH2 9047   1.445   5.270   0.078
 3014TIP3    H1 9048   1.406   5.258   0.165
 3014TIP3    H2 9049   1.402   5.348   0.043
 3015TIP3   OH2 9050   2.917   0.856   3.531
 3015TIP3    H1 9051   2.939   0.933   3.583
 3015TIP3    H2 9052   2.821   0.849   3.539
 3016TIP3   OH2 9053   2.374   4.814   1.270
 3016TIP3    H1 9054   2.390   4.899   1.310
 3016TIP3    H2 9055   2.337   4.761   1.340
 3017TIP3   OH2 9056   1.882   5.913   4.370
 3017TIP3    H1 9057   1.967   5.951   4.348
 3017TIP3    H2 9058   1.842   5.976   4.431
 3018TIP3   OH2 9059   0.246   4.092   3.392
 3018TIP3    H1 9060   0.171   4.048   3.353
 3018TIP3    H2 9061   0.319   4.074   3.332
 3019TIP3   OH2 9062   0.122   0.379   2.835
 3019TIP3    H1 9063   0.126   0.465   2.876
 3019TIP3    H2 9064   0.213   0.352   2.828
 3020TIP3   OH2 9065   4.851   3.294   0.461
 3020TIP3    H1 9066   4.870   3.308   0.368
 3020TIP3    H2 9067   4.935   3.309   0.504
 3021TIP3   OH2 9068   1.188   2.227   0.135
 3021TIP3    H1 9069   1.206   2.152   0.077
 3021TIP3    H2 9070   1.173   2.187   0.220
 3022TIP3   OH2 9071   4.321   3.165   2.271
 3022TIP3    H1 9072   4.332   3.099   2.339
 3022TIP3    H2 9073   4.405   3.211   2.268
 3023TIP3   OH2 9074   4.858   3.015   0.308
 3023TIP3    H1 9075   4.852   3.092   0.363
 3023TIP3    H2 9076   4.792   3.029   0.239
 3024TIP3   OH2 9077   1.937   1.384   1.526
 3024TIP3    H1 9078   1.920   1.427   1.610
 3024TIP3    H2 9079   2.005   1.320   1.545
 3025TIP3   OH2 9080   0.117   2.342   4.274
 3025TIP3    H1 9081   0.135   2.291   4.195
 3025TIP3    H2 9082   0.053   2.408   4.247
 3026TIP3   OH2 9083   3.728   1.760   4.271
 3026TIP3    H1 9084   3.700   1.819   4.201
 3026TIP3    H2 9085   3.718   1.672   4.235
 3027TIP3   OH2 9086   0.029   1.662   4.534
 3027TIP3    H1 9087  -0.046   1.720   4.521
 3027TIP3    H2 9088   0.037   1.654   4.630
 3028TIP3   OH2 9089   0.805   5.173   4.415
 3028TIP3    H1 9090   0.809   5.105   4.348
 3028TIP3    H2 9091   0.896   5.195   4.433
 3029TIP3   OH2 9092   3.394   0.355   3.377
 3029TIP3    H1 9093   3.309   0.399   3.370
 3029TIP3    H2 9094   3.448   0.416   3.427
 3030TIP3   OH2 9095   4.636   2.933   1.972
 3030TIP3    H1 9096   4.697   2.982   2.027
 3030TIP3    H2 9097   4.664   2.953   1.882
 3031TIP3   OH2 9098   3.750   1.331   3.045
 3031TIP3    H1 9099   3.808   1.385   3.099
 3031TIP3    H2 9100   3.713   1.393   2.981
 3032TIP3   OH2 9101   2.116   4.252   2.495
 3032TIP3    H1 9102   2.145   4.343   2.505
 3032TIP3    H2 9103   2.100   4.242   2.401
 3033TIP3   OH2 9104   5.058   1.982   3.198
 3033TIP3    H1 9105   5.107   2.013   3.122
 3033TIP3    H2 9106   5.089   2.036   3.271
 3034TIP3   OH2 9107   1.595   4.711   4.126
 3034TIP3    H1 9108   1.679   4.757   4.133
 3034TIP3    H2 9109   1.604   4.656   4.049
 3035TIP3   OH2 9110   6.092   1.060   4.829
 3035TIP3    H1 9111   6.069   1.128   4.892
 3035TIP3    H2 9112   6.180   1.084   4.799
 3036TIP3   OH2 9113   2.007   3.475   3.298
 3036TIP3    H1 9114   2.102   3.477   3.313
 3036TIP3    H2 9115   1.976   3.404   3.355
 3037TIP3   OH2 9116   0.187   3.734   2.183
 3037TIP3    H1 9117   0.148   3.820   2.163
 3037TIP3    H2 9118   0.188   3.731   2.279
 3038TIP3   OH2 9119   1.885   0.790   3.597
 3038TIP3    H1 9120   1.954   0.727   3.612
 3038TIP3    H2 9121   1.816   0.766   3.658
 3039TIP3   OH2 9122   0.660   2.140   0.076
 3039TIP3    H1 9123   0.644   2.221   0.125
 3039TIP3    H2 9124   0.626   2.070   0.133
 3040TIP3   OH2 9125   5.068   3.287   2.319
 3040TIP3    H1 9126   4.976   3.310   2.306
 3040TIP3    H2 9127   5.100   3.353   2.380
 3041TIP3   OH2 9128   0.173   1.479   2.167
 3041TIP3    H1 9129   0.255   1.476   2.118
 3041TIP3    H2 9130   0.106   1.494   2.100
 3042TIP3   OH2 9131   1.177   4.871   0.942
 3042TIP3    H1 9132   1.235   4.936   0.983
 3042TIP3    H2 9133   1.235   4.819   0.887
 3043TIP3   OH2 9134   1.729   4.341   1.476
 3043TIP3    H1 9135   1.717   4.250   1.501
 3043TIP3    H2 9136   1.809   4.368   1.522
 3044TIP3   OH2 9137   1.560   3.269   2.745
 3044TIP3    H1 9138   1.500   3.194   2.741
 3044TIP3    H2 9139   1.594   3.277   2.656
 3045TIP3   OH2 9140   4.168   0.155   4.349
 3045TIP3    H1 9141   4.118   0.234   4.372
 3045TIP3    H2 9142   4.256   0.173   4.380
 3046TIP3   OH2 9143   2.393   1.937   0.448
 3046TIP3    H1 9144   2.409   1.947   0.354
 3046TIP3    H2 9145   2.341   2.013   0.472
 3047TIP3   OH2 9146   2.560   0.691   1.906
 3047TIP3    H1 9147   2.476   0.684   1.860
 3047TIP3    H2 9148   2.621   0.641   1.851
 3048TIP3   OH2 9149   3.622   1.666   1.120
 3048TIP3    H1 9150   3.612   1.722   1.043
 3048TIP3    H2 9151   3.694   1.705   1.169
 3049TIP3   OH2 9152   0.928   3.306   1.498
 3049TIP3    H1 9153   0.887   3.258   1.426
 3049TIP3    H2 9154   0.944   3.240   1.565
 3050TIP3   OH2 9155   0.742   0.862   1.648
 3050TIP3    H1 9156   0.751   0.780   1.599
 3050TIP3    H2 9157   0.696   0.921   1.588
 3051TIP3   OH2 9158   0.486   3.330   1.939
 3051TIP3    H1 9159   0.415   3.335   1.874
 3051TIP3    H2 9160   0.534   3.250   1.916
 3052TIP3   OH2 9161   5.707   3.713   5.140
 3052TIP3    H1 9162   5.639   3.654   5.171
 3052TIP3    H2 9163   5.676   3.745   5.055
 3053TIP3   OH2 9164   0.612   0.838   4.137
 3053TIP3    H1 9165   0.529   0.875   4.106
 3053TIP3    H2 9166   0.591   0.746   4.154
 3054TIP3   OH2 9167   6.359   2.984   0.905
 3054TIP3    H1 9168   6.410   2.939   0.839
 3054TIP3    H2 9169   6.299   2.917   0.939
 3055TIP3   OH2 9170   3.375   5.910   3.861
 3055TIP3    H1 9171   3.310   5.972   3.826
 3055TIP3    H2 9172   3.458   5.941   3.825
 3056TIP3   OH2 9173   6.355   0.254   1.296
 3056TIP3    H1 9174   6.362   0.289   1.208
 3056TIP3    H2 9175   6.326   0.328   1.350
 3057TIP3   OH2 9176   0.537   1.356   1.133
 3057TIP3    H1 9177   0.629   1.347   1.108
 3057TIP3    H2 9178   0.539   1.387   1.223
 3058TIP3   OH2 9179   1.291   4.608   2.152
 3058TIP3    H1 9180   1.208   4.559   2.157
 3058TIP3    H2 9181   1.321   4.594   2.062
 3059TIP3   OH2 9182   5.854   5.865   0.087
 3059TIP3    H1 9183   5.945   5.890   0.077
 3059TIP3    H2 9184   5.849   5.829   0.176
 3060TIP3   OH2 9185   2.931   3.262   0.734
 3060TIP3    H1 9186   2.934   3.340   0.677
 3060TIP3    H2 9187   2.987   3.284   0.808
 3061TIP3   OH2 9188   5.055   2.859   0.908
 3061TIP3    H1 9189   4.967   2.848   0.943
 3061TIP3    H2 9190   5.088   2.769   0.898
 3062TIP3   OH2 9191   0.658   3.130   0.325
 3062TIP3    H1 9192   0.684   3.171   0.407
 3062TIP3    H2 9193   0.597   3.192   0.285
 3063TIP3   OH2 9194   4.805   4.771   1.699
 3063TIP3    H1 9195   4.712   4.789   1.705
 3063TIP3    H2 9196   4.830   4.803   1.612
 3064TIP3   OH2 9197   5.684   1.397   0.237
 3064TIP3    H1 9198   5.622   1.354   0.179
 3064TIP3    H2 9199   5.631   1.458   0.289
 3065TIP3   OH2 9200   6.107   1.448   3.092
 3065TIP3    H1 9201   6.121   1.408   3.006
 3065TIP3    H2 9202   6.191   1.439   3.136
 3066TIP3   OH2 9203   1.600   0.693   5.149
 3066TIP3    H1 9204   1.531   0.698   5.215
 3066TIP3    H2 9205   1.600   0.602   5.120
 3067TIP3   OH2 9206   5.991   1.326   0.225
 3067TIP3    H1 9207   5.910   1.310   0.176
 3067TIP3    H2 9208   6.054   1.265   0.186
 3068TIP3   OH2 9209   6.415   3.731   0.958
 3068TIP3    H1 9210   6.424   3.745   1.052
 3068TIP3    H2 9211   6.374   3.811   0.926
 3069TIP3   OH2 9212   0.117   2.298   1.456
 3069TIP3    H1 9213   0.141   2.212   1.421
 3069TIP3    H2 9214   0.066   2.339   1.387
 3070TIP3   OH2 9215   4.902   0.746   4.376
 3070TIP3    H1 9216   4.898   0.781   4.287
 3070TIP3    H2 9217   4.963   0.804   4.422
 3071TIP3   OH2 9218   0.100   0.117   2.856
 3071TIP3    H1 9219   0.090   0.098   2.763
 3071TIP3    H2 9220   0.119   0.211   2.860
 3072TIP3   OH2 9221   0.191   5.136   4.761
 3072TIP3    H1 9222   0.140   5.073   4.710
 3072TIP3    H2 9223   0.130   5.167   4.829
 3073TIP3   OH2 9224   4.279   1.630   2.549
 3073TIP3    H1 9225   4.232   1.654   2.470
 3073TIP3    H2 9226   4.292   1.713   2.595
 3074TIP3   OH2 9227   1.437   1.711   0.200
 3074TIP3    H1 9228   1.510   1.772   0.193
 3074TIP3    H2 9229   1.370   1.759   0.248
 3075TIP3   OH2 9230   4.167   2.293   1.122
 3075TIP3    H1 9231   4.139   2.384   1.121
 3075TIP3    H2 9232   4.094   2.245   1.160
 3076TIP3   OH2 9233   1.174   0.250   2.549
 3076TIP3    H1 9234   1.116   0.208   2.485
 3076TIP3    H2 9235   1.174   0.343   2.524
 3077TIP3   OH2 9236   1.997   4.223   3.076
 3077TIP3    H1 9237   1.907   4.208   3.103
 3077TIP3    H2 9238   1.991   4.250   2.984
 3078TIP3   OH2 9239   4.247   3.548   3.600
 3078TIP3    H1 9240   4.188   3.540   3.675
 3078TIP3    H2 9241   4.333   3.526   3.635
 3079TIP3   OH2 9242   0.459   1.491   4.830
 3079TIP3    H1 9243   0.368   1.513   4.850
 3079TIP3    H2 9244   0.497   1.467   4.914
 3080TIP3   OH2 9245   1.080   5.198   4.519
 3080TIP3    H1 9246   1.164   5.155   4.503
 3080TIP3    H2 9247   1.092   5.288   4.490
 3081TIP3   OH2 9248   1.746   4.942   0.891
 3081TIP3    H1 9249   1.734   4.955   0.797
 3081TIP3    H2 9250   1.664   4.905   0.922
 3082TIP3   OH2 9251   2.151   3.233   4.010
 3082TIP3    H1 9252   2.231   3.285   4.007
 3082TIP3    H2 9253   2.112   3.245   3.923
 3083TIP3   OH2 9254   0.521   4.331   3.827
 3083TIP3    H1 9255   0.428   4.352   3.843
 3083TIP3    H2 9256   0.544   4.270   3.898
 3084TIP3   OH2 9257   0.507   2.222   4.173
 3084TIP3    H1 9258   0.544   2.141   4.138
 3084TIP3    H2 9259   0.531   2.221   4.265
 3085TIP3   OH2 9260   3.791   2.342   2.527
 3085TIP3    H1 9261   3.722   2.296   2.576
 3085TIP3    H2 9262   3.744   2.390   2.459
 3086TIP3   OH2 9263   2.327   4.091   3.011
 3086TIP3    H1 9264   2.341   4.025   3.079
 3086TIP3    H2 9265   2.409   4.091   2.960
 3087TIP3   OH2 9266   1.938   3.553   4.543
 3087TIP3    H1 9267   1.966   3.462   4.546
 3087TIP3    H2 9268   1.847   3.550   4.512
 3088TIP3   OH2 9269   2.955   1.848   4.846
 3088TIP3    H1 9270   2.923   1.924   4.799
 3088TIP3    H2 9271   2.886   1.783   4.838
 3089TIP3   OH2 9272   1.034   1.399   3.891
 3089TIP3    H1 9273   1.127   1.388   3.909
 3089TIP3    H2 9274   1.005   1.313   3.860
 3090TIP3   OH2 9275   3.068   5.254   0.392
 3090TIP3    H1 9276   3.080   5.183   0.455
 3090TIP3    H2 9277   3.150   5.303   0.396
 3091TIP3   OH2 9278   0.682   4.827   4.668
 3091TIP3    H1 9279   0.687   4.913   4.628
 3091TIP3    H2 9280   0.696   4.843   4.762
 3092TIP3   OH2 9281   2.393   1.353   0.062
 3092TIP3    H1 9282   2.478   1.313   0.080
 3092TIP3    H2 9283   2.337   1.280   0.035
 3093TIP3   OH2 9284   4.497   1.091   2.655
 3093TIP3    H1 9285   4.549   1.065   2.578
 3093TIP3    H2 9286   4.543   1.167   2.690
 3094TIP3   OH2 9287   3.011   1.337   1.184
 3094TIP3    H1 9288   2.998   1.243   1.194
 3094TIP3    H2 9289   3.045   1.348   1.095
 3095TIP3   OH2 9290   1.090   1.971   0.696
 3095TIP3    H1 9291   1.013   1.919   0.721
 3095TIP3    H2 9292   1.103   2.032   0.768
 3096TIP3   OH2 9293   2.393   2.022   1.555
 3096TIP3    H1 9294   2.381   1.962   1.481
 3096TIP3    H2 9295   2.487   2.030   1.565
 3097TIP3   OH2 9296   0.397   4.721   4.014
 3097TIP3    H1 9297   0.327   4.704   3.951
 3097TIP3    H2 9298   0.403   4.642   4.067
 3098TIP3   OH2 9299   2.741   4.999   3.043
 3098TIP3    H1 9300   2.819   4.962   3.001
 3098TIP3    H2 9301   2.740   5.091   3.014
 3099TIP3   OH2 9302   1.894   3.966   2.339
 3099TIP3    H1 9303   1.850   3.943   2.421
 3099TIP3    H2 9304   1.891   4.062   2.336
 3100TIP3   OH2 9305   3.480   1.893   1.451
 3100TIP3    H1 9306   3.573   1.909   1.437
 3100TIP3    H2 9307   3.460   1.815   1.399
 3101TIP3   OH2 9308   2.124   3.460   4.256
 3101TIP3    H1 9309   2.199   3.462   4.314
 3101TIP3    H2 9310   2.161   3.458   4.168
 3102TIP3   OH2 9311   3.755   1.641   0.318
 3102TIP3    H1 9312   3.676   1.679   0.278
 3102TIP3    H2 9313   3.734   1.548   0.329
 3103TIP3   OH2 9314   1.689   4.836   3.051
 3103TIP3    H1 9315   1.764   4.895   3.042
 3103TIP3    H2 9316   1.631   4.880   3.114
 3104TIP3   OH2 9317   5.255   2.956   1.675
 3104TIP3    H1 9318   5.350   2.948   1.674
 3104TIP3    H2 9319   5.230   2.959   1.583
 3105TIP3   OH2 9320   1.411   0.159   3.205
 3105TIP3    H1 9321   1.448   0.120   3.125
 3105TIP3    H2 9322   1.478   0.222   3.233
 3106TIP3   OH2 9323   4.621   4.352   3.838
 3106TIP3    H1 9324   4.683   4.351   3.766
 3106TIP3    H2 9325   4.615   4.261   3.866
 3107TIP3   OH2 9326   2.416   1.113   0.311
 3107TIP3    H1 9327   2.353   1.128   0.241
 3107TIP3    H2 9328   2.428   1.018   0.312
 3108TIP3   OH2 9329   1.991   2.690   2.459
 3108TIP3    H1 9330   1.987   2.685   2.363
 3108TIP3    H2 9331   2.005   2.782   2.478
 3109TIP3   OH2 9332   2.564   0.284   0.784
 3109TIP3    H1 9333   2.519   0.237   0.854
 3109TIP3    H2 9334   2.657   0.282   0.810
 3110TIP3   OH2 9335   3.615   4.657   4.823
 3110TIP3    H1 9336   3.632   4.627   4.734
 3110TIP3    H2 9337   3.624   4.752   4.818
 3111TIP3   OH2 9338   4.145   2.649   2.897
 3111TIP3    H1 9339   4.145   2.556   2.919
 3111TIP3    H2 9340   4.059   2.680   2.925
 3112TIP3   OH2 9341   0.048   3.591   0.128
 3112TIP3    H1 9342   0.020   3.663   0.072
 3112TIP3    H2 9343   0.023   3.512   0.079
 3113TIP3   OH2 9344   1.579   3.730   0.884
 3113TIP3    H1 9345   1.668   3.718   0.852
 3113TIP3    H2 9346   1.588   3.762   0.973
 3114TIP3   OH2 9347   2.961   3.677   4.479
 3114TIP3    H1 9348   3.011   3.631   4.547
 3114TIP3    H2 9349   2.943   3.763   4.517
 3115TIP3   OH2 9350   1.680   1.402   4.146
 3115TIP3    H1 9351   1.707   1.383   4.235
 3115TIP3    H2 9352   1.705   1.324   4.096
 3116TIP3   OH2 9353   3.831   5.065   2.594
 3116TIP3    H1 9354   3.881   5.095   2.670
 3116TIP3    H2 9355   3.810   4.974   2.614
 3117TIP3   OH2 9356   5.006   3.801   4.910
 3117TIP3    H1 9357   4.999   3.859   4.834
 3117TIP3    H2 9358   5.021   3.861   4.984
 3118TIP3   OH2 9359   0.095   3.671   2.464
 3118TIP3    H1 9360   0.049   3.595   2.430
 3118TIP3    H2 9361   0.025   3.733   2.487
 3119TIP3   OH2 9362   0.793   1.181   4.461
 3119TIP3    H1 9363   0.823   1.246   4.524
 3119TIP3    H2 9364   0.869   1.169   4.403
 3120TIP3   OH2 9365   4.990   3.406   1.437
 3120TIP3    H1 9366   4.924   3.368   1.380
 3120TIP3    H2 9367   4.956   3.393   1.526
 3121TIP3   OH2 9368   2.856   5.868   1.204
 3121TIP3    H1 9369   2.926   5.808   1.178
 3121TIP3    H2 9370   2.902   5.945   1.239
 3122TIP3   OH2 9371   5.230   1.643   0.369
 3122TIP3    H1 9372   5.208   1.609   0.283
 3122TIP3    H2 9373   5.218   1.569   0.428
 3123TIP3   OH2 9374   0.246   0.822   4.789
 3123TIP3    H1 9375   0.243   0.825   4.885
 3123TIP3    H2 9376   0.157   0.797   4.763
 3124TIP3   OH2 9377   2.421   3.341   4.136
 3124TIP3    H1 9378   2.465   3.256   4.135
 3124TIP3    H2 9379   2.448   3.383   4.055
 3125TIP3   OH2 9380   3.627   0.539   4.935
 3125TIP3    H1 9381   3.536   0.529   4.964
 3125TIP3    H2 9382   3.627   0.618   4.882
 3126TIP3   OH2 9383   4.890   2.582   1.719
 3126TIP3    H1 9384   4.967   2.574   1.775
 3126TIP3    H2 9385   4.819   2.606   1.779
 3127TIP3   OH2 9386   0.119   3.915   0.526
 3127TIP3    H1 9387   0.181   3.845   0.506
 3127TIP3    H2 9388   0.085   3.942   0.440
 3128TIP3   OH2 9389   1.259   0.369   3.854
 3128TIP3    H1 9390   1.261   0.464   3.850
 3128TIP3    H2 9391   1.273   0.340   3.764
 3129TIP3   OH2 9392   2.155   5.394   2.449
 3129TIP3    H1 9393   2.157   5.452   2.373
 3129TIP3    H2 9394   2.177   5.451   2.523
 3130TIP3   OH2 9395   3.324   3.349   1.899
 3130TIP3    H1 9396   3.312   3.440   1.872
 3130TIP3    H2 9397   3.413   3.345   1.933
 3131TIP3   OH2 9398   1.420   2.098   3.905
 3131TIP3    H1 9399   1.419   2.006   3.878
 3131TIP3    H2 9400   1.362   2.101   3.980
 3132TIP3   OH2 9401   2.255   1.282   4.271
 3132TIP3    H1 9402   2.305   1.275   4.190
 3132TIP3    H2 9403   2.237   1.192   4.297
 3133TIP3   OH2 9404   6.039   4.615   5.014
 3133TIP3    H1 9405   6.018   4.642   5.104
 3133TIP3    H2 9406   6.007   4.525   5.008
 3134TIP3   OH2 9407   5.319   3.167   3.276
 3134TIP3    H1 9408   5.348   3.250   3.313
 3134TIP3    H2 9409   5.340   3.174   3.183
 3135TIP3   OH2 9410   4.019   5.756   1.137
 3135TIP3    H1 9411   3.977   5.674   1.111
 3135TIP3    H2 9412   4.023   5.808   1.056
 3136TIP3   OH2 9413   0.158   5.274   4.250
 3136TIP3    H1 9414   0.158   5.308   4.161
 3136TIP3    H2 9415   0.238   5.222   4.256
 3137TIP3   OH2 9416   4.237   3.398   4.197
 3137TIP3    H1 9417   4.194   3.483   4.186
 3137TIP3    H2 9418   4.188   3.340   4.139
 3138TIP3   OH2 9419   5.758   2.738   5.065
 3138TIP3    H1 9420   5.763   2.745   5.160
 3138TIP3    H2 9421   5.710   2.656   5.050
 3139TIP3   OH2 9422   2.085   1.092   4.867
 3139TIP3    H1 9423   2.008   1.049   4.903
 3139TIP3    H2 9424   2.061   1.184   4.861
 3140TIP3   OH2 9425   5.799   4.987   3.968
 3140TIP3    H1 9426   5.878   4.937   3.987
 3140TIP3    H2 9427   5.753   4.992   4.052
 3141TIP3   OH2 9428   2.986   5.953   2.413
 3141TIP3    H1 9429   2.935   5.873   2.416
 3141TIP3    H2 9430   2.922   6.023   2.421
 3142TIP3   OH2 9431   2.456   2.906   3.896
 3142TIP3    H1 9432   2.362   2.923   3.901
 3142TIP3    H2 9433   2.470   2.879   3.805
 3143TIP3   OH2 9434   5.326   0.484   0.674
 3143TIP3    H1 9435   5.303   0.394   0.698
 3143TIP3    H2 9436   5.292   0.495   0.585
 3144TIP3   OH2 9437   4.787   5.972   3.996
 3144TIP3    H1 9438   4.844   5.895   4.005
 3144TIP3    H2 9439   4.818   6.017   3.918
 3145TIP3   OH2 9440   2.712   5.553   2.066
 3145TIP3    H1 9441   2.713   5.578   1.974
 3145TIP3    H2 9442   2.747   5.464   2.068
 3146TIP3   OH2 9443   3.113   1.823   0.498
 3146TIP3    H1 9444   3.191   1.784   0.459
 3146TIP3    H2 9445   3.121   1.804   0.592
 3147TIP3   OH2 9446   5.367   4.555   4.039
 3147TIP3    H1 9447   5.302   4.608   4.085
 3147TIP3    H2 9448   5.451   4.598   4.057
 3148TIP3   OH2 9449   2.381   5.692   1.219
 3148TIP3    H1 9450   2.451   5.757   1.214
 3148TIP3    H2 9451   2.374   5.658   1.130
 3149TIP3   OH2 9452   6.369   1.183   4.381
 3149TIP3    H1 9453   6.366   1.159   4.288
 3149TIP3    H2 9454   6.326   1.269   4.385
 3150TIP3   OH2 9455   1.350   3.460   2.073
 3150TIP3    H1 9456   1.439   3.494   2.059
 3150TIP3    H2 9457   1.293   3.528   2.037
 3151TIP3   OH2 9458   2.587   1.639   2.296
 3151TIP3    H1 9459   2.524   1.620   2.364
 3151TIP3    H2 9460   2.547   1.708   2.243
 3152TIP3   OH2 9461   6.242   2.919   1.557
 3152TIP3    H1 9462   6.222   2.838   1.603
 3152TIP3    H2 9463   6.161   2.942   1.512
 3153TIP3   OH2 9464   6.358   0.163   0.612
 3153TIP3    H1 9465   6.313   0.079   0.617
 3153TIP3    H2 9466   6.382   0.183   0.702
 3154TIP3   OH2 9467   3.822   5.095   1.688
 3154TIP3    H1 9468   3.909   5.101   1.651
 3154TIP3    H2 9469   3.766   5.141   1.626
 3155TIP3   OH2 9470   1.357   3.657   0.708
 3155TIP3    H1 9471   1.451   3.655   0.727
 3155TIP3    H2 9472   1.322   3.726   0.764
 3156TIP3   OH2 9473   4.139   2.527   4.209
 3156TIP3    H1 9474   4.152   2.524   4.304
 3156TIP3    H2 9475   4.088   2.607   4.195
 3157TIP3   OH2 9476   4.064   3.827   2.769
 3157TIP3    H1 9477   4.117   3.752   2.795
 3157TIP3    H2 9478   4.126   3.900   2.762
 3158TIP3   OH2 9479   2.928   1.498   1.820
 3158TIP3    H1 9480   3.001   1.438   1.804
 3158TIP3    H2 9481   2.959   1.555   1.891
 3159TIP3   OH2 9482   4.137   5.540   2.935
 3159TIP3    H1 9483   4.176   5.463   2.892
 3159TIP3    H2 9484   4.166   5.613   2.881
 3160TIP3   OH2 9485   0.449   2.172   1.781
 3160TIP3    H1 9486   0.381   2.115   1.817
 3160TIP3    H2 9487   0.488   2.121   1.710
 3161TIP3   OH2 9488   0.130   5.624   3.554
 3161TIP3    H1 9489   0.139   5.539   3.511
 3161TIP3    H2 9490   0.187   5.682   3.504
 3162TIP3   OH2 9491   5.458   2.634   0.302
 3162TIP3    H1 9492   5.472   2.704   0.365
 3162TIP3    H2 9493   5.488   2.670   0.219
 3163TIP3   OH2 9494   4.350   1.040   0.720
 3163TIP3    H1 9495   4.337   0.946   0.727
 3163TIP3    H2 9496   4.284   1.078   0.779
 3164TIP3   OH2 9497   3.413   1.294   1.858
 3164TIP3    H1 9498   3.439   1.259   1.943
 3164TIP3    H2 9499   3.426   1.221   1.797
 3165TIP3   OH2 9500   4.357   3.892   2.122
 3165TIP3    H1 9501   4.381   3.914   2.212
 3165TIP3    H2 9502   4.279   3.946   2.105
 3166TIP3   OH2 9503   5.492   2.932   4.483
 3166TIP3    H1 9504   5.580   2.904   4.508
 3166TIP3    H2 9505   5.444   2.940   4.566
 3167TIP3   OH2 9506   5.373   5.106   1.602
 3167TIP3    H1 9507   5.447   5.142   1.554
 3167TIP3    H2 9508   5.296   5.148   1.563
 3168TIP3   OH2 9509   1.660   3.524   4.474
 3168TIP3    H1 9510   1.652   3.429   4.463
 3168TIP3    H2 9511   1.623   3.560   4.393
 3169TIP3   OH2 9512   0.673   5.687   2.945
 3169TIP3    H1 9513   0.656   5.679   3.039
 3169TIP3    H2 9514   0.641   5.606   2.907
 3170TIP3   OH2 9515   3.290   3.766   1.348
 3170TIP3    H1 9516   3.229   3.755   1.275
 3170TIP3    H2 9517   3.324   3.677   1.364
 3171TIP3   OH2 9518   0.913   2.426   3.186
 3171TIP3    H1 9519   0.996   2.394   3.222
 3171TIP3    H2 9520   0.860   2.348   3.174
 3172TIP3   OH2 9521   2.256   3.283   3.227
 3172TIP3    H1 9522   2.296   3.221   3.167
 3172TIP3    H2 9523   2.189   3.328   3.175
 3173TIP3   OH2 9524   1.300   4.662   2.452
 3173TIP3    H1 9525   1.300   4.715   2.373
 3173TIP3    H2 9526   1.274   4.724   2.521
 3174TIP3   OH2 9527   2.839   1.328   2.675
 3174TIP3    H1 9528   2.800   1.282   2.601
 3174TIP3    H2 9529   2.932   1.336   2.653
 3175TIP3   OH2 9530   1.605   3.723   4.716
 3175TIP3    H1 9531   1.694   3.748   4.695
 3175TIP3    H2 9532   1.572   3.682   4.637
 3176TIP3   OH2 9533   4.766   3.822   3.530
 3176TIP3    H1 9534   4.723   3.899   3.566
 3176TIP3    H2 9535   4.860   3.840   3.538
 3177TIP3   OH2 9536   0.873   3.846   0.158
 3177TIP3    H1 9537   0.914   3.920   0.203
 3177TIP3    H2 9538   0.927   3.770   0.182
 3178TIP3   OH2 9539   4.925   0.852   4.089
 3178TIP3    H1 9540   4.883   0.899   4.018
 3178TIP3    H2 9541   5.003   0.904   4.109
 3179TIP3   OH2 9542   0.140   0.146   1.947
 3179TIP3    H1 9543   0.229   0.113   1.939
 3179TIP3    H2 9544   0.086   0.082   1.901
 3180TIP3   OH2 9545   1.585   0.914   4.956
 3180TIP3    H1 9546   1.669   0.882   4.922
 3180TIP3    H2 9547   1.552   0.842   5.010
 3181TIP3   OH2 9548   4.252   5.347   2.765
 3181TIP3    H1 9549   4.327   5.343   2.823
 3181TIP3    H2 9550   4.289   5.352   2.677
 3182TIP3   OH2 9551   5.332   2.117   4.442
 3182TIP3    H1 9552   5.332   2.212   4.439
 3182TIP3    H2 9553   5.243   2.094   4.470
 3183TIP3   OH2 9554   0.832   3.312   4.824
 3183TIP3    H1 9555   0.786   3.370   4.885
 3183TIP3    H2 9556   0.921   3.347   4.820
 3184TIP3   OH2 9557   1.612   2.202   0.391
 3184TIP3    H1 9558   1.519   2.223   0.397
 3184TIP3    H2 9559   1.625   2.130   0.452
 3185TIP3   OH2 9560   6.222   0.933   5.111
 3185TIP3    H1 9561   6.159   1.003   5.095
 3185TIP3    H2 9562   6.169   0.856   5.131
 3186TIP3   OH2 9563   3.847   2.200   1.145
 3186TIP3    H1 9564   3.771   2.236   1.191
 3186TIP3    H2 9565   3.821   2.198   1.053
 3187TIP3   OH2 9566   2.641   1.042   1.411
 3187TIP3    H1 9567   2.670   0.952   1.424
 3187TIP3    H2 9568   2.660   1.061   1.319
 3188TIP3   OH2 9569   2.152   5.047   4.801
 3188TIP3    H1 9570   2.174   4.979   4.865
 3188TIP3    H2 9571   2.234   5.063   4.755
 3189TIP3   OH2 9572   1.883   2.554   0.547
 3189TIP3    H1 9573   1.931   2.479   0.585
 3189TIP3    H2 9574   1.949   2.601   0.497
 3190TIP3   OH2 9575   0.597   2.351   0.247
 3190TIP3    H1 9576   0.531   2.420   0.240
 3190TIP3    H2 9577   0.598   2.327   0.339
 3191TIP3   OH2 9578   3.688   0.909   3.244
 3191TIP3    H1 9579   3.642   0.908   3.329
 3191TIP3    H2 9580   3.660   0.990   3.202
 3192TIP3   OH2 9581   2.689   5.368   3.515
 3192TIP3    H1 9582   2.687   5.392   3.608
 3192TIP3    H2 9583   2.713   5.450   3.470
 3193TIP3   OH2 9584   2.304   2.914   0.924
 3193TIP3    H1 9585   2.218   2.931   0.964
 3193TIP3    H2 9586   2.291   2.834   0.873
 3194TIP3   OH2 9587   3.397   0.612   5.066
 3194TIP3    H1 9588   3.361   0.571   5.145
 3194TIP3    H2 9589   3.322   0.654   5.024
 3195TIP3   OH2 9590   1.129   4.296   1.095
 3195TIP3    H1 9591   1.193   4.227   1.113
 3195TIP3    H2 9592   1.080   4.264   1.019
 3196TIP3   OH2 9593   4.104   2.339   3.576
 3196TIP3    H1 9594   4.175   2.324   3.638
 3196TIP3    H2 9595   4.148   2.348   3.491
 3197TIP3   OH2 9596   1.684   0.513   4.757
 3197TIP3    H1 9597   1.623   0.470   4.698
 3197TIP3    H2 9598   1.665   0.476   4.843
 3198TIP3   OH2 9599   1.073   1.725   1.379
 3198TIP3    H1 9600   1.147   1.686   1.331
 3198TIP3    H2 9601   1.035   1.788   1.317
 3199TIP3   OH2 9602   2.248   0.822   0.260
 3199TIP3    H1 9603   2.309   0.857   0.195
 3199TIP3    H2 9604   2.193   0.760   0.210
 3200TIP3   OH2 9605   3.638   5.442   1.960
 3200TIP3    H1 9606   3.622   5.353   1.992
 3200TIP3    H2 9607   3.636   5.496   2.039
 3201TIP3   OH2 9608   6.204   5.079   1.531
 3201TIP3    H1 9609   6.187   5.008   1.468
 3201TIP3    H2 9610   6.274   5.045   1.586
 3202TIP3   OH2 9611   2.883   5.212   3.730
 3202TIP3    H1 9612   2.908   5.193   3.820
 3202TIP3    H2 9613   2.857   5.305   3.731
 3203TIP3   OH2 9614   0.122   1.709   4.222
 3203TIP3    H1 9615   0.077   1.778   4.270
 3203TIP3    H2 9616   0.140   1.642   4.287
 3204TIP3   OH2 9617   4.148   2.158   2.820
 3204TIP3    H1 9618   4.193   2.226   2.770
 3204TIP3    H2 9619   4.214   2.092   2.836
 3205TIP3   OH2 9620   4.462   2.276   0.458
 3205TIP3    H1 9621   4.468   2.180   0.461
 3205TIP3    H2 9622   4.371   2.295   0.481
 3206TIP3   OH2 9623   0.157   2.659   2.917
 3206TIP3    H1 9624   0.200   2.611   2.846
 3206TIP3    H2 9625   0.213   2.645   2.993
 3207TIP3   OH2 9626   3.690   3.858   1.645
 3207TIP3    H1 9627   3.673   3.889   1.556
 3207TIP3    H2 9628   3.607   3.821   1.674
 3208TIP3   OH2 9629   1.717   2.017   5.056
 3208TIP3    H1 9630   1.654   1.949   5.033
 3208TIP3    H2 9631   1.801   1.983   5.025
 3209TIP3   OH2 9632   4.499   0.838   2.818
 3209TIP3    H1 9633   4.404   0.854   2.823
 3209TIP3    H2 9634   4.531   0.908   2.761
 3210TIP3   OH2 9635   2.798   1.730   2.047
 3210TIP3    H1 9636   2.889   1.701   2.042
 3210TIP3    H2 9637   2.785   1.783   1.968
 3211TIP3   OH2 9638   0.798   3.480   5.051
 3211TIP3    H1 9639   0.784   3.423   5.126
 3211TIP3    H2 9640   0.893   3.482   5.040
 3212TIP3   OH2 9641   4.341   4.169   1.433
 3212TIP3    H1 9642   4.258   4.123   1.443
 3212TIP3    H2 9643   4.405   4.114   1.478
 3213TIP3   OH2 9644   4.696   5.515   4.212
 3213TIP3    H1 9645   4.625   5.570   4.178
 3213TIP3    H2 9646   4.754   5.503   4.137
 3214TIP3   OH2 9647   4.803   3.334   2.264
 3214TIP3    H1 9648   4.795   3.274   2.190
 3214TIP3    H2 9649   4.714   3.341   2.299
 3215TIP3   OH2 9650   2.023   3.965   0.915
 3215TIP3    H1 9651   2.017   4.059   0.930
 3215TIP3    H2 9652   2.116   3.945   0.919
 3216TIP3   OH2 9653   2.014   5.369   1.038
 3216TIP3    H1 9654   1.926   5.387   1.073
 3216TIP3    H2 9655   2.005   5.286   0.992
 3217TIP3   OH2 9656   6.403   3.797   1.231
 3217TIP3    H1 9657   6.366   3.876   1.271
 3217TIP3    H2 9658   6.367   3.725   1.283
 3218TIP3   OH2 9659   3.497   4.802   0.672
 3218TIP3    H1 9660   3.524   4.712   0.690
 3218TIP3    H2 9661   3.481   4.804   0.577
 3219TIP3   OH2 9662   1.295   4.999   0.613
 3219TIP3    H1 9663   1.225   4.936   0.595
 3219TIP3    H2 9664   1.343   5.005   0.531
 3220TIP3   OH2 9665   1.405   1.822   3.769
 3220TIP3    H1 9666   1.426   1.780   3.852
 3220TIP3    H2 9667   1.464   1.780   3.706
 3221TIP3   OH2 9668   4.294   2.948   4.749
 3221TIP3    H1 9669   4.247   2.923   4.829
 3221TIP3    H2 9670   4.351   3.020   4.777
 3222TIP3   OH2 9671   2.301   0.322   3.510
 3222TIP3    H1 9672   2.303   0.353   3.601
 3222TIP3    H2 9673   2.208   0.313   3.490
 3223TIP3   OH2 9674   4.415   5.017   3.263
 3223TIP3    H1 9675   4.461   5.101   3.253
 3223TIP3    H2 9676   4.482   4.956   3.293
 3224TIP3   OH2 9677   4.952   0.884   0.798
 3224TIP3    H1 9678   5.033   0.837   0.774
 3224TIP3    H2 9679   4.945   0.953   0.732
 3225TIP3   OH2 9680   0.577   4.636   2.648
 3225TIP3    H1 9681   0.550   4.687   2.724
 3225TIP3    H2 9682   0.659   4.676   2.619
 3226TIP3   OH2 9683   1.762   1.487   2.733
 3226TIP3    H1 9684   1.815   1.490   2.653
 3226TIP3    H2 9685   1.706   1.411   2.721
 3227TIP3   OH2 9686   5.941   1.851   4.487
 3227TIP3    H1 9687   5.982   1.933   4.517
 3227TIP3    H2 9688   5.975   1.839   4.398
 3228TIP3   OH2 9689   3.989   4.598   4.619
 3228TIP3    H1 9690   3.997   4.682   4.665
 3228TIP3    H2 9691   4.079   4.569   4.606
 3229TIP3   OH2 9692   0.059   1.934   2.705
 3229TIP3    H1 9693  -0.022   1.910   2.660
 3229TIP3    H2 9694   0.064   1.873   2.778
 3230TIP3   OH2 9695   2.057   2.161   4.036
 3230TIP3    H1 9696   2.034   2.139   4.126
 3230TIP3    H2 9697   2.024   2.250   4.024
 3231TIP3   OH2 9698   3.308   0.639   4.195
 3231TIP3    H1 9699   3.238   0.656   4.259
 3231TIP3    H2 9700   3.289   0.552   4.161
 3232TIP3   OH2 9701   3.296   2.348   3.130
 3232TIP3    H1 9702   3.349   2.268   3.127
 3232TIP3    H2 9703   3.209   2.317   3.154
 3233TIP3   OH2 9704   6.281   4.851   1.314
 3233TIP3    H1 9705   6.226   4.795   1.259
 3233TIP3    H2 9706   6.278   4.937   1.272
 3234TIP3   OH2 9707   4.583   4.939   1.411
 3234TIP3    H1 9708   4.501   4.892   1.426
 3234TIP3    H2 9709   4.560   5.031   1.422
 3235TIP3   OH2 9710   1.276   4.421   0.444
 3235TIP3    H1 9711   1.358   4.375   0.463
 3235TIP3    H2 9712   1.267   4.485   0.515
 3236TIP3   OH2 9713   0.306   2.544   2.019
 3236TIP3    H1 9714   0.277   2.455   2.001
 3236TIP3    H2 9715   0.248   2.599   1.966
 3237TIP3   OH2 9716   0.641   5.067   0.593
 3237TIP3    H1 9717   0.574   5.021   0.643
 3237TIP3    H2 9718   0.692   5.114   0.659
 3238TIP3   OH2 9719   5.738   0.541   1.696
 3238TIP3    H1 9720   5.741   0.602   1.769
 3238TIP3    H2 9721   5.679   0.472   1.725
 3239TIP3   OH2 9722   0.384   0.412   0.040
 3239TIP3    H1 9723   0.390   0.400   0.135
 3239TIP3    H2 9724   0.440   0.488   0.022
 3240TIP3   OH2 9725   1.449   4.074   4.259
 3240TIP3    H1 9726   1.476   4.166   4.266
 3240TIP3    H2 9727   1.531   4.025   4.268
 3241TIP3   OH2 9728   2.505   2.869   2.193
 3241TIP3    H1 9729   2.600   2.880   2.188
 3241TIP3    H2 9730   2.474   2.874   2.103
 3242TIP3   OH2 9731   4.057   5.788   2.117
 3242TIP3    H1 9732   4.130   5.835   2.077
 3242TIP3    H2 9733   4.035   5.839   2.195
 3243TIP3   OH2 9734   2.024   3.637   2.126
 3243TIP3    H1 9735   2.116   3.620   2.106
 3243TIP3    H2 9736   2.015   3.732   2.122
 3244TIP3   OH2 9737   2.619   3.136   3.100
 3244TIP3    H1 9738   2.684   3.138   3.031
 3244TIP3    H2 9739   2.537   3.160   3.057
 3245TIP3   OH2 9740   2.984   2.374   3.821
 3245TIP3    H1 9741   3.067   2.365   3.868
 3245TIP3    H2 9742   2.995   2.454   3.770
 3246TIP3   OH2 9743   2.860   4.703   4.245
 3246TIP3    H1 9744   2.895   4.750   4.320
 3246TIP3    H2 9745   2.908   4.620   4.244
 3247TIP3   OH2 9746   4.585   0.571   2.305
 3247TIP3    H1 9747   4.613   0.491   2.350
 3247TIP3    H2 9748   4.621   0.564   2.217
 3248TIP3   OH2 9749   2.933   1.037   4.610
 3248TIP3    H1 9750   2.961   1.017   4.521
 3248TIP3    H2 9751   2.842   1.007   4.614
 3249TIP3   OH2 9752   5.105   2.615   4.818
 3249TIP3    H1 9753   5.074   2.588   4.905
 3249TIP3    H2 9754   5.051   2.690   4.795
 3250TIP3   OH2 9755   0.315   3.921   0.123
 3250TIP3    H1 9756   0.315   3.988   0.192
 3250TIP3    H2 9757   0.305   3.839   0.171
 3251TIP3   OH2 9758   5.663   4.638   4.539
 3251TIP3    H1 9759   5.715   4.713   4.512
 3251TIP3    H2 9760   5.692   4.566   4.483
 3252TIP3   OH2 9761   0.255   3.727   3.853
 3252TIP3    H1 9762   0.346   3.758   3.855
 3252TIP3    H2 9763   0.229   3.733   3.761
 3253TIP3   OH2 9764   0.640   0.765   0.869
 3253TIP3    H1 9765   0.609   0.820   0.798
 3253TIP3    H2 9766   0.604   0.805   0.948
 3254TIP3   OH2 9767   0.205   2.338   1.763
 3254TIP3    H1 9768   0.184   2.340   1.669
 3254TIP3    H2 9769   0.277   2.275   1.770
 3255TIP3   OH2 9770   3.277   1.618   1.802
 3255TIP3    H1 9771   3.285   1.548   1.737
 3255TIP3    H2 9772   3.335   1.687   1.770
 3256TIP3   OH2 9773   5.972   4.853   4.150
 3256TIP3    H1 9774   6.060   4.819   4.166
 3256TIP3    H2 9775   5.968   4.934   4.200
 3257TIP3   OH2 9776   1.337   0.922   4.725
 3257TIP3    H1 9777   1.320   0.969   4.807
 3257TIP3    H2 9778   1.342   0.830   4.751
 3258TIP3   OH2 9779   3.476   3.481   3.402
 3258TIP3    H1 9780   3.509   3.427   3.331
 3258TIP3    H2 9781   3.402   3.432   3.439
 3259TIP3   OH2 9782   2.563   1.342   4.337
 3259TIP3    H1 9783   2.498   1.363   4.270
 3259TIP3    H2 9784   2.533   1.389   4.415
 3260TIP3   OH2 9785   2.746   1.464   0.929
 3260TIP3    H1 9786   2.825   1.410   0.929
 3260TIP3    H2 9787   2.767   1.537   0.871
 3261TIP3   OH2 9788   4.855   2.015   4.225
 3261TIP3    H1 9789   4.854   2.018   4.129
 3261TIP3    H2 9790   4.800   1.941   4.248
 3262TIP3   OH2 9791   2.749   0.764   0.475
 3262TIP3    H1 9792   2.709   0.747   0.560
 3262TIP3    H2 9793   2.683   0.737   0.411
 3263TIP3   OH2 9794   1.945   2.845   3.557
 3263TIP3    H1 9795   1.910   2.822   3.643
 3263TIP3    H2 9796   1.997   2.768   3.530
 3264TIP3   OH2 9797   4.526   0.747   0.589
 3264TIP3    H1 9798   4.589   0.750   0.518
 3264TIP3    H2 9799   4.570   0.792   0.662
 3265TIP3   OH2 9800   6.038   4.448   0.703
 3265TIP3    H1 9801   6.104   4.499   0.751
 3265TIP3    H2 9802   6.060   4.463   0.611
 3266TIP3   OH2 9803   1.968   4.871   5.129
 3266TIP3    H1 9804   1.878   4.852   5.154
 3266TIP3    H2 9805   2.012   4.786   5.130
 3267TIP3   OH2 9806   3.887   1.034   3.820
 3267TIP3    H1 9807   3.860   1.125   3.806
 3267TIP3    H2 9808   3.920   1.032   3.910
 3268TIP3   OH2 9809   6.203   5.431   3.623
 3268TIP3    H1 9810   6.278   5.380   3.592
 3268TIP3    H2 9811   6.239   5.520   3.633
 3269TIP3   OH2 9812   3.446   5.869   1.830
 3269TIP3    H1 9813   3.465   5.868   1.736
 3269TIP3    H2 9814   3.530   5.852   1.872
 3270TIP3   OH2 9815   0.891   2.954   1.254
 3270TIP3    H1 9816   0.867   3.036   1.298
 3270TIP3    H2 9817   0.859   2.965   1.164
 3271TIP3   OH2 9818   4.930   0.925   4.825
 3271TIP3    H1 9819   4.987   0.886   4.892
 3271TIP3    H2 9820   4.936   1.019   4.841
 3272TIP3   OH2 9821   0.509   5.533   5.167
 3272TIP3    H1 9822   0.494   5.446   5.205
 3272TIP3    H2 9823   0.578   5.571   5.221
 3273TIP3   OH2 9824   4.440   2.219   1.077
 3273TIP3    H1 9825   4.479   2.210   1.164
 3273TIP3    H2 9826   4.346   2.219   1.093
 3274TIP3   OH2 9827   4.838   5.019   3.215
 3274TIP3    H1 9828   4.787   5.023   3.295
 3274TIP3    H2 9829   4.919   5.065   3.235
 3275TIP3   OH2 9830   1.333   5.420   2.072
 3275TIP3    H1 9831   1.282   5.343   2.047
 3275TIP3    H2 9832   1.270   5.492   2.068
 3276TIP3   OH2 9833   1.579   3.710   1.437
 3276TIP3    H1 9834   1.509   3.775   1.443
 3276TIP3    H2 9835   1.547   3.645   1.375
 3277TIP3   OH2 9836   4.115   1.987   0.189
 3277TIP3    H1 9837   4.137   1.897   0.166
 3277TIP3    H2 9838   4.036   2.006   0.138
 3278TIP3   OH2 9839   5.917   1.894   5.117
 3278TIP3    H1 9840   5.991   1.861   5.066
 3278TIP3    H2 9841   5.898   1.980   5.078
 3279TIP3   OH2 9842   4.725   1.335   1.257
 3279TIP3    H1 9843   4.693   1.269   1.195
 3279TIP3    H2 9844   4.781   1.393   1.205
 3280TIP3   OH2 9845   1.727   4.221   3.232
 3280TIP3    H1 9846   1.719   4.312   3.205
 3280TIP3    H2 9847   1.682   4.171   3.164
 3281TIP3   OH2 9848   4.657   0.371   3.654
 3281TIP3    H1 9849   4.732   0.346   3.599
 3281TIP3    H2 9850   4.660   0.466   3.657
 3282TIP3   OH2 9851   2.520   2.208   4.585
 3282TIP3    H1 9852   2.495   2.292   4.623
 3282TIP3    H2 9853   2.527   2.226   4.491
 3283TIP3   OH2 9854   4.328   0.892   1.525
 3283TIP3    H1 9855   4.333   0.801   1.554
 3283TIP3    H2 9856   4.242   0.900   1.484
 3284TIP3   OH2 9857   0.069   2.579   4.948
 3284TIP3    H1 9858  -0.007   2.554   4.895
 3284TIP3    H2 9859   0.059   2.673   4.961
 3285TIP3   OH2 9860   5.248   3.519   1.243
 3285TIP3    H1 9861   5.238   3.614   1.239
 3285TIP3    H2 9862   5.159   3.485   1.231
 3286TIP3   OH2 9863   1.455   5.674   1.087
 3286TIP3    H1 9864   1.528   5.685   1.149
 3286TIP3    H2 9865   1.388   5.627   1.136
 3287TIP3   OH2 9866   5.683   2.123   0.462
 3287TIP3    H1 9867   5.680   2.218   0.462
 3287TIP3    H2 9868   5.638   2.097   0.381
 3288TIP3   OH2 9869   2.098   2.157   4.920
 3288TIP3    H1 9870   2.020   2.156   4.864
 3288TIP3    H2 9871   2.170   2.137   4.860
 3289TIP3   OH2 9872   4.598   0.974   1.499
 3289TIP3    H1 9873   4.508   0.990   1.527
 3289TIP3    H2 9874   4.616   0.884   1.526
 3290TIP3   OH2 9875   5.727   1.642   2.287
 3290TIP3    H1 9876   5.792   1.575   2.265
 3290TIP3    H2 9877   5.712   1.689   2.205
 3291TIP3   OH2 9878   0.877   4.716   1.133
 3291TIP3    H1 9879   0.869   4.712   1.038
 3291TIP3    H2 9880   0.898   4.626   1.159
 3292TIP3   OH2 9881   2.439   2.019   0.180
 3292TIP3    H1 9882   2.377   1.954   0.147
 3292TIP3    H2 9883   2.392   2.102   0.173
 3293TIP3   OH2 9884   2.706   2.371   2.727
 3293TIP3    H1 9885   2.781   2.361   2.668
 3293TIP3    H2 9886   2.731   2.324   2.806
 3294TIP3   OH2 9887   5.692   3.429   3.828
 3294TIP3    H1 9888   5.739   3.501   3.869
 3294TIP3    H2 9889   5.673   3.460   3.739
 3295TIP3   OH2 9890   0.167   1.033   1.239
 3295TIP3    H1 9891   0.144   1.092   1.311
 3295TIP3    H2 9892   0.226   0.969   1.279
 3296TIP3   OH2 9893   2.993   0.108   4.747
 3296TIP3    H1 9894   3.019   0.138   4.835
 3296TIP3    H2 9895   3.075   0.081   4.706
 3297TIP3   OH2 9896   1.818   0.471   2.864
 3297TIP3    H1 9897   1.879   0.466   2.937
 3297TIP3    H2 9898   1.821   0.562   2.835
 3298TIP3   OH2 9899   5.301   3.932   0.743
 3298TIP3    H1 9900   5.209   3.958   0.737
 3298TIP3    H2 9901   5.334   3.977   0.821
 3299TIP3   OH2 9902   0.473   6.000   1.309
 3299TIP3    H1 9903   0.510   5.972   1.225
 3299TIP3    H2 9904   0.409   5.932   1.330
 3300TIP3   OH2 9905   0.347   3.684   1.397
 3300TIP3    H1 9906   0.287   3.623   1.441
 3300TIP3    H2 9907   0.299   3.767   1.396
 3301TIP3   OH2 9908   3.598   1.114   1.701
 3301TIP3    H1 9909   3.556   1.096   1.617
 3301TIP3    H2 9910   3.672   1.171   1.678
 3302TIP3   OH2 9911   6.131   3.958   1.102
 3302TIP3    H1 9912   6.110   3.865   1.105
 3302TIP3    H2 9913   6.047   4.002   1.118
 3303TIP3   OH2 9914   5.226   5.266   5.105
 3303TIP3    H1 9915   5.240   5.355   5.072
 3303TIP3    H2 9916   5.220   5.276   5.200
 3304TIP3   OH2 9917   6.117   3.724   3.261
 3304TIP3    H1 9918   6.077   3.793   3.207
 3304TIP3    H2 9919   6.063   3.647   3.244
 3305TIP3   OH2 9920   1.941   0.592   4.629
 3305TIP3    H1 9921   1.897   0.598   4.544
 3305TIP3    H2 9922   1.876   0.553   4.687
 3306TIP3   OH2 9923   5.155   4.830   0.702
 3306TIP3    H1 9924   5.199   4.811   0.619
 3306TIP3    H2 9925   5.064   4.849   0.678
 3307TIP3   OH2 9926   4.248   4.996   2.373
 3307TIP3    H1 9927   4.248   5.053   2.296
 3307TIP3    H2 9928   4.272   4.910   2.339
 3308TIP3   OH2 9929   4.184   3.353   0.276
 3308TIP3    H1 9930   4.105   3.360   0.223
 3308TIP3    H2 9931   4.220   3.441   0.278
 3309TIP3   OH2 9932   4.252   1.370   3.750
 3309TIP3    H1 9933   4.211   1.289   3.719
 3309TIP3    H2 9934   4.188   1.407   3.810
 3310TIP3   OH2 9935   3.114   1.425   0.664
 3310TIP3    H1 9936   3.171   1.473   0.605
 3310TIP3    H2 9937   3.025   1.442   0.631
 3311TIP3   OH2 9938   0.325   2.795   2.679
 3311TIP3    H1 9939   0.383   2.814   2.604
 3311TIP3    H2 9940   0.322   2.877   2.728
 3312TIP3   OH2 9941   3.730   1.978   4.914
 3312TIP3    H1 9942   3.716   1.939   5.001
 3312TIP3    H2 9943   3.825   1.981   4.904
 3313TIP3   OH2 9944   5.254   2.362   1.173
 3313TIP3    H1 9945   5.286   2.416   1.246
 3313TIP3    H2 9946   5.332   2.346   1.119
 3314TIP3   OH2 9947   4.209   4.923   3.432
 3314TIP3    H1 9948   4.265   4.851   3.461
 3314TIP3    H2 9949   4.247   4.951   3.349
 3315TIP3   OH2 9950   3.639   2.811   1.799
 3315TIP3    H1 9951   3.708   2.802   1.864
 3315TIP3    H2 9952   3.558   2.791   1.847
 3316TIP3   OH2 9953   3.804   2.177   1.890
 3316TIP3    H1 9954   3.761   2.253   1.853
 3316TIP3    H2 9955   3.790   2.185   1.985
 3317TIP3   OH2 9956   1.346   1.868   0.561
 3317TIP3    H1 9957   1.431   1.912   0.566
 3317TIP3    H2 9958   1.304   1.886   0.645
 3318TIP3   OH2 9959   5.407   1.850   0.123
 3318TIP3    H1 9960   5.418   1.762   0.086
 3318TIP3    H2 9961   5.318   1.850   0.159
 3319TIP3   OH2 9962   3.433   1.626   4.535
 3319TIP3    H1 9963   3.396   1.688   4.597
 3319TIP3    H2 9964   3.370   1.622   4.464
 3320TIP3   OH2 9965   5.046   1.159   3.103
 3320TIP3    H1 9966   4.966   1.135   3.055
 3320TIP3    H2 9967   5.070   1.245   3.066
 3321TIP3   OH2 9968   3.505   2.200   4.083
 3321TIP3    H1 9969   3.558   2.128   4.118
 3321TIP3    H2 9970   3.431   2.157   4.040
 3322TIP3   OH2 9971   1.521   0.940   0.705
 3322TIP3    H1 9972   1.532   0.870   0.770
 3322TIP3    H2 9973   1.568   1.015   0.742
 3323TIP3   OH2 9974   2.597   5.126   1.676
 3323TIP3    H1 9975   2.664   5.193   1.662
 3323TIP3    H2 9976   2.627   5.052   1.623
 3324TIP3   OH2 9977   5.856   2.002   3.465
 3324TIP3    H1 9978   5.910   2.081   3.466
 3324TIP3    H2 9979   5.918   1.931   3.476
 3325TIP3   OH2 9980   2.257   5.852   3.555
 3325TIP3    H1 9981   2.285   5.768   3.518
 3325TIP3    H2 9982   2.338   5.903   3.564
 3326TIP3   OH2 9983   4.803   2.978   1.743
 3326TIP3    H1 9984   4.795   2.918   1.668
 3326TIP3    H2 9985   4.878   2.944   1.793
 3327TIP3   OH2 9986   4.050   0.913   2.404
 3327TIP3    H1 9987   4.042   0.886   2.496
 3327TIP3    H2 9988   4.046   1.009   2.408
 3328TIP3   OH2 9989   4.484   3.730   4.425
 3328TIP3    H1 9990   4.440   3.803   4.469
 3328TIP3    H2 9991   4.416   3.688   4.373
 3329TIP3   OH2 9992   1.543   4.374   0.607
 3329TIP3    H1 9993   1.625   4.336   0.576
 3329TIP3    H2 9994   1.568   4.423   0.686
 3330TIP3   OH2 9995   3.726   3.335   1.000
 3330TIP3    H1 9996   3.689   3.275   1.065
 3330TIP3    H2 9997   3.710   3.422   1.035
 3331TIP3   OH2 9998   3.018   0.535   0.014
 3331TIP3    H1 9999   3.022   0.498   0.103
 3331TIP3    H210000   2.926   0.552  -0.001
 3332TIP3   OH210001   2.194   1.772   0.443
 3332TIP3    H110002   2.225   1.682   0.454
 3332TIP3    H210003   2.264   1.826   0.479
 3333TIP3   OH210004   3.107   2.367   4.242
 3333TIP3    H110005   3.199   2.384   4.222
 3333TIP3    H210006   3.088   2.283   4.200
 3334TIP3   OH210007   6.262   4.672   2.899
 3334TIP3    H110008   6.222   4.759   2.898
 3334TIP3    H210009   6.238   4.636   2.984
 3335TIP3   OH210010   5.439   1.104   0.397
 3335TIP3    H110011   5.526   1.096   0.436
 3335TIP3    H210012   5.451   1.078   0.306
 3336TIP3   OH210013   3.857   2.366   3.923
 3336TIP3    H110014   3.801   2.436   3.890
 3336TIP3    H210015   3.946   2.402   3.919
 3337TIP3   OH210016   3.339   3.370   0.028
 3337TIP3    H110017   3.423   3.377   0.073
 3337TIP3    H210018   3.315   3.278   0.035
 3338TIP3   OH210019   3.222   1.928   1.531
 3338TIP3    H110020   3.316   1.931   1.518
 3338TIP3    H210021   3.203   1.836   1.548
 3339TIP3   OH210022   2.838   1.074   0.869
 3339TIP3    H110023   2.787   1.062   0.789
 3339TIP3    H210024   2.845   0.986   0.906
 3340TIP3   OH210025   3.538   4.672   4.152
 3340TIP3    H110026   3.578   4.732   4.215
 3340TIP3    H210027   3.532   4.724   4.071
 3341TIP3   OH210028   1.913   2.295   2.605
 3341TIP3    H110029   1.933   2.379   2.646
 3341TIP3    H210030   1.838   2.261   2.654
 3342TIP3   OH210031   4.554   0.010   1.421
 3342TIP3    H110032   4.521   0.092   1.385
 3342TIP3    H210033   4.579  -0.042   1.344
 3343TIP3   OH210034   4.656   4.014   0.272
 3343TIP3    H110035   4.595   3.941   0.256
 3343TIP3    H210036   4.683   4.002   0.363
 3344TIP3   OH210037   5.236   3.729   2.283
 3344TIP3    H110038   5.281   3.741   2.367
 3344TIP3    H210039   5.265   3.643   2.252
 3345TIP3   OH210040   4.427   3.203   0.491
 3345TIP3    H110041   4.455   3.112   0.492
 3345TIP3    H210042   4.335   3.200   0.464
 3346TIP3   OH210043   6.122   5.390   3.971
 3346TIP3    H110044   6.215   5.410   3.971
 3346TIP3    H210045   6.089   5.428   4.053
 3347TIP3   OH210046   3.779   5.451   0.795
 3347TIP3    H110047   3.690   5.462   0.829
 3347TIP3    H210048   3.805   5.364   0.824
 3348TIP3   OH210049   2.116   1.662   2.077
 3348TIP3    H110050   2.151   1.653   1.988
 3348TIP3    H210051   2.191   1.690   2.130
 3349TIP3   OH210052   5.356   5.071   4.964
 3349TIP3    H110053   5.324   5.150   5.008
 3349TIP3    H210054   5.401   5.022   5.033
 3350TIP3   OH210055   5.679   0.912   3.262
 3350TIP3    H110056   5.673   0.932   3.355
 3350TIP3    H210057   5.658   0.994   3.218
 3351TIP3   OH210058   3.674   3.928   3.977
 3351TIP3    H110059   3.677   4.014   3.936
 3351TIP3    H210060   3.591   3.925   4.024
 3352TIP3   OH210061   4.760   1.780   5.068
 3352TIP3    H110062   4.785   1.704   5.015
 3352TIP3    H210063   4.835   1.795   5.124
 3353TIP3   OH210064   1.581   4.023   3.715
 3353TIP3    H110065   1.568   4.032   3.810
 3353TIP3    H210066   1.531   3.945   3.692
 3354TIP3   OH210067   4.699   5.266   0.884
 3354TIP3    H110068   4.791   5.279   0.860
 3354TIP3    H210069   4.679   5.177   0.856
 3355TIP3   OH210070   2.202   0.765   2.511
 3355TIP3    H110071   2.275   0.780   2.451
 3355TIP3    H210072   2.240   0.712   2.582
 3356TIP3   OH210073   3.064   4.142   0.598
 3356TIP3    H110074   2.982   4.133   0.549
 3356TIP3    H210075   3.066   4.234   0.625
 3357TIP3   OH210076   2.223   1.911   3.407
 3357TIP3    H110077   2.279   1.909   3.330
 3357TIP3    H210078   2.177   1.996   3.401
 3358TIP3   OH210079   3.310   0.374   2.550
 3358TIP3    H110080   3.337   0.349   2.462
 3358TIP3    H210081   3.303   0.470   2.546
 3359TIP3   OH210082   3.145   2.685   0.521
 3359TIP3    H110083   3.088   2.733   0.462
 3359TIP3    H210084   3.099   2.686   0.605
 3360TIP3   OH210085   1.570   0.074   3.776
 3360TIP3    H110086   1.495   0.016   3.792
 3360TIP3    H210087   1.596   0.106   3.862
 3361TIP3   OH210088   5.533   0.011   2.989
 3361TIP3    H110089   5.463  -0.027   2.936
 3361TIP3    H210090   5.614  -0.017   2.945
 3362TIP3   OH210091   4.499   1.887   0.160
 3362TIP3    H110092   4.433   1.928   0.215
 3362TIP3    H210093   4.555   1.839   0.222
 3363TIP3   OH210094   3.870   2.260   5.049
 3363TIP3    H110095   3.806   2.268   4.978
 3363TIP3    H210096   3.924   2.185   5.025
 3364TIP3   OH210097   2.737   1.150   4.237
 3364TIP3    H110098   2.678   1.215   4.276
 3364TIP3    H210099   2.710   1.067   4.277
 3365TIP3   OH210100   4.963   0.841   1.292
 3365TIP3    H110101   5.047   0.882   1.314
 3365TIP3    H210102   4.959   0.762   1.347
 3366TIP3   OH210103   3.238   0.537   3.823
 3366TIP3    H110104   3.143   0.548   3.823
 3366TIP3    H210105   3.255   0.471   3.890
 3367TIP3   OH210106   5.700   4.190   2.854
 3367TIP3    H110107   5.761   4.126   2.889
 3367TIP3    H210108   5.685   4.251   2.927
 3368TIP3   OH210109   2.602   2.753   3.174
 3368TIP3    H110110   2.602   2.836   3.126
 3368TIP3    H210111   2.524   2.707   3.141
 3369TIP3   OH210112   5.991   3.436   2.763
 3369TIP3    H110113   5.989   3.368   2.697
 3369TIP3    H210114   6.063   3.412   2.821
 3370TIP3   OH210115   1.328   1.386   0.094
 3370TIP3    H110116   1.246   1.362   0.051
 3370TIP3    H210117   1.393   1.386   0.024
 3371TIP3   OH210118   2.201   2.939   4.073
 3371TIP3    H110119   2.166   3.018   4.114
 3371TIP3    H210120   2.180   2.950   3.980
 3372TIP3   OH210121   2.403   1.205   4.999
 3372TIP3    H110122   2.491   1.167   5.001
 3372TIP3    H210123   2.345   1.131   4.985
 3373TIP3   OH210124   6.205   3.166   2.669
 3373TIP3    H110125   6.217   3.179   2.763
 3373TIP3    H210126   6.189   3.072   2.660
 3374TIP3   OH210127   4.042   3.178   1.563
 3374TIP3    H110128   4.121   3.158   1.614
 3374TIP3    H210129   4.016   3.266   1.593
 3375TIP3   OH210130   1.498   4.879   3.246
 3375TIP3    H110131   1.431   4.826   3.289
 3375TIP3    H210132   1.476   4.969   3.269
 3376TIP3   OH210133   0.580   0.540   0.577
 3376TIP3    H110134   0.567   0.635   0.573
 3376TIP3    H210135   0.653   0.523   0.518
 3377TIP3   OH210136   3.173   2.339   4.669
 3377TIP3    H110137   3.149   2.253   4.635
 3377TIP3    H210138   3.160   2.331   4.764
 3378TIP3   OH210139   6.021   3.095   0.688
 3378TIP3    H110140   5.993   3.004   0.700
 3378TIP3    H210141   5.940   3.145   0.679
 3379TIP3   OH210142   2.185   3.293   0.412
 3379TIP3    H110143   2.090   3.292   0.418
 3379TIP3    H210144   2.212   3.362   0.473
 3380TIP3   OH210145   2.455   1.417   4.079
 3380TIP3    H110146   2.459   1.350   4.011
 3380TIP3    H210147   2.366   1.453   4.071
 3381TIP3   OH210148   5.409   3.298   4.153
 3381TIP3    H110149   5.351   3.287   4.228
 3381TIP3    H210150   5.391   3.386   4.122
 3382TIP3   OH210151   2.279   3.904   0.873
 3382TIP3    H110152   2.324   3.964   0.813
 3382TIP3    H210153   2.340   3.831   0.884
 3383TIP3   OH210154   2.416   2.223   0.516
 3383TIP3    H110155   2.509   2.214   0.497
 3383TIP3    H210156   2.374   2.215   0.430
 3384TIP3   OH210157   1.580   1.563   3.050
 3384TIP3    H110158   1.619   1.646   3.080
 3384TIP3    H210159   1.505   1.590   2.997
 3385TIP3   OH210160   3.174   4.225   4.906
 3385TIP3    H110161   3.239   4.232   4.836
 3385TIP3    H210162   3.171   4.132   4.927
 3386TIP3   OH210163   2.299   1.257   0.505
 3386TIP3    H110164   2.354   1.217   0.437
 3386TIP3    H210165   2.209   1.244   0.473
 3387TIP3   OH210166   2.396   0.872   0.675
 3387TIP3    H110167   2.340   0.945   0.701
 3387TIP3    H210168   2.338   0.815   0.624
 3388TIP3   OH210169   6.108   2.505   0.168
 3388TIP3    H110170   6.103   2.411   0.151
 3388TIP3    H210171   6.184   2.516   0.224
 3389TIP3   OH210172   3.538   0.885   3.861
 3389TIP3    H110173   3.460   0.926   3.822
 3389TIP3    H210174   3.576   0.954   3.916
 3390TIP3   OH210175   1.674   0.391   0.485
 3390TIP3    H110176   1.664   0.342   0.566
 3390TIP3    H210177   1.658   0.482   0.509
 3391TIP3   OH210178   5.079   0.454   3.333
 3391TIP3    H110179   5.092   0.530   3.389
 3391TIP3    H210180   5.101   0.485   3.245
 3392TIP3   OH210181   1.896   4.546   4.044
 3392TIP3    H110182   1.974   4.502   4.012
 3392TIP3    H210183   1.891   4.524   4.137
 3393TIP3   OH210184   2.620   0.689   0.230
 3393TIP3    H110185   2.616   0.594   0.243
 3393TIP3    H210186   2.548   0.708   0.170
 3394TIP3   OH210187   5.217   2.398   4.497
 3394TIP3    H110188   5.266   2.475   4.467
 3394TIP3    H210189   5.125   2.424   4.492
 3395TIP3   OH210190   2.765   4.289   1.198
 3395TIP3    H110191   2.790   4.284   1.291
 3395TIP3    H210192   2.823   4.227   1.155
 3396TIP3   OH210193   0.532   4.382   2.127
 3396TIP3    H110194   0.521   4.342   2.041
 3396TIP3    H210195   0.581   4.316   2.177
 3397TIP3   OH210196   1.729   4.123   0.380
 3397TIP3    H110197   1.766   4.176   0.450
 3397TIP3    H210198   1.692   4.047   0.424
 3398TIP3   OH210199   3.761   2.469   2.970
 3398TIP3    H110200   3.726   2.530   2.905
 3398TIP3    H210201   3.835   2.428   2.927
 3399TIP3   OH210202   0.434   1.101   1.079
 3399TIP3    H110203   0.476   1.187   1.065
 3399TIP3    H210204   0.359   1.121   1.135
 3400TIP3   OH210205   3.643   1.406   2.627
 3400TIP3    H110206   3.589   1.327   2.629
 3400TIP3    H210207   3.678   1.409   2.538
 3401TIP3   OH210208   2.154   4.341   4.257
 3401TIP3    H110209   2.096   4.267   4.239
 3401TIP3    H210210   2.139   4.402   4.185
 3402TIP3   OH210211   2.467   0.301   4.066
 3402TIP3    H110212   2.557   0.287   4.038
 3402TIP3    H210213   2.418   0.315   3.986
 3403TIP3   OH210214   0.688   0.053   2.953
 3403TIP3    H110215   0.682   0.147   2.969
 3403TIP3    H210216   0.766   0.026   3.001
 3404TIP3   OH210217   1.269   2.431   0.551
 3404TIP3    H110218   1.334   2.432   0.622
 3404TIP3    H210219   1.192   2.389   0.591
 3405TIP3   OH210220   3.079   3.058   3.874
 3405TIP3    H110221   3.114   3.020   3.955
 3405TIP3    H210222   3.038   2.985   3.828
 3406TIP3   OH210223   2.831   2.074   4.747
 3406TIP3    H110224   2.739   2.098   4.763
 3406TIP3    H210225   2.870   2.152   4.709
 3407TIP3   OH210226   2.494   5.627   3.712
 3407TIP3    H110227   2.438   5.649   3.786
 3407TIP3    H210228   2.439   5.644   3.635
 3408TIP3   OH210229   3.915   0.661   4.695
 3408TIP3    H110230   3.849   0.650   4.627
 3408TIP3    H210231   3.989   0.701   4.651
 3409TIP3   OH210232   4.687   0.269   2.908
 3409TIP3    H110233   4.662   0.341   2.967
 3409TIP3    H210234   4.773   0.295   2.875
 3410TIP3   OH210235   1.311   0.627   4.662
 3410TIP3    H110236   1.261   0.565   4.609
 3410TIP3    H210237   1.300   0.596   4.752
 3411TIP3   OH210238   5.533   3.480   1.617
 3411TIP3    H110239   5.439   3.468   1.621
 3411TIP3    H210240   5.566   3.397   1.580
 3412TIP3   OH210241   3.384   5.697   3.595
 3412TIP3    H110242   3.342   5.657   3.671
 3412TIP3    H210243   3.313   5.738   3.546
 3413TIP3   OH210244   4.414   0.667   4.638
 3413TIP3    H110245   4.490   0.638   4.588
 3413TIP3    H210246   4.429   0.761   4.652
 3414TIP3   OH210247   3.670   2.744   0.010
 3414TIP3    H110248   3.678   2.663   0.060
 3414TIP3    H210249   3.642   2.809   0.074
 3415TIP3   OH210250   3.070   5.228   0.868
 3415TIP3    H110251   3.143   5.190   0.917
 3415TIP3    H210252   3.070   5.320   0.892
 3416TIP3   OH210253   3.390   5.201   1.918
 3416TIP3    H110254   3.407   5.136   1.849
 3416TIP3    H210255   3.473   5.208   1.964
 3417TIP3   OH210256   2.792   2.592  -0.003
 3417TIP3    H110257   2.785   2.666  -0.063
 3417TIP3    H210258   2.806   2.633   0.083
 3418TIP3   OH210259   6.178   2.389   1.597
 3418TIP3    H110260   6.125   2.374   1.676
 3418TIP3    H210261   6.224   2.306   1.584
 3419TIP3   OH210262   1.170   2.930   3.252
 3419TIP3    H110263   1.184   2.998   3.186
 3419TIP3    H210264   1.165   2.848   3.202
 3420TIP3   OH210265   0.091   2.333   2.715
 3420TIP3    H110266   0.122   2.415   2.677
 3420TIP3    H210267   0.132   2.265   2.662
 3421TIP3   OH210268   5.191   2.083   4.816
 3421TIP3    H110269   5.172   2.053   4.905
 3421TIP3    H210270   5.224   2.172   4.827
 3422TIP3   OH210271   3.884   0.686   3.243
 3422TIP3    H110272   3.827   0.761   3.260
 3422TIP3    H210273   3.970   0.714   3.276
 3423TIP3   OH210274   2.181   1.032   4.615
 3423TIP3    H110275   2.187   1.124   4.586
 3423TIP3    H210276   2.174   1.037   4.710
 3424TIP3   OH210277   0.517   5.973   2.159
 3424TIP3    H110278   0.520   5.902   2.224
 3424TIP3    H210279   0.551   6.050   2.206
 3425TIP3   OH210280   2.001   0.281   4.296
 3425TIP3    H110281   2.046   0.206   4.336
 3425TIP3    H210282   2.056   0.356   4.316
 3426TIP3   OH210283   4.289   2.258   1.681
 3426TIP3    H110284   4.264   2.317   1.752
 3426TIP3    H210285   4.215   2.198   1.672
 3427TIP3   OH210286   3.857   4.659   1.476
 3427TIP3    H110287   3.863   4.699   1.562
 3427TIP3    H210288   3.948   4.656   1.445
 3428TIP3   OH210289   4.552   4.439   1.625
 3428TIP3    H110290   4.565   4.507   1.559
 3428TIP3    H210291   4.517   4.364   1.575
 3429TIP3   OH210292   3.593   0.601   2.482
 3429TIP3    H110293   3.507   0.621   2.445
 3429TIP3    H210294   3.621   0.684   2.522
 3430TIP3   OH210295   4.066   0.547   2.758
 3430TIP3    H110296   4.002   0.599   2.806
 3430TIP3    H210297   4.015   0.504   2.689
 3431TIP3   OH210298   1.741   0.461   2.501
 3431TIP3    H110299   1.785   0.417   2.574
 3431TIP3    H210300   1.784   0.427   2.423
 3432TIP3   OH210301   0.342   4.518   1.936
 3432TIP3    H110302   0.429   4.496   1.903
 3432TIP3    H210303   0.353   4.604   1.977
 3433TIP3   OH210304   5.426   1.135   3.911
 3433TIP3    H110305   5.427   1.230   3.919
 3433TIP3    H210306   5.468   1.104   3.992
 3434TIP3   OH210307   5.864   2.885   2.532
 3434TIP3    H110308   5.898   2.796   2.533
 3434TIP3    H210309   5.781   2.879   2.485
 3435TIP3   OH210310   2.725   0.202   1.462
 3435TIP3    H110311   2.690   0.124   1.419
 3435TIP3    H210312   2.652   0.236   1.514
 3436TIP3   OH210313   3.805   5.708   1.631
 3436TIP3    H110314   3.814   5.709   1.726
 3436TIP3    H210315   3.869   5.772   1.600
 3437TIP3   OH210316   4.619   3.182   0.829
 3437TIP3    H110317   4.542   3.159   0.881
 3437TIP3    H210318   4.624   3.114   0.762
 3438TIP3   OH210319   2.210   0.065   3.228
 3438TIP3    H110320   2.188   0.060   3.321
 3438TIP3    H210321   2.161   0.141   3.196
 3439TIP3   OH210322   0.687   1.642   0.792
 3439TIP3    H110323   0.636   1.566   0.822
 3439TIP3    H210324   0.764   1.604   0.751
 3440TIP3   OH210325   1.913   5.044   2.103
 3440TIP3    H110326   1.888   5.007   2.018
 3440TIP3    H210327   1.898   5.138   2.093
 3441TIP3   OH210328   5.363   4.955   4.544
 3441TIP3    H110329   5.418   4.903   4.484
 3441TIP3    H210330   5.386   4.923   4.631
 3442TIP3   OH210331   4.199   3.050   2.549
 3442TIP3    H110332   4.246   2.968   2.532
 3442TIP3    H210333   4.265   3.108   2.586
 3443TIP3   OH210334   3.792   1.096   5.053
 3443TIP3    H110335   3.706   1.086   5.012
 3443TIP3    H210336   3.776   1.077   5.146
 3444TIP3   OH210337   1.642   4.974   5.114
 3444TIP3    H110338   1.594   4.935   5.041
 3444TIP3    H210339   1.658   4.901   5.174
 3445TIP3   OH210340   1.944   2.184   5.169
 3445TIP3    H110341   2.011   2.165   5.103
 3445TIP3    H210342   1.861   2.162   5.127
 3446TIP3   OH210343   0.329   0.563   4.786
 3446TIP3    H110344   0.374   0.528   4.709
 3446TIP3    H210345   0.345   0.657   4.783
 3447TIP3   OH210346   5.274   2.955   0.784
 3447TIP3    H110347   5.349   2.956   0.843
 3447TIP3    H210348   5.203   2.918   0.837
 3448TIP3   OH210349   5.248   4.073   4.117
 3448TIP3    H110350   5.180   4.011   4.143
 3448TIP3    H210351   5.219   4.157   4.154
 3449TIP3   OH210352   3.873   0.650   2.076
 3449TIP3    H110353   3.859   0.598   2.155
 3449TIP3    H210354   3.837   0.596   2.005
 3450TIP3   OH210355   5.348   2.159   0.399
 3450TIP3    H110356   5.262   2.148   0.359
 3450TIP3    H210357   5.348   2.250   0.430
 3451TIP3   OH210358   0.015   2.722   4.630
 3451TIP3    H110359   0.068   2.643   4.618
 3451TIP3    H210360  -0.038   2.704   4.707
 3452TIP3   OH210361   5.058   0.970   2.145
 3452TIP3    H110362   5.006   0.890   2.147
 3452TIP3    H210363   5.063   0.997   2.237
 3453TIP3   OH210364   2.693   3.279   0.450
 3453TIP3    H110365   2.638   3.246   0.522
 3453TIP3    H210366   2.649   3.249   0.371
 3454TIP3   OH210367   1.846   5.651   3.104
 3454TIP3    H110368   1.877   5.713   3.170
 3454TIP3    H210369   1.862   5.565   3.142
 3455TIP3   OH210370   5.791   4.023   1.688
 3455TIP3    H110371   5.873   4.031   1.736
 3455TIP3    H210372   5.734   3.973   1.747
 3456TIP3   OH210373   4.922   4.684   2.844
 3456TIP3    H110374   4.917   4.719   2.932
 3456TIP3    H210375   4.946   4.592   2.856
 3457TIP3   OH210376   2.634   3.098   4.439
 3457TIP3    H110377   2.654   3.191   4.450
 3457TIP3    H210378   2.629   3.086   4.344
 3458TIP3   OH210379   5.586   1.808   0.402
 3458TIP3    H110380   5.545   1.882   0.446
 3458TIP3    H210381   5.616   1.844   0.318
 3459TIP3   OH210382   5.078   1.022   2.423
 3459TIP3    H110383   5.121   1.107   2.419
 3459TIP3    H210384   5.012   1.032   2.491
 3460TIP3   OH210385   6.129   2.949   2.440
 3460TIP3    H110386   6.061   2.923   2.502
 3460TIP3    H210387   6.101   3.035   2.408
 3461TIP3   OH210388   5.927   5.401   0.560
 3461TIP3    H110389   6.009   5.404   0.511
 3461TIP3    H210390   5.866   5.353   0.503
 3462TIP3   OH210391   5.374   3.511   0.093
 3462TIP3    H110392   5.307   3.442   0.098
 3462TIP3    H210393   5.392   3.533   0.185
 3463TIP3   OH210394   4.328   0.471   2.579
 3463TIP3    H110395   4.262   0.446   2.643
 3463TIP3    H210396   4.410   0.436   2.615
 3464TIP3   OH210397   1.209   1.523   3.057
 3464TIP3    H110398   1.261   1.452   3.020
 3464TIP3    H210399   1.252   1.603   3.026
 3465TIP3   OH210400   1.541   5.479   0.349
 3465TIP3    H110401   1.534   5.411   0.415
 3465TIP3    H210402   1.452   5.513   0.339
 3466TIP3   OH210403   0.519   0.303   5.067
 3466TIP3    H110404   0.453   0.356   5.022
 3466TIP3    H210405   0.550   0.242   5.000
 3467TIP3   OH210406   5.576   5.834   3.424
 3467TIP3    H110407   5.490   5.793   3.419
 3467TIP3    H210408   5.557   5.927   3.436
 3468TIP3   OH210409   2.987   5.624   4.660
 3468TIP3    H110410   2.940   5.693   4.707
 3468TIP3    H210411   3.005   5.661   4.574
 3469TIP3   OH210412   3.188   5.317   3.944
 3469TIP3    H110413   3.250   5.244   3.943
 3469TIP3    H210414   3.112   5.283   3.991
 3470TIP3   OH210415   3.065   4.209   2.728
 3470TIP3    H110416   3.081   4.115   2.727
 3470TIP3    H210417   2.971   4.219   2.715
 3471TIP3   OH210418   1.380   0.316   0.686
 3471TIP3    H110419   1.469   0.296   0.713
 3471TIP3    H210420   1.355   0.243   0.629
 3472TIP3   OH210421   0.541   2.795   1.007
 3472TIP3    H110422   0.541   2.891   0.999
 3472TIP3    H210423   0.593   2.765   0.932
 3473TIP3   OH210424   3.150   5.913   0.649
 3473TIP3    H110425   3.184   5.941   0.734
 3473TIP3    H210426   3.073   5.860   0.670
 3474TIP3   OH210427   3.541   0.343   1.017
 3474TIP3    H110428   3.480   0.344   0.943
 3474TIP3    H210429   3.625   0.318   0.979
 3475TIP3   OH210430   3.272   1.331   0.875
 3475TIP3    H110431   3.189   1.376   0.862
 3475TIP3    H210432   3.257   1.243   0.840
 3476TIP3   OH210433   1.954   1.677   1.799
 3476TIP3    H110434   1.979   1.757   1.846
 3476TIP3    H210435   2.036   1.627   1.792
 3477TIP3   OH210436   3.149   5.338   2.328
 3477TIP3    H110437   3.103   5.288   2.396
 3477TIP3    H210438   3.241   5.316   2.340
 3478TIP3   OH210439   3.858   3.940   3.017
 3478TIP3    H110440   3.842   3.868   2.956
 3478TIP3    H210441   3.772   3.980   3.029
 3479TIP3   OH210442   0.133   4.681   2.413
 3479TIP3    H110443   0.228   4.675   2.425
 3479TIP3    H210444   0.096   4.653   2.497
 3480TIP3   OH210445   3.759   1.334   0.538
 3480TIP3    H110446   3.680   1.345   0.485
 3480TIP3    H210447   3.830   1.330   0.474
 3481TIP3   OH210448   0.646   3.619   0.309
 3481TIP3    H110449   0.689   3.695   0.349
 3481TIP3    H210450   0.608   3.652   0.228
 3482TIP3   OH210451   4.467   4.682   2.543
 3482TIP3    H110452   4.508   4.766   2.562
 3482TIP3    H210453   4.392   4.703   2.488
 3483TIP3   OH210454   5.601   0.862   0.345
 3483TIP3    H110455   5.693   0.851   0.367
 3483TIP3    H210456   5.572   0.775   0.319
 3484TIP3   OH210457   4.491   2.445   4.475
 3484TIP3    H110458   4.497   2.531   4.515
 3484TIP3    H210459   4.404   2.444   4.434
 3485TIP3   OH210460   2.655   0.007   4.024
 3485TIP3    H110461   2.659   0.090   3.977
 3485TIP3    H210462   2.616  -0.055   3.962
 3486TIP3   OH210463   0.289   3.789   4.916
 3486TIP3    H110464   0.197   3.795   4.941
 3486TIP3    H210465   0.337   3.805   4.998
 3487TIP3   OH210466   1.744   1.427   0.924
 3487TIP3    H110467   1.759   1.333   0.928
 3487TIP3    H210468   1.697   1.441   0.842
 3488TIP3   OH210469   0.112   5.439   1.203
 3488TIP3    H110470   0.197   5.398   1.186
 3488TIP3    H210471   0.105   5.443   1.298
 3489TIP3   OH210472   0.162   5.830   0.070
 3489TIP3    H110473   0.181   5.764   0.003
 3489TIP3    H210474   0.242   5.834   0.123
 3490TIP3   OH210475   0.632   1.710   0.493
 3490TIP3    H110476   0.685   1.638   0.526
 3490TIP3    H210477   0.562   1.668   0.442
 3491TIP3   OH210478   5.953   0.848   4.852
 3491TIP3    H110479   6.007   0.926   4.840
 3491TIP3    H210480   5.868   0.871   4.813
 3492TIP3   OH210481   1.698   5.564   0.959
 3492TIP3    H110482   1.750   5.636   0.996
 3492TIP3    H210483   1.629   5.549   1.024
 3493TIP3   OH210484   2.427   3.509   3.211
 3493TIP3    H110485   2.382   3.428   3.233
 3493TIP3    H210486   2.374   3.578   3.251
 3494TIP3   OH210487   0.273   5.849   3.466
 3494TIP3    H110488   0.326   5.879   3.392
 3494TIP3    H210489   0.266   5.926   3.523
 3495TIP3   OH210490   0.758   2.898   3.107
 3495TIP3    H110491   0.760   2.803   3.113
 3495TIP3    H210492   0.705   2.916   3.029
 3496TIP3   OH210493   0.158   1.269   2.378
 3496TIP3    H110494   0.164   1.354   2.333
 3496TIP3    H210495   0.169   1.290   2.471
 3497TIP3   OH210496   2.229   1.564   4.281
 3497TIP3    H110497   2.191   1.591   4.198
 3497TIP3    H210498   2.205   1.472   4.290
 3498TIP3   OH210499   3.896   3.395   2.013
 3498TIP3    H110500   3.965   3.349   1.965
 3498TIP3    H210501   3.900   3.359   2.101
 3499TIP3   OH210502   4.108   3.372   0.594
 3499TIP3    H110503   4.186   3.383   0.648
 3499TIP3    H210504   4.114   3.442   0.528
 3500TIP3   OH210505   4.085   3.195   1.931
 3500TIP3    H110506   4.096   3.127   1.865
 3500TIP3    H210507   4.127   3.272   1.893
 3501TIP3   OH210508   3.809   2.646   3.451
 3501TIP3    H110509   3.742   2.709   3.477
 3501TIP3    H210510   3.767   2.561   3.459
 3502TIP3   OH210511   5.601   4.368   3.203
 3502TIP3    H110512   5.676   4.308   3.206
 3502TIP3    H210513   5.598   4.398   3.113
 3503TIP3   OH210514   3.943   5.198   0.578
 3503TIP3    H110515   3.878   5.139   0.616
 3503TIP3    H210516   3.922   5.200   0.484
 3504TIP3   OH210517   3.008   5.631   5.034
 3504TIP3    H110518   2.987   5.555   5.089
 3504TIP3    H210519   2.947   5.625   4.960
 3505TIP3   OH210520   4.477   3.230   1.116
 3505TIP3    H110521   4.544   3.181   1.163
 3505TIP3    H210522   4.402   3.231   1.175
 3506TIP3   OH210523   1.704   2.270   0.705
 3506TIP3    H110524   1.676   2.317   0.627
 3506TIP3    H210525   1.658   2.186   0.700
 3507TIP3   OH210526   5.941   2.283   0.906
 3507TIP3    H110527   5.931   2.265   0.813
 3507TIP3    H210528   6.011   2.348   0.910
 3508TIP3   OH210529   5.990   0.610   1.125
 3508TIP3    H110530   5.939   0.672   1.074
 3508TIP3    H210531   6.065   0.661   1.156
 3509TIP3   OH210532   4.088   4.334   3.055
 3509TIP3    H110533   4.093   4.251   3.007
 3509TIP3    H210534   4.033   4.313   3.131
 3510TIP3   OH210535   5.589   0.306   1.444
 3510TIP3    H110536   5.542   0.226   1.423
 3510TIP3    H210537   5.648   0.282   1.516
 3511TIP3   OH210538   2.030   2.155   4.302
 3511TIP3    H110539   2.019   2.235   4.354
 3511TIP3    H210540   2.011   2.084   4.362
 3512TIP3   OH210541   3.477   3.290   4.582
 3512TIP3    H110542   3.476   3.225   4.653
 3512TIP3    H210543   3.397   3.272   4.533
 3513TIP3   OH210544   1.503   5.195   1.874
 3513TIP3    H110545   1.495   5.272   1.819
 3513TIP3    H210546   1.413   5.166   1.889
 3514TIP3   OH210547   1.701   0.870   1.387
 3514TIP3    H110548   1.757   0.948   1.381
 3514TIP3    H210549   1.763   0.797   1.398
 3515TIP3   OH210550   1.340   3.827   1.632
 3515TIP3    H110551   1.361   3.869   1.716
 3515TIP3    H210552   1.268   3.767   1.654
 3516TIP3   OH210553   1.330   5.258   3.024
 3516TIP3    H110554   1.391   5.197   2.982
 3516TIP3    H210555   1.338   5.239   3.118
 3517TIP3   OH210556   4.135   5.516   3.993
 3517TIP3    H110557   4.118   5.489   3.903
 3517TIP3    H210558   4.220   5.478   4.014
 3518TIP3   OH210559   3.434   5.321   2.365
 3518TIP3    H110560   3.483   5.245   2.334
 3518TIP3    H210561   3.497   5.369   2.419
 3519TIP3   OH210562   4.886   2.743   0.374
 3519TIP3    H110563   4.902   2.837   0.382
 3519TIP3    H210564   4.884   2.711   0.464
 3520TIP3   OH210565   2.219   1.568   1.829
 3520TIP3    H110566   2.263   1.612   1.757
 3520TIP3    H210567   2.236   1.475   1.813
 3521TIP3   OH210568   4.536   5.190   4.094
 3521TIP3    H110569   4.468   5.223   4.153
 3521TIP3    H210570   4.490   5.128   4.037
 3522TIP3   OH210571   3.164   4.999   1.222
 3522TIP3    H110572   3.205   4.988   1.136
 3522TIP3    H210573   3.209   5.075   1.260
 3523TIP3   OH210574   5.714   2.125   0.938
 3523TIP3    H110575   5.795   2.169   0.964
 3523TIP3    H210576   5.680   2.177   0.865
 3524TIP3   OH210577   5.431   2.298   3.894
 3524TIP3    H110578   5.347   2.287   3.850
 3524TIP3    H210579   5.458   2.387   3.874
 3525TIP3   OH210580   4.260   2.408   2.980
 3525TIP3    H110581   4.323   2.342   3.008
 3525TIP3    H210582   4.247   2.391   2.887
 3526TIP3   OH210583   2.915   4.053   1.192
 3526TIP3    H110584   2.879   4.010   1.269
 3526TIP3    H210585   3.001   4.012   1.180
 3527TIP3   OH210586   0.511   2.102   1.049
 3527TIP3    H110587   0.584   2.161   1.069
 3527TIP3    H210588   0.436   2.160   1.034
 3528TIP3   OH210589   4.629   1.343   2.590
 3528TIP3    H110590   4.702   1.399   2.618
 3528TIP3    H210591   4.669   1.279   2.532
 3529TIP3   OH210592   4.960   2.289   3.163
 3529TIP3    H110593   5.051   2.311   3.182
 3529TIP3    H210594   4.940   2.336   3.082
 3530TIP3   OH210595   2.794   3.519   5.251
 3530TIP3    H110596   2.866   3.468   5.289
 3530TIP3    H210597   2.798   3.498   5.158
 3531TIP3   OH210598   5.531   0.309   3.037
 3531TIP3    H110599   5.574   0.324   3.121
 3531TIP3    H210600   5.491   0.222   3.045
 3532TIP3   OH210601   0.944   3.674   4.808
 3532TIP3    H110602   0.976   3.644   4.723
 3532TIP3    H210603   0.872   3.734   4.787
 3533TIP3   OH210604   5.234   5.782   2.269
 3533TIP3    H110605   5.209   5.690   2.261
 3533TIP3    H210606   5.325   5.780   2.299
 3534TIP3   OH210607   0.568   3.309   2.684
 3534TIP3    H110608   0.561   3.250   2.609
 3534TIP3    H210609   0.507   3.380   2.665
 3535TIP3   OH210610   2.260   3.407   1.536
 3535TIP3    H110611   2.338   3.445   1.578
 3535TIP3    H210612   2.277   3.415   1.443
 3536TIP3   OH210613   1.147   1.914   4.594
 3536TIP3    H110614   1.189   1.882   4.514
 3536TIP3    H210615   1.058   1.878   4.590
 3537TIP3   OH210616   1.222   3.727   2.040
 3537TIP3    H110617   1.221   3.771   2.125
 3537TIP3    H210618   1.278   3.782   1.985
 3538TIP3   OH210619   0.102   2.030   5.100
 3538TIP3    H110620   0.098   2.124   5.083
 3538TIP3    H210621   0.038   1.992   5.040
 3539TIP3   OH210622   2.577   1.523   4.538
 3539TIP3    H110623   2.665   1.523   4.500
 3539TIP3    H210624   2.548   1.614   4.531
 3540TIP3   OH210625   3.147   4.458   1.747
 3540TIP3    H110626   3.201   4.433   1.823
 3540TIP3    H210627   3.210   4.476   1.678
 3541TIP3   OH210628   1.794   2.550   2.963
 3541TIP3    H110629   1.887   2.568   2.975
 3541TIP3    H210630   1.792   2.484   2.893
 3542TIP3   OH210631   5.670   0.411   5.056
 3542TIP3    H110632   5.620   0.493   5.056
 3542TIP3    H210633   5.610   0.347   5.017
 3543TIP3   OH210634   5.650   3.156   2.989
 3543TIP3    H110635   5.661   3.061   2.990
 3543TIP3    H210636   5.617   3.175   2.901
 3544TIP3   OH210637   3.594   4.090   1.992
 3544TIP3    H110638   3.643   4.109   1.911
 3544TIP3    H210639   3.646   4.131   2.061
 3545TIP3   OH210640   0.840   0.438   3.893
 3545TIP3    H110641   0.794   0.361   3.927
 3545TIP3    H210642   0.925   0.437   3.938
 3546TIP3   OH210643   2.628   0.248   2.187
 3546TIP3    H110644   2.674   0.271   2.268
 3546TIP3    H210645   2.538   0.275   2.202
 3547TIP3   OH210646   5.921   4.887   3.193
 3547TIP3    H110647   5.867   4.814   3.225
 3547TIP3    H210648   5.936   4.866   3.101
 3548TIP3   OH210649   4.233   1.891   2.921
 3548TIP3    H110650   4.309   1.835   2.904
 3548TIP3    H210651   4.158   1.842   2.888
 3549TIP3   OH210652   5.133   5.113   3.256
 3549TIP3    H110653   5.113   5.195   3.210
 3549TIP3    H210654   5.168   5.141   3.341
 3550TIP3   OH210655   5.355   0.259   1.992
 3550TIP3    H110656   5.349   0.221   2.080
 3550TIP3    H210657   5.277   0.314   1.984
 3551TIP3   OH210658   4.643   3.656   0.589
 3551TIP3    H110659   4.647   3.561   0.601
 3551TIP3    H210660   4.625   3.690   0.677
 3552TIP3   OH210661   3.785   2.253   4.578
 3552TIP3    H110662   3.775   2.158   4.574
 3552TIP3    H210663   3.787   2.273   4.671
 3553TIP3   OH210664   5.534   1.954   2.167
 3553TIP3    H110665   5.504   2.039   2.200
 3553TIP3    H210666   5.453   1.903   2.157
 3554TIP3   OH210667   1.052   1.645   3.750
 3554TIP3    H110668   1.134   1.622   3.705
 3554TIP3    H210669   1.016   1.561   3.779
 3555TIP3   OH210670   2.124   4.275   0.032
 3555TIP3    H110671   2.100   4.191   0.071
 3555TIP3    H210672   2.068   4.339   0.076
 3556TIP3   OH210673   1.092   0.680   0.947
 3556TIP3    H110674   1.120   0.762   0.988
 3556TIP3    H210675   1.013   0.655   0.995
 3557TIP3   OH210676   0.058   5.513   1.909
 3557TIP3    H110677  -0.001   5.502   1.835
 3557TIP3    H210678   0.067   5.608   1.919
 3558TIP3   OH210679   2.281   4.899   5.015
 3558TIP3    H110680   2.271   4.864   5.103
 3558TIP3    H210681   2.342   4.972   5.024
 3559TIP3   OH210682   0.763   3.492   2.743
 3559TIP3    H110683   0.840   3.455   2.787
 3559TIP3    H210684   0.699   3.420   2.743
 3560TIP3   OH210685   5.053   2.837   4.464
 3560TIP3    H110686   5.107   2.824   4.387
 3560TIP3    H210687   5.001   2.915   4.444
 3561TIP3   OH210688   3.923   3.817   3.661
 3561TIP3    H110689   3.883   3.841   3.745
 3561TIP3    H210690   4.007   3.779   3.686
 3562TIP3   OH210691   0.921   4.619   4.702
 3562TIP3    H110692   0.858   4.630   4.773
 3562TIP3    H210693   1.006   4.626   4.744
 3563TIP3   OH210694   0.441   1.157   1.744
 3563TIP3    H110695   0.436   1.062   1.746
 3563TIP3    H210696   0.492   1.177   1.665
 3564TIP3   OH210697   4.457   2.338   0.813
 3564TIP3    H110698   4.466   2.320   0.907
 3564TIP3    H210699   4.541   2.311   0.776
 3565TIP3   OH210700   3.575  -0.007   1.483
 3565TIP3    H110701   3.585   0.074   1.433
 3565TIP3    H210702   3.484  -0.032   1.471
 3566TIP3   OH210703   0.178   2.295   2.013
 3566TIP3    H110704   0.136   2.209   2.013
 3566TIP3    H210705   0.164   2.329   1.925
 3567TIP3   OH210706   1.347   4.966   0.331
 3567TIP3    H110707   1.254   4.953   0.310
 3567TIP3    H210708   1.393   4.948   0.249
 3568TIP3   OH210709   0.921   4.450   1.201
 3568TIP3    H110710   0.850   4.404   1.245
 3568TIP3    H210711   0.978   4.381   1.167
 3569TIP3   OH210712   1.333   0.496   1.283
 3569TIP3    H110713   1.312   0.586   1.258
 3569TIP3    H210714   1.255   0.446   1.260
 3570TIP3   OH210715   0.977   4.639   2.387
 3570TIP3    H110716   1.057   4.646   2.440
 3570TIP3    H210717   0.969   4.545   2.370
 3571TIP3   OH210718   2.372   5.139   4.676
 3571TIP3    H110719   2.399   5.222   4.716
 3571TIP3    H210720   2.453   5.089   4.668
 3572TIP3   OH210721   3.463   1.837   2.424
 3572TIP3    H110722   3.417   1.763   2.385
 3572TIP3    H210723   3.413   1.914   2.395
 3573TIP3   OH210724   5.676   5.781   3.164
 3573TIP3    H110725   5.621   5.835   3.107
 3573TIP3    H210726   5.656   5.812   3.253
 3574TIP3   OH210727   3.300   4.133   1.984
 3574TIP3    H110728   3.259   4.133   1.898
 3574TIP3    H210729   3.387   4.096   1.969
 3575TIP3   OH210730   2.043   2.419   1.581
 3575TIP3    H110731   2.037   2.366   1.661
 3575TIP3    H210732   2.123   2.389   1.538
 3576TIP3   OH210733   1.734  -0.003   1.783
 3576TIP3    H110734   1.753  -0.060   1.709
 3576TIP3    H210735   1.742   0.085   1.748
 3577TIP3   OH210736   2.490   2.882   0.596
 3577TIP3    H110737   2.486   2.889   0.691
 3577TIP3    H210738   2.459   2.793   0.577
 3578TIP3   OH210739   4.073   0.170   4.968
 3578TIP3    H110740   4.153   0.132   5.003
 3578TIP3    H210741   4.007   0.103   4.981
 3579TIP3   OH210742   3.133   1.310   0.264
 3579TIP3    H110743   3.148   1.282   0.173
 3579TIP3    H210744   3.217   1.292   0.308
 3580TIP3   OH210745   1.901   1.739   3.914
 3580TIP3    H110746   1.919   1.763   4.005
 3580TIP3    H210747   1.895   1.822   3.868
 3581TIP3   OH210748   6.028   1.320   2.842
 3581TIP3    H110749   5.978   1.401   2.851
 3581TIP3    H210750   5.968   1.260   2.797
 3582TIP3   OH210751   0.849   0.353   0.163
 3582TIP3    H110752   0.804   0.269   0.169
 3582TIP3    H210753   0.930   0.340   0.212
 3583TIP3   OH210754   4.109   3.808   1.808
 3583TIP3    H110755   4.179   3.834   1.748
 3583TIP3    H210756   4.043   3.876   1.799
 3584TIP3   OH210757   4.772   4.176   3.185
 3584TIP3    H110758   4.716   4.244   3.222
 3584TIP3    H210759   4.718   4.096   3.187
 3585TIP3   OH210760   1.162   2.299   2.935
 3585TIP3    H110761   1.130   2.219   2.976
 3585TIP3    H210762   1.150   2.284   2.841
 3586TIP3   OH210763   4.342   3.671   4.806
 3586TIP3    H110764   4.287   3.728   4.753
 3586TIP3    H210765   4.428   3.675   4.765
 3587TIP3   OH210766   1.068   3.286   2.506
 3587TIP3    H110767   1.119   3.312   2.583
 3587TIP3    H210768   1.007   3.220   2.540
 3588TIP3   OH210769   5.731   3.623   1.488
 3588TIP3    H110770   5.748   3.614   1.394
 3588TIP3    H210771   5.684   3.543   1.511
 3589TIP3   OH210772   4.084   1.735   2.112
 3589TIP3    H110773   4.101   1.820   2.071
 3589TIP3    H210774   4.078   1.674   2.038
 3590TIP3   OH210775   4.360   2.267   1.423
 3590TIP3    H110776   4.377   2.227   1.509
 3590TIP3    H210777   4.267   2.292   1.426
 3591TIP3   OH210778   2.787   0.138   0.366
 3591TIP3    H110779   2.728   0.169   0.297
 3591TIP3    H210780   2.734   0.076   0.417
 3592TIP3   OH210781   4.645   4.725   0.954
 3592TIP3    H110782   4.731   4.759   0.931
 3592TIP3    H210783   4.656   4.691   1.043
 3593TIP3   OH210784   5.905   4.228   1.526
 3593TIP3    H110785   5.825   4.221   1.474
 3593TIP3    H210786   5.880   4.192   1.612
 3594TIP3   OH210787   3.509   3.109   3.928
 3594TIP3    H110788   3.515   3.181   3.991
 3594TIP3    H210789   3.522   3.030   3.980
 3595TIP3   OH210790   1.062   3.403   0.664
 3595TIP3    H110791   1.104   3.415   0.749
 3595TIP3    H210792   1.037   3.311   0.662
 3596TIP3   OH210793   4.423   3.673   2.519
 3596TIP3    H110794   4.386   3.633   2.440
 3596TIP3    H210795   4.438   3.764   2.495
 3597TIP3   OH210796   4.623   4.890   3.388
 3597TIP3    H110797   4.651   4.889   3.479
 3597TIP3    H210798   4.634   4.799   3.359
 3598TIP3   OH210799   4.894   0.279   0.845
 3598TIP3    H110800   4.932   0.213   0.903
 3598TIP3    H210801   4.799   0.263   0.850
 3599TIP3   OH210802   6.092   5.286   1.091
 3599TIP3    H110803   6.160   5.339   1.134
 3599TIP3    H210804   6.027   5.350   1.063
 3600TIP3   OH210805   6.210   4.546   1.872
 3600TIP3    H110806   6.258   4.543   1.955
 3600TIP3    H210807   6.247   4.475   1.820
 3601TIP3   OH210808   0.946   3.910   1.811
 3601TIP3    H110809   0.976   3.992   1.848
 3601TIP3    H210810   0.884   3.875   1.875
 3602TIP3   OH210811   0.376   4.266   1.325
 3602TIP3    H110812   0.377   4.177   1.291
 3602TIP3    H210813   0.403   4.321   1.252
 3603TIP3   OH210814   5.755   4.495   5.089
 3603TIP3    H110815   5.754   4.588   5.109
 3603TIP3    H210816   5.664   4.473   5.068
 3604TIP3   OH210817   1.953   2.680   1.651
 3604TIP3    H110818   1.965   2.593   1.615
 3604TIP3    H210819   2.007   2.681   1.730
 3605TIP3   OH210820   1.631   4.988   1.538
 3605TIP3    H110821   1.560   4.956   1.594
 3605TIP3    H210822   1.655   5.073   1.574
 3606TIP3   OH210823   0.422   0.420   2.870
 3606TIP3    H110824   0.402   0.468   2.790
 3606TIP3    H210825   0.472   0.344   2.840
 3607TIP3   OH210826   3.075   3.516   0.539
 3607TIP3    H110827   3.124   3.466   0.604
 3607TIP3    H210828   3.115   3.491   0.455
 3608TIP3   OH210829   5.626   1.179   1.936
 3608TIP3    H110830   5.629   1.273   1.949
 3608TIP3    H210831   5.536   1.161   1.909
 3609TIP3   OH210832   2.444   0.525   0.875
 3609TIP3    H110833   2.488   0.448   0.838
 3609TIP3    H210834   2.358   0.525   0.834
 3610TIP3   OH210835   3.390   5.674   0.888
 3610TIP3    H110836   3.384   5.658   0.982
 3610TIP3    H210837   3.444   5.753   0.881
 3611TIP3   OH210838   2.165   1.685   1.359
 3611TIP3    H110839   2.250   1.722   1.337
 3611TIP3    H210840   2.151   1.616   1.295
 3612TIP3   OH210841   2.962   5.409   4.347
 3612TIP3    H110842   2.936   5.451   4.265
 3612TIP3    H210843   2.928   5.467   4.415
 3613TIP3   OH210844   5.505   3.041   1.460
 3613TIP3    H110845   5.520   2.991   1.380
 3613TIP3    H210846   5.439   3.106   1.437
 3614TIP3   OH210847   5.285   0.696   3.589
 3614TIP3    H110848   5.364   0.712   3.536
 3614TIP3    H210849   5.318   0.659   3.670
 3615TIP3   OH210850   0.830   0.163   0.951
 3615TIP3    H110851   0.746   0.208   0.963
 3615TIP3    H210852   0.895   0.225   0.983
 3616TIP3   OH210853   0.750   5.710   3.240
 3616TIP3    H110854   0.818   5.646   3.225
 3616TIP3    H210855   0.736   5.708   3.335
 3617TIP3   OH210856   4.096   4.799   3.106
 3617TIP3    H110857   4.179   4.815   3.062
 3617TIP3    H210858   4.032   4.792   3.036
 3618TIP3   OH210859   4.835   3.221   1.009
 3618TIP3    H110860   4.809   3.170   1.086
 3618TIP3    H210861   4.766   3.203   0.944
 3619TIP3   OH210862   3.220   4.396   2.528
 3619TIP3    H110863   3.189   4.398   2.619
 3619TIP3    H210864   3.315   4.384   2.536
 3620TIP3   OH210865   0.276   4.497   0.342
 3620TIP3    H110866   0.213   4.495   0.414
 3620TIP3    H210867   0.309   4.587   0.340
 3621TIP3   OH210868   0.801   5.489   1.102
 3621TIP3    H110869   0.716   5.451   1.080
 3621TIP3    H210870   0.832   5.527   1.020
 3622TIP3   OH210871   2.256   3.253   1.974
 3622TIP3    H110872   2.229   3.243   1.883
 3622TIP3    H210873   2.175   3.262   2.023
 3623TIP3   OH210874   3.521   4.776   1.889
 3623TIP3    H110875   3.425   4.775   1.887
 3623TIP3    H210876   3.547   4.754   1.799
 3624TIP3   OH210877   4.268   0.764   0.503
 3624TIP3    H110878   4.356   0.771   0.541
 3624TIP3    H210879   4.281   0.781   0.410
 3625TIP3   OH210880   0.283   5.100   3.029
 3625TIP3    H110881   0.359   5.142   3.070
 3625TIP3    H210882   0.227   5.174   3.003
 3626TIP3   OH210883   3.449   5.434   0.789
 3626TIP3    H110884   3.425   5.366   0.852
 3626TIP3    H210885   3.411   5.514   0.823
 3627TIP3   OH210886   2.117   5.627   4.134
 3627TIP3    H110887   2.057   5.685   4.088
 3627TIP3    H210888   2.151   5.679   4.206
 3628TIP3   OH210889   2.174   1.295   4.612
 3628TIP3    H110890   2.260   1.309   4.650
 3628TIP3    H210891   2.152   1.379   4.571
 3629TIP3   OH210892   1.302   1.321   1.504
 3629TIP3    H110893   1.266   1.234   1.494
 3629TIP3    H210894   1.374   1.325   1.441
 3630TIP3   OH210895   6.319   2.007   4.848
 3630TIP3    H110896   6.282   2.094   4.863
 3630TIP3    H210897   6.330   2.002   4.753
 3631TIP3   OH210898   1.249   2.212   3.396
 3631TIP3    H110899   1.323   2.150   3.391
 3631TIP3    H210900   1.185   2.167   3.451
 3632TIP3   OH210901   3.458   5.495   3.948
 3632TIP3    H110902   3.482   5.420   4.002
 3632TIP3    H210903   3.362   5.490   3.943
 3633TIP3   OH210904   1.139   4.049   4.657
 3633TIP3    H110905   1.082   4.079   4.586
 3633TIP3    H210906   1.223   4.031   4.613
 3634TIP3   OH210907   5.568   1.248   1.633
 3634TIP3    H110908   5.532   1.221   1.548
 3634TIP3    H210909   5.507   1.212   1.697
 3635TIP3   OH210910   0.185   0.620   2.934
 3635TIP3    H110911   0.140   0.670   2.866
 3635TIP3    H210912   0.235   0.685   2.983
 3636TIP3   OH210913   4.267   5.589   1.593
 3636TIP3    H110914   4.270   5.556   1.503
 3636TIP3    H210915   4.342   5.649   1.598
 3637TIP3   OH210916   2.991   1.721   0.249
 3637TIP3    H110917   3.058   1.725   0.317
 3637TIP3    H210918   2.980   1.628   0.231
 3638TIP3   OH210919   6.268   3.604   2.913
 3638TIP3    H110920   6.266   3.512   2.943
 3638TIP3    H210921   6.318   3.601   2.832
 3639TIP3   OH210922   5.245   0.190   2.772
 3639TIP3    H110923   5.223   0.242   2.849
 3639TIP3    H210924   5.284   0.252   2.712
 3640TIP3   OH210925   5.275   0.598   3.179
 3640TIP3    H110926   5.338   0.667   3.160
 3640TIP3    H210927   5.288   0.578   3.272
 3641TIP3   OH210928   1.481   2.417   1.057
 3641TIP3    H110929   1.576   2.401   1.058
 3641TIP3    H210930   1.465   2.456   0.971
 3642TIP3   OH210931   1.380   4.271   0.186
 3642TIP3    H110932   1.327   4.254   0.108
 3642TIP3    H210933   1.328   4.334   0.236
 3643TIP3   OH210934   5.259   4.657   4.822
 3643TIP3    H110935   5.303   4.740   4.801
 3643TIP3    H210936   5.297   4.593   4.762
 3644TIP3   OH210937   1.012   3.486   2.322
 3644TIP3    H110938   0.917   3.481   2.322
 3644TIP3    H210939   1.039   3.432   2.396
 3645TIP3   OH210940   6.139   1.818   4.968
 3645TIP3    H110941   6.162   1.909   4.946
 3645TIP3    H210942   6.083   1.790   4.896
 3646TIP3   OH210943   2.503   2.586   4.388
 3646TIP3    H110944   2.512   2.504   4.340
 3646TIP3    H210945   2.571   2.642   4.352
 3647TIP3   OH210946   1.156   5.327   0.506
 3647TIP3    H110947   1.065   5.323   0.536
 3647TIP3    H210948   1.208   5.321   0.587
 3648TIP3   OH210949   3.660   3.065   4.396
 3648TIP3    H110950   3.582   3.009   4.397
 3648TIP3    H210951   3.703   3.045   4.314
 3649TIP3   OH210952   4.431   2.651   4.894
 3649TIP3    H110953   4.507   2.709   4.886
 3649TIP3    H210954   4.402   2.637   4.804
 3650TIP3   OH210955   4.519   4.439   1.160
 3650TIP3    H110956   4.449   4.472   1.103
 3650TIP3    H210957   4.510   4.344   1.158
 3651TIP3   OH210958   5.652   2.704   0.098
 3651TIP3    H110959   5.653   2.612   0.073
 3651TIP3    H210960   5.715   2.710   0.170
 3652TIP3   OH210961   1.843   2.617   4.232
 3652TIP3    H110962   1.864   2.648   4.320
 3652TIP3    H210963   1.747   2.610   4.231
 3653TIP3   OH210964   4.010   0.944   5.050
 3653TIP3    H110965   3.972   0.862   5.019
 3653TIP3    H210966   3.941   1.009   5.037
 3654TIP3   OH210967   2.188   2.066   4.668
 3654TIP3    H110968   2.267   2.040   4.620
 3654TIP3    H210969   2.160   2.148   4.627
 3655TIP3   OH210970   2.313   3.980   2.325
 3655TIP3    H110971   2.278   3.901   2.284
 3655TIP3    H210972   2.400   3.954   2.355
 3656TIP3   OH210973   5.766   1.783   2.054
 3656TIP3    H110974   5.824   1.815   1.985
 3656TIP3    H210975   5.680   1.819   2.032
 3657TIP3   OH210976   4.852   3.331   3.541
 3657TIP3    H110977   4.859   3.244   3.501
 3657TIP3    H210978   4.819   3.315   3.629
 3658TIP3   OH210979   2.395   3.476   4.927
 3658TIP3    H110980   2.458   3.412   4.894
 3658TIP3    H210981   2.323   3.423   4.962
 3659TIP3   OH210982   4.931   0.942   0.497
 3659TIP3    H110983   4.960   1.033   0.506
 3659TIP3    H210984   4.836   0.947   0.493
 3660TIP3   OH210985   5.996   2.985   0.172
 3660TIP3    H110986   6.034   2.912   0.220
 3660TIP3    H210987   6.027   3.063   0.218
 3661TIP3   OH210988   5.499   4.544   3.503
 3661TIP3    H110989   5.496   4.449   3.513
 3661TIP3    H210990   5.480   4.577   3.591
 3662TIP3   OH210991   0.155   1.856   3.674
 3662TIP3    H110992   0.131   1.917   3.744
 3662TIP3    H210993   0.231   1.809   3.708
 3663TIP3   OH210994   4.357   1.764   3.457
 3663TIP3    H110995   4.431   1.768   3.517
 3663TIP3    H210996   4.305   1.690   3.488
 3664TIP3   OH210997   3.852   3.550   3.304
 3664TIP3    H110998   3.805   3.582   3.382
 3664TIP3    H210999   3.796   3.576   3.231
 3665TIP3   OH211000   5.124   3.181   1.346
 3665TIP3    H111001   5.081   3.237   1.411
 3665TIP3    H211002   5.207   3.224   1.327
 3666TIP3   OH211003   2.704   5.781   0.277
 3666TIP3    H111004   2.634   5.823   0.327
 3666TIP3    H211005   2.694   5.815   0.188
 3667TIP3   OH211006   1.708   0.647   0.527
 3667TIP3    H111007   1.658   0.725   0.503
 3667TIP3    H211008   1.721   0.654   0.621
 3668TIP3   OH211009   4.577   2.828   0.846
 3668TIP3    H111010   4.513   2.894   0.873
 3668TIP3    H211011   4.619   2.865   0.769
 3669TIP3   OH211012   4.422   3.531   0.174
 3669TIP3    H111013   4.433   3.563   0.263
 3669TIP3    H211014   4.478   3.454   0.169
 3670TIP3   OH211015   4.524   5.129   2.822
 3670TIP3    H111016   4.606   5.101   2.862
 3670TIP3    H211017   4.465   5.055   2.831
 3671TIP3   OH211018   4.488   1.681   3.761
 3671TIP3    H111019   4.490   1.611   3.827
 3671TIP3    H211020   4.555   1.743   3.790
 3672TIP3   OH211021   1.198   2.856   3.833
 3672TIP3    H111022   1.282   2.893   3.808
 3672TIP3    H211023   1.140   2.931   3.842
 3673TIP3   OH211024   0.841   5.038   4.755
 3673TIP3    H111025   0.801   5.122   4.733
 3673TIP3    H211026   0.925   5.061   4.794
 3674TIP3   OH211027   4.204   3.720   3.396
 3674TIP3    H111028   4.230   3.666   3.470
 3674TIP3    H211029   4.252   3.685   3.322
 3675TIP3   OH211030   6.029   3.832   4.603
 3675TIP3    H111031   6.079   3.903   4.562
 3675TIP3    H211032   6.075   3.752   4.577
 3676TIP3   OH211033   6.275   3.342   2.935
 3676TIP3    H111034   6.223   3.264   2.917
 3676TIP3    H211035   6.360   3.308   2.964
 3677TIP3   OH211036   5.211   3.636   4.959
 3677TIP3    H111037   5.134   3.692   4.944
 3677TIP3    H211038   5.192   3.591   5.041
 3678TIP3   OH211039   5.834   4.203   4.544
 3678TIP3    H111040   5.911   4.192   4.489
 3678TIP3    H211041   5.868   4.243   4.625
 3679TIP3   OH211042   4.827   2.418   2.620
 3679TIP3    H111043   4.824   2.380   2.532
 3679TIP3    H211044   4.871   2.502   2.609
 3680TIP3   OH211045   0.598   2.356   0.530
 3680TIP3    H111046   0.647   2.426   0.571
 3680TIP3    H211047   0.562   2.305   0.603
 3681TIP3   OH211048   1.711   3.357   3.189
 3681TIP3    H111049   1.650   3.353   3.115
 3681TIP3    H211050   1.662   3.404   3.257
 3682TIP3   OH211051   2.018   1.294   2.611
 3682TIP3    H111052   1.966   1.216   2.627
 3682TIP3    H211053   1.959   1.354   2.565
 3683TIP3   OH211054   5.319   5.947   2.778
 3683TIP3    H111055   5.233   5.986   2.763
 3683TIP3    H211056   5.354   5.932   2.689
 3684TIP3   OH211057   1.343   1.141   1.987
 3684TIP3    H111058   1.311   1.124   1.899
 3684TIP3    H211059   1.264   1.164   2.037
 3685TIP3   OH211060   5.588   0.142   4.883
 3685TIP3    H111061   5.609   0.049   4.894
 3685TIP3    H211062   5.563   0.150   4.791
 3686TIP3   OH211063   3.703   1.870   3.402
 3686TIP3    H111064   3.674   1.893   3.490
 3686TIP3    H211065   3.758   1.942   3.375
 3687TIP3   OH211066   0.266   3.068   4.328
 3687TIP3    H111067   0.244   3.053   4.420
 3687TIP3    H211068   0.284   3.162   4.323
 3688TIP3   OH211069   6.262   4.520   0.432
 3688TIP3    H111070   6.226   4.588   0.489
 3688TIP3    H211071   6.306   4.568   0.362
 3689TIP3   OH211072   0.979   5.289   0.203
 3689TIP3    H111073   0.898   5.261   0.161
 3689TIP3    H211074   0.960   5.375   0.240
 3690TIP3   OH211075   3.941   2.846   1.901
 3690TIP3    H111076   3.921   2.905   1.828
 3690TIP3    H211077   4.017   2.886   1.943
 3691TIP3   OH211078   4.066   3.946   3.334
 3691TIP3    H111079   4.105   3.867   3.369
 3691TIP3    H211080   4.133   4.013   3.346
 3692TIP3   OH211081   5.499   3.244   3.512
 3692TIP3    H111082   5.530   3.333   3.532
 3692TIP3    H211083   5.579   3.194   3.498
 3693TIP3   OH211084   4.772   2.780   4.256
 3693TIP3    H111085   4.848   2.781   4.197
 3693TIP3    H211086   4.746   2.687   4.258
 3694TIP3   OH211087   2.305   2.194   4.218
 3694TIP3    H111088   2.320   2.267   4.277
 3694TIP3    H211089   2.214   2.167   4.235
 3695TIP3   OH211090   0.465   1.556   3.224
 3695TIP3    H111091   0.557   1.564   3.249
 3695TIP3    H211092   0.423   1.633   3.261
 3696TIP3   OH211093   5.645   4.928   1.960
 3696TIP3    H111094   5.621   4.910   1.868
 3696TIP3    H211095   5.733   4.891   1.969
 3697TIP3   OH211096   3.283   3.679   2.814
 3697TIP3    H111097   3.355   3.738   2.794
 3697TIP3    H211098   3.322   3.615   2.874
 3698TIP3   OH211099   1.833   2.095   1.073
 3698TIP3    H111100   1.758   2.112   1.130
 3698TIP3    H211101   1.822   2.004   1.045
 3699TIP3   OH211102   3.465   2.708   3.926
 3699TIP3    H111103   3.506   2.736   4.008
 3699TIP3    H211104   3.479   2.613   3.923
 3700TIP3   OH211105   2.885   5.594   0.359
 3700TIP3    H111106   2.841   5.530   0.415
 3700TIP3    H211107   2.828   5.671   0.361
 3701TIP3   OH211108   1.980   5.302   3.762
 3701TIP3    H111109   2.038   5.307   3.687
 3701TIP3    H211110   1.986   5.211   3.791
 3702TIP3   OH211111   1.978   2.015   3.518
 3702TIP3    H111112   2.024   1.959   3.579
 3702TIP3    H211113   1.953   2.092   3.569
 3703TIP3   OH211114   4.887   1.713   4.641
 3703TIP3    H111115   4.825   1.688   4.572
 3703TIP3    H211116   4.882   1.809   4.643
 3704TIP3   OH211117   0.671   4.153   1.826
 3704TIP3    H111118   0.741   4.217   1.812
 3704TIP3    H211119   0.717   4.072   1.847
 3705TIP3   OH211120   3.428   1.833   2.999
 3705TIP3    H111121   3.475   1.809   2.919
 3705TIP3    H211122   3.352   1.882   2.968
 3706TIP3   OH211123   2.064   2.940   1.076
 3706TIP3    H111124   2.009   2.867   1.105
 3706TIP3    H211125   2.065   3.000   1.150
 3707TIP3   OH211126   1.896   0.537   0.321
 3707TIP3    H111127   1.892   0.443   0.336
 3707TIP3    H211128   1.845   0.575   0.392
 3708TIP3   OH211129   4.238   4.525   4.568
 3708TIP3    H111130   4.329   4.554   4.566
 3708TIP3    H211131   4.244   4.430   4.573
 3709TIP3   OH211132   3.560   1.162   4.234
 3709TIP3    H111133   3.525   1.247   4.209
 3709TIP3    H211134   3.483   1.106   4.245
 3710TIP3   OH211135   4.117   4.696   4.360
 3710TIP3    H111136   4.140   4.686   4.452
 3710TIP3    H211137   4.177   4.638   4.313
 3711TIP3   OH211138   3.632   2.256   1.321
 3711TIP3    H111139   3.581   2.270   1.401
 3711TIP3    H211140   3.598   2.175   1.284
 3712TIP3   OH211141   4.365   2.415   4.101
 3712TIP3    H111142   4.341   2.322   4.101
 3712TIP3    H211143   4.292   2.458   4.146
 3713TIP3   OH211144   6.012   3.776   4.052
 3713TIP3    H111145   6.053   3.714   4.112
 3713TIP3    H211146   5.939   3.813   4.102
 3714TIP3   OH211147   4.006   0.113   4.100
 3714TIP3    H111148   4.031   0.117   4.192
 3714TIP3    H211149   4.090   0.112   4.053
 3715TIP3   OH211150   0.149   3.604   3.230
 3715TIP3    H111151   0.195   3.617   3.147
 3715TIP3    H211152   0.057   3.621   3.209
 3716TIP3   OH211153   0.196   3.594   4.725
 3716TIP3    H111154   0.228   3.660   4.786
 3716TIP3    H211155   0.102   3.591   4.740
 3717TIP3   OH211156   3.609   5.690   5.151
 3717TIP3    H111157   3.669   5.762   5.172
 3717TIP3    H211158   3.530   5.733   5.119
 3718TIP3   OH211159   1.772   2.043   0.032
 3718TIP3    H111160   1.843   2.043   0.096
 3718TIP3    H211161   1.754   1.951   0.015
 3719TIP3   OH211162   1.283   1.389   1.767
 3719TIP3    H111163   1.294   1.367   1.674
 3719TIP3    H211164   1.215   1.330   1.798
 3720TIP3   OH211165   2.502   2.764   3.649
 3720TIP3    H111166   2.409   2.746   3.664
 3720TIP3    H211167   2.529   2.699   3.584
 3721TIP3   OH211168   0.453   2.310   2.662
 3721TIP3    H111169   0.473   2.328   2.570
 3721TIP3    H211170   0.404   2.227   2.660
 3722TIP3   OH211171   5.996   5.248   1.652
 3722TIP3    H111172   6.038   5.213   1.573
 3722TIP3    H211173   5.902   5.240   1.635
 3723TIP3   OH211174   3.078   2.649   1.192
 3723TIP3    H111175   3.063   2.657   1.286
 3723TIP3    H211176   3.001   2.603   1.159
 3724TIP3   OH211177   0.407   1.109   4.747
 3724TIP3    H111178   0.396   1.015   4.732
 3724TIP3    H211179   0.480   1.115   4.808
 3725TIP3   OH211180   2.716   2.675   2.770
 3725TIP3    H111181   2.744   2.590   2.735
 3725TIP3    H211182   2.762   2.740   2.716
 3726TIP3   OH211183   4.534   4.935   4.565
 3726TIP3    H111184   4.452   4.957   4.608
 3726TIP3    H211185   4.512   4.927   4.472
 3727TIP3   OH211186   2.419   2.271   0.948
 3727TIP3    H111187   2.500   2.244   0.905
 3727TIP3    H211188   2.363   2.303   0.878
 3728TIP3   OH211189   4.508   5.641   0.975
 3728TIP3    H111190   4.424   5.651   0.930
 3728TIP3    H211191   4.568   5.609   0.907
 3729TIP3   OH211192   2.315   1.815   0.838
 3729TIP3    H111193   2.235   1.851   0.801
 3729TIP3    H211194   2.314   1.842   0.930
 3730TIP3   OH211195   3.729   0.377   0.197
 3730TIP3    H111196   3.643   0.362   0.159
 3730TIP3    H211197   3.750   0.296   0.244
 3731TIP3   OH211198   5.280   0.690   5.070
 3731TIP3    H111199   5.334   0.670   5.147
 3731TIP3    H211200   5.331   0.656   4.996
 3732TIP3   OH211201   1.225   2.921   0.653
 3732TIP3    H111202   1.218   2.948   0.561
 3732TIP3    H211203   1.220   2.825   0.649
 3733TIP3   OH211204   2.269   2.335   0.717
 3733TIP3    H111205   2.345   2.318   0.661
 3733TIP3    H211206   2.194   2.320   0.660
 3734TIP3   OH211207   4.148   3.837   4.371
 3734TIP3    H111208   4.073   3.806   4.423
 3734TIP3    H211209   4.193   3.898   4.428
 3735TIP3   OH211210   5.107   0.603   1.046
 3735TIP3    H111211   5.150   0.624   0.963
 3735TIP3    H211212   5.163   0.644   1.112
 3736TIP3   OH211213   1.145   5.894   1.785
 3736TIP3    H111214   1.233   5.872   1.817
 3736TIP3    H211215   1.161   5.949   1.709
 3737TIP3   OH211216   5.974   0.666   4.418
 3737TIP3    H111217   5.926   0.744   4.447
 3737TIP3    H211218   5.956   0.660   4.324
 3738TIP3   OH211219   5.924   2.504   1.597
 3738TIP3    H111220   5.875   2.529   1.675
 3738TIP3    H211221   5.886   2.420   1.571
 3739TIP3   OH211222   2.574   4.830   3.621
 3739TIP3    H111223   2.636   4.902   3.631
 3739TIP3    H211224   2.577   4.808   3.528
 3740TIP3   OH211225   4.558   1.463   0.572
 3740TIP3    H111226   4.576   1.406   0.497
 3740TIP3    H211227   4.468   1.493   0.559
 3741TIP3   OH211228   5.026   0.955   4.482
 3741TIP3    H111229   4.986   1.012   4.547
 3741TIP3    H211230   5.114   0.937   4.517
 3742TIP3   OH211231   0.688   4.933   2.334
 3742TIP3    H111232   0.644   4.849   2.321
 3742TIP3    H211233   0.734   4.949   2.251
 3743TIP3   OH211234   4.214   5.856   0.446
 3743TIP3    H111235   4.239   5.824   0.360
 3743TIP3    H211236   4.297   5.881   0.487
 3744TIP3   OH211237   6.233   3.002   0.486
 3744TIP3    H111238   6.148   3.009   0.442
 3744TIP3    H211239   6.277   3.085   0.466
 3745TIP3   OH211240   4.355   2.301   4.987
 3745TIP3    H111241   4.336   2.251   4.908
 3745TIP3    H211242   4.269   2.325   5.021
 3746TIP3   OH211243   3.978   0.036   0.126
 3746TIP3    H111244   3.903   0.065   0.178
 3746TIP3    H211245   3.952   0.050   0.035
 3747TIP3   OH211246   4.434   0.788   5.018
 3747TIP3    H111247   4.524   0.758   5.027
 3747TIP3    H211248   4.397   0.733   4.949
 3748TIP3   OH211249   0.241   3.499   1.836
 3748TIP3    H111250   0.310   3.503   1.769
 3748TIP3    H211251   0.271   3.558   1.905
 3749TIP3   OH211252   1.739   2.675   4.484
 3749TIP3    H111253   1.776   2.721   4.559
 3749TIP3    H211254   1.649   2.707   4.477
 3750TIP3   OH211255   1.994   5.031   3.804
 3750TIP3    H111256   1.940   4.955   3.827
 3750TIP3    H211257   2.075   5.019   3.853
 3751TIP3   OH211258   0.844   1.490   0.587
 3751TIP3    H111259   0.838   1.403   0.547
 3751TIP3    H211260   0.921   1.530   0.545
 3752TIP3   OH211261   0.417   2.418   4.791
 3752TIP3    H111262   0.428   2.495   4.847
 3752TIP3    H211263   0.337   2.376   4.825
 3753TIP3   OH211264   0.157   3.208   1.933
 3753TIP3    H111265   0.188   3.288   1.976
 3753TIP3    H211266   0.074   3.187   1.977
 3754TIP3   OH211267   3.201   2.737   4.479
 3754TIP3    H111268   3.280   2.689   4.505
 3754TIP3    H211269   3.129   2.690   4.521
 3755TIP3   OH211270   5.402   0.379   4.682
 3755TIP3    H111271   5.483   0.376   4.631
 3755TIP3    H211272   5.382   0.472   4.689
 3756TIP3   OH211273   2.047   0.690   2.305
 3756TIP3    H111274   2.079   0.731   2.385
 3756TIP3    H211275   1.969   0.739   2.282
 3757TIP3   OH211276   5.267   4.211   5.187
 3757TIP3    H111277   5.281   4.154   5.112
 3757TIP3    H211278   5.232   4.292   5.150
 3758TIP3   OH211279   0.061   4.978   2.373
 3758TIP3    H111280   0.125   4.919   2.412
 3758TIP3    H211281   0.108   5.020   2.301
 3759TIP3   OH211282   2.197   5.622   0.399
 3759TIP3    H111283   2.149   5.681   0.341
 3759TIP3    H211284   2.143   5.615   0.477
 3760TIP3   OH211285   5.002   3.761   2.415
 3760TIP3    H111286   5.079   3.753   2.359
 3760TIP3    H211287   4.962   3.844   2.390
 3761TIP3   OH211288   3.572   3.553   5.173
 3761TIP3    H111289   3.651   3.500   5.185
 3761TIP3    H211290   3.563   3.601   5.256
 3762TIP3   OH211291   4.687   0.650   3.637
 3762TIP3    H111292   4.725   0.715   3.579
 3762TIP3    H211293   4.703   0.684   3.725
 3763TIP3   OH211294   2.741   4.597   2.888
 3763TIP3    H111295   2.682   4.672   2.893
 3763TIP3    H211296   2.786   4.597   2.973
 3764TIP3   OH211297   0.354   4.658   4.513
 3764TIP3    H111298   0.413   4.607   4.569
 3764TIP3    H211299   0.349   4.744   4.556
 3765TIP3   OH211300   5.576   0.401   4.436
 3765TIP3    H111301   5.672   0.399   4.433
 3765TIP3    H211302   5.553   0.477   4.382
 3766TIP3   OH211303   5.938   2.412   2.680
 3766TIP3    H111304   5.853   2.372   2.661
 3766TIP3    H211305   5.956   2.389   2.771
 3767TIP3   OH211306   5.001   2.247   0.685
 3767TIP3    H111307   5.046   2.288   0.611
 3767TIP3    H211308   5.048   2.280   0.762
 3768TIP3   OH211309   1.411   0.800   4.101
 3768TIP3    H111310   1.358   0.740   4.049
 3768TIP3    H211311   1.423   0.755   4.185
 3769TIP3   OH211312   6.072   0.194   0.044
 3769TIP3    H111313   6.062   0.145  -0.038
 3769TIP3    H211314   6.006   0.155   0.103
 3770TIP3   OH211315   5.497   5.389   1.130
 3770TIP3    H111316   5.412   5.433   1.129
 3770TIP3    H211317   5.558   5.456   1.163
 3771TIP3   OH211318   1.914   5.871   0.379
 3771TIP3    H111319   1.862   5.791   0.372
 3771TIP3    H211320   1.932   5.896   0.288
 3772TIP3   OH211321   5.434   4.852   0.177
 3772TIP3    H111322   5.360   4.894   0.134
 3772TIP3    H211323   5.509   4.908   0.156
 3773TIP3   OH211324   6.164   4.505   0.022
 3773TIP3    H111325   6.177   4.453  -0.057
 3773TIP3    H211326   6.088   4.465   0.065
 3774TIP3   OH211327   2.729   4.134   4.611
 3774TIP3    H111328   2.717   4.104   4.701
 3774TIP3    H211329   2.641   4.134   4.573
 3775TIP3   OH211330   2.569   2.182   3.682
 3775TIP3    H111331   2.639   2.130   3.722
 3775TIP3    H211332   2.591   2.272   3.704
 3776TIP3   OH211333   0.955   5.133   1.369
 3776TIP3    H111334   0.930   5.222   1.343
 3776TIP3    H211335   1.039   5.144   1.413
 3777TIP3   OH211336   3.365   4.704   3.662
 3777TIP3    H111337   3.327   4.685   3.576
 3777TIP3    H211338   3.295   4.747   3.711
 3778TIP3   OH211339   4.644   3.213   2.778
 3778TIP3    H111340   4.720   3.210   2.719
 3778TIP3    H211341   4.681   3.235   2.863
 3779TIP3   OH211342   2.186   5.518   1.764
 3779TIP3    H111343   2.141   5.434   1.760
 3779TIP3    H211344   2.122   5.578   1.802
 3780TIP3   OH211345   1.236   3.827   0.474
 3780TIP3    H111346   1.325   3.801   0.450
 3780TIP3    H211347   1.227   3.801   0.565
 3781TIP3   OH211348   1.715   1.435   0.388
 3781TIP3    H111349   1.693   1.447   0.295
 3781TIP3    H211350   1.646   1.378   0.421
 3782TIP3   OH211351   6.231   4.822   1.735
 3782TIP3    H111352   6.227   4.749   1.797
 3782TIP3    H211353   6.312   4.868   1.757
 3783TIP3   OH211354   0.323   0.639   1.193
 3783TIP3    H111355   0.295   0.583   1.120
 3783TIP3    H211356   0.366   0.713   1.151
 3784TIP3   OH211357   4.833   5.018   0.186
 3784TIP3    H111358   4.863   5.109   0.187
 3784TIP3    H211359   4.900   4.970   0.234
 3785TIP3   OH211360   1.868   3.354   4.280
 3785TIP3    H111361   1.913   3.344   4.364
 3785TIP3    H211362   1.926   3.410   4.229
 3786TIP3   OH211363   4.099   2.302   4.730
 3786TIP3    H111364   4.087   2.223   4.678
 3786TIP3    H211365   4.193   2.308   4.743
 3787TIP3   OH211366   2.150   3.473   0.608
 3787TIP3    H111367   2.140   3.568   0.605
 3787TIP3    H211368   2.193   3.455   0.691
 3788TIP3   OH211369   3.781   5.154   0.850
 3788TIP3    H111370   3.813   5.068   0.822
 3788TIP3    H211371   3.718   5.179   0.783
 3789TIP3   OH211372   1.126   2.277   4.257
 3789TIP3    H111373   1.182   2.236   4.323
 3789TIP3    H211374   1.071   2.206   4.224
 3790TIP3   OH211375   2.327   2.748   0.262
 3790TIP3    H111376   2.362   2.836   0.252
 3790TIP3    H211377   2.336   2.708   0.175
 3791TIP3   OH211378   2.553   2.339   1.515
 3791TIP3    H111379   2.561   2.403   1.444
 3791TIP3    H211380   2.564   2.254   1.472
 3792TIP3   OH211381   5.391   5.462   4.958
 3792TIP3    H111382   5.426   5.456   4.869
 3792TIP3    H211383   5.465   5.489   5.012
 3793TIP3   OH211384   4.593   5.246   2.588
 3793TIP3    H111385   4.501   5.261   2.569
 3793TIP3    H211386   4.593   5.196   2.670
 3794TIP3   OH211387   1.008   3.699   2.567
 3794TIP3    H111388   0.914   3.681   2.562
 3794TIP3    H211389   1.023   3.771   2.506
 3795TIP3   OH211390   4.343   3.079   0.206
 3795TIP3    H111391   4.368   3.153   0.152
 3795TIP3    H211392   4.292   3.117   0.277
 3796TIP3   OH211393   2.148   3.446   3.037
 3796TIP3    H111394   2.182   3.456   2.948
 3796TIP3    H211395   2.095   3.524   3.052
 3797TIP3   OH211396   2.659   4.777   1.160
 3797TIP3    H111397   2.679   4.868   1.139
 3797TIP3    H211398   2.571   4.779   1.198
 3798TIP3   OH211399   0.609   4.564   0.375
 3798TIP3    H111400   0.524   4.593   0.408
 3798TIP3    H211401   0.666   4.564   0.452
 3799TIP3   OH211402   0.234   2.542   3.489
 3799TIP3    H111403   0.284   2.508   3.563
 3799TIP3    H211404   0.285   2.617   3.459
 3800TIP3   OH211405   4.621   2.743   3.474
 3800TIP3    H111406   4.529   2.721   3.488
 3800TIP3    H211407   4.629   2.833   3.505
 3801TIP3   OH211408   4.261   0.109   3.987
 3801TIP3    H111409   4.336   0.112   4.047
 3801TIP3    H211410   4.281   0.175   3.921
 3802TIP3   OH211411   1.979   5.660   4.470
 3802TIP3    H111412   2.075   5.661   4.469
 3802TIP3    H211413   1.953   5.734   4.416
 3803TIP3   OH211414   1.589   5.418   3.311
 3803TIP3    H111415   1.574   5.484   3.243
 3803TIP3    H211416   1.585   5.466   3.393
 3804TIP3   OH211417   2.391   2.111   3.957
 3804TIP3    H111418   2.446   2.148   3.888
 3804TIP3    H211419   2.390   2.178   4.026
 3805TIP3   OH211420   2.869   1.829   3.591
 3805TIP3    H111421   2.826   1.866   3.669
 3805TIP3    H211422   2.952   1.796   3.623
 3806TIP3   OH211423   3.976   3.317   1.348
 3806TIP3    H111424   4.071   3.330   1.348
 3806TIP3    H211425   3.964   3.230   1.384
 3807TIP3   OH211426   3.091   3.591   3.930
 3807TIP3    H111427   3.022   3.531   3.904
 3807TIP3    H211428   3.061   3.677   3.900
 3808TIP3   OH211429   1.712   3.644   1.891
 3808TIP3    H111430   1.706   3.561   1.938
 3808TIP3    H211431   1.711   3.711   1.959
 3809TIP3   OH211432   1.372   3.110   4.589
 3809TIP3    H111433   1.421   3.193   4.584
 3809TIP3    H211434   1.440   3.043   4.599
 3810TIP3   OH211435   5.717   0.112   5.141
 3810TIP3    H111436   5.674   0.165   5.074
 3810TIP3    H211437   5.679   0.025   5.132
 3811TIP3   OH211438   0.536   2.940   5.202
 3811TIP3    H111439   0.584   2.960   5.122
 3811TIP3    H211440   0.468   3.007   5.207
 3812TIP3   OH211441   2.309   1.279   1.810
 3812TIP3    H111442   2.267   1.204   1.853
 3812TIP3    H211443   2.375   1.239   1.753
 3813TIP3   OH211444   0.582   4.751   4.951
 3813TIP3    H111445   0.607   4.673   4.901
 3813TIP3    H211446   0.516   4.795   4.896
 3814TIP3   OH211447   2.949   2.732   1.455
 3814TIP3    H111448   2.929   2.730   1.548
 3814TIP3    H211449   2.876   2.686   1.413
 3815TIP3   OH211450   0.169   0.740   2.671
 3815TIP3    H111451   0.160   0.825   2.714
 3815TIP3    H211452   0.095   0.736   2.610
 3816TIP3   OH211453   0.321   2.590   2.304
 3816TIP3    H111454   0.237   2.546   2.299
 3816TIP3    H211455   0.341   2.614   2.214
 3817TIP3   OH211456   5.726   5.048   3.267
 3817TIP3    H111457   5.802   4.994   3.246
 3817TIP3    H211458   5.740   5.129   3.218
 3818TIP3   OH211459   4.095   2.477   0.236
 3818TIP3    H111460   4.010   2.521   0.244
 3818TIP3    H211461   4.103   2.458   0.142
 3819TIP3   OH211462   3.283   5.311   3.651
 3819TIP3    H111463   3.218   5.360   3.602
 3819TIP3    H211464   3.312   5.372   3.719
 3820TIP3   OH211465   1.319   3.276   1.497
 3820TIP3    H111466   1.253   3.343   1.478
 3820TIP3    H211467   1.308   3.257   1.590
 3821TIP3   OH211468   4.659   2.711   0.231
 3821TIP3    H111469   4.657   2.616   0.218
 3821TIP3    H211470   4.744   2.728   0.270
 3822TIP3   OH211471   3.638   0.816   4.840
 3822TIP3    H111472   3.688   0.845   4.763
 3822TIP3    H211473   3.587   0.893   4.866
 3823TIP3   OH211474   3.170   4.142   3.068
 3823TIP3    H111475   3.190   4.096   3.150
 3823TIP3    H211476   3.081   4.115   3.046
 3824TIP3   OH211477   5.886   4.015   2.916
 3824TIP3    H111478   5.900   3.923   2.940
 3824TIP3    H211479   5.949   4.064   2.969
 3825TIP3   OH211480   2.854   4.538   2.324
 3825TIP3    H111481   2.823   4.584   2.401
 3825TIP3    H211482   2.786   4.473   2.306
 3826TIP3   OH211483   5.479   4.842   1.331
 3826TIP3    H111484   5.560   4.795   1.310
 3826TIP3    H211485   5.449   4.802   1.413
 3827TIP3   OH211486   4.786   1.979   1.387
 3827TIP3    H111487   4.803   2.057   1.333
 3827TIP3    H211488   4.783   1.907   1.324
 3828TIP3   OH211489   4.854   1.513   0.518
 3828TIP3    H111490   4.773   1.536   0.563
 3828TIP3    H211491   4.924   1.545   0.575
 3829TIP3   OH211492   4.285   0.310   1.859
 3829TIP3    H111493   4.211   0.298   1.919
 3829TIP3    H211494   4.250   0.282   1.774
 3830TIP3   OH211495   1.354   1.354   2.909
 3830TIP3    H111496   1.289   1.297   2.866
 3830TIP3    H211497   1.423   1.294   2.938
 3831TIP3   OH211498   5.167   0.062   5.050
 3831TIP3    H111499   5.117   0.144   5.051
 3831TIP3    H211500   5.235   0.075   5.116
 3832TIP3   OH211501   2.075   2.813   0.084
 3832TIP3    H111502   2.105   2.897   0.047
 3832TIP3    H211503   2.074   2.828   0.178
 3833TIP3   OH211504   2.650   5.739   0.778
 3833TIP3    H111505   2.695   5.696   0.850
 3833TIP3    H211506   2.628   5.669   0.717
 3834TIP3   OH211507   5.984   0.234   3.856
 3834TIP3    H111508   6.069   0.270   3.880
 3834TIP3    H211509   5.922   0.305   3.875
 3835TIP3   OH211510   3.269   2.660   4.139
 3835TIP3    H111511   3.334   2.596   4.170
 3835TIP3    H211512   3.303   2.690   4.055
 3836TIP3   OH211513   0.865   1.527   2.570
 3836TIP3    H111514   0.809   1.591   2.614
 3836TIP3    H211515   0.823   1.443   2.587
 3837TIP3   OH211516   2.791   1.285   3.502
 3837TIP3    H111517   2.808   1.378   3.487
 3837TIP3    H211518   2.824   1.241   3.423
 3838TIP3   OH211519   3.963   1.988   3.322
 3838TIP3    H111520   4.040   2.023   3.278
 3838TIP3    H211521   3.998   1.949   3.403
 3839TIP3   OH211522   2.425   5.009   4.380
 3839TIP3    H111523   2.501   4.955   4.356
 3839TIP3    H211524   2.397   4.975   4.465
 3840TIP3   OH211525   2.677   4.365   4.166
 3840TIP3    H111526   2.768   4.390   4.182
 3840TIP3    H211527   2.643   4.435   4.110
 3841TIP3   OH211528   5.061   4.000   1.013
 3841TIP3    H111529   5.101   4.010   1.100
 3841TIP3    H211530   4.998   3.928   1.024
 3842TIP3   OH211531   5.414   5.142   4.374
 3842TIP3    H111532   5.414   5.082   4.449
 3842TIP3    H211533   5.359   5.099   4.309
 3843TIP3   OH211534   4.461   3.542   1.223
 3843TIP3    H111535   4.382   3.489   1.231
 3843TIP3    H211536   4.511   3.501   1.152
 3844TIP3   OH211537   3.266   1.610   4.334
 3844TIP3    H111538   3.300   1.626   4.246
 3844TIP3    H211539   3.195   1.548   4.322
 3845TIP3   OH211540   0.655   5.294   1.411
 3845TIP3    H111541   0.728   5.263   1.359
 3845TIP3    H211542   0.617   5.214   1.449
 3846TIP3   OH211543   2.237   5.629   2.609
 3846TIP3    H111544   2.232   5.694   2.538
 3846TIP3    H211545   2.330   5.627   2.632
 3847TIP3   OH211546   4.844   0.595   4.107
 3847TIP3    H111547   4.905   0.552   4.047
 3847TIP3    H211548   4.878   0.684   4.116
 3848TIP3   OH211549   0.808   2.097   4.461
 3848TIP3    H111550   0.867   2.142   4.522
 3848TIP3    H211551   0.794   2.011   4.501
 3849TIP3   OH211552   4.654   2.434   0.400
 3849TIP3    H111553   4.693   2.377   0.333
 3849TIP3    H211554   4.569   2.394   0.418
 3850TIP3   OH211555   2.668   0.361   3.186
 3850TIP3    H111556   2.703   0.273   3.195
 3850TIP3    H211557   2.573   0.350   3.194
 3851TIP3   OH211558   1.142   4.685   4.902
 3851TIP3    H111559   1.168   4.776   4.884
 3851TIP3    H211560   1.105   4.688   4.991
 3852TIP3   OH211561   5.782   0.461   0.960
 3852TIP3    H111562   5.853   0.468   1.023
 3852TIP3    H211563   5.719   0.401   1.001
 3853TIP3   OH211564   3.988   4.110   4.833
 3853TIP3    H111565   4.017   4.037   4.778
 3853TIP3    H211566   4.060   4.123   4.895
 3854TIP3   OH211567   0.410   1.772   4.310
 3854TIP3    H111568   0.480   1.707   4.297
 3854TIP3    H211569   0.334   1.734   4.265
 3855TIP3   OH211570   4.714   2.269   0.674
 3855TIP3    H111571   4.721   2.296   0.583
 3855TIP3    H211572   4.796   2.224   0.692
 3856TIP3   OH211573   5.151   4.245   4.925
 3856TIP3    H111574   5.141   4.236   4.830
 3856TIP3    H211575   5.179   4.158   4.955
 3857TIP3   OH211576   3.339   2.421   0.049
 3857TIP3    H111577   3.317   2.374   0.130
 3857TIP3    H211578   3.380   2.355  -0.006
 3858TIP3   OH211579   2.998   5.228   3.090
 3858TIP3    H111580   2.908   5.224   3.056
 3858TIP3    H211581   3.033   5.309   3.053
 3859TIP3   OH211582   5.624   2.257   1.217
 3859TIP3    H111583   5.716   2.257   1.188
 3859TIP3    H211584   5.596   2.348   1.209
 3860TIP3   OH211585   4.459   3.335   1.896
 3860TIP3    H111586   4.374   3.346   1.854
 3860TIP3    H211587   4.505   3.273   1.840
 3861TIP3   OH211588   2.395   2.669   4.766
 3861TIP3    H111589   2.364   2.713   4.686
 3861TIP3    H211590   2.319   2.668   4.824
 3862TIP3   OH211591   5.611   1.985   4.056
 3862TIP3    H111592   5.706   1.982   4.054
 3862TIP3    H211593   5.589   1.975   4.149
 3863TIP3   OH211594   5.598   1.267   2.407
 3863TIP3    H111595   5.519   1.294   2.361
 3863TIP3    H211596   5.652   1.226   2.340
 3864TIP3   OH211597   5.516   4.535   2.346
 3864TIP3    H111598   5.588   4.509   2.404
 3864TIP3    H211599   5.547   4.512   2.258
 3865TIP3   OH211600   1.678   2.745   5.033
 3865TIP3    H111601   1.641   2.657   5.035
 3865TIP3    H211602   1.773   2.732   5.036
 3866TIP3   OH211603   0.119   4.174   0.088
 3866TIP3    H111604   0.128   4.268   0.076
 3866TIP3    H211605   0.182   4.152   0.156
 3867TIP3   OH211606   0.277   5.460   0.252
 3867TIP3    H111607   0.266   5.483   0.160
 3867TIP3    H211608   0.226   5.526   0.300
 3868TIP3   OH211609   2.386   1.572   3.573
 3868TIP3    H111610   2.422   1.652   3.611
 3868TIP3    H211611   2.309   1.601   3.523
 3869TIP3   OH211612   1.860   4.495   0.954
 3869TIP3    H111613   1.941   4.541   0.929
 3869TIP3    H211614   1.871   4.406   0.919
 3870TIP3   OH211615   5.212   4.758   4.123
 3870TIP3    H111616   5.190   4.791   4.210
 3870TIP3    H211617   5.273   4.823   4.088
 3871TIP3   OH211618   1.604   4.904   3.838
 3871TIP3    H111619   1.520   4.860   3.822
 3871TIP3    H211620   1.594   4.943   3.925
 3872TIP3   OH211621   3.459   4.102   5.129
 3872TIP3    H111622   3.523   4.050   5.178
 3872TIP3    H211623   3.383   4.045   5.122
 3873TIP3   OH211624   3.780   3.043   3.720
 3873TIP3    H111625   3.730   3.116   3.684
 3873TIP3    H211626   3.717   2.971   3.725
 3874TIP3   OH211627   0.834   2.758   1.680
 3874TIP3    H111628   0.799   2.682   1.634
 3874TIP3    H211629   0.929   2.752   1.668
 3875TIP3   OH211630   3.428   2.937   1.210
 3875TIP3    H111631   3.350   2.991   1.200
 3875TIP3    H211632   3.405   2.854   1.169
 3876TIP3   OH211633   4.604   5.427   0.214
 3876TIP3    H111634   4.648   5.490   0.158
 3876TIP3    H211635   4.538   5.477   0.261
 3877TIP3   OH211636   2.611   1.429   1.261
 3877TIP3    H111637   2.579   1.339   1.253
 3877TIP3    H211638   2.651   1.448   1.176
 3878TIP3   OH211639   5.269   3.664   3.270
 3878TIP3    H111640   5.272   3.593   3.334
 3878TIP3    H211641   5.257   3.620   3.186
 3879TIP3   OH211642   6.304   1.855   1.353
 3879TIP3    H111643   6.302   1.902   1.269
 3879TIP3    H211644   6.395   1.825   1.362
 3880TIP3   OH211645   2.898   1.103   3.290
 3880TIP3    H111646   2.968   1.116   3.226
 3880TIP3    H211647   2.845   1.033   3.252
 3881TIP3   OH211648   5.004   3.868   3.619
 3881TIP3    H111649   5.083   3.819   3.595
 3881TIP3    H211650   5.031   3.960   3.617
 3882TIP3   OH211651   5.275   0.906   4.509
 3882TIP3    H111652   5.323   0.910   4.426
 3882TIP3    H211653   5.339   0.931   4.575
 3883TIP3   OH211654   1.088   5.436   4.841
 3883TIP3    H111655   1.000   5.398   4.840
 3883TIP3    H211656   1.111   5.448   4.749
 3884TIP3   OH211657   1.086   2.905   3.522
 3884TIP3    H111658   1.098   2.914   3.427
 3884TIP3    H211659   1.173   2.883   3.555
 3885TIP3   OH211660   2.822   2.942   4.125
 3885TIP3    H111661   2.915   2.925   4.110
 3885TIP3    H211662   2.777   2.881   4.066
 3886TIP3   OH211663   2.292   3.786   0.318
 3886TIP3    H111664   2.266   3.738   0.240
 3886TIP3    H211665   2.344   3.724   0.369
 3887TIP3   OH211666   4.107   2.321   1.468
 3887TIP3    H111667   4.091   2.409   1.434
 3887TIP3    H211668   4.098   2.330   1.563
 3888TIP3   OH211669   3.265   3.833   1.627
 3888TIP3    H111670   3.315   3.913   1.645
 3888TIP3    H211671   3.260   3.830   1.531
 3889TIP3   OH211672   2.089   5.812   1.441
 3889TIP3    H111673   2.168   5.769   1.474
 3889TIP3    H211674   2.059   5.866   1.514
 3890TIP3   OH211675   0.609   0.970   3.709
 3890TIP3    H111676   0.623   0.917   3.787
 3890TIP3    H211677   0.696   0.985   3.674
 3891TIP3   OH211678   6.274   5.279   0.226
 3891TIP3    H111679   6.336   5.246   0.291
 3891TIP3    H211680   6.327   5.296   0.148
 3892TIP3   OH211681   1.502   1.187   4.468
 3892TIP3    H111682   1.543   1.119   4.522
 3892TIP3    H211683   1.463   1.140   4.395
 3893TIP3   OH211684   4.970   1.377  -0.030
 3893TIP3    H111685   4.945   1.286  -0.042
 3893TIP3    H211686   4.897   1.416   0.018
 3894TIP3   OH211687   5.653   2.697   0.723
 3894TIP3    H111688   5.700   2.615   0.708
 3894TIP3    H211689   5.707   2.764   0.680
 3895TIP3   OH211690   3.538   5.821   0.455
 3895TIP3    H111691   3.588   5.770   0.392
 3895TIP3    H211692   3.491   5.756   0.507
 3896TIP3   OH211693   3.030   5.175   4.678
 3896TIP3    H111694   3.030   5.093   4.727
 3896TIP3    H211695   3.100   5.227   4.718
 3897TIP3   OH211696   5.285   5.035   0.849
 3897TIP3    H111697   5.275   5.040   0.944
 3897TIP3    H211698   5.243   4.951   0.826
 3898TIP3   OH211699   0.757   1.606   1.966
 3898TIP3    H111700   0.687   1.653   2.013
 3898TIP3    H211701   0.736   1.514   1.978
 3899TIP3   OH211702   0.326   2.055   2.653
 3899TIP3    H111703   0.392   2.015   2.710
 3899TIP3    H211704   0.254   1.992   2.650
 3900TIP3   OH211705   6.272   2.271   1.135
 3900TIP3    H111706   6.302   2.187   1.169
 3900TIP3    H211707   6.224   2.310   1.208
 3901TIP3   OH211708   1.601   2.091   1.226
 3901TIP3    H111709   1.577   2.145   1.302
 3901TIP3    H211710   1.528   2.031   1.216
 3902TIP3   OH211711   4.400   2.526   1.058
 3902TIP3    H111712   4.307   2.534   1.078
 3902TIP3    H211713   4.404   2.529   0.963
 3903TIP3   OH211714   0.752   5.192   2.022
 3903TIP3    H111715   0.786   5.173   2.109
 3903TIP3    H211716   0.690   5.263   2.037
 3904TIP3   OH211717   0.774   0.273   1.808
 3904TIP3    H111718   0.825   0.324   1.871
 3904TIP3    H211719   0.779   0.323   1.726
 3905TIP3   OH211720   3.096   5.484   2.997
 3905TIP3    H111721   3.043   5.564   2.992
 3905TIP3    H211722   3.162   5.495   2.928
 3906TIP3   OH211723   5.508   4.261   0.543
 3906TIP3    H111724   5.509   4.166   0.538
 3906TIP3    H211725   5.431   4.281   0.598
 3907TIP3   OH211726   0.013   2.350   3.529
 3907TIP3    H111727   0.091   2.406   3.526
 3907TIP3    H211728   0.033   2.279   3.467
 3908TIP3   OH211729   0.558   5.779   4.310
 3908TIP3    H111730   0.585   5.735   4.229
 3908TIP3    H211731   0.571   5.872   4.293
 3909TIP3   OH211732   1.645   2.239   4.889
 3909TIP3    H111733   1.611   2.194   4.811
 3909TIP3    H211734   1.648   2.171   4.956
 3910TIP3   OH211735   3.405   1.575   3.365
 3910TIP3    H111736   3.408   1.491   3.411
 3910TIP3    H211737   3.492   1.582   3.325
 3911TIP3   OH211738   1.837   4.102   3.597
 3911TIP3    H111739   1.886   4.048   3.535
 3911TIP3    H211740   1.787   4.039   3.649
 3912TIP3   OH211741   1.323   1.157   2.725
 3912TIP3    H111742   1.264   1.224   2.690
 3912TIP3    H211743   1.280   1.074   2.705
 3913TIP3   OH211744   0.539   5.646   4.913
 3913TIP3    H111745   0.558   5.588   4.839
 3913TIP3    H211746   0.538   5.587   4.989
 3914TIP3   OH211747   2.001   1.861   4.490
 3914TIP3    H111748   1.996   1.775   4.532
 3914TIP3    H211749   2.020   1.921   4.562
 3915TIP3   OH211750   5.764   5.067   2.895
 3915TIP3    H111751   5.812   5.115   2.962
 3915TIP3    H211752   5.823   5.062   2.821
 3916TIP3   OH211753   2.010   5.806   3.987
 3916TIP3    H111754   2.030   5.799   3.894
 3916TIP3    H211755   2.075   5.867   4.022
 3917TIP3   OH211756   1.978   0.504   1.523
 3917TIP3    H111757   1.924   0.519   1.601
 3917TIP3    H211758   1.914   0.486   1.453
 3918TIP3   OH211759   0.609   0.145   2.180
 3918TIP3    H111760   0.560   0.154   2.098
 3918TIP3    H211761   0.696   0.115   2.152
 3919TIP3   OH211762   6.271   0.008   4.091
 3919TIP3    H111763   6.177   0.023   4.090
 3919TIP3    H211764   6.298   0.030   4.181
 3920TIP3   OH211765   2.231   5.443   2.154
 3920TIP3    H111766   2.311   5.425   2.202
 3920TIP3    H211767   2.243   5.400   2.069
 3921TIP3   OH211768   0.383   2.845   3.109
 3921TIP3    H111769   0.432   2.888   3.039
 3921TIP3    H211770   0.361   2.916   3.170
 3922TIP3   OH211771   1.093   0.733   0.105
 3922TIP3    H111772   1.134   0.729   0.191
 3922TIP3    H211773   1.122   0.653   0.061
 3923TIP3   OH211774   1.609   2.340   2.617
 3923TIP3    H111775   1.620   2.416   2.559
 3923TIP3    H211776   1.565   2.376   2.694
 3924TIP3   OH211777   3.457   3.352   3.167
 3924TIP3    H111778   3.460   3.385   3.077
 3924TIP3    H211779   3.540   3.305   3.178
 3925TIP3   OH211780   4.955   3.868   3.066
 3925TIP3    H111781   5.030   3.821   3.029
 3925TIP3    H211782   4.882   3.808   3.055
 3926TIP3   OH211783   6.256   1.612   0.069
 3926TIP3    H111784   6.279   1.522   0.043
 3926TIP3    H211785   6.262   1.611   0.164
 3927TIP3   OH211786   2.074   0.338   3.263
 3927TIP3    H111787   2.071   0.385   3.346
 3927TIP3    H211788   2.015   0.387   3.206
 3928TIP3   OH211789   2.836   0.780   4.171
 3928TIP3    H111790   2.897   0.754   4.240
 3928TIP3    H211791   2.876   0.749   4.090
 3929TIP3   OH211792   5.224   1.255   1.617
 3929TIP3    H111793   5.162   1.262   1.545
 3929TIP3    H211794   5.242   1.346   1.642
 3930TIP3   OH211795   2.555   2.403   2.275
 3930TIP3    H111796   2.572   2.309   2.272
 3930TIP3    H211797   2.643   2.442   2.278
 3931TIP3   OH211798   0.110   4.263   3.990
 3931TIP3    H111799   0.144   4.341   3.946
 3931TIP3    H211800   0.149   4.190   3.942
 3932TIP3   OH211801   5.912   0.951   2.737
 3932TIP3    H111802   5.999   0.911   2.731
 3932TIP3    H211803   5.855   0.892   2.689
 3933TIP3   OH211804   6.112   5.540   1.289
 3933TIP3    H111805   6.177   5.593   1.334
 3933TIP3    H211806   6.052   5.511   1.358
 3934TIP3   OH211807   0.391   3.584   2.565
 3934TIP3    H111808   0.347   3.522   2.508
 3934TIP3    H211809   0.367   3.670   2.531
 3935TIP3   OH211810   3.740   5.618   4.887
 3935TIP3    H111811   3.677   5.623   4.958
 3935TIP3    H211812   3.702   5.555   4.825
 3936TIP3   OH211813   1.326   2.339   3.165
 3936TIP3    H111814   1.294   2.305   3.249
 3936TIP3    H211815   1.257   2.317   3.102
 3937TIP3   OH211816   3.276   0.241   3.117
 3937TIP3    H111817   3.278   0.146   3.109
 3937TIP3    H211818   3.278   0.258   3.211
 3938TIP3   OH211819   5.111   3.561   0.256
 3938TIP3    H111820   5.136   3.632   0.316
 3938TIP3    H211821   5.020   3.582   0.232
 3939TIP3   OH211822   5.099   0.438   2.628
 3939TIP3    H111823   5.191   0.465   2.621
 3939TIP3    H211824   5.050   0.513   2.594
 3940TIP3   OH211825   5.529   5.893   1.417
 3940TIP3    H111826   5.578   5.827   1.368
 3940TIP3    H211827   5.547   5.873   1.509
 3941TIP3   OH211828   1.690   0.612   3.452
 3941TIP3    H111829   1.605   0.642   3.419
 3941TIP3    H211830   1.752   0.679   3.422
 3942TIP3   OH211831   5.637   5.216   5.153
 3942TIP3    H111832   5.672   5.190   5.068
 3942TIP3    H211833   5.714   5.239   5.205
 3943TIP3   OH211834   5.891   3.596   3.155
 3943TIP3    H111835   5.816   3.556   3.199
 3943TIP3    H211836   5.858   3.618   3.068
 3944TIP3   OH211837   2.381   2.480   1.326
 3944TIP3    H111838   2.428   2.514   1.250
 3944TIP3    H211839   2.303   2.536   1.333
 3945TIP3   OH211840   5.237   1.880   2.052
 3945TIP3    H111841   5.162   1.882   2.111
 3945TIP3    H211842   5.217   1.946   1.986
 3946TIP3   OH211843   1.697   4.151   2.745
 3946TIP3    H111844   1.664   4.161   2.656
 3946TIP3    H211845   1.790   4.133   2.735
 3947TIP3   OH211846   2.049   2.918   4.618
 3947TIP3    H111847   2.136   2.881   4.601
 3947TIP3    H211848   2.066   2.993   4.675
 3948TIP3   OH211849   2.851   3.291   1.861
 3948TIP3    H111850   2.923   3.269   1.920
 3948TIP3    H211851   2.790   3.341   1.915
 3949TIP3   OH211852   0.597   4.015   2.633
 3949TIP3    H111853   0.650   3.975   2.565
 3949TIP3    H211854   0.508   3.985   2.615
 3950TIP3   OH211855   2.006   1.598   0.589
 3950TIP3    H111856   1.921   1.631   0.618
 3950TIP3    H211857   2.053   1.676   0.560
 3951TIP3   OH211858   3.862   4.036   0.518
 3951TIP3    H111859   3.785   4.093   0.511
 3951TIP3    H211860   3.870   3.997   0.430
 3952TIP3   OH211861   5.080   3.079   0.106
 3952TIP3    H111862   5.020   3.080   0.180
 3952TIP3    H211863   5.150   3.139   0.130
 3953TIP3   OH211864   3.693   4.285   4.610
 3953TIP3    H111865   3.613   4.332   4.636
 3953TIP3    H211866   3.692   4.205   4.663
 3954TIP3   OH211867   6.268   4.887   0.934
 3954TIP3    H111868   6.221   4.866   1.015
 3954TIP3    H211869   6.205   4.868   0.865
 3955TIP3   OH211870   5.942   0.489   5.031
 3955TIP3    H111871   5.973   0.529   4.950
 3955TIP3    H211872   5.848   0.508   5.033
 3956TIP3   OH211873   4.479   3.873   4.965
 3956TIP3    H111874   4.438   3.895   4.881
 3956TIP3    H211875   4.490   3.778   4.963
 3957TIP3   OH211876   0.507   2.201   0.729
 3957TIP3    H111877   0.499   2.211   0.823
 3957TIP3    H211878   0.437   2.140   0.705
 3958TIP3   OH211879   4.831   4.852   4.918
 3958TIP3    H111880   4.926   4.841   4.906
 3958TIP3    H211881   4.796   4.858   4.829
 3959TIP3   OH211882   1.260   4.674   1.583
 3959TIP3    H111883   1.229   4.753   1.539
 3959TIP3    H211884   1.304   4.624   1.515
 3960TIP3   OH211885   1.362   3.464   0.253
 3960TIP3    H111886   1.439   3.414   0.280
 3960TIP3    H211887   1.315   3.481   0.335
 3961TIP3   OH211888   0.341   5.099   0.740
 3961TIP3    H111889   0.250   5.090   0.771
 3961TIP3    H211890   0.346   5.189   0.708
 3962TIP3   OH211891   3.133   5.483   3.271
 3962TIP3    H111892   3.110   5.485   3.178
 3962TIP3    H211893   3.228   5.492   3.272
 3963TIP3   OH211894   0.928   2.440   4.396
 3963TIP3    H111895   1.002   2.392   4.359
 3963TIP3    H211896   0.964   2.527   4.417
 3964TIP3   OH211897   1.097   4.293   4.511
 3964TIP3    H111898   1.044   4.273   4.587
 3964TIP3    H211899   1.134   4.380   4.529
 3965TIP3   OH211900   0.571   1.000   0.299
 3965TIP3    H111901   0.517   0.963   0.369
 3965TIP3    H211902   0.588   1.090   0.326
 3966TIP3   OH211903   1.323   3.149   4.911
 3966TIP3    H111904   1.313   3.102   4.828
 3966TIP3    H211905   1.343   3.080   4.975
 3967TIP3   OH211906   1.172   0.867   2.872
 3967TIP3    H111907   1.178   0.928   2.945
 3967TIP3    H211908   1.102   0.806   2.897
 3968TIP3   OH211909   1.744   4.814   3.601
 3968TIP3    H111910   1.694   4.737   3.629
 3968TIP3    H211911   1.732   4.877   3.672
 3969TIP3   OH211912   4.161   3.594   2.939
 3969TIP3    H111913   4.110   3.655   2.992
 3969TIP3    H211914   4.149   3.509   2.981
 3970TIP3   OH211915   3.178   5.438   4.719
 3970TIP3    H111916   3.211   5.441   4.630
 3970TIP3    H211917   3.099   5.492   4.718
 3971TIP3   OH211918   0.736   0.917   4.477
 3971TIP3    H111919   0.756   0.924   4.570
 3971TIP3    H211920   0.740   1.007   4.444
 3972TIP3   OH211921   5.721   4.259   4.071
 3972TIP3    H111922   5.666   4.204   4.127
 3972TIP3    H211923   5.660   4.301   4.010
 3973TIP3   OH211924   0.779   0.437   3.618
 3973TIP3    H111925   0.709   0.382   3.654
 3973TIP3    H211926   0.834   0.457   3.693
 3974TIP3   OH211927   4.871   4.303   4.790
 3974TIP3    H111928   4.908   4.383   4.829
 3974TIP3    H211929   4.792   4.332   4.746
 3975TIP3   OH211930   1.921   1.994   3.802
 3975TIP3    H111931   1.898   2.085   3.781
 3975TIP3    H211932   2.009   1.999   3.838
 3976TIP3   OH211933   5.431   0.735   2.790
 3976TIP3    H111934   5.476   0.693   2.863
 3976TIP3    H211935   5.479   0.706   2.712
 3977TIP3   OH211936   5.457   4.244   2.318
 3977TIP3    H111937   5.481   4.276   2.231
 3977TIP3    H211938   5.538   4.207   2.353
 3978TIP3   OH211939   1.932   4.943   4.595
 3978TIP3    H111940   1.947   4.853   4.565
 3978TIP3    H211941   2.016   4.971   4.631
 3979TIP3   OH211942   2.460   1.259   3.094
 3979TIP3    H111943   2.390   1.287   3.035
 3979TIP3    H211944   2.520   1.333   3.099
 3980TIP3   OH211945   1.723   4.442   2.118
 3980TIP3    H111946   1.708   4.524   2.070
 3980TIP3    H211947   1.664   4.447   2.193
 3981TIP3   OH211948   4.375   0.458   0.333
 3981TIP3    H111949   4.397   0.397   0.404
 3981TIP3    H211950   4.439   0.439   0.264
 3982TIP3   OH211951   6.091   4.450   4.674
 3982TIP3    H111952   6.153   4.379   4.688
 3982TIP3    H211953   6.019   4.431   4.733
 3983TIP3   OH211954   1.024   2.709   4.390
 3983TIP3    H111955   1.102   2.713   4.335
 3983TIP3    H211956   1.022   2.793   4.435
 3984TIP3   OH211957   4.972   2.552   0.985
 3984TIP3    H111958   4.946   2.462   0.966
 3984TIP3    H211959   4.901   2.605   0.949
 3985TIP3   OH211960   1.242   0.429   4.488
 3985TIP3    H111961   1.255   0.334   4.480
 3985TIP3    H211962   1.148   0.439   4.501
 3986TIP3   OH211963   6.184   3.523   2.386
 3986TIP3    H111964   6.101   3.564   2.410
 3986TIP3    H211965   6.160   3.455   2.323
 3987TIP3   OH211966   5.069   4.963   1.435
 3987TIP3    H111967   5.064   4.986   1.528
 3987TIP3    H211968   4.986   4.917   1.418
 3988TIP3   OH211969   3.966   1.594   2.593
 3988TIP3    H111970   3.872   1.607   2.580
 3988TIP3    H211971   4.002   1.592   2.504
 3989TIP3   OH211972   5.991   3.367   5.036
 3989TIP3    H111973   6.049   3.355   5.111
 3989TIP3    H211974   5.983   3.462   5.027
 3990TIP3   OH211975   3.232   2.080   3.368
 3990TIP3    H111976   3.167   2.142   3.332
 3990TIP3    H211977   3.205   1.995   3.333
 3991TIP3   OH211978   3.859   4.817   1.697
 3991TIP3    H111979   3.842   4.911   1.702
 3991TIP3    H211980   3.950   4.809   1.728
 3992TIP3   OH211981   0.404   0.477   3.993
 3992TIP3    H111982   0.336   0.538   4.021
 3992TIP3    H211983   0.360   0.392   3.988
 3993TIP3   OH211984   6.133   1.908   2.769
 3993TIP3    H111985   6.185   1.855   2.829
 3993TIP3    H211986   6.085   1.845   2.716
 3994TIP3   OH211987   5.590   3.019   0.725
 3994TIP3    H111988   5.583   2.991   0.634
 3994TIP3    H211989   5.628   3.107   0.720
 3995TIP3   OH211990   4.873   2.734   3.771
 3995TIP3    H111991   4.902   2.821   3.744
 3995TIP3    H211992   4.864   2.685   3.690
 3996TIP3   OH211993   6.177   0.157   0.993
 3996TIP3    H111994   6.259   0.109   1.002
 3996TIP3    H211995   6.202   0.249   1.000
 3997TIP3   OH211996   2.554   3.146   0.274
 3997TIP3    H111997   2.492   3.092   0.323
 3997TIP3    H211998   2.549   3.114   0.184
 3998TIP3   OH211999   1.104   3.182   3.723
 3998TIP3    H112000   1.044   3.171   3.796
 3998TIP3    H212001   1.078   3.265   3.683
 3999TIP3   OH212002   3.036   0.702   2.203
 3999TIP3    H112003   2.972   0.717   2.274
 3999TIP3    H212004   3.072   0.789   2.185
 4000TIP3   OH212005   4.760   5.060   2.944
 4000TIP3    H112006   4.820   5.013   2.887
 4000TIP3    H212007   4.756   5.007   3.024
 4001TIP3   OH212008   1.604   5.275   0.563
 4001TIP3    H112009   1.511   5.271   0.585
 4001TIP3    H212010   1.648   5.291   0.646
 4002TIP3   OH212011   4.801   2.289   4.141
 4002TIP3    H112012   4.895   2.305   4.131
 4002TIP3    H212013   4.785   2.209   4.091
 4003TIP3   OH212014   2.348   0.683   4.894
 4003TIP3    H112015   2.337   0.611   4.957
 4003TIP3    H212016   2.264   0.688   4.848
 4004TIP3   OH212017   6.173   1.638   3.909
 4004TIP3    H112018   6.261   1.604   3.925
 4004TIP3    H212019   6.186   1.728   3.879
 4005TIP3   OH212020   4.389   1.223   2.282
 4005TIP3    H112021   4.474   1.191   2.250
 4005TIP3    H212022   4.410   1.306   2.325
 4006TIP3   OH212023   4.665   5.826   2.164
 4006TIP3    H112024   4.601   5.851   2.096
 4006TIP3    H212025   4.616   5.832   2.246
 4007TIP3   OH212026   0.113   3.577   2.709
 4007TIP3    H112027   0.146   3.488   2.692
 4007TIP3    H212028   0.137   3.626   2.631
 4008TIP3   OH212029   1.663   4.025   0.884
 4008TIP3    H112030   1.604   4.095   0.912
 4008TIP3    H212031   1.655   3.958   0.952
 4009TIP3   OH212032   4.171   3.302   5.024
 4009TIP3    H112033   4.257   3.261   5.019
 4009TIP3    H212034   4.189   3.396   5.024
 4010TIP3   OH212035   1.816   5.928   5.023
 4010TIP3    H112036   1.739   5.932   5.080
 4010TIP3    H212037   1.884   5.888   5.078
 4011TIP3   OH212038   4.311   5.755   2.666
 4011TIP3    H112039   4.372   5.687   2.639
 4011TIP3    H212040   4.274   5.789   2.584
 4012TIP3   OH212041   4.224   1.406   3.358
 4012TIP3    H112042   4.147   1.365   3.321
 4012TIP3    H212043   4.190   1.467   3.424
 4013TIP3   OH212044   0.735   2.178   3.649
 4013TIP3    H112045   0.687   2.245   3.599
 4013TIP3    H212046   0.667   2.120   3.683
 4014TIP3   OH212047   5.148   1.396   3.020
 4014TIP3    H112048   5.200   1.391   2.940
 4014TIP3    H212049   5.071   1.449   2.996
 4015TIP3   OH212050   3.166   5.682   2.312
 4015TIP3    H112051   3.243   5.628   2.293
 4015TIP3    H212052   3.202   5.766   2.338
 4016TIP3   OH212053   0.110   1.472   1.865
 4016TIP3    H112054   0.175   1.467   1.795
 4016TIP3    H212055   0.053   1.545   1.841
 4017TIP3   OH212056   2.215   3.146   4.366
 4017TIP3    H112057   2.244   3.058   4.340
 4017TIP3    H212058   2.216   3.196   4.285
 4018TIP3   OH212059   5.753   3.267   0.782
 4018TIP3    H112060   5.733   3.336   0.845
 4018TIP3    H212061   5.784   3.314   0.704
 4019TIP3   OH212062   5.096   3.493   2.499
 4019TIP3    H112063   5.048   3.570   2.468
 4019TIP3    H212064   5.166   3.528   2.554
 4020TIP3   OH212065   5.620   3.986   3.030
 4020TIP3    H112066   5.703   4.033   3.036
 4020TIP3    H212067   5.632   3.926   2.956
 4021TIP3   OH212068   3.881   2.324   0.501
 4021TIP3    H112069   3.927   2.341   0.583
 4021TIP3    H212070   3.864   2.411   0.464
 4022TIP3   OH212071   0.258   3.063   2.766
 4022TIP3    H112072   0.330   3.102   2.815
 4022TIP3    H212073   0.201   3.025   2.833
 4023TIP3   OH212074   4.779   1.204   2.903
 4023TIP3    H112075   4.807   1.114   2.883
 4023TIP3    H212076   4.690   1.194   2.937
 4024TIP3   OH212077   6.224   0.619   4.123
 4024TIP3    H112078   6.214   0.541   4.176
 4024TIP3    H212079   6.234   0.690   4.186
 4025TIP3   OH212080   6.053  -0.022   1.921
 4025TIP3    H112081   6.038  -0.116   1.915
 4025TIP3    H212082   5.977   0.011   1.970
 4026TIP3   OH212083   5.313   5.853   1.216
 4026TIP3    H112084   5.355   5.866   1.301
 4026TIP3    H212085   5.368   5.903   1.155
 4027TIP3   OH212086   2.324   2.258   0.260
 4027TIP3    H112087   2.237   2.299   0.268
 4027TIP3    H212088   2.384   2.332   0.251
 4028TIP3   OH212089   0.398   2.747   3.388
 4028TIP3    H112090   0.382   2.826   3.337
 4028TIP3    H212091   0.493   2.744   3.400
 4029TIP3   OH212092   5.798   3.860   0.585
 4029TIP3    H112093   5.868   3.901   0.636
 4029TIP3    H212094   5.761   3.794   0.643
 4030TIP3   OH212095   1.465   4.523   0.985
 4030TIP3    H112096   1.466   4.431   1.012
 4030TIP3    H212097   1.372   4.548   0.991
 4031TIP3   OH212098   2.018   1.356   1.793
 4031TIP3    H112099   2.001   1.263   1.808
 4031TIP3    H212100   2.064   1.385   1.871
 4032TIP3   OH212101   2.438   5.864   2.549
 4032TIP3    H112102   2.379   5.899   2.616
 4032TIP3    H212103   2.382   5.847   2.473
 4033TIP3   OH212104   2.761   0.786   0.886
 4033TIP3    H112105   2.687   0.808   0.944
 4033TIP3    H212106   2.722   0.729   0.820
 4034TIP3   OH212107   5.185   0.224   4.636
 4034TIP3    H112108   5.261   0.272   4.671
 4034TIP3    H212109   5.159   0.274   4.559
 4035TIP3   OH212110   2.670   0.504   1.447
 4035TIP3    H112111   2.725   0.432   1.415
 4035TIP3    H212112   2.588   0.462   1.470
 4036TIP3   OH212113   5.133   5.906   4.326
 4036TIP3    H112114   5.044   5.882   4.353
 4036TIP3    H212115   5.190   5.848   4.376
 4037TIP3   OH212116   4.673   4.775   2.736
 4037TIP3    H112117   4.762   4.746   2.757
 4037TIP3    H212118   4.686   4.852   2.680
 4038TIP3   OH212119   2.334   4.452   5.077
 4038TIP3    H112120   2.358   4.361   5.093
 4038TIP3    H212121   2.289   4.450   4.992
 4039TIP3   OH212122   2.322   3.995   4.877
 4039TIP3    H112123   2.275   4.067   4.920
 4039TIP3    H212124   2.414   4.016   4.888
 4040TIP3   OH212125   1.815   1.856   2.505
 4040TIP3    H112126   1.722   1.840   2.520
 4040TIP3    H212127   1.854   1.769   2.497
 4041TIP3   OH212128   2.732   4.849   2.637
 4041TIP3    H112129   2.660   4.852   2.699
 4041TIP3    H212130   2.745   4.755   2.621
 4042TIP3   OH212131   2.446   1.165   2.399
 4042TIP3    H112132   2.371   1.160   2.458
 4042TIP3    H212133   2.408   1.189   2.315
 4043TIP3   OH212134   0.262   4.436   3.856
 4043TIP3    H112135   0.206   4.512   3.876
 4043TIP3    H212136   0.223   4.399   3.776
 4044TIP3   OH212137   4.740   2.829   2.552
 4044TIP3    H112138   4.816   2.772   2.567
 4044TIP3    H212139   4.756   2.905   2.607
 4045TIP3   OH212140   4.611   3.527   1.597
 4045TIP3    H112141   4.584   3.606   1.548
 4045TIP3    H212142   4.531   3.476   1.605
 4046TIP3   OH212143   1.803   0.374   3.746
 4046TIP3    H112144   1.884   0.425   3.753
 4046TIP3    H212145   1.741   0.420   3.802
 4047TIP3   OH212146   2.497   5.391   4.087
 4047TIP3    H112147   2.580   5.438   4.093
 4047TIP3    H212148   2.496   5.334   4.164
 4048TIP3   OH212149   2.345   1.318   3.714
 4048TIP3    H112150   2.346   1.411   3.689
 4048TIP3    H212151   2.370   1.272   3.634
 4049TIP3   OH212152   0.687   2.297   4.357
 4049TIP3    H112153   0.716   2.220   4.406
 4049TIP3    H212154   0.766   2.349   4.345
 4050TIP3   OH212155   3.513   0.922   4.472
 4050TIP3    H112156   3.489   0.832   4.447
 4050TIP3    H212157   3.606   0.917   4.494
 4051TIP3   OH212158   5.199   4.489   5.041
 4051TIP3    H112159   5.229   4.555   4.979
 4051TIP3    H212160   5.188   4.410   4.989
 4052TIP3   OH212161   5.971   1.635   1.438
 4052TIP3    H112162   5.978   1.560   1.380
 4052TIP3    H212163   5.895   1.684   1.405
 4053TIP3   OH212164   2.423   5.704   2.854
 4053TIP3    H112165   2.446   5.632   2.796
 4053TIP3    H212166   2.491   5.770   2.839
 4054TIP3   OH212167   1.372   5.145   3.879
 4054TIP3    H112168   1.372   5.239   3.891
 4054TIP3    H212169   1.430   5.111   3.947
 4055TIP3   OH212170   5.280   1.507   1.312
 4055TIP3    H112171   5.195   1.536   1.346
 4055TIP3    H212172   5.343   1.539   1.377
 4056TIP3   OH212173   2.243   1.438   5.024
 4056TIP3    H112174   2.284   1.353   5.008
 4056TIP3    H212175   2.225   1.473   4.937
 4057TIP3   OH212176   5.417   2.712   4.325
 4057TIP3    H112177   5.459   2.778   4.380
 4057TIP3    H212178   5.325   2.736   4.324
 4058TIP3   OH212179   3.980   2.658   0.877
 4058TIP3    H112180   4.033   2.738   0.886
 4058TIP3    H212181   3.899   2.688   0.836
 4059TIP3   OH212182   0.991   2.559   3.795
 4059TIP3    H112183   1.081   2.528   3.790
 4059TIP3    H212184   0.999   2.654   3.802
 4060TIP3   OH212185   2.113   4.052   2.869
 4060TIP3    H112186   2.186   4.099   2.909
 4060TIP3    H212187   2.059   4.026   2.943
 4061TIP3   OH212188   0.311   3.858   3.183
 4061TIP3    H112189   0.261   3.778   3.201
 4061TIP3    H212190   0.396   3.827   3.153
 4062TIP3   OH212191   1.843   5.403   4.496
 4062TIP3    H112192   1.889   5.486   4.505
 4062TIP3    H212193   1.761   5.426   4.453
 4063TIP3   OH212194   3.928   3.077   2.594
 4063TIP3    H112195   4.022   3.090   2.604
 4063TIP3    H212196   3.919   2.994   2.548
 4064TIP3   OH212197   5.679   5.104   4.469
 4064TIP3    H112198   5.724   5.153   4.538
 4064TIP3    H212199   5.588   5.132   4.475
 4065TIP3   OH212200   1.757   5.532   5.077
 4065TIP3    H112201   1.727   5.441   5.074
 4065TIP3    H212202   1.797   5.540   5.164
 4066TIP3   OH212203   1.267   2.661   4.761
 4066TIP3    H112204   1.184   2.701   4.787
 4066TIP3    H212205   1.295   2.612   4.838
 4067TIP3   OH212206   2.611   4.987   4.730
 4067TIP3    H112207   2.603   4.892   4.718
 4067TIP3    H212208   2.664   4.996   4.809
 4068TIP3   OH212209   0.511   2.461   1.779
 4068TIP3    H112210   0.473   2.496   1.859
 4068TIP3    H212211   0.490   2.368   1.781
 4069TIP3   OH212212   3.824   4.390   2.323
 4069TIP3    H112213   3.778   4.319   2.367
 4069TIP3    H212214   3.914   4.359   2.312
 4070TIP3   OH212215   1.939   2.817   2.868
 4070TIP3    H112216   1.849   2.789   2.852
 4070TIP3    H212217   1.972   2.756   2.934
 4071TIP3   OH212218   3.864   3.344   4.270
 4071TIP3    H112219   3.778   3.308   4.293
 4071TIP3    H212220   3.906   3.360   4.354
 4072TIP3   OH212221   5.685   4.440   4.362
 4072TIP3    H112222   5.678   4.361   4.308
 4072TIP3    H212223   5.734   4.502   4.307
 4073TIP3   OH212224   4.813   4.133   2.925
 4073TIP3    H112225   4.803   4.138   3.021
 4073TIP3    H212226   4.877   4.063   2.911
 4074TIP3   OH212227   5.582   0.570   2.972
 4074TIP3    H112228   5.646   0.577   3.042
 4074TIP3    H212229   5.545   0.482   2.982
 4075TIP3   OH212230   4.206   3.951   0.084
 4075TIP3    H112231   4.135   3.888   0.075
 4075TIP3    H212232   4.241   3.961  -0.005
 4076TIP3   OH212233   0.126   4.834   0.380
 4076TIP3    H112234   0.081   4.763   0.335
 4076TIP3    H212235   0.064   4.863   0.446
 4077TIP3   OH212236   3.165   4.762   1.374
 4077TIP3    H112237   3.191   4.839   1.322
 4077TIP3    H212238   3.165   4.690   1.311
 4078TIP3   OH212239   5.280   1.594   2.605
 4078TIP3    H112240   5.366   1.628   2.581
 4078TIP3    H212241   5.235   1.670   2.643
 4079TIP3   OH212242   5.038   3.134   5.186
 4079TIP3    H112243   4.991   3.126   5.103
 4079TIP3    H212244   5.108   3.197   5.168
 4080TIP3   OH212245   2.886   4.127   3.051
 4080TIP3    H112246   2.863   4.194   2.986
 4080TIP3    H212247   2.812   4.066   3.048
 4081TIP3   OH212248   0.933   5.382   1.314
 4081TIP3    H112249   0.978   5.453   1.359
 4081TIP3    H212250   0.900   5.421   1.233
 4082TIP3   OH212251   2.690   2.764   3.961
 4082TIP3    H112252   2.598   2.789   3.947
 4082TIP3    H212253   2.732   2.776   3.876
 4083TIP3   OH212254   1.121   2.142   1.616
 4083TIP3    H112255   1.194   2.093   1.655
 4083TIP3    H212256   1.112   2.105   1.528
 4084TIP3   OH212257   3.588   1.865   4.675
 4084TIP3    H112258   3.621   1.870   4.764
 4084TIP3    H212259   3.651   1.810   4.629
 4085TIP3   OH212260   2.630   5.818   5.113
 4085TIP3    H112261   2.651   5.727   5.089
 4085TIP3    H212262   2.713   5.855   5.142
 4086TIP3   OH212263   0.451   0.062   5.208
 4086TIP3    H112264   0.384   0.017   5.155
 4086TIP3    H212265   0.489   0.126   5.149
 4087TIP3   OH212266   4.107   4.001   1.435
 4087TIP3    H112267   4.062   3.954   1.506
 4087TIP3    H212268   4.038   4.021   1.372
 4088TIP3   OH212269   1.292   2.459   1.469
 4088TIP3    H112270   1.283   2.546   1.430
 4088TIP3    H212271   1.245   2.464   1.552
 4089TIP3   OH212272   5.246   4.039   3.856
 4089TIP3    H112273   5.239   4.126   3.817
 4089TIP3    H212274   5.243   4.055   3.951
 4090TIP3   OH212275   6.004   1.462   1.797
 4090TIP3    H112276   5.916   1.438   1.765
 4090TIP3    H212277   5.992   1.476   1.891
 4091TIP3   OH212278   3.837   5.603   2.839
 4091TIP3    H112279   3.761   5.624   2.784
 4091TIP3    H212280   3.887   5.539   2.789
 4092TIP3   OH212281   5.535   2.285   4.166
 4092TIP3    H112282   5.450   2.320   4.192
 4092TIP3    H212283   5.524   2.264   4.073
 4093TIP3   OH212284   4.531   4.118   5.088
 4093TIP3    H112285   4.491   4.196   5.049
 4093TIP3    H212286   4.510   4.048   5.027
 4094TIP3   OH212287   2.700   2.078   3.934
 4094TIP3    H112288   2.678   2.045   4.021
 4094TIP3    H212289   2.736   2.165   3.950
 4095TIP3   OH212290   0.410   2.113   4.891
 4095TIP3    H112291   0.347   2.184   4.905
 4095TIP3    H212292   0.386   2.046   4.955
 4096TIP3   OH212293   5.801   3.374   3.557
 4096TIP3    H112294   5.758   3.396   3.475
 4096TIP3    H212295   5.790   3.279   3.566
 4097TIP3   OH212296   1.752   1.794   3.458
 4097TIP3    H112297   1.806   1.872   3.470
 4097TIP3    H212298   1.666   1.828   3.434
 4098TIP3   OH212299   0.407   3.396   0.868
 4098TIP3    H112300   0.482   3.343   0.894
 4098TIP3    H212301   0.385   3.447   0.946
 4099TIP3   OH212302   5.602   4.949   1.663
 4099TIP3    H112303   5.639   4.955   1.575
 4099TIP3    H212304   5.511   4.976   1.652
 4100TIP3   OH212305   3.078   3.950   0.799
 4100TIP3    H112306   3.090   3.873   0.744
 4100TIP3    H212307   3.084   4.024   0.738
 4101TIP3   OH212308   2.171   2.504   0.945
 4101TIP3    H112309   2.161   2.409   0.940
 4101TIP3    H212310   2.081   2.538   0.942
 4102TIP3   OH212311   0.065   1.700   0.759
 4102TIP3    H112312   0.042   1.610   0.735
 4102TIP3    H212313  -0.010   1.731   0.809
 4103TIP3   OH212314   0.004   3.638   0.395
 4103TIP3    H112315   0.036   3.627   0.305
 4103TIP3    H212316   0.082   3.664   0.445
 4104TIP3   OH212317   3.762   4.362   3.613
 4104TIP3    H112318   3.768   4.402   3.526
 4104TIP3    H212319   3.817   4.284   3.608
 4105TIP3   OH212320   1.634   4.537   0.792
 4105TIP3    H112321   1.706   4.537   0.856
 4105TIP3    H212322   1.556   4.519   0.844
 4106TIP3   OH212323   5.304   1.588   0.879
 4106TIP3    H112324   5.263   1.652   0.937
 4106TIP3    H212325   5.347   1.641   0.812
 4107TIP3   OH212326   1.082   1.825   3.542
 4107TIP3    H112327   1.097   1.906   3.589
 4107TIP3    H212328   1.059   1.761   3.610
 4108TIP3   OH212329   0.938   3.331   2.852
 4108TIP3    H112330   1.026   3.300   2.832
 4108TIP3    H212331   0.901   3.265   2.911
 4109TIP3   OH212332   2.477   0.777   1.292
 4109TIP3    H112333   2.480   0.691   1.250
 4109TIP3    H212334   2.424   0.831   1.233
 4110TIP3   OH212335   1.984   1.330   4.941
 4110TIP3    H112336   2.037   1.334   5.021
 4110TIP3    H212337   1.987   1.419   4.906
 4111TIP3   OH212338   5.706   0.980   3.851
 4111TIP3    H112339   5.617   0.954   3.875
 4111TIP3    H212340   5.747   1.005   3.935
 4112TIP3   OH212341   5.166   3.890   4.582
 4112TIP3    H112342   5.232   3.939   4.533
 4112TIP3    H212343   5.089   3.947   4.582
 4113TIP3   OH212344   4.772   5.998   2.516
 4113TIP3    H112345   4.855   6.043   2.500
 4113TIP3    H212346   4.793   5.933   2.583
 4114TIP3   OH212347   4.284   5.144   3.829
 4114TIP3    H112348   4.322   5.226   3.862
 4114TIP3    H212349   4.360   5.090   3.807
 4115TIP3   OH212350   1.021   2.417   0.026
 4115TIP3    H112351   1.058   2.339   0.068
 4115TIP3    H212352   0.957   2.450   0.089
 4116TIP3   OH212353   2.179   4.170   3.283
 4116TIP3    H112354   2.122   4.121   3.341
 4116TIP3    H212355   2.132   4.171   3.199
 4117TIP3   OH212356   4.334   2.249   3.685
 4117TIP3    H112357   4.350   2.166   3.638
 4117TIP3    H212358   4.412   2.301   3.666
 4118TIP3   OH212359   2.079   2.090   2.183
 4118TIP3    H112360   2.075   2.050   2.270
 4118TIP3    H212361   2.104   2.018   2.125
 4119TIP3   OH212362   2.877   0.882   5.110
 4119TIP3    H112363   2.842   0.818   5.048
 4119TIP3    H212364   2.968   0.855   5.122
 4120TIP3   OH212365   3.871   0.432   0.656
 4120TIP3    H112366   3.928   0.362   0.626
 4120TIP3    H212367   3.930   0.503   0.682
 4121TIP3   OH212368   4.418   0.937   4.684
 4121TIP3    H112369   4.495   0.895   4.721
 4121TIP3    H212370   4.453   1.008   4.631
 4122TIP3   OH212371   4.408   2.975   3.237
 4122TIP3    H112372   4.429   2.997   3.147
 4122TIP3    H212373   4.440   2.886   3.249
 4123TIP3   OH212374   6.052   2.282   4.215
 4123TIP3    H112375   5.973   2.232   4.236
 4123TIP3    H212376   6.023   2.348   4.152
 4124TIP3   OH212377   0.803   1.636   5.072
 4124TIP3    H112378   0.782   1.692   4.996
 4124TIP3    H212379   0.884   1.673   5.107
 4125TIP3   OH212380   4.626   4.328   4.704
 4125TIP3    H112381   4.625   4.302   4.612
 4125TIP3    H212382   4.574   4.261   4.748
 4126TIP3   OH212383   4.529   4.150   1.203
 4126TIP3    H112384   4.471   4.119   1.273
 4126TIP3    H212385   4.616   4.152   1.244
 4127TIP3   OH212386   3.022   5.713   4.389
 4127TIP3    H112387   2.965   5.692   4.315
 4127TIP3    H212388   3.067   5.793   4.363
 4128TIP3   OH212389   5.370   4.141   3.486
 4128TIP3    H112390   5.447   4.189   3.518
 4128TIP3    H212391   5.396   4.106   3.401
 4129TIP3   OH212392   3.245   5.702   4.927
 4129TIP3    H112393   3.151   5.700   4.941
 4129TIP3    H212394   3.279   5.636   4.988
 4130TIP3   OH212395   6.196   4.000   2.753
 4130TIP3    H112396   6.159   4.046   2.829
 4130TIP3    H212397   6.160   4.047   2.678
 4131TIP3   OH212398   5.294   4.017   4.974
 4131TIP3    H112399   5.287   3.941   5.033
 4131TIP3    H212400   5.365   3.993   4.914
 4132TIP3   OH212401   0.758   1.353   2.148
 4132TIP3    H112402   0.707   1.284   2.191
 4132TIP3    H212403   0.808   1.307   2.080
 4133TIP3   OH212404   3.079   5.809   1.047
 4133TIP3    H112405   3.057   5.773   0.962
 4133TIP3    H212406   3.115   5.896   1.028
 4134TIP3   OH212407   5.393   4.469   0.978
 4134TIP3    H112408   5.346   4.551   0.996
 4134TIP3    H212409   5.441   4.486   0.897
 4135TIP3   OH212410   5.597   1.687   4.716
 4135TIP3    H112411   5.614   1.752   4.648
 4135TIP3    H212412   5.668   1.698   4.779
 4136TIP3   OH212413   5.881   1.245   3.609
 4136TIP3    H112414   5.923   1.177   3.662
 4136TIP3    H212415   5.911   1.327   3.648
 4137TIP3   OH212416   3.232   3.663   3.207
 4137TIP3    H112417   3.271   3.589   3.254
 4137TIP3    H212418   3.158   3.626   3.160
 4138TIP3   OH212419   5.378   5.265   3.930
 4138TIP3    H112420   5.435   5.316   3.873
 4138TIP3    H212421   5.390   5.304   4.017
 4139TIP3   OH212422   4.735   3.311   3.090
 4139TIP3    H112423   4.812   3.361   3.118
 4139TIP3    H212424   4.678   3.310   3.167
 4140TIP3   OH212425   5.690   3.518   0.942
 4140TIP3    H112426   5.599   3.538   0.922
 4140TIP3    H212427   5.740   3.559   0.872
 4141TIP3   OH212428   2.747   1.287   4.786
 4141TIP3    H112429   2.787   1.218   4.839
 4141TIP3    H212430   2.668   1.247   4.749
 4142TIP3   OH212431   3.978   1.111   0.498
 4142TIP3    H112432   3.908   1.140   0.438
 4142TIP3    H212433   3.951   1.024   0.526
 4143TIP3   OH212434   3.062   1.679   1.973
 4143TIP3    H112435   3.121   1.727   2.031
 4143TIP3    H212436   3.120   1.638   1.909
 4144TIP3   OH212437   3.798   3.731   2.782
 4144TIP3    H112438   3.813   3.637   2.784
 4144TIP3    H212439   3.886   3.770   2.786
 4145TIP3   OH212440   4.438   1.540   4.733
 4145TIP3    H112441   4.460   1.495   4.815
 4145TIP3    H212442   4.381   1.478   4.687
 4146TIP3   OH212443   4.725   1.271   4.312
 4146TIP3    H112444   4.817   1.294   4.298
 4146TIP3    H212445   4.715   1.186   4.270
 4147TIP3   OH212446   6.289   2.395   2.946
 4147TIP3    H112447   6.348   2.405   2.872
 4147TIP3    H212448   6.346   2.386   3.022
 4148TIP3   OH212449   5.981   1.688   3.171
 4148TIP3    H112450   6.048   1.629   3.135
 4148TIP3    H212451   6.009   1.702   3.262
 4149TIP3   OH212452   1.553   0.919   2.746
 4149TIP3    H112453   1.462   0.911   2.717
 4149TIP3    H212454   1.576   0.832   2.778
 4150TIP3   OH212455   2.619   0.757   1.517
 4150TIP3    H112456   2.564   0.778   1.441
 4150TIP3    H212457   2.648   0.668   1.501
 4151TIP3   OH212458   1.198   0.025   3.117
 4151TIP3    H112459   1.284   0.068   3.119
 4151TIP3    H212460   1.203  -0.034   3.042
 4152TIP3   OH212461   5.288   4.628   2.483
 4152TIP3    H112462   5.316   4.633   2.575
 4152TIP3    H212463   5.363   4.589   2.438
 4153TIP3   OH212464   1.953   3.614   1.769
 4153TIP3    H112465   1.872   3.628   1.818
 4153TIP3    H212466   2.022   3.617   1.836
 4154TIP3   OH212467   3.407   2.905   3.310
 4154TIP3    H112468   3.339   2.846   3.280
 4154TIP3    H212469   3.371   2.993   3.296
 4155TIP3   OH212470   5.010   4.313   0.280
 4155TIP3    H112471   5.101   4.342   0.285
 4155TIP3    H212472   5.012   4.236   0.223
 4156TIP3   OH212473   3.702   2.575   3.815
 4156TIP3    H112474   3.715   2.625   3.734
 4156TIP3    H212475   3.739   2.630   3.883
 4157TIP3   OH212476   0.902   0.647   3.289
 4157TIP3    H112477   0.816   0.658   3.328
 4157TIP3    H212478   0.890   0.584   3.218
 4158TIP3   OH212479   4.998   4.580   4.808
 4158TIP3    H112480   5.082   4.626   4.804
 4158TIP3    H212481   4.991   4.535   4.725
 4159TIP3   OH212482   3.143   0.374   4.329
 4159TIP3    H112483   3.184   0.363   4.244
 4159TIP3    H212484   3.198   0.322   4.389
 4160TIP3   OH212485   1.345   4.873   3.914
 4160TIP3    H112486   1.327   4.966   3.905
 4160TIP3    H212487   1.267   4.837   3.957
 4161TIP3   OH212488   4.705   2.513   4.271
 4161TIP3    H112489   4.626   2.482   4.315
 4161TIP3    H212490   4.732   2.439   4.216
 4162TIP3   OH212491   2.138   0.670   4.069
 4162TIP3    H112492   2.153   0.763   4.089
 4162TIP3    H212493   2.120   0.669   3.975
 4163TIP3   OH212494  -0.048   3.864   3.056
 4163TIP3    H112495   0.042   3.880   3.083
 4163TIP3    H212496  -0.044   3.783   3.005
 4164TIP3   OH212497   2.898   4.672   2.053
 4164TIP3    H112498   2.805   4.663   2.074
 4164TIP3    H212499   2.902   4.658   1.958
 4165TIP3   OH212500   0.207   5.509   2.185
 4165TIP3    H112501   0.262   5.587   2.190
 4165TIP3    H212502   0.195   5.482   2.276
 4166TIP3   OH212503   2.639   4.332   3.820
 4166TIP3    H112504   2.729   4.361   3.838
 4166TIP3    H212505   2.638   4.240   3.846
 4167TIP3   OH212506   3.889   3.959   1.781
 4167TIP3    H112507   3.819   3.942   1.718
 4167TIP3    H212508   3.884   4.053   1.798
 4168TIP3   OH212509   5.651   2.201   1.641
 4168TIP3    H112510   5.587   2.132   1.622
 4168TIP3    H212511   5.677   2.184   1.732
 4169TIP3   OH212512   0.827   4.303   4.579
 4169TIP3    H112513   0.781   4.355   4.645
 4169TIP3    H212514   0.832   4.361   4.503
 4170TIP3   OH212515   6.260   1.505   2.694
 4170TIP3    H112516   6.167   1.496   2.713
 4170TIP3    H212517   6.264   1.525   2.601
 4171TIP3   OH212518   2.974   4.234   3.293
 4171TIP3    H112519   2.922   4.191   3.225
 4171TIP3    H212520   2.912   4.289   3.340
 4172TIP3   OH212521   4.034   1.727   2.820
 4172TIP3    H112522   4.006   1.698   2.733
 4172TIP3    H212523   3.961   1.778   2.853
 4173TIP3   OH212524   5.253   1.230   1.211
 4173TIP3    H112525   5.228   1.307   1.262
 4173TIP3    H212526   5.337   1.203   1.249
 4174TIP3   OH212527   4.058   0.973   2.922
 4174TIP3    H112528   4.099   0.920   2.990
 4174TIP3    H212529   4.130   1.017   2.878
 4175TIP3   OH212530   1.858   0.186   0.269
 4175TIP3    H112531   1.900   0.200   0.353
 4175TIP3    H212532   1.892   0.257   0.213
 4176TIP3   OH212533   4.054   5.031   0.219
 4176TIP3    H112534   3.963   5.007   0.235
 4176TIP3    H212535   4.054   5.070   0.132
 4177TIP3   OH212536   4.204   0.831   5.204
 4177TIP3    H112537   4.281   0.850   5.150
 4177TIP3    H212538   4.136   0.891   5.170
 4178TIP3   OH212539   3.592   1.593   2.117
 4178TIP3    H112540   3.552   1.513   2.149
 4178TIP3    H212541   3.674   1.600   2.165
 4179TIP3   OH212542   6.058   1.404   2.523
 4179TIP3    H112543   6.032   1.347   2.595
 4179TIP3    H212544   5.975   1.437   2.487
 4180TIP3   OH212545   1.270   4.620   1.206
 4180TIP3    H112546   1.292   4.549   1.265
 4180TIP3    H212547   1.217   4.579   1.137
 4181TIP3   OH212548   0.230   2.017   1.821
 4181TIP3    H112549   0.195   1.983   1.739
 4181TIP3    H212550   0.153   2.039   1.873
 4182TIP3   OH212551   1.345   5.506   1.279
 4182TIP3    H112552   1.347   5.588   1.328
 4182TIP3    H212553   1.326   5.440   1.345
 4183TIP3   OH212554   5.002   2.057   2.443
 4183TIP3    H112555   4.910   2.045   2.468
 4183TIP3    H212556   5.024   2.144   2.476
 4184TIP3   OH212557   6.101   0.102   3.656
 4184TIP3    H112558   6.188   0.105   3.697
 4184TIP3    H212559   6.044   0.147   3.718
 4185TIP3   OH212560   5.739   0.018   3.214
 4185TIP3    H112561   5.795   0.034   3.138
 4185TIP3    H212562   5.654  -0.007   3.176
 4186TIP3   OH212563   5.486   3.332   3.126
 4186TIP3    H112564   5.554   3.287   3.075
 4186TIP3    H212565   5.467   3.411   3.075
 4187TIP3   OH212566   1.752   3.437   4.883
 4187TIP3    H112567   1.701   3.373   4.833
 4187TIP3    H212568   1.686   3.492   4.925
 4188TIP3   OH212569   0.271   4.346   2.197
 4188TIP3    H112570   0.226   4.429   2.180
 4188TIP3    H212571   0.358   4.358   2.160
 4189TIP3   OH212572   1.679   2.121   4.135
 4189TIP3    H112573   1.632   2.043   4.104
 4189TIP3    H212574   1.678   2.113   4.230
 4190TIP3   OH212575   4.841   3.529   4.867
 4190TIP3    H112576   4.894   3.608   4.871
 4190TIP3    H212577   4.881   3.470   4.931
 4191TIP3   OH212578   5.516   5.781   2.288
 4191TIP3    H112579   5.515   5.768   2.193
 4191TIP3    H212580   5.574   5.712   2.321
 4192TIP3   OH212581   3.454   1.366   2.220
 4192TIP3    H112582   3.519   1.299   2.240
 4192TIP3    H212583   3.377   1.318   2.190
 4193TIP3   OH212584   1.429   5.938   0.673
 4193TIP3    H112585   1.475   5.864   0.712
 4193TIP3    H212586   1.364   5.963   0.738
 4194TIP3   OH212587   4.081   1.022   3.371
 4194TIP3    H112588   4.143   0.979   3.313
 4194TIP3    H212589   4.065   0.958   3.441
 4195TIP3   OH212590   4.486   3.942   3.728
 4195TIP3    H112591   4.392   3.952   3.712
 4195TIP3    H212592   4.527   3.996   3.660
 4196TIP3   OH212593   0.408   1.645   0.144
 4196TIP3    H112594   0.394   1.617   0.234
 4196TIP3    H212595   0.320   1.658   0.108
 4197TIP3   OH212596   0.554   1.939   5.215
 4197TIP3    H112597   0.608   1.972   5.143
 4197TIP3    H212598   0.483   1.891   5.172
 4198TIP3   OH212599   5.939   5.021   2.703
 4198TIP3    H112600   5.898   4.984   2.625
 4198TIP3    H212601   5.987   5.098   2.671
 4199TIP3   OH212602   1.019   4.000   1.303
 4199TIP3    H112603   0.976   3.961   1.228
 4199TIP3    H212604   1.112   4.002   1.279
 4200TIP3   OH212605   4.680   2.628   1.884
 4200TIP3    H112606   4.680   2.710   1.934
 4200TIP3    H212607   4.596   2.587   1.906
 4201TIP3   OH212608   5.364   0.959   2.647
 4201TIP3    H112609   5.405   0.894   2.705
 4201TIP3    H212610   5.275   0.969   2.682
 4202TIP3   OH212611   1.062   3.069   0.289
 4202TIP3    H112612   1.105   2.989   0.260
 4202TIP3    H212613   0.973   3.042   0.312
 4203TIP3   OH212614   5.959   2.171   3.129
 4203TIP3    H112615   5.885   2.178   3.189
 4203TIP3    H212616   5.951   2.083   3.091
 4204TIP3   OH212617   4.446   4.635   1.969
 4204TIP3    H112618   4.497   4.570   2.017
 4204TIP3    H212619   4.376   4.585   1.927
 4205TIP3   OH212620   3.209   1.382   5.197
 4205TIP3    H112621   3.191   1.341   5.282
 4205TIP3    H212622   3.291   1.430   5.211
 4206TIP3   OH212623   0.740   4.545   1.514
 4206TIP3    H112624   0.664   4.496   1.543
 4206TIP3    H212625   0.808   4.523   1.578
 4207TIP3   OH212626   4.287   0.617   2.224
 4207TIP3    H112627   4.377   0.588   2.239
 4207TIP3    H212628   4.287   0.710   2.246
 4208TIP3   OH212629   6.304   5.959   4.446
 4208TIP3    H112630   6.378   5.899   4.450
 4208TIP3    H212631   6.331   6.034   4.500
 4209TIP3   OH212632   5.216   5.418   0.383
 4209TIP3    H112633   5.275   5.491   0.365
 4209TIP3    H212634   5.253   5.376   0.461
 4210TIP3   OH212635   2.606   0.495   5.086
 4210TIP3    H112636   2.633   0.461   5.001
 4210TIP3    H212637   2.684   0.488   5.141
 4211TIP3   OH212638   2.789   0.254   0.922
 4211TIP3    H112639   2.759   0.258   1.013
 4211TIP3    H212640   2.823   0.342   0.904
 4212TIP3   OH212641   5.857   0.639   0.781
 4212TIP3    H112642   5.836   0.568   0.842
 4212TIP3    H212643   5.931   0.606   0.730
 4213TIP3   OH212644   3.379   0.321   4.888
 4213TIP3    H112645   3.299   0.286   4.928
 4213TIP3    H212646   3.357   0.412   4.866
 4214TIP3   OH212647   4.225   1.119   1.379
 4214TIP3    H112648   4.271   1.179   1.438
 4214TIP3    H212649   4.293   1.088   1.319
 4215TIP3   OH212650   3.684   3.598   3.548
 4215TIP3    H112651   3.655   3.672   3.601
 4215TIP3    H212652   3.607   3.574   3.496
 4216TIP3   OH212653   1.650   1.534   0.129
 4216TIP3    H112654   1.624   1.481   0.053
 4216TIP3    H212655   1.570   1.580   0.154
 4217TIP3   OH212656   1.556   1.859   2.519
 4217TIP3    H112657   1.481   1.803   2.498
 4217TIP3    H212658   1.525   1.948   2.500
 4218TIP3   OH212659   1.305   2.837   4.273
 4218TIP3    H112660   1.355   2.842   4.192
 4218TIP3    H212661   1.268   2.925   4.284
 4219TIP3   OH212662   0.199   3.249   3.053
 4219TIP3    H112663   0.270   3.198   3.013
 4219TIP3    H212664   0.242   3.302   3.120
 4220TIP3   OH212665   6.054   4.831   0.790
 4220TIP3    H112666   6.012   4.916   0.784
 4220TIP3    H212667   5.986   4.773   0.825
 4221TIP3   OH212668   6.068   0.802   2.333
 4221TIP3    H112669   5.986   0.795   2.283
 4221TIP3    H212670   6.092   0.711   2.352
 4222TIP3   OH212671   5.122   3.917   1.536
 4222TIP3    H112672   5.094   3.852   1.602
 4222TIP3    H212673   5.115   4.001   1.581
 4223TIP3   OH212674   1.179   0.230   2.011
 4223TIP3    H112675   1.250   0.230   1.947
 4223TIP3    H212676   1.117   0.297   1.979
 4224TIP3   OH212677   2.008   5.182   0.147
 4224TIP3    H112678   2.039   5.200   0.058
 4224TIP3    H212679   1.921   5.222   0.150
 4225TIP3   OH212680  -0.025   0.413   0.470
 4225TIP3    H112681  -0.059   0.341   0.523
 4225TIP3    H212682   0.003   0.371   0.388
 4226TIP3   OH212683   1.960   5.885   2.255
 4226TIP3    H112684   1.898   5.839   2.198
 4226TIP3    H212685   1.992   5.957   2.200
 4227TIP3   OH212686   5.021   5.149   4.121
 4227TIP3    H112687   5.017   5.233   4.167
 4227TIP3    H212688   4.932   5.114   4.126
 4228TIP3   OH212689   4.395   4.810   1.001
 4228TIP3    H112690   4.347   4.733   1.031
 4228TIP3    H212691   4.479   4.776   0.970
 4229TIP3   OH212692   3.077   5.175   4.404
 4229TIP3    H112693   3.043   5.259   4.375
 4229TIP3    H212694   3.070   5.178   4.500
 4230TIP3   OH212695   5.016   4.655   0.883
 4230TIP3    H112696   4.955   4.718   0.845
 4230TIP3    H212697   5.089   4.652   0.821
 4231TIP3   OH212698   5.180   1.564   4.051
 4231TIP3    H112699   5.247   1.561   4.119
 4231TIP3    H212700   5.112   1.621   4.086
 4232TIP3   OH212701   6.149   2.847   2.145
 4232TIP3    H112702   6.096   2.923   2.120
 4232TIP3    H212703   6.129   2.833   2.237
 4233TIP3   OH212704   5.669   0.323   0.740
 4233TIP3    H112705   5.719   0.391   0.785
 4233TIP3    H212706   5.728   0.247   0.740
 4234TIP3   OH212707   3.246   0.012   2.048
 4234TIP3    H112708   3.198   0.095   2.046
 4234TIP3    H212709   3.223  -0.031   1.966
 4235TIP3   OH212710   2.034   0.666   0.718
 4235TIP3    H112711   2.102   0.683   0.653
 4235TIP3    H212712   2.073   0.606   0.780
 4236TIP3   OH212713   4.928   0.753   3.125
 4236TIP3    H112714   4.926   0.799   3.209
 4236TIP3    H212715   4.891   0.667   3.144
 4237TIP3   OH212716   1.371   3.602   4.592
 4237TIP3    H112717   1.450   3.568   4.552
 4237TIP3    H212718   1.347   3.678   4.539
 4238TIP3   OH212719   1.093   5.360   2.625
 4238TIP3    H112720   1.104   5.373   2.720
 4238TIP3    H212721   1.181   5.370   2.589
 4239TIP3   OH212722   3.194   5.476   2.597
 4239TIP3    H112723   3.162   5.420   2.526
 4239TIP3    H212724   3.283   5.445   2.614
 4240TIP3   OH212725   3.493   1.545   3.053
 4240TIP3    H112726   3.539   1.547   3.137
 4240TIP3    H212727   3.456   1.633   3.044
 4241TIP3   OH212728   4.162   4.569   3.250
 4241TIP3    H112729   4.118   4.647   3.215
 4241TIP3    H212730   4.139   4.499   3.190
 4242TIP3   OH212731   5.963   1.757   0.338
 4242TIP3    H112732   5.915   1.718   0.411
 4242TIP3    H212733   5.899   1.765   0.268
 4243TIP3   OH212734   1.288   4.615   0.649
 4243TIP3    H112735   1.233   4.693   0.656
 4243TIP3    H212736   1.375   4.644   0.677
 4244TIP3   OH212737   5.763   3.982   3.528
 4244TIP3    H112738   5.738   3.997   3.619
 4244TIP3    H212739   5.809   3.898   3.530
 4245TIP3   OH212740   3.542   3.824   1.864
 4245TIP3    H112741   3.500   3.864   1.939
 4245TIP3    H212742   3.623   3.787   1.899
 4246TIP3   OH212743   3.187   1.495   3.529
 4246TIP3    H112744   3.260   1.523   3.474
 4246TIP3    H212745   3.228   1.443   3.599
 4247TIP3   OH212746   5.043   3.893   4.095
 4247TIP3    H112747   5.016   3.864   4.008
 4247TIP3    H212748   4.970   3.947   4.126
 4248TIP3   OH212749   0.629   4.686   1.296
 4248TIP3    H112750   0.709   4.723   1.261
 4248TIP3    H212751   0.658   4.619   1.358
 4249TIP3   OH212752   6.310   4.287   2.075
 4249TIP3    H112753   6.385   4.345   2.063
 4249TIP3    H212754   6.285   4.298   2.166
 4250TIP3   OH212755   1.442   2.883   2.845
 4250TIP3    H112756   1.406   2.869   2.933
 4250TIP3    H212757   1.392   2.957   2.810
 4251TIP3   OH212758   4.386   0.473   4.841
 4251TIP3    H112759   4.396   0.540   4.774
 4251TIP3    H212760   4.301   0.433   4.823
 4252TIP3   OH212761   4.494   4.961   3.725
 4252TIP3    H112762   4.587   4.957   3.704
 4252TIP3    H212763   4.452   4.897   3.667
 4253TIP3   OH212764   5.880   2.359   2.156
 4253TIP3    H112765   5.954   2.300   2.141
 4253TIP3    H212766   5.919   2.446   2.159
 4254TIP3   OH212767   0.961   0.036   3.355
 4254TIP3    H112768   0.909   0.113   3.379
 4254TIP3    H212769   1.051   0.062   3.373
 4255TIP3   OH212770   3.685   4.259   1.011
 4255TIP3    H112771   3.770   4.249   0.968
 4255TIP3    H212772   3.650   4.341   0.977
 4256TIP3   OH212773   5.408   0.473   0.077
 4256TIP3    H112774   5.443   0.386   0.059
 4256TIP3    H212775   5.389   0.510  -0.009
 4257TIP3   OH212776   0.509   0.206   3.208
 4257TIP3    H112777   0.435   0.264   3.190
 4257TIP3    H212778   0.578   0.237   3.149
 4258TIP3   OH212779   2.340   2.294   3.010
 4258TIP3    H112780   2.382   2.214   2.980
 4258TIP3    H212781   2.247   2.283   2.987
 4259TIP3   OH212782   6.011   1.430   3.823
 4259TIP3    H112783   6.069   1.355   3.819
 4259TIP3    H212784   6.067   1.503   3.850
 4260TIP3   OH212785   5.710   0.766   1.483
 4260TIP3    H112786   5.719   0.758   1.578
 4260TIP3    H212787   5.662   0.688   1.456
 4261TIP3   OH212788   2.259   2.282   1.518
 4261TIP3    H112789   2.295   2.194   1.528
 4261TIP3    H212790   2.319   2.326   1.458
 4262TIP3   OH212791   4.773   0.082   1.546
 4262TIP3    H112792   4.707   0.069   1.478
 4262TIP3    H212793   4.788  -0.005   1.584
 4263TIP3   OH212794   4.419   1.972   3.937
 4263TIP3    H112795   4.507   1.940   3.917
 4263TIP3    H212796   4.361   1.917   3.883
 4264TIP3   OH212797   4.354   3.156   0.876
 4264TIP3    H112798   4.280   3.132   0.819
 4264TIP3    H212799   4.313   3.195   0.953
 4265TIP3   OH212800   0.985   1.300   1.336
 4265TIP3    H112801   0.999   1.330   1.425
 4265TIP3    H212802   0.920   1.360   1.299
 4266TIP3   OH212803   2.999   4.113   4.169
 4266TIP3    H112804   3.050   4.171   4.111
 4266TIP3    H212805   3.064   4.075   4.228
 4267TIP3   OH212806   6.230   2.879   3.796
 4267TIP3    H112807   6.289   2.953   3.810
 4267TIP3    H212808   6.240   2.858   3.703
 4268TIP3   OH212809  -0.014   2.245   0.561
 4268TIP3    H112810   0.063   2.278   0.516
 4268TIP3    H212811  -0.008   2.150   0.552
 4269TIP3   OH212812   0.486   2.507   4.240
 4269TIP3    H112813   0.488   2.535   4.332
 4269TIP3    H212814   0.516   2.415   4.242
 4270TIP3   OH212815   4.689   1.610   3.511
 4270TIP3    H112816   4.671   1.573   3.424
 4270TIP3    H212817   4.727   1.696   3.493
 4271TIP3   OH212818   3.307   4.958   4.091
 4271TIP3    H112819   3.212   4.942   4.092
 4271TIP3    H212820   3.342   4.891   4.031
 4272TIP3   OH212821   2.596   5.058   1.084
 4272TIP3    H112822   2.539   5.058   1.007
 4272TIP3    H212823   2.663   5.124   1.063
 4273TIP3   OH212824   0.918   5.597   1.855
 4273TIP3    H112825   0.969   5.569   1.779
 4273TIP3    H212826   0.934   5.691   1.861
 4274TIP3   OH212827   3.914   4.889   4.655
 4274TIP3    H112828   3.939   4.979   4.635
 4274TIP3    H212829   3.820   4.885   4.637
 4275TIP3   OH212830   1.820   4.889   4.146
 4275TIP3    H112831   1.909   4.899   4.180
 4275TIP3    H212832   1.784   4.978   4.146
 4276TIP3   OH212833   2.662   2.081  -0.044
 4276TIP3    H112834   2.743   2.037  -0.016
 4276TIP3    H212835   2.600   2.062   0.027
 4277TIP3   OH212836   4.517   1.592   5.096
 4277TIP3    H112837   4.602   1.587   5.053
 4277TIP3    H212838   4.471   1.662   5.051
 4278TIP3   OH212839   5.847   3.068   2.738
 4278TIP3    H112840   5.874   2.987   2.695
 4278TIP3    H212841   5.845   3.133   2.668
 4279TIP3   OH212842   2.624   3.823   4.679
 4279TIP3    H112843   2.706   3.858   4.713
 4279TIP3    H212844   2.572   3.803   4.758
 4280TIP3   OH212845   3.005   5.734   1.505
 4280TIP3    H112846   3.004   5.822   1.543
 4280TIP3    H212847   2.996   5.675   1.580
 4281TIP3   OH212848   4.076   0.230   1.666
 4281TIP3    H112849   4.029   0.311   1.685
 4281TIP3    H212850   4.009   0.168   1.639
 4282TIP3   OH212851   0.919   4.869   5.042
 4282TIP3    H112852   0.931   4.859   5.136
 4282TIP3    H212853   0.838   4.821   5.023
 4283TIP3   OH212854   4.590   2.673   2.800
 4283TIP3    H112855   4.553   2.737   2.739
 4283TIP3    H212856   4.672   2.712   2.830
 4284TIP3   OH212857   0.181   5.975   3.815
 4284TIP3    H112858   0.266   5.950   3.780
 4284TIP3    H212859   0.181   5.939   3.904
 4285TIP3   OH212860   3.468   5.293   2.940
 4285TIP3    H112861   3.521   5.371   2.957
 4285TIP3    H212862   3.447   5.259   3.027
 4286TIP3   OH212863   1.565   1.428   3.300
 4286TIP3    H112864   1.586   1.337   3.281
 4286TIP3    H212865   1.590   1.475   3.220
 4287TIP3   OH212866   5.404   2.762   3.001
 4287TIP3    H112867   5.382   2.855   2.992
 4287TIP3    H212868   5.500   2.761   3.006
 4288TIP3   OH212869   3.509   1.923   0.543
 4288TIP3    H112870   3.582   1.962   0.495
 4288TIP3    H212871   3.471   1.997   0.591
 4289TIP3   OH212872   3.144   4.467   0.194
 4289TIP3    H112873   3.215   4.530   0.204
 4289TIP3    H212874   3.086   4.486   0.268
 4290TIP3   OH212875   2.313   2.847   4.556
 4290TIP3    H112876   2.326   2.865   4.463
 4290TIP3    H212877   2.368   2.911   4.601
 4291TIP3   OH212878   0.496   4.142   0.477
 4291TIP3    H112879   0.592   4.140   0.474
 4291TIP3    H212880   0.475   4.166   0.567
 4292TIP3   OH212881   1.083   2.837   2.809
 4292TIP3    H112882   1.059   2.767   2.870
 4292TIP3    H212883   1.119   2.907   2.864
 4293TIP3   OH212884   0.663   2.164   2.216
 4293TIP3    H112885   0.569   2.177   2.212
 4293TIP3    H212886   0.674   2.069   2.219
 4294TIP3   OH212887   4.127   1.501   1.904
 4294TIP3    H112888   4.140   1.410   1.877
 4294TIP3    H212889   4.038   1.502   1.940
 4295TIP3   OH212890   4.817   1.484   2.682
 4295TIP3    H112891   4.817   1.484   2.778
 4295TIP3    H212892   4.848   1.571   2.658
 4296TIP3   OH212893   1.479   1.401   3.757
 4296TIP3    H112894   1.415   1.369   3.820
 4296TIP3    H212895   1.540   1.454   3.809
 4297TIP3   OH212896   4.145   4.962   0.553
 4297TIP3    H112897   4.177   5.034   0.607
 4297TIP3    H212898   4.100   5.005   0.480
 4298TIP3   OH212899   2.896   4.941   1.165
 4298TIP3    H112900   2.981   4.969   1.198
 4298TIP3    H212901   2.855   4.896   1.238
 4299TIP3   OH212902   4.835   5.924   3.192
 4299TIP3    H112903   4.838   5.897   3.101
 4299TIP3    H212904   4.795   6.011   3.189
 4300TIP3   OH212905   4.975   1.718   2.834
 4300TIP3    H112906   4.935   1.658   2.897
 4300TIP3    H212907   4.925   1.799   2.843
 4301TIP3   OH212908   0.262   4.893   4.594
 4301TIP3    H112909   0.167   4.878   4.591
 4301TIP3    H212910   0.274   4.976   4.548
 4302TIP3   OH212911   2.642   5.212   3.292
 4302TIP3    H112912   2.652   5.278   3.360
 4302TIP3    H212913   2.717   5.153   3.304
 4303TIP3   OH212914   2.085   0.352   1.241
 4303TIP3    H112915   2.070   0.260   1.219
 4303TIP3    H212916   2.095   0.353   1.336
 4304TIP3   OH212917   1.320   3.218   2.366
 4304TIP3    H112918   1.234   3.247   2.395
 4304TIP3    H212919   1.327   3.249   2.276
 4305TIP3   OH212920   0.724   3.362   4.327
 4305TIP3    H112921   0.745   3.440   4.276
 4305TIP3    H212922   0.709   3.394   4.416
 4306TIP3   OH212923   0.845   3.821   3.999
 4306TIP3    H112924   0.925   3.839   4.049
 4306TIP3    H212925   0.778   3.874   4.041
 4307TIP3   OH212926   0.805   0.293   4.271
 4307TIP3    H112927   0.803   0.290   4.176
 4307TIP3    H212928   0.880   0.239   4.295
 4308TIP3   OH212929   2.153   0.988   0.739
 4308TIP3    H112930   2.120   1.053   0.677
 4308TIP3    H212931   2.074   0.947   0.774
 4309TIP3   OH212932   0.730   3.487   1.535
 4309TIP3    H112933   0.799   3.550   1.512
 4309TIP3    H212934   0.771   3.402   1.524
 4310TIP3   OH212935   1.160   4.364   4.173
 4310TIP3    H112936   1.073   4.323   4.173
 4310TIP3    H212937   1.163   4.413   4.256
 4311TIP3   OH212938   1.595   2.042   4.676
 4311TIP3    H112939   1.559   1.953   4.671
 4311TIP3    H212940   1.519   2.099   4.669
 4312TIP3   OH212941   4.015   0.717   1.381
 4312TIP3    H112942   3.950   0.787   1.369
 4312TIP3    H212943   3.977   0.641   1.338
 4313TIP3   OH212944   4.757   2.338   2.002
 4313TIP3    H112945   4.798   2.420   2.030
 4313TIP3    H212946   4.663   2.358   2.003
 4314TIP3   OH212947   1.002   4.298   5.173
 4314TIP3    H112948   0.995   4.203   5.169
 4314TIP3    H212949   0.918   4.330   5.141
 4315TIP3   OH212950   0.976   0.640   5.006
 4315TIP3    H112951   0.949   0.717   5.056
 4315TIP3    H212952   1.068   0.627   5.031
 4316TIP3   OH212953   3.259   0.436   0.243
 4316TIP3    H112954   3.171   0.399   0.254
 4316TIP3    H212955   3.253   0.486   0.161
 4317TIP3   OH212956   3.100   4.695   2.326
 4317TIP3    H112957   3.144   4.642   2.393
 4317TIP3    H212958   3.119   4.786   2.351
 4318TIP3   OH212959   3.519   4.077   3.639
 4318TIP3    H112960   3.485   4.165   3.625
 4318TIP3    H212961   3.523   4.038   3.551
 4319TIP3   OH212962   5.932   2.715   4.460
 4319TIP3    H112963   5.866   2.783   4.474
 4319TIP3    H212964   5.975   2.740   4.377
 4320TIP3   OH212965   3.259   3.490   3.692
 4320TIP3    H112966   3.275   3.401   3.724
 4320TIP3    H212967   3.246   3.542   3.772
 4321TIP3   OH212968   0.773   5.012   1.563
 4321TIP3    H112969   0.690   5.031   1.519
 4321TIP3    H212970   0.840   5.038   1.500
 4322TIP3   OH212971   0.353   3.869   2.387
 4322TIP3    H112972   0.317   3.887   2.474
 4322TIP3    H212973   0.332   3.946   2.335
 4323TIP3   OH212974   2.203   3.132   2.792
 4323TIP3    H112975   2.115   3.151   2.825
 4323TIP3    H212976   2.190   3.060   2.730
 4324TIP3   OH212977   1.767   5.560   2.320
 4324TIP3    H112978   1.853   5.574   2.280
 4324TIP3    H212979   1.708   5.616   2.270
 4325TIP3   OH212980   1.757   3.156   2.967
 4325TIP3    H112981   1.692   3.093   2.937
 4325TIP3    H212982   1.713   3.204   3.037
 4326TIP3   OH212983   4.373   2.586   0.738
 4326TIP3    H112984   4.389   2.495   0.765
 4326TIP3    H212985   4.393   2.587   0.644
 4327TIP3   OH212986   2.497   3.093   1.470
 4327TIP3    H112987   2.537   3.159   1.413
 4327TIP3    H212988   2.418   3.065   1.423
 4328TIP3   OH212989   2.705   1.167   2.506
 4328TIP3    H112990   2.762   1.143   2.432
 4328TIP3    H212991   2.618   1.135   2.481
 4329TIP3   OH212992   0.511   2.013   3.747
 4329TIP3    H112993   0.542   1.963   3.823
 4329TIP3    H212994   0.424   2.043   3.772
 4330TIP3   OH212995   3.407   3.846   4.135
 4330TIP3    H112996   3.447   3.828   4.220
 4330TIP3    H212997   3.386   3.760   4.099
 4331TIP3   OH212998   1.115   0.437   0.759
 4331TIP3    H112999   1.119   0.504   0.827
 4331TIP3    H213000   1.203   0.398   0.759
 4332TIP3   OH213001   6.024   2.424   3.838
 4332TIP3    H113002   6.055   2.503   3.882
 4332TIP3    H213003   6.103   2.387   3.798
 4333TIP3   OH213004   4.621   0.487   4.302
 4333TIP3    H113005   4.574   0.504   4.220
 4333TIP3    H213006   4.683   0.418   4.279
 4334TIP3   OH213007   4.567   5.616   2.631
 4334TIP3    H113008   4.645   5.636   2.682
 4334TIP3    H213009   4.554   5.522   2.641
 4335TIP3   OH213010   4.180   2.973   2.063
 4335TIP3    H113011   4.237   2.966   2.140
 4335TIP3    H213012   4.164   3.066   2.053
 4336TIP3   OH213013   2.918   3.510   2.063
 4336TIP3    H113014   2.926   3.429   2.114
 4336TIP3    H213015   3.008   3.538   2.049
 4337TIP3   OH213016   4.828   4.783   1.416
 4337TIP3    H113017   4.806   4.715   1.352
 4337TIP3    H213018   4.748   4.836   1.423
 4338TIP3   OH213019   5.331   4.073   4.453
 4338TIP3    H113020   5.415   4.117   4.446
 4338TIP3    H213021   5.309   4.048   4.363
 4339TIP3   OH213022   4.971   2.673   2.557
 4339TIP3    H113023   5.036   2.723   2.608
 4339TIP3    H213024   5.007   2.672   2.468
 4340TIP3   OH213025   3.806   0.333   0.892
 4340TIP3    H113026   3.855   0.326   0.810
 4340TIP3    H213027   3.863   0.386   0.948
 4341TIP3   OH213028   4.926   1.270   3.692
 4341TIP3    H113029   4.889   1.357   3.709
 4341TIP3    H213030   4.999   1.286   3.633
 4342TIP3   OH213031   0.341   5.928   3.170
 4342TIP3    H113032   0.423   5.976   3.181
 4342TIP3    H213033   0.272   5.989   3.196
 4343TIP3   OH213034   2.088   1.963   0.788
 4343TIP3    H113035   2.071   1.957   0.882
 4343TIP3    H213036   2.108   2.055   0.773
 4344TIP3   OH213037   4.736   3.649   4.362
 4344TIP3    H113038   4.701   3.567   4.327
 4344TIP3    H213039   4.664   3.685   4.414
 4345TIP3   OH213040   4.697   5.466   2.848
 4345TIP3    H113041   4.765   5.404   2.822
 4345TIP3    H213042   4.731   5.506   2.928
 4346TIP3   OH213043   5.708   5.218   1.917
 4346TIP3    H113044   5.723   5.300   1.870
 4346TIP3    H213045   5.613   5.210   1.921
 4347TIP3   OH213046   1.994   4.329   2.819
 4347TIP3    H113047   1.975   4.419   2.847
 4347TIP3    H213048   2.075   4.336   2.769
 4348TIP3   OH213049   6.344   1.707   3.526
 4348TIP3    H113050   6.342   1.612   3.539
 4348TIP3    H213051   6.416   1.737   3.582
 4349TIP3   OH213052   5.989   1.861   0.797
 4349TIP3    H113053   5.939   1.876   0.878
 4349TIP3    H213054   5.923   1.856   0.728
 4350TIP3   OH213055   0.572   0.502   0.884
 4350TIP3    H113056   0.608   0.589   0.866
 4350TIP3    H213057   0.584   0.454   0.803
 4351TIP3   OH213058   1.709   1.389   4.419
 4351TIP3    H113059   1.734   1.418   4.507
 4351TIP3    H213060   1.650   1.315   4.433
 4352TIP3   OH213061   2.138   4.686   0.224
 4352TIP3    H113062   2.079   4.720   0.291
 4352TIP3    H213063   2.187   4.617   0.269
 4353TIP3   OH213064   2.107   0.785   4.755
 4353TIP3    H113065   2.067   0.712   4.708
 4353TIP3    H213066   2.138   0.844   4.686
 4354TIP3   OH213067   1.816   5.334   2.043
 4354TIP3    H113068   1.737   5.335   2.097
 4354TIP3    H213069   1.875   5.396   2.084
 4355TIP3   OH213070   3.092   2.741   3.450
 4355TIP3    H113071   3.038   2.759   3.373
 4355TIP3    H213072   3.133   2.656   3.431
 4356TIP3   OH213073   0.258   1.489   0.963
 4356TIP3    H113074   0.295   1.410   1.005
 4356TIP3    H213075   0.207   1.455   0.889
 4357TIP3   OH213076   5.947   2.007   1.283
 4357TIP3    H113077   5.916   2.087   1.240
 4357TIP3    H213078   5.953   2.031   1.375
 4358TIP3   OH213079   1.694   3.975   4.208
 4358TIP3    H113080   1.703   3.891   4.164
 4358TIP3    H213081   1.719   4.039   4.142
 4359TIP3   OH213082   5.548   1.815   3.677
 4359TIP3    H113083   5.582   1.904   3.683
 4359TIP3    H213084   5.521   1.793   3.766
 4360TIP3   OH213085   0.888   4.916   2.939
 4360TIP3    H113086   0.911   4.990   2.882
 4360TIP3    H213087   0.888   4.952   3.027
 4361TIP3   OH213088   1.822   1.135   1.802
 4361TIP3    H113089   1.892   1.089   1.755
 4361TIP3    H213090   1.752   1.144   1.737
 4362TIP3   OH213091   2.404   0.574   2.145
 4362TIP3    H113092   2.457   0.614   2.075
 4362TIP3    H213093   2.415   0.633   2.220
 4363TIP3   OH213094   4.005   3.005   3.861
 4363TIP3    H113095   4.057   3.078   3.829
 4363TIP3    H213096   3.918   3.019   3.822
 4364TIP3   OH213097   3.644   1.647   1.842
 4364TIP3    H113098   3.570   1.690   1.799
 4364TIP3    H213099   3.617   1.639   1.933
 4365TIP3   OH213100   5.832   4.154   3.172
 4365TIP3    H113101   5.897   4.220   3.150
 4365TIP3    H213102   5.855   4.127   3.262
 4366TIP3   OH213103   1.890   3.330   3.520
 4366TIP3    H113104   1.876   3.282   3.602
 4366TIP3    H213105   1.830   3.405   3.526
 4367TIP3   OH213106   2.140   1.031   3.186
 4367TIP3    H113107   2.106   1.057   3.100
 4367TIP3    H213108   2.148   1.114   3.234
 4368TIP3   OH213109   4.106   2.413   1.893
 4368TIP3    H113110   4.078   2.476   1.958
 4368TIP3    H213111   4.090   2.327   1.933
 4369TIP3   OH213112   4.596   5.900   4.505
 4369TIP3    H113113   4.656   5.889   4.431
 4369TIP3    H213114   4.643   5.862   4.579
 4370TIP3   OH213115   1.400   5.327   3.532
 4370TIP3    H113116   1.469   5.376   3.575
 4370TIP3    H213117   1.412   5.237   3.561
 4371TIP3   OH213118   4.691   0.633   4.509
 4371TIP3    H113119   4.763   0.683   4.472
 4371TIP3    H213120   4.642   0.601   4.433
 4372TIP3   OH213121   4.430   0.416   3.394
 4372TIP3    H113122   4.501   0.352   3.398
 4372TIP3    H213123   4.442   0.469   3.473
 4373TIP3   OH213124   0.301   4.824   4.284
 4373TIP3    H113125   0.312   4.740   4.328
 4373TIP3    H213126   0.389   4.862   4.283
 4374TIP3   OH213127   5.764   2.952   4.567
 4374TIP3    H113128   5.759   2.920   4.658
 4374TIP3    H213129   5.814   3.033   4.573
 4375TIP3   OH213130   5.146   4.422   1.561
 4375TIP3    H113131   5.175   4.474   1.487
 4375TIP3    H213132   5.078   4.475   1.603
 4376TIP3   OH213133   5.171   5.666   3.129
 4376TIP3    H113134   5.224   5.630   3.058
 4376TIP3    H213135   5.120   5.735   3.088
 4377TIP3   OH213136   0.836   3.244   2.201
 4377TIP3    H113137   0.804   3.154   2.197
 4377TIP3    H213138   0.908   3.246   2.138
 4378TIP3   OH213139   6.009   3.660   1.551
 4378TIP3    H113140   6.050   3.627   1.631
 4378TIP3    H213141   5.915   3.652   1.568
 4379TIP3   OH213142   5.620   0.230   1.090
 4379TIP3    H113143   5.655   0.290   1.155
 4379TIP3    H213144   5.545   0.277   1.051
 4380TIP3   OH213145   1.038   0.303   3.145
 4380TIP3    H113146   1.098   0.230   3.160
 4380TIP3    H213147   0.981   0.303   3.222
 4381TIP3   OH213148   3.987   0.763   0.184
 4381TIP3    H113149   3.993   0.857   0.200
 4381TIP3    H213150   4.072   0.728   0.212
 4382TIP3   OH213151   3.774   2.879   4.590
 4382TIP3    H113152   3.731   2.794   4.596
 4382TIP3    H213153   3.713   2.934   4.542
 4383TIP3   OH213154   0.372   5.760   0.864
 4383TIP3    H113155   0.350   5.838   0.814
 4383TIP3    H213156   0.466   5.766   0.880
 4384TIP3   OH213157   1.408   5.713   2.623
 4384TIP3    H113158   1.427   5.787   2.566
 4384TIP3    H213159   1.313   5.703   2.620
 4385TIP3   OH213160   4.396   1.455   3.153
 4385TIP3    H113161   4.355   1.408   3.080
 4385TIP3    H213162   4.345   1.430   3.229
 4386TIP3   OH213163   1.790   5.357   3.535
 4386TIP3    H113164   1.738   5.282   3.507
 4386TIP3    H213165   1.837   5.326   3.613
 4387TIP3   OH213166   0.223   0.092   3.382
 4387TIP3    H113167   0.222   0.054   3.294
 4387TIP3    H213168   0.175   0.174   3.373
 4388TIP3   OH213169   4.321   4.427   1.354
 4388TIP3    H113170   4.410   4.453   1.332
 4388TIP3    H213171   4.328   4.333   1.373
 4389TIP3   OH213172   0.697   4.702   0.868
 4389TIP3    H113173   0.612   4.743   0.885
 4389TIP3    H213174   0.756   4.776   0.849
 4390TIP3   OH213175   2.969   3.892   1.650
 4390TIP3    H113176   3.055   3.855   1.669
 4390TIP3    H213177   2.982   3.987   1.654
 4391TIP3   OH213178   4.357   2.581   2.153
 4391TIP3    H113179   4.409   2.656   2.182
 4391TIP3    H213180   4.403   2.549   2.075
 4392TIP3   OH213181   1.969   1.461   4.298
 4392TIP3    H113182   1.921   1.394   4.347
 4392TIP3    H213183   1.969   1.429   4.208
 4393TIP3   OH213184   0.991   4.278   0.143
 4393TIP3    H113185   1.010   4.279   0.237
 4393TIP3    H213186   0.896   4.267   0.138
 4394TIP3   OH213187   2.861   1.664   0.794
 4394TIP3    H113188   2.830   1.621   0.714
 4394TIP3    H213189   2.955   1.677   0.778
 4395TIP3   OH213190   0.828   4.339   1.704
 4395TIP3    H113191   0.910   4.352   1.751
 4395TIP3    H213192   0.855   4.294   1.623
 4396TIP3   OH213193   5.096   5.583   2.032
 4396TIP3    H113194   5.060   5.542   1.954
 4396TIP3    H213195   5.033   5.652   2.054
 4397TIP3   OH213196   5.904   1.790   1.764
 4397TIP3    H113197   5.965   1.730   1.721
 4397TIP3    H213198   5.817   1.756   1.743
 4398TIP3   OH213199   5.782   2.425   3.584
 4398TIP3    H113200   5.876   2.445   3.583
 4398TIP3    H213201   5.771   2.362   3.655
 4399TIP3   OH213202   0.878   4.534   3.719
 4399TIP3    H113203   0.788   4.555   3.696
 4399TIP3    H213204   0.894   4.581   3.801
 4400TIP3   OH213205   0.196   5.150   1.449
 4400TIP3    H113206   0.214   5.162   1.356
 4400TIP3    H213207   0.165   5.059   1.456
 4401TIP3   OH213208   5.943   2.756   2.841
 4401TIP3    H113209   5.880   2.747   2.770
 4401TIP3    H213210   6.028   2.748   2.798
 4402TIP3   OH213211   6.030   0.408   2.481
 4402TIP3    H113212   5.981   0.478   2.524
 4402TIP3    H213213   6.083   0.454   2.415
 4403TIP3   OH213214   2.569   2.941   0.851
 4403TIP3    H113215   2.620   3.003   0.904
 4403TIP3    H213216   2.483   2.940   0.893
 4404TIP3   OH213217   0.585   0.588   4.202
 4404TIP3    H113218   0.601   0.516   4.263
 4404TIP3    H213219   0.543   0.547   4.126
 4405TIP3   OH213220   4.067   5.430   0.627
 4405TIP3    H113221   4.020   5.354   0.593
 4405TIP3    H213222   4.157   5.417   0.599
 4406TIP3   OH213223   1.055   1.483   3.487
 4406TIP3    H113224   1.080   1.496   3.396
 4406TIP3    H213225   1.136   1.491   3.536
 4407TIP3   OH213226   1.879   1.873   2.098
 4407TIP3    H113227   1.867   1.778   2.099
 4407TIP3    H213228   1.955   1.887   2.042
 4408TIP3   OH213229   4.960   5.596   0.275
 4408TIP3    H113230   4.990   5.556   0.194
 4408TIP3    H213231   5.012   5.554   0.344
 4409TIP3   OH213232   4.729   5.503   2.096
 4409TIP3    H113233   4.641   5.540   2.095
 4409TIP3    H213234   4.784   5.570   2.057
 4410TIP3   OH213235   3.196   5.751   1.309
 4410TIP3    H113236   3.151   5.768   1.227
 4410TIP3    H213237   3.126   5.748   1.375
 4411TIP3   OH213238   2.569   2.609   3.413
 4411TIP3    H113239   2.494   2.559   3.381
 4411TIP3    H213240   2.606   2.650   3.335
 4412TIP3   OH213241   5.830   4.659   0.881
 4412TIP3    H113242   5.768   4.729   0.901
 4412TIP3    H213243   5.833   4.656   0.786
 4413TIP3   OH213244   0.401   5.527   3.007
 4413TIP3    H113245   0.357   5.612   3.002
 4413TIP3    H213246   0.446   5.529   3.092
 4414TIP3   OH213247   0.928   1.466   0.867
 4414TIP3    H113248   1.009   1.415   0.871
 4414TIP3    H213249   0.872   1.419   0.805
 4415TIP3   OH213250   5.901   5.055   4.929
 4415TIP3    H113251   5.862   5.143   4.921
 4415TIP3    H213252   5.978   5.069   4.984
 4416TIP3   OH213253   3.176   0.954   1.619
 4416TIP3    H113254   3.179   0.941   1.524
 4416TIP3    H213255   3.123   1.032   1.632
 4417TIP3   OH213256   5.832   0.983   1.935
 4417TIP3    H113257   5.909   0.970   1.880
 4417TIP3    H213258   5.775   1.040   1.884
 4418TIP3   OH213259   6.090   0.807   0.529
 4418TIP3    H113260   6.168   0.763   0.563
 4418TIP3    H213261   6.124   0.886   0.487
 4419TIP3   OH213262   4.740   1.784   4.357
 4419TIP3    H113263   4.723   1.692   4.379
 4419TIP3    H213264   4.658   1.814   4.316
 4420TIP3   OH213265   5.680   5.563   4.511
 4420TIP3    H113266   5.715   5.645   4.477
 4420TIP3    H213267   5.659   5.512   4.433
 4421TIP3   OH213268   1.626   0.240   3.566
 4421TIP3    H113269   1.612   0.171   3.630
 4421TIP3    H213270   1.697   0.293   3.602
 4422TIP3   OH213271   1.454   2.023   2.195
 4422TIP3    H113272   1.365   2.009   2.227
 4422TIP3    H213273   1.496   2.076   2.263
 4423TIP3   OH213274   5.916   3.917   3.821
 4423TIP3    H113275   5.975   3.860   3.870
 4423TIP3    H213276   5.918   3.883   3.731
 4424TIP3   OH213277   3.463   3.808   3.091
 4424TIP3    H113278   3.392   3.746   3.078
 4424TIP3    H213279   3.489   3.797   3.182
 4425TIP3   OH213280   1.331   1.951   4.362
 4425TIP3    H113281   1.332   2.034   4.410
 4425TIP3    H213282   1.295   1.973   4.277
 4426TIP3   OH213283   3.742   1.921   1.380
 4426TIP3    H113284   3.806   1.992   1.387
 4426TIP3    H213285   3.787   1.854   1.329
 4427TIP3   OH213286   5.256   5.216   3.467
 4427TIP3    H113287   5.249   5.303   3.429
 4427TIP3    H213288   5.207   5.222   3.549
 4428TIP3   OH213289   3.887   5.702   0.645
 4428TIP3    H113290   3.922   5.662   0.724
 4428TIP3    H213291   3.874   5.629   0.585
 4429TIP3   OH213292   0.991   4.029   4.888
 4429TIP3    H113293   1.053   3.993   4.951
 4429TIP3    H213294   1.015   3.988   4.805
 4430TIP3   OH213295   2.259   2.377  -0.038
 4430TIP3    H113296   2.208   2.456  -0.027
 4430TIP3    H213297   2.335   2.389   0.020
 4431TIP3   OH213298   2.657   1.243   0.133
 4431TIP3    H113299   2.725   1.290   0.181
 4431TIP3    H213300   2.703   1.209   0.056
 4432TIP3   OH213301   2.033   3.065   3.064
 4432TIP3    H113302   2.030   3.089   3.157
 4432TIP3    H213303   1.941   3.058   3.038
 4433TIP3   OH213304   5.913   2.149   1.535
 4433TIP3    H113305   5.957   2.132   1.618
 4433TIP3    H213306   5.821   2.156   1.558
 4434TIP3   OH213307   3.870   1.259   4.152
 4434TIP3    H113308   3.932   1.299   4.213
 4434TIP3    H213309   3.860   1.169   4.183
 4435TIP3   OH213310   1.294   5.608   1.769
 4435TIP3    H113311   1.262   5.623   1.858
 4435TIP3    H213312   1.219   5.574   1.721
 4436TIP3   OH213313   0.295   3.095   0.269
 4436TIP3    H113314   0.205   3.063   0.259
 4436TIP3    H213315   0.309   3.150   0.192
 4437TIP3   OH213316   0.825   3.876   3.213
 4437TIP3    H113317   0.915   3.885   3.180
 4437TIP3    H213318   0.819   3.941   3.283
 4438TIP3   OH213319   1.667   4.972   1.821
 4438TIP3    H113320   1.606   4.901   1.801
 4438TIP3    H213321   1.613   5.051   1.820
 4439TIP3   OH213322   5.894   2.987   1.197
 4439TIP3    H113323   5.865   3.042   1.124
 4439TIP3    H213324   5.814   2.967   1.245
 4440TIP3   OH213325   1.753   4.390   2.500
 4440TIP3    H113326   1.762   4.477   2.460
 4440TIP3    H213327   1.682   4.401   2.564
 4441TIP3   OH213328   3.077   3.706   2.519
 4441TIP3    H113329   3.048   3.664   2.600
 4441TIP3    H213330   3.070   3.637   2.453
 4442TIP3   OH213331   3.207   0.920   1.362
 4442TIP3    H113332   3.220   0.828   1.341
 4442TIP3    H213333   3.266   0.966   1.301
 4443TIP3   OH213334   0.567   4.129   4.011
 4443TIP3    H113335   0.623   4.179   4.070
 4443TIP3    H213336   0.506   4.083   4.069
 4444TIP3   OH213337   4.039   3.274   4.064
 4444TIP3    H113338   3.972   3.239   4.005
 4444TIP3    H213339   3.991   3.332   4.123
 4445TIP3   OH213340   4.643   0.400   4.854
 4445TIP3    H113341   4.553   0.420   4.877
 4445TIP3    H213342   4.682   0.369   4.936
 4446TIP3   OH213343  -0.048   2.590   0.347
 4446TIP3    H113344   0.012   2.665   0.345
 4446TIP3    H213345  -0.001   2.523   0.397
 4447TIP3   OH213346   3.942   0.562   0.978
 4447TIP3    H113347   3.898   0.622   0.918
 4447TIP3    H213348   4.035   0.585   0.972
 4448TIP3   OH213349   1.881   2.906   1.520
 4448TIP3    H113350   1.847   2.941   1.603
 4448TIP3    H213351   1.924   2.824   1.545
 4449TIP3   OH213352   3.315   5.839   4.127
 4449TIP3    H113353   3.392   5.855   4.073
 4449TIP3    H213354   3.287   5.750   4.104
 4450TIP3   OH213355   0.069   2.816   4.344
 4450TIP3    H113356   0.059   2.800   4.437
 4450TIP3    H213357   0.054   2.910   4.334
 4451TIP3   OH213358   0.694   4.721   2.936
 4451TIP3    H113359   0.624   4.778   2.905
 4451TIP3    H213360   0.770   4.779   2.943
 4452TIP3   OH213361   1.625   2.946   4.525
 4452TIP3    H113362   1.690   2.940   4.595
 4452TIP3    H213363   1.553   2.890   4.554
 4453TIP3   OH213364   3.860   4.369   0.484
 4453TIP3    H113365   3.780   4.320   0.502
 4453TIP3    H213366   3.930   4.312   0.515
 4454TIP3   OH213367   5.351   5.489   2.988
 4454TIP3    H113368   5.397   5.413   3.026
 4454TIP3    H213369   5.411   5.562   3.003
 4455TIP3   OH213370   5.756   1.417   3.905
 4455TIP3    H113371   5.765   1.373   3.989
 4455TIP3    H213372   5.844   1.416   3.868
 4456TIP3   OH213373   6.085   5.951   0.837
 4456TIP3    H113374   6.043   5.911   0.761
 4456TIP3    H213375   6.104   5.877   0.895
 4457TIP3   OH213376   5.579   0.560   1.355
 4457TIP3    H113377   5.567   0.551   1.260
 4457TIP3    H213378   5.598   0.472   1.385
 4458TIP3   OH213379   1.323   5.390   2.399
 4458TIP3    H113380   1.393   5.386   2.334
 4458TIP3    H213381   1.320   5.302   2.437
 4459TIP3   OH213382   3.572   5.026   2.845
 4459TIP3    H113383   3.540   5.114   2.866
 4459TIP3    H213384   3.661   5.024   2.881
 4460TIP3   OH213385   5.024   0.207   1.881
 4460TIP3    H113386   4.928   0.218   1.883
 4460TIP3    H213387   5.038   0.117   1.909
 4461TIP3   OH213388   6.156   1.107   0.167
 4461TIP3    H113389   6.137   1.041   0.101
 4461TIP3    H213390   6.252   1.114   0.168
 4462TIP3   OH213391   0.363   4.742   0.432
 4462TIP3    H113392   0.287   4.799   0.419
 4462TIP3    H213393   0.384   4.751   0.525
 4463TIP3   OH213394   1.197   4.756   2.738
 4463TIP3    H113395   1.286   4.792   2.744
 4463TIP3    H213396   1.176   4.728   2.827
 4464TIP3   OH213397   4.259   4.246   4.585
 4464TIP3    H113398   4.281   4.155   4.607
 4464TIP3    H213399   4.224   4.241   4.496
 4465TIP3   OH213400   1.925   3.557   0.293
 4465TIP3    H113401   1.921   3.618   0.367
 4465TIP3    H213402   2.000   3.587   0.242
 4466TIP3   OH213403   2.442   5.673   4.842
 4466TIP3    H113404   2.508   5.706   4.781
 4466TIP3    H213405   2.441   5.738   4.913
 4467TIP3   OH213406   3.569   4.030   0.384
 4467TIP3    H113407   3.476   4.034   0.362
 4467TIP3    H213408   3.582   3.943   0.422
 4468TIP3   OH213409   4.164   2.218   0.868
 4468TIP3    H113410   4.234   2.213   0.802
 4468TIP3    H213411   4.209   2.244   0.948
 4469TIP3   OH213412   6.269   5.707   3.706
 4469TIP3    H113413   6.329   5.701   3.632
 4469TIP3    H213414   6.200   5.767   3.676
 4470TIP3   OH213415   1.098   5.910   5.043
 4470TIP3    H113416   1.176   5.915   4.988
 4470TIP3    H213417   1.088   5.817   5.062
 4471TIP3   OH213418   2.031   4.123   3.933
 4471TIP3    H113419   2.002   4.159   3.849
 4471TIP3    H213420   2.060   4.034   3.913
 4472TIP3   OH213421   0.746   3.503   2.281
 4472TIP3    H113422   0.750   3.412   2.250
 4472TIP3    H213423   0.689   3.547   2.219
 4473TIP3   OH213424   1.888   3.750   0.478
 4473TIP3    H113425   1.828   3.819   0.508
 4473TIP3    H213426   1.966   3.761   0.531
 4474TIP3   OH213427   2.258   4.369   3.058
 4474TIP3    H113428   2.333   4.309   3.066
 4474TIP3    H213429   2.184   4.312   3.038
 4475TIP3   OH213430   4.514   1.193   3.724
 4475TIP3    H113431   4.593   1.140   3.715
 4475TIP3    H213432   4.508   1.241   3.642
 4476TIP3   OH213433   4.113   2.773   1.663
 4476TIP3    H113434   4.204   2.801   1.666
 4476TIP3    H213435   4.095   2.738   1.750
 4477TIP3   OH213436   1.023   3.995   0.943
 4477TIP3    H113437   1.097   3.977   1.002
 4477TIP3    H213438   1.045   4.080   0.903
 4478TIP3   OH213439   2.841   2.315   1.345
 4478TIP3    H113440   2.833   2.410   1.337
 4478TIP3    H213441   2.756   2.281   1.317
 4479TIP3   OH213442   0.260   2.019   0.091
 4479TIP3    H113443   0.351   1.994   0.076
 4479TIP3    H213444   0.263   2.113   0.108
 4480TIP3   OH213445   1.322   2.218   4.442
 4480TIP3    H113446   1.374   2.298   4.431
 4480TIP3    H213447   1.314   2.208   4.537
 4481TIP3   OH213448   2.649   0.815   3.615
 4481TIP3    H113449   2.628   0.791   3.705
 4481TIP3    H213450   2.613   0.903   3.604
 4482TIP3   OH213451   3.942   2.379   0.804
 4482TIP3    H113452   3.976   2.464   0.832
 4482TIP3    H213453   4.014   2.318   0.818
 4483TIP3   OH213454   4.184   3.038   1.741
 4483TIP3    H113455   4.273   3.004   1.731
 4483TIP3    H213456   4.128   2.973   1.698
 4484TIP3   OH213457   5.009   3.254   4.274
 4484TIP3    H113458   4.943   3.299   4.221
 4484TIP3    H213459   4.969   3.244   4.360
 4485TIP3   OH213460   5.256   4.879   2.371
 4485TIP3    H113461   5.341   4.919   2.392
 4485TIP3    H213462   5.251   4.802   2.428
 4486TIP3   OH213463   4.627   3.454   4.574
 4486TIP3    H113464   4.647   3.368   4.611
 4486TIP3    H213465   4.554   3.438   4.514
 4487TIP3   OH213466   4.339   1.741   2.248
 4487TIP3    H113467   4.243   1.745   2.251
 4487TIP3    H213468   4.358   1.677   2.179
 4488TIP3   OH213469   5.152   4.556   3.747
 4488TIP3    H113470   5.158   4.593   3.659
 4488TIP3    H213471   5.117   4.627   3.801
 4489TIP3   OH213472   6.164   4.748   0.525
 4489TIP3    H113473   6.073   4.744   0.555
 4489TIP3    H213474   6.202   4.822   0.571
 4490TIP3   OH213475   1.205   2.232   4.953
 4490TIP3    H113476   1.195   2.148   5.000
 4490TIP3    H213477   1.116   2.261   4.936
 4491TIP3   OH213478   3.015   3.786   0.597
 4491TIP3    H113479   3.027   3.697   0.564
 4491TIP3    H213480   3.048   3.843   0.527
 4492TIP3   OH213481   1.625   0.820   0.329
 4492TIP3    H113482   1.694   0.801   0.265
 4492TIP3    H213483   1.657   0.896   0.377
 4493TIP3   OH213484   2.407   1.572   2.920
 4493TIP3    H113485   2.496   1.560   2.887
 4493TIP3    H213486   2.418   1.628   2.997
 4494TIP3   OH213487   3.388   2.180   4.456
 4494TIP3    H113488   3.360   2.115   4.392
 4494TIP3    H213489   3.308   2.204   4.503
 4495TIP3   OH213490   3.410   0.040   2.264
 4495TIP3    H113491   3.341   0.035   2.329
 4495TIP3    H213492   3.365   0.029   2.180
 4496TIP3   OH213493   4.229   0.498   0.882
 4496TIP3    H113494   4.194   0.556   0.815
 4496TIP3    H213495   4.188   0.413   0.865
 4497TIP3   OH213496   2.555   5.176   1.951
 4497TIP3    H113497   2.552   5.157   1.857
 4497TIP3    H213498   2.629   5.236   1.960
 4498TIP3   OH213499   0.752   4.436   2.779
 4498TIP3    H113500   0.686   4.502   2.755
 4498TIP3    H213501   0.730   4.412   2.869
 4499TIP3   OH213502   0.513   4.235   4.504
 4499TIP3    H113503   0.563   4.160   4.535
 4499TIP3    H213504   0.556   4.261   4.422
 4500TIP3   OH213505   0.673   1.110   0.905
 4500TIP3    H113506   0.756   1.113   0.858
 4500TIP3    H213507   0.694   1.069   0.989
 4501TIP3   OH213508   2.268   2.978   1.374
 4501TIP3    H113509   2.259   2.886   1.398
 4501TIP3    H213510   2.180   3.014   1.380
 4502TIP3   OH213511   3.181   4.385   5.133
 4502TIP3    H113512   3.200   4.353   5.044
 4502TIP3    H213513   3.117   4.322   5.167
 4503TIP3   OH213514   5.870   0.957   1.383
 4503TIP3    H113515   5.804   0.888   1.384
 4503TIP3    H213516   5.863   0.999   1.469
 4504TIP3   OH213517   4.621   0.283   0.877
 4504TIP3    H113518   4.624   0.292   0.973
 4504TIP3    H213519   4.591   0.368   0.846
 4505TIP3   OH213520   1.056   5.394   1.968
 4505TIP3    H113521   1.024   5.477   1.933
 4505TIP3    H213522   1.062   5.336   1.893
 4506TIP3   OH213523   6.153   4.162   0.163
 4506TIP3    H113524   6.216   4.158   0.092
 4506TIP3    H213525   6.130   4.070   0.179
 4507TIP3   OH213526   0.347   4.523   2.990
 4507TIP3    H113527   0.294   4.559   2.918
 4507TIP3    H213528   0.354   4.430   2.971
 4508TIP3   OH213529   3.879   1.448   4.819
 4508TIP3    H113530   3.786   1.469   4.819
 4508TIP3    H213531   3.923   1.531   4.838
 4509TIP3   OH213532   4.073   0.957   1.066
 4509TIP3    H113533   4.086   1.036   1.014
 4509TIP3    H213534   4.001   0.979   1.126
 4510TIP3   OH213535   2.536   4.092   2.833
 4510TIP3    H113536   2.475   4.143   2.780
 4510TIP3    H213537   2.623   4.116   2.801
 4511TIP3   OH213538   0.214   1.482   4.918
 4511TIP3    H113539   0.198   1.528   5.001
 4511TIP3    H213540   0.130   1.440   4.898
 4512TIP3   OH213541   5.594   4.722   4.110
 4512TIP3    H113542   5.617   4.813   4.129
 4512TIP3    H213543   5.674   4.672   4.127
 4513TIP3   OH213544   2.261   2.688   0.754
 4513TIP3    H113545   2.248   2.615   0.814
 4513TIP3    H213546   2.267   2.647   0.667
 4514TIP3   OH213547   5.125   5.462   3.501
 4514TIP3    H113548   5.173   5.538   3.535
 4514TIP3    H213549   5.038   5.469   3.541
 4515TIP3   OH213550   1.052   1.980   2.018
 4515TIP3    H113551   1.123   1.949   1.961
 4515TIP3    H213552   1.016   1.901   2.057
 4516TIP3   OH213553   3.684   3.560   3.075
 4516TIP3    H113554   3.730   3.508   3.009
 4516TIP3    H213555   3.603   3.588   3.032
 4517TIP3   OH213556   5.181   3.255   2.891
 4517TIP3    H113557   5.180   3.349   2.906
 4517TIP3    H213558   5.097   3.224   2.924
 4518TIP3   OH213559   4.933   5.631   4.285
 4518TIP3    H113560   4.844   5.597   4.271
 4518TIP3    H213561   4.950   5.683   4.206
 4519TIP3   OH213562   4.779   4.850   4.648
 4519TIP3    H113563   4.796   4.779   4.586
 4519TIP3    H213564   4.701   4.893   4.614
 4520TIP3   OH213565   3.886   5.231   1.113
 4520TIP3    H113566   3.830   5.187   1.050
 4520TIP3    H213567   3.972   5.189   1.102
 4521TIP3   OH213568   4.441   0.737   1.219
 4521TIP3    H113569   4.536   0.739   1.231
 4521TIP3    H213570   4.411   0.823   1.250
 4522TIP3   OH213571   4.830   0.544   3.285
 4522TIP3    H113572   4.840   0.556   3.379
 4522TIP3    H213573   4.885   0.468   3.265
 4523TIP3   OH213574   4.618   1.276   1.493
 4523TIP3    H113575   4.656   1.307   1.411
 4523TIP3    H213576   4.654   1.188   1.505
 4524TIP3   OH213577   3.408   4.082   0.682
 4524TIP3    H113578   3.385   4.001   0.726
 4524TIP3    H213579   3.324   4.122   0.659
 4525TIP3   OH213580   0.924   5.895   0.384
 4525TIP3    H113581   0.863   5.955   0.426
 4525TIP3    H213582   0.869   5.823   0.352
 4526TIP3   OH213583   2.175   5.362   4.975
 4526TIP3    H113584   2.107   5.378   4.910
 4526TIP3    H213585   2.137   5.297   5.034
 4527TIP3   OH213586   2.940   1.982   5.082
 4527TIP3    H113587   2.962   1.961   4.992
 4527TIP3    H213588   2.938   1.897   5.127
 4528TIP3   OH213589   5.545   3.290   4.677
 4528TIP3    H113590   5.581   3.300   4.589
 4528TIP3    H213591   5.539   3.195   4.689
 4529TIP3   OH213592   1.791   5.603   0.307
 4529TIP3    H113593   1.717   5.543   0.304
 4529TIP3    H213594   1.867   5.547   0.321
 4530TIP3   OH213595   2.442   2.102   4.861
 4530TIP3    H113596   2.493   2.049   4.800
 4530TIP3    H213597   2.437   2.188   4.819
 4531TIP3   OH213598   3.655   0.729   5.191
 4531TIP3    H113599   3.733   0.683   5.162
 4531TIP3    H213600   3.585   0.695   5.135
 4532TIP3   OH213601   5.298   4.621   2.746
 4532TIP3    H113602   5.273   4.597   2.836
 4532TIP3    H213603   5.371   4.682   2.757
 4533TIP3   OH213604   0.954   0.102   4.698
 4533TIP3    H113605   0.978   0.106   4.790
 4533TIP3    H213606   1.034   0.126   4.651
 4534TIP3   OH213607   2.876   1.369   4.139
 4534TIP3    H113608   2.816   1.301   4.169
 4534TIP3    H213609   2.823   1.426   4.083
 4535TIP3   OH213610   2.763   2.533   4.088
 4535TIP3    H113611   2.751   2.593   4.014
 4535TIP3    H213612   2.837   2.569   4.136
 4536TIP3   OH213613   1.843   1.106   1.293
 4536TIP3    H113614   1.932   1.074   1.278
 4536TIP3    H213615   1.836   1.184   1.237
 4537TIP3   OH213616   5.533   5.824   1.687
 4537TIP3    H113617   5.494   5.745   1.725
 4537TIP3    H213618   5.459   5.882   1.671
 4538TIP3   OH213619   2.284   4.994   0.471
 4538TIP3    H113620   2.225   5.030   0.538
 4538TIP3    H213621   2.371   5.000   0.510
 4539TIP3   OH213622   3.872   1.748   1.198
 4539TIP3    H113623   3.942   1.774   1.137
 4539TIP3    H213624   3.897   1.660   1.227
 4540TIP3   OH213625   1.236   5.317   1.081
 4540TIP3    H113626   1.240   5.346   1.172
 4540TIP3    H213627   1.189   5.387   1.036
 4541TIP3   OH213628   6.032   4.074   4.861
 4541TIP3    H113629   5.990   4.151   4.899
 4541TIP3    H213630   6.031   4.089   4.767
 4542TIP3   OH213631   0.323   5.573   3.728
 4542TIP3    H113632   0.266   5.565   3.652
 4542TIP3    H213633   0.349   5.483   3.748
 4543TIP3   OH213634   2.764   4.412   3.383
 4543TIP3    H113635   2.674   4.399   3.412
 4543TIP3    H213636   2.765   4.501   3.346
 4544TIP3   OH213637   4.770   0.486   2.109
 4544TIP3    H113638   4.858   0.450   2.119
 4544TIP3    H213639   4.718   0.412   2.077
 4545TIP3   OH213640   4.643   4.453   2.132
 4545TIP3    H113641   4.718   4.508   2.110
 4545TIP3    H213642   4.614   4.484   2.218
 4546TIP3   OH213643   1.547   0.125   4.708
 4546TIP3    H113644   1.509   0.190   4.649
 4546TIP3    H213645   1.531   0.041   4.666
 4547TIP3   OH213646   2.585   1.190   3.888
 4547TIP3    H113647   2.639   1.259   3.850
 4547TIP3    H213648   2.647   1.133   3.933
 4548TIP3   OH213649   3.728   0.018   2.905
 4548TIP3    H113650   3.770  -0.019   2.828
 4548TIP3    H213651   3.713   0.110   2.882
 4549TIP3   OH213652   3.179   3.571   2.093
 4549TIP3    H113653   3.251   3.582   2.030
 4549TIP3    H213654   3.222   3.566   2.178
 4550TIP3   OH213655   4.000   2.024   4.133
 4550TIP3    H113656   3.935   1.977   4.185
 4550TIP3    H213657   3.977   2.116   4.143
 4551TIP3   OH213658   4.243   5.930   1.827
 4551TIP3    H113659   4.204   5.842   1.826
 4551TIP3    H213660   4.290   5.935   1.744
 4552TIP3   OH213661   6.163   0.125   0.346
 4552TIP3    H113662   6.118   0.045   0.318
 4552TIP3    H213663   6.205   0.101   0.429
 4553TIP3   OH213664   5.002   1.302   2.634
 4553TIP3    H113665   4.961   1.376   2.680
 4553TIP3    H213666   4.947   1.227   2.655
 4554TIP3   OH213667   5.993   4.305   2.060
 4554TIP3    H113668   6.087   4.307   2.077
 4554TIP3    H213669   5.959   4.383   2.104
 4555TIP3   OH213670   4.671   2.501   1.173
 4555TIP3    H113671   4.704   2.443   1.105
 4555TIP3    H213672   4.584   2.526   1.143
 4556TIP3   OH213673   5.563   4.743   0.441
 4556TIP3    H113674   5.524   4.677   0.382
 4556TIP3    H213675   5.572   4.821   0.386
 4557TIP3   OH213676   0.711   0.123   0.198
 4557TIP3    H113677   0.697   0.029   0.202
 4557TIP3    H213678   0.626   0.161   0.221
 4558TIP3   OH213679   4.693   3.595   2.635
 4558TIP3    H113680   4.715   3.519   2.580
 4558TIP3    H213681   4.603   3.616   2.612
 4559TIP3   OH213682   2.351   4.749   1.561
 4559TIP3    H113683   2.411   4.824   1.564
 4559TIP3    H213684   2.265   4.788   1.550
 4560TIP3   OH213685   1.271   5.980   2.829
 4560TIP3    H113686   1.359   5.943   2.820
 4560TIP3    H213687   1.274   6.061   2.779
 4561TIP3   OH213688   0.000   1.020   3.869
 4561TIP3    H113689   0.008   0.931   3.835
 4561TIP3    H213690   0.087   1.059   3.858
 4562TIP3   OH213691   3.652   0.870   1.805
 4562TIP3    H113692   3.613   0.952   1.773
 4562TIP3    H213693   3.738   0.866   1.763
 4563TIP3   OH213694   2.045   4.939   4.292
 4563TIP3    H113695   2.105   5.008   4.322
 4563TIP3    H213696   2.044   4.875   4.363
 4564TIP3   OH213697   4.216   4.083   2.569
 4564TIP3    H113698   4.250   4.034   2.643
 4564TIP3    H213699   4.224   4.175   2.595
 4565TIP3   OH213700   4.350   1.308   0.903
 4565TIP3    H113701   4.321   1.378   0.962
 4565TIP3    H213702   4.435   1.338   0.870
 4566TIP3   OH213703   0.087   2.133   3.380
 4566TIP3    H113704   0.061   2.042   3.364
 4566TIP3    H213705   0.134   2.129   3.463
 4567TIP3   OH213706   3.593   3.502   1.810
 4567TIP3    H113707   3.556   3.507   1.898
 4567TIP3    H213708   3.521   3.528   1.752
 4568TIP3   OH213709   0.118   0.835   1.999
 4568TIP3    H113710   0.023   0.846   2.003
 4568TIP3    H213711   0.151   0.902   2.058
 4569TIP3   OH213712   3.591   3.771   0.464
 4569TIP3    H113713   3.509   3.740   0.504
 4569TIP3    H213714   3.641   3.691   0.447
 4570TIP3   OH213715   2.933   0.381   4.701
 4570TIP3    H113716   2.941   0.293   4.738
 4570TIP3    H213717   2.882   0.429   4.766
 4571TIP3   OH213718   2.848   1.401   1.395
 4571TIP3    H113719   2.896   1.405   1.313
 4571TIP3    H213720   2.756   1.415   1.370
 4572TIP3   OH213721   4.536   5.826   2.455
 4572TIP3    H113722   4.574   5.758   2.511
 4572TIP3    H213723   4.594   5.901   2.466
 4573TIP3   OH213724   6.324   2.584   3.775
 4573TIP3    H113725   6.254   2.630   3.822
 4573TIP3    H213726   6.348   2.642   3.703
 4574TIP3   OH213727   5.349   3.481   2.219
 4574TIP3    H113728   5.359   3.386   2.227
 4574TIP3    H213729   5.326   3.494   2.127
 4575TIP3   OH213730   4.412   0.252   1.420
 4575TIP3    H113731   4.322   0.268   1.449
 4575TIP3    H213732   4.461   0.329   1.450
 4576TIP3   OH213733   4.095   5.522   2.078
 4576TIP3    H113734   4.021   5.474   2.113
 4576TIP3    H213735   4.078   5.613   2.101
 4577TIP3   OH213736   3.365   2.551   4.675
 4577TIP3    H113737   3.307   2.476   4.680
 4577TIP3    H213738   3.413   2.550   4.758
 4578TIP3   OH213739   0.193   3.317   2.614
 4578TIP3    H113740   0.178   3.283   2.525
 4578TIP3    H213741   0.207   3.239   2.667
 4579TIP3   OH213742   2.267   5.180   4.140
 4579TIP3    H113743   2.313   5.141   4.214
 4579TIP3    H213744   2.240   5.267   4.170
 4580TIP3   OH213745   3.842   0.936   4.466
 4580TIP3    H113746   3.913   0.996   4.446
 4580TIP3    H213747   3.809   0.966   4.551
 4581TIP3   OH213748   0.390   1.432   3.876
 4581TIP3    H113749   0.453   1.362   3.859
 4581TIP3    H213750   0.374   1.428   3.970
 4582TIP3   OH213751   6.084   4.982   2.102
 4582TIP3    H113752   6.111   5.070   2.077
 4582TIP3    H213753   6.000   4.969   2.057
 4583TIP3   OH213754   1.127   3.773   3.718
 4583TIP3    H113755   1.133   3.807   3.628
 4583TIP3    H213756   1.033   3.765   3.734
 4584TIP3   OH213757   0.462   1.465   2.144
 4584TIP3    H113758   0.531   1.399   2.134
 4584TIP3    H213759   0.412   1.436   2.221
 4585TIP3   OH213760   3.509   2.023   1.172
 4585TIP3    H113761   3.554   1.987   1.096
 4585TIP3    H213762   3.494   1.948   1.229
 4586TIP3   OH213763   1.159   3.425   4.473
 4586TIP3    H113764   1.240   3.418   4.422
 4586TIP3    H213765   1.181   3.388   4.558
 4587TIP3   OH213766   5.035   1.696   1.908
 4587TIP3    H113767   4.955   1.748   1.913
 4587TIP3    H213768   5.105   1.758   1.926
 4588TIP3   OH213769   5.078   4.712   0.025
 4588TIP3    H113770   5.141   4.686   0.093
 4588TIP3    H213771   4.993   4.685   0.060
 4589TIP3   OH213772   4.293   2.101   2.483
 4589TIP3    H113773   4.234   2.029   2.506
 4589TIP3    H213774   4.246   2.180   2.513
 4590TIP3   OH213775   5.751   2.777   2.266
 4590TIP3    H113776   5.677   2.720   2.286
 4590TIP3    H213777   5.825   2.717   2.256
 4591TIP3   OH213778   2.491   0.759   5.117
 4591TIP3    H113779   2.423   0.775   5.052
 4591TIP3    H213780   2.500   0.664   5.120
 4592TIP3   OH213781   0.934   5.245   4.064
 4592TIP3    H113782   0.926   5.329   4.018
 4592TIP3    H213783   1.004   5.259   4.128
 4593TIP3   OH213784   4.154   0.294   3.308
 4593TIP3    H113785   4.246   0.319   3.298
 4593TIP3    H213786   4.115   0.311   3.222
 4594TIP3   OH213787   3.827   5.412   1.679
 4594TIP3    H113788   3.838   5.498   1.638
 4594TIP3    H213789   3.747   5.421   1.731
 4595TIP3   OH213790   2.314   0.870   2.825
 4595TIP3    H113791   2.329   0.962   2.801
 4595TIP3    H213792   2.375   0.821   2.770
 4596TIP3   OH213793   0.233   4.619   1.316
 4596TIP3    H113794   0.237   4.548   1.380
 4596TIP3    H213795   0.151   4.605   1.269
 4597TIP3   OH213796   3.752   1.727   2.495
 4597TIP3    H113797   3.664   1.762   2.481
 4597TIP3    H213798   3.803   1.801   2.527
 4598TIP3   OH213799   5.315   3.623   2.617
 4598TIP3    H113800   5.286   3.713   2.606
 4598TIP3    H213801   5.398   3.630   2.664
 4599TIP3   OH213802   1.699   5.609   1.265
 4599TIP3    H113803   1.788   5.642   1.250
 4599TIP3    H213804   1.705   5.515   1.248
 4600TIP3   OH213805   3.617   2.087   0.368
 4600TIP3    H113806   3.581   2.132   0.291
 4600TIP3    H213807   3.710   2.078   0.349
 4601TIP3   OH213808   6.253   3.451   0.740
 4601TIP3    H113809   6.335   3.485   0.703
 4601TIP3    H213810   6.264   3.356   0.742
 4602TIP3   OH213811   5.570   5.910   4.653
 4602TIP3    H113812   5.646   5.859   4.624
 4602TIP3    H213813   5.511   5.845   4.691
 4603TIP3   OH213814   1.583   4.049   2.086
 4603TIP3    H113815   1.641   4.067   2.012
 4603TIP3    H213816   1.541   4.133   2.105
 4604TIP3   OH213817   1.353   5.249   1.400
 4604TIP3    H113818   1.294   5.178   1.427
 4604TIP3    H213819   1.429   5.239   1.457
 4605TIP3   OH213820   4.147   5.090   4.871
 4605TIP3    H113821   4.131   5.083   4.776
 4605TIP3    H213822   4.197   5.171   4.881
 4606TIP3   OH213823   0.324   0.144   2.322
 4606TIP3    H113824   0.312   0.220   2.379
 4606TIP3    H213825   0.385   0.088   2.370
 4607TIP3   OH213826   6.332   3.489   1.891
 4607TIP3    H113827   6.420   3.469   1.861
 4607TIP3    H213828   6.329   3.459   1.982
 4608TIP3   OH213829   2.583   1.898   4.776
 4608TIP3    H113830   2.648   1.869   4.841
 4608TIP3    H213831   2.632   1.902   4.694
 4609TIP3   OH213832   1.309   0.369   4.927
 4609TIP3    H113833   1.239   0.402   4.870
 4609TIP3    H213834   1.264   0.332   5.002
 4610TIP3   OH213835   2.905   2.144   0.294
 4610TIP3    H113836   2.850   2.211   0.253
 4610TIP3    H213837   2.897   2.067   0.238
 4611TIP3   OH213838   1.262   1.785   1.925
 4611TIP3    H113839   1.183   1.733   1.939
 4611TIP3    H213840   1.324   1.723   1.885
 4612TIP3   OH213841   0.251   2.304   5.003
 4612TIP3    H113842   0.266   2.329   5.094
 4612TIP3    H213843   0.157   2.315   4.990
 4613TIP3   OH213844   6.268   4.185   1.010
 4613TIP3    H113845   6.227   4.223   1.087
 4613TIP3    H213846   6.238   4.094   1.009
 4614TIP3   OH213847   2.730   5.056   3.931
 4614TIP3    H113848   2.753   5.134   3.982
 4614TIP3    H213849   2.681   5.001   3.993
 4615TIP3   OH213850   1.787   3.524   1.529
 4615TIP3    H113851   1.841   3.574   1.591
 4615TIP3    H213852   1.733   3.590   1.485
 4616TIP3   OH213853   2.923   3.732   5.058
 4616TIP3    H113854   2.886   3.760   5.141
 4616TIP3    H213855   2.899   3.802   4.997
 4617TIP3   OH213856   4.209   1.483   4.464
 4617TIP3    H113857   4.225   1.420   4.534
 4617TIP3    H213858   4.291   1.531   4.456
 4618TIP3   OH213859   4.677   4.799   0.270
 4618TIP3    H113860   4.737   4.857   0.222
 4618TIP3    H213861   4.734   4.733   0.309
 4619TIP3   OH213862   2.062   1.274   2.073
 4619TIP3    H113863   2.052   1.180   2.084
 4619TIP3    H213864   1.982   1.302   2.027
 4620TIP3   OH213865   4.542   1.355   0.288
 4620TIP3    H113866   4.482   1.292   0.329
 4620TIP3    H213867   4.628   1.330   0.321
 4621TIP3   OH213868   3.845   5.309   0.307
 4621TIP3    H113869   3.911   5.305   0.238
 4621TIP3    H213870   3.762   5.293   0.263
 4622TIP3   OH213871   0.853   5.257   5.135
 4622TIP3    H113872   0.900   5.273   5.217
 4622TIP3    H213873   0.779   5.201   5.161
 4623TIP3   OH213874   3.666   5.376   4.125
 4623TIP3    H113875   3.755   5.345   4.111
 4623TIP3    H213876   3.677   5.460   4.171
 4624TIP3   OH213877   5.723   4.124   2.373
 4624TIP3    H113878   5.809   4.147   2.408
 4624TIP3    H213879   5.735   4.126   2.278
 4625TIP3   OH213880   3.337   5.572   1.768
 4625TIP3    H113881   3.304   5.644   1.821
 4625TIP3    H213882   3.310   5.594   1.679
 4626TIP3   OH213883   0.876   4.148   2.232
 4626TIP3    H113884   0.880   4.055   2.258
 4626TIP3    H213885   0.792   4.178   2.268
 4627TIP3   OH213886   5.418   2.209   2.061
 4627TIP3    H113887   5.331   2.217   2.023
 4627TIP3    H213888   5.403   2.191   2.154
 4628TIP3   OH213889   4.095   0.211   1.079
 4628TIP3    H113890   4.150   0.133   1.090
 4628TIP3    H213891   4.116   0.243   0.991
 4629TIP3   OH213892   2.875   4.325   1.427
 4629TIP3    H113893   2.917   4.398   1.474
 4629TIP3    H213894   2.913   4.247   1.465
 4630TIP3   OH213895   5.685   2.675   1.491
 4630TIP3    H113896   5.679   2.722   1.574
 4630TIP3    H213897   5.701   2.584   1.517
 4631TIP3   OH213898   4.370   3.371   0.680
 4631TIP3    H113899   4.383   3.302   0.745
 4631TIP3    H213900   4.418   3.341   0.603
 4632TIP3   OH213901   1.339   4.149   4.955
 4632TIP3    H113902   1.299   4.064   4.938
 4632TIP3    H213903   1.406   4.159   4.888
 4633TIP3   OH213904   3.509   3.350   5.006
 4633TIP3    H113905   3.572   3.279   5.019
 4633TIP3    H213906   3.537   3.419   5.066
 4634TIP3   OH213907   2.838   4.936   1.895
 4634TIP3    H113908   2.833   4.966   1.985
 4634TIP3    H213909   2.759   4.883   1.882
 4635TIP3   OH213910   3.783   0.167   4.761
 4635TIP3    H113911   3.755   0.081   4.791
 4635TIP3    H213912   3.784   0.221   4.840
 4636TIP3   OH213913   1.523   0.174   2.668
 4636TIP3    H113914   1.459   0.111   2.701
 4636TIP3    H213915   1.525   0.159   2.573
 4637TIP3   OH213916   2.893   0.476   3.630
 4637TIP3    H113917   2.804   0.443   3.617
 4637TIP3    H213918   2.943   0.438   3.558
 4638TIP3   OH213919   1.334   4.565   3.029
 4638TIP3    H113920   1.303   4.511   2.956
 4638TIP3    H213921   1.261   4.622   3.051
 4639TIP3   OH213922   2.623   4.331   0.091
 4639TIP3    H113923   2.541   4.282   0.100
 4639TIP3    H213924   2.636   4.339  -0.004
 4640TIP3   OH213925   5.923   1.924   3.043
 4640TIP3    H113926   5.945   1.851   3.101
 4640TIP3    H213927   5.870   1.884   2.974
 4641TIP3   OH213928   1.430   1.239   2.409
 4641TIP3    H113929   1.396   1.321   2.375
 4641TIP3    H213930   1.463   1.260   2.496
 4642TIP3   OH213931   5.772   3.666   3.940
 4642TIP3    H113932   5.848   3.714   3.972
 4642TIP3    H213933   5.700   3.729   3.945
 4643TIP3   OH213934   5.576   2.373   1.936
 4643TIP3    H113935   5.496   2.323   1.953
 4643TIP3    H213936   5.562   2.457   1.980
 4644TIP3   OH213937   2.985   0.381   4.012
 4644TIP3    H113938   3.067   0.391   4.060
 4644TIP3    H213939   3.003   0.312   3.949
 4645TIP3   OH213940   2.178   2.904   1.736
 4645TIP3    H113941   2.159   2.996   1.756
 4645TIP3    H213942   2.148   2.893   1.646
 4646TIP3   OH213943   3.334   2.551   1.467
 4646TIP3    H113944   3.376   2.549   1.553
 4646TIP3    H213945   3.346   2.641   1.436
 4647TIP3   OH213946   3.234   4.083   1.016
 4647TIP3    H113947   3.163   4.046   0.964
 4647TIP3    H213948   3.297   4.011   1.024
 4648TIP3   OH213949   1.457   3.483   3.285
 4648TIP3    H113950   1.498   3.449   3.365
 4648TIP3    H213951   1.365   3.494   3.308
 4649TIP3   OH213952   5.333   1.209   3.135
 4649TIP3    H113953   5.243   1.195   3.167
 4649TIP3    H213954   5.323   1.273   3.064
 4650TIP3   OH213955   4.237   1.922   4.312
 4650TIP3    H113956   4.162   1.973   4.280
 4650TIP3    H213957   4.202   1.874   4.387
 4651TIP3   OH213958   0.660   5.651   3.810
 4651TIP3    H113959   0.721   5.712   3.851
 4651TIP3    H213960   0.701   5.565   3.822
 4652TIP3   OH213961   0.248   2.430   0.759
 4652TIP3    H113962   0.285   2.345   0.735
 4652TIP3    H213963   0.154   2.413   0.769
 4653TIP3   OH213964   0.874   3.568   0.860
 4653TIP3    H113965   0.969   3.557   0.853
 4653TIP3    H213966   0.859   3.660   0.835
 4654TIP3   OH213967   3.067   1.031   4.100
 4654TIP3    H113968   3.084   1.045   4.193
 4654TIP3    H213969   3.049   0.937   4.092
 4655TIP3   OH213970   6.122   1.841   0.568
 4655TIP3    H113971   6.072   1.853   0.648
 4655TIP3    H213972   6.059   1.808   0.504
 4656TIP3   OH213973   2.382   1.132   2.765
 4656TIP3    H113974   2.345   1.215   2.797
 4656TIP3    H213975   2.463   1.122   2.814
 4657TIP3   OH213976   3.520   0.234   2.677
 4657TIP3    H113977   3.585   0.303   2.670
 4657TIP3    H213978   3.440   0.272   2.644
 4658TIP3   OH213979   4.935   3.151   2.986
 4658TIP3    H113980   4.916   3.082   3.049
 4658TIP3    H213981   4.876   3.223   3.011
 4659TIP3   OH213982   1.362   3.929   1.920
 4659TIP3    H113983   1.314   4.011   1.921
 4659TIP3    H213984   1.447   3.950   1.959
 4660TIP3   OH213985   3.900   0.477   2.543
 4660TIP3    H113986   3.948   0.543   2.493
 4660TIP3    H213987   3.855   0.425   2.477
 4661TIP3   OH213988   5.684   5.878   2.726
 4661TIP3    H113989   5.750   5.836   2.671
 4661TIP3    H213990   5.605   5.880   2.672
 4662TIP3   OH213991   1.761   4.708   4.425
 4662TIP3    H113992   1.802   4.623   4.410
 4662TIP3    H213993   1.755   4.747   4.337
 4663TIP3   OH213994   0.906   5.444   0.568
 4663TIP3    H113995   0.934   5.472   0.481
 4663TIP3    H213996   0.815   5.416   0.557
 4664TIP3   OH213997   1.525   5.087   4.096
 4664TIP3    H113998   1.455   5.049   4.150
 4664TIP3    H213999   1.588   5.122   4.160
 4665TIP3   OH214000   4.447   1.830   1.095
 4665TIP3    H114001   4.410   1.883   1.165
 4665TIP3    H214002   4.373   1.777   1.064
 4666TIP3   OH214003   4.605   0.508   0.721
 4666TIP3    H114004   4.565   0.579   0.672
 4666TIP3    H214005   4.698   0.515   0.702
 4667TIP3   OH214006   1.451   4.253   2.576
 4667TIP3    H114007   1.411   4.315   2.515
 4667TIP3    H214008   1.501   4.307   2.636
 4668TIP3   OH214009   5.235   1.507   3.754
 4668TIP3    H114010   5.317   1.460   3.744
 4668TIP3    H214011   5.221   1.513   3.849
 4669TIP3   OH214012   5.594   5.434   2.718
 4669TIP3    H114013   5.584   5.489   2.641
 4669TIP3    H214014   5.625   5.493   2.787
 4670TIP3   OH214015   0.401   0.925   0.495
 4670TIP3    H114016   0.307   0.912   0.478
 4670TIP3    H214017   0.403   0.989   0.566
 4671TIP3   OH214018   4.531   2.692   4.600
 4671TIP3    H114019   4.529   2.773   4.549
 4671TIP3    H214020   4.619   2.688   4.637
 4672TIP3   OH214021   4.728   5.710   4.686
 4672TIP3    H114022   4.734   5.669   4.773
 4672TIP3    H214023   4.758   5.642   4.626
 4673TIP3   OH214024   3.541   4.553   2.051
 4673TIP3    H114025   3.533   4.627   1.991
 4673TIP3    H214026   3.605   4.582   2.116
 4674TIP3   OH214027   4.633   5.794   3.347
 4674TIP3    H114028   4.563   5.859   3.341
 4674TIP3    H214029   4.704   5.832   3.294
 4675TIP3   OH214030   0.969   2.123   2.237
 4675TIP3    H114031   1.030   2.094   2.169
 4675TIP3    H214032   0.893   2.157   2.189
 4676TIP3   OH214033   2.983   2.415   2.023
 4676TIP3    H114034   3.032   2.453   2.096
 4676TIP3    H214035   2.999   2.321   2.029
 4677TIP3   OH214036   1.372   4.339   4.010
 4677TIP3    H114037   1.281   4.339   4.039
 4677TIP3    H214038   1.393   4.431   3.995
 4678TIP3   OH214039   5.493   0.091   0.787
 4678TIP3    H114040   5.565   0.029   0.793
 4678TIP3    H214041   5.531   0.168   0.745
 4679TIP3   OH214042   3.002   2.125   3.710
 4679TIP3    H114043   2.964   2.053   3.761
 4679TIP3    H214044   2.978   2.204   3.757
 4680TIP3   OH214045   1.001   0.497   4.205
 4680TIP3    H114046   0.990   0.584   4.167
 4680TIP3    H214047   0.927   0.488   4.264
 4681TIP3   OH214048   5.506   1.921   4.326
 4681TIP3    H114049   5.551   1.892   4.405
 4681TIP3    H214050   5.450   1.993   4.356
 4682TIP3   OH214051   3.273   1.522   0.469
 4682TIP3    H114052   3.303   1.588   0.407
 4682TIP3    H214053   3.351   1.496   0.517
 4683TIP3   OH214054   4.454   2.209   3.020
 4683TIP3    H114055   4.503   2.156   2.957
 4683TIP3    H214056   4.511   2.283   3.040
 4684TIP3   OH214057   2.515   1.030   2.030
 4684TIP3    H114058   2.433   1.020   1.982
 4684TIP3    H214059   2.537   1.123   2.021
 4685TIP3   OH214060   3.161   5.699   2.713
 4685TIP3    H114061   3.253   5.695   2.740
 4685TIP3    H214062   3.146   5.617   2.667
 4686TIP3   OH214063   6.275   3.673   2.115
 4686TIP3    H114064   6.257   3.579   2.118
 4686TIP3    H214065   6.370   3.680   2.126
 4687TIP3   OH214066   2.440   2.386   4.764
 4687TIP3    H114067   2.361   2.401   4.816
 4687TIP3    H214068   2.469   2.474   4.740
 4688TIP3   OH214069   0.210   2.953   4.588
 4688TIP3    H114070   0.273   2.928   4.655
 4688TIP3    H214071   0.142   2.885   4.593
 4689TIP3   OH214072   4.421   2.028   2.248
 4689TIP3    H114073   4.388   2.068   2.329
 4689TIP3    H214074   4.414   1.934   2.263
 4690TIP3   OH214075   0.531   1.713   2.058
 4690TIP3    H114076   0.506   1.624   2.081
 4690TIP3    H214077   0.454   1.766   2.076
 4691TIP3   OH214078   1.800   4.118   1.914
 4691TIP3    H114079   1.785   4.208   1.883
 4691TIP3    H214080   1.881   4.091   1.870
 4692TIP3   OH214081   0.854   5.675   2.459
 4692TIP3    H114082   0.861   5.649   2.367
 4692TIP3    H214083   0.825   5.766   2.457
 4693TIP3   OH214084   0.077   4.598   4.745
 4693TIP3    H114085   0.046   4.537   4.813
 4693TIP3    H214086   0.003   4.656   4.730
 4694TIP3   OH214087   4.873   3.098   3.397
 4694TIP3    H114088   4.786   3.058   3.394
 4694TIP3    H214089   4.914   3.072   3.315
 4695TIP3   OH214090   4.659   1.052   2.447
 4695TIP3    H114091   4.645   1.083   2.357
 4695TIP3    H214092   4.642   0.958   2.443
 4696TIP3   OH214093   4.137   4.645   0.802
 4696TIP3    H114094   4.051   4.649   0.759
 4696TIP3    H214095   4.182   4.724   0.773
 4697TIP3   OH214096   2.842   0.759   4.868
 4697TIP3    H114097   2.770   0.733   4.810
 4697TIP3    H214098   2.911   0.788   4.809
 4698TIP3   OH214099   4.595   3.864   4.120
 4698TIP3    H114100   4.648   3.817   4.184
 4698TIP3    H214101   4.512   3.881   4.164
 4699TIP3   OH214102   3.210   1.250   2.111
 4699TIP3    H114103   3.120   1.258   2.144
 4699TIP3    H214104   3.201   1.249   2.016
 4700TIP3   OH214105   5.798   2.925   4.305
 4700TIP3    H114106   5.775   2.975   4.384
 4700TIP3    H214107   5.763   2.978   4.233
 4701TIP3   OH214108   3.647   5.310   0.138
 4701TIP3    H114109   3.617   5.256   0.065
 4701TIP3    H214110   3.687   5.387   0.097
 4702TIP3   OH214111   5.880   2.857   3.670
 4702TIP3    H114112   5.903   2.865   3.763
 4702TIP3    H214113   5.962   2.830   3.628
 4703TIP3   OH214114   5.047   0.925   1.814
 4703TIP3    H114115   5.092   0.877   1.745
 4703TIP3    H214116   5.084   0.891   1.895
 4704TIP3   OH214117   0.930   4.646   3.958
 4704TIP3    H114118   1.011   4.653   4.009
 4704TIP3    H214119   0.903   4.737   3.944
 4705TIP3   OH214120   6.068   0.787   3.221
 4705TIP3    H114121   6.052   0.816   3.311
 4705TIP3    H214122   6.152   0.825   3.199
 4706TIP3   OH214123   5.296   0.663   2.188
 4706TIP3    H114124   5.296   0.708   2.104
 4706TIP3    H214125   5.244   0.719   2.246
 4707TIP3   OH214126   0.833   5.617   2.186
 4707TIP3    H114127   0.873   5.660   2.110
 4707TIP3    H214128   0.894   5.546   2.208
 4708TIP3   OH214129   0.813   0.277   2.554
 4708TIP3    H114130   0.895   0.325   2.540
 4708TIP3    H214131   0.756   0.305   2.483
 4709TIP3   OH214132   1.576   0.424   5.001
 4709TIP3    H114133   1.485   0.402   4.980
 4709TIP3    H214134   1.583   0.410   5.095
 4710TIP3   OH214135   4.653   5.643   3.569
 4710TIP3    H114136   4.631   5.569   3.513
 4710TIP3    H214137   4.628   5.720   3.518
 4711TIP3   OH214138   1.764   5.213   4.672
 4711TIP3    H114139   1.798   5.279   4.610
 4711TIP3    H214140   1.694   5.259   4.719
 4712TIP3   OH214141   0.455   3.650   3.528
 4712TIP3    H114142   0.369   3.689   3.543
 4712TIP3    H214143   0.507   3.721   3.490
 4713TIP3   OH214144   3.131   4.824   0.318
 4713TIP3    H114145   3.037   4.835   0.326
 4713TIP3    H214146   3.149   4.739   0.359
 4714TIP3   OH214147   0.269   5.767   2.118
 4714TIP3    H114148   0.283   5.830   2.189
 4714TIP3    H214149   0.352   5.766   2.070
 4715TIP3   OH214150   6.296   5.879   1.674
 4715TIP3    H114151   6.341   5.839   1.749
 4715TIP3    H214152   6.286   5.971   1.698
 4716TIP3   OH214153   5.264   1.822   5.059
 4716TIP3    H114154   5.222   1.783   4.982
 4716TIP3    H214155   5.212   1.900   5.078
 4717TIP3   OH214156   6.165   3.592   3.860
 4717TIP3    H114157   6.121   3.567   3.941
 4717TIP3    H214158   6.100   3.577   3.791
 4718TIP3   OH214159   5.589   0.910   1.778
 4718TIP3    H114160   5.635   0.937   1.698
 4718TIP3    H214161   5.522   0.978   1.791
 4719TIP3   OH214162   4.737   3.383   0.677
 4719TIP3    H114163   4.700   3.305   0.720
 4719TIP3    H214164   4.777   3.349   0.597
 4720TIP3   OH214165   0.148   2.483   4.552
 4720TIP3    H114166   0.109   2.464   4.467
 4720TIP3    H214167   0.167   2.397   4.589
 4721TIP3   OH214168   3.409   1.362   3.950
 4721TIP3    H114169   3.411   1.369   4.045
 4721TIP3    H214170   3.479   1.300   3.929
 4722TIP3   OH214171   6.273   2.773   1.199
 4722TIP3    H114172   6.206   2.765   1.267
 4722TIP3    H214173   6.229   2.817   1.126
 4723TIP3   OH214174   4.109   5.393   1.717
 4723TIP3    H114175   4.017   5.387   1.689
 4723TIP3    H214176   4.154   5.435   1.643
 4724TIP3   OH214177   1.555   3.286   3.470
 4724TIP3    H114178   1.590   3.273   3.558
 4724TIP3    H214179   1.484   3.222   3.462
 4725TIP3   OH214180   5.980   4.163   3.530
 4725TIP3    H114181   5.936   4.196   3.608
 4725TIP3    H214182   5.958   4.070   3.527
 4726TIP3   OH214183   3.915   5.707   3.949
 4726TIP3    H114184   3.853   5.700   4.021
 4726TIP3    H214185   3.983   5.643   3.969
 4727TIP3   OH214186   5.050   4.789   3.886
 4727TIP3    H114187   5.109   4.791   3.961
 4727TIP3    H214188   4.964   4.770   3.924
 4728TIP3   OH214189   6.036   5.138   3.010
 4728TIP3    H114190   6.089   5.162   3.086
 4728TIP3    H214191   6.016   5.045   3.023
 4729TIP3   OH214192   3.657   4.387   5.086
 4729TIP3    H114193   3.672   4.316   5.024
 4729TIP3    H214194   3.609   4.453   5.036
 4730TIP3   OH214195   3.321   2.529   0.368
 4730TIP3    H114196   3.259   2.559   0.433
 4730TIP3    H214197   3.364   2.609   0.337
 4731TIP3   OH214198   4.377   1.725   1.499
 4731TIP3    H114199   4.360   1.637   1.465
 4731TIP3    H214200   4.306   1.740   1.562
 4732TIP3   OH214201   1.615   5.278   1.545
 4732TIP3    H114202   1.580   5.350   1.599
 4732TIP3    H214203   1.710   5.289   1.549
 4733TIP3   OH214204   6.060   0.535   0.638
 4733TIP3    H114205   6.151   0.557   0.658
 4733TIP3    H214206   6.044   0.573   0.552
 4734TIP3   OH214207   0.654   3.934   4.241
 4734TIP3    H114208   0.628   3.982   4.320
 4734TIP3    H214209   0.721   3.873   4.271
 4735TIP3   OH214210   1.703   3.829   2.514
 4735TIP3    H114211   1.750   3.793   2.439
 4735TIP3    H214212   1.722   3.768   2.585
 4736TIP3   OH214213   1.557   3.344   2.477
 4736TIP3    H114214   1.573   3.411   2.410
 4736TIP3    H214215   1.478   3.298   2.448
 4737TIP3   OH214216   4.777   4.007   0.778
 4737TIP3    H114217   4.690   4.020   0.817
 4737TIP3    H214218   4.818   4.093   0.784
 4738TIP3   OH214219   4.470   2.459   1.923
 4738TIP3    H114220   4.418   2.397   1.974
 4738TIP3    H214221   4.470   2.423   1.834
 4739TIP3   OH214222   2.126   3.631   1.404
 4739TIP3    H114223   2.079   3.709   1.377
 4739TIP3    H214224   2.158   3.651   1.491
 4740TIP3   OH214225   5.850   5.261   4.126
 4740TIP3    H114226   5.847   5.166   4.136
 4740TIP3    H214227   5.796   5.279   4.048
 4741TIP3   OH214228   1.628   3.010   1.381
 4741TIP3    H114229   1.620   3.032   1.474
 4741TIP3    H214230   1.641   3.095   1.338
 4742TIP3   OH214231   1.297   2.941   1.183
 4742TIP3    H114232   1.230   3.009   1.190
 4742TIP3    H214233   1.364   2.965   1.247
 4743TIP3   OH214234   3.105   1.435   4.254
 4743TIP3    H114235   3.099   1.378   4.331
 4743TIP3    H214236   3.026   1.414   4.203
 4744TIP3   OH214237   5.106   2.403   5.039
 4744TIP3    H114238   5.081   2.337   5.104
 4744TIP3    H214239   5.164   2.355   4.978
 4745TIP3   OH214240   0.111   5.143   0.363
 4745TIP3    H114241   0.205   5.140   0.344
 4745TIP3    H214242   0.085   5.052   0.374
 4746TIP3   OH214243   0.652   2.565   1.283
 4746TIP3    H114244   0.647   2.535   1.192
 4746TIP3    H214245   0.613   2.494   1.333
 4747TIP3   OH214246   4.801   0.361   5.072
 4747TIP3    H114247   4.815   0.383   5.165
 4747TIP3    H214248   4.883   0.319   5.045
 4748TIP3   OH214249   5.683   4.859   3.731
 4748TIP3    H114250   5.690   4.911   3.811
 4748TIP3    H214251   5.619   4.906   3.678
 4749TIP3   OH214252   5.457   1.024   4.698
 4749TIP3    H114253   5.468   1.119   4.686
 4749TIP3    H214254   5.403   1.016   4.776
 4750TIP3   OH214255   4.350   5.490   4.601
 4750TIP3    H114256   4.254   5.492   4.597
 4750TIP3    H214257   4.377   5.575   4.566
 4751TIP3   OH214258   3.407   2.949   4.431
 4751TIP3    H114259   3.370   3.038   4.435
 4751TIP3    H214260   3.332   2.892   4.449
 4752TIP3   OH214261   1.439   5.940   1.003
 4752TIP3    H114262   1.427   5.849   1.030
 4752TIP3    H214263   1.533   5.949   0.989
 4753TIP3   OH214264   6.172   0.512   1.364
 4753TIP3    H114265   6.081   0.489   1.381
 4753TIP3    H214266   6.168   0.600   1.327
 4754TIP3   OH214267   2.212   0.998   2.278
 4754TIP3    H114268   2.131   0.994   2.227
 4754TIP3    H214269   2.188   1.049   2.356
 4755TIP3   OH214270   3.453   4.529   2.802
 4755TIP3    H114271   3.379   4.469   2.804
 4755TIP3    H214272   3.427   4.602   2.859
 4756TIP3   OH214273   2.348   0.748   3.843
 4756TIP3    H114274   2.336   0.824   3.785
 4756TIP3    H214275   2.273   0.692   3.824
 4757TIP3   OH214276   2.389   3.570   2.926
 4757TIP3    H114277   2.404   3.549   3.019
 4757TIP3    H214278   2.391   3.665   2.923
 4758TIP3   OH214279   1.328   5.688   3.549
 4758TIP3    H114280   1.415   5.699   3.511
 4758TIP3    H214281   1.269   5.729   3.486
 4759TIP3   OH214282   5.560   5.376   0.215
 4759TIP3    H114283   5.531   5.466   0.228
 4759TIP3    H214284   5.649   5.373   0.250
 4760TIP3   OH214285   4.465   5.343   4.351
 4760TIP3    H114286   4.454   5.361   4.444
 4760TIP3    H214287   4.466   5.430   4.310
 4761TIP3   OH214288   3.394   4.931   3.063
 4761TIP3    H114289   3.360   5.018   3.084
 4761TIP3    H214290   3.457   4.945   2.993
 4762TIP3   OH214291   0.397   5.681   1.320
 4762TIP3    H114292   0.307   5.681   1.353
 4762TIP3    H214293   0.387   5.658   1.228
 4763TIP3   OH214294   5.066   4.937   0.322
 4763TIP3    H114295   5.108   4.864   0.368
 4763TIP3    H214296   5.137   4.999   0.307
 4764TIP3   OH214297   4.178   1.948   1.949
 4764TIP3    H114298   4.273   1.940   1.939
 4764TIP3    H214299   4.152   2.011   1.882
 4765TIP3   OH214300   6.096   0.132   2.226
 4765TIP3    H114301   6.153   0.203   2.255
 4765TIP3    H214302   6.103   0.134   2.130
 4766TIP3   OH214303   3.567   3.432   4.340
 4766TIP3    H114304   3.483   3.474   4.358
 4766TIP3    H214305   3.580   3.372   4.414
 4767TIP3   OH214306   2.844   5.198   1.056
 4767TIP3    H114307   2.899   5.194   0.978
 4767TIP3    H214308   2.858   5.115   1.100
 4768TIP3   OH214309   5.867   6.006   1.343
 4768TIP3    H114310   5.901   5.930   1.297
 4768TIP3    H214311   5.940   6.068   1.346
 4769TIP3   OH214312   3.474   5.252   3.448
 4769TIP3    H114313   3.416   5.257   3.524
 4769TIP3    H214314   3.538   5.184   3.471
 4770TIP3   OH214315   5.966   0.649   2.587
 4770TIP3    H114316   5.889   0.694   2.552
 4770TIP3    H214317   5.964   0.667   2.681
 4771TIP3   OH214318   0.205   3.399   5.025
 4771TIP3    H114319   0.176   3.337   4.958
 4771TIP3    H214320   0.149   3.381   5.100
 4772TIP3   OH214321   0.310   2.786   1.280
 4772TIP3    H114322   0.250   2.858   1.299
 4772TIP3    H214323   0.395   2.818   1.311
 4773TIP3   OH214324   0.971   3.559   3.003
 4773TIP3    H114325   1.029   3.602   2.940
 4773TIP3    H214326   0.938   3.482   2.958
 4774TIP3   OH214327   4.038   2.491   4.953
 4774TIP3    H114328   3.959   2.439   4.968
 4774TIP3    H214329   4.049   2.492   4.858
 4775TIP3   OH214330   1.218   1.821   0.318
 4775TIP3    H114331   1.150   1.886   0.300
 4775TIP3    H214332   1.231   1.827   0.413
 4776TIP3   OH214333   5.451   3.209   0.040
 4776TIP3    H114334   5.507   3.240   0.110
 4776TIP3    H214335   5.449   3.114   0.051
 4777TIP3   OH214336   5.923   3.576   0.793
 4777TIP3    H114337   5.965   3.647   0.745
 4777TIP3    H214338   5.937   3.499   0.738
 4778TIP3   OH214339   0.851   4.482   4.335
 4778TIP3    H114340   0.795   4.554   4.363
 4778TIP3    H214341   0.940   4.516   4.345
 4779TIP3   OH214342   3.902   4.386   4.804
 4779TIP3    H114343   3.946   4.302   4.797
 4779TIP3    H214344   3.867   4.403   4.716
 4780TIP3   OH214345   2.505   4.131   4.460
 4780TIP3    H114346   2.422   4.097   4.494
 4780TIP3    H214347   2.486   4.152   4.369
 4781TIP3   OH214348   4.924   0.516   0.694
 4781TIP3    H114349   4.889   0.483   0.610
 4781TIP3    H214350   4.951   0.437   0.741
 4782TIP3   OH214351   0.205   3.013   4.064
 4782TIP3    H114352   0.191   2.919   4.065
 4782TIP3    H214353   0.229   3.035   4.154
 4783TIP3   OH214354   3.532   1.948   1.968
 4783TIP3    H114355   3.582   1.948   2.049
 4783TIP3    H214356   3.469   2.018   1.979
 4784TIP3   OH214357   3.786   4.154   4.304
 4784TIP3    H114358   3.697   4.139   4.336
 4784TIP3    H214359   3.775   4.221   4.236
 4785TIP3   OH214360   4.608   3.388   0.322
 4785TIP3    H114361   4.647   3.353   0.402
 4785TIP3    H214362   4.627   3.323   0.255
 4786TIP3   OH214363   1.397   4.021   4.543
 4786TIP3    H114364   1.471   4.046   4.487
 4786TIP3    H214365   1.435   4.014   4.631
 4787TIP3   OH214366   6.223   3.400   1.266
 4787TIP3    H114367   6.264   3.411   1.180
 4787TIP3    H214368   6.263   3.468   1.321
 4788TIP3   OH214369   6.284   2.284   4.618
 4788TIP3    H114370   6.244   2.327   4.543
 4788TIP3    H214371   6.365   2.246   4.584
 4789TIP3   OH214372   1.785   5.478   1.823
 4789TIP3    H114373   1.806   5.427   1.901
 4789TIP3    H214374   1.814   5.423   1.750
 4790TIP3   OH214375   1.748   3.570   2.658
 4790TIP3    H114376   1.803   3.524   2.722
 4790TIP3    H214377   1.725   3.502   2.594
 4791TIP3   OH214378   4.259   3.916   3.067
 4791TIP3    H114379   4.347   3.878   3.065
 4791TIP3    H214380   4.211   3.860   3.128
 4792TIP3   OH214381   4.521   2.818   2.189
 4792TIP3    H114382   4.556   2.849   2.106
 4792TIP3    H214383   4.597   2.790   2.240
 4793TIP3   OH214384   4.147   3.625   1.014
 4793TIP3    H114385   4.178   3.656   0.929
 4793TIP3    H214386   4.084   3.691   1.043
 4794TIP3   OH214387   0.091   5.581   2.800
 4794TIP3    H114388   0.013   5.544   2.843
 4794TIP3    H214389   0.140   5.622   2.871
 4795TIP3   OH214390   6.162   2.095   2.369
 4795TIP3    H114391   6.181   2.159   2.438
 4795TIP3    H214392   6.092   2.041   2.405
 4796TIP3   OH214393   4.962   5.772   1.604
 4796TIP3    H114394   4.944   5.732   1.689
 4796TIP3    H214395   4.974   5.865   1.622
 4797TIP3   OH214396   2.706   0.261   3.935
 4797TIP3    H114397   2.747   0.347   3.937
 4797TIP3    H214398   2.763   0.209   3.878
 4798TIP3   OH214399   0.719   2.267   1.143
 4798TIP3    H114400   0.707   2.345   1.089
 4798TIP3    H214401   0.688   2.293   1.230
 4799TIP3   OH214402   0.756   3.814   0.452
 4799TIP3    H114403   0.847   3.785   0.443
 4799TIP3    H214404   0.762   3.906   0.478
 4800TIP3   OH214405   3.951   0.390   2.189
 4800TIP3    H114406   3.862   0.392   2.224
 4800TIP3    H214407   4.006   0.367   2.264
 4801TIP3   OH214408   3.832   0.731   3.970
 4801TIP3    H114409   3.825   0.791   4.045
 4801TIP3    H214410   3.744   0.696   3.959
 4802TIP3   OH214411   0.683   0.089   1.394
 4802TIP3    H114412   0.687   0.184   1.383
 4802TIP3    H214413   0.714   0.074   1.483
 4803TIP3   OH214414   4.880   5.851   0.240
 4803TIP3    H114415   4.829   5.802   0.306
 4803TIP3    H214416   4.966   5.809   0.240
 4804TIP3   OH214417   6.191   3.607   4.561
 4804TIP3    H114418   6.215   3.605   4.654
 4804TIP3    H214419   6.181   3.515   4.537
 4805TIP3   OH214420   3.940   2.129   1.393
 4805TIP3    H114421   3.916   2.136   1.300
 4805TIP3    H214422   3.996   2.205   1.409
 4806TIP3   OH214423   1.738   5.291   0.835
 4806TIP3    H114424   1.792   5.235   0.890
 4806TIP3    H214425   1.741   5.377   0.878
 4807TIP3   OH214426   4.461   4.912   4.009
 4807TIP3    H114427   4.508   4.829   4.012
 4807TIP3    H214428   4.465   4.939   3.917
 4808TIP3   OH214429   4.247   2.801   0.841
 4808TIP3    H114430   4.292   2.729   0.796
 4808TIP3    H214431   4.296   2.812   0.923
 4809TIP3   OH214432   5.887  -0.020   2.344
 4809TIP3    H114433   5.952   0.045   2.314
 4809TIP3    H214434   5.842   0.024   2.417
 4810TIP3   OH214435   0.591   3.939   0.757
 4810TIP3    H114436   0.554   4.026   0.745
 4810TIP3    H214437   0.684   3.950   0.742
 4811TIP3   OH214438   1.842   0.784   2.483
 4811TIP3    H114439   1.767   0.818   2.433
 4811TIP3    H214440   1.808   0.706   2.527
 4812TIP3   OH214441   4.958   2.443   0.473
 4812TIP3    H114442   4.869   2.449   0.439
 4812TIP3    H214443   4.972   2.526   0.518
 4813TIP3   OH214444   0.242   4.665   1.638
 4813TIP3    H114445   0.150   4.656   1.612
 4813TIP3    H214446   0.248   4.617   1.721
 4814TIP3   OH214447   4.684   4.438   0.776
 4814TIP3    H114448   4.597   4.477   0.791
 4814TIP3    H214449   4.714   4.414   0.864
 4815TIP3   OH214450   5.490   2.870   1.786
 4815TIP3    H114451   5.518   2.789   1.829
 4815TIP3    H214452   5.571   2.912   1.759
 4816TIP3   OH214453   5.745   1.629   0.886
 4816TIP3    H114454   5.740   1.591   0.974
 4816TIP3    H214455   5.759   1.722   0.900
 4817TIP3   OH214456   5.424   3.606   0.891
 4817TIP3    H114457   5.380   3.675   0.941
 4817TIP3    H214458   5.361   3.534   0.889
 4818TIP3   OH214459   5.788   1.641   0.515
 4818TIP3    H114460   5.707   1.627   0.467
 4818TIP3    H214461   5.785   1.578   0.586
 4819TIP3   OH214462   4.286   5.818   3.479
 4819TIP3    H114463   4.299   5.897   3.427
 4819TIP3    H214464   4.302   5.746   3.419
 4820TIP3   OH214465   5.868   5.600   4.093
 4820TIP3    H114466   5.921   5.677   4.074
 4820TIP3    H214467   5.834   5.573   4.008
 4821TIP3   OH214468   1.406   3.809   4.888
 4821TIP3    H114469   1.460   3.812   4.967
 4821TIP3    H214470   1.468   3.786   4.818
 4822TIP3   OH214471   3.944   3.245   3.339
 4822TIP3    H114472   3.920   3.153   3.349
 4822TIP3    H214473   3.864   3.288   3.308
 4823TIP3   OH214474   4.352   2.899   1.091
 4823TIP3    H114475   4.257   2.898   1.086
 4823TIP3    H214476   4.377   2.990   1.080
 4824TIP3   OH214477   3.610   2.656   4.572
 4824TIP3    H114478   3.598   2.580   4.515
 4824TIP3    H214479   3.523   2.670   4.611
 4825TIP3   OH214480   4.752   4.278   0.378
 4825TIP3    H114481   4.835   4.290   0.331
 4825TIP3    H214482   4.717   4.197   0.342
 4826TIP3   OH214483   2.787   1.843   4.579
 4826TIP3    H114484   2.810   1.802   4.496
 4826TIP3    H214485   2.810   1.935   4.568
 4827TIP3   OH214486   4.727   5.037   1.182
 4827TIP3    H114487   4.653   5.056   1.126
 4827TIP3    H214488   4.689   4.994   1.259
 4828TIP3   OH214489   4.155   1.562   3.568
 4828TIP3    H114490   4.191   1.527   3.649
 4828TIP3    H214491   4.061   1.547   3.575
 4829TIP3   OH214492   1.392   0.726   2.937
 4829TIP3    H114493   1.306   0.767   2.929
 4829TIP3    H214494   1.375   0.632   2.936
 4830TIP3   OH214495   3.919   3.377   3.051
 4830TIP3    H114496   3.949   3.432   3.123
 4830TIP3    H214497   3.847   3.326   3.087
 4831TIP3   OH214498   4.132   0.115   2.783
 4831TIP3    H114499   4.079   0.076   2.852
 4831TIP3    H214500   4.175   0.189   2.825
 4832TIP3   OH214501   0.514   5.225   4.924
 4832TIP3    H114502   0.421   5.210   4.943
 4832TIP3    H214503   0.517   5.238   4.829
 4833TIP3   OH214504   4.054   5.586   0.851
 4833TIP3    H114505   4.054   5.518   0.784
 4833TIP3    H214506   4.025   5.542   0.931
 4834TIP3   OH214507   2.006   4.566   4.957
 4834TIP3    H114508   1.934   4.628   4.971
 4834TIP3    H214509   2.010   4.516   5.038
 4835TIP3   OH214510   1.918   5.416   0.657
 4835TIP3    H114511   1.850   5.482   0.664
 4835TIP3    H214512   1.885   5.341   0.706
 4836TIP3   OH214513   3.297   4.566   4.086
 4836TIP3    H114514   3.381   4.593   4.124
 4836TIP3    H214515   3.310   4.574   3.991
 4837TIP3   OH214516   5.828   4.182   0.448
 4837TIP3    H114517   5.786   4.126   0.382
 4837TIP3    H214518   5.880   4.121   0.501
 4838TIP3   OH214519   0.348   0.558   2.643
 4838TIP3    H114520   0.397   0.592   2.568
 4838TIP3    H214521   0.282   0.625   2.660
 4839TIP3   OH214522   4.668   3.464   1.035
 4839TIP3    H114523   4.727   3.474   1.110
 4839TIP3    H214524   4.673   3.371   1.014
 4840TIP3   OH214525   2.521   1.480   0.287
 4840TIP3    H114526   2.585   1.546   0.313
 4840TIP3    H214527   2.571   1.398   0.281
 4841TIP3   OH214528   0.476   3.892   3.891
 4841TIP3    H114529   0.529   3.925   3.964
 4841TIP3    H214530   0.453   3.970   3.841
 4842TIP3   OH214531   4.039   2.113   1.713
 4842TIP3    H114532   4.012   2.076   1.629
 4842TIP3    H214533   3.971   2.086   1.774
 4843TIP3   OH214534   1.130   4.683   4.117
 4843TIP3    H114535   1.121   4.748   4.187
 4843TIP3    H214536   1.121   4.599   4.161
 4844TIP3   OH214537   4.276   0.950   1.952
 4844TIP3    H114538   4.259   0.878   1.892
 4844TIP3    H214539   4.210   0.941   2.021
 4845TIP3   OH214540   5.659   4.568   2.713
 4845TIP3    H114541   5.621   4.654   2.695
 4845TIP3    H214542   5.684   4.534   2.627
 4846TIP3   OH214543   1.639   0.692   1.615
 4846TIP3    H114544   1.729   0.663   1.627
 4846TIP3    H214545   1.601   0.628   1.555
 4847TIP3   OH214546   0.397   0.439   4.559
 4847TIP3    H114547   0.378   0.346   4.546
 4847TIP3    H214548   0.485   0.451   4.523
 4848TIP3   OH214549   2.089   3.407   2.574
 4848TIP3    H114550   2.094   3.318   2.609
 4848TIP3    H214551   2.064   3.461   2.649
 4849TIP3   OH214552   0.622   4.210   2.316
 4849TIP3    H114553   0.662   4.268   2.381
 4849TIP3    H214554   0.533   4.195   2.349
 4850TIP3   OH214555   4.124   1.709   0.148
 4850TIP3    H114556   4.031   1.690   0.141
 4850TIP3    H214557   4.165   1.647   0.088
 4851TIP3   OH214558   2.945   1.375   2.165
 4851TIP3    H114559   2.851   1.360   2.168
 4851TIP3    H214560   2.955   1.470   2.163
 4852TIP3   OH214561   1.449   1.404   5.017
 4852TIP3    H114562   1.375   1.363   4.972
 4852TIP3    H214563   1.472   1.343   5.087
 4853TIP3   OH214564   5.760   5.286   3.122
 4853TIP3    H114565   5.794   5.328   3.044
 4853TIP3    H214566   5.785   5.345   3.194
 4854TIP3   OH214567   3.943   4.294   3.277
 4854TIP3    H114568   3.896   4.377   3.281
 4854TIP3    H214569   3.892   4.236   3.334
 4855TIP3   OH214570   4.019   5.858   3.564
 4855TIP3    H114571   4.008   5.942   3.608
 4855TIP3    H214572   4.113   5.847   3.556
 4856TIP3   OH214573   1.679   3.565   3.826
 4856TIP3    H114574   1.708   3.477   3.801
 4856TIP3    H214575   1.597   3.578   3.777
 4857TIP3   OH214576   3.136   5.592   4.119
 4857TIP3    H114577   3.068   5.612   4.055
 4857TIP3    H214578   3.160   5.501   4.101
 4858TIP3   OH214579   1.322   0.635   3.888
 4858TIP3    H114580   1.398   0.625   3.831
 4858TIP3    H214581   1.274   0.708   3.851
 4859TIP3   OH214582   0.753   4.099   0.454
 4859TIP3    H114583   0.846   4.098   0.475
 4859TIP3    H214584   0.748   4.139   0.367
 4860TIP3   OH214585   4.770   4.822   3.932
 4860TIP3    H114586   4.770   4.898   3.991
 4860TIP3    H214587   4.716   4.757   3.977
 4861TIP3   OH214588   5.851   0.636   4.172
 4861TIP3    H114589   5.794   0.703   4.135
 4861TIP3    H214590   5.800   0.556   4.167
 4862TIP3   OH214591   1.743   2.824   2.351
 4862TIP3    H114592   1.794   2.780   2.283
 4862TIP3    H214593   1.654   2.791   2.339
 4863TIP3   OH214594   2.046   0.932   1.121
 4863TIP3    H114595   2.125   0.897   1.080
 4863TIP3    H214596   1.981   0.862   1.113
 4864TIP3   OH214597   5.514   0.617   0.801
 4864TIP3    H114598   5.437   0.575   0.763
 4864TIP3    H214599   5.577   0.622   0.729
 4865TIP3   OH214600   1.652   4.091   1.587
 4865TIP3    H114601   1.658   4.009   1.637
 4865TIP3    H214602   1.559   4.112   1.586
 4866TIP3   OH214603   3.909   1.865   3.868
 4866TIP3    H114604   3.860   1.945   3.887
 4866TIP3    H214605   3.989   1.873   3.920
 4867TIP3   OH214606   3.781   4.293   0.122
 4867TIP3    H114607   3.732   4.227   0.073
 4867TIP3    H214608   3.863   4.250   0.145
 4868TIP3   OH214609   3.262   0.640   1.366
 4868TIP3    H114610   3.313   0.576   1.316
 4868TIP3    H214611   3.180   0.595   1.387
 4869TIP3   OH214612   1.936   1.233   4.502
 4869TIP3    H114613   1.867   1.228   4.569
 4869TIP3    H214614   2.017   1.247   4.552
 4870TIP3   OH214615   5.905   3.325   3.043
 4870TIP3    H114616   5.824   3.304   2.996
 4870TIP3    H214617   5.889   3.298   3.133
 4871TIP3   OH214618   1.114   3.434   3.533
 4871TIP3    H114619   1.128   3.457   3.441
 4871TIP3    H214620   1.062   3.507   3.568
 4872TIP3   OH214621   4.291   0.411   4.474
 4872TIP3    H114622   4.309   0.504   4.455
 4872TIP3    H214623   4.369   0.365   4.443
 4873TIP3   OH214624   3.369   2.648   0.780
 4873TIP3    H114625   3.418   2.719   0.738
 4873TIP3    H214626   3.307   2.693   0.838
 4874TIP3   OH214627   4.972   0.266   0.059
 4874TIP3    H114628   4.943   0.248   0.148
 4874TIP3    H214629   5.062   0.232   0.057
 4875TIP3   OH214630   3.404   5.929   4.370
 4875TIP3    H114631   3.322   5.944   4.418
 4875TIP3    H214632   3.378   5.926   4.278
 4876TIP3   OH214633   1.881   3.296   0.241
 4876TIP3    H114634   1.914   3.382   0.265
 4876TIP3    H214635   1.841   3.308   0.155
 4877TIP3   OH214636   5.910   4.461   3.830
 4877TIP3    H114637   5.999   4.470   3.796
 4877TIP3    H214638   5.907   4.518   3.906
 4878TIP3   OH214639   1.103   3.460   1.903
 4878TIP3    H114640   1.018   3.444   1.944
 4878TIP3    H214641   1.085   3.526   1.836
 4879TIP3   OH214642   5.901   4.330   2.646
 4879TIP3    H114643   5.981   4.316   2.696
 4879TIP3    H214644   5.831   4.305   2.706
 4880TIP3   OH214645   5.511   3.560   3.648
 4880TIP3    H114646   5.434   3.581   3.701
 4880TIP3    H214647   5.525   3.639   3.595
 4881TIP3   OH214648   5.568   0.656   4.334
 4881TIP3    H114649   5.605   0.677   4.420
 4881TIP3    H214650   5.630   0.695   4.272
 4882TIP3   OH214651   0.845   5.893   1.936
 4882TIP3    H114652   0.822   5.973   1.983
 4882TIP3    H214653   0.805   5.904   1.850
 4883TIP3   OH214654   3.011   3.206   3.229
 4883TIP3    H114655   2.981   3.149   3.299
 4883TIP3    H214656   2.943   3.199   3.162
 4884TIP3   OH214657   5.114   4.726   2.065
 4884TIP3    H114658   5.155   4.673   1.996
 4884TIP3    H214659   5.174   4.799   2.077
 4885TIP3   OH214660   1.246   5.498   3.281
 4885TIP3    H114661   1.341   5.497   3.292
 4885TIP3    H214662   1.212   5.466   3.365
 4886TIP3   OH214663   2.248   1.712   2.666
 4886TIP3    H114664   2.228   1.631   2.620
 4886TIP3    H214665   2.323   1.691   2.721
 4887TIP3   OH214666   4.459   1.989   1.929
 4887TIP3    H114667   4.544   2.024   1.901
 4887TIP3    H214668   4.480   1.906   1.971
 4888TIP3   OH214669   4.905   1.702   0.037
 4888TIP3    H114670   4.855   1.706  -0.044
 4888TIP3    H214671   4.876   1.621   0.080
 4889TIP3   OH214672   0.361   0.351   2.095
 4889TIP3    H114673   0.354   0.273   2.150
 4889TIP3    H214674   0.407   0.414   2.150
 4890TIP3   OH214675   4.514   0.620   0.961
 4890TIP3    H114676   4.608   0.627   0.981
 4890TIP3    H214677   4.512   0.595   0.868
 4891TIP3   OH214678   5.035   2.144   4.420
 4891TIP3    H114679   4.981   2.146   4.341
 4891TIP3    H214680   5.054   2.236   4.438
 4892TIP3   OH214681   4.591   1.914   4.688
 4892TIP3    H114682   4.535   1.926   4.611
 4892TIP3    H214683   4.661   1.978   4.677
 4893TIP3   OH214684   4.652   5.973   1.316
 4893TIP3    H114685   4.661   5.905   1.383
 4893TIP3    H214686   4.735   6.020   1.318
 4894TIP3   OH214687   3.963   5.029   3.505
 4894TIP3    H114688   4.046   4.984   3.485
 4894TIP3    H214689   3.974   5.059   3.595
 4895TIP3   OH214690   2.065   2.600   2.987
 4895TIP3    H114691   2.068   2.505   2.985
 4895TIP3    H214692   2.091   2.624   3.076
 4896TIP3   OH214693   4.504   1.377   4.204
 4896TIP3    H114694   4.587   1.345   4.239
 4896TIP3    H214695   4.518   1.383   4.110
 4897TIP3   OH214696   3.110   3.707   4.736
 4897TIP3    H114697   3.084   3.794   4.767
 4897TIP3    H214698   3.194   3.691   4.778
 4898TIP3   OH214699   5.212   4.523   1.903
 4898TIP3    H114700   5.184   4.436   1.933
 4898TIP3    H214701   5.282   4.504   1.840
 4899TIP3   OH214702   5.763   5.296   4.904
 4899TIP3    H114703   5.681   5.272   4.862
 4899TIP3    H214704   5.764   5.391   4.903
 4900TIP3   OH214705   0.355   4.742   0.696
 4900TIP3    H114706   0.261   4.746   0.709
 4900TIP3    H214707   0.392   4.794   0.768
 4901TIP3   OH214708   4.738   1.441   4.677
 4901TIP3    H114709   4.785   1.507   4.727
 4901TIP3    H214710   4.664   1.417   4.733
 4902TIP3   OH214711   4.532   4.089   4.474
 4902TIP3    H114712   4.476   4.050   4.541
 4902TIP3    H214713   4.500   4.052   4.391
 4903TIP3   OH214714   2.766   4.307   2.838
 4903TIP3    H114715   2.786   4.308   2.745
 4903TIP3    H214716   2.743   4.397   2.859
 4904TIP3   OH214717   3.805   3.714   1.969
 4904TIP3    H114718   3.846   3.800   1.962
 4904TIP3    H214719   3.877   3.655   1.993
 4905TIP3   OH214720   1.018   1.438   5.069
 4905TIP3    H114721   0.977   1.356   5.039
 4905TIP3    H214722   0.978   1.454   5.155
 4906TIP3   OH214723   4.862   3.268   0.178
 4906TIP3    H114724   4.918   3.279   0.101
 4906TIP3    H214725   4.777   3.303   0.150
 4907TIP3   OH214726   5.832   4.621   4.190
 4907TIP3    H114727   5.868   4.709   4.201
 4907TIP3    H214728   5.906   4.568   4.160
 4908TIP3   OH214729   4.650   3.929   3.264
 4908TIP3    H114730   4.688   3.876   3.194
 4908TIP3    H214731   4.608   3.865   3.322
 4909TIP3   OH214732   1.981   1.360   0.454
 4909TIP3    H114733   2.002   1.446   0.490
 4909TIP3    H214734   1.888   1.366   0.430
 4910TIP3   OH214735   5.402   3.503   1.935
 4910TIP3    H114736   5.423   3.410   1.924
 4910TIP3    H214737   5.479   3.549   1.904
 4911TIP3   OH214738   0.478   3.300   4.839
 4911TIP3    H114739   0.424   3.226   4.869
 4911TIP3    H214740   0.494   3.281   4.746
 4912TIP3   OH214741   5.819   4.575   3.122
 4912TIP3    H114742   5.856   4.613   3.043
 4912TIP3    H214743   5.725   4.588   3.113
 4913TIP3   OH214744   0.092   3.853   4.622
 4913TIP3    H114745   0.078   3.896   4.538
 4913TIP3    H214746   0.139   3.772   4.600
 4914TIP3   OH214747   4.174   2.957   1.410
 4914TIP3    H114748   4.088   2.916   1.407
 4914TIP3    H214749   4.235   2.885   1.427
 4915TIP3   OH214750   1.816   2.838   4.712
 4915TIP3    H114751   1.827   2.837   4.807
 4915TIP3    H214752   1.898   2.875   4.679
 4916TIP3   OH214753   2.362   1.923   1.835
 4916TIP3    H114754   2.416   1.983   1.784
 4916TIP3    H214755   2.361   1.842   1.784
 4917TIP3   OH214756   0.243   0.098   3.657
 4917TIP3    H114757   0.250   0.081   3.563
 4917TIP3    H214758   0.266   0.015   3.699
 4918TIP3   OH214759   4.985   3.042   4.913
 4918TIP3    H114760   5.026   2.960   4.883
 4918TIP3    H214761   4.984   3.098   4.836
 4919TIP3   OH214762   3.523   5.532   0.441
 4919TIP3    H114763   3.465   5.570   0.507
 4919TIP3    H214764   3.605   5.515   0.487
 4920TIP3   OH214765   5.170   0.300   3.909
 4920TIP3    H114766   5.133   0.386   3.928
 4920TIP3    H214767   5.257   0.302   3.950
 4921TIP3   OH214768   3.585   3.158   3.438
 4921TIP3    H114769   3.589   3.211   3.518
 4921TIP3    H214770   3.494   3.131   3.431
 4922TIP3   OH214771   0.982   0.510   4.550
 4922TIP3    H114772   0.900   0.463   4.562
 4922TIP3    H214773   0.960   0.586   4.496
 4923TIP3   OH214774   5.825   5.395   1.042
 4923TIP3    H114775   5.823   5.415   1.136
 4923TIP3    H214776   5.779   5.468   1.001
 4924TIP3   OH214777   3.767   1.252   2.039
 4924TIP3    H114778   3.831   1.244   2.109
 4924TIP3    H214779   3.689   1.208   2.073
 4925TIP3   OH214780   1.605   1.341   1.695
 4925TIP3    H114781   1.575   1.391   1.620
 4925TIP3    H214782   1.625   1.407   1.761
 4926TIP3   OH214783   5.143   4.744   3.229
 4926TIP3    H114784   5.187   4.667   3.263
 4926TIP3    H214785   5.154   4.810   3.297
 4927TIP3   OH214786   4.242   5.082   4.100
 4927TIP3    H114787   4.227   4.990   4.119
 4927TIP3    H214788   4.243   5.087   4.004
 4928TIP3   OH214789   3.404   5.930   2.135
 4928TIP3    H114790   3.363   6.006   2.176
 4928TIP3    H214791   3.378   5.857   2.191
 4929TIP3   OH214792   3.064   5.984   3.623
 4929TIP3    H114793   3.011   5.932   3.684
 4929TIP3    H214794   3.120   6.037   3.680
 4930TIP3   OH214795   0.656   5.296   4.055
 4930TIP3    H114796   0.739   5.273   4.096
 4930TIP3    H214797   0.673   5.293   3.961
 4931TIP3   OH214798   2.053   4.892   2.886
 4931TIP3    H114799   2.029   4.945   2.962
 4931TIP3    H214800   2.004   4.932   2.814
 4932TIP3   OH214801   5.544   1.902   2.853
 4932TIP3    H114802   5.470   1.843   2.861
 4932TIP3    H214803   5.554   1.915   2.758
 4933TIP3   OH214804   3.539   3.334   2.340
 4933TIP3    H114805   3.491   3.253   2.324
 4933TIP3    H214806   3.631   3.309   2.331
 4934TIP3   OH214807   0.526   1.245   3.253
 4934TIP3    H114808   0.513   1.340   3.259
 4934TIP3    H214809   0.472   1.209   3.323
 4935TIP3   OH214810   6.290   1.636   0.368
 4935TIP3    H114811   6.336   1.613   0.449
 4935TIP3    H214812   6.207   1.674   0.398
 4936TIP3   OH214813   3.230   5.911   2.543
 4936TIP3    H114814   3.210   5.829   2.588
 4936TIP3    H214815   3.144   5.947   2.520
 4937TIP3   OH214816   0.090   1.422   3.864
 4937TIP3    H114817   0.099   1.509   3.902
 4937TIP3    H214818   0.180   1.394   3.847
 4938TIP3   OH214819   4.341   5.414   1.194
 4938TIP3    H114820   4.378   5.497   1.221
 4938TIP3    H214821   4.391   5.348   1.243
 4939TIP3   OH214822   4.989   0.649   3.565
 4939TIP3    H114823   5.073   0.695   3.571
 4939TIP3    H214824   4.928   0.715   3.531
 4940TIP3   OH214825   0.267   3.323   1.340
 4940TIP3    H114826   0.190   3.270   1.358
 4940TIP3    H214827   0.237   3.390   1.278
 4941TIP3   OH214828   4.770   3.701   1.873
 4941TIP3    H114829   4.703   3.755   1.915
 4941TIP3    H214830   4.749   3.611   1.898
 4942TIP3   OH214831   2.573   1.487   4.980
 4942TIP3    H114832   2.607   1.446   5.060
 4942TIP3    H214833   2.651   1.516   4.934
 4943TIP3   OH214834   1.769   4.702   4.895
 4943TIP3    H114835   1.676   4.679   4.888
 4943TIP3    H214836   1.773   4.794   4.869
 4944TIP3   OH214837   4.178   1.484   2.753
 4944TIP3    H114838   4.129   1.559   2.787
 4944TIP3    H214839   4.202   1.510   2.664
 4945TIP3   OH214840   1.286   4.878   2.222
 4945TIP3    H114841   1.236   4.950   2.184
 4945TIP3    H214842   1.256   4.800   2.176
 4946TIP3   OH214843   4.596   2.206   3.891
 4946TIP3    H114844   4.523   2.151   3.921
 4946TIP3    H214845   4.554   2.277   3.843
 4947TIP3   OH214846   0.189   0.840   4.283
 4947TIP3    H114847   0.246   0.785   4.335
 4947TIP3    H214848   0.188   0.925   4.328
 4948TIP3   OH214849   2.173   0.295   4.853
 4948TIP3    H114850   2.225   0.295   4.934
 4948TIP3    H214851   2.082   0.295   4.883
 4949TIP3   OH214852   3.187   4.450   2.801
 4949TIP3    H114853   3.136   4.369   2.804
 4949TIP3    H214854   3.154   4.502   2.874
 4950TIP3   OH214855   3.241   4.624   4.784
 4950TIP3    H114856   3.197   4.572   4.718
 4950TIP3    H214857   3.276   4.699   4.736
 4951TIP3   OH214858   4.944   3.756   3.872
 4951TIP3    H114859   4.855   3.723   3.861
 4951TIP3    H214860   4.965   3.797   3.788
 4952TIP3   OH214861   5.151   0.459   1.947
 4952TIP3    H114862   5.105   0.384   1.909
 4952TIP3    H214863   5.106   0.475   2.030
 4953TIP3   OH214864   6.049   3.420   0.567
 4953TIP3    H114865   6.111   3.401   0.638
 4953TIP3    H214866   6.096   3.395   0.487
 4954TIP3   OH214867   2.353   0.774   4.484
 4954TIP3    H114868   2.448   0.766   4.486
 4954TIP3    H214869   2.322   0.707   4.546
 4955TIP3   OH214870   2.582   4.020   1.563
 4955TIP3    H114871   2.568   3.931   1.595
 4955TIP3    H214872   2.612   4.068   1.641
 4956TIP3   OH214873   0.825   0.069   2.723
 4956TIP3    H114874   0.770   0.094   2.797
 4956TIP3    H214875   0.819   0.144   2.663
 4957TIP3   OH214876   3.792   2.286   0.093
 4957TIP3    H114877   3.850   2.277   0.169
 4957TIP3    H214878   3.733   2.357   0.116
 4958TIP3   OH214879   2.711   5.373   2.532
 4958TIP3    H114880   2.756   5.403   2.453
 4958TIP3    H214881   2.777   5.383   2.601
 4959TIP3   OH214882   0.707   2.073   5.048
 4959TIP3    H114883   0.679   2.162   5.025
 4959TIP3    H214884   0.780   2.056   4.988
 4960TIP3   OH214885   4.611   2.197   4.353
 4960TIP3    H114886   4.588   2.287   4.374
 4960TIP3    H214887   4.666   2.204   4.275
 4961TIP3   OH214888   4.859   4.674   4.445
 4961TIP3    H114889   4.938   4.714   4.483
 4961TIP3    H214890   4.892   4.615   4.377
 4962TIP3   OH214891   3.266   4.006   3.937
 4962TIP3    H114892   3.285   4.096   3.964
 4962TIP3    H214893   3.304   3.951   4.005
 4963TIP3   OH214894   6.074   3.630   1.815
 4963TIP3    H114895   6.127   3.709   1.815
 4963TIP3    H214896   6.100   3.583   1.894
 4964TIP3   OH214897   5.956   1.015   0.981
 4964TIP3    H114898   5.931   0.987   0.892
 4964TIP3    H214899   5.876   1.009   1.032
 4965TIP3   OH214900   1.230   0.142   0.516
 4965TIP3    H114901   1.201   0.186   0.436
 4965TIP3    H214902   1.241   0.050   0.490
 4966TIP3   OH214903   4.129   3.353   1.052
 4966TIP3    H114904   4.150   3.447   1.048
 4966TIP3    H214905   4.082   3.342   1.134
 4967TIP3   OH214906   0.163   4.422   0.096
 4967TIP3    H114907   0.221   4.422   0.171
 4967TIP3    H214908   0.211   4.470   0.028
 4968TIP3   OH214909   6.366   4.314   4.409
 4968TIP3    H114910   6.398   4.269   4.487
 4968TIP3    H214911   6.412   4.398   4.410
 4969TIP3   OH214912   3.873   0.735   4.954
 4969TIP3    H114913   3.914   0.723   4.869
 4969TIP3    H214914   3.780   0.747   4.935
 4970TIP3   OH214915   2.809   4.129   0.484
 4970TIP3    H114916   2.807   4.163   0.394
 4970TIP3    H214917   2.725   4.084   0.495
 4971TIP3   OH214918   1.599   4.826   1.132
 4971TIP3    H114919   1.571   4.892   1.195
 4971TIP3    H214920   1.523   4.769   1.122
 4972TIP3   OH214921   5.830   2.502   1.900
 4972TIP3    H114922   5.901   2.462   1.950
 4972TIP3    H214923   5.756   2.442   1.912
 4973TIP3   OH214924   2.097   2.640   3.464
 4973TIP3    H114925   2.098   2.672   3.373
 4973TIP3    H214926   2.118   2.547   3.457
 4974TIP3   OH214927   0.398   2.048   4.464
 4974TIP3    H114928   0.468   2.029   4.527
 4974TIP3    H214929   0.374   1.962   4.430
 4975TIP3   OH214930   0.959   0.062   0.577
 4975TIP3    H114931   0.954   0.051   0.482
 4975TIP3    H214932   1.053   0.070   0.595
 4976TIP3   OH214933   3.732   2.691   0.758
 4976TIP3    H114934   3.708   2.604   0.724
 4976TIP3    H214935   3.699   2.692   0.847
 4977TIP3   OH214936   4.421   5.741   4.234
 4977TIP3    H114937   4.414   5.753   4.140
 4977TIP3    H214938   4.464   5.821   4.265
 4978TIP3   OH214939   1.773   0.065   2.036
 4978TIP3    H114940   1.831   0.134   2.006
 4978TIP3    H214941   1.736   0.028   1.955
 4979TIP3   OH214942   1.140   2.766   2.017
 4979TIP3    H114943   1.207   2.812   1.967
 4979TIP3    H214944   1.180   2.682   2.040
 4980TIP3   OH214945   1.844   1.035   5.014
 4980TIP3    H114946   1.859   1.129   4.998
 4980TIP3    H214947   1.751   1.023   4.998
 4981TIP3   OH214948   3.494   5.352   1.681
 4981TIP3    H114949   3.508   5.288   1.750
 4981TIP3    H214950   3.462   5.430   1.726
 4982TIP3   OH214951   1.118   0.183   4.023
 4982TIP3    H114952   1.127   0.275   3.998
 4982TIP3    H214953   1.188   0.138   3.976
 4983TIP3   OH214954   1.502   3.849   2.801
 4983TIP3    H114955   1.421   3.829   2.755
 4983TIP3    H214956   1.565   3.870   2.732
 4984TIP3   OH214957   1.187   3.243   3.300
 4984TIP3    H114958   1.238   3.221   3.222
 4984TIP3    H214959   1.240   3.209   3.373
 4985TIP3   OH214960   2.234   4.711   3.886
 4985TIP3    H114961   2.327   4.687   3.882
 4985TIP3    H214962   2.235   4.806   3.894
 4986TIP3   OH214963   6.243   0.078   5.109
 4986TIP3    H114964   6.280   0.164   5.125
 4986TIP3    H214965   6.186   0.061   5.184
 4987TIP3   OH214966   0.982   0.882   1.307
 4987TIP3    H114967   1.046   0.843   1.249
 4987TIP3    H214968   0.945   0.809   1.356
 4988TIP3   OH214969   1.241   1.075   1.736
 4988TIP3    H114970   1.179   1.123   1.790
 4988TIP3    H214971   1.200   1.070   1.650
 4989TIP3   OH214972   5.828   0.108   0.174
 4989TIP3    H114973   5.776   0.058   0.111
 4989TIP3    H214974   5.863   0.042   0.234
 4990TIP3   OH214975   4.771   2.334   0.961
 4990TIP3    H114976   4.718   2.332   0.881
 4990TIP3    H214977   4.826   2.256   0.957
 4991TIP3   OH214978   4.198   2.665   5.072
 4991TIP3    H114979   4.146   2.585   5.066
 4991TIP3    H214980   4.276   2.648   5.019
 4992TIP3   OH214981   5.920   0.503   2.006
 4992TIP3    H114982   5.858   0.574   1.987
 4992TIP3    H214983   6.006   0.540   1.986
 4993TIP3   OH214984   2.313   4.946   0.163
 4993TIP3    H114985   2.291   4.961   0.071
 4993TIP3    H214986   2.244   4.889   0.195
 4994TIP3   OH214987   3.468   4.538   3.850
 4994TIP3    H114988   3.508   4.599   3.912
 4994TIP3    H214989   3.410   4.592   3.796
 4995TIP3   OH214990   4.985   0.953   3.303
 4995TIP3    H114991   5.025   0.953   3.216
 4995TIP3    H214992   5.046   1.003   3.357
 4996TIP3   OH214993   3.464   4.821   3.322
 4996TIP3    H114994   3.458   4.831   3.227
 4996TIP3    H214995   3.388   4.868   3.356
 4997TIP3   OH214996   3.432   0.162   0.310
 4997TIP3    H114997   3.456   0.235   0.367
 4997TIP3    H214998   3.486   0.089   0.340
 4998TIP3   OH214999   4.266   4.081   4.904
 4998TIP3    H115000   4.284   4.058   4.814
 4998TIP3    H215001   4.319   4.159   4.921
 4999TIP3   OH215002   4.816   0.404   4.630
 4999TIP3    H115003   4.779   0.487   4.600
 4999TIP3    H215004   4.765   0.382   4.708
 5000TIP3   OH215005   4.384   1.218   0.513
 5000TIP3    H115006   4.378   1.153   0.583
 5000TIP3    H215007   4.297   1.257   0.510
 5001TIP3   OH215008   2.696   3.988   0.191
 5001TIP3    H115009   2.612   3.971   0.149
 5001TIP3    H215010   2.714   4.080   0.173
 5002TIP3   OH215011   4.192   5.752   4.717
 5002TIP3    H115012   4.128   5.696   4.673
 5002TIP3    H215013   4.257   5.773   4.650
 5003TIP3   OH215014   4.048   5.477   4.819
 5003TIP3    H115015   4.028   5.565   4.852
 5003TIP3    H215016   4.074   5.491   4.728
 5004TIP3   OH215017   5.824   2.295   4.723
 5004TIP3    H115018   5.748   2.336   4.682
 5004TIP3    H215019   5.885   2.367   4.738
 5005TIP3   OH215020   6.110   1.964   0.245
 5005TIP3    H115021   6.051   1.889   0.254
 5005TIP3    H215022   6.196   1.925   0.234
 5006TIP3   OH215023   3.233   5.507   4.461
 5006TIP3    H115024   3.237   5.438   4.395
 5006TIP3    H215025   3.173   5.572   4.424
 5007TIP3   OH215026   3.684   5.957   2.076
 5007TIP3    H115027   3.590   5.973   2.070
 5007TIP3    H215028   3.709   5.993   2.161
 5008TIP3   OH215029   5.620   3.359   2.401
 5008TIP3    H115030   5.614   3.444   2.357
 5008TIP3    H215031   5.557   3.364   2.472
 5009TIP3   OH215032   5.031   1.599   1.329
 5009TIP3    H115033   4.986   1.515   1.328
 5009TIP3    H215034   5.000   1.641   1.409
 5010TIP3   OH215035   5.700   4.207   0.099
 5010TIP3    H115036   5.732   4.117   0.088
 5010TIP3    H215037   5.604   4.198   0.099
 5011TIP3   OH215038   2.413   3.690   3.692
 5011TIP3    H115039   2.480   3.665   3.756
 5011TIP3    H215040   2.455   3.759   3.640
 5012TIP3   OH215041   2.058   5.171   5.158
 5012TIP3    H115042   1.991   5.203   5.218
 5012TIP3    H215043   2.033   5.080   5.141
 5013TIP3   OH215044   4.889   3.084   4.449
 5013TIP3    H115045   4.827   3.106   4.379
 5013TIP3    H215046   4.838   3.030   4.510
 5014TIP3   OH215047   4.100   0.953   4.763
 5014TIP3    H115048   4.166   1.017   4.791
 5014TIP3    H215049   4.150   0.886   4.717
 5015TIP3   OH215050   4.269   5.983   1.018
 5015TIP3    H115051   4.351   6.004   1.062
 5015TIP3    H215052   4.284   5.898   0.977
 5016TIP3   OH215053   1.907   2.803   4.053
 5016TIP3    H115054   1.886   2.741   4.123
 5016TIP3    H215055   1.989   2.843   4.081
 5017TIP3   OH215056   1.287   3.564   2.904
 5017TIP3    H115057   1.373   3.561   2.945
 5017TIP3    H215058   1.257   3.654   2.919
 5018TIP3   OH215059   1.317   0.211   4.283
 5018TIP3    H115060   1.223   0.195   4.281
 5018TIP3    H215061   1.342   0.214   4.190
 5019TIP3   OH215062   5.761   2.498   3.914
 5019TIP3    H115063   5.852   2.479   3.892
 5019TIP3    H215064   5.752   2.473   4.006
 5020TIP3   OH215065   2.104   3.783   0.622
 5020TIP3    H115066   2.196   3.756   0.626
 5020TIP3    H215067   2.094   3.847   0.693
 5021TIP3   OH215068   4.392   2.596   3.404
 5021TIP3    H115069   4.330   2.531   3.372
 5021TIP3    H215070   4.340   2.676   3.413
 5022TIP3   OH215071   5.583   3.634   2.666
 5022TIP3    H115072   5.581   3.646   2.571
 5022TIP3    H215073   5.620   3.715   2.700
 5023TIP3   OH215074   3.898   1.150   2.559
 5023TIP3    H115075   3.874   1.201   2.636
 5023TIP3    H215076   3.911   1.061   2.592
 5024TIP3   OH215077   2.433   4.114   1.339
 5024TIP3    H115078   2.475   4.060   1.271
 5024TIP3    H215079   2.470   4.081   1.421
 5025TIP3   OH215080   0.335   0.758   3.127
 5025TIP3    H115081   0.421   0.799   3.113
 5025TIP3    H215082   0.300   0.801   3.205
 5026TIP3   OH215083   6.139   4.081   3.040
 5026TIP3    H115084   6.143   4.114   3.130
 5026TIP3    H215085   6.207   4.014   3.037
 5027TIP3   OH215086   2.151   1.834   4.826
 5027TIP3    H115087   2.120   1.894   4.894
 5027TIP3    H215088   2.168   1.890   4.751
 5028TIP3   OH215089   0.824   0.330   3.335
 5028TIP3    H115090   0.795   0.357   3.422
 5028TIP3    H215091   0.752   0.357   3.277
 5029TIP3   OH215092   2.961   5.045   1.681
 5029TIP3    H115093   2.921   5.009   1.761
 5029TIP3    H215094   2.929   5.135   1.677
 5030TIP3   OH215095   4.279   5.081   5.146
 5030TIP3    H115096   4.223   5.076   5.069
 5030TIP3    H215097   4.312   5.171   5.146
 5031TIP3   OH215098   5.132   3.745   0.453
 5031TIP3    H115099   5.077   3.821   0.438
 5031TIP3    H215100   5.080   3.687   0.508
 5032TIP3   OH215101   2.376   4.817   2.469
 5032TIP3    H115102   2.297   4.805   2.522
 5032TIP3    H215103   2.356   4.892   2.413
 5033TIP3   OH215104   5.592   0.131   1.895
 5033TIP3    H115105   5.507   0.160   1.929
 5033TIP3    H215106   5.580   0.039   1.874
 5034TIP3   OH215107   2.948   0.701   3.792
 5034TIP3    H115108   2.926   0.614   3.759
 5034TIP3    H215109   2.952   0.756   3.713
 5035TIP3   OH215110   6.272   4.491   0.884
 5035TIP3    H115111   6.191   4.444   0.901
 5035TIP3    H215112   6.340   4.440   0.928
 5036TIP3   OH215113   5.860   2.176   5.080
 5036TIP3    H115114   5.889   2.259   5.044
 5036TIP3    H215115   5.783   2.197   5.133
 5037TIP3   OH215116   2.561   5.530   0.619
 5037TIP3    H115117   2.492   5.495   0.562
 5037TIP3    H215118   2.623   5.458   0.628
 5038TIP3   OH215119   4.796   5.819   2.733
 5038TIP3    H115120   4.835   5.839   2.817
 5038TIP3    H215121   4.863   5.768   2.686
 5039TIP3   OH215122   5.621   5.053   0.255
 5039TIP3    H115123   5.676   5.046   0.177
 5039TIP3    H215124   5.580   5.140   0.247
 5040TIP3   OH215125   5.918   4.704   4.791
 5040TIP3    H115126   5.986   4.732   4.730
 5040TIP3    H215127   5.966   4.670   4.866
 5041TIP3   OH215128   2.866   2.887   2.614
 5041TIP3    H115129   2.909   2.860   2.695
 5041TIP3    H215130   2.936   2.925   2.561
 5042TIP3   OH215131   2.882   4.565   1.771
 5042TIP3    H115132   2.883   4.586   1.677
 5042TIP3    H215133   2.954   4.504   1.783
 5043TIP3   OH215134   5.560   5.794   1.010
 5043TIP3    H115135   5.547   5.760   1.099
 5043TIP3    H215136   5.632   5.741   0.975
 5044TIP3   OH215137   1.070   5.691   1.199
 5044TIP3    H115138   1.047   5.673   1.291
 5044TIP3    H215139   1.092   5.785   1.198
 5045TIP3   OH215140   4.136   4.190   3.626
 5045TIP3    H115141   4.201   4.238   3.575
 5045TIP3    H215142   4.179   4.107   3.648
 5046TIP3   OH215143   1.529   0.792   4.348
 5046TIP3    H115144   1.575   0.839   4.417
 5046TIP3    H215145   1.508   0.707   4.387
 5047TIP3   OH215146   5.129   0.325   4.222
 5047TIP3    H115147   5.214   0.291   4.251
 5047TIP3    H215148   5.121   0.409   4.266
 5048TIP3   OH215149   1.709   2.875  -0.013
 5048TIP3    H115150   1.779   2.890   0.050
 5048TIP3    H215151   1.679   2.963  -0.038
 5049TIP3   OH215152   2.403   5.851   0.815
 5049TIP3    H115153   2.370   5.775   0.864
 5049TIP3    H215154   2.495   5.832   0.800
 5050TIP3   OH215155   4.177   1.719   0.941
 5050TIP3    H115156   4.119   1.782   0.898
 5050TIP3    H215157   4.163   1.735   1.035
 5051TIP3   OH215158   3.510   3.065   0.423
 5051TIP3    H115159   3.564   3.137   0.390
 5051TIP3    H215160   3.422   3.102   0.428
 5052TIP3   OH215161   2.175   5.379   3.284
 5052TIP3    H115162   2.099   5.395   3.228
 5052TIP3    H215163   2.240   5.443   3.255
 5053TIP3   OH215164   4.329   4.846   1.336
 5053TIP3    H115165   4.237   4.869   1.336
 5053TIP3    H215166   4.352   4.838   1.243
 5054TIP3   OH215167   6.050   5.104   0.544
 5054TIP3    H115168   5.962   5.110   0.506
 5054TIP3    H215169   6.041   5.146   0.629
 5055TIP3   OH215170   1.464   0.950   1.481
 5055TIP3    H115171   1.506   1.004   1.547
 5055TIP3    H215172   1.536   0.913   1.430
 5056TIP3   OH215173   6.300   5.694   4.536
 5056TIP3    H115174   6.314   5.784   4.565
 5056TIP3    H215175   6.372   5.677   4.476
 5057TIP3   OH215176   1.480   3.167   0.599
 5057TIP3    H115177   1.433   3.198   0.676
 5057TIP3    H215178   1.418   3.176   0.527
 5058TIP3   OH215179   1.169   2.715   2.538
 5058TIP3    H115180   1.190   2.751   2.624
 5058TIP3    H215181   1.237   2.649   2.523
 5059TIP3   OH215182   0.019   1.971   2.300
 5059TIP3    H115183   0.053   1.909   2.364
 5059TIP3    H215184  -0.047   2.022   2.348
 5060TIP3   OH215185   2.862   1.579   4.763
 5060TIP3    H115186   2.837   1.487   4.755
 5060TIP3    H215187   2.813   1.624   4.694
 5061TIP3   OH215188   2.220   3.305   3.487
 5061TIP3    H115189   2.163   3.228   3.498
 5061TIP3    H215190   2.241   3.305   3.393
 5062TIP3   OH215191   1.956   5.404   0.366
 5062TIP3    H115192   1.982   5.324   0.321
 5062TIP3    H215193   1.949   5.380   0.458
 5063TIP3   OH215194   1.724   5.806   3.676
 5063TIP3    H115195   1.758   5.842   3.759
 5063TIP3    H215196   1.803   5.780   3.628
 5064TIP3   OH215197   4.016   5.129   3.779
 5064TIP3    H115198   3.978   5.146   3.865
 5064TIP3    H215199   4.109   5.150   3.789
 5065TIP3   OH215200   3.506   2.836   5.136
 5065TIP3    H115201   3.539   2.861   5.049
 5065TIP3    H215202   3.584   2.831   5.191
 5066TIP3   OH215203   1.994   0.143   1.749
 5066TIP3    H115204   1.912   0.192   1.745
 5066TIP3    H215205   2.031   0.165   1.834
 5067TIP3   OH215206   3.519   4.895   0.106
 5067TIP3    H115207   3.470   4.824   0.064
 5067TIP3    H215208   3.472   4.975   0.081
 5068TIP3   OH215209   6.273   1.950   4.299
 5068TIP3    H115210   6.204   1.903   4.253
 5068TIP3    H215211   6.288   2.029   4.247
 5069TIP3   OH215212   4.850   1.185   5.016
 5069TIP3    H115213   4.930   1.204   4.967
 5069TIP3    H215214   4.804   1.269   5.020
 5070TIP3   OH215215   6.329   4.931   5.014
 5070TIP3    H115216   6.352   5.022   4.996
 5070TIP3    H215217   6.237   4.924   4.989
 5071TIP3   OH215218   2.682   1.169   0.422
 5071TIP3    H115219   2.615   1.154   0.355
 5071TIP3    H215220   2.755   1.112   0.397
 5072TIP3   OH215221   2.153   1.516   1.160
 5072TIP3    H115222   2.113   1.507   1.074
 5072TIP3    H215223   2.154   1.427   1.195
 5073TIP3   OH215224   5.125   0.920   2.741
 5073TIP3    H115225   5.073   0.842   2.725
 5073TIP3    H215226   5.061   0.991   2.742
 5074TIP3   OH215227   6.390   4.637   0.206
 5074TIP3    H115228   6.308   4.669   0.167
 5074TIP3    H215229   6.416   4.564   0.150
 5075TIP3   OH215230   3.609   5.103   2.401
 5075TIP3    H115231   3.566   5.021   2.374
 5075TIP3    H215232   3.661   5.129   2.325
 5076TIP3   OH215233   2.995   5.970   1.624
 5076TIP3    H115234   2.982   5.971   1.719
 5076TIP3    H215235   3.058   6.040   1.607
 5077TIP3   OH215236   4.224   2.608   2.565
 5077TIP3    H115237   4.208   2.661   2.487
 5077TIP3    H215238   4.273   2.666   2.624
 5078TIP3   OH215239   1.114   1.086   3.129
 5078TIP3    H115240   1.080   1.172   3.155
 5078TIP3    H215241   1.035   1.034   3.111
 5079TIP3   OH215242   5.998   4.867   2.925
 5079TIP3    H115243   5.981   4.783   2.883
 5079TIP3    H215244   5.963   4.932   2.865
 5080TIP3   OH215245   3.248   3.278   4.177
 5080TIP3    H115246   3.228   3.369   4.197
 5080TIP3    H215247   3.164   3.241   4.147
 5081TIP3   OH215248   4.891   1.480   1.091
 5081TIP3    H115249   4.965   1.530   1.126
 5081TIP3    H215250   4.925   1.437   1.013
 5082TIP3   OH215251   2.843   4.788   0.379
 5082TIP3    H115252   2.826   4.719   0.315
 5082TIP3    H215253   2.783   4.768   0.451
 5083TIP3   OH215254   3.430   0.110   3.645
 5083TIP3    H115255   3.445   0.080   3.555
 5083TIP3    H215256   3.518   0.113   3.684
 5084TIP3   OH215257   3.107   3.941   2.739
 5084TIP3    H115258   3.122   3.857   2.695
 5084TIP3    H215259   3.122   3.923   2.832
 5085TIP3   OH215260   4.481   1.697   1.776
 5085TIP3    H115261   4.459   1.747   1.698
 5085TIP3    H215262   4.565   1.656   1.756
 5086TIP3   OH215263   2.677   2.805   4.326
 5086TIP3    H115264   2.694   2.871   4.393
 5086TIP3    H215265   2.744   2.822   4.259
 5087TIP3   OH215266   1.588   5.509   3.641
 5087TIP3    H115267   1.580   5.604   3.637
 5087TIP3    H215268   1.665   5.488   3.588
 5088TIP3   OH215269   4.854   4.074   2.490
 5088TIP3    H115270   4.814   4.025   2.418
 5088TIP3    H215271   4.781   4.117   2.533
 5089TIP3   OH215272   1.129   1.524   4.681
 5089TIP3    H115273   1.186   1.561   4.614
 5089TIP3    H215274   1.151   1.573   4.761
 5090TIP3   OH215275   3.129   0.839   3.080
 5090TIP3    H115276   3.084   0.801   3.156
 5090TIP3    H215277   3.063   0.896   3.039
 5091TIP3   OH215278   0.894   1.832   4.555
 5091TIP3    H115279   0.904   1.788   4.470
 5091TIP3    H215280   0.800   1.825   4.574
 5092TIP3   OH215281   6.049   5.300   2.568
 5092TIP3    H115282   6.078   5.391   2.567
 5092TIP3    H215283   6.106   5.257   2.631
 5093TIP3   OH215284   0.754   4.523   4.909
 5093TIP3    H115285   0.777   4.432   4.892
 5093TIP3    H215286   0.730   4.525   5.002
 5094TIP3   OH215287   4.158   2.105   3.154
 5094TIP3    H115288   4.126   2.179   3.102
 5094TIP3    H215289   4.210   2.053   3.092
 5095TIP3   OH215290   2.385   2.974   3.366
 5095TIP3    H115291   2.379   2.895   3.313
 5095TIP3    H215292   2.295   2.992   3.394
 5096TIP3   OH215293   2.550   1.443   3.382
 5096TIP3    H115294   2.500   1.363   3.364
 5096TIP3    H215295   2.499   1.488   3.450
 5097TIP3   OH215296   6.270   0.060   4.373
 5097TIP3    H115297   6.343   0.120   4.390
 5097TIP3    H215298   6.248   0.024   4.459
 5098TIP3   OH215299   3.667   3.433   2.719
 5098TIP3    H115300   3.759   3.459   2.707
 5098TIP3    H215301   3.660   3.351   2.671
 5099TIP3   OH215302   2.367   4.032   1.860
 5099TIP3    H115303   2.433   4.056   1.925
 5099TIP3    H215304   2.380   3.938   1.846
 5100TIP3   OH215305  -0.001   5.569   3.961
 5100TIP3    H115306   0.034   5.626   4.030
 5100TIP3    H215307  -0.007   5.625   3.884
 5101TIP3   OH215308   1.492   4.811   0.683
 5101TIP3    H115309   1.570   4.859   0.653
 5101TIP3    H215310   1.423   4.877   0.686
 5102TIP3   OH215311   2.250   5.105   1.153
 5102TIP3    H115312   2.174   5.103   1.211
 5102TIP3    H215313   2.234   5.034   1.090
 5103TIP3   OH215314   0.013   1.519   1.201
 5103TIP3    H115315   0.068   1.511   1.122
 5103TIP3    H215316   0.071   1.559   1.266
 5104TIP3   OH215317   3.003   2.953   2.001
 5104TIP3    H115318   2.965   3.040   2.013
 5104TIP3    H215319   3.084   2.968   1.953
 5105TIP3   OH215320   3.505   2.533   1.229
 5105TIP3    H115321   3.518   2.440   1.247
 5105TIP3    H215322   3.451   2.564   1.302
 5106TIP3   OH215323   3.647   0.340   3.720
 5106TIP3    H115324   3.617   0.393   3.646
 5106TIP3    H215325   3.684   0.404   3.781
 5107TIP3   OH215326   0.337   5.116   4.442
 5107TIP3    H115327   0.390   5.108   4.362
 5107TIP3    H215328   0.263   5.170   4.416
 5108TIP3   OH215329   5.194   1.482   3.310
 5108TIP3    H115330   5.289   1.478   3.298
 5108TIP3    H215331   5.160   1.515   3.226
 5109TIP3   OH215332   3.687   4.143   2.370
 5109TIP3    H115333   3.672   4.049   2.361
 5109TIP3    H215334   3.748   4.151   2.444
 5110TIP3   OH215335   2.208   1.127   2.538
 5110TIP3    H115336   2.253   1.112   2.622
 5110TIP3    H215337   2.145   1.196   2.558
 5111TIP3   OH215338   1.960   4.134   0.209
 5111TIP3    H115339   2.015   4.100   0.280
 5111TIP3    H215340   1.872   4.136   0.247
 5112TIP3   OH215341   1.137   5.401   2.890
 5112TIP3    H115342   1.073   5.407   2.961
 5112TIP3    H215343   1.208   5.347   2.924
 5113TIP3   OH215344   5.707   2.960   1.615
 5113TIP3    H115345   5.790   2.975   1.569
 5113TIP3    H215346   5.640   2.990   1.554
 5114TIP3   OH215347   3.559   2.352   0.398
 5114TIP3    H115348   3.604   2.379   0.478
 5114TIP3    H215349   3.524   2.265   0.418
 5115TIP3   OH215350   2.166   2.689   3.215
 5115TIP3    H115351   2.210   2.747   3.154
 5115TIP3    H215352   2.223   2.612   3.222
 5116TIP3   OH215353   2.927   4.315   4.479
 5116TIP3    H115354   2.855   4.260   4.509
 5116TIP3    H215355   2.907   4.402   4.515
 5117TIP3   OH215356   3.130   5.178   2.569
 5117TIP3    H115357   3.200   5.143   2.625
 5117TIP3    H215358   3.053   5.125   2.590
 5118TIP3   OH215359   0.843   2.205   1.920
 5118TIP3    H115360   0.895   2.126   1.911
 5118TIP3    H215361   0.755   2.173   1.941
 5119TIP3   OH215362   3.934   0.244   1.310
 5119TIP3    H115363   4.014   0.253   1.362
 5119TIP3    H215364   3.966   0.225   1.222
 5120TIP3   OH215365   0.025   1.062   4.803
 5120TIP3    H115366  -0.017   0.978   4.818
 5120TIP3    H215367   0.105   1.042   4.754
 5121TIP3   OH215368   0.379   4.762   2.141
 5121TIP3    H115369   0.326   4.806   2.207
 5121TIP3    H215370   0.462   4.744   2.186
 5122TIP3   OH215371   3.252   3.187   4.455
 5122TIP3    H115372   3.176   3.128   4.450
 5122TIP3    H215373   3.284   3.191   4.365
 5123TIP3   OH215374   3.910   5.230   1.944
 5123TIP3    H115375   3.910   5.303   1.882
 5123TIP3    H215376   3.866   5.158   1.898
 5124TIP3   OH215377   5.044   4.872   4.741
 5124TIP3    H115378   4.952   4.888   4.718
 5124TIP3    H215379   5.075   4.811   4.674
 5125TIP3   OH215380   0.374   4.598   4.779
 5125TIP3    H115381   0.288   4.598   4.738
 5125TIP3    H215382   0.356   4.592   4.873
 5126TIP3   OH215383   2.363   2.480   3.199
 5126TIP3    H115384   2.375   2.435   3.115
 5126TIP3    H215385   2.346   2.409   3.262
 5127TIP3   OH215386   5.084   4.129   3.492
 5127TIP3    H115387   5.065   4.067   3.422
 5127TIP3    H215388   5.179   4.139   3.491
 5128TIP3   OH215389   0.978   5.686   4.418
 5128TIP3    H115390   0.929   5.677   4.336
 5128TIP3    H215391   0.910   5.691   4.485
 5129TIP3   OH215392   1.845   3.110   2.401
 5129TIP3    H115393   1.878   3.072   2.482
 5129TIP3    H215394   1.782   3.046   2.368
 5130TIP3   OH215395   6.233   1.958   1.844
 5130TIP3    H115396   6.154   1.995   1.805
 5130TIP3    H215397   6.287   1.932   1.770
 5131TIP3   OH215398   1.812   4.254   0.840
 5131TIP3    H115399   1.898   4.242   0.881
 5131TIP3    H215400   1.764   4.175   0.863
 5132TIP3   OH215401   4.049   5.490   1.103
 5132TIP3    H115402   3.990   5.416   1.115
 5132TIP3    H215403   4.120   5.474   1.166
 5133TIP3   OH215404   0.392   3.113   1.650
 5133TIP3    H115405   0.461   3.091   1.588
 5133TIP3    H215406   0.356   3.028   1.677
 5134TIP3   OH215407   0.204   5.065   2.111
 5134TIP3    H115408   0.291   5.083   2.076
 5134TIP3    H215409   0.161   5.151   2.111
 5135TIP3   OH215410   4.863   1.974   2.741
 5135TIP3    H115411   4.802   1.990   2.669
 5135TIP3    H215412   4.901   2.060   2.759
 5136TIP3   OH215413   4.127   4.050   2.095
 5136TIP3    H115414   4.125   4.096   2.178
 5136TIP3    H215415   4.058   3.983   2.103
 5137TIP3   OH215416   0.157   5.762   4.084
 5137TIP3    H115417   0.162   5.750   4.179
 5137TIP3    H215418   0.246   5.785   4.058
 5138TIP3   OH215419   1.387   5.589   4.566
 5138TIP3    H115420   1.415   5.586   4.658
 5138TIP3    H215421   1.360   5.680   4.552
 5139TIP3   OH215422   6.153   0.980   4.476
 5139TIP3    H115423   6.210   1.054   4.494
 5139TIP3    H215424   6.065   1.012   4.496
 5140TIP3   OH215425   1.144   5.551   0.980
 5140TIP3    H115426   1.156   5.638   0.941
 5140TIP3    H215427   1.119   5.569   1.070
 5141TIP3   OH215428   0.932   0.324   5.114
 5141TIP3    H115429   0.973   0.408   5.136
 5141TIP3    H215430   0.909   0.286   5.199
 5142TIP3   OH215431   3.658   1.903   0.951
 5142TIP3    H115432   3.725   1.907   0.883
 5142TIP3    H215433   3.588   1.960   0.919
 5143TIP3   OH215434   0.015   1.225   3.416
 5143TIP3    H115435  -0.032   1.149   3.449
 5143TIP3    H215436   0.097   1.226   3.466
 5144TIP3   OH215437   1.425   4.082   0.393
 5144TIP3    H115438   1.410   3.993   0.362
 5144TIP3    H215439   1.404   4.138   0.318
 5145TIP3   OH215440   4.412   5.917   3.169
 5145TIP3    H115441   4.331   5.896   3.122
 5145TIP3    H215442   4.479   5.918   3.101
 5146TIP3   OH215443   2.053   3.857   4.976
 5146TIP3    H115444   2.039   3.769   5.012
 5146TIP3    H215445   2.086   3.842   4.888
 5147TIP3   OH215446   3.717   1.508   4.144
 5147TIP3    H115447   3.755   1.420   4.141
 5147TIP3    H215448   3.753   1.551   4.067
 5148TIP3   OH215449   3.013   4.899   4.072
 5148TIP3    H115450   2.980   4.902   3.982
 5148TIP3    H215451   2.952   4.841   4.118
 5149TIP3   OH215452   0.810   3.858   2.890
 5149TIP3    H115453   0.764   3.815   2.817
 5149TIP3    H215454   0.890   3.806   2.902
 5150TIP3   OH215455   5.002   3.681   1.700
 5150TIP3    H115456   5.040   3.600   1.734
 5150TIP3    H215457   4.925   3.697   1.755
 5151TIP3   OH215458   2.671   2.876   0.367
 5151TIP3    H115459   2.653   2.923   0.449
 5151TIP3    H215460   2.644   2.786   0.383
 5152TIP3   OH215461   1.452   1.499   2.589
 5152TIP3    H115462   1.428   1.482   2.680
 5152TIP3    H215463   1.412   1.584   2.570
 5153TIP3   OH215464   5.429   2.280   1.461
 5153TIP3    H115465   5.372   2.203   1.459
 5153TIP3    H215466   5.487   2.269   1.386
 5154TIP3   OH215467   3.414   2.887   0.629
 5154TIP3    H115468   3.477   2.905   0.559
 5154TIP3    H215469   3.334   2.861   0.584
 5155TIP3   OH215470   6.101   5.674   4.785
 5155TIP3    H115471   6.166   5.713   4.727
 5155TIP3    H215472   6.093   5.736   4.858
 5156TIP3   OH215473   3.070   3.027   2.469
 5156TIP3    H115474   3.020   3.104   2.441
 5156TIP3    H215475   3.147   3.064   2.513
 5157TIP3   OH215476   1.357   2.303   0.815
 5157TIP3    H115477   1.262   2.304   0.819
 5157TIP3    H215478   1.380   2.210   0.816
 5158TIP3   OH215479   4.691   0.060   0.572
 5158TIP3    H115480   4.679   0.015   0.488
 5158TIP3    H215481   4.758   0.126   0.554
 5159TIP3   OH215482   1.052   0.125   4.288
 5159TIP3    H115483   1.064   0.138   4.194
 5159TIP3    H215484   0.989   0.054   4.295
 5160TIP3   OH215485   5.537   2.747   4.081
 5160TIP3    H115486   5.489   2.783   4.156
 5160TIP3    H215487   5.473   2.691   4.037
 5161TIP3   OH215488   1.336   3.883   0.167
 5161TIP3    H115489   1.372   3.854   0.251
 5161TIP3    H215490   1.411   3.921   0.121
 5162TIP3   OH215491   5.539   1.039   2.889
 5162TIP3    H115492   5.473   0.972   2.904
 5162TIP3    H215493   5.512   1.082   2.808
 5163TIP3   OH215494   4.758   4.918   3.660
 5163TIP3    H115495   4.836   4.971   3.641
 5163TIP3    H215496   4.776   4.878   3.745
 5164TIP3   OH215497   6.195   3.876   3.683
 5164TIP3    H115498   6.181   3.879   3.777
 5164TIP3    H215499   6.259   3.806   3.670
 5165TIP3   OH215500   3.638   4.455   4.381
 5165TIP3    H115501   3.649   4.379   4.437
 5165TIP3    H215502   3.634   4.530   4.441
 5166TIP3   OH215503   1.453   0.613   0.267
 5166TIP3    H115504   1.382   0.623   0.332
 5166TIP3    H215505   1.526   0.663   0.304
 5167TIP3   OH215506   0.021   3.947   0.273
 5167TIP3    H115507   0.053   3.904   0.193
 5167TIP3    H215508   0.020   4.040   0.251
 5168TIP3   OH215509   0.722   3.063   2.713
 5168TIP3    H115510   0.706   3.156   2.695
 5168TIP3    H215511   0.797   3.040   2.659
 5169TIP3   OH215512   3.478   1.142   0.322
 5169TIP3    H115513   3.449   1.109   0.237
 5169TIP3    H215514   3.571   1.123   0.325
 5170TIP3   OH215515   6.198   3.973   3.956
 5170TIP3    H115516   6.146   3.913   4.009
 5170TIP3    H215517   6.285   3.973   3.997
 5171TIP3   OH215518   0.836   2.188   2.892
 5171TIP3    H115519   0.859   2.098   2.869
 5171TIP3    H215520   0.843   2.190   2.988
 5172TIP3   OH215521   3.053   3.491   4.274
 5172TIP3    H115522   3.008   3.561   4.322
 5172TIP3    H215523   2.998   3.477   4.197
 5173TIP3   OH215524   3.432   1.374   1.398
 5173TIP3    H115525   3.435   1.373   1.494
 5173TIP3    H215526   3.354   1.323   1.376
 5174TIP3   OH215527   0.783   0.445   4.913
 5174TIP3    H115528   0.838   0.406   4.981
 5174TIP3    H215529   0.807   0.537   4.912
 5175TIP3   OH215530   3.350   5.116   0.064
 5175TIP3    H115531   3.296   5.184   0.026
 5175TIP3    H215532   3.319   5.108   0.155
 5176TIP3   OH215533   0.003   5.730   2.124
 5176TIP3    H115534   0.097   5.715   2.111
 5176TIP3    H215535  -0.007   5.742   2.218
 5177TIP3   OH215536   5.370   0.415   3.394
 5177TIP3    H115537   5.374   0.382   3.484
 5177TIP3    H215538   5.344   0.339   3.342
 5178TIP3   OH215539   3.139   1.328   1.780
 5178TIP3    H115540   3.146   1.304   1.688
 5178TIP3    H215541   3.228   1.351   1.806
 5179TIP3   OH215542   0.507   0.683   1.599
 5179TIP3    H115543   0.592   0.645   1.578
 5179TIP3    H215544   0.475   0.719   1.516
 5180TIP3   OH215545   4.413   4.232   2.961
 5180TIP3    H115546   4.460   4.315   2.970
 5180TIP3    H215547   4.410   4.196   3.050
 5181TIP3   OH215548   5.738   1.705   3.894
 5181TIP3    H115549   5.734   1.617   3.932
 5181TIP3    H215550   5.650   1.740   3.906
 5182TIP3   OH215551   2.483   5.394   4.783
 5182TIP3    H115552   2.407   5.451   4.777
 5182TIP3    H215553   2.542   5.439   4.844
 5183TIP3   OH215554   3.732   4.666   4.541
 5183TIP3    H115555   3.752   4.658   4.448
 5183TIP3    H215556   3.818   4.670   4.584
 5184TIP3   OH215557   4.041   1.301   4.372
 5184TIP3    H115558   4.114   1.363   4.368
 5184TIP3    H215559   4.026   1.288   4.466
 5185TIP3   OH215560   2.228   2.748   1.498
 5185TIP3    H115561   2.287   2.688   1.543
 5185TIP3    H215562   2.183   2.694   1.434
 5186TIP3   OH215563   2.827   0.059   3.745
 5186TIP3    H115564   2.895   0.002   3.782
 5186TIP3    H215565   2.870   0.103   3.673
 5187TIP3   OH215566   5.964   1.715   2.576
 5187TIP3    H115567   5.942   1.793   2.525
 5187TIP3    H215568   5.901   1.649   2.547
 5188TIP3   OH215569   2.730   3.405   0.127
 5188TIP3    H115570   2.772   3.337   0.179
 5188TIP3    H215571   2.742   3.376   0.036
 5189TIP3   OH215572   5.513   4.626   3.768
 5189TIP3    H115573   5.456   4.695   3.803
 5189TIP3    H215574   5.591   4.671   3.739
 5190TIP3   OH215575   3.079   2.989   4.380
 5190TIP3    H115576   3.005   2.998   4.440
 5190TIP3    H215577   3.119   2.905   4.403
 5191TIP3   OH215578   5.625   0.674   3.669
 5191TIP3    H115579   5.560   0.630   3.724
 5191TIP3    H215580   5.590   0.666   3.580
 5192TIP3   OH215581   0.809   5.648   3.514
 5192TIP3    H115582   0.739   5.687   3.567
 5192TIP3    H215583   0.886   5.703   3.532
 5193TIP3   OH215584   4.503   4.603   4.594
 5193TIP3    H115585   4.505   4.696   4.615
 5193TIP3    H215586   4.555   4.562   4.663
 5194TIP3   OH215587   1.986   4.310   3.697
 5194TIP3    H115588   1.950   4.397   3.680
 5194TIP3    H215589   1.919   4.249   3.666
 5195TIP3   OH215590   4.082   0.121   3.061
 5195TIP3    H115591   3.999   0.152   3.024
 5195TIP3    H215592   4.061   0.100   3.152
 5196TIP3   OH215593   5.493   5.003   2.871
 5196TIP3    H115594   5.575   5.047   2.890
 5196TIP3    H215595   5.451   4.992   2.956
 5197TIP3   OH215596   0.633   5.497   4.234
 5197TIP3    H115597   0.540   5.499   4.257
 5197TIP3    H215598   0.636   5.446   4.153
 5198TIP3   OH215599   0.853   4.238   3.674
 5198TIP3    H115600   0.830   4.324   3.710
 5198TIP3    H215601   0.773   4.208   3.631
 5199TIP3   OH215602   3.421   3.134   4.802
 5199TIP3    H115603   3.356   3.200   4.826
 5199TIP3    H215604   3.372   3.052   4.798
 5200TIP3   OH215605   2.312   0.961   1.481
 5200TIP3    H115606   2.354   0.923   1.403
 5200TIP3    H215607   2.347   1.050   1.486
 5201TIP3   OH215608   1.985   3.258   4.548
 5201TIP3    H115609   1.972   3.226   4.637
 5201TIP3    H215610   2.078   3.244   4.530
 5202TIP3   OH215611   3.900   5.388   2.674
 5202TIP3    H115612   3.951   5.320   2.719
 5202TIP3    H215613   3.960   5.423   2.608
 5203TIP3   OH215614   0.670   2.661   0.812
 5203TIP3    H115615   0.763   2.639   0.812
 5203TIP3    H215616   0.640   2.636   0.725
 5204TIP3   OH215617   5.662   1.381   4.964
 5204TIP3    H115618   5.710   1.413   5.040
 5204TIP3    H215619   5.573   1.413   4.977
 5205TIP3   OH215620   4.689   0.826   0.805
 5205TIP3    H115621   4.782   0.818   0.826
 5205TIP3    H215622   4.667   0.916   0.831
 5206TIP3   OH215623   3.073   0.400   2.262
 5206TIP3    H115624   3.162   0.411   2.293
 5206TIP3    H215625   3.044   0.489   2.241
 5207TIP3   OH215626   2.323   4.810   2.963
 5207TIP3    H115627   2.232   4.839   2.956
 5207TIP3    H215628   2.368   4.882   3.008
 5208TIP3   OH215629   4.645   1.520   3.240
 5208TIP3    H115630   4.566   1.482   3.200
 5208TIP3    H215631   4.628   1.614   3.242
 5209TIP3   OH215632   0.191   5.139   1.176
 5209TIP3    H115633   0.238   5.059   1.150
 5209TIP3    H215634   0.225   5.206   1.116
 5210TIP3   OH215635   6.335   4.097   3.586
 5210TIP3    H115636   6.285   4.018   3.604
 5210TIP3    H215637   6.396   4.071   3.517
 5211TIP3   OH215638   1.486   4.851   4.915
 5211TIP3    H115639   1.395   4.881   4.916
 5211TIP3    H215640   1.480   4.759   4.941
 5212TIP3   OH215641   3.668   3.715   0.895
 5212TIP3    H115642   3.691   3.653   0.964
 5212TIP3    H215643   3.579   3.690   0.869
 5213TIP3   OH215644   6.109   2.762   0.285
 5213TIP3    H115645   6.053   2.688   0.262
 5213TIP3    H215646   6.191   2.722   0.316
 5214TIP3   OH215647   3.300   4.791   2.141
 5214TIP3    H115648   3.238   4.807   2.070
 5214TIP3    H215649   3.245   4.775   2.218
 5215TIP3   OH215650   3.349   0.684   1.631
 5215TIP3    H115651   3.319   0.674   1.540
 5215TIP3    H215652   3.287   0.746   1.670
 5216TIP3   OH215653   3.790   0.596   4.243
 5216TIP3    H115654   3.744   0.619   4.324
 5216TIP3    H215655   3.721   0.585   4.178
 5217TIP3   OH215656   0.610   3.083   1.444
 5217TIP3    H115657   0.604   3.008   1.385
 5217TIP3    H215658   0.553   3.149   1.405
 5218TIP3   OH215659   3.818   5.043   2.957
 5218TIP3    H115660   3.821   5.137   2.940
 5218TIP3    H215661   3.852   5.033   3.047
 5219TIP3   OH215662   3.377   3.975   3.378
 5219TIP3    H115663   3.422   3.894   3.398
 5219TIP3    H215664   3.286   3.949   3.362
 5220TIP3   OH215665   0.766   4.706   3.205
 5220TIP3    H115666   0.688   4.751   3.237
 5220TIP3    H215667   0.751   4.697   3.111
 5221TIP3   OH215668   5.876   5.932   2.235
 5221TIP3    H115669   5.790   5.901   2.207
 5221TIP3    H215670   5.912   5.975   2.157
 5222TIP3   OH215671   5.688   4.545   4.798
 5222TIP3    H115672   5.658   4.586   4.717
 5222TIP3    H215673   5.753   4.606   4.833
 5223TIP3   OH215674   5.267   1.031   0.083
 5223TIP3    H115675   5.359   1.014   0.100
 5223TIP3    H215676   5.235   0.951   0.042
 5224TIP3   OH215677   3.285   4.646   0.474
 5224TIP3    H115678   3.225   4.624   0.546
 5224TIP3    H215679   3.330   4.564   0.455
 5225TIP3   OH215680   6.271   4.483   4.971
 5225TIP3    H115681   6.206   4.553   4.972
 5225TIP3    H215682   6.268   4.446   5.060
 5226TIP3   OH215683   0.721   2.460   4.579
 5226TIP3    H115684   0.629   2.452   4.552
 5226TIP3    H215685   0.769   2.467   4.497
 5227TIP3   OH215686   4.758   4.961   4.326
 5227TIP3    H115687   4.663   4.951   4.325
 5227TIP3    H215688   4.774   5.026   4.394
 5228TIP3   OH215689   3.118   2.953   1.398
 5228TIP3    H115690   3.123   2.945   1.302
 5228TIP3    H215691   3.049   2.892   1.423
 5229TIP3   OH215692   2.653   2.544   4.631
 5229TIP3    H115693   2.601   2.535   4.551
 5229TIP3    H215694   2.656   2.639   4.646
 5230TIP3   OH215695   3.762   3.597   3.849
 5230TIP3    H115696   3.828   3.636   3.792
 5230TIP3    H215697   3.776   3.639   3.934
 5231TIP3   OH215698   0.389   0.482   1.412
 5231TIP3    H115699   0.358   0.513   1.327
 5231TIP3    H215700   0.311   0.479   1.467
 5232TIP3   OH215701   4.779   5.044   4.080
 5232TIP3    H115702   4.710   5.107   4.058
 5232TIP3    H215703   4.746   4.998   4.157
 5233TIP3   OH215704   6.019   2.351   2.933
 5233TIP3    H115705   6.112   2.361   2.954
 5233TIP3    H215706   5.981   2.312   3.012
 5234TIP3   OH215707   2.102   3.036   3.421
 5234TIP3    H115708   2.049   2.968   3.462
 5234TIP3    H215709   2.053   3.060   3.342
 5235TIP3   OH215710   4.729   5.636   0.093
 5235TIP3    H115711   4.771   5.630   0.179
 5235TIP3    H215712   4.784   5.698   0.044
 5236TIP3   OH215713   4.655   5.512   5.024
 5236TIP3    H115714   4.608   5.488   4.944
 5236TIP3    H215715   4.738   5.464   5.018
 5237TIP3   OH215716   6.112   3.652   4.291
 5237TIP3    H115717   6.168   3.688   4.360
 5237TIP3    H215718   6.133   3.559   4.289
 5238TIP3   OH215719   2.010   0.216   2.035
 5238TIP3    H115720   2.042   0.147   2.093
 5238TIP3    H215721   2.063   0.293   2.057
 5239TIP3   OH215722   1.563   5.256   2.146
 5239TIP3    H115723   1.567   5.202   2.068
 5239TIP3    H215724   1.485   5.309   2.134
 5240TIP3   OH215725   1.563   4.393   1.686
 5240TIP3    H115726   1.605   4.396   1.600
 5240TIP3    H215727   1.524   4.306   1.691
 5241TIP3   OH215728   0.339   2.321   1.000
 5241TIP3    H115729   0.259   2.342   0.951
 5241TIP3    H215730   0.347   2.393   1.063
 5242TIP3   OH215731   0.293   4.963   4.018
 5242TIP3    H115732   0.220   4.955   4.080
 5242TIP3    H215733   0.347   4.886   4.036
 5243TIP3   OH215734   3.516   4.512   3.205
 5243TIP3    H115735   3.532   4.421   3.231
 5243TIP3    H215736   3.510   4.509   3.110
 5244TIP3   OH215737   6.366   4.557   1.161
 5244TIP3    H115738   6.286   4.524   1.201
 5244TIP3    H215739   6.338   4.594   1.077
 5245TIP3   OH215740   1.745   1.908   0.885
 5245TIP3    H115741   1.759   1.816   0.863
 5245TIP3    H215742   1.744   1.953   0.801
 5246TIP3   OH215743   1.148   5.315   4.234
 5246TIP3    H115744   1.195   5.394   4.208
 5246TIP3    H215745   1.201   5.277   4.303
 5247TIP3   OH215746   0.584   3.607   3.950
 5247TIP3    H115747   0.619   3.603   4.039
 5247TIP3    H215748   0.490   3.619   3.962
 5248TIP3   OH215749   1.187   3.883   5.026
 5248TIP3    H115750   1.259   3.850   4.972
 5248TIP3    H215751   1.226   3.899   5.112
 5249TIP3   OH215752   6.303   0.665   0.698
 5249TIP3    H115753   6.340   0.732   0.639
 5249TIP3    H215754   6.347   0.680   0.782
 5250TIP3   OH215755   4.312   4.602   3.941
 5250TIP3    H115756   4.308   4.554   4.024
 5250TIP3    H215757   4.242   4.564   3.888
 5251TIP3   OH215758   1.434   1.072   3.927
 5251TIP3    H115759   1.490   1.092   3.852
 5251TIP3    H215760   1.490   1.022   3.986
 5252TIP3   OH215761   4.966   2.148   1.080
 5252TIP3    H115762   5.041   2.175   1.027
 5252TIP3    H215763   4.997   2.157   1.170
 5253TIP3   OH215764   3.351   1.697   3.820
 5253TIP3    H115765   3.285   1.629   3.807
 5253TIP3    H215766   3.347   1.751   3.741
 5254TIP3   OH215767   3.195   2.650   0.081
 5254TIP3    H115768   3.205   2.710   0.006
 5254TIP3    H215769   3.233   2.568   0.051
 5255TIP3   OH215770   0.154   1.024   4.538
 5255TIP3    H115771   0.225   1.081   4.569
 5255TIP3    H215772   0.109   1.076   4.471
 5256TIP3   OH215773   0.589   0.633   0.307
 5256TIP3    H115774   0.606   0.579   0.229
 5256TIP3    H215775   0.668   0.686   0.318
 5257TIP3   OH215776   5.764   2.608   4.198
 5257TIP3    H115777   5.794   2.692   4.232
 5257TIP3    H215778   5.689   2.630   4.142
 5258TIP3   OH215779   1.734   3.789   3.119
 5258TIP3    H115780   1.668   3.728   3.086
 5258TIP3    H215781   1.684   3.857   3.164
 5259TIP3   OH215782   4.062   5.141   2.761
 5259TIP3    H115783   4.147   5.183   2.746
 5259TIP3    H215784   4.056   5.131   2.856
 5260TIP3   OH215785   0.387   0.726   3.802
 5260TIP3    H115786   0.368   0.636   3.778
 5260TIP3    H215787   0.335   0.742   3.881
 5261TIP3   OH215788   4.480   0.237   3.822
 5261TIP3    H115789   4.516   0.284   3.747
 5261TIP3    H215790   4.480   0.145   3.796
 5262TIP3   OH215791   5.007   4.526   5.248
 5262TIP3    H115792   4.930   4.525   5.191
 5262TIP3    H215793   5.082   4.532   5.187
 5263TIP3   OH215794   0.543   5.534   0.805
 5263TIP3    H115795   0.551   5.499   0.893
 5263TIP3    H215796   0.572   5.625   0.813
 5264TIP3   OH215797   5.162   1.564   0.119
 5264TIP3    H115798   5.120   1.479   0.134
 5264TIP3    H215799   5.090   1.624   0.100
 5265TIP3   OH215800   3.956   5.894   0.925
 5265TIP3    H115801   3.951   5.975   0.975
 5265TIP3    H215802   4.033   5.905   0.869
 5266TIP3   OH215803   6.099   2.725   1.698
 5266TIP3    H115804   6.090   2.638   1.659
 5266TIP3    H215805   6.144   2.710   1.782
 5267TIP3   OH215806   2.076   2.353   3.425
 5267TIP3    H115807   2.001   2.322   3.476
 5267TIP3    H215808   2.093   2.282   3.363
 5268TIP3   OH215809   2.073   1.545   2.989
 5268TIP3    H115810   2.078   1.618   3.050
 5268TIP3    H215811   1.992   1.558   2.941
 5269TIP3   OH215812   2.451   0.249   0.496
 5269TIP3    H115813   2.483   0.258   0.586
 5269TIP3    H215814   2.477   0.160   0.471
 5270TIP3   OH215815   0.496   3.727   0.596
 5270TIP3    H115816   0.481   3.808   0.646
 5270TIP3    H215817   0.585   3.737   0.561
 5271TIP3   OH215818   1.287   4.440   4.883
 5271TIP3    H115819   1.263   4.348   4.892
 5271TIP3    H215820   1.210   4.488   4.914
 5272TIP3   OH215821   4.138   3.652   1.546
 5272TIP3    H115822   4.176   3.735   1.574
 5272TIP3    H215823   4.086   3.622   1.621
 5273TIP3   OH215824   6.010   0.440   1.719
 5273TIP3    H115825   6.045   0.528   1.730
 5273TIP3    H215826   5.915   0.453   1.710
 5274TIP3   OH215827   4.967   0.562   2.403
 5274TIP3    H115828   5.027   0.636   2.401
 5274TIP3    H215829   5.008   0.496   2.348
 5275TIP3   OH215830   2.166   3.209   1.706
 5275TIP3    H115831   2.212   3.261   1.641
 5275TIP3    H215832   2.078   3.248   1.711
 5276TIP3   OH215833   3.431   2.344   3.439
 5276TIP3    H115834   3.360   2.406   3.424
 5276TIP3    H215835   3.431   2.289   3.361
 5277TIP3   OH215836   2.175   2.861   2.723
 5277TIP3    H115837   2.087   2.841   2.753
 5277TIP3    H215838   2.232   2.833   2.794
 5278TIP3   OH215839   1.339   4.826   3.512
 5278TIP3    H115840   1.262   4.770   3.526
 5278TIP3    H215841   1.413   4.774   3.544
 5279TIP3   OH215842   0.775   5.185   0.821
 5279TIP3    H115843   0.784   5.271   0.779
 5279TIP3    H215844   0.735   5.204   0.906
 5280TIP3   OH215845   6.067   2.642   2.000
 5280TIP3    H115846   6.106   2.727   2.021
 5280TIP3    H215847   6.137   2.594   1.954
 5281TIP3   OH215848   5.849   4.936   1.509
 5281TIP3    H115849   5.893   4.909   1.589
 5281TIP3    H215850   5.814   4.855   1.472
 5282TIP3   OH215851   6.028   0.918   4.050
 5282TIP3    H115852   5.954   0.917   4.110
 5282TIP3    H215853   6.086   0.848   4.082
 5283TIP3   OH215854   4.521   4.632   1.385
 5283TIP3    H115855   4.437   4.679   1.385
 5283TIP3    H215856   4.581   4.691   1.341
 5284TIP3   OH215857   1.801   1.156   3.972
 5284TIP3    H115858   1.764   1.086   4.026
 5284TIP3    H215859   1.798   1.122   3.883
 5285TIP3   OH215860   1.308   4.481   2.742
 5285TIP3    H115861   1.394   4.476   2.701
 5285TIP3    H215862   1.286   4.574   2.737
 5286TIP3   OH215863   5.021   4.408   2.790
 5286TIP3    H115864   5.012   4.392   2.696
 5286TIP3    H215865   5.085   4.343   2.820
 5287TIP3   OH215866   4.117   4.892   2.577
 5287TIP3    H115867   4.179   4.936   2.519
 5287TIP3    H215868   4.087   4.961   2.636
 5288TIP3   OH215869   3.413   4.570   4.977
 5288TIP3    H115870   3.343   4.593   4.916
 5288TIP3    H215871   3.493   4.603   4.936
 5289TIP3   OH215872   6.268   5.747   1.413
 5289TIP3    H115873   6.274   5.780   1.502
 5289TIP3    H215874   6.320   5.807   1.361
 5290TIP3   OH215875   2.529   5.028   2.274
 5290TIP3    H115876   2.538   5.114   2.316
 5290TIP3    H215877   2.522   4.967   2.348
 5291TIP3   OH215878   1.278   0.497   3.178
 5291TIP3    H115879   1.237   0.584   3.176
 5291TIP3    H215880   1.204   0.436   3.184
 5292TIP3   OH215881   4.213   0.329   3.832
 5292TIP3    H115882   4.298   0.363   3.859
 5292TIP3    H215883   4.191   0.379   3.753
 5293TIP3   OH215884   2.368   0.507   4.294
 5293TIP3    H115885   2.272   0.513   4.302
 5293TIP3    H215886   2.385   0.413   4.289
 5294TIP3   OH215887   3.771   0.622   0.301
 5294TIP3    H115888   3.781   0.532   0.271
 5294TIP3    H215889   3.850   0.666   0.270
 5295TIP3   OH215890   2.342   5.331   1.035
 5295TIP3    H115891   2.332   5.255   1.092
 5295TIP3    H215892   2.326   5.297   0.947
 5296TIP3   OH215893   1.132   5.142   5.101
 5296TIP3    H115894   1.161   5.075   5.163
 5296TIP3    H215895   1.036   5.143   5.111
 5297TIP3   OH215896   4.906   1.178   4.575
 5297TIP3    H115897   4.841   1.249   4.570
 5297TIP3    H215898   4.968   1.207   4.642
 5298TIP3   OH215899   6.194   5.653   0.809
 5298TIP3    H115900   6.200   5.694   0.895
 5298TIP3    H215901   6.121   5.590   0.818
 5299TIP3   OH215902   4.881   5.400   4.972
 5299TIP3    H115903   4.949   5.457   5.007
 5299TIP3    H215904   4.925   5.318   4.953
 5300TIP3   OH215905   0.650   4.328   4.206
 5300TIP3    H115906   0.602   4.381   4.142
 5300TIP3    H215907   0.715   4.389   4.243
 5301TIP3   OH215908   1.156   0.054   3.721
 5301TIP3    H115909   1.220  -0.012   3.749
 5301TIP3    H215910   1.183   0.078   3.632
 5302TIP3   OH215911   2.845   3.220   2.468
 5302TIP3    H115912   2.811   3.181   2.549
 5302TIP3    H215913   2.809   3.166   2.398
 5303TIP3   OH215914   0.720   4.310   1.335
 5303TIP3    H115915   0.652   4.307   1.402
 5303TIP3    H215916   0.683   4.263   1.260
 5304TIP3   OH215917   6.325   5.796   3.310
 5304TIP3    H115918   6.243   5.842   3.292
 5304TIP3    H215919   6.362   5.842   3.385
 5305TIP3   OH215920   4.162   0.934   4.356
 5305TIP3    H115921   4.101   0.875   4.313
 5305TIP3    H215922   4.142   0.926   4.449
 5306TIP3   OH215923   3.602   2.796   3.485
 5306TIP3    H115924   3.530   2.819   3.426
 5306TIP3    H215925   3.569   2.820   3.572
 5307TIP3   OH215926   5.966   4.655   2.531
 5307TIP3    H115927   6.055   4.646   2.565
 5307TIP3    H215928   5.955   4.749   2.516
 5308TIP3   OH215929   5.006   3.991   0.392
 5308TIP3    H115930   4.915   3.981   0.417
 5308TIP3    H215931   5.049   4.027   0.470
 5309TIP3   OH215932   1.182   1.944   5.012
 5309TIP3    H115933   1.213   1.860   4.979
 5309TIP3    H215934   1.155   1.926   5.102
 5310TIP3   OH215935   4.374   3.394   3.879
 5310TIP3    H115936   4.351   3.318   3.824
 5310TIP3    H215937   4.387   3.357   3.966
 5311TIP3   OH215938  -0.010   5.957   4.154
 5311TIP3    H115939  -0.036   5.953   4.246
 5311TIP3    H215940   0.024   5.869   4.135
 5312TIP3   OH215941   1.168   3.935   3.965
 5312TIP3    H115942   1.181   3.896   3.878
 5312TIP3    H215943   1.125   4.019   3.947
 5313TIP3   OH215944   3.955   5.800   2.648
 5313TIP3    H115945   3.862   5.793   2.625
 5313TIP3    H215946   3.956   5.811   2.743
 5314TIP3   OH215947   3.292   4.534   3.377
 5314TIP3    H115948   3.297   4.439   3.372
 5314TIP3    H215949   3.375   4.565   3.340
 5315TIP3   OH215950   4.974   5.306   0.832
 5315TIP3    H115951   5.018   5.251   0.898
 5315TIP3    H215952   5.001   5.268   0.748
 5316TIP3   OH215953   4.700   1.007   3.989
 5316TIP3    H115954   4.678   1.041   4.075
 5316TIP3    H215955   4.654   1.065   3.927
 5317TIP3   OH215956   0.209   3.642   0.760
 5317TIP3    H115957   0.155   3.680   0.830
 5317TIP3    H215958   0.299   3.653   0.791
 5318TIP3   OH215959   1.753   1.034   0.466
 5318TIP3    H115960   1.841   1.068   0.478
 5318TIP3    H215961   1.696   1.110   0.478
 5319TIP3   OH215962   2.841   5.335   1.646
 5319TIP3    H115963   2.795   5.412   1.680
 5319TIP3    H215964   2.927   5.369   1.622
 5320TIP3   OH215965   3.914   5.140   2.326
 5320TIP3    H115966   3.899   5.118   2.418
 5320TIP3    H215967   3.908   5.057   2.280
 5321TIP3   OH215968   3.412   0.445   1.999
 5321TIP3    H115969   3.474   0.490   1.941
 5321TIP3    H215970   3.331   0.496   1.991
 5322TIP3   OH215971   4.283   3.877   1.222
 5322TIP3    H115972   4.229   3.808   1.185
 5322TIP3    H215973   4.232   3.910   1.296
 5323TIP3   OH215974   5.562   0.912   0.850
 5323TIP3    H115975   5.559   0.984   0.786
 5323TIP3    H215976   5.605   0.841   0.803
 5324TIP3   OH215977   2.788   5.476   4.848
 5324TIP3    H115978   2.793   5.459   4.754
 5324TIP3    H215979   2.859   5.424   4.887
 5325TIP3   OH215980   4.680   2.822   4.905
 5325TIP3    H115981   4.721   2.736   4.903
 5325TIP3    H215982   4.722   2.867   4.979
 5326TIP3   OH215983   0.836   1.032   3.993
 5326TIP3    H115984   0.929   1.014   3.987
 5326TIP3    H215985   0.802   0.963   4.050
 5327TIP3   OH215986   5.094   4.530   4.382
 5327TIP3    H115987   5.125   4.454   4.432
 5327TIP3    H215988   5.043   4.493   4.311
 5328TIP3   OH215989   4.541   4.012   1.519
 5328TIP3    H115990   4.595   3.994   1.596
 5328TIP3    H215991   4.596   3.989   1.445
 5329TIP3   OH215992   0.392   5.020   5.105
 5329TIP3    H115993   0.364   4.964   5.177
 5329TIP3    H215994   0.406   4.959   5.032
 5330TIP3   OH215995   2.373   2.472   3.942
 5330TIP3    H115996   2.363   2.426   3.858
 5330TIP3    H215997   2.289   2.516   3.955
 5331TIP3   OH215998   2.709   2.586   1.972
 5331TIP3    H115999   2.735   2.535   2.049
 5331TIP3    H216000   2.749   2.540   1.898
 5332TIP3   OH216001   1.937   5.685   3.503
 5332TIP3    H116002   1.965   5.719   3.418
 5332TIP3    H216003   1.956   5.592   3.499
 5333TIP3   OH216004   3.099   1.828   4.143
 5333TIP3    H116005   3.029   1.770   4.173
 5333TIP3    H216006   3.081   1.912   4.185
 5334TIP3   OH216007   4.772   4.342   0.035
 5334TIP3    H116008   4.686   4.323   0.073
 5334TIP3    H216009   4.816   4.257   0.033
 5335TIP3   OH216010   3.311   5.234   1.271
 5335TIP3    H116011   3.309   5.321   1.233
 5335TIP3    H216012   3.311   5.248   1.366
 5336TIP3   OH216013   6.225   1.246   3.799
 5336TIP3    H116014   6.302   1.299   3.817
 5336TIP3    H216015   6.244   1.161   3.840
 5337TIP3   OH216016   2.044   2.078   2.501
 5337TIP3    H116017   1.990   2.151   2.529
 5337TIP3    H216018   1.984   2.019   2.456
 5338TIP3   OH216019   2.153   2.619   1.249
 5338TIP3    H116020   2.067   2.660   1.239
 5338TIP3    H216021   2.162   2.563   1.172
 5339TIP3   OH216022   5.053   5.183   1.911
 5339TIP3    H116023   5.087   5.104   1.953
 5339TIP3    H216024   4.966   5.194   1.948
 5340TIP3   OH216025   0.008   2.670   0.793
 5340TIP3    H116026   0.098   2.683   0.763
 5340TIP3    H216027   0.016   2.618   0.873
 5341TIP3   OH216028   2.647   4.528   5.095
 5341TIP3    H116029   2.566   4.482   5.075
 5341TIP3    H216030   2.633   4.567   5.181
 5342TIP3   OH216031   4.850   4.759   2.422
 5342TIP3    H116032   4.916   4.732   2.486
 5342TIP3    H216033   4.893   4.828   2.371
 5343TIP3   OH216034   2.648   3.547   4.593
 5343TIP3    H116035   2.645   3.514   4.503
 5343TIP3    H216036   2.609   3.634   4.588
 5344TIP3   OH216037   4.900   4.752   3.111
 5344TIP3    H116038   4.874   4.832   3.156
 5344TIP3    H216039   4.985   4.728   3.150
 5345TIP3   OH216040   1.789   0.578   0.804
 5345TIP3    H116041   1.807   0.525   0.881
 5345TIP3    H216042   1.873   0.583   0.758
 5346TIP3   OH216043   3.513   3.838   2.808
 5346TIP3    H116044   3.607   3.831   2.790
 5346TIP3    H216045   3.507   3.847   2.903
 5347TIP3   OH216046   2.975   3.505   0.141
 5347TIP3    H116047   2.986   3.588   0.094
 5347TIP3    H216048   2.883   3.481   0.127
 5348TIP3   OH216049   0.118   4.644   3.920
 5348TIP3    H116050   0.119   4.622   4.013
 5348TIP3    H216051   0.034   4.687   3.907
 5349TIP3   OH216052   1.214   3.704   3.403
 5349TIP3    H116053   1.177   3.788   3.378
 5349TIP3    H216054   1.203   3.648   3.326
 5350TIP3   OH216055   5.150   4.856   5.043
 5350TIP3    H116056   5.219   4.921   5.029
 5350TIP3    H216057   5.150   4.804   4.963
 5351TIP3   OH216058   4.240   4.584   0.320
 5351TIP3    H116059   4.288   4.649   0.270
 5351TIP3    H216060   4.294   4.505   0.315
 5352TIP3   OH216061   1.887   1.602   3.298
 5352TIP3    H116062   1.962   1.601   3.358
 5352TIP3    H216063   1.811   1.610   3.356
 5353TIP3   OH216064   3.199   1.793   4.980
 5353TIP3    H116065   3.103   1.797   4.974
 5353TIP3    H216066   3.228   1.778   4.890
 5354TIP3   OH216067   3.858   4.651   4.318
 5354TIP3    H116068   3.953   4.641   4.322
 5354TIP3    H216069   3.828   4.576   4.268
 5355TIP3   OH216070   2.554   1.426   2.542
 5355TIP3    H116071   2.483   1.392   2.597
 5355TIP3    H216072   2.587   1.350   2.495
 5356TIP3   OH216073   6.041   5.882   3.699
 5356TIP3    H116074   6.028   5.975   3.715
 5356TIP3    H216075   5.988   5.863   3.622
 5357TIP3   OH216076   3.864   3.524   0.577
 5357TIP3    H116077   3.862   3.607   0.624
 5357TIP3    H216078   3.871   3.548   0.484
 5358TIP3   OH216079   3.834   2.757   3.974
 5358TIP3    H116080   3.811   2.836   4.023
 5358TIP3    H216081   3.912   2.723   4.018
 5359TIP3   OH216082   2.397   5.642   3.438
 5359TIP3    H116083   2.360   5.670   3.354
 5359TIP3    H216084   2.477   5.595   3.414
 5360TIP3   OH216085   5.359   2.587   1.518
 5360TIP3    H116086   5.402   2.553   1.597
 5360TIP3    H216087   5.408   2.549   1.446
 5361TIP3   OH216088   2.888   1.714   4.347
 5361TIP3    H116089   2.884   1.623   4.376
 5361TIP3    H216090   2.818   1.722   4.282
 5362TIP3   OH216091   0.271   4.801   1.051
 5362TIP3    H116092   0.264   4.717   1.095
 5362TIP3    H216093   0.215   4.792   0.974
 5363TIP3   OH216094   2.062   3.913   2.146
 5363TIP3    H116095   2.066   3.995   2.097
 5363TIP3    H216096   2.022   3.937   2.229
 5364TIP3   OH216097   6.311   3.107   2.099
 5364TIP3    H116098   6.250   3.113   2.024
 5364TIP3    H216099   6.272   3.040   2.155
 5365TIP3   OH216100   2.399   4.565   4.463
 5365TIP3    H116101   2.493   4.545   4.465
 5365TIP3    H216102   2.379   4.581   4.371
 5366TIP3   OH216103   3.019   1.019   2.435
 5366TIP3    H116104   2.939   0.967   2.433
 5366TIP3    H216105   3.059   1.007   2.349
 5367TIP3   OH216106   1.593   1.154   3.281
 5367TIP3    H116107   1.643   1.105   3.346
 5367TIP3    H216108   1.523   1.094   3.254
 5368TIP3   OH216109   2.759   0.715   2.707
 5368TIP3    H116110   2.783   0.805   2.687
 5368TIP3    H216111   2.778   0.705   2.801
 5369TIP3   OH216112   4.726   2.131   4.620
 5369TIP3    H116113   4.815   2.106   4.645
 5369TIP3    H216114   4.731   2.143   4.525
 5370TIP3   OH216115   0.530   5.796   1.919
 5370TIP3    H116116   0.596   5.847   1.966
 5370TIP3    H216117   0.569   5.710   1.907
 5371TIP3   OH216118   5.034   1.654   3.660
 5371TIP3    H116119   5.116   1.611   3.682
 5371TIP3    H216120   5.058   1.721   3.596
 5372TIP3   OH216121   0.096   1.119   2.122
 5372TIP3    H116122   0.145   1.149   2.198
 5372TIP3    H216123   0.149   1.146   2.047
 5373TIP3   OH216124   3.898   5.334   2.998
 5373TIP3    H116125   3.923   5.403   2.936
 5373TIP3    H216126   3.974   5.326   3.057
 5374TIP3   OH216127   5.219   3.420   4.372
 5374TIP3    H116128   5.166   3.470   4.435
 5374TIP3    H216129   5.154   3.376   4.316
 5375TIP3   OH216130   0.702   1.525   3.411
 5375TIP3    H116131   0.743   1.545   3.495
 5375TIP3    H216132   0.769   1.545   3.346
 5376TIP3   OH216133   5.939   5.657   4.369
 5376TIP3    H116134   5.909   5.640   4.279
 5376TIP3    H216135   5.995   5.733   4.362
 5377TIP3   OH216136   3.267   2.424   1.072
 5377TIP3    H116137   3.332   2.358   1.046
 5377TIP3    H216138   3.284   2.440   1.165
 5378TIP3   OH216139   3.164   4.296   4.032
 5378TIP3    H116140   3.191   4.307   3.941
 5378TIP3    H216141   3.241   4.320   4.084
 5379TIP3   OH216142   6.009   2.102   3.730
 5379TIP3    H116143   6.023   2.172   3.666
 5379TIP3    H216144   5.917   2.109   3.754
 5380TIP3   OH216145   4.577   1.218   3.065
 5380TIP3    H116146   4.525   1.298   3.077
 5380TIP3    H216147   4.633   1.215   3.143
 5381TIP3   OH216148   5.238   2.347   0.163
 5381TIP3    H116149   5.273   2.344   0.252
 5381TIP3    H216150   5.194   2.432   0.157
 5382TIP3   OH216151   1.288   2.054   2.740
 5382TIP3    H116152   1.229   1.981   2.759
 5382TIP3    H216153   1.234   2.117   2.693
 5383TIP3   OH216154   0.938   4.374   2.597
 5383TIP3    H116155   0.873   4.367   2.667
 5383TIP3    H216156   1.017   4.334   2.634
 5384TIP3   OH216157   3.276   4.998   3.385
 5384TIP3    H116158   3.208   4.973   3.323
 5384TIP3    H216159   3.229   5.037   3.459
 5385TIP3   OH216160   2.327   0.807   3.378
 5385TIP3    H116161   2.294   0.731   3.332
 5385TIP3    H216162   2.409   0.777   3.418
 5386TIP3   OH216163   5.345   4.370   4.375
 5386TIP3    H116164   5.419   4.309   4.376
 5386TIP3    H216165   5.385   4.457   4.376
 5387TIP3   OH216166   1.055   5.439   1.638
 5387TIP3    H116167   1.025   5.484   1.559
 5387TIP3    H216168   1.002   5.359   1.641
 5388TIP3   OH216169   5.749   5.457   1.819
 5388TIP3    H116170   5.843   5.448   1.802
 5388TIP3    H216171   5.718   5.518   1.752
 5389TIP3   OH216172   3.002   2.380   1.564
 5389TIP3    H116173   2.932   2.353   1.505
 5389TIP3    H216174   2.960   2.443   1.623
 5390TIP3   OH216175   5.471   5.772   0.742
 5390TIP3    H116176   5.549   5.748   0.691
 5390TIP3    H216177   5.504   5.782   0.832
 5391TIP3   OH216178   1.977   3.406   5.196
 5391TIP3    H116179   1.988   3.423   5.102
 5391TIP3    H216180   1.925   3.326   5.200
 5392TIP3   OH216181   2.469   3.797   4.453
 5392TIP3    H116182   2.390   3.848   4.468
 5392TIP3    H216183   2.520   3.807   4.534
 5393TIP3   OH216184   4.879   5.322   1.332
 5393TIP3    H116185   4.844   5.292   1.249
 5393TIP3    H216186   4.974   5.317   1.321
 5394TIP3   OH216187   4.385   1.120   1.120
 5394TIP3    H116188   4.476   1.097   1.140
 5394TIP3    H216189   4.391   1.190   1.055
 5395TIP3   OH216190   4.031   3.908   0.835
 5395TIP3    H116191   3.987   3.981   0.880
 5395TIP3    H216192   3.972   3.886   0.763
 5396TIP3   OH216193   6.045   1.244   0.480
 5396TIP3    H116194   5.954   1.222   0.502
 5396TIP3    H216195   6.039   1.288   0.395
 5397TIP3   OH216196   3.085   4.408   3.066
 5397TIP3    H116197   3.167   4.379   3.027
 5397TIP3    H216198   3.056   4.334   3.120
 5398TIP3   OH216199   3.668   2.404   2.277
 5398TIP3    H116200   3.579   2.416   2.309
 5398TIP3    H216201   3.665   2.431   2.185
 5399TIP3   OH216202   5.128   3.495   1.861
 5399TIP3    H116203   5.219   3.523   1.869
 5399TIP3    H216204   5.087   3.521   1.943
 5400TIP3   OH216205   1.542   0.234   1.549
 5400TIP3    H116206   1.632   0.260   1.568
 5400TIP3    H216207   1.550   0.149   1.506
 5401TIP3   OH216208   2.800   2.805   3.720
 5401TIP3    H116209   2.752   2.855   3.654
 5401TIP3    H216210   2.797   2.715   3.688
 5402TIP3   OH216211   1.187   1.837   4.153
 5402TIP3    H116212   1.193   1.818   4.247
 5402TIP3    H216213   1.139   1.764   4.116
 5403TIP3   OH216214   0.805   2.583   4.966
 5403TIP3    H116215   0.800   2.488   4.972
 5403TIP3    H216216   0.791   2.614   5.055
 5404TIP3   OH216217   0.265   1.280   5.105
 5404TIP3    H116218   0.176   1.254   5.125
 5404TIP3    H216219   0.256   1.356   5.048
 5405TIP3   OH216220   5.945   3.396   1.966
 5405TIP3    H116221   5.890   3.396   1.887
 5405TIP3    H216222   5.916   3.473   2.015
 5406TIP3   OH216223   0.928   4.185   1.492
 5406TIP3    H116224   0.861   4.218   1.433
 5406TIP3    H216225   0.966   4.110   1.446
 5407TIP3   OH216226   0.013   3.849   4.899
 5407TIP3    H116227  -0.003   3.852   4.805
 5407TIP3    H216228  -0.053   3.787   4.933
 5408TIP3   OH216229   3.768   3.667   1.382
 5408TIP3    H116230   3.751   3.619   1.464
 5408TIP3    H216231   3.718   3.748   1.392
 5409TIP3   OH216232   3.350   5.657   0.604
 5409TIP3    H116233   3.258   5.683   0.596
 5409TIP3    H216234   3.366   5.650   0.698
 5410TIP3   OH216235   3.005   4.185   1.672
 5410TIP3    H116236   3.033   4.275   1.689
 5410TIP3    H216237   2.975   4.153   1.756
 5411TIP3   OH216238   3.943   3.828   4.965
 5411TIP3    H116239   3.944   3.827   4.869
 5411TIP3    H216240   4.032   3.853   4.989
 5412TIP3   OH216241   4.543   2.591   3.964
 5412TIP3    H116242   4.465   2.603   3.910
 5412TIP3    H216243   4.510   2.552   4.045
 5413TIP3   OH216244   2.033   4.402   2.030
 5413TIP3    H116245   2.057   4.344   2.102
 5413TIP3    H216246   1.942   4.426   2.049
 5414TIP3   OH216247   5.746   0.042   3.801
 5414TIP3    H116248   5.830   0.084   3.820
 5414TIP3    H216249   5.763  -0.052   3.809
 5415TIP3   OH216250   5.268   2.982   4.652
 5415TIP3    H116251   5.228   2.910   4.604
 5415TIP3    H216252   5.194   3.031   4.688
 5416TIP3   OH216253   5.296   3.395   4.672
 5416TIP3    H116254   5.320   3.429   4.586
 5416TIP3    H216255   5.375   3.350   4.703
 5417TIP3   OH216256   5.507   5.356   3.709
 5417TIP3    H116257   5.597   5.375   3.736
 5417TIP3    H216258   5.481   5.432   3.659
 5418TIP3   OH216259   1.358   5.238   0.320
 5418TIP3    H116260   1.284   5.269   0.371
 5418TIP3    H216261   1.354   5.142   0.326
 5419TIP3   OH216262   6.034   4.204   3.912
 5419TIP3    H116263   5.979   4.145   3.862
 5419TIP3    H216264   6.104   4.148   3.946
 5420TIP3   OH216265   5.769   3.563   1.219
 5420TIP3    H116266   5.730   3.558   1.132
 5420TIP3    H216267   5.830   3.489   1.223
 5421TIP3   OH216268   6.004   1.088   2.106
 5421TIP3    H116269   5.944   1.058   2.037
 5421TIP3    H216270   6.063   1.148   2.061
 5422TIP3   OH216271   1.401   0.238   2.182
 5422TIP3    H116272   1.409   0.307   2.116
 5422TIP3    H216273   1.310   0.209   2.175
 5423TIP3   OH216274   2.704   2.748   2.414
 5423TIP3    H116275   2.629   2.801   2.387
 5423TIP3    H216276   2.762   2.810   2.460
 5424TIP3   OH216277   6.169   5.502   5.159
 5424TIP3    H116278   6.100   5.457   5.109
 5424TIP3    H216279   6.151   5.595   5.146
 5425TIP3   OH216280   6.071   5.429   4.904
 5425TIP3    H116281   6.056   5.514   4.862
 5425TIP3    H216282   6.000   5.373   4.873
 5426TIP3   OH216283   0.361   2.397   1.446
 5426TIP3    H116284   0.361   2.479   1.495
 5426TIP3    H216285   0.270   2.366   1.450
 5427TIP3   OH216286   3.891   1.949   4.377
 5427TIP3    H116287   3.823   2.009   4.409
 5427TIP3    H216288   3.843   1.868   4.356
 5428TIP3   OH216289   0.073   1.125   0.178
 5428TIP3    H116290   0.116   1.100   0.260
 5428TIP3    H216291   0.144   1.129   0.114
 5429TIP3   OH216292   2.796   1.044   3.996
 5429TIP3    H116293   2.774   1.072   4.085
 5429TIP3    H216294   2.890   1.057   3.990
 5430TIP3   OH216295   3.237   4.223   4.486
 5430TIP3    H116296   3.144   4.238   4.467
 5430TIP3    H216297   3.283   4.264   4.413
 5431TIP3   OH216298   5.229   2.355   3.277
 5431TIP3    H116299   5.288   2.416   3.232
 5431TIP3    H216300   5.198   2.404   3.353
 5432TIP3   OH216301   2.127   4.393   3.955
 5432TIP3    H116302   2.094   4.421   3.869
 5432TIP3    H216303   2.102   4.301   3.961
 5433TIP3   OH216304   4.911   5.666   1.336
 5433TIP3    H116305   4.928   5.720   1.413
 5433TIP3    H216306   4.997   5.630   1.313
 5434TIP3   OH216307   2.922   5.478   1.096
 5434TIP3    H116308   2.894   5.485   1.187
 5434TIP3    H216309   2.906   5.386   1.072
 5435TIP3   OH216310   3.182   0.900   1.058
 5435TIP3    H116311   3.126   0.858   0.993
 5435TIP3    H216312   3.254   0.837   1.071
 5436TIP3   OH216313   4.480   5.169   1.532
 5436TIP3    H116314   4.391   5.176   1.565
 5436TIP3    H216315   4.490   5.244   1.473
 5437TIP3   OH216316   2.581   3.534   1.240
 5437TIP3    H116317   2.641   3.486   1.297
 5437TIP3    H216318   2.624   3.619   1.227
 5438TIP3   OH216319   4.530   5.544   3.212
 5438TIP3    H116320   4.560   5.606   3.278
 5438TIP3    H216321   4.439   5.571   3.194
 5439TIP3   OH216322   4.890   5.510   4.546
 5439TIP3    H116323   4.924   5.526   4.458
 5439TIP3    H216324   4.942   5.436   4.579
 5440TIP3   OH216325   0.324   4.490   3.266
 5440TIP3    H116326   0.412   4.456   3.283
 5440TIP3    H216327   0.316   4.487   3.170
 5441TIP3   OH216328   2.430   3.669   1.460
 5441TIP3    H116329   2.472   3.668   1.374
 5441TIP3    H216330   2.467   3.594   1.506
 5442TIP3   OH216331   4.531   3.526   2.995
 5442TIP3    H116332   4.483   3.515   2.912
 5442TIP3    H216333   4.585   3.447   3.002
 5443TIP3   OH216334   5.137   5.225   1.375
 5443TIP3    H116335   5.219   5.226   1.326
 5443TIP3    H216336   5.118   5.132   1.388
 5444TIP3   OH216337   1.182   1.980   2.340
 5444TIP3    H116338   1.152   1.969   2.430
 5444TIP3    H216339   1.121   2.044   2.302
 5445TIP3   OH216340   4.721   5.116   4.846
 5445TIP3    H116341   4.745   5.074   4.928
 5445TIP3    H216342   4.739   5.208   4.860
 5446TIP3   OH216343   4.138   3.031   0.698
 5446TIP3    H116344   4.194   2.964   0.739
 5446TIP3    H216345   4.057   2.984   0.676
 5447TIP3   OH216346   1.972   3.156   4.806
 5447TIP3    H116347   1.951   3.132   4.897
 5447TIP3    H216348   1.945   3.247   4.799
 5448TIP3   OH216349   3.184   0.673   2.879
 5448TIP3    H116350   3.182   0.709   2.791
 5448TIP3    H216351   3.169   0.748   2.936
 5449TIP3   OH216352   0.949   4.847   4.534
 5449TIP3    H116353   0.908   4.782   4.591
 5449TIP3    H216354   0.920   4.931   4.568
 5450TIP3   OH216355   4.016   3.254   4.802
 5450TIP3    H116356   4.071   3.266   4.880
 5450TIP3    H216357   4.006   3.159   4.794
 5451TIP3   OH216358   3.941   2.284   4.174
 5451TIP3    H116359   3.889   2.319   4.101
 5451TIP3    H216360   4.023   2.333   4.170
 5452TIP3   OH216361   3.168   1.804   3.299
 5452TIP3    H116362   3.247   1.760   3.268
 5452TIP3    H216363   3.099   1.738   3.291
 5453TIP3   OH216364   2.467   3.956   1.108
 5453TIP3    H116365   2.419   4.036   1.087
 5453TIP3    H216366   2.480   3.913   1.024
 5454TIP3   OH216367   1.152   3.268   4.067
 5454TIP3    H116368   1.174   3.230   4.152
 5454TIP3    H216369   1.071   3.224   4.041
 5455TIP3   OH216370   4.931   0.978   1.059
 5455TIP3    H116371   4.960   0.940   0.975
 5455TIP3    H216372   4.961   0.914   1.124
 5456TIP3   OH216373   0.614   3.796   3.100
 5456TIP3    H116374   0.685   3.809   3.163
 5456TIP3    H216375   0.651   3.822   3.016
 5457TIP3   OH216376   0.896   2.633   4.151
 5457TIP3    H116377   0.975   2.655   4.101
 5457TIP3    H216378   0.922   2.645   4.243
 5458TIP3   OH216379   2.313   5.261   1.969
 5458TIP3    H116380   2.264   5.241   1.889
 5458TIP3    H216381   2.402   5.231   1.951
 5459TIP3   OH216382   4.622   0.215   3.355
 5459TIP3    H116383   4.705   0.243   3.395
 5459TIP3    H216384   4.637   0.124   3.330
 5460TIP3   OH216385   0.053   1.456   3.594
 5460TIP3    H116386   0.044   1.439   3.688
 5460TIP3    H216387   0.125   1.400   3.567
 5461TIP3   OH216388   1.151   0.980   4.518
 5461TIP3    H116389   1.080   1.000   4.579
 5461TIP3    H216390   1.225   0.955   4.574
 5462TIP3   OH216391   4.737   4.304   3.586
 5462TIP3    H116392   4.709   4.368   3.520
 5462TIP3    H216393   4.832   4.309   3.586
 5463TIP3   OH216394   0.728   4.059   5.151
 5463TIP3    H116395   0.664   4.055   5.081
 5463TIP3    H216396   0.778   3.978   5.144
 5464TIP3   OH216397   4.582   4.564   4.936
 5464TIP3    H116398   4.550   4.641   4.982
 5464TIP3    H216399   4.674   4.557   4.961
 5465TIP3   OH216400   1.351   0.347   3.596
 5465TIP3    H116401   1.375   0.439   3.608
 5465TIP3    H216402   1.435   0.302   3.584
 5466TIP3   OH216403   5.375   1.131   1.831
 5466TIP3    H116404   5.320   1.131   1.909
 5466TIP3    H216405   5.313   1.144   1.759
 5467TIP3   OH216406   3.890   2.875   0.625
 5467TIP3    H116407   3.834   2.938   0.580
 5467TIP3    H216408   3.830   2.828   0.684
 5468TIP3   OH216409   2.919   4.291   0.880
 5468TIP3    H116410   2.868   4.210   0.885
 5468TIP3    H216411   2.854   4.359   0.861
 5469TIP3   OH216412   4.729   1.920   0.739
 5469TIP3    H116413   4.813   1.951   0.707
 5469TIP3    H216414   4.712   1.972   0.818
 5470TIP3   OH216415   4.274   2.381   2.716
 5470TIP3    H116416   4.242   2.438   2.647
 5470TIP3    H216417   4.365   2.408   2.729
 5471TIP3   OH216418   4.315   0.995   3.737
 5471TIP3    H116419   4.373   1.071   3.744
 5471TIP3    H216420   4.327   0.948   3.819
 5472TIP3   OH216421   2.309   4.190   2.693
 5472TIP3    H116422   2.353   4.274   2.682
 5472TIP3    H216423   2.252   4.182   2.616
 5473TIP3   OH216424   5.267   5.034   4.181
 5473TIP3    H116425   5.323   5.041   4.104
 5473TIP3    H216426   5.183   5.070   4.153
 5474TIP3   OH216427   3.859   4.595   4.954
 5474TIP3    H116428   3.869   4.510   4.911
 5474TIP3    H216429   3.774   4.627   4.924
 5475TIP3   OH216430   1.092   1.309   2.702
 5475TIP3    H116431   1.080   1.356   2.620
 5475TIP3    H216432   1.009   1.320   2.749
 5476TIP3   OH216433   3.097   1.802   0.774
 5476TIP3    H116434   3.164   1.773   0.835
 5476TIP3    H216435   3.082   1.894   0.796
 5477TIP3   OH216436   3.525   1.131   4.699
 5477TIP3    H116437   3.617   1.148   4.681
 5477TIP3    H216438   3.481   1.213   4.675
 5478TIP3   OH216439   3.971   0.884   3.592
 5478TIP3    H116440   3.881   0.883   3.559
 5478TIP3    H216441   3.961   0.907   3.685
 5479TIP3   OH216442   5.075   0.097   1.335
 5479TIP3    H116443   5.105   0.077   1.424
 5479TIP3    H216444   5.117   0.180   1.314
 5480TIP3   OH216445   5.448   3.119   1.058
 5480TIP3    H116446   5.378   3.067   1.098
 5480TIP3    H216447   5.522   3.058   1.051
 5481TIP3   OH216448   2.991   0.118   2.290
 5481TIP3    H116449   3.049   0.195   2.290
 5481TIP3    H216450   2.937   0.129   2.213
 5482TIP3   OH216451   0.858   2.183   4.144
 5482TIP3    H116452   0.830   2.244   4.075
 5482TIP3    H216453   0.802   2.204   4.219
 5483TIP3   OH216454  -0.026   4.066   5.093
 5483TIP3    H116455   0.039   4.024   5.148
 5483TIP3    H216456  -0.058   3.996   5.036
 5484TIP3   OH216457   1.632   3.802   2.162
 5484TIP3    H116458   1.705   3.823   2.221
 5484TIP3    H216459   1.603   3.887   2.129
 5485TIP3   OH216460   3.839   0.749   0.788
 5485TIP3    H116461   3.745   0.753   0.806
 5485TIP3    H216462   3.868   0.840   0.796
 5486TIP3   OH216463   5.295   3.732   3.808
 5486TIP3    H116464   5.250   3.805   3.851
 5486TIP3    H216465   5.254   3.726   3.722
 5487TIP3   OH216466   2.666   2.038   1.530
 5487TIP3    H116467   2.743   2.015   1.478
 5487TIP3    H216468   2.699   2.095   1.599
 5488TIP3   OH216469   4.309   3.176   3.729
 5488TIP3    H116470   4.217   3.202   3.733
 5488TIP3    H216471   4.317   3.130   3.645
 5489TIP3   OH216472   1.148   0.737   3.167
 5489TIP3    H116473   1.166   0.830   3.153
 5489TIP3    H216474   1.055   0.734   3.192
 5490TIP3   OH216475   4.942   2.568   1.273
 5490TIP3    H116476   4.864   2.555   1.219
 5490TIP3    H216477   5.005   2.612   1.215
 5491TIP3   OH216478   4.902   2.980   1.394
 5491TIP3    H116479   4.918   2.901   1.446
 5491TIP3    H216480   4.987   3.002   1.357
 5492TIP3   OH216481   5.622   3.731   4.674
 5492TIP3    H116482   5.538   3.766   4.703
 5492TIP3    H216483   5.615   3.637   4.688
 5493TIP3   OH216484   4.002   4.138   0.147
 5493TIP3    H116485   4.044   4.142   0.233
 5493TIP3    H216486   4.061   4.185   0.089
 5494TIP3   OH216487   4.458   3.847   0.170
 5494TIP3    H116488   4.481   3.804   0.087
 5494TIP3    H216489   4.362   3.842   0.173
 5495TIP3   OH216490   0.370   1.482   1.747
 5495TIP3    H116491   0.433   1.531   1.694
 5495TIP3    H216492   0.423   1.446   1.819
 5496TIP3   OH216493   2.492   4.400   3.427
 5496TIP3    H116494   2.427   4.447   3.375
 5496TIP3    H216495   2.459   4.404   3.517
 5497TIP3   OH216496   4.041   2.873   4.491
 5497TIP3    H116497   3.949   2.893   4.509
 5497TIP3    H216498   4.083   2.959   4.482
 5498TIP3   OH216499   5.682   2.291   2.637
 5498TIP3    H116500   5.664   2.228   2.568
 5498TIP3    H216501   5.635   2.258   2.713
 5499TIP3   OH216502   4.694   3.449   1.980
 5499TIP3    H116503   4.617   3.435   1.924
 5499TIP3    H216504   4.750   3.373   1.964
 5500TIP3   OH216505   2.941   2.622   0.230
 5500TIP3    H116506   3.017   2.632   0.174
 5500TIP3    H216507   2.964   2.550   0.289
 5501TIP3   OH216508   0.645   0.438   4.415
 5501TIP3    H116509   0.675   0.419   4.504
 5501TIP3    H216510   0.701   0.385   4.358
 5502TIP3   OH216511   2.799   5.465   4.126
 5502TIP3    H116512   2.835   5.506   4.047
 5502TIP3    H216513   2.773   5.538   4.182
 5503TIP3   OH216514   6.340   1.990   4.575
 5503TIP3    H116515   6.411   2.053   4.564
 5503TIP3    H216516   6.309   1.973   4.486
 5504TIP3   OH216517   0.200   1.146   0.735
 5504TIP3    H116518   0.166   1.066   0.777
 5504TIP3    H216519   0.155   1.217   0.779
 5505TIP3   OH216520   5.136   3.317   0.449
 5505TIP3    H116521   5.154   3.407   0.423
 5505TIP3    H216522   5.108   3.322   0.540
 5506TIP3   OH216523   0.117   4.037   2.771
 5506TIP3    H116524   0.024   4.016   2.758
 5506TIP3    H216525   0.122   4.069   2.861
 5507TIP3   OH216526   3.219   4.550   4.514
 5507TIP3    H116527   3.247   4.551   4.423
 5507TIP3    H216528   3.155   4.621   4.520
 5508TIP3   OH216529   1.949   0.200   3.027
 5508TIP3    H116530   1.863   0.216   2.987
 5508TIP3    H216531   1.977   0.116   2.991
 5509TIP3   OH216532   0.060   5.344   0.532
 5509TIP3    H116533   0.059   5.303   0.618
 5509TIP3    H216534   0.069   5.271   0.471
 5510TIP3   OH216535   4.838   0.372   1.479
 5510TIP3    H116536   4.921   0.343   1.516
 5510TIP3    H216537   4.795   0.291   1.450
 5511TIP3   OH216538   6.226   0.750   1.191
 5511TIP3    H116539   6.306   0.716   1.152
 5511TIP3    H216540   6.223   0.842   1.166
 5512TIP3   OH216541   4.762   5.928   0.001
 5512TIP3    H116542   4.778   6.021  -0.008
 5512TIP3    H216543   4.792   5.907   0.090
 5513TIP3   OH216544   0.872   0.687   0.635
 5513TIP3    H116545   0.795   0.745   0.632
 5513TIP3    H216546   0.846   0.616   0.693
 5514TIP3   OH216547   1.273   2.832   0.370
 5514TIP3    H116548   1.223   2.752   0.356
 5514TIP3    H216549   1.293   2.865   0.283
 5515TIP3   OH216550   0.689   3.056   3.341
 5515TIP3    H116551   0.693   2.985   3.276
 5515TIP3    H216552   0.758   3.117   3.313
 5516TIP3   OH216553   2.524   0.570   4.058
 5516TIP3    H116554   2.464   0.500   4.086
 5516TIP3    H216555   2.611   0.536   4.079
 5517TIP3   OH216556   3.282   4.683   2.969
 5517TIP3    H116557   3.295   4.770   3.008
 5517TIP3    H216558   3.234   4.634   3.035
 5518TIP3   OH216559   5.214   4.080   2.371
 5518TIP3    H116560   5.290   4.099   2.316
 5518TIP3    H216561   5.174   4.166   2.388
 5519TIP3   OH216562   3.600   3.823   4.841
 5519TIP3    H116563   3.517   3.785   4.867
 5519TIP3    H216564   3.642   3.848   4.923
 5520TIP3   OH216565   1.023   4.568   2.089
 5520TIP3    H116566   0.999   4.502   2.155
 5520TIP3    H216567   1.038   4.517   2.009
 5521TIP3   OH216568   6.151   2.260   2.129
 5521TIP3    H116569   6.158   2.179   2.180
 5521TIP3    H216570   6.177   2.329   2.190
 5522TIP3   OH216571   4.352   2.723   1.356
 5522TIP3    H116572   4.302   2.732   1.275
 5522TIP3    H216573   4.309   2.652   1.403
 5523TIP3   OH216574  -0.005   3.062   0.174
 5523TIP3    H116575  -0.074   3.106   0.223
 5523TIP3    H216576  -0.017   3.090   0.084
 5524TIP3   OH216577   3.905   1.780   0.593
 5524TIP3    H116578   3.810   1.772   0.585
 5524TIP3    H216579   3.932   1.700   0.639
 5525TIP3   OH216580   2.221   2.170   3.271
 5525TIP3    H116581   2.310   2.203   3.288
 5525TIP3    H216582   2.222   2.147   3.178
 5526TIP3   OH216583   0.066   1.394   3.214
 5526TIP3    H116584   0.026   1.336   3.279
 5526TIP3    H216585   0.157   1.365   3.209
 5527TIP3   OH216586   5.150   2.325   0.905
 5527TIP3    H116587   5.224   2.281   0.863
 5527TIP3    H216588   5.171   2.324   0.998
 5528TIP3   OH216589   2.099   0.546   4.306
 5528TIP3    H116590   2.012   0.572   4.335
 5528TIP3    H216591   2.104   0.573   4.215
 5529TIP3   OH216592   0.110   1.466   0.509
 5529TIP3    H116593   0.027   1.441   0.550
 5529TIP3    H216594   0.101   1.439   0.418
 5530TIP3   OH216595   3.537   2.267   1.564
 5530TIP3    H116596   3.513   2.360   1.570
 5530TIP3    H216597   3.481   2.223   1.628
 5531TIP3   OH216598   4.241   4.692   0.562
 5531TIP3    H116599   4.229   4.650   0.477
 5531TIP3    H216600   4.227   4.785   0.545
 5532TIP3   OH216601   4.672   1.511   4.430
 5532TIP3    H116602   4.699   1.493   4.520
 5532TIP3    H216603   4.689   1.429   4.383
 5533TIP3   OH216604   4.955   0.153   3.808
 5533TIP3    H116605   5.032   0.111   3.847
 5533TIP3    H216606   4.975   0.246   3.809
 5534TIP3   OH216607   2.007   3.089   1.308
 5534TIP3    H116608   1.954   3.052   1.379
 5534TIP3    H216609   1.998   3.183   1.319
 5535TIP3   OH216610   6.126   0.659   5.179
 5535TIP3    H116611   6.083   0.630   5.099
 5535TIP3    H216612   6.080   0.612   5.249
 5536TIP3   OH216613   5.183   1.842   2.710
 5536TIP3    H116614   5.111   1.806   2.762
 5536TIP3    H216615   5.206   1.924   2.754
 5537TIP3   OH216616   5.454   1.527   3.340
 5537TIP3    H116617   5.512   1.581   3.287
 5537TIP3    H216618   5.419   1.588   3.406
 5538TIP3   OH216619   5.423   1.687   4.219
 5538TIP3    H116620   5.445   1.772   4.257
 5538TIP3    H216621   5.501   1.633   4.235
 5539TIP3   OH216622   5.856   5.163   2.156
 5539TIP3    H116623   5.947   5.182   2.133
 5539TIP3    H216624   5.806   5.187   2.078
 5540TIP3   OH216625   2.597   4.871   0.540
 5540TIP3    H116626   2.577   4.863   0.447
 5540TIP3    H216627   2.668   4.935   0.544
 5541TIP3   OH216628   3.606   5.600   1.467
 5541TIP3    H116629   3.667   5.614   1.394
 5541TIP3    H216630   3.655   5.626   1.545
 5542TIP3   OH216631   1.224   0.654   5.107
 5542TIP3    H116632   1.210   0.561   5.126
 5542TIP3    H216633   1.289   0.682   5.171
 5543TIP3   OH216634   6.189   2.091   1.572
 5543TIP3    H116635   6.235   2.023   1.522
 5543TIP3    H216636   6.123   2.125   1.512
 5544TIP3   OH216637   3.230   2.057   2.072
 5544TIP3    H116638   3.138   2.038   2.091
 5544TIP3    H216639   3.272   1.971   2.068
 5545TIP3   OH216640   0.082   4.307   3.275
 5545TIP3    H116641   0.112   4.393   3.244
 5545TIP3    H216642   0.149   4.279   3.337
 5546TIP3   OH216643   5.946   1.540   2.064
 5546TIP3    H116644   5.986   1.482   2.129
 5546TIP3    H216645   5.965   1.628   2.097
 5547TIP3   OH216646   2.092   2.264   1.244
 5547TIP3    H116647   2.038   2.194   1.279
 5547TIP3    H216648   2.068   2.341   1.295
 5548TIP3   OH216649   4.579   5.242   3.524
 5548TIP3    H116650   4.576   5.268   3.432
 5548TIP3    H216651   4.670   5.216   3.539
 5549TIP3   OH216652   1.458   3.776   3.520
 5549TIP3    H116653   1.369   3.760   3.490
 5549TIP3    H216654   1.514   3.738   3.452
 5550TIP3   OH216655   1.863   3.814   4.620
 5550TIP3    H116656   1.923   3.884   4.594
 5550TIP3    H216657   1.919   3.735   4.621
 5551TIP3   OH216658   5.934   4.357   0.143
 5551TIP3    H116659   5.869   4.304   0.098
 5551TIP3    H216660   5.994   4.294   0.183
 5552TIP3   OH216661   6.041   4.174   4.348
 5552TIP3    H116662   5.989   4.109   4.301
 5552TIP3    H216663   6.123   4.179   4.299
 5553TIP3   OH216664   3.718   3.393   1.358
 5553TIP3    H116665   3.746   3.469   1.410
 5553TIP3    H216666   3.798   3.342   1.346
 5554TIP3   OH216667   0.553   3.989   0.003
 5554TIP3    H116668   0.458   3.990  -0.001
 5554TIP3    H216669   0.581   4.054  -0.062
 5555TIP3   OH216670   2.759   5.203   4.181
 5555TIP3    H116671   2.804   5.284   4.205
 5555TIP3    H216672   2.667   5.219   4.205
 5556TIP3   OH216673   5.507   1.534   0.382
 5556TIP3    H116674   5.460   1.486   0.450
 5556TIP3    H216675   5.480   1.625   0.396
 5557TIP3   OH216676   6.113   4.724   1.141
 5557TIP3    H116677   6.033   4.777   1.143
 5557TIP3    H216678   6.082   4.634   1.137
 5558TIP3   OH216679   5.357   4.026   3.066
 5558TIP3    H116680   5.349   4.080   2.987
 5558TIP3    H216681   5.447   3.993   3.063
 5559TIP3   OH216682   2.324   0.260   2.182
 5559TIP3    H116683   2.249   0.205   2.201
 5559TIP3    H216684   2.289   0.349   2.183
 5560TIP3   OH216685   5.578   3.893   1.858
 5560TIP3    H116686   5.498   3.916   1.905
 5560TIP3    H216687   5.614   3.820   1.908
 5561TIP3   OH216688   6.118   3.411   3.199
 5561TIP3    H116689   6.189   3.354   3.171
 5561TIP3    H216690   6.059   3.416   3.124
 5562TIP3   OH216691   2.497   4.411   2.703
 5562TIP3    H116692   2.511   4.475   2.633
 5562TIP3    H216693   2.457   4.461   2.774
 5563TIP3   OH216694   2.742   3.969   3.989
 5563TIP3    H116695   2.702   4.022   3.920
 5563TIP3    H216696   2.836   3.974   3.972
 5564TIP3   OH216697   4.068   3.644   4.170
 5564TIP3    H116698   3.973   3.645   4.157
 5564TIP3    H216699   4.084   3.718   4.230
 5565TIP3   OH216700   1.254   2.521   2.090
 5565TIP3    H116701   1.273   2.454   2.025
 5565TIP3    H216702   1.181   2.485   2.141
 5566TIP3   OH216703   3.290   0.018   4.665
 5566TIP3    H116704   3.333  -0.048   4.612
 5566TIP3    H216705   3.337   0.017   4.749
 5567TIP3   OH216706   5.868   4.017   1.123
 5567TIP3    H116707   5.836   3.940   1.077
 5567TIP3    H216708   5.849   4.000   1.216
 5568TIP3   OH216709   3.919   2.474   3.227
 5568TIP3    H116710   3.866   2.490   3.305
 5568TIP3    H216711   3.856   2.475   3.154
 5569TIP3   OH216712   3.935   2.635   2.070
 5569TIP3    H116713   3.942   2.698   1.997
 5569TIP3    H216714   4.004   2.661   2.130
 5570TIP3   OH216715   1.160   3.466   1.382
 5570TIP3    H116716   1.074   3.459   1.424
 5570TIP3    H216717   1.148   3.533   1.315
 5571TIP3   OH216718   3.590   3.282   3.684
 5571TIP3    H116719   3.558   3.372   3.691
 5571TIP3    H216720   3.563   3.240   3.765
 5572TIP3   OH216721   3.207   4.871   0.697
 5572TIP3    H116722   3.299   4.852   0.677
 5572TIP3    H216723   3.157   4.822   0.632
 5573TIP3   OH216724   3.587   5.900   4.800
 5573TIP3    H116725   3.631   5.815   4.787
 5573TIP3    H216726   3.615   5.952   4.725
 5574TIP3   OH216727   4.137   3.106   0.434
 5574TIP3    H116728   4.146   3.199   0.411
 5574TIP3    H216729   4.140   3.104   0.529
 5575TIP3   OH216730   5.647   4.875   1.015
 5575TIP3    H116731   5.653   4.930   0.937
 5575TIP3    H216732   5.556   4.884   1.044
 5576TIP3   OH216733   5.538   4.835   0.712
 5576TIP3    H116734   5.545   4.805   0.622
 5576TIP3    H216735   5.453   4.801   0.742
 5577TIP3   OH216736   0.065   2.996   1.757
 5577TIP3    H116737   0.032   2.991   1.667
 5577TIP3    H216738   0.032   3.079   1.790
 5578TIP3   OH216739   5.020   1.168   0.674
 5578TIP3    H116740   5.111   1.154   0.650
 5578TIP3    H216741   5.024   1.225   0.751
 5579TIP3   OH216742   1.518   0.493   1.469
 5579TIP3    H116743   1.438   0.500   1.417
 5579TIP3    H216744   1.516   0.404   1.503
 5580TIP3   OH216745   2.149  -0.026   2.973
 5580TIP3    H116746   2.228  -0.026   2.919
 5580TIP3    H216747   2.182  -0.026   3.063
 5581TIP3   OH216748   6.132   3.342   2.136
 5581TIP3    H116749   6.067   3.369   2.071
 5581TIP3    H216750   6.158   3.254   2.110
 5582TIP3   OH216751   1.828   3.713   0.780
 5582TIP3    H116752   1.880   3.641   0.744
 5582TIP3    H216753   1.892   3.768   0.825
 5583TIP3   OH216754   1.902  -0.036   0.111
 5583TIP3    H116755   1.961  -0.001   0.045
 5583TIP3    H216756   1.886   0.037   0.171
 5584TIP3   OH216757   2.743   0.875   3.217
 5584TIP3    H116758   2.667   0.932   3.209
 5584TIP3    H216759   2.706   0.787   3.227
 5585TIP3   OH216760   1.691   5.123   3.609
 5585TIP3    H116761   1.602   5.088   3.618
 5585TIP3    H216762   1.732   5.107   3.694
 5586TIP3   OH216763   4.006   5.142   4.596
 5586TIP3    H116764   3.920   5.182   4.582
 5586TIP3    H216765   4.066   5.197   4.545
 5587TIP3   OH216766   2.890   4.261   4.899
 5587TIP3    H116767   2.986   4.256   4.902
 5587TIP3    H216768   2.862   4.170   4.909
 5588TIP3   OH216769   5.905   3.548   2.334
 5588TIP3    H116770   5.820   3.590   2.348
 5588TIP3    H216771   5.890   3.487   2.261
 5589TIP3   OH216772   0.664   5.170   3.015
 5589TIP3    H116773   0.678   5.107   3.086
 5589TIP3    H216774   0.594   5.226   3.048
 5590TIP3   OH216775   1.968   1.236   0.697
 5590TIP3    H116776   1.980   1.281   0.614
 5590TIP3    H216777   2.056   1.230   0.734
 5591TIP3   OH216778   6.180   2.402   0.741
 5591TIP3    H116779   6.236   2.363   0.673
 5591TIP3    H216780   6.213   2.491   0.751
 5592TIP3   OH216781   3.083   5.831   0.107
 5592TIP3    H116782   3.011   5.871   0.155
 5592TIP3    H216783   3.152   5.819   0.172
 5593TIP3   OH216784   3.681   5.067   4.001
 5593TIP3    H116785   3.657   5.123   3.927
 5593TIP3    H216786   3.774   5.085   4.015
 5594TIP3   OH216787   4.565   2.637   3.199
 5594TIP3    H116788   4.502   2.678   3.140
 5594TIP3    H216789   4.516   2.622   3.280
 5595TIP3   OH216790   2.591   0.674   4.754
 5595TIP3    H116791   2.583   0.590   4.709
 5595TIP3    H216792   2.507   0.684   4.800
 5596TIP3   OH216793   4.096   2.762   0.457
 5596TIP3    H116794   4.035   2.794   0.523
 5596TIP3    H216795   4.155   2.836   0.441
 5597TIP3   OH216796   0.934   2.748   0.784
 5597TIP3    H116797   1.020   2.718   0.754
 5597TIP3    H216798   0.907   2.814   0.720
 5598TIP3   OH216799   4.303   5.185   3.511
 5598TIP3    H116800   4.394   5.159   3.526
 5598TIP3    H216801   4.265   5.111   3.463
 5599TIP3   OH216802   4.744   1.276   0.431
 5599TIP3    H116803   4.817   1.250   0.375
 5599TIP3    H216804   4.774   1.356   0.474
 5600TIP3   OH216805   0.243   5.144   3.380
 5600TIP3    H116806   0.249   5.105   3.467
 5600TIP3    H216807   0.169   5.099   3.339
 5601TIP3   OH216808   6.033   2.717   1.411
 5601TIP3    H116809   6.029   2.786   1.476
 5601TIP3    H216810   6.004   2.638   1.457
 5602TIP3   OH216811   1.666   2.374   1.836
 5602TIP3    H116812   1.640   2.448   1.890
 5602TIP3    H216813   1.678   2.411   1.749
 5603TIP3   OH216814   5.642   5.013   2.230
 5603TIP3    H116815   5.616   4.968   2.150
 5603TIP3    H216816   5.725   5.056   2.207
 5604TIP3   OH216817   3.083   0.986   1.883
 5604TIP3    H116818   3.135   0.938   1.818
 5604TIP3    H216819   2.997   0.996   1.842
 5605TIP3   OH216820   0.592   3.541   3.211
 5605TIP3    H116821   0.683   3.521   3.232
 5605TIP3    H216822   0.596   3.629   3.174
 5606TIP3   OH216823   2.723   2.169   2.196
 5606TIP3    H116824   2.789   2.239   2.197
 5606TIP3    H216825   2.731   2.130   2.109
 5607TIP3   OH216826   0.686   5.755   0.901
 5607TIP3    H116827   0.701   5.829   0.841
 5607TIP3    H216828   0.772   5.715   0.912
 5608TIP3   OH216829   4.348   0.015   3.042
 5608TIP3    H116830   4.405   0.088   3.067
 5608TIP3    H216831   4.262   0.056   3.030
 5609TIP3   OH216832   6.337   0.817   2.893
 5609TIP3    H116833   6.390   0.896   2.887
 5609TIP3    H216834   6.285   0.816   2.813
 5610TIP3   OH216835   4.826   3.090   2.098
 5610TIP3    H116836   4.915   3.056   2.108
 5610TIP3    H216837   4.835   3.160   2.033
 5611TIP3   OH216838   1.631   1.652   2.346
 5611TIP3    H116839   1.613   1.692   2.431
 5611TIP3    H216840   1.559   1.682   2.290
 5612TIP3   OH216841   0.715   2.982   2.148
 5612TIP3    H116842   0.772   2.952   2.077
 5612TIP3    H216843   0.627   2.981   2.111
 5613TIP3   OH216844   3.334   3.565   4.097
 5613TIP3    H116845   3.407   3.546   4.038
 5613TIP3    H216846   3.257   3.567   4.041
 5614TIP3   OH216847   0.633   1.625   4.251
 5614TIP3    H116848   0.658   1.606   4.160
 5614TIP3    H216849   0.717   1.638   4.296
 5615TIP3   OH216850   0.325   4.930   2.490
 5615TIP3    H116851   0.295   4.930   2.580
 5615TIP3    H216852   0.369   4.845   2.479
 5616TIP3   OH216853   5.332   2.199   5.154
 5616TIP3    H116854   5.302   2.213   5.244
 5616TIP3    H216855   5.363   2.284   5.125
 5617TIP3   OH216856   3.300   1.924   4.716
 5617TIP3    H116857   3.248   1.862   4.664
 5617TIP3    H216858   3.388   1.920   4.677
 5618TIP3   OH216859   4.007   2.612   3.645
 5618TIP3    H116860   4.051   2.527   3.632
 5618TIP3    H216861   3.950   2.621   3.568
 5619TIP3   OH216862   4.637   4.226   2.298
 5619TIP3    H116863   4.639   4.153   2.236
 5619TIP3    H216864   4.639   4.305   2.243
 5620TIP3   OH216865   1.139   5.472   4.562
 5620TIP3    H116866   1.231   5.490   4.545
 5620TIP3    H216867   1.092   5.547   4.524
 5621TIP3   OH216868   0.092   4.585   4.446
 5621TIP3    H116869   0.061   4.555   4.531
 5621TIP3    H216870   0.183   4.613   4.462
 5622TIP3   OH216871   3.907   3.019   1.281
 5622TIP3    H116872   3.856   3.058   1.210
 5622TIP3    H216873   3.844   2.965   1.329
 5623TIP3   OH216874   5.603   2.163   2.887
 5623TIP3    H116875   5.620   2.069   2.890
 5623TIP3    H216876   5.646   2.198   2.965
 5624TIP3   OH216877   3.928   5.377   4.253
 5624TIP3    H116878   3.996   5.326   4.297
 5624TIP3    H216879   3.887   5.428   4.323
 5625TIP3   OH216880   0.656   5.533   1.831
 5625TIP3    H116881   0.640   5.521   1.738
 5625TIP3    H216882   0.750   5.545   1.839
 5626TIP3   OH216883   4.195   4.266   4.287
 5626TIP3    H116884   4.134   4.202   4.325
 5626TIP3    H216885   4.268   4.213   4.254
 5627TIP3   OH216886   2.050   0.321   2.351
 5627TIP3    H116887   2.078   0.352   2.437
 5627TIP3    H216888   2.058   0.399   2.295
 5628TIP3   OH216889   4.167   3.602   1.999
 5628TIP3    H116890   4.137   3.667   1.935
 5628TIP3    H216891   4.133   3.634   2.083
 5629TIP3   OH216892   5.493   4.906   3.311
 5629TIP3    H116893   5.575   4.955   3.301
 5629TIP3    H216894   5.508   4.825   3.263
 5630TIP3   OH216895   2.756   2.298   0.965
 5630TIP3    H116896   2.693   2.285   0.895
 5630TIP3    H216897   2.753   2.216   1.016
 5631TIP3   OH216898   2.459   1.855   1.353
 5631TIP3    H116899   2.515   1.803   1.411
 5631TIP3    H216900   2.520   1.894   1.290
 5632TIP3   OH216901   0.104   0.054   2.209
 5632TIP3    H116902   0.187   0.081   2.247
 5632TIP3    H216903   0.096   0.105   2.129
 5633TIP3   OH216904   0.930   0.911   4.946
 5633TIP3    H116905   0.850   0.867   4.919
 5633TIP3    H216906   0.924   0.915   5.042
 5634TIP3   OH216907   2.690   5.606   3.358
 5634TIP3    H116908   2.718   5.697   3.356
 5634TIP3    H216909   2.747   5.561   3.296
 5635TIP3   OH216910   3.882   2.048   2.832
 5635TIP3    H116911   3.966   2.094   2.821
 5635TIP3    H216912   3.860   2.060   2.924
 5636TIP3   OH216913   6.227   3.312   3.614
 5636TIP3    H116914   6.318   3.285   3.627
 5636TIP3    H216915   6.233   3.383   3.550
 5637TIP3   OH216916   5.226   3.737   3.549
 5637TIP3    H116917   5.297   3.743   3.486
 5637TIP3    H216918   5.193   3.647   3.540
 5638TIP3   OH216919   1.312   0.133   0.218
 5638TIP3    H116920   1.301   0.174   0.132
 5638TIP3    H216921   1.379   0.186   0.261
 5639TIP3   OH216922   2.409   4.458   0.660
 5639TIP3    H116923   2.354   4.398   0.610
 5639TIP3    H216924   2.372   4.456   0.749
 5640TIP3   OH216925   5.071   0.325   5.055
 5640TIP3    H116926   5.060   0.414   5.090
 5640TIP3    H216927   5.165   0.319   5.037
 5641TIP3   OH216928   3.533   2.868   4.136
 5641TIP3    H116929   3.444   2.858   4.169
 5641TIP3    H216930   3.586   2.813   4.194
 5642TIP3   OH216931   3.627   3.887   1.390
 5642TIP3    H116932   3.540   3.890   1.351
 5642TIP3    H216933   3.679   3.950   1.340
 5643TIP3   OH216934   0.798   2.457   2.784
 5643TIP3    H116935   0.764   2.445   2.695
 5643TIP3    H216936   0.836   2.372   2.807
 5644TIP3   OH216937   4.754   1.736   1.181
 5644TIP3    H116938   4.815   1.689   1.124
 5644TIP3    H216939   4.671   1.735   1.134
 5645TIP3   OH216940   0.158   5.648   4.812
 5645TIP3    H116941   0.176   5.628   4.904
 5645TIP3    H216942   0.231   5.703   4.784
 5646TIP3   OH216943   3.808   1.394   0.801
 5646TIP3    H116944   3.856   1.476   0.794
 5646TIP3    H216945   3.761   1.387   0.718
 5647TIP3   OH216946   0.257   5.658   1.083
 5647TIP3    H116947   0.273   5.668   0.990
 5647TIP3    H216948   0.180   5.601   1.088
 5648TIP3   OH216949   4.825   2.036   3.961
 5648TIP3    H116950   4.848   1.974   3.891
 5648TIP3    H216951   4.746   2.079   3.929
 5649TIP3   OH216952   4.532   4.239   0.682
 5649TIP3    H116953   4.539   4.187   0.761
 5649TIP3    H216954   4.598   4.308   0.692
 5650TIP3   OH216955   0.839   2.046   1.045
 5650TIP3    H116956   0.816   2.136   1.067
 5650TIP3    H216957   0.762   2.011   1.003
 5651TIP3   OH216958   0.601   4.787   4.213
 5651TIP3    H116959   0.580   4.715   4.152
 5651TIP3    H216960   0.625   4.743   4.294
 5652TIP3   OH216961   3.169   1.308   1.503
 5652TIP3    H116962   3.127   1.300   1.417
 5652TIP3    H216963   3.184   1.402   1.514
 5653TIP3   OH216964   0.912   2.644   2.441
 5653TIP3    H116965   1.000   2.642   2.479
 5653TIP3    H216966   0.894   2.737   2.427
 5654TIP3   OH216967   1.787   0.287   2.283
 5654TIP3    H116968   1.880   0.271   2.297
 5654TIP3    H216969   1.749   0.199   2.273
 5655TIP3   OH216970   5.412   5.623   4.142
 5655TIP3    H116971   5.415   5.529   4.159
 5655TIP3    H216972   5.504   5.649   4.130
 5656TIP3   OH216973   2.278   3.474   1.250
 5656TIP3    H116974   2.368   3.505   1.247
 5656TIP3    H216975   2.232   3.538   1.304
 5657TIP3   OH216976   0.465   4.507   0.112
 5657TIP3    H116977   0.380   4.552   0.117
 5657TIP3    H216978   0.518   4.548   0.180
 5658TIP3   OH216979   1.908   2.984   2.627
 5658TIP3    H116980   1.923   3.062   2.680
 5658TIP3    H216981   1.906   2.912   2.690
 5659TIP3   OH216982   5.435   2.242   0.983
 5659TIP3    H116983   5.428   2.222   0.890
 5659TIP3    H216984   5.521   2.209   1.009
 5660TIP3   OH216985   2.813   0.457   2.605
 5660TIP3    H116986   2.851   0.413   2.681
 5660TIP3    H216987   2.809   0.549   2.631
 5661TIP3   OH216988   5.701   5.574   0.885
 5661TIP3    H116989   5.725   5.611   0.801
 5661TIP3    H216990   5.633   5.509   0.864
 5662TIP3   OH216991   4.825   5.378   2.330
 5662TIP3    H116992   4.750   5.403   2.384
 5662TIP3    H216993   4.801   5.404   2.241
 5663TIP3   OH216994   6.086   5.504   2.004
 5663TIP3    H116995   6.031   5.502   2.082
 5663TIP3    H216996   6.153   5.569   2.024
 5664TIP3   OH216997   5.498   4.795   2.706
 5664TIP3    H116998   5.474   4.830   2.620
 5664TIP3    H216999   5.487   4.869   2.765
 5665TIP3   OH217000   3.477   4.435   4.661
 5665TIP3    H117001   3.457   4.420   4.753
 5665TIP3    H217002   3.398   4.477   4.626
 5666TIP3   OH217003   3.132   4.865   1.912
 5666TIP3    H117004   3.144   4.835   1.822
 5666TIP3    H217005   3.041   4.896   1.915
 5667TIP3   OH217006   3.728   0.374   2.342
 5667TIP3    H117007   3.690   0.443   2.397
 5667TIP3    H217008   3.653   0.322   2.314
 5668TIP3   OH217009   6.143   2.768   3.528
 5668TIP3    H117010   6.219   2.805   3.484
 5668TIP3    H217011   6.083   2.746   3.457
 5669TIP3   OH217012   1.130   2.311   2.647
 5669TIP3    H117013   1.194   2.346   2.585
 5669TIP3    H217014   1.100   2.230   2.607
 5670TIP3   OH217015   1.059   2.323   0.673
 5670TIP3    H117016   1.047   2.272   0.754
 5670TIP3    H217017   0.987   2.295   0.617
 5671TIP3   OH217018   1.460   2.550   0.789
 5671TIP3    H117019   1.515   2.542   0.711
 5671TIP3    H217020   1.423   2.462   0.801
 5672TIP3   OH217021   4.077   4.689   1.183
 5672TIP3    H117022   4.014   4.630   1.141
 5672TIP3    H217023   4.026   4.768   1.203
 5673TIP3   OH217024   2.173   3.760   1.891
 5673TIP3    H117025   2.213   3.707   1.960
 5673TIP3    H217026   2.174   3.849   1.926
 5674TIP3   OH217027   5.182   2.896   5.199
 5674TIP3    H117028   5.228   2.917   5.281
 5674TIP3    H217029   5.127   2.972   5.182
 5675TIP3   OH217030   0.292   4.301   4.257
 5675TIP3    H117031   0.328   4.264   4.338
 5675TIP3    H217032   0.316   4.238   4.189
 5676TIP3   OH217033   2.893   5.124   3.352
 5676TIP3    H117034   2.930   5.141   3.266
 5676TIP3    H217035   2.961   5.074   3.398
 5677TIP3   OH217036   4.150   5.238   4.374
 5677TIP3    H117037   4.222   5.289   4.335
 5677TIP3    H217038   4.169   5.148   4.350
 5678TIP3   OH217039   6.217   1.662   2.463
 5678TIP3    H117040   6.134   1.680   2.507
 5678TIP3    H217041   6.208   1.700   2.376
 5679TIP3   OH217042   1.063   2.051   2.578
 5679TIP3    H117043   1.046   1.990   2.650
 5679TIP3    H217044   0.977   2.067   2.539
 5680TIP3   OH217045   5.952   0.897   0.740
 5680TIP3    H117046   5.888   0.834   0.773
 5680TIP3    H217047   5.988   0.856   0.662
 5681TIP3   OH217048   3.401   0.356   0.758
 5681TIP3    H117049   3.395   0.338   0.665
 5681TIP3    H217050   3.325   0.409   0.779
 5682TIP3   OH217051   1.703   1.550   1.863
 5682TIP3    H117052   1.713   1.476   1.922
 5682TIP3    H217053   1.784   1.599   1.873
 5683TIP3   OH217054   6.192   4.478   3.419
 5683TIP3    H117055   6.174   4.569   3.443
 5683TIP3    H217056   6.189   4.431   3.502
 5684TIP3   OH217057   3.853   5.960   0.571
 5684TIP3    H117058   3.863   5.867   0.591
 5684TIP3    H217059   3.810   5.962   0.485
 5685TIP3   OH217060   1.748   2.345   0.952
 5685TIP3    H117061   1.734   2.254   0.980
 5685TIP3    H217062   1.744   2.341   0.856
 5686TIP3   OH217063   3.315   4.422   1.963
 5686TIP3    H117064   3.331   4.329   1.976
 5686TIP3    H217065   3.401   4.463   1.974
 5687TIP3   OH217066   0.908   0.926   3.122
 5687TIP3    H117067   0.829   0.965   3.158
 5687TIP3    H217068   0.878   0.848   3.075
 5688TIP3   OH217069   4.305   1.914   5.126
 5688TIP3    H117070   4.336   1.923   5.036
 5688TIP3    H217071   4.384   1.925   5.179
 5689TIP3   OH217072   1.604   0.697   1.188
 5689TIP3    H117073   1.513   0.700   1.158
 5689TIP3    H217074   1.608   0.762   1.258
 5690TIP3   OH217075   6.357   0.291   0.212
 5690TIP3    H117076   6.306   0.340   0.148
 5690TIP3    H217077   6.293   0.231   0.252
 5691TIP3   OH217078   4.077   2.043   4.596
 5691TIP3    H117079   3.994   2.010   4.560
 5691TIP3    H217080   4.139   1.972   4.583
 5692TIP3   OH217081   2.227   0.926   5.013
 5692TIP3    H117082   2.171   0.996   4.979
 5692TIP3    H217083   2.243   0.869   4.938
 5693TIP3   OH217084   2.025   4.030   2.611
 5693TIP3    H117085   2.051   4.109   2.563
 5693TIP3    H217086   2.033   4.054   2.703
 5694TIP3   OH217087   1.322   1.545   0.898
 5694TIP3    H117088   1.253   1.548   0.965
 5694TIP3    H217089   1.401   1.573   0.944
 5695TIP3   OH217090   5.351   0.161   3.743
 5695TIP3    H117091   5.430   0.208   3.770
 5695TIP3    H217092   5.279   0.207   3.787
 5696TIP3   OH217093   4.874   3.650   5.164
 5696TIP3    H117094   4.918   3.733   5.146
 5696TIP3    H217095   4.853   3.654   5.257
 5697TIP3   OH217096   6.360   0.683   2.430
 5697TIP3    H117097   6.390   0.746   2.364
 5697TIP3    H217098   6.301   0.625   2.382
 5698TIP3   OH217099   2.873   5.231   0.178
 5698TIP3    H117100   2.813   5.205   0.247
 5698TIP3    H217101   2.935   5.290   0.220
 5699TIP3   OH217102   2.972   4.069   1.922
 5699TIP3    H117103   3.010   4.113   1.998
 5699TIP3    H217104   3.011   3.981   1.924
 5700TIP3   OH217105   3.439   5.223   4.077
 5700TIP3    H117106   3.533   5.225   4.094
 5700TIP3    H217107   3.415   5.131   4.090
 5701TIP3   OH217108   0.991   1.020   0.190
 5701TIP3    H117109   0.953   1.103   0.164
 5701TIP3    H217110   0.940   0.954   0.142
 5702TIP3   OH217111   0.177   4.365   1.760
 5702TIP3    H117112   0.240   4.329   1.697
 5702TIP3    H217113   0.231   4.401   1.830
 5703TIP3   OH217114   0.414   0.123   0.797
 5703TIP3    H117115   0.446   0.199   0.750
 5703TIP3    H217116   0.386   0.062   0.728
 5704TIP3   OH217117   5.241   4.280   0.619
 5704TIP3    H117118   5.267   4.258   0.708
 5704TIP3    H217119   5.200   4.200   0.586
 5705TIP3   OH217120   2.245   2.466   4.401
 5705TIP3    H117121   2.322   2.521   4.384
 5705TIP3    H217122   2.171   2.520   4.374
 5706TIP3   OH217123   3.034   1.627   3.716
 5706TIP3    H117124   3.060   1.588   3.799
 5706TIP3    H217125   3.097   1.592   3.653
 5707TIP3   OH217126   4.718   3.703   3.112
 5707TIP3    H117127   4.756   3.656   3.187
 5707TIP3    H217128   4.656   3.641   3.074
 5708TIP3   OH217129   1.654   0.806   2.282
 5708TIP3    H117130   1.662   0.716   2.250
 5708TIP3    H217131   1.658   0.860   2.202
 5709TIP3   OH217132   5.084   5.532   2.401
 5709TIP3    H117133   5.060   5.536   2.309
 5709TIP3    H217134   5.039   5.454   2.434
 5710TIP3   OH217135   6.308   5.769   2.389
 5710TIP3    H117136   6.250   5.799   2.459
 5710TIP3    H217137   6.376   5.718   2.434
 5711TIP3   OH217138   2.000   1.307   4.075
 5711TIP3    H117139   1.956   1.233   4.033
 5711TIP3    H217140   2.040   1.354   4.002
 5712TIP3   OH217141   1.299   3.241   0.796
 5712TIP3    H117142   1.213   3.209   0.771
 5712TIP3    H217143   1.282   3.304   0.866
 5713TIP3   OH217144   5.992   0.408   2.905
 5713TIP3    H117145   6.016   0.316   2.911
 5713TIP3    H217146   6.053   0.453   2.964
 5714TIP3   OH217147   0.058   3.029   3.419
 5714TIP3    H117148   0.080   2.937   3.409
 5714TIP3    H217149  -0.038   3.032   3.413
 5715TIP3   OH217150   1.123   3.884   2.395
 5715TIP3    H117151   1.189   3.920   2.336
 5715TIP3    H217152   1.039   3.910   2.356
 5716TIP3   OH217153   3.102   3.526   5.093
 5716TIP3    H117154   3.048   3.509   5.170
 5716TIP3    H217155   3.062   3.603   5.052
 5717TIP3   OH217156   5.691   0.417   3.252
 5717TIP3    H117157   5.710   0.508   3.230
 5717TIP3    H217158   5.715   0.409   3.344
 5718TIP3   OH217159   5.504   0.171   0.083
 5718TIP3    H117160   5.530   0.107   0.149
 5718TIP3    H217161   5.560   0.153   0.008
 5719TIP3   OH217162   4.407   2.899   1.593
 5719TIP3    H117163   4.412   2.894   1.497
 5719TIP3    H217164   4.486   2.856   1.624
 5720TIP3   OH217165   1.606   5.758   0.511
 5720TIP3    H117166   1.642   5.689   0.455
 5720TIP3    H217167   1.589   5.715   0.594
 5721TIP3   OH217168   1.983   1.828   0.261
 5721TIP3    H117169   1.906   1.832   0.317
 5721TIP3    H217170   2.056   1.816   0.321
 5722TIP3   OH217171   4.939   2.164   3.650
 5722TIP3    H117172   4.946   2.210   3.734
 5722TIP3    H217173   4.919   2.073   3.674
 5723TIP3   OH217174   0.002   2.517   3.206
 5723TIP3    H117175   0.066   2.446   3.196
 5723TIP3    H217176  -0.074   2.488   3.156
 5724TIP3   OH217177   3.573   4.527   0.698
 5724TIP3    H117178   3.667   4.512   0.705
 5724TIP3    H217179   3.541   4.518   0.788
 5725TIP3   OH217180   1.194   4.226   2.760
 5725TIP3    H117181   1.260   4.167   2.724
 5725TIP3    H217182   1.234   4.313   2.752
 5726TIP3   OH217183   1.446   0.473   4.060
 5726TIP3    H117184   1.419   0.515   4.142
 5726TIP3    H217185   1.368   0.475   4.005
 5727TIP3   OH217186   2.869   1.940   0.555
 5727TIP3    H117187   2.954   1.904   0.531
 5727TIP3    H217188   2.829   1.873   0.610
 5728TIP3   OH217189   0.911  -0.023   3.832
 5728TIP3    H117190   0.983   0.013   3.780
 5728TIP3    H217191   0.954  -0.074   3.900
 5729TIP3   OH217192   1.303   0.086   0.868
 5729TIP3    H117193   1.297   0.136   0.786
 5729TIP3    H217194   1.216   0.047   0.878
 5730TIP3   OH217195   4.177   4.314   0.043
 5730TIP3    H117196   4.272   4.325   0.048
 5730TIP3    H217197   4.143   4.376   0.108
 5731TIP3   OH217198   4.417   4.310   4.918
 5731TIP3    H117199   4.490   4.363   4.950
 5731TIP3    H217200   4.352   4.375   4.890
 5732TIP3   OH217201   0.969   2.181   3.436
 5732TIP3    H117202   0.907   2.164   3.507
 5732TIP3    H217203   0.986   2.275   3.442
 5733TIP3   OH217204   4.711   4.524   3.092
 5733TIP3    H117205   4.749   4.491   3.011
 5733TIP3    H217206   4.765   4.600   3.115
 5734TIP3   OH217207   3.153   1.122   3.164
 5734TIP3    H117208   3.227   1.157   3.114
 5734TIP3    H217209   3.172   1.029   3.175
 5735TIP3   OH217210   2.279   5.274   0.762
 5735TIP3    H117211   2.258   5.312   0.677
 5735TIP3    H217212   2.224   5.196   0.767
 5736TIP3   OH217213   0.178   0.443   1.591
 5736TIP3    H117214   0.097   0.394   1.580
 5736TIP3    H217215   0.232   0.389   1.649
 5737TIP3   OH217216   3.309   3.210   3.771
 5737TIP3    H117217   3.242   3.141   3.775
 5737TIP3    H217218   3.369   3.189   3.843
 5738TIP3   OH217219   0.500   4.411   1.557
 5738TIP3    H117220   0.460   4.497   1.568
 5738TIP3    H217221   0.435   4.361   1.507
 5739TIP3   OH217222   3.721   0.886   0.106
 5739TIP3    H117223   3.668   0.817   0.067
 5739TIP3    H217224   3.809   0.870   0.074
 5740TIP3   OH217225   2.965   2.076   4.186
 5740TIP3    H117226   2.914   2.087   4.266
 5740TIP3    H217227   2.927   2.140   4.125
 5741TIP3   OH217228   2.034   5.868   3.727
 5741TIP3    H117229   2.114   5.883   3.678
 5741TIP3    H217230   1.975   5.827   3.664
 5742TIP3   OH217231   0.553   0.157   0.510
 5742TIP3    H117232   0.624   0.214   0.480
 5742TIP3    H217233   0.486   0.217   0.542
 5743TIP3   OH217234   5.897   2.195   0.636
 5743TIP3    H117235   5.974   2.204   0.581
 5743TIP3    H217236   5.877   2.101   0.636
 5744TIP3   OH217237   3.286   0.917   2.794
 5744TIP3    H117238   3.232   0.982   2.750
 5744TIP3    H217239   3.376   0.944   2.775
 5745TIP3   OH217240   0.061   0.674   4.989
 5745TIP3    H117241  -0.026   0.709   4.971
 5745TIP3    H217242   0.055   0.582   4.964
 5746TIP3   OH217243   1.205   1.646   0.686
 5746TIP3    H117244   1.254   1.611   0.760
 5746TIP3    H217245   1.271   1.689   0.631
 5747TIP3   OH217246   2.002   5.382   4.729
 5747TIP3    H117247   2.063   5.448   4.695
 5747TIP3    H217248   1.922   5.395   4.679
 5748TIP3   OH217249  -0.011   4.838   2.056
 5748TIP3    H117250  -0.107   4.841   2.062
 5748TIP3    H217251   0.016   4.929   2.062
 5749TIP3   OH217252   0.781   3.945   1.564
 5749TIP3    H117253   0.804   3.899   1.645
 5749TIP3    H217254   0.849   4.012   1.555
 5750TIP3   OH217255   0.261   3.956   1.122
 5750TIP3    H117256   0.328   3.959   1.191
 5750TIP3    H217257   0.188   3.909   1.162
 5751TIP3   OH217258   1.393   4.176   1.660
 5751TIP3    H117259   1.317   4.206   1.610
 5751TIP3    H217260   1.367   4.185   1.752
 5752TIP3   OH217261   3.444   3.473   1.308
 5752TIP3    H117262   3.404   3.423   1.237
 5752TIP3    H217263   3.538   3.462   1.295
 5753TIP3   OH217264   1.712   5.892   2.694
 5753TIP3    H117265   1.796   5.904   2.651
 5753TIP3    H217266   1.719   5.808   2.739
 5754TIP3   OH217267   6.101   4.927   4.431
 5754TIP3    H117268   6.115   4.861   4.363
 5754TIP3    H217269   6.095   5.010   4.383
 5755TIP3   OH217270   0.483   2.410   3.926
 5755TIP3    H117271   0.553   2.373   3.980
 5755TIP3    H217272   0.416   2.437   3.989
 5756TIP3   OH217273   0.308   4.125   1.697
 5756TIP3    H117274   0.239   4.060   1.679
 5756TIP3    H217275   0.382   4.095   1.645
 5757TIP3   OH217276   2.021   2.255   0.968
 5757TIP3    H117277   1.956   2.186   0.974
 5757TIP3    H217278   2.060   2.259   1.055
 5758TIP3   OH217279   5.967   3.050   1.495
 5758TIP3    H117280   5.958   3.086   1.407
 5758TIP3    H217281   6.012   3.118   1.544
 5759TIP3   OH217282   1.516   4.534   2.290
 5759TIP3    H117283   1.523   4.606   2.352
 5759TIP3    H217284   1.437   4.553   2.239
 5760TIP3   OH217285   6.248   5.078   1.181
 5760TIP3    H117286   6.333   5.117   1.160
 5760TIP3    H217287   6.185   5.132   1.132
 5761TIP3   OH217288   5.977   1.018   3.740
 5761TIP3    H117289   5.882   1.007   3.743
 5761TIP3    H217290   6.004   1.012   3.832
 5762TIP3   OH217291   5.488   3.796   1.148
 5762TIP3    H117292   5.425   3.814   1.218
 5762TIP3    H217293   5.563   3.756   1.192
 5763TIP3   OH217294   1.649   3.248   4.457
 5763TIP3    H117295   1.671   3.169   4.506
 5763TIP3    H217296   1.651   3.221   4.365
 5764TIP3   OH217297   5.633   2.284   0.722
 5764TIP3    H117298   5.604   2.335   0.647
 5764TIP3    H217299   5.729   2.290   0.720
 5765TIP3   OH217300   1.737   1.796   1.640
 5765TIP3    H117301   1.789   1.806   1.560
 5765TIP3    H217302   1.767   1.714   1.679
 5766TIP3   OH217303   2.427   5.914   0.317
 5766TIP3    H117304   2.373   5.990   0.296
 5766TIP3    H217305   2.397   5.885   0.403
 5767TIP3   OH217306   0.209   2.212   2.468
 5767TIP3    H117307   0.269   2.207   2.394
 5767TIP3    H217308   0.250   2.158   2.536
 5768TIP3   OH217309   2.602   4.823   4.266
 5768TIP3    H117310   2.693   4.793   4.262
 5768TIP3    H217311   2.551   4.749   4.232
 5769TIP3   OH217312   2.797   0.058   1.736
 5769TIP3    H117313   2.751  -0.020   1.703
 5769TIP3    H217314   2.857   0.082   1.666
 5770TIP3   OH217315   2.731   5.805   1.602
 5770TIP3    H117316   2.712   5.764   1.518
 5770TIP3    H217317   2.818   5.844   1.591
 5771TIP3   OH217318   3.724   0.600   1.496
 5771TIP3    H117319   3.758   0.580   1.409
 5771TIP3    H217320   3.672   0.524   1.521
 5772TIP3   OH217321   5.763   1.127   0.134
 5772TIP3    H117322   5.797   1.179   0.062
 5772TIP3    H217323   5.790   1.037   0.115
 5773TIP3   OH217324   6.189   0.812   2.645
 5773TIP3    H117325   6.155   0.738   2.594
 5773TIP3    H217326   6.234   0.867   2.581
 5774TIP3   OH217327   0.683   2.689   2.180
 5774TIP3    H117328   0.651   2.758   2.240
 5774TIP3    H217329   0.719   2.737   2.106
 5775TIP3   OH217330   4.613   3.024   3.532
 5775TIP3    H117331   4.525   3.048   3.503
 5775TIP3    H217332   4.624   3.071   3.614
 5776TIP3   OH217333   1.497   4.630   4.543
 5776TIP3    H117334   1.425   4.664   4.490
 5776TIP3    H217335   1.576   4.666   4.502
 5777TIP3   OH217336   5.353   4.059   2.058
 5777TIP3    H117337   5.263   4.029   2.070
 5777TIP3    H217338   5.350   4.152   2.079
 5778TIP3   OH217339   6.008   4.987   0.071
 5778TIP3    H117340   5.922   4.947   0.062
 5778TIP3    H217341   6.070   4.918   0.046
 5779TIP3   OH217342   2.491   2.587   2.498
 5779TIP3    H117343   2.569   2.642   2.490
 5779TIP3    H217344   2.482   2.572   2.592
 5780TIP3   OH217345   0.020   1.933   3.925
 5780TIP3    H117346  -0.022   1.971   3.847
 5780TIP3    H217347  -0.022   1.977   3.998
 5781TIP3   OH217348   5.980   0.073   4.344
 5781TIP3    H117349   5.978   0.100   4.252
 5781TIP3    H217350   6.071   0.051   4.360
 5782TIP3   OH217351   3.087   4.813   2.710
 5782TIP3    H117352   3.171   4.793   2.671
 5782TIP3    H217353   3.028   4.745   2.678
 5783TIP3   OH217354   2.642   3.790   4.266
 5783TIP3    H117355   2.666   3.701   4.289
 5783TIP3    H217356   2.565   3.810   4.319
 5784TIP3   OH217357   2.100   4.868   0.660
 5784TIP3    H117358   2.057   4.867   0.575
 5784TIP3    H217359   2.183   4.822   0.646
 5785TIP3   OH217360   5.465   1.585   1.491
 5785TIP3    H117361   5.550   1.549   1.464
 5785TIP3    H217362   5.439   1.532   1.566
 5786TIP3   OH217363   5.033   5.933   1.156
 5786TIP3    H117364   5.003   5.975   1.236
 5786TIP3    H217365   5.129   5.939   1.161
 5787TIP3   OH217366   2.888   2.544   3.077
 5787TIP3    H117367   2.800   2.506   3.078
 5787TIP3    H217368   2.947   2.468   3.084
 5788TIP3   OH217369   2.991   5.341   4.991
 5788TIP3    H117370   3.042   5.374   5.065
 5788TIP3    H217371   3.005   5.246   4.993
 5789TIP3   OH217372   3.387   1.341   4.604
 5789TIP3    H117373   3.321   1.343   4.672
 5789TIP3    H217374   3.406   1.433   4.586
 5790TIP3   OH217375   5.774   1.245   2.192
 5790TIP3    H117376   5.866   1.249   2.167
 5790TIP3    H217377   5.730   1.208   2.115
 5791TIP3   OH217378   2.801   5.284   2.048
 5791TIP3    H117379   2.807   5.200   2.095
 5791TIP3    H217380   2.887   5.324   2.058
 5792TIP3   OH217381   0.313   5.665   0.598
 5792TIP3    H117382   0.378   5.722   0.556
 5792TIP3    H217383   0.344   5.656   0.688
 5793TIP3   OH217384   3.173   0.587   2.008
 5793TIP3    H117385   3.115   0.568   1.934
 5793TIP3    H217386   3.123   0.647   2.063
 5794TIP3   OH217387   0.112   2.241   3.138
 5794TIP3    H117388   0.149   2.185   3.069
 5794TIP3    H217389   0.122   2.189   3.218
 5795TIP3   OH217390   2.553   4.935   0.265
 5795TIP3    H117391   2.612   4.950   0.190
 5795TIP3    H217392   2.466   4.947   0.228
 5796TIP3   OH217393   5.578   4.183   4.418
 5796TIP3    H117394   5.610   4.107   4.370
 5796TIP3    H217395   5.656   4.220   4.459
 5797TIP3   OH217396   2.099   5.721   1.962
 5797TIP3    H117397   2.169   5.729   2.028
 5797TIP3    H217398   2.054   5.805   1.965
 5798TIP3   OH217399   2.331   1.767   2.183
 5798TIP3    H117400   2.396   1.786   2.115
 5798TIP3    H217401   2.340   1.839   2.246
 5799TIP3   OH217402   1.045   5.958   1.234
 5799TIP3    H117403   1.108   6.030   1.225
 5799TIP3    H217404   0.964   5.993   1.198
 5800TIP3   OH217405   1.137   5.420   3.516
 5800TIP3    H117406   1.109   5.477   3.589
 5800TIP3    H217407   1.225   5.392   3.540
 5801TIP3   OH217408   0.818   1.918  -0.018
 5801TIP3    H117409   0.752   1.966   0.031
 5801TIP3    H217410   0.800   1.826   0.001
 5802TIP3   OH217411   4.082   1.585   2.320
 5802TIP3    H117412   4.066   1.634   2.240
 5802TIP3    H217413   4.089   1.494   2.291
 5803TIP3   OH217414   2.058   5.585   2.815
 5803TIP3    H117415   2.131   5.615   2.761
 5803TIP3    H217416   2.076   5.621   2.902
 5804TIP3   OH217417   5.052   3.251   0.716
 5804TIP3    H117418   5.122   3.198   0.754
 5804TIP3    H217419   5.023   3.308   0.788
 5805TIP3   OH217420   2.127   5.635   0.922
 5805TIP3    H117421   2.070   5.575   0.971
 5805TIP3    H217422   2.215   5.606   0.943
 5806TIP3   OH217423   5.057   1.990   5.116
 5806TIP3    H117424   4.962   2.002   5.111
 5806TIP3    H217425   5.077   1.998   5.209
 5807TIP3   OH217426   3.207   5.932   2.848
 5807TIP3    H117427   3.165   6.016   2.830
 5807TIP3    H217428   3.142   5.867   2.825
 5808TIP3   OH217429   2.573   5.399   1.169
 5808TIP3    H117430   2.483   5.372   1.149
 5808TIP3    H217431   2.607   5.330   1.227
 5809TIP3   OH217432   4.808   3.596   0.335
 5809TIP3    H117433   4.726   3.549   0.322
 5809TIP3    H217434   4.815   3.654   0.259
 5810TIP3   OH217435   5.828   4.802  -0.016
 5810TIP3    H117436   5.786   4.728  -0.059
 5810TIP3    H217437   5.858   4.766   0.068
 5811TIP3   OH217438   4.217   3.582   5.034
 5811TIP3    H117439   4.193   3.672   5.056
 5811TIP3    H217440   4.239   3.585   4.941
 5812TIP3   OH217441   1.994   0.161   0.490
 5812TIP3    H117442   2.026   0.187   0.577
 5812TIP3    H217443   2.026   0.071   0.479
 5813TIP3   OH217444   1.164   2.677   4.072
 5813TIP3    H117445   1.224   2.607   4.097
 5813TIP3    H217446   1.216   2.734   4.014
 5814TIP3   OH217447   5.671   1.761   1.647
 5814TIP3    H117448   5.625   1.845   1.643
 5814TIP3    H217449   5.656   1.722   1.561
 5815TIP3   OH217450   6.299   4.244   4.826
 5815TIP3    H117451   6.319   4.311   4.892
 5815TIP3    H217452   6.238   4.185   4.870
 5816TIP3   OH217453   5.347   2.920   2.325
 5816TIP3    H117454   5.361   3.004   2.282
 5816TIP3    H217455   5.335   2.942   2.417
 5817TIP3   OH217456   6.218   2.799   0.009
 5817TIP3    H117457   6.194   2.791   0.101
 5817TIP3    H217458   6.312   2.819   0.010
 5818TIP3   OH217459   5.774   5.582   4.810
 5818TIP3    H117460   5.834   5.562   4.739
 5818TIP3    H217461   5.771   5.678   4.812
 5819TIP3   OH217462   3.952   4.704   2.462
 5819TIP3    H117463   4.029   4.751   2.494
 5819TIP3    H217464   3.879   4.744   2.509
 5820TIP3   OH217465   5.340   2.647   4.636
 5820TIP3    H117466   5.260   2.622   4.681
 5820TIP3    H217467   5.373   2.722   4.687
 5821TIP3   OH217468   2.937   4.632   3.071
 5821TIP3    H117469   2.990   4.555   3.049
 5821TIP3    H217470   2.932   4.632   3.166
 5822TIP3   OH217471   5.478   4.888   5.149
 5822TIP3    H117472   5.421   4.814   5.171
 5822TIP3    H217473   5.494   4.931   5.233
 5823TIP3   OH217474   5.748   1.451   1.703
 5823TIP3    H117475   5.688   1.381   1.678
 5823TIP3    H217476   5.691   1.527   1.716
 5824TIP3   OH217477   1.981   5.633   1.222
 5824TIP3    H117478   2.006   5.686   1.297
 5824TIP3    H217479   2.011   5.545   1.244
 5825TIP3   OH217480   4.102   3.877   0.516
 5825TIP3    H117481   4.173   3.941   0.508
 5825TIP3    H217482   4.026   3.929   0.544
 5826TIP3   OH217483   4.744   0.674   1.206
 5826TIP3    H117484   4.798   0.608   1.163
 5826TIP3    H217485   4.802   0.750   1.215
 5827TIP3   OH217486   1.193   0.774   2.348
 5827TIP3    H117487   1.147   0.765   2.265
 5827TIP3    H217488   1.268   0.831   2.327
 5828TIP3   OH217489   1.567   5.086   2.967
 5828TIP3    H117490   1.609   5.100   3.052
 5828TIP3    H217491   1.619   5.139   2.906
 5829TIP3   OH217492   2.341   2.522   1.686
 5829TIP3    H117493   2.348   2.457   1.617
 5829TIP3    H217494   2.415   2.582   1.670
 5830TIP3   OH217495   2.866   3.655   3.034
 5830TIP3    H117496   2.793   3.638   2.974
 5830TIP3    H217497   2.833   3.630   3.120
 5831TIP3   OH217498   6.273   3.175   0.731
 5831TIP3    H117499   6.185   3.150   0.703
 5831TIP3    H217500   6.290   3.121   0.808
 5832TIP3   OH217501   4.165   3.612   0.456
 5832TIP3    H117502   4.253   3.624   0.423
 5832TIP3    H217503   4.142   3.697   0.494
 5833TIP3   OH217504   6.286   4.101   1.889
 5833TIP3    H117505   6.300   4.154   1.810
 5833TIP3    H217506   6.270   4.166   1.958
 5834TIP3   OH217507   5.818   5.387   0.275
 5834TIP3    H117508   5.859   5.453   0.221
 5834TIP3    H217509   5.881   5.315   0.278
 5835TIP3   OH217510   1.888   0.367   4.957
 5835TIP3    H117511   1.808   0.403   4.995
 5835TIP3    H217512   1.953   0.437   4.964
 5836TIP3   OH217513   0.356   0.785   3.439
 5836TIP3    H117514   0.307   0.708   3.468
 5836TIP3    H217515   0.446   0.768   3.467
 5837TIP3   OH217516   0.820   3.140   1.923
 5837TIP3    H117517   0.733   3.101   1.927
 5837TIP3    H217518   0.846   3.133   1.831
 5838TIP3   OH217519   0.482   1.341   3.571
 5838TIP3    H117520   0.556   1.387   3.532
 5838TIP3    H217521   0.479   1.373   3.661
 5839TIP3   OH217522   1.964   4.452   1.593
 5839TIP3    H117523   2.035   4.509   1.563
 5839TIP3    H217524   2.000   4.363   1.586
 5840TIP3   OH217525   1.954   3.662   4.084
 5840TIP3    H117526   2.033   3.610   4.072
 5840TIP3    H217527   1.947   3.674   4.179
 5841TIP3   OH217528   3.181   0.850   0.050
 5841TIP3    H117529   3.111   0.908   0.021
 5841TIP3    H217530   3.201   0.879   0.139
 5842TIP3   OH217531   2.020   0.444   3.513
 5842TIP3    H117532   1.928   0.439   3.539
 5842TIP3    H217533   2.060   0.501   3.578
 5843TIP3   OH217534   3.820   1.326   3.908
 5843TIP3    H117535   3.853   1.311   3.997
 5843TIP3    H217536   3.847   1.415   3.886
 5844TIP3   OH217537   4.766   1.047   3.722
 5844TIP3    H117538   4.827   1.121   3.717
 5844TIP3    H217539   4.821   0.969   3.720
 5845TIP3   OH217540   4.189   0.715   1.104
 5845TIP3    H117541   4.144   0.698   1.186
 5845TIP3    H217542   4.147   0.795   1.070
 5846TIP3   OH217543   1.417   2.053   0.863
 5846TIP3    H117544   1.470   2.002   0.802
 5846TIP3    H217545   1.436   2.014   0.949
 5847TIP3   OH217546   1.907   1.798   1.433
 5847TIP3    H117547   1.985   1.743   1.427
 5847TIP3    H217548   1.920   1.867   1.369
 5848TIP3   OH217549   2.740   5.955   4.285
 5848TIP3    H117550   2.715   6.010   4.359
 5848TIP3    H217551   2.817   5.998   4.247
 5849TIP3   OH217552   6.166   4.575   3.916
 5849TIP3    H117553   6.192   4.667   3.905
 5849TIP3    H217554   6.248   4.530   3.935
 5850TIP3   OH217555   0.075   3.429   2.152
 5850TIP3    H117556   0.161   3.443   2.191
 5850TIP3    H217557   0.033   3.364   2.208
 5851TIP3   OH217558   4.221   1.371   4.067
 5851TIP3    H117559   4.259   1.356   4.153
 5851TIP3    H217560   4.176   1.455   4.075
 5852TIP3   OH217561   0.380   0.144   1.627
 5852TIP3    H117562   0.443   0.212   1.649
 5852TIP3    H217563   0.330   0.179   1.554
 5853TIP3   OH217564   0.295   4.153   0.305
 5853TIP3    H117565   0.278   4.247   0.317
 5853TIP3    H217566   0.378   4.138   0.350
 5854TIP3   OH217567   2.460   0.070   1.939
 5854TIP3    H117568   2.510  -0.011   1.928
 5854TIP3    H217569   2.458   0.084   2.034
 5855TIP3   OH217570   2.904   4.292   3.899
 5855TIP3    H117571   2.989   4.289   3.856
 5855TIP3    H217572   2.914   4.238   3.977
 5856TIP3   OH217573   2.883   4.984   4.358
 5856TIP3    H117574   2.950   5.051   4.344
 5856TIP3    H217575   2.801   5.032   4.361
 5857TIP3   OH217576   5.661   2.286   3.357
 5857TIP3    H117577   5.610   2.225   3.410
 5857TIP3    H217578   5.718   2.330   3.421
 5858TIP3   OH217579   2.882   1.929   0.078
 5858TIP3    H117580   2.920   1.917  -0.009
 5858TIP3    H217581   2.910   1.852   0.127
 5859TIP3   OH217582   0.644   1.910   1.365
 5859TIP3    H117583   0.729   1.953   1.361
 5859TIP3    H217584   0.661   1.818   1.343
 5860TIP3   OH217585   2.302   4.430   0.898
 5860TIP3    H117586   2.376   4.378   0.930
 5860TIP3    H217587   2.292   4.499   0.963
 5861TIP3   OH217588   3.534   5.584   4.298
 5861TIP3    H117589   3.450   5.538   4.300
 5861TIP3    H217590   3.528   5.648   4.370
 5862TIP3   OH217591   5.387   3.797   0.522
 5862TIP3    H117592   5.310   3.762   0.477
 5862TIP3    H217593   5.355   3.825   0.607
 5863TIP3   OH217594   4.083   0.504   1.645
 5863TIP3    H117595   4.018   0.575   1.644
 5863TIP3    H217596   4.163   0.546   1.676
 5864TIP3   OH217597   2.433   2.707   2.839
 5864TIP3    H117598   2.527   2.727   2.842
 5864TIP3    H217599   2.430   2.611   2.828
 5865TIP3   OH217600   3.899   0.483   5.073
 5865TIP3    H117601   3.865   0.563   5.034
 5865TIP3    H217602   3.825   0.422   5.068
 5866TIP3   OH217603   1.148   5.813   0.874
 5866TIP3    H117604   1.165   5.905   0.891
 5866TIP3    H217605   1.149   5.804   0.779
 5867TIP3   OH217606   2.978   3.353   2.728
 5867TIP3    H117607   2.988   3.448   2.733
 5867TIP3    H217608   2.979   3.334   2.634
 5868TIP3   OH217609   3.479   4.002   4.664
 5868TIP3    H117610   3.530   3.943   4.720
 5868TIP3    H217611   3.458   4.077   4.719
 5869TIP3   OH217612   1.544   0.706   2.520
 5869TIP3    H117613   1.471   0.763   2.542
 5869TIP3    H217614   1.605   0.763   2.473
 5870TIP3   OH217615   3.921   5.369   2.178
 5870TIP3    H117616   3.925   5.309   2.252
 5870TIP3    H217617   3.895   5.314   2.104
 5871TIP3   OH217618   4.439   5.758   1.977
 5871TIP3    H117619   4.421   5.755   2.071
 5871TIP3    H217620   4.355   5.738   1.936
 5872TIP3   OH217621   3.075   0.298   2.681
 5872TIP3    H117622   3.109   0.346   2.756
 5872TIP3    H217623   3.103   0.349   2.605
 5873TIP3   OH217624   1.634   4.576   0.438
 5873TIP3    H117625   1.616   4.549   0.528
 5873TIP3    H217626   1.561   4.633   0.415
 5874TIP3   OH217627   5.980   2.661   0.533
 5874TIP3    H117628   5.932   2.619   0.605
 5874TIP3    H217629   6.051   2.708   0.577
 5875TIP3   OH217630   2.541   3.209   3.354
 5875TIP3    H117631   2.587   3.207   3.271
 5875TIP3    H217632   2.490   3.128   3.356
 5876TIP3   OH217633   1.994   2.539   2.696
 5876TIP3    H117634   2.005   2.590   2.616
 5876TIP3    H217635   2.047   2.585   2.761
 5877TIP3   OH217636   2.386   0.006   4.598
 5877TIP3    H117637   2.463   0.046   4.559
 5877TIP3    H217638   2.421  -0.060   4.658
 5878TIP3   OH217639   0.427   0.331   0.290
 5878TIP3    H117640   0.385   0.402   0.338
 5878TIP3    H217641   0.491   0.295   0.351
 5879TIP3   OH217642   2.259   4.624   1.085
 5879TIP3    H117643   2.294   4.704   1.124
 5879TIP3    H217644   2.225   4.574   1.160
 5880TIP3   OH217645   2.015   0.616   4.998
 5880TIP3    H117646   1.985   0.689   5.052
 5880TIP3    H217647   2.103   0.596   5.032
 5881TIP3   OH217648   2.641   3.739   3.440
 5881TIP3    H117649   2.620   3.657   3.396
 5881TIP3    H217650   2.675   3.713   3.525
 5882TIP3   OH217651   2.732   2.258   1.718
 5882TIP3    H117652   2.787   2.330   1.750
 5882TIP3    H217653   2.664   2.301   1.666
 5883TIP3   OH217654   0.559   5.394   1.033
 5883TIP3    H117655   0.583   5.303   1.013
 5883TIP3    H217656   0.536   5.392   1.126
 5884TIP3   OH217657   5.206   5.377   3.216
 5884TIP3    H117658   5.197   5.472   3.218
 5884TIP3    H217659   5.298   5.361   3.195
 5885TIP3   OH217660   3.372   2.075   2.306
 5885TIP3    H117661   3.327   2.051   2.225
 5885TIP3    H217662   3.369   2.171   2.308
 5886TIP3   OH217663   1.546   2.665   3.785
 5886TIP3    H117664   1.555   2.642   3.692
 5886TIP3    H217665   1.580   2.754   3.791
 5887TIP3   OH217666   5.078   3.403   0.997
 5887TIP3    H117667   4.997   3.351   1.001
 5887TIP3    H217668   5.048   3.494   1.001
 5888TIP3   OH217669   1.204   0.888   0.305
 5888TIP3    H117670   1.147   0.948   0.258
 5888TIP3    H217671   1.213   0.927   0.392
 5889TIP3   OH217672   3.601   5.243   0.685
 5889TIP3    H117673   3.597   5.231   0.591
 5889TIP3    H217674   3.538   5.313   0.703
 5890TIP3   OH217675   3.902   1.716   1.635
 5890TIP3    H117676   3.861   1.754   1.557
 5890TIP3    H217677   3.868   1.767   1.708
 5891TIP3   OH217678   1.094   2.399   1.051
 5891TIP3    H117679   1.096   2.493   1.036
 5891TIP3    H217680   1.072   2.389   1.143
 5892TIP3   OH217681   3.494   4.235   3.227
 5892TIP3    H117682   3.414   4.246   3.279
 5892TIP3    H217683   3.559   4.203   3.289
 5893TIP3   OH217684   4.222   1.152   0.267
 5893TIP3    H117685   4.133   1.121   0.250
 5893TIP3    H217686   4.276   1.073   0.265
 5894TIP3   OH217687   3.471   4.299   2.516
 5894TIP3    H117688   3.530   4.295   2.591
 5894TIP3    H217689   3.526   4.281   2.441
 5895TIP3   OH217690   1.021   1.352   3.184
 5895TIP3    H117691   1.070   1.417   3.133
 5895TIP3    H217692   0.929   1.375   3.171
 5896TIP3   OH217693   5.440   3.161   2.242
 5896TIP3    H117694   5.439   3.162   2.146
 5896TIP3    H217695   5.531   3.179   2.266
 5897TIP3   OH217696   2.046   3.735   2.497
 5897TIP3    H117697   2.055   3.825   2.466
 5897TIP3    H217698   1.981   3.696   2.439
 5898TIP3   OH217699   6.229   0.330   4.222
 5898TIP3    H117700   6.303   0.296   4.272
 5898TIP3    H217701   6.153   0.311   4.277
 5899TIP3   OH217702   0.344   1.072   3.384
 5899TIP3    H117703   0.339   0.977   3.384
 5899TIP3    H217704   0.306   1.100   3.467
 5900TIP3   OH217705   4.337   4.743   2.269
 5900TIP3    H117706   4.257   4.691   2.278
 5900TIP3    H217707   4.360   4.736   2.176
 5901TIP3   OH217708   0.391   1.017   5.157
 5901TIP3    H117709   0.309   0.967   5.159
 5901TIP3    H217710   0.362   1.108   5.143
 5902TIP3   OH217711   1.758   4.624   1.224
 5902TIP3    H117712   1.781   4.554   1.164
 5902TIP3    H217713   1.728   4.695   1.168
 5903TIP3   OH217714   6.188   2.430   4.402
 5903TIP3    H117715   6.116   2.404   4.345
 5903TIP3    H217716   6.252   2.470   4.342
 5904TIP3   OH217717   3.850   1.259   1.734
 5904TIP3    H117718   3.823   1.272   1.825
 5904TIP3    H217719   3.872   1.166   1.729
 5905TIP3   OH217720   5.483   3.627   4.356
 5905TIP3    H117721   5.419   3.698   4.363
 5905TIP3    H217722   5.468   3.589   4.270
 5906TIP3   OH217723   4.358   0.898   3.464
 5906TIP3    H117724   4.309   0.948   3.529
 5906TIP3    H217725   4.432   0.955   3.442
 5907TIP3   OH217726   3.665   3.030   0.704
 5907TIP3    H117727   3.655   3.024   0.799
 5907TIP3    H217728   3.584   2.991   0.669
 5908TIP3   OH217729   6.181   4.030   4.517
 5908TIP3    H117730   6.263   4.015   4.471
 5908TIP3    H217731   6.137   4.097   4.465
 5909TIP3   OH217732   1.122   3.269   2.154
 5909TIP3    H117733   1.175   3.321   2.094
 5909TIP3    H217734   1.081   3.333   2.212
 5910TIP3   OH217735   2.970   5.596   1.733
 5910TIP3    H117736   2.900   5.608   1.798
 5910TIP3    H217737   3.013   5.515   1.759
 5911TIP3   OH217738   1.694   2.712   0.802
 5911TIP3    H117739   1.634   2.753   0.740
 5911TIP3    H217740   1.725   2.633   0.757
 5912TIP3   OH217741   0.580   1.819   2.399
 5912TIP3    H117742   0.633   1.848   2.473
 5912TIP3    H217743   0.632   1.843   2.322
 5913TIP3   OH217744   2.548   1.389   1.978
 5913TIP3    H117745   2.470   1.386   1.923
 5913TIP3    H217746   2.570   1.482   1.984
 5914TIP3   OH217747   2.340   3.033   0.428
 5914TIP3    H117748   2.383   2.994   0.503
 5914TIP3    H217749   2.291   3.107   0.464
 5915TIP3   OH217750   4.414   0.268   3.154
 5915TIP3    H117751   4.496   0.315   3.141
 5915TIP3    H217752   4.417   0.240   3.245
 5916TIP3   OH217753   0.457   3.456   0.608
 5916TIP3    H117754   0.475   3.550   0.615
 5916TIP3    H217755   0.440   3.427   0.697
 5917TIP3   OH217756   6.001   2.498   4.613
 5917TIP3    H117757   6.057   2.472   4.539
 5917TIP3    H217758   5.948   2.570   4.579
 5918TIP3   OH217759   0.797   4.966   4.197
 5918TIP3    H117760   0.804   4.950   4.103
 5918TIP3    H217761   0.715   4.923   4.223
 5919TIP3   OH217762   3.260   3.300   2.799
 5919TIP3    H117763   3.298   3.215   2.778
 5919TIP3    H217764   3.169   3.294   2.768
 5920TIP3   OH217765   2.613   4.337   4.829
 5920TIP3    H117766   2.619   4.383   4.745
 5920TIP3    H217767   2.704   4.327   4.857
 5921TIP3   OH217768   1.113   2.386   2.265
 5921TIP3    H117769   1.114   2.291   2.256
 5921TIP3    H217770   1.022   2.410   2.245
 5922TIP3   OH217771   1.730   1.171   0.074
 5922TIP3    H117772   1.738   1.217  -0.010
 5922TIP3    H217773   1.670   1.226   0.126
 5923TIP3   OH217774   3.534   2.538   3.183
 5923TIP3    H117775   3.581   2.534   3.266
 5923TIP3    H217776   3.590   2.490   3.122
 5924TIP3   OH217777   1.156   2.090   1.321
 5924TIP3    H117778   1.203   2.020   1.367
 5924TIP3    H217779   1.220   2.127   1.261
 5925TIP3   OH217780   2.882   5.513   1.374
 5925TIP3    H117781   2.920   5.601   1.382
 5925TIP3    H217782   2.941   5.457   1.425
 5926TIP3   OH217783   4.834   3.817   1.016
 5926TIP3    H117784   4.827   3.876   0.941
 5926TIP3    H217785   4.744   3.810   1.050
 5927TIP3   OH217786   3.810   1.623   3.899
 5927TIP3    H117787   3.846   1.711   3.890
 5927TIP3    H217788   3.744   1.617   3.830
 5928TIP3   OH217789   3.348   1.805   3.534
 5928TIP3    H117790   3.390   1.748   3.469
 5928TIP3    H217791   3.268   1.835   3.492
 5929TIP3   OH217792   1.138   0.078   1.639
 5929TIP3    H117793   1.069   0.136   1.606
 5929TIP3    H217794   1.214   0.134   1.650
 5930TIP3   OH217795   3.108   4.701   3.478
 5930TIP3    H117796   3.162   4.623   3.469
 5930TIP3    H217797   3.083   4.724   3.389
 5931TIP3   OH217798   4.985   0.343   2.195
 5931TIP3    H117799   4.989   0.312   2.285
 5931TIP3    H217800   4.988   0.263   2.142
 5932TIP3   OH217801   6.011   5.640   3.029
 5932TIP3    H117802   5.990   5.675   3.116
 5932TIP3    H217803   6.032   5.718   2.977
 5933TIP3   OH217804   2.070   0.508   1.831
 5933TIP3    H117805   1.991   0.503   1.778
 5933TIP3    H217806   2.043   0.477   1.918
 5934TIP3   OH217807   1.584   1.103   1.087
 5934TIP3    H117808   1.635   1.138   1.014
 5934TIP3    H217809   1.644   1.045   1.133
 5935TIP3   OH217810   3.562   2.248   2.864
 5935TIP3    H117811   3.639   2.286   2.907
 5935TIP3    H217812   3.520   2.194   2.932
 5936TIP3   OH217813   5.484   5.864   4.363
 5936TIP3    H117814   5.433   5.785   4.384
 5936TIP3    H217815   5.539   5.877   4.440
 5937TIP3   OH217816   5.181   0.395   3.014
 5937TIP3    H117817   5.118   0.452   2.970
 5937TIP3    H217818   5.231   0.453   3.071
 5938TIP3   OH217819   3.089   2.223   2.648
 5938TIP3    H117820   3.062   2.194   2.735
 5938TIP3    H217821   3.039   2.304   2.633
 5939TIP3   OH217822   6.297   3.563   4.862
 5939TIP3    H117823   6.236   3.490   4.851
 5939TIP3    H217824   6.290   3.585   4.955
 5940TIP3   OH217825   0.403   2.037   1.336
 5940TIP3    H117826   0.448   2.047   1.251
 5940TIP3    H217827   0.473   2.012   1.397
 5941TIP3   OH217828   3.930   2.400   2.762
 5941TIP3    H117829   4.020   2.399   2.729
 5941TIP3    H217830   3.875   2.390   2.684
 5942TIP3   OH217831   2.881   1.945   3.251
 5942TIP3    H117832   2.919   2.029   3.226
 5942TIP3    H217833   2.956   1.885   3.254
 5943TIP3   OH217834   1.510   5.439   1.737
 5943TIP3    H117835   1.584   5.469   1.790
 5943TIP3    H217836   1.441   5.503   1.753
 5944TIP3   OH217837   3.902   0.516   1.242
 5944TIP3    H117838   3.898   0.518   1.146
 5944TIP3    H217839   3.964   0.447   1.263
 5945TIP3   OH217840   0.679   4.406   2.490
 5945TIP3    H117841   0.609   4.469   2.506
 5945TIP3    H217842   0.758   4.448   2.524
 5946TIP3   OH217843   1.401   1.485   4.176
 5946TIP3    H117844   1.388   1.579   4.164
 5946TIP3    H217845   1.494   1.470   4.161
 5947TIP3   OH217846   6.162   0.193   4.866
 5947TIP3    H117847   6.170   0.154   4.953
 5947TIP3    H217848   6.245   0.175   4.823
 5948TIP3   OH217849   1.578   3.157   4.166
 5948TIP3    H117850   1.490   3.128   4.141
 5948TIP3    H217851   1.625   3.077   4.189
 5949TIP3   OH217852   0.025   3.640   4.006
 5949TIP3    H117853  -0.052   3.641   3.948
 5949TIP3    H217854   0.099   3.624   3.947
 5950TIP3   OH217855   3.720   4.150   4.924
 5950TIP3    H117856   3.810   4.151   4.890
 5950TIP3    H217857   3.718   4.076   4.985
 5951TIP3   OH217858   5.817   1.916   0.598
 5951TIP3    H117859   5.794   1.833   0.556
 5951TIP3    H217860   5.789   1.983   0.535
 5952TIP3   OH217861   4.433   0.805   3.965
 5952TIP3    H117862   4.451   0.827   4.056
 5952TIP3    H217863   4.520   0.791   3.926
 5953TIP3   OH217864   1.201   2.274   3.762
 5953TIP3    H117865   1.261   2.348   3.756
 5953TIP3    H217866   1.243   2.214   3.825
 5954TIP3   OH217867   4.842   3.000   2.753
 5954TIP3    H117868   4.809   2.928   2.806
 5954TIP3    H217869   4.882   3.060   2.816
 5955TIP3   OH217870   5.233   0.176   0.169
 5955TIP3    H117871   5.319   0.179   0.128
 5955TIP3    H217872   5.236   0.100   0.226
 5956TIP3   OH217873   2.396   1.972   5.139
 5956TIP3    H117874   2.385   1.877   5.148
 5956TIP3    H217875   2.323   2.009   5.187
 5957TIP3   OH217876   2.325   1.132   3.433
 5957TIP3    H117877   2.288   1.044   3.445
 5957TIP3    H217878   2.415   1.125   3.465
 5958TIP3   OH217879   6.012   3.526   3.648
 5958TIP3    H117880   5.926   3.504   3.612
 5958TIP3    H217881   6.073   3.467   3.602
 5959TIP3   OH217882   3.667   5.251   3.771
 5959TIP3    H117883   3.745   5.267   3.717
 5959TIP3    H217884   3.628   5.337   3.784
 5960TIP3   OH217885   4.398   3.976   4.272
 5960TIP3    H117886   4.361   4.025   4.198
 5960TIP3    H217887   4.326   3.919   4.301
 5961TIP3   OH217888   1.922   0.333   2.666
 5961TIP3    H117889   1.997   0.302   2.717
 5961TIP3    H217890   1.864   0.372   2.731
 5962TIP3   OH217891   4.464   5.119   4.776
 5962TIP3    H117892   4.557   5.112   4.795
 5962TIP3    H217893   4.440   5.206   4.807
 5963TIP3   OH217894   4.813   1.461   2.313
 5963TIP3    H117895   4.835   1.452   2.220
 5963TIP3    H217896   4.720   1.484   2.314
 5964TIP3   OH217897   0.661   0.819   0.564
 5964TIP3    H117898   0.722   0.859   0.502
 5964TIP3    H217899   0.576   0.855   0.540
 5965TIP3   OH217900   1.356   2.500   4.502
 5965TIP3    H117901   1.398   2.555   4.435
 5965TIP3    H217902   1.388   2.535   4.585
 5966TIP3   OH217903   0.284   0.131   4.704
 5966TIP3    H117904   0.365   0.096   4.741
 5966TIP3    H217905   0.290   0.111   4.610
 5967TIP3   OH217906   1.531   4.478   4.754
 5967TIP3    H117907   1.503   4.537   4.685
 5967TIP3    H217908   1.458   4.475   4.815
 5968TIP3   OH217909   1.685   0.495   3.948
 5968TIP3    H117910   1.738   0.553   4.004
 5968TIP3    H217911   1.601   0.491   3.992
 5969TIP3   OH217912   4.723   5.145   4.557
 5969TIP3    H117913   4.634   5.112   4.570
 5969TIP3    H217914   4.765   5.133   4.643
 5970TIP3   OH217915   0.954   0.244   1.508
 5970TIP3    H117916   0.993   0.284   1.430
 5970TIP3    H217917   0.879   0.301   1.529
 5971TIP3   OH217918   2.833   3.244   4.695
 5971TIP3    H117919   2.752   3.266   4.741
 5971TIP3    H217920   2.887   3.322   4.703
 5972TIP3   OH217921   3.347   2.836   1.487
 5972TIP3    H117922   3.417   2.887   1.446
 5972TIP3    H217923   3.266   2.879   1.458
 5973TIP3   OH217924   5.015   1.723   4.240
 5973TIP3    H117925   5.043   1.813   4.225
 5973TIP3    H217926   4.921   1.731   4.258
 5974TIP3   OH217927   1.509   3.619   4.281
 5974TIP3    H117928   1.549   3.626   4.194
 5974TIP3    H217929   1.483   3.708   4.302
 5975TIP3   OH217930   3.003   1.521   5.004
 5975TIP3    H117931   2.946   1.541   4.930
 5975TIP3    H217932   2.995   1.596   5.062
 5976TIP3   OH217933   3.107   3.763   1.096
 5976TIP3    H117934   3.160   3.797   1.024
 5976TIP3    H217935   3.019   3.756   1.060
 5977TIP3   OH217936   1.034   3.492   4.099
 5977TIP3    H117937   1.096   3.419   4.094
 5977TIP3    H217938   0.971   3.474   4.029
 5978TIP3   OH217939   1.809   1.703   2.932
 5978TIP3    H117940   1.780   1.629   2.879
 5978TIP3    H217941   1.759   1.778   2.897
 5979TIP3   OH217942   6.182   2.433   2.352
 5979TIP3    H117943   6.188   2.380   2.432
 5979TIP3    H217944   6.273   2.446   2.325
 5980TIP3   OH217945   1.522   2.027   3.430
 5980TIP3    H117946   1.554   2.020   3.520
 5980TIP3    H217947   1.457   1.958   3.422
 5981TIP3   OH217948   3.629   0.217   5.035
 5981TIP3    H117949   3.649   0.274   5.110
 5981TIP3    H217950   3.555   0.259   4.992
 5982TIP3   OH217951   5.474   0.603   4.903
 5982TIP3    H117952   5.551   0.650   4.934
 5982TIP3    H217953   5.442   0.655   4.829
 5983TIP3   OH217954   0.662   5.427   3.559
 5983TIP3    H117955   0.727   5.498   3.561
 5983TIP3    H217956   0.587   5.464   3.514
 5984TIP3   OH217957   5.775   5.119   0.486
 5984TIP3    H117958   5.745   5.090   0.400
 5984TIP3    H217959   5.698   5.157   0.528
 5985TIP3   OH217960   0.102   2.929   2.969
 5985TIP3    H117961   0.028   2.920   3.029
 5985TIP3    H217962   0.137   2.841   2.961
 5986TIP3   OH217963   4.528   4.855   0.511
 5986TIP3    H117964   4.464   4.786   0.495
 5986TIP3    H217965   4.589   4.850   0.438
 5987TIP3   OH217966   4.645   1.779   3.963
 5987TIP3    H117967   4.617   1.734   4.042
 5987TIP3    H217968   4.722   1.731   3.934
 5988TIP3   OH217969   4.289   4.533   1.040
 5988TIP3    H117970   4.225   4.571   1.100
 5988TIP3    H217971   4.255   4.555   0.953
 5989TIP3   OH217972   4.842   0.174   4.487
 5989TIP3    H117973   4.847   0.243   4.553
 5989TIP3    H217974   4.841   0.221   4.404
 5990TIP3   OH217975   3.505   5.465   4.734
 5990TIP3    H117976   3.437   5.438   4.795
 5990TIP3    H217977   3.461   5.526   4.675
 5991TIP3   OH217978   2.879   1.190   1.590
 5991TIP3    H117979   2.869   1.232   1.504
 5991TIP3    H217980   2.841   1.251   1.652
 5992TIP3   OH217981   1.562   3.485   1.022
 5992TIP3    H117982   1.566   3.578   0.999
 5992TIP3    H217983   1.597   3.440   0.945
 5993TIP3   OH217984   4.343   0.139   5.077
 5993TIP3    H117985   4.366   0.054   5.038
 5993TIP3    H217986   4.413   0.157   5.139
 5994TIP3   OH217987   3.042   2.149   2.910
 5994TIP3    H117988   3.025   2.168   3.003
 5994TIP3    H217989   3.126   2.104   2.910
 5995TIP3   OH217990   2.500   2.439   0.118
 5995TIP3    H117991   2.588   2.435   0.158
 5995TIP3    H217992   2.515   2.477   0.032
 5996TIP3   OH217993   5.657  -0.022   1.171
 5996TIP3    H117994   5.664   0.069   1.143
 5996TIP3    H217995   5.744  -0.045   1.203
 5997TIP3   OH217996   5.024   4.289   0.913
 5997TIP3    H117997   5.117   4.302   0.897
 5997TIP3    H217998   5.019   4.204   0.957
 5998TIP3   OH217999   1.310   3.525   4.842
 5998TIP3    H118000   1.278   3.607   4.878
 5998TIP3    H218001   1.334   3.546   4.752
 5999TIP3   OH218002   3.735   5.011   0.508
 5999TIP3    H118003   3.644   5.042   0.511
 5999TIP3    H218004   3.748   4.983   0.417
 6000TIP3   OH218005   5.597   6.001   4.949
 6000TIP3    H118006   5.650   6.065   4.996
 6000TIP3    H218007   5.628   6.005   4.858
 6001TIP3   OH218008   4.018   1.573   0.749
 6001TIP3    H118009   4.017   1.545   0.841
 6001TIP3    H218010   4.086   1.519   0.708
 6002TIP3   OH218011   3.295   0.956   3.718
 6002TIP3    H118012   3.333   0.973   3.631
 6002TIP3    H218013   3.226   1.022   3.726
 6003TIP3   OH218014   3.620   4.925   1.087
 6003TIP3    H118015   3.582   4.946   1.001
 6003TIP3    H218016   3.604   5.002   1.140
 6004TIP3   OH218017   1.240   1.963  -0.017
 6004TIP3    H118018   1.200   1.877  -0.020
 6004TIP3    H218019   1.334   1.947  -0.024
 6005TIP3   OH218020   4.436   1.495   1.357
 6005TIP3    H118021   4.375   1.437   1.402
 6005TIP3    H218022   4.510   1.439   1.334
 6006TIP3   OH218023   5.538   0.276   0.503
 6006TIP3    H118024   5.600   0.314   0.441
 6006TIP3    H218025   5.574   0.296   0.589
 6007TIP3   OH218026   3.599   3.015   1.623
 6007TIP3    H118027   3.510   3.048   1.630
 6007TIP3    H218028   3.606   2.948   1.690
 6008TIP3   OH218029   2.349   3.678   0.666
 6008TIP3    H118030   2.429   3.659   0.617
 6008TIP3    H218031   2.363   3.639   0.752
 6009TIP3   OH218032   4.805   5.119   1.970
 6009TIP3    H118033   4.779   5.038   2.015
 6009TIP3    H218034   4.722   5.159   1.944
 6010TIP3   OH218035   0.127   2.099   2.898
 6010TIP3    H118036   0.129   2.050   2.816
 6010TIP3    H218037   0.083   2.181   2.876
 6011TIP3   OH218038   1.733   5.812   2.097
 6011TIP3    H118039   1.652   5.838   2.141
 6011TIP3    H218040   1.712   5.728   2.058
 6012TIP3   OH218041   0.544   2.796   1.708
 6012TIP3    H118042   0.552   2.760   1.796
 6012TIP3    H218043   0.620   2.761   1.661
 6013TIP3   OH218044   1.898   3.176   3.285
 6013TIP3    H118045   1.859   3.254   3.244
 6013TIP3    H218046   1.892   3.194   3.379
 6014TIP3   OH218047   4.061   5.503   1.416
 6014TIP3    H118048   4.059   5.583   1.470
 6014TIP3    H218049   3.970   5.487   1.392
 6015TIP3   OH218050   4.689   0.611   2.790
 6015TIP3    H118051   4.634   0.551   2.738
 6015TIP3    H218052   4.636   0.690   2.800
 6016TIP3   OH218053   5.182   0.759   2.410
 6016TIP3    H118054   5.141   0.846   2.406
 6016TIP3    H218055   5.239   0.763   2.487
 6017TIP3   OH218056   1.175   3.162   0.017
 6017TIP3    H118057   1.171   3.212   0.099
 6017TIP3    H218058   1.163   3.227  -0.051
 6018TIP3   OH218059   1.011   4.943   1.690
 6018TIP3    H118060   1.028   4.852   1.715
 6018TIP3    H218061   0.918   4.945   1.668
 6019TIP3   OH218062   3.641   0.574   3.088
 6019TIP3    H118063   3.608   0.486   3.101
 6019TIP3    H218064   3.697   0.591   3.163
 6020TIP3   OH218065   1.711   3.116   4.972
 6020TIP3    H118066   1.631   3.084   4.929
 6020TIP3    H218067   1.758   3.037   4.996
 6021TIP3   OH218068   2.726   5.829   2.815
 6021TIP3    H118069   2.752   5.920   2.805
 6021TIP3    H218070   2.750   5.788   2.732
 6022TIP3   OH218071   4.608   4.538   4.314
 6022TIP3    H118072   4.642   4.606   4.372
 6022TIP3    H218073   4.627   4.455   4.359
 6023TIP3   OH218074   2.912   4.850   1.442
 6023TIP3    H118075   3.007   4.840   1.431
 6023TIP3    H218076   2.901   4.877   1.533
 6024TIP3   OH218077   1.062   3.636   1.180
 6024TIP3    H118078   1.140   3.664   1.131
 6024TIP3    H218079   0.992   3.692   1.147
 6025TIP3   OH218080   5.866   3.973   4.230
 6025TIP3    H118081   5.835   3.929   4.309
 6025TIP3    H218082   5.789   3.975   4.172
 6026TIP3   OH218083   0.899   0.338   0.622
 6026TIP3    H118084   0.967   0.367   0.683
 6026TIP3    H218085   0.901   0.243   0.628
 6027TIP3   OH218086   3.283   2.094   3.671
 6027TIP3    H118087   3.188   2.095   3.661
 6027TIP3    H218088   3.316   2.113   3.583
 6028TIP3   OH218089   6.130   4.117   2.525
 6028TIP3    H118090   6.060   4.179   2.504
 6028TIP3    H218091   6.211   4.168   2.516
 6029TIP3   OH218092   0.099   2.829   0.383
 6029TIP3    H118093   0.062   2.897   0.438
 6029TIP3    H218094   0.180   2.803   0.427
 6030TIP3   OH218095   5.992   1.743   0.024
 6030TIP3    H118096   5.905   1.724   0.059
 6030TIP3    H218097   6.048   1.674   0.057
 6031TIP3   OH218098   0.129   3.904   4.078
 6031TIP3    H118099   0.162   3.929   3.992
 6031TIP3    H218100   0.087   3.819   4.065
 6032TIP3   OH218101   3.988   1.059   0.121
 6032TIP3    H118102   4.055   1.078   0.055
 6032TIP3    H218103   3.909   1.103   0.089
 6033TIP3   OH218104   4.513   1.140   3.353
 6033TIP3    H118105   4.604   1.156   3.327
 6033TIP3    H218106   4.488   1.219   3.399
 6034TIP3   OH218107   3.234   3.712   3.513
 6034TIP3    H118108   3.245   3.623   3.547
 6034TIP3    H218109   3.295   3.765   3.564
 6035TIP3   OH218110   2.901   2.403   4.426
 6035TIP3    H118111   2.981   2.413   4.375
 6035TIP3    H218112   2.874   2.493   4.445
 6036TIP3   OH218113   3.314   3.541   4.413
 6036TIP3    H118114   3.268   3.544   4.329
 6036TIP3    H218115   3.249   3.504   4.474
 6037TIP3   OH218116   2.221   5.796   2.350
 6037TIP3    H118117   2.270   5.774   2.271
 6037TIP3    H218118   2.147   5.847   2.319
 6038TIP3   OH218119   0.145   2.288   0.140
 6038TIP3    H118120   0.082   2.258   0.075
 6038TIP3    H218121   0.168   2.376   0.113
 6039TIP3   OH218122   4.132   0.041   3.446
 6039TIP3    H118123   4.099   0.085   3.524
 6039TIP3    H218124   4.162   0.111   3.389
 6040TIP3   OH218125   6.008   1.612   2.816
 6040TIP3    H118126   6.004   1.653   2.730
 6040TIP3    H218127   5.923   1.630   2.856
 6041TIP3   OH218128   1.491   1.700   4.006
 6041TIP3    H118129   1.561   1.649   3.965
 6041TIP3    H218130   1.506   1.692   4.100
 6042TIP3   OH218131   4.748   1.490   3.744
 6042TIP3    H118132   4.668   1.482   3.796
 6042TIP3    H218133   4.719   1.531   3.663
 6043TIP3   OH218134   0.275   4.133   4.994
 6043TIP3    H118135   0.185   4.102   4.988
 6043TIP3    H218136   0.305   4.138   4.903
 6044TIP3   OH218137   5.479   1.890   1.043
 6044TIP3    H118138   5.478   1.851   0.955
 6044TIP3    H218139   5.412   1.843   1.091
 6045TIP3   OH218140   2.335   2.155   1.169
 6045TIP3    H118141   2.361   2.206   1.092
 6045TIP3    H218142   2.255   2.197   1.200
 6046TIP3   OH218143   2.325   4.556   2.878
 6046TIP3    H118144   2.333   4.644   2.914
 6046TIP3    H218145   2.323   4.499   2.955
 6047TIP3   OH218146   2.806   2.794   4.883
 6047TIP3    H118147   2.861   2.852   4.935
 6047TIP3    H218148   2.768   2.733   4.946
 6048TIP3   OH218149   2.512   4.238   1.010
 6048TIP3    H118150   2.572   4.268   1.078
 6048TIP3    H218151   2.563   4.175   0.959
 6049TIP3   OH218152   0.355   3.817   4.397
 6049TIP3    H118153   0.432   3.761   4.392
 6049TIP3    H218154   0.281   3.757   4.405
 6050TIP3   OH218155   2.242   2.271   2.033
 6050TIP3    H118156   2.193   2.354   2.034
 6050TIP3    H218157   2.197   2.216   2.097
 6051TIP3   OH218158   4.569   2.396   3.651
 6051TIP3    H118159   4.658   2.403   3.683
 6051TIP3    H218160   4.554   2.477   3.604
 6052TIP3   OH218161   2.237   2.876   3.036
 6052TIP3    H118162   2.313   2.915   2.993
 6052TIP3    H218163   2.168   2.941   3.025
 6053TIP3   OH218164   5.677   4.981   4.212
 6053TIP3    H118165   5.685   4.996   4.307
 6053TIP3    H218166   5.603   5.036   4.186
 6054TIP3   OH218167   0.473   5.237   2.166
 6054TIP3    H118168   0.497   5.330   2.163
 6054TIP3    H218169   0.477   5.214   2.259
 6055TIP3   OH218170   1.025   4.006   0.326
 6055TIP3    H118171   1.029   4.098   0.352
 6055TIP3    H218172   1.103   3.966   0.365
 6056TIP3   OH218173   6.207   3.811   2.542
 6056TIP3    H118174   6.118   3.779   2.555
 6056TIP3    H218175   6.224   3.865   2.619
 6057TIP3   OH218176   5.038   4.049   0.661
 6057TIP3    H118177   4.995   4.133   0.673
 6057TIP3    H218178   5.000   3.993   0.729
 6058TIP3   OH218179   1.129   3.335   4.867
 6058TIP3    H118180   1.189   3.270   4.903
 6058TIP3    H218181   1.171   3.419   4.886
 6059TIP3   OH218182   1.936   3.980   4.370
 6059TIP3    H118183   1.854   3.990   4.321
 6059TIP3    H218184   1.972   3.897   4.339
 6060TIP3   OH218185   0.785   3.728   3.753
 6060TIP3    H118186   0.706   3.700   3.800
 6060TIP3    H218187   0.833   3.781   3.816
 6061TIP3   OH218188   1.934   5.098   1.002
 6061TIP3    H118189   1.870   5.040   0.959
 6061TIP3    H218190   2.016   5.049   1.000
 6062TIP3   OH218191   3.812   0.004   3.373
 6062TIP3    H118192   3.801   0.027   3.465
 6062TIP3    H218193   3.814   0.088   3.327
 6063TIP3   OH218194   2.846   1.637   2.306
 6063TIP3    H118195   2.843   1.692   2.227
 6063TIP3    H218196   2.755   1.615   2.323
 6064TIP3   OH218197   4.214   3.324   3.432
 6064TIP3    H118198   4.124   3.307   3.403
 6064TIP3    H218199   4.210   3.412   3.470
 6065TIP3   OH218200   0.332   0.579   0.365
 6065TIP3    H118201   0.411   0.624   0.334
 6065TIP3    H218202   0.260   0.636   0.337
 6066TIP3   OH218203   3.394   2.405   2.730
 6066TIP3    H118204   3.404   2.355   2.649
 6066TIP3    H218205   3.458   2.366   2.790
 6067TIP3   OH218206   1.902   0.903   0.836
 6067TIP3    H118207   1.899   0.875   0.928
 6067TIP3    H218208   1.880   0.825   0.786
 6068TIP3   OH218209   0.548   1.237   0.096
 6068TIP3    H118210   0.615   1.290   0.053
 6068TIP3    H218211   0.564   1.249   0.190
 6069TIP3   OH218212   3.097   2.088   4.586
 6069TIP3    H118213   3.025   2.043   4.542
 6069TIP3    H218214   3.158   2.019   4.611
 6070TIP3   OH218215   4.156   5.383   0.132
 6070TIP3    H118216   4.096   5.435   0.079
 6070TIP3    H218217   4.143   5.293   0.101
 6071TIP3   OH218218   3.332   2.964   2.938
 6071TIP3    H118219   3.329   2.986   3.031
 6071TIP3    H218220   3.411   2.911   2.928
 6072TIP3   OH218221   0.378   5.497   4.319
 6072TIP3    H118222   0.344   5.561   4.382
 6072TIP3    H218223   0.302   5.446   4.293
 6073TIP3   OH218224   2.387   4.213   4.233
 6073TIP3    H118225   2.300   4.247   4.257
 6073TIP3    H218226   2.415   4.269   4.160
 6074TIP3   OH218227   2.333   4.719   0.636
 6074TIP3    H118228   2.404   4.780   0.617
 6074TIP3    H218229   2.375   4.633   0.632
 6075TIP3   OH218230   0.250   1.394   0.258
 6075TIP3    H118231   0.244   1.360   0.169
 6075TIP3    H218232   0.252   1.316   0.313
 6076TIP3   OH218233   0.503   0.391   1.662
 6076TIP3    H118234   0.450   0.443   1.601
 6076TIP3    H218235   0.585   0.438   1.670
 6077TIP3   OH218236   4.992   5.584   0.713
 6077TIP3    H118237   5.074   5.628   0.690
 6077TIP3    H218238   4.979   5.519   0.644
 6078TIP3   OH218239   1.542   5.992   0.114
 6078TIP3    H118240   1.550   5.898   0.131
 6078TIP3    H218241   1.482   5.998   0.040
 6079TIP3   OH218242   2.983   0.114   1.558
 6079TIP3    H118243   2.916   0.145   1.498
 6079TIP3    H218244   3.056   0.175   1.546
 6080TIP3   OH218245   2.727   3.725   1.678
 6080TIP3    H118246   2.704   3.632   1.683
 6080TIP3    H218247   2.822   3.726   1.689
 6081TIP3   OH218248   2.558   2.640   0.843
 6081TIP3    H118249   2.606   2.723   0.848
 6081TIP3    H218250   2.499   2.651   0.769
 6082TIP3   OH218251   1.114   1.222   3.454
 6082TIP3    H118252   1.092   1.315   3.459
 6082TIP3    H218253   1.054   1.186   3.389
 6083TIP3   OH218254   1.324   2.437   3.536
 6083TIP3    H118255   1.246   2.458   3.587
 6083TIP3    H218256   1.312   2.346   3.509
 6084TIP3   OH218257   1.835   1.521   5.174
 6084TIP3    H118258   1.919   1.560   5.199
 6084TIP3    H218259   1.803   1.480   5.254
 6085TIP3   OH218260   3.068   3.811   0.026
 6085TIP3    H118261   3.151   3.850   0.054
 6085TIP3    H218262   3.010   3.822   0.100
 6086TIP3   OH218263   1.033   3.065   4.762
 6086TIP3    H118264   1.038   3.145   4.814
 6086TIP3    H218265   0.956   3.020   4.796
 6087TIP3   OH218266   5.712   0.225   1.672
 6087TIP3    H118267   5.767   0.159   1.630
 6087TIP3    H218268   5.696   0.190   1.760
 6088TIP3   OH218269   1.781   1.318   1.987
 6088TIP3    H118270   1.711   1.288   2.045
 6088TIP3    H218271   1.789   1.249   1.921
 6089TIP3   OH218272   2.121   4.020   0.423
 6089TIP3    H118273   2.100   3.957   0.492
 6089TIP3    H218274   2.178   3.972   0.363
 6090TIP3   OH218275   4.014   4.456   0.257
 6090TIP3    H118276   4.085   4.507   0.296
 6090TIP3    H218277   3.996   4.387   0.320
 6091TIP3   OH218278   0.654   1.603   1.673
 6091TIP3    H118279   0.685   1.662   1.742
 6091TIP3    H218280   0.687   1.517   1.699
 6092TIP3   OH218281   0.892   5.180   2.287
 6092TIP3    H118282   0.880   5.101   2.339
 6092TIP3    H218283   0.880   5.252   2.349
 6093TIP3   OH218284   1.612   0.084   0.436
 6093TIP3    H118285   1.648   0.102   0.522
 6093TIP3    H218286   1.650   0.151   0.379
 6094TIP3   OH218287   4.428   1.645   2.909
 6094TIP3    H118288   4.394   1.556   2.917
 6094TIP3    H218289   4.473   1.660   2.992
 6095TIP3   OH218290   1.402   2.658   2.687
 6095TIP3    H118291   1.408   2.590   2.755
 6095TIP3    H218292   1.410   2.740   2.735
 6096TIP3   OH218293   4.611   3.072   2.378
 6096TIP3    H118294   4.698   3.039   2.401
 6096TIP3    H218295   4.599   3.046   2.286
 6097TIP3   OH218296   5.140   0.657   4.517
 6097TIP3    H118297   5.162   0.749   4.509
 6097TIP3    H218298   5.045   0.653   4.505
 6098TIP3   OH218299   5.963   4.265   2.338
 6098TIP3    H118300   6.035   4.254   2.276
 6098TIP3    H218301   5.961   4.359   2.356
 6099TIP3   OH218302   0.448   3.018   3.923
 6099TIP3    H118303   0.388   3.064   3.981
 6099TIP3    H218304   0.527   3.006   3.974
 6100TIP3   OH218305   5.787   0.316   2.161
 6100TIP3    H118306   5.849   0.384   2.133
 6100TIP3    H218307   5.778   0.259   2.084
 6101TIP3   OH218308   1.414   5.074   3.615
 6101TIP3    H118309   1.377   4.997   3.573
 6101TIP3    H218310   1.368   5.081   3.699
 6102TIP3   OH218311   3.624   3.848   3.701
 6102TIP3    H118312   3.576   3.930   3.691
 6102TIP3    H218313   3.648   3.846   3.794
 6103TIP3   OH218314   2.392   1.742   4.618
 6103TIP3    H118315   2.375   1.817   4.561
 6103TIP3    H218316   2.435   1.779   4.694
 6104TIP3   OH218317   5.116   1.844   3.476
 6104TIP3    H118318   5.119   1.929   3.434
 6104TIP3    H218319   5.195   1.799   3.445
 6105TIP3   OH218320   5.381   0.653   4.661
 6105TIP3    H118321   5.447   0.702   4.612
 6105TIP3    H218322   5.300   0.666   4.611
 6106TIP3   OH218323   0.336   2.573   3.160
 6106TIP3    H118324   0.354   2.607   3.248
 6106TIP3    H218325   0.366   2.643   3.101
 6107TIP3   OH218326   2.829   5.458   3.190
 6107TIP3    H118327   2.825   5.376   3.142
 6107TIP3    H218328   2.862   5.522   3.127
 6108TIP3   OH218329   0.642   0.325   1.097
 6108TIP3    H118330   0.649   0.346   1.190
 6108TIP3    H218331   0.594   0.398   1.059
 6109TIP3   OH218332   2.788  -0.017   0.761
 6109TIP3    H118333   2.792   0.078   0.773
 6109TIP3    H218334   2.730  -0.030   0.686
 6110TIP3   OH218335   0.406   5.821   4.730
 6110TIP3    H118336   0.479   5.873   4.697
 6110TIP3    H218337   0.447   5.753   4.783
 6111TIP3   OH218338   3.394   4.118   2.837
 6111TIP3    H118339   3.316   4.124   2.891
 6111TIP3    H218340   3.428   4.030   2.853
 6112TIP3   OH218341   4.222   1.184   4.867
 6112TIP3    H118342   4.299   1.154   4.915
 6112TIP3    H218343   4.160   1.209   4.936
 6113TIP3   OH218344   3.572   5.886   3.478
 6113TIP3    H118345   3.503   5.952   3.477
 6113TIP3    H218346   3.541   5.819   3.539
 6114TIP3   OH218347   0.350   0.969   3.690
 6114TIP3    H118348   0.339   0.883   3.732
 6114TIP3    H218349   0.443   0.974   3.670
 6115TIP3   OH218350   0.682   0.700   3.816
 6115TIP3    H118351   0.721   0.617   3.840
 6115TIP3    H218352   0.589   0.680   3.805
 6116TIP3   OH218353   5.501   5.898   0.364
 6116TIP3    H118354   5.541   5.949   0.293
 6116TIP3    H218355   5.576   5.864   0.414
 6117TIP3   OH218356   6.276   2.559   1.829
 6117TIP3    H118357   6.276   2.463   1.830
 6117TIP3    H218358   6.321   2.581   1.747
 6118TIP3   OH218359   1.026   3.630   0.285
 6118TIP3    H118360   0.959   3.580   0.332
 6118TIP3    H218361   1.091   3.565   0.260
 6119TIP3   OH218362   4.267   2.032   3.454
 6119TIP3    H118363   4.296   1.943   3.435
 6119TIP3    H218364   4.255   2.073   3.368
 6120TIP3   OH218365   2.624   4.719   4.707
 6120TIP3    H118366   2.679   4.719   4.629
 6120TIP3    H218367   2.677   4.676   4.774
 6121TIP3   OH218368   4.001   1.448   0.991
 6121TIP3    H118369   4.039   1.386   1.054
 6121TIP3    H218370   3.918   1.409   0.966
 6122TIP3   OH218371   6.181   4.699   4.279
 6122TIP3    H118372   6.148   4.627   4.333
 6122TIP3    H218373   6.245   4.659   4.221
 6123TIP3   OH218374   1.793   0.987   2.884
 6123TIP3    H118375   1.707   1.027   2.873
 6123TIP3    H218376   1.847   1.026   2.814
 6124TIP3   OH218377   4.823   5.507   3.982
 6124TIP3    H118378   4.773   5.516   3.901
 6124TIP3    H218379   4.910   5.478   3.954
 6125TIP3   OH218380   1.855   3.457   0.612
 6125TIP3    H118381   1.786   3.436   0.550
 6125TIP3    H218382   1.923   3.500   0.559
 6126TIP3   OH218383   5.789   2.833   3.408
 6126TIP3    H118384   5.693   2.833   3.406
 6126TIP3    H218385   5.812   2.844   3.500
 6127TIP3   OH218386   5.447   0.181   2.518
 6127TIP3    H118387   5.388   0.229   2.576
 6127TIP3    H218388   5.432   0.089   2.538
 6128TIP3   OH218389   2.071   2.667   4.408
 6128TIP3    H118390   2.059   2.761   4.421
 6128TIP3    H218391   2.066   2.630   4.496
 6129TIP3   OH218392   4.964   4.140   4.404
 6129TIP3    H118393   4.969   4.048   4.429
 6129TIP3    H218394   4.927   4.139   4.316
 6130TIP3   OH218395   3.354   1.777   0.348
 6130TIP3    H118396   3.356   1.842   0.278
 6130TIP3    H218397   3.422   1.805   0.409
 6131TIP3   OH218398   0.133   2.595   2.653
 6131TIP3    H118399   0.195   2.668   2.657
 6131TIP3    H218400   0.078   2.615   2.577
 6132TIP3   OH218401   0.315   0.316   2.531
 6132TIP3    H118402   0.359   0.381   2.586
 6132TIP3    H218403   0.226   0.347   2.522
 6133TIP3   OH218404   4.245   5.402   0.395
 6133TIP3    H118405   4.208   5.384   0.308
 6133TIP3    H218406   4.292   5.484   0.384
 6134TIP3   OH218407   5.842   3.175   4.917
 6134TIP3    H118408   5.871   3.246   4.974
 6134TIP3    H218409   5.839   3.213   4.830
 6135TIP3   OH218410   0.190   1.838   4.846
 6135TIP3    H118411   0.118   1.901   4.846
 6135TIP3    H218412   0.149   1.755   4.824
 6136TIP3   OH218413   4.919   0.438   3.735
 6136TIP3    H118414   4.956   0.497   3.668
 6136TIP3    H218415   4.875   0.370   3.685
 6137TIP3   OH218416   3.879   1.279   0.307
 6137TIP3    H118417   3.929   1.321   0.237
 6137TIP3    H218418   3.828   1.212   0.262
 6138TIP3   OH218419   1.938   2.962   5.003
 6138TIP3    H118420   1.924   2.941   5.096
 6138TIP3    H218421   2.028   2.934   4.987
 6139TIP3   OH218422   2.888   4.267   0.271
 6139TIP3    H118423   2.911   4.335   0.334
 6139TIP3    H218424   2.839   4.313   0.203
 6140TIP3   OH218425   3.727   0.844   3.615
 6140TIP3    H118426   3.657   0.896   3.574
 6140TIP3    H218427   3.710   0.851   3.709
 6141TIP3   OH218428   4.885   0.302   3.483
 6141TIP3    H118429   4.934   0.316   3.402
 6141TIP3    H218430   4.898   0.210   3.503
 6142TIP3   OH218431   0.436   5.267   3.193
 6142TIP3    H118432   0.394   5.221   3.266
 6142TIP3    H218433   0.447   5.357   3.225
 6143TIP3   OH218434   4.742   0.637   0.084
 6143TIP3    H118435   4.820   0.596   0.122
 6143TIP3    H218436   4.720   0.581   0.009
 6144TIP3   OH218437   4.919   1.511   3.377
 6144TIP3    H118438   5.000   1.469   3.349
 6144TIP3    H218439   4.934   1.534   3.469
 6145TIP3   OH218440   2.856   0.347   5.101
 6145TIP3    H118441   2.908   0.420   5.067
 6145TIP3    H218442   2.791   0.330   5.033
 6146TIP3   OH218443   2.489   4.665   3.840
 6146TIP3    H118444   2.566   4.651   3.896
 6146TIP3    H218445   2.521   4.721   3.770
 6147TIP3   OH218446   5.590   2.287   4.520
 6147TIP3    H118447   5.544   2.216   4.475
 6147TIP3    H218448   5.668   2.303   4.467
 6148TIP3   OH218449   3.750   5.669   0.299
 6148TIP3    H118450   3.765   5.612   0.374
 6148TIP3    H218451   3.757   5.612   0.222
 6149TIP3   OH218452   3.755   2.854   0.351
 6149TIP3    H118453   3.682   2.913   0.367
 6149TIP3    H218454   3.786   2.877   0.263
 6150TIP3   OH218455   0.507   5.077   1.900
 6150TIP3    H118456   0.537   5.098   1.812
 6150TIP3    H218457   0.578   5.108   1.957
 6151TIP3   OH218458   1.372   2.763   0.942
 6151TIP3    H118459   1.405   2.695   0.883
 6151TIP3    H218460   1.405   2.845   0.904
 6152TIP3   OH218461   2.719   1.754   4.979
 6152TIP3    H118462   2.747   1.740   5.070
 6152TIP3    H218463   2.624   1.745   4.982
 6153TIP3   OH218464   4.111   4.255   0.510
 6153TIP3    H118465   4.159   4.203   0.446
 6153TIP3    H218466   4.174   4.269   0.581
 6154TIP3   OH218467   1.292   2.934   2.400
 6154TIP3    H118468   1.298   3.010   2.342
 6154TIP3    H218469   1.198   2.916   2.407
 6155TIP3   OH218470   4.670   3.196   1.744
 6155TIP3    H118471   4.632   3.202   1.656
 6155TIP3    H218472   4.744   3.136   1.733
 6156TIP3   OH218473   3.223   0.147   0.140
 6156TIP3    H118474   3.145   0.157   0.194
 6156TIP3    H218475   3.296   0.151   0.203
 6157TIP3   OH218476   5.316   3.471   3.443
 6157TIP3    H118477   5.365   3.403   3.489
 6157TIP3    H218478   5.229   3.470   3.484
 6158TIP3   OH218479   2.987   0.590   1.372
 6158TIP3    H118480   2.910   0.605   1.317
 6158TIP3    H218481   2.983   0.658   1.440
 6159TIP3   OH218482   5.262   1.995   4.081
 6159TIP3    H118483   5.307   2.040   4.152
 6159TIP3    H218484   5.237   2.065   4.021
 6160TIP3   OH218485   0.958   5.623   1.452
 6160TIP3    H118486   0.963   5.697   1.513
 6160TIP3    H218487   0.892   5.650   1.388
 6161TIP3   OH218488   4.499   1.360   3.526
 6161TIP3    H118489   4.404   1.356   3.519
 6161TIP3    H218490   4.518   1.453   3.541
 6162TIP3   OH218491   2.033   3.718   4.368
 6162TIP3    H118492   1.998   3.657   4.433
 6162TIP3    H218493   2.103   3.669   4.325
 6163TIP3   OH218494   0.611   1.363   0.820
 6163TIP3    H118495   0.545   1.348   0.753
 6163TIP3    H218496   0.622   1.278   0.863
 6164TIP3   OH218497   0.940   5.469   3.900
 6164TIP3    H118498   0.930   5.540   3.964
 6164TIP3    H218499   1.004   5.503   3.837
 6165TIP3   OH218500   5.432   3.552   0.386
 6165TIP3    H118501   5.434   3.647   0.401
 6165TIP3    H218502   5.412   3.515   0.472
 6166TIP3   OH218503   3.380   4.312   0.051
 6166TIP3    H118504   3.304   4.369   0.055
 6166TIP3    H218505   3.356   4.243  -0.009
 6167TIP3   OH218506   1.564   3.881   1.107
 6167TIP3    H118507   1.617   3.909   1.181
 6167TIP3    H218508   1.474   3.904   1.132
 6168TIP3   OH218509   0.131   0.900   5.144
 6168TIP3    H118510   0.045   0.943   5.143
 6168TIP3    H218511   0.114   0.811   5.113
 6169TIP3   OH218512   0.400   5.881   0.212
 6169TIP3    H118513   0.417   5.972   0.187
 6169TIP3    H218514   0.412   5.880   0.307
 6170TIP3   OH218515   2.436   4.126   3.404
 6170TIP3    H118516   2.364   4.167   3.356
 6170TIP3    H218517   2.498   4.197   3.419
 6171TIP3   OH218518   1.155   0.962   4.030
 6171TIP3    H118519   1.246   0.978   4.004
 6171TIP3    H218520   1.162   0.909   4.110
 6172TIP3   OH218521   2.147   5.829   4.738
 6172TIP3    H118522   2.068   5.843   4.791
 6172TIP3    H218523   2.141   5.737   4.711
 6173TIP3   OH218524   4.916   0.381   2.821
 6173TIP3    H118525   4.985   0.414   2.764
 6173TIP3    H218526   4.856   0.455   2.831
 6174TIP3   OH218527   3.317   3.625   1.846
 6174TIP3    H118528   3.375   3.690   1.884
 6174TIP3    H218529   3.276   3.670   1.771
 6175TIP3   OH218530   5.269   4.309   3.860
 6175TIP3    H118531   5.270   4.314   3.955
 6175TIP3    H218532   5.235   4.394   3.832
 6176TIP3   OH218533   0.997   2.134   4.650
 6176TIP3    H118534   1.032   2.062   4.597
 6176TIP3    H218535   1.051   2.209   4.625
 6177TIP3   OH218536   4.894   0.566   1.836
 6177TIP3    H118537   4.845   0.496   1.879
 6177TIP3    H218538   4.859   0.570   1.747
 6178TIP3   OH218539   0.119   0.081   2.563
 6178TIP3    H118540   0.212   0.097   2.544
 6178TIP3    H218541   0.099   0.000   2.517
 6179TIP3   OH218542   3.634   3.154   1.205
 6179TIP3    H118543   3.580   3.076   1.213
 6179TIP3    H218544   3.618   3.203   1.286
 6180TIP3   OH218545   1.774   2.204   2.854
 6180TIP3    H118546   1.679   2.190   2.857
 6180TIP3    H218547   1.808   2.124   2.815
 6181TIP3   OH218548   6.333   3.265   3.228
 6181TIP3    H118549   6.395   3.239   3.160
 6181TIP3    H218550   6.304   3.183   3.267
 6182TIP3   OH218551   5.697   5.473  -0.016
 6182TIP3    H118552   5.639   5.415   0.033
 6182TIP3    H218553   5.778   5.476   0.035
 6183TIP3   OH218554   4.554   2.337   1.690
 6183TIP3    H118555   4.559   2.400   1.618
 6183TIP3    H218556   4.488   2.274   1.662
 6184TIP3   OH218557   1.740   5.981   0.686
 6184TIP3    H118558   1.710   5.929   0.611
 6184TIP3    H218559   1.835   5.989   0.673
 6185TIP3   OH218560   3.109   1.778   1.258
 6185TIP3    H118561   3.130   1.740   1.173
 6185TIP3    H218562   3.135   1.870   1.250
 6186TIP3   OH218563   5.962   5.693   0.290
 6186TIP3    H118564   5.991   5.701   0.200
 6186TIP3    H218565   6.029   5.639   0.332
 6187TIP3   OH218566   2.889   2.506   1.791
 6187TIP3    H118567   2.927   2.485   1.876
 6187TIP3    H218568   2.901   2.601   1.781
 6188TIP3   OH218569   5.817   2.947   2.993
 6188TIP3    H118570   5.859   2.864   2.972
 6188TIP3    H218571   5.838   3.004   2.919
 6189TIP3   OH218572   1.937   2.773   1.255
 6189TIP3    H118573   1.930   2.825   1.335
 6189TIP3    H218574   1.854   2.787   1.210
 6190TIP3   OH218575   4.857   4.271   0.635
 6190TIP3    H118576   4.823   4.268   0.545
 6190TIP3    H218577   4.798   4.331   0.680
 6191TIP3   OH218578   3.167   2.779   2.364
 6191TIP3    H118579   3.170   2.719   2.438
 6191TIP3    H218580   3.130   2.860   2.400
 6192TIP3   OH218581   5.509   4.494   4.988
 6192TIP3    H118582   5.567   4.521   4.917
 6192TIP3    H218583   5.449   4.431   4.947
 6193TIP3   OH218584   2.628   3.190   2.688
 6193TIP3    H118585   2.582   3.274   2.688
 6193TIP3    H218586   2.654   3.178   2.780
 6194TIP3   OH218587   5.897   4.806   1.935
 6194TIP3    H118588   5.915   4.859   1.857
 6194TIP3    H218589   5.874   4.720   1.901
 6195TIP3   OH218590   1.598   3.045   1.077
 6195TIP3    H118591   1.616   2.965   1.126
 6195TIP3    H218592   1.653   3.039   0.999
 6196TIP3   OH218593   0.486   3.805   2.099
 6196TIP3    H118594   0.512   3.877   2.156
 6196TIP3    H218595   0.393   3.793   2.116
 6197TIP3   OH218596   1.279   3.196   0.421
 6197TIP3    H118597   1.249   3.277   0.461
 6197TIP3    H218598   1.198   3.150   0.397
 6198TIP3   OH218599   6.093   0.109   1.365
 6198TIP3    H118600   6.063   0.198   1.384
 6198TIP3    H218601   6.186   0.120   1.345
 6199TIP3   OH218602   3.175   1.660   0.989
 6199TIP3    H118603   3.234   1.607   1.043
 6199TIP3    H218604   3.097   1.605   0.978
 6200TIP3   OH218605   5.520   4.549   1.547
 6200TIP3    H118606   5.533   4.544   1.452
 6200TIP3    H218607   5.429   4.574   1.558
 6201TIP3   OH218608   1.717   3.445   2.070
 6201TIP3    H118609   1.678   3.451   2.157
 6201TIP3    H218610   1.657   3.388   2.021
 6202TIP3   OH218611   4.610   1.713   0.904
 6202TIP3    H118612   4.543   1.731   0.838
 6202TIP3    H218613   4.681   1.773   0.884
 6203TIP3   OH218614   2.364   1.149   1.000
 6203TIP3    H118615   2.276   1.178   0.975
 6203TIP3    H218616   2.423   1.203   0.949
 6204TIP3   OH218617   1.798   5.216   2.839
 6204TIP3    H118618   1.856   5.187   2.909
 6204TIP3    H218619   1.816   5.156   2.767
 6205TIP3   OH218620   0.372   4.846   1.894
 6205TIP3    H118621   0.425   4.925   1.885
 6205TIP3    H218622   0.367   4.831   1.989
 6206TIP3   OH218623   5.375   5.429   2.385
 6206TIP3    H118624   5.398   5.403   2.297
 6206TIP3    H218625   5.281   5.446   2.381
 6207TIP3   OH218626   3.826   4.146   1.524
 6207TIP3    H118627   3.863   4.229   1.554
 6207TIP3    H218628   3.845   4.143   1.431
 6208TIP3   OH218629   1.145   5.152   2.175
 6208TIP3    H118630   1.185   5.186   2.256
 6208TIP3    H218631   1.052   5.169   2.185
 6209TIP3   OH218632   3.577   3.238   2.046
 6209TIP3    H118633   3.650   3.234   1.985
 6209TIP3    H218634   3.607   3.296   2.116
 6210TIP3   OH218635   6.195   0.591   1.999
 6210TIP3    H118636   6.279   0.554   1.972
 6210TIP3    H218637   6.212   0.684   2.011
 6211TIP3   OH218638   3.854   2.603   0.413
 6211TIP3    H118639   3.788   2.668   0.389
 6211TIP3    H218640   3.932   2.653   0.433
 6212TIP3   OH218641   5.039   4.478   0.538
 6212TIP3    H118642   5.084   4.394   0.526
 6212TIP3    H218643   4.982   4.464   0.614
 6213TIP3   OH218644   6.347   2.577   4.225
 6213TIP3    H118645   6.351   2.662   4.268
 6213TIP3    H218646   6.270   2.581   4.169
 6214TIP3   OH218647   3.867   0.152   4.505
 6214TIP3    H118648   3.909   0.236   4.521
 6214TIP3    H218649   3.842   0.121   4.593
 6215TIP3   OH218650   4.346   5.511   3.649
 6215TIP3    H118651   4.254   5.514   3.676
 6215TIP3    H218652   4.358   5.423   3.613
 6216TIP3   OH218653   1.904   0.029   3.305
 6216TIP3    H118654   1.826  -0.016   3.273
 6216TIP3    H218655   1.926   0.092   3.236
 6217TIP3   OH218656   1.155   1.289   0.911
 6217TIP3    H118657   1.215   1.363   0.919
 6217TIP3    H218658   1.131   1.267   1.002
 6218TIP3   OH218659   3.447   4.215   4.868
 6218TIP3    H118660   3.530   4.260   4.878
 6218TIP3    H218661   3.436   4.166   4.950
 6219TIP3   OH218662   1.516   3.308   5.159
 6219TIP3    H118663   1.572   3.256   5.102
 6219TIP3    H218664   1.531   3.274   5.247
 6220TIP3   OH218665   1.296   5.135   2.468
 6220TIP3    H118666   1.376   5.100   2.507
 6220TIP3    H218667   1.228   5.073   2.493
 6221TIP3   OH218668   1.443   2.756   2.154
 6221TIP3    H118669   1.442   2.784   2.245
 6221TIP3    H218670   1.379   2.685   2.149
 6222TIP3   OH218671   1.855   0.806   5.168
 6222TIP3    H118672   1.770   0.761   5.167
 6222TIP3    H218673   1.848   0.871   5.098
 6223TIP3   OH218674   5.515   5.523   3.312
 6223TIP3    H118675   5.606   5.504   3.336
 6223TIP3    H218676   5.494   5.460   3.243
 6224TIP3   OH218677   5.180   0.436   0.251
 6224TIP3    H118678   5.182   0.345   0.221
 6224TIP3    H218679   5.252   0.478   0.203
 6225TIP3   OH218680   4.149   0.796   3.939
 6225TIP3    H118681   4.240   0.783   3.914
 6225TIP3    H218682   4.151   0.869   4.001
 6226TIP3   OH218683   4.578   3.883   1.945
 6226TIP3    H118684   4.531   3.929   1.876
 6226TIP3    H218685   4.511   3.865   2.011
 6227TIP3   OH218686   3.075   2.936   5.014
 6227TIP3    H118687   3.134   2.958   5.086
 6227TIP3    H218688   3.132   2.920   4.940
 6228TIP3   OH218689   1.102   0.520   2.448
 6228TIP3    H118690   1.009   0.540   2.463
 6228TIP3    H218691   1.140   0.604   2.420
 6229TIP3   OH218692   5.963   1.987   2.508
 6229TIP3    H118693   5.922   2.002   2.594
 6229TIP3    H218694   5.894   2.006   2.445
 6230TIP3   OH218695   0.586   3.549   1.298
 6230TIP3    H118696   0.520   3.612   1.324
 6230TIP3    H218697   0.632   3.526   1.379
 6231TIP3   OH218698   6.100   1.798   1.174
 6231TIP3    H118699   6.156   1.802   1.251
 6231TIP3    H218700   6.024   1.852   1.197
 6232TIP3   OH218701   4.946   0.588   0.236
 6232TIP3    H118702   5.024   0.533   0.253
 6232TIP3    H218703   4.979   0.677   0.239
 6233TIP3   OH218704   1.407   4.873   2.853
 6233TIP3    H118705   1.403   4.807   2.922
 6233TIP3    H218706   1.445   4.950   2.896
 6234TIP3   OH218707   2.637   3.461   3.376
 6234TIP3    H118708   2.623   3.372   3.406
 6234TIP3    H218709   2.565   3.478   3.315
 6235TIP3   OH218710   2.473   3.933   3.585
 6235TIP3    H118711   2.558   3.899   3.556
 6235TIP3    H218712   2.449   3.997   3.518
 6236TIP3   OH218713   4.435   0.984   0.334
 6236TIP3    H118714   4.418   1.064   0.385
 6236TIP3    H218715   4.507   0.942   0.380
 6237TIP3   OH218716   1.337   3.116   3.510
 6237TIP3    H118717   1.369   3.027   3.494
 6237TIP3    H218718   1.267   3.105   3.574
 6238TIP3   OH218719   5.711   3.243   1.181
 6238TIP3    H118720   5.663   3.268   1.102
 6238TIP3    H218721   5.803   3.259   1.159
 6239TIP3   OH218722   1.700   2.521   1.202
 6239TIP3    H118723   1.644   2.545   1.276
 6239TIP3    H218724   1.769   2.466   1.240
 6240TIP3   OH218725   3.898   4.068   1.266
 6240TIP3    H118726   3.845   4.034   1.195
 6240TIP3    H218727   3.927   4.154   1.235
 6241TIP3   OH218728   5.777   0.538   4.708
 6241TIP3    H118729   5.827   0.457   4.702
 6241TIP3    H218730   5.705   0.518   4.768
 6242TIP3   OH218731   0.960   4.459   3.042
 6242TIP3    H118732   0.881   4.413   3.011
 6242TIP3    H218733   0.960   4.444   3.137
 6243TIP3   OH218734   5.558   3.121   0.479
 6243TIP3    H118735   5.485   3.162   0.432
 6243TIP3    H218736   5.600   3.065   0.413
 6244TIP3   OH218737   4.488   0.671   3.071
 6244TIP3    H118738   4.430   0.713   3.134
 6244TIP3    H218739   4.504   0.739   3.005
 6245TIP3   OH218740   3.747   5.689   4.157
 6245TIP3    H118741   3.661   5.659   4.186
 6245TIP3    H218742   3.754   5.777   4.192
 6246TIP3   OH218743   1.920   5.939   1.930
 6246TIP3    H118744   1.842   5.887   1.950
 6246TIP3    H218745   1.902   6.025   1.967
 6247TIP3   OH218746   1.120   3.074   1.921
 6247TIP3    H118747   1.035   3.111   1.948
 6247TIP3    H218748   1.099   3.016   1.848
 6248TIP3   OH218749   4.960   3.538   2.068
 6248TIP3    H118750   4.882   3.491   2.038
 6248TIP3    H218751   4.931   3.586   2.146
 6249TIP3   OH218752   6.231   5.499   2.585
 6249TIP3    H118753   6.222   5.594   2.596
 6249TIP3    H218754   6.296   5.489   2.516
 6250TIP3   OH218755   1.030   0.645   0.405
 6250TIP3    H118756   1.002   0.732   0.375
 6250TIP3    H218757   0.992   0.637   0.492
 6251TIP3   OH218758   2.701   5.439   3.766
 6251TIP3    H118759   2.749   5.508   3.812
 6251TIP3    H218760   2.610   5.454   3.789
 6252TIP3   OH218761   1.519   5.929   4.064
 6252TIP3    H118762   1.596   5.909   4.011
 6252TIP3    H218763   1.468   5.990   4.011
 6253TIP3   OH218764   2.754   5.050   4.962
 6253TIP3    H118765   2.756   5.105   5.041
 6253TIP3    H218766   2.795   4.968   4.989
 6254TIP3   OH218767   2.285   3.967   3.854
 6254TIP3    H118768   2.253   4.041   3.802
 6254TIP3    H218769   2.208   3.912   3.868
 6255TIP3   OH218770   5.926   0.153   3.444
 6255TIP3    H118771   6.003   0.155   3.501
 6255TIP3    H218772   5.894   0.243   3.443
 6256TIP3   OH218773   1.052   1.729   2.497
 6256TIP3    H118774   0.994   1.652   2.495
 6256TIP3    H218775   1.059   1.750   2.590
 6257TIP3   OH218776   4.920   0.706   2.632
 6257TIP3    H118777   4.903   0.669   2.546
 6257TIP3    H218778   4.865   0.655   2.692
 6258TIP3   OH218779   0.756   3.303   3.640
 6258TIP3    H118780   0.666   3.291   3.607
 6258TIP3    H218781   0.799   3.219   3.624
 6259TIP3   OH218782   3.510   2.423   3.910
 6259TIP3    H118783   3.552   2.348   3.953
 6259TIP3    H218784   3.580   2.466   3.862
 6260TIP3   OH218785   5.200   4.336   4.134
 6260TIP3    H118786   5.270   4.386   4.177
 6260TIP3    H218787   5.120   4.386   4.154
 6261TIP3   OH218788   3.473   5.635   2.762
 6261TIP3    H118789   3.449   5.633   2.855
 6261TIP3    H218790   3.447   5.548   2.729
 6262TIP3   OH218791   2.411   5.219   0.257
 6262TIP3    H118792   2.354   5.144   0.272
 6262TIP3    H218793   2.364   5.272   0.192
 6263TIP3   OH218794   1.937   1.937   0.525
 6263TIP3    H118795   1.848   1.966   0.548
 6263TIP3    H218796   1.979   1.921   0.609
 6264TIP3   OH218797   5.587   1.704   3.173
 6264TIP3    H118798   5.672   1.709   3.129
 6264TIP3    H218799   5.572   1.792   3.207
 6265TIP3   OH218800   0.495   4.277   2.712
 6265TIP3    H118801   0.563   4.325   2.664
 6265TIP3    H218802   0.509   4.185   2.689
 6266TIP3   OH218803   4.189   0.358   5.179
 6266TIP3    H118804   4.243   0.291   5.137
 6266TIP3    H218805   4.108   0.358   5.129
 6267TIP3   OH218806   3.729   5.060   4.297
 6267TIP3    H118807   3.673   4.982   4.293
 6267TIP3    H218808   3.807   5.035   4.249
 6268TIP3   OH218809   2.333   5.135   3.296
 6268TIP3    H118810   2.257   5.194   3.299
 6268TIP3    H218811   2.387   5.161   3.371
 6269TIP3   OH218812   3.565   0.977   2.733
 6269TIP3    H118813   3.635   0.981   2.798
 6269TIP3    H218814   3.541   1.068   2.718
 6270TIP3   OH218815   2.021   3.749   1.121
 6270TIP3    H118816   1.980   3.771   1.204
 6270TIP3    H218817   2.009   3.828   1.067
 6271TIP3   OH218818   2.336   5.236   1.452
 6271TIP3    H118819   2.400   5.168   1.430
 6271TIP3    H218820   2.388   5.311   1.480
 6272TIP3   OH218821   3.228   3.339   3.464
 6272TIP3    H118822   3.186   3.261   3.500
 6272TIP3    H218823   3.227   3.402   3.536
 6273TIP3   OH218824   3.943   1.257   3.346
 6273TIP3    H118825   3.993   1.178   3.363
 6273TIP3    H218826   3.957   1.274   3.252
 6274TIP3   OH218827   6.341   0.789   4.699
 6274TIP3    H118828   6.287   0.713   4.675
 6274TIP3    H218829   6.332   0.849   4.625
 6275TIP3   OH218830   1.069   3.124   0.793
 6275TIP3    H118831   1.112   3.049   0.751
 6275TIP3    H218832   1.032   3.089   0.873
 6276TIP3   OH218833   2.664   0.809   3.928
 6276TIP3    H118834   2.739   0.766   3.887
 6276TIP3    H218835   2.701   0.885   3.972
 6277TIP3   OH218836   4.448   2.002   0.445
 6277TIP3    H118837   4.373   1.961   0.488
 6277TIP3    H218838   4.520   1.941   0.461
 6278TIP3   OH218839   2.495   3.424   2.708
 6278TIP3    H118840   2.443   3.452   2.783
 6278TIP3    H218841   2.487   3.497   2.645
 6279TIP3   OH218842   2.997   0.541   1.770
 6279TIP3    H118843   2.909   0.571   1.792
 6279TIP3    H218844   3.013   0.576   1.682
 6280TIP3   OH218845   2.629   1.039   0.662
 6280TIP3    H118846   2.635   1.075   0.574
 6280TIP3    H218847   2.544   0.994   0.664
 6281TIP3   OH218848   1.130   2.667   0.595
 6281TIP3    H118849   1.079   2.689   0.517
 6281TIP3    H218850   1.164   2.579   0.577
 6282TIP3   OH218851   2.269   4.461   0.332
 6282TIP3    H118852   2.262   4.383   0.387
 6282TIP3    H218853   2.348   4.505   0.362
 6283TIP3   OH218854   4.054   2.205   2.096
 6283TIP3    H118855   3.966   2.170   2.105
 6283TIP3    H218856   4.111   2.130   2.113
 6284TIP3   OH218857   2.973   3.212   0.144
 6284TIP3    H118858   3.021   3.131   0.128
 6284TIP3    H218859   2.954   3.210   0.238
 6285TIP3   OH218860   5.466   0.416   2.298
 6285TIP3    H118861   5.536   0.376   2.247
 6285TIP3    H218862   5.412   0.462   2.233
 6286TIP3   OH218863   4.380   2.764   3.055
 6286TIP3    H118864   4.392   2.841   2.999
 6286TIP3    H218865   4.336   2.700   3.000
 6287TIP3   OH218866   1.794   4.501   3.142
 6287TIP3    H118867   1.807   4.535   3.230
 6287TIP3    H218868   1.700   4.511   3.125
 6288TIP3   OH218869   3.874   2.382   1.666
 6288TIP3    H118870   3.950   2.329   1.688
 6288TIP3    H218871   3.826   2.392   1.748
 6289TIP3   OH218872   1.826   0.680   4.082
 6289TIP3    H118873   1.897   0.704   4.023
 6289TIP3    H218874   1.788   0.764   4.108
 6290TIP3   OH218875   2.720   1.131   1.181
 6290TIP3    H118876   2.716   1.194   1.110
 6290TIP3    H218877   2.813   1.109   1.189
 6291TIP3   OH218878   5.316   4.326   3.181
 6291TIP3    H118879   5.352   4.241   3.158
 6291TIP3    H218880   5.222   4.311   3.189
 6292TIP3   OH218881   2.377   1.549   0.823
 6292TIP3    H118882   2.368   1.645   0.825
 6292TIP3    H218883   2.415   1.527   0.907
 6293TIP3   OH218884   3.496   3.312   4.116
 6293TIP3    H118885   3.532   3.342   4.199
 6293TIP3    H218886   3.402   3.318   4.127
 6294TIP3   OH218887   3.241   0.228   1.411
 6294TIP3    H118888   3.310   0.268   1.359
 6294TIP3    H218889   3.266   0.247   1.502
 6295TIP3   OH218890   3.860   2.019   2.498
 6295TIP3    H118891   3.784   2.009   2.554
 6295TIP3    H218892   3.851   2.107   2.461
 6296TIP3   OH218893   2.019   5.230   1.777
 6296TIP3    H118894   2.051   5.176   1.705
 6296TIP3    H218895   1.957   5.174   1.824
 6297TIP3   OH218896   5.025   0.957   3.750
 6297TIP3    H118897   5.098   0.924   3.801
 6297TIP3    H218898   5.063   0.977   3.664
 6298TIP3   OH218899   1.021   4.131   2.933
 6298TIP3    H118900   0.942   4.106   2.884
 6298TIP3    H218901   1.079   4.168   2.867
 6299TIP3   OH218902  -0.026   2.628   1.549
 6299TIP3    H118903   0.022   2.638   1.467
 6299TIP3    H218904  -0.054   2.536   1.550
 6300TIP3   OH218905   5.053   5.873   4.639
 6300TIP3    H118906   5.084   5.963   4.642
 6300TIP3    H218907   5.133   5.820   4.642
 6301TIP3   OH218908   1.579   5.722   3.409
 6301TIP3    H118909   1.563   5.713   3.316
 6301TIP3    H218910   1.630   5.802   3.417
 6302TIP3   OH218911   3.203   4.815   0.047
 6302TIP3    H118912   3.217   4.807   0.142
 6302TIP3    H218913   3.115   4.850   0.039
 6303TIP3   OH218914   6.030   4.306   5.109
 6303TIP3    H118915   5.954   4.285   5.163
 6303TIP3    H218916   6.089   4.353   5.167
 6304TIP3   OH218917   2.466   0.099   1.670
 6304TIP3    H118918   2.453   0.107   1.765
 6304TIP3    H218919   2.522   0.021   1.661
 6305TIP3   OH218920   1.493   2.908   0.719
 6305TIP3    H118921   1.400   2.914   0.696
 6305TIP3    H218922   1.523   2.999   0.718
 6306TIP3   OH218923   2.950   4.502   0.423
 6306TIP3    H118924   2.963   4.566   0.493
 6306TIP3    H218925   2.868   4.529   0.381
 6307TIP3   OH218926   4.434   4.643   3.216
 6307TIP3    H118927   4.445   4.647   3.121
 6307TIP3    H218928   4.340   4.631   3.228
 6308TIP3   OH218929   3.557   4.624   2.481
 6308TIP3    H118930   3.517   4.588   2.402
 6308TIP3    H218931   3.617   4.556   2.510
 6309TIP3   OH218932   0.953   1.661   1.602
 6309TIP3    H118933   1.023   1.672   1.537
 6309TIP3    H218934   0.956   1.568   1.625
 6310TIP3   OH218935   5.461   5.773   5.072
 6310TIP3    H118936   5.517   5.848   5.050
 6310TIP3    H218937   5.497   5.700   5.022
 6311TIP3   OH218938   6.361   4.593   1.544
 6311TIP3    H118939   6.304   4.668   1.562
 6311TIP3    H218940   6.301   4.525   1.512
 6312TIP3   OH218941   2.525   4.263   2.114
 6312TIP3    H118942   2.581   4.295   2.043
 6312TIP3    H218943   2.442   4.308   2.101
 6313TIP3   OH218944   2.539   1.231   1.674
 6313TIP3    H118945   2.621   1.271   1.704
 6313TIP3    H218946   2.551   1.137   1.690
 6314TIP3   OH218947   0.394   5.323   3.765
 6314TIP3    H118948   0.369   5.236   3.735
 6314TIP3    H218949   0.489   5.319   3.775
 6315TIP3   OH218950   5.674   3.286   1.457
 6315TIP3    H118951   5.678   3.271   1.362
 6315TIP3    H218952   5.632   3.208   1.492
 6316TIP3   OH218953   2.182   1.978   3.891
 6316TIP3    H118954   2.138   2.031   3.958
 6316TIP3    H218955   2.274   2.005   3.895
 6317TIP3   OH218956   5.503   2.796   3.372
 6317TIP3    H118957   5.454   2.837   3.443
 6317TIP3    H218958   5.434   2.761   3.314
 6318TIP3   OH218959   3.852   3.314   2.295
 6318TIP3    H118960   3.935   3.353   2.324
 6318TIP3    H218961   3.879   3.236   2.247
 6319TIP3   OH218962   3.118   3.230   1.503
 6319TIP3    H118963   3.156   3.154   1.459
 6319TIP3    H218964   3.026   3.229   1.478
 6320TIP3   OH218965   5.912   4.364   4.860
 6320TIP3    H118966   5.858   4.441   4.840
 6320TIP3    H218967   5.917   4.363   4.955
 6321TIP3   OH218968   5.373   0.530   4.179
 6321TIP3    H118969   5.304   0.593   4.159
 6321TIP3    H218970   5.440   0.581   4.224
 6322TIP3   OH218971   3.601   4.717   1.638
 6322TIP3    H118972   3.691   4.750   1.644
 6322TIP3    H218973   3.609   4.639   1.583
 6323TIP3   OH218974   1.995   0.973   1.624
 6323TIP3    H118975   1.949   0.923   1.556
 6323TIP3    H218976   2.069   0.918   1.649
 6324TIP3   OH218977   5.605   3.619   2.317
 6324TIP3    H118978   5.550   3.611   2.239
 6324TIP3    H218979   5.594   3.710   2.345
 6325TIP3   OH218980   1.259   3.497   0.498
 6325TIP3    H118981   1.308   3.561   0.550
 6325TIP3    H218982   1.199   3.458   0.561
 6326TIP3   OH218983   3.513   2.757   4.838
 6326TIP3    H118984   3.601   2.726   4.818
 6326TIP3    H218985   3.475   2.688   4.893
 6327TIP3   OH218986   4.840   3.369   4.019
 6327TIP3    H118987   4.929   3.388   3.990
 6327TIP3    H218988   4.798   3.327   3.944
 6328TIP3   OH218989   5.312   5.048   0.421
 6328TIP3    H118990   5.350   4.977   0.368
 6328TIP3    H218991   5.387   5.084   0.469
 6329TIP3   OH218992   4.707   2.024   2.502
 6329TIP3    H118993   4.659   1.959   2.450
 6329TIP3    H218994   4.704   2.104   2.450
 6330TIP3   OH218995   3.524   3.753   3.359
 6330TIP3    H118996   3.618   3.771   3.369
 6330TIP3    H218997   3.513   3.663   3.391
 6331TIP3   OH218998   2.462   2.261   3.412
 6331TIP3    H118999   2.477   2.204   3.488
 6331TIP3    H219000   2.536   2.244   3.354
 6332TIP3   OH219001   5.524   1.804   0.776
 6332TIP3    H119002   5.511   1.875   0.713
 6332TIP3    H219003   5.618   1.786   0.773
 6333TIP3   OH219004   4.557   1.706   2.627
 6333TIP3    H119005   4.607   1.626   2.642
 6333TIP3    H219006   4.528   1.734   2.714
 6334TIP3   OH219007   4.841   3.398   1.675
 6334TIP3    H119008   4.769   3.452   1.645
 6334TIP3    H219009   4.799   3.321   1.714
 6335TIP3   OH219010   5.795   1.082   1.618
 6335TIP3    H119011   5.732   1.154   1.623
 6335TIP3    H219012   5.866   1.109   1.677
 6336TIP3   OH219013   4.053   1.981   4.897
 6336TIP3    H119014   4.106   2.018   4.826
 6336TIP3    H219015   4.072   2.036   4.973
 6337TIP3   OH219016   2.533   2.421   4.178
 6337TIP3    H119017   2.600   2.467   4.129
 6337TIP3    H219018   2.459   2.414   4.118
 6338TIP3   OH219019   0.268   4.838   3.053
 6338TIP3    H119020   0.195   4.830   3.113
 6338TIP3    H219021   0.276   4.932   3.037
 6339TIP3   OH219022   2.022   3.262   0.808
 6339TIP3    H119023   1.949   3.202   0.819
 6339TIP3    H219024   1.984   3.340   0.767
 6340TIP3   OH219025   6.120   2.864   0.960
 6340TIP3    H119026   6.112   2.862   0.865
 6340TIP3    H219027   6.034   2.895   0.990
 6341TIP3   OH219028   4.012   4.240   3.999
 6341TIP3    H119029   4.068   4.297   3.946
 6341TIP3    H219030   3.958   4.300   4.049
 6342TIP3   OH219031   6.057   2.229   0.099
 6342TIP3    H119032   6.054   2.153   0.157
 6342TIP3    H219033   5.999   2.207   0.026
 6343TIP3   OH219034   0.568   0.068   1.015
 6343TIP3    H119035   0.524   0.088   0.932
 6343TIP3    H219036   0.588   0.153   1.053
 6344TIP3   OH219037   5.129   5.128   0.636
 6344TIP3    H119038   5.165   5.084   0.559
 6344TIP3    H219039   5.188   5.104   0.707
 6345TIP3   OH219040   0.380   4.183   1.047
 6345TIP3    H119041   0.295   4.227   1.037
 6345TIP3    H219042   0.358   4.091   1.063
 6346TIP3   OH219043   2.585   5.666   2.405
 6346TIP3    H119044   2.670   5.690   2.368
 6346TIP3    H219045   2.569   5.732   2.472
 6347TIP3   OH219046   0.335   1.046   2.334
 6347TIP3    H119047   0.271   1.118   2.331
 6347TIP3    H219048   0.344   1.026   2.427
 6348TIP3   OH219049   1.587   0.856   1.833
 6348TIP3    H119050   1.560   0.940   1.796
 6348TIP3    H219051   1.601   0.800   1.757
 6349TIP3   OH219052   2.107   0.168   3.766
 6349TIP3    H119053   2.061   0.191   3.847
 6349TIP3    H219054   2.163   0.093   3.791
 6350TIP3   OH219055   1.305   3.696   1.053
 6350TIP3    H119056   1.392   3.703   1.093
 6350TIP3    H219057   1.311   3.752   0.975
 6351TIP3   OH219058   5.426   3.206   1.920
 6351TIP3    H119059   5.367   3.131   1.909
 6351TIP3    H219060   5.513   3.171   1.901
 6352TIP3   OH219061   2.047   1.486   2.266
 6352TIP3    H119062   2.041   1.559   2.205
 6352TIP3    H219063   2.059   1.409   2.210
 6353TIP3   OH219064   6.132   3.067   3.392
 6353TIP3    H119065   6.088   3.151   3.384
 6353TIP3    H219066   6.076   3.006   3.345
 6354TIP3   OH219067   1.099   4.911   2.534
 6354TIP3    H119068   1.004   4.925   2.531
 6354TIP3    H219069   1.115   4.870   2.618
 6355TIP3   OH219070   2.290   4.688   5.228
 6355TIP3    H119071   2.315   4.609   5.180
 6355TIP3    H219072   2.198   4.676   5.249
 6356TIP3   OH219073   3.051   3.250   2.048
 6356TIP3    H119074   3.074   3.270   2.139
 6356TIP3    H219075   3.128   3.277   1.998
 6357TIP3   OH219076   0.472   0.969   0.773
 6357TIP3    H119077   0.396   0.982   0.830
 6357TIP3    H219078   0.536   1.034   0.803
 6358TIP3   OH219079  -0.020   5.406   4.749
 6358TIP3    H119080   0.053   5.402   4.687
 6358TIP3    H219081  -0.001   5.482   4.803
 6359TIP3   OH219082   5.897   4.746   0.280
 6359TIP3    H119083   5.929   4.801   0.352
 6359TIP3    H219084   5.948   4.666   0.288
 6360TIP3   OH219085   0.678   4.438   0.969
 6360TIP3    H119086   0.614   4.424   1.039
 6360TIP3    H219087   0.670   4.531   0.947
 6361TIP3   OH219088   4.534   4.090   0.906
 6361TIP3    H119089   4.461   4.034   0.880
 6361TIP3    H219090   4.527   4.096   1.001
 6362TIP3   OH219091   1.196   5.772   3.323
 6362TIP3    H119092   1.185   5.682   3.293
 6362TIP3    H219093   1.222   5.820   3.244
 6363TIP3   OH219094   4.851   3.888   4.380
 6363TIP3    H119095   4.821   3.872   4.470
 6363TIP3    H219096   4.809   3.818   4.329
 6364TIP3   OH219097   2.244   5.045   3.918
 6364TIP3    H119098   2.303   5.100   3.866
 6364TIP3    H219099   2.258   5.072   4.008
 6365TIP3   OH219100   5.949   0.288   5.200
 6365TIP3    H119101   5.857   0.260   5.205
 6365TIP3    H219102   5.948   0.362   5.140
 6366TIP3   OH219103   0.516   1.295   2.563
 6366TIP3    H119104   0.607   1.306   2.590
 6366TIP3    H219105   0.484   1.384   2.548
 6367TIP3   OH219106   6.163   4.741   4.657
 6367TIP3    H119107   6.161   4.645   4.656
 6367TIP3    H219108   6.120   4.767   4.576
 6368TIP3   OH219109   0.684   0.727   4.907
 6368TIP3    H119110   0.618   0.745   4.841
 6368TIP3    H219111   0.637   0.682   4.977
 6369TIP3   OH219112   1.950   3.239   2.793
 6369TIP3    H119113   1.871   3.211   2.839
 6369TIP3    H219114   1.965   3.329   2.825
 6370TIP3   OH219115   2.339   3.328   4.517
 6370TIP3    H119116   2.369   3.384   4.445
 6370TIP3    H219117   2.303   3.251   4.474
 6371TIP3   OH219118   1.964   2.644   3.777
 6371TIP3    H119119   1.908   2.677   3.847
 6371TIP3    H219120   1.906   2.593   3.721
 6372TIP3   OH219121   0.636   3.849   2.384
 6372TIP3    H119122   0.543   3.838   2.368
 6372TIP3    H219123   0.656   3.785   2.453
 6373TIP3   OH219124   4.075   1.782   5.217
 6373TIP3    H119125   4.056   1.692   5.190
 6373TIP3    H219126   4.163   1.799   5.182
 6374TIP3   OH219127   1.639   2.240   2.080
 6374TIP3    H119128   1.621   2.320   2.130
 6374TIP3    H219129   1.659   2.174   2.146
 6375TIP3   OH219130   2.168   0.628   1.233
 6375TIP3    H119131   2.263   0.631   1.246
 6375TIP3    H219132   2.149   0.536   1.220
 6376TIP3   OH219133   2.225   2.685   3.714
 6376TIP3    H119134   2.148   2.649   3.757
 6376TIP3    H219135   2.214   2.663   3.621
 6377TIP3   OH219136   2.274   4.071   1.591
 6377TIP3    H119137   2.306   4.060   1.681
 6377TIP3    H219138   2.271   3.982   1.556
 6378TIP3   OH219139   2.653   2.216   3.245
 6378TIP3    H119140   2.669   2.225   3.151
 6378TIP3    H219141   2.740   2.221   3.284
 6379TIP3   OH219142   4.307   2.631   3.807
 6379TIP3    H119143   4.261   2.671   3.881
 6379TIP3    H219144   4.267   2.671   3.729
 6380TIP3   OH219145   6.114   3.871   2.209
 6380TIP3    H119146   6.157   3.795   2.169
 6380TIP3    H219147   6.084   3.838   2.294
 6381TIP3   OH219148   4.739   1.458   5.040
 6381TIP3    H119149   4.832   1.479   5.031
 6381TIP3    H219150   4.719   1.476   5.132
 6382TIP3   OH219151   0.275   4.534   2.719
 6382TIP3    H119152   0.297   4.465   2.656
 6382TIP3    H219153   0.348   4.596   2.712
 6383TIP3   OH219154   0.513   4.919   0.849
 6383TIP3    H119155   0.516   4.958   0.937
 6383TIP3    H219156   0.460   4.980   0.798
 6384TIP3   OH219157   3.039   0.708   2.597
 6384TIP3    H119158   2.958   0.687   2.644
 6384TIP3    H219159   3.017   0.784   2.543
 6385TIP3   OH219160   0.071   0.166   4.863
 6385TIP3    H119161   0.038   0.080   4.892
 6385TIP3    H219162   0.130   0.146   4.790
 6386TIP3   OH219163   6.121   2.670   3.242
 6386TIP3    H119164   6.177   2.594   3.258
 6386TIP3    H219165   6.032   2.635   3.242
 6387TIP3   OH219166   4.489   4.913   4.285
 6387TIP3    H119167   4.474   4.911   4.190
 6387TIP3    H219168   4.403   4.926   4.323
 6388TIP3   OH219169   2.188   1.215   1.567
 6388TIP3    H119170   2.118   1.164   1.607
 6388TIP3    H219171   2.232   1.258   1.640
 6389TIP3   OH219172   0.118   3.258   4.543
 6389TIP3    H119173   0.196   3.313   4.555
 6389TIP3    H219174   0.110   3.210   4.625
 6390TIP3   OH219175   2.974   1.310   0.897
 6390TIP3    H119176   2.937   1.222   0.888
 6390TIP3    H219177   3.024   1.323   0.818
 6391TIP3   OH219178   2.934   5.027   2.688
 6391TIP3    H119179   3.004   4.972   2.722
 6391TIP3    H219180   2.860   4.967   2.677
 6392TIP3   OH219181   2.952   0.104   1.124
 6392TIP3    H119182   2.959   0.122   1.030
 6392TIP3    H219183   2.946   0.190   1.165
 6393TIP3   OH219184   0.084   4.147   3.022
 6393TIP3    H119185   0.099   4.154   3.117
 6393TIP3    H219186   0.072   4.237   2.993
 6394TIP3   OH219187   0.302   1.192  -0.047
 6394TIP3    H119188   0.383   1.199   0.004
 6394TIP3    H219189   0.324   1.131  -0.118
 6395TIP3   OH219190   5.527   0.974   0.106
 6395TIP3    H119191   5.612   1.011   0.079
 6395TIP3    H219192   5.547   0.922   0.184
 6396TIP3   OH219193   5.361   3.285   1.301
 6396TIP3    H119194   5.340   3.376   1.278
 6396TIP3    H219195   5.419   3.256   1.231
 6397TIP3   OH219196   2.975   1.209   5.107
 6397TIP3    H119197   2.979   1.155   5.186
 6397TIP3    H219198   2.895   1.181   5.063
 6398TIP3   OH219199   1.645   3.859   4.457
 6398TIP3    H119200   1.725   3.853   4.509
 6398TIP3    H219201   1.673   3.896   4.374
 6399TIP3   OH219202   4.536   2.895   4.396
 6399TIP3    H119203   4.457   2.899   4.342
 6399TIP3    H219204   4.605   2.867   4.336
 6400TIP3   OH219205   3.945   4.740   2.089
 6400TIP3    H119206   3.976   4.723   2.000
 6400TIP3    H219207   3.970   4.831   2.106
 6401TIP3   OH219208   1.938   1.212   3.383
 6401TIP3    H119209   1.925   1.243   3.294
 6401TIP3    H219210   1.877   1.139   3.393
 6402TIP3   OH219211   4.562   3.230   1.492
 6402TIP3    H119212   4.610   3.218   1.409
 6402TIP3    H219213   4.488   3.285   1.469
 6403TIP3   OH219214   4.066   0.631   0.679
 6403TIP3    H119215   4.130   0.681   0.628
 6403TIP3    H219216   3.996   0.693   0.697
 6404TIP3   OH219217   3.409   4.590   0.189
 6404TIP3    H119218   3.459   4.635   0.121
 6404TIP3    H219219   3.471   4.530   0.229
 6405TIP3   OH219220   3.413   4.043   1.700
 6405TIP3    H119221   3.438   4.136   1.701
 6405TIP3    H219222   3.478   4.001   1.757
 6406TIP3   OH219223   0.121   4.940   1.779
 6406TIP3    H119224   0.164   4.947   1.694
 6406TIP3    H219225   0.190   4.911   1.839
 6407TIP3   OH219226   0.491   4.459   1.165
 6407TIP3    H119227   0.415   4.494   1.119
 6407TIP3    H219228   0.528   4.534   1.212
 6408TIP3   OH219229   0.499   0.804   4.718
 6408TIP3    H119230   0.413   0.822   4.756
 6408TIP3    H219231   0.480   0.783   4.626
 6409TIP3   OH219232   1.026   5.829   3.537
 6409TIP3    H119233   0.986   5.911   3.508
 6409TIP3    H219234   1.096   5.813   3.474
 6410TIP3   OH219235   4.817   0.047   2.536
 6410TIP3    H119236   4.741  -0.009   2.544
 6410TIP3    H219237   4.872   0.024   2.612
 6411TIP3   OH219238   4.471   0.502   5.093
 6411TIP3    H119239   4.561   0.506   5.062
 6411TIP3    H219240   4.418   0.504   5.013
 6412TIP3   OH219241   3.043   3.804   1.950
 6412TIP3    H119242   3.084   3.741   2.010
 6412TIP3    H219243   3.009   3.750   1.879
 6413TIP3   OH219244   0.707   1.876   2.169
 6413TIP3    H119245   0.647   1.818   2.121
 6413TIP3    H219246   0.789   1.827   2.174
 6414TIP3   OH219247   1.062   0.229   1.090
 6414TIP3    H119248   1.145   0.268   1.063
 6414TIP3    H219249   1.083   0.180   1.170
 6415TIP3   OH219250   2.729   0.050   4.275
 6415TIP3    H119251   2.812   0.007   4.256
 6415TIP3    H219252   2.685   0.055   4.190
 6416TIP3   OH219253   3.980   3.712   3.099
 6416TIP3    H119254   3.951   3.803   3.093
 6416TIP3    H219255   3.982   3.693   3.193
 6417TIP3   OH219256   3.004   3.885   3.849
 6417TIP3    H119257   2.990   3.891   3.754
 6417TIP3    H219258   3.088   3.929   3.864
 6418TIP3   OH219259   3.591   2.405   4.419
 6418TIP3    H119260   3.657   2.358   4.469
 6418TIP3    H219261   3.520   2.343   4.406
 6419TIP3   OH219262   4.097   2.615   1.435
 6419TIP3    H119263   4.023   2.664   1.398
 6419TIP3    H219264   4.120   2.662   1.515
 6420TIP3   OH219265   3.999   3.771   1.205
 6420TIP3    H119266   3.946   3.712   1.259
 6420TIP3    H219267   3.961   3.858   1.221
 6421TIP3   OH219268   3.795   3.600   2.312
 6421TIP3    H119269   3.792   3.506   2.294
 6421TIP3    H219270   3.736   3.613   2.386
 6422TIP3   OH219271   6.279   4.836   3.890
 6422TIP3    H119272   6.268   4.873   3.803
 6422TIP3    H219273   6.224   4.891   3.946
 6423TIP3   OH219274   1.856   4.851   0.147
 6423TIP3    H119275   1.787   4.862   0.081
 6423TIP3    H219276   1.936   4.841   0.096
 6424TIP3   OH219277   2.657   4.720   0.891
 6424TIP3    H119278   2.745   4.754   0.877
 6424TIP3    H219279   2.649   4.710   0.986
 6425TIP3   OH219280   5.230   5.696   3.601
 6425TIP3    H119281   5.172   5.738   3.665
 6425TIP3    H219282   5.200   5.730   3.516
 6426TIP3   OH219283   5.522   1.446   3.737
 6426TIP3    H119284   5.519   1.540   3.721
 6426TIP3    H219285   5.597   1.434   3.796
 6427TIP3   OH219286   2.402   5.093   2.908
 6427TIP3    H119287   2.432   5.110   2.819
 6427TIP3    H219288   2.430   5.170   2.958
 6428TIP3   OH219289   1.919   4.595   2.878
 6428TIP3    H119290   1.913   4.690   2.890
 6428TIP3    H219291   1.830   4.563   2.897
 6429TIP3   OH219292   1.304   0.586   4.276
 6429TIP3    H119293   1.261   0.517   4.325
 6429TIP3    H219294   1.240   0.658   4.276
 6430TIP3   OH219295   3.687   5.657   4.585
 6430TIP3    H119296   3.595   5.650   4.612
 6430TIP3    H219297   3.685   5.717   4.511
 6431TIP3   OH219298   4.541   1.320   4.868
 6431TIP3    H119299   4.595   1.357   4.938
 6431TIP3    H219300   4.533   1.227   4.890
 6432TIP3   OH219301   0.517   5.007   3.821
 6432TIP3    H119302   0.573   4.975   3.892
 6432TIP3    H219303   0.431   5.016   3.862
 6433TIP3   OH219304   4.580   2.455   1.429
 6433TIP3    H119305   4.520   2.383   1.407
 6433TIP3    H219306   4.634   2.466   1.351
 6434TIP3   OH219307   5.121   2.440   3.530
 6434TIP3    H119308   5.030   2.423   3.554
 6434TIP3    H219309   5.129   2.535   3.530
 6435TIP3   OH219310   0.982   1.229   4.278
 6435TIP3    H119311   1.053   1.205   4.338
 6435TIP3    H219312   0.999   1.320   4.256
 6436TIP3   OH219313   0.978   4.127   1.973
 6436TIP3    H119314   0.952   4.142   2.064
 6436TIP3    H219315   1.024   4.206   1.948
 6437TIP3   OH219316   1.083   4.829   0.642
 6437TIP3    H119317   1.007   4.858   0.592
 6437TIP3    H219318   1.075   4.875   0.726
 6438TIP3   OH219319   5.760   0.972   3.536
 6438TIP3    H119320   5.687   0.980   3.598
 6438TIP3    H219321   5.794   1.061   3.528
 6439TIP3   OH219322   5.387   5.132   1.285
 6439TIP3    H119323   5.465   5.174   1.251
 6439TIP3    H219324   5.418   5.049   1.323
 6440TIP3   OH219325   5.028   3.957   5.144
 6440TIP3    H119326   5.013   3.925   5.233
 6440TIP3    H219327   4.960   4.023   5.131
 6441TIP3   OH219328   2.816   3.652   3.626
 6441TIP3    H119329   2.865   3.729   3.597
 6441TIP3    H219330   2.848   3.581   3.571
 6442TIP3   OH219331   5.915   2.101   2.769
 6442TIP3    H119332   6.000   2.074   2.804
 6442TIP3    H219333   5.889   2.174   2.825
 6443TIP3   OH219334   1.665   3.732   4.070
 6443TIP3    H119335   1.611   3.706   3.995
 6443TIP3    H219336   1.750   3.691   4.054
 6444TIP3   OH219337   0.095   2.803   2.068
 6444TIP3    H119338   0.003   2.808   2.093
 6444TIP3    H219339   0.096   2.753   1.987
 6445TIP3   OH219340   2.229   3.810   1.618
 6445TIP3    H119341   2.311   3.764   1.601
 6445TIP3    H219342   2.200   3.776   1.703
 6446TIP3   OH219343   5.783   3.792   4.456
 6446TIP3    H119344   5.724   3.764   4.526
 6446TIP3    H219345   5.870   3.790   4.496
 6447TIP3   OH219346   5.105   4.092   1.298
 6447TIP3    H119347   5.105   4.037   1.376
 6447TIP3    H219348   5.196   4.119   1.287
 6448TIP3   OH219349   0.396   2.540   0.329
 6448TIP3    H119350   0.412   2.583   0.413
 6448TIP3    H219351   0.396   2.612   0.265
 6449TIP3   OH219352   3.709   3.219   3.213
 6449TIP3    H119353   3.635   3.187   3.265
 6449TIP3    H219354   3.702   3.171   3.130
 6450TIP3   OH219355   0.227   3.633   2.968
 6450TIP3    H119356   0.160   3.636   2.900
 6450TIP3    H219357   0.284   3.560   2.942
 6451TIP3   OH219358   1.578   1.219   2.140
 6451TIP3    H119359   1.562   1.199   2.233
 6451TIP3    H219360   1.491   1.215   2.100
 6452TIP3   OH219361   1.554   1.899   2.951
 6452TIP3    H119362   1.553   1.937   2.864
 6452TIP3    H219363   1.632   1.934   2.993
 6453TIP3   OH219364   5.445   3.477   4.951
 6453TIP3    H119365   5.361   3.522   4.953
 6453TIP3    H219366   5.456   3.449   4.860
 6454TIP3   OH219367   5.948   1.591   4.094
 6454TIP3    H119368   6.001   1.521   4.134
 6454TIP3    H219369   6.001   1.622   4.021
 6455TIP3   OH219370   4.303   5.784   0.208
 6455TIP3    H119371   4.337   5.838   0.137
 6455TIP3    H219372   4.377   5.730   0.235
 6456TIP3   OH219373   1.591   1.471   1.449
 6456TIP3    H119374   1.685   1.484   1.434
 6456TIP3    H219375   1.557   1.560   1.459
 6457TIP3   OH219376   2.841   1.223   3.006
 6457TIP3    H119377   2.886   1.270   2.936
 6457TIP3    H219378   2.810   1.291   3.066
 6458TIP3   OH219379   1.883   3.020   0.643
 6458TIP3    H119380   1.861   3.011   0.550
 6458TIP3    H219381   1.943   2.948   0.660
 6459TIP3   OH219382   1.632   0.309   2.998
 6459TIP3    H119383   1.683   0.377   2.954
 6459TIP3    H219384   1.648   0.322   3.091
 6460TIP3   OH219385   4.831   4.600   5.039
 6460TIP3    H119386   4.911   4.583   4.989
 6460TIP3    H219387   4.810   4.691   5.020
 6461TIP3   OH219388   0.278   0.081   1.100
 6461TIP3    H119389   0.310   0.020   1.166
 6461TIP3    H219390   0.354   0.096   1.042
 6462TIP3   OH219391   3.523   5.015   0.858
 6462TIP3    H119392   3.567   5.077   0.800
 6462TIP3    H219393   3.522   4.933   0.809
 6463TIP3   OH219394   3.477   0.899   3.429
 6463TIP3    H119395   3.418   0.973   3.445
 6463TIP3    H219396   3.418   0.825   3.414
 6464TIP3   OH219397   5.966   3.799   3.566
 6464TIP3    H119398   6.055   3.835   3.572
 6464TIP3    H219399   5.977   3.706   3.589
 6465TIP3   OH219400   5.487   1.367   4.068
 6465TIP3    H119401   5.556   1.434   4.064
 6465TIP3    H219402   5.456   1.370   4.158
 6466TIP3   OH219403   0.731   0.155   4.969
 6466TIP3    H119404   0.767   0.243   4.975
 6466TIP3    H219405   0.783   0.104   5.030
 6467TIP3   OH219406   1.656   3.843   1.683
 6467TIP3    H119407   1.643   3.800   1.599
 6467TIP3    H219408   1.649   3.772   1.748
 6468TIP3   OH219409   1.867   2.425   4.790
 6468TIP3    H119410   1.890   2.454   4.878
 6468TIP3    H219411   1.820   2.342   4.804
 6469TIP3   OH219412   0.575   2.860   1.283
 6469TIP3    H119413   0.615   2.783   1.324
 6469TIP3    H219414   0.581   2.843   1.189
 6470TIP3   OH219415   0.529   0.181   2.763
 6470TIP3    H119416   0.543   0.136   2.680
 6470TIP3    H219417   0.531   0.112   2.829
 6471TIP3   OH219418   1.649   1.078   3.740
 6471TIP3    H119419   1.633   0.993   3.700
 6471TIP3    H219420   1.695   1.129   3.673
 6472TIP3   OH219421   1.268   5.537   0.369
 6472TIP3    H119422   1.198   5.579   0.319
 6472TIP3    H219423   1.222   5.473   0.425
 6473TIP3   OH219424   0.187   1.695   1.377
 6473TIP3    H119425   0.250   1.698   1.305
 6473TIP3    H219426   0.224   1.631   1.438
 6474TIP3   OH219427   1.594   1.668   3.638
 6474TIP3    H119428   1.662   1.697   3.577
 6474TIP3    H219429   1.641   1.618   3.705
 6475TIP3   OH219430   6.015   5.056   3.464
 6475TIP3    H119431   6.034   5.030   3.373
 6475TIP3    H219432   5.937   5.006   3.487
 6476TIP3   OH219433   4.002   5.321   3.299
 6476TIP3    H119434   4.091   5.287   3.309
 6476TIP3    H219435   3.947   5.258   3.346
 6477TIP3   OH219436   0.892   3.862   2.257
 6477TIP3    H119437   0.811   3.850   2.307
 6477TIP3    H219438   0.895   3.786   2.199
 6478TIP3   OH219439   2.887   3.012   3.409
 6478TIP3    H119440   2.796   3.003   3.437
 6478TIP3    H219441   2.912   2.925   3.380
 6479TIP3   OH219442   2.338   2.879   1.960
 6479TIP3    H119443   2.284   2.915   2.030
 6479TIP3    H219444   2.280   2.872   1.885
 6480TIP3   OH219445   3.882   4.567   4.051
 6480TIP3    H119446   3.864   4.552   3.958
 6480TIP3    H219447   3.933   4.648   4.053
 6481TIP3   OH219448   1.089   4.337   3.594
 6481TIP3    H119449   1.007   4.289   3.608
 6481TIP3    H219450   1.145   4.310   3.667
 6482TIP3   OH219451   3.161   0.168   4.998
 6482TIP3    H119452   3.182   0.208   5.083
 6482TIP3    H219453   3.186   0.076   5.009
 6483TIP3   OH219454   4.549   0.795   2.453
 6483TIP3    H119455   4.560   0.714   2.402
 6483TIP3    H219456   4.455   0.799   2.471
 6484TIP3   OH219457   3.082   0.260   2.022
 6484TIP3    H119458   2.990   0.239   2.012
 6484TIP3    H219459   3.086   0.315   2.100
 6485TIP3   OH219460   5.251   2.560   2.799
 6485TIP3    H119461   5.290   2.631   2.852
 6485TIP3    H219462   5.205   2.606   2.729
 6486TIP3   OH219463   3.528   4.107   4.404
 6486TIP3    H119464   3.482   4.191   4.403
 6486TIP3    H219465   3.474   4.051   4.460
 6487TIP3   OH219466   5.770   0.658   3.198
 6487TIP3    H119467   5.859   0.661   3.163
 6487TIP3    H219468   5.750   0.748   3.222
 6488TIP3   OH219469   0.564   5.637   0.144
 6488TIP3    H119470   0.531   5.726   0.136
 6488TIP3    H219471   0.610   5.636   0.228
 6489TIP3   OH219472   1.684   5.156   3.228
 6489TIP3    H119473   1.722   5.146   3.315
 6489TIP3    H219474   1.632   5.237   3.234
 6490TIP3   OH219475   6.194   5.209   2.780
 6490TIP3    H119476   6.286   5.225   2.759
 6490TIP3    H219477   6.181   5.252   2.865
 6491TIP3   OH219478   2.438   4.593   4.196
 6491TIP3    H119479   2.355   4.637   4.177
 6491TIP3    H219480   2.433   4.511   4.146
 6492TIP3   OH219481   0.361   4.079   2.207
 6492TIP3    H119482   0.323   4.160   2.242
 6492TIP3    H219483   0.398   4.104   2.122
 6493TIP3   OH219484   1.506   3.326   4.824
 6493TIP3    H119485   1.450   3.404   4.831
 6493TIP3    H219486   1.460   3.258   4.873
 6494TIP3   OH219487   4.103   1.161   3.639
 6494TIP3    H119488   4.172   1.094   3.638
 6494TIP3    H219489   4.033   1.123   3.586
 6495TIP3   OH219490   1.686   1.510   4.943
 6495TIP3    H119491   1.604   1.464   4.963
 6495TIP3    H219492   1.732   1.515   5.026
 6496TIP3   OH219493   1.810   4.443   4.785
 6496TIP3    H119494   1.848   4.509   4.843
 6496TIP3    H219495   1.723   4.477   4.764
 6497TIP3   OH219496   5.484   5.004   3.996
 6497TIP3    H119497   5.474   4.951   3.917
 6497TIP3    H219498   5.459   5.092   3.969
 6498TIP3   OH219499   0.379   0.839   1.816
 6498TIP3    H119500   0.435   0.796   1.752
 6498TIP3    H219501   0.320   0.770   1.847
 6499TIP3   OH219502   3.833   4.770   5.177
 6499TIP3    H119503   3.880   4.739   5.100
 6499TIP3    H219504   3.834   4.696   5.237
 6500TIP3   OH219505   5.326   2.444   0.439
 6500TIP3    H119506   5.372   2.511   0.388
 6500TIP3    H219507   5.317   2.483   0.526
 6501TIP3   OH219508   1.938   4.963   1.818
 6501TIP3    H119509   1.845   4.980   1.804
 6501TIP3    H219510   1.951   4.872   1.791
 6502TIP3   OH219511   5.562   5.909   4.100
 6502TIP3    H119512   5.604   5.995   4.111
 6502TIP3    H219513   5.514   5.895   4.182
 6503TIP3   OH219514   0.217   1.148   3.092
 6503TIP3    H119515   0.129   1.126   3.122
 6503TIP3    H219516   0.274   1.134   3.168
 6504TIP3   OH219517   2.085   3.201   2.230
 6504TIP3    H119518   2.009   3.164   2.273
 6504TIP3    H219519   2.050   3.251   2.157
 6505TIP3   OH219520   2.111   5.752   3.029
 6505TIP3    H119521   2.019   5.771   3.048
 6505TIP3    H219522   2.154   5.837   3.032
 6506TIP3   OH219523   1.398   0.962   2.312
 6506TIP3    H119524   1.413   1.048   2.353
 6506TIP3    H219525   1.476   0.911   2.335
 6507TIP3   OH219526   1.916   0.867   3.127
 6507TIP3    H119527   1.995   0.910   3.161
 6507TIP3    H219528   1.894   0.917   3.048
 6508TIP3   OH219529   1.103   2.981   2.195
 6508TIP3    H119530   1.094   2.921   2.122
 6508TIP3    H219531   1.117   3.066   2.155
 6509TIP3   OH219532   0.818   3.422   1.960
 6509TIP3    H119533   0.727   3.429   1.987
 6509TIP3    H219534   0.829   3.330   1.937
 6510TIP3   OH219535   0.666   2.622   3.420
 6510TIP3    H119536   0.626   2.544   3.458
 6510TIP3    H219537   0.719   2.659   3.490
 6511TIP3   OH219538   5.659   3.862   2.771
 6511TIP3    H119539   5.609   3.943   2.778
 6511TIP3    H219540   5.742   3.888   2.731
 6512TIP3   OH219541   3.532   0.599   1.802
 6512TIP3    H119542   3.581   0.682   1.807
 6512TIP3    H219543   3.472   0.612   1.729
 6513TIP3   OH219544   3.019   3.612   2.792
 6513TIP3    H119545   3.097   3.666   2.806
 6513TIP3    H219546   2.979   3.604   2.878
 6514TIP3   OH219547   4.964   3.455   3.150
 6514TIP3    H119548   4.950   3.490   3.238
 6514TIP3    H219549   5.057   3.471   3.132
 6515TIP3   OH219550   0.914   4.899   0.860
 6515TIP3    H119551   0.923   4.994   0.848
 6515TIP3    H219552   0.987   4.875   0.918
 6516TIP3   OH219553   2.578   1.103   3.574
 6516TIP3    H119554   2.530   1.142   3.646
 6516TIP3    H219555   2.648   1.166   3.554
 6517TIP3   OH219556   6.212   0.464   0.960
 6517TIP3    H119557   6.305   0.484   0.959
 6517TIP3    H219558   6.173   0.535   1.012
 6518TIP3   OH219559   4.584   0.482   4.006
 6518TIP3    H119560   4.667   0.497   4.050
 6518TIP3    H219561   4.603   0.418   3.938
 6519TIP3   OH219562   2.171   5.122   4.467
 6519TIP3    H119563   2.254   5.145   4.509
 6519TIP3    H219564   2.107   5.125   4.538
 6520TIP3   OH219565   6.277   3.283   2.431
 6520TIP3    H119566   6.244   3.248   2.514
 6520TIP3    H219567   6.249   3.374   2.431
 6521TIP3   OH219568   3.936   3.696   4.452
 6521TIP3    H119569   3.867   3.752   4.416
 6521TIP3    H219570   3.891   3.644   4.519
 6522TIP3   OH219571   1.952   3.429   3.784
 6522TIP3    H119572   1.937   3.484   3.861
 6522TIP3    H219573   2.028   3.468   3.742
 6523TIP3   OH219574   5.314   1.490   1.744
 6523TIP3    H119575   5.383   1.527   1.800
 6523TIP3    H219576   5.232   1.513   1.789
 6524TIP3   OH219577   0.344   1.364   4.616
 6524TIP3    H119578   0.392   1.432   4.663
 6524TIP3    H219579   0.368   1.283   4.661
 6525TIP3   OH219580   5.726   5.667   3.768
 6525TIP3    H119581   5.804   5.614   3.757
 6525TIP3    H219582   5.654   5.612   3.736
 6526TIP3   OH219583   3.518   1.044   2.188
 6526TIP3    H119584   3.474   1.000   2.115
 6526TIP3    H219585   3.561   0.973   2.236
 6527TIP3   OH219586   6.162   5.691   0.111
 6527TIP3    H119587   6.230   5.685   0.044
 6527TIP3    H219588   6.146   5.785   0.121
 6528TIP3   OH219589   0.811   1.452   1.152
 6528TIP3    H119590   0.813   1.540   1.188
 6528TIP3    H219591   0.864   1.457   1.073
 6529TIP3   OH219592   4.984   1.614   0.740
 6529TIP3    H119593   4.941   1.695   0.769
 6529TIP3    H219594   5.075   1.624   0.768
 6530TIP3   OH219595   4.803   0.183   1.264
 6530TIP3    H119596   4.751   0.106   1.288
 6530TIP3    H219597   4.892   0.161   1.292
 6531TIP3   OH219598   5.107   1.742   4.853
 6531TIP3    H119599   5.036   1.717   4.793
 6531TIP3    H219600   5.157   1.808   4.804
 6532TIP3   OH219601   3.424   1.156   0.025
 6532TIP3    H119602   3.333   1.181   0.038
 6532TIP3    H219603   3.420   1.077  -0.029
 6533TIP3   OH219604   6.134   1.358   1.544
 6533TIP3    H119605   6.114   1.358   1.638
 6533TIP3    H219606   6.171   1.445   1.527
 6534TIP3   OH219607   1.551   2.991   3.114
 6534TIP3    H119608   1.630   3.008   3.166
 6534TIP3    H219609   1.549   2.896   3.103
 6535TIP3   OH219610   0.989   4.902   3.532
 6535TIP3    H119611   1.048   4.960   3.483
 6535TIP3    H219612   1.011   4.814   3.501
 6536TIP3   OH219613   4.338   2.444   0.050
 6536TIP3    H119614   4.340   2.351   0.072
 6536TIP3    H219615   4.251   2.458   0.012
 6537TIP3   OH219616   5.721   1.215   0.920
 6537TIP3    H119617   5.636   1.190   0.956
 6537TIP3    H219618   5.701   1.280   0.853
 6538TIP3   OH219619   5.791   4.214   0.742
 6538TIP3    H119620   5.883   4.193   0.759
 6538TIP3    H219621   5.788   4.227   0.647
 6539TIP3   OH219622   4.343   1.302   1.556
 6539TIP3    H119623   4.431   1.286   1.592
 6539TIP3    H219624   4.283   1.272   1.624
 6540TIP3   OH219625   5.539   0.854   1.301
 6540TIP3    H119626   5.602   0.867   1.372
 6540TIP3    H219627   5.530   0.759   1.295
 6541TIP3   OH219628   6.057   4.505   4.407
 6541TIP3    H119629   6.075   4.467   4.493
 6541TIP3    H219630   6.048   4.430   4.349
 6542TIP3   OH219631   3.411   0.735   1.104
 6542TIP3    H119632   3.476   0.764   1.168
 6542TIP3    H219633   3.351   0.678   1.154
 6543TIP3   OH219634   6.167   5.547   3.318
 6543TIP3    H119635   6.094   5.596   3.280
 6543TIP3    H219636   6.237   5.613   3.327
 6544TIP3   OH219637   5.533   1.187   3.654
 6544TIP3    H119638   5.507   1.151   3.739
 6544TIP3    H219639   5.552   1.279   3.672
 6545TIP3   OH219640   3.757   5.702   2.388
 6545TIP3    H119641   3.726   5.716   2.477
 6545TIP3    H219642   3.768   5.790   2.352
 6546TIP3   OH219643   4.845   3.321   2.581
 6546TIP3    H119644   4.875   3.363   2.661
 6546TIP3    H219645   4.901   3.358   2.512
 6547TIP3   OH219646   0.454   4.167   0.769
 6547TIP3    H119647   0.482   4.254   0.740
 6547TIP3    H219648   0.435   4.177   0.862
 6548TIP3   OH219649   1.974   2.329   0.681
 6548TIP3    H119650   2.005   2.312   0.770
 6548TIP3    H219651   1.880   2.312   0.685
 6549TIP3   OH219652   5.053   2.558   3.006
 6549TIP3    H119653   5.126   2.562   2.943
 6549TIP3    H219654   5.096   2.564   3.092
 6550TIP3   OH219655   1.511   5.891   2.258
 6550TIP3    H119656   1.441   5.955   2.243
 6550TIP3    H219657   1.524   5.892   2.353
 6551TIP3   OH219658   3.683   0.180   0.607
 6551TIP3    H119659   3.771   0.162   0.641
 6551TIP3    H219660   3.634   0.099   0.620
 6552TIP3   OH219661   2.248   4.006   4.521
 6552TIP3    H119662   2.192   3.988   4.597
 6552TIP3    H219663   2.188   4.044   4.456
 6553TIP3   OH219664   1.040   2.166   0.890
 6553TIP3    H119665   1.077   2.237   0.943
 6553TIP3    H219666   0.979   2.121   0.949
 6554TIP3   OH219667   3.723   0.860   2.543
 6554TIP3    H119668   3.805   0.909   2.551
 6554TIP3    H219669   3.662   0.906   2.601
 6555TIP3   OH219670   5.835   4.482   1.320
 6555TIP3    H119671   5.797   4.451   1.237
 6555TIP3    H219672   5.882   4.406   1.355
 6556TIP3   OH219673   1.454   2.710   2.425
 6556TIP3    H119674   1.461   2.672   2.512
 6556TIP3    H219675   1.376   2.765   2.429
 6557TIP3   OH219676   5.717   1.693   2.920
 6557TIP3    H119677   5.655   1.622   2.937
 6557TIP3    H219678   5.663   1.772   2.919
 6558TIP3   OH219679   2.035   4.196   1.598
 6558TIP3    H119680   1.997   4.116   1.636
 6558TIP3    H219681   2.126   4.172   1.579
 6559TIP3   OH219682   4.854   2.322   0.233
 6559TIP3    H119683   4.851   2.269   0.154
 6559TIP3    H219684   4.913   2.394   0.211
 6560TIP3   OH219685   4.740   2.595   4.748
 6560TIP3    H119686   4.714   2.503   4.754
 6560TIP3    H219687   4.834   2.592   4.728
 6561TIP3   OH219688   3.301   0.686   3.586
 6561TIP3    H119689   3.287   0.607   3.637
 6561TIP3    H219690   3.293   0.758   3.650
 6562TIP3   OH219691   6.188   1.015   0.780
 6562TIP3    H119692   6.097   0.984   0.776
 6562TIP3    H219693   6.213   1.002   0.872
 6563TIP3   OH219694   0.027   3.255   4.074
 6563TIP3    H119695   0.085   3.180   4.061
 6563TIP3    H219696   0.043   3.311   3.998
 6564TIP3   OH219697   4.463   4.702   2.942
 6564TIP3    H119698   4.528   4.692   2.873
 6564TIP3    H219699   4.395   4.639   2.920
 6565TIP3   OH219700   4.013   4.680   3.535
 6565TIP3    H119701   4.096   4.649   3.499
 6565TIP3    H219702   4.035   4.711   3.623
 6566TIP3   OH219703   6.228   1.635   1.523
 6566TIP3    H119704   6.253   1.705   1.462
 6566TIP3    H219705   6.133   1.627   1.513
 6567TIP3   OH219706   5.613   3.369   0.277
 6567TIP3    H119707   5.626   3.329   0.363
 6567TIP3    H219708   5.560   3.447   0.294
 6568TIP3   OH219709   0.065   3.972   2.131
 6568TIP3    H119710   0.126   4.033   2.089
 6568TIP3    H219711  -0.019   3.990   2.088
 6569TIP3   OH219712   6.329   5.886   0.405
 6569TIP3    H119713   6.394   5.817   0.411
 6569TIP3    H219714   6.296   5.880   0.315
 6570TIP3   OH219715   2.703   4.104   4.265
 6570TIP3    H119716   2.686   4.192   4.230
 6570TIP3    H219717   2.659   4.104   4.350
 6571TIP3   OH219718   4.341   2.652   0.242
 6571TIP3    H119719   4.257   2.640   0.285
 6571TIP3    H219720   4.350   2.577   0.183
 6572TIP3   OH219721   2.553   4.308   3.093
 6572TIP3    H119722   2.580   4.253   3.167
 6572TIP3    H219723   2.593   4.266   3.017
 6573TIP3   OH219724   1.624   3.571   0.188
 6573TIP3    H119725   1.570   3.523   0.124
 6573TIP3    H219726   1.697   3.512   0.206
 6574TIP3   OH219727   1.581   5.724   1.763
 6574TIP3    H119728   1.657   5.666   1.774
 6574TIP3    H219729   1.564   5.723   1.669
 6575TIP3   OH219730   6.173   5.759   1.048
 6575TIP3    H119731   6.236   5.719   1.107
 6575TIP3    H219732   6.089   5.756   1.095
 6576TIP3   OH219733   5.816   0.902   4.467
 6576TIP3    H119734   5.828   0.984   4.515
 6576TIP3    H219735   5.771   0.928   4.386
 6577TIP3   OH219736  -0.052   4.963   2.942
 6577TIP3    H119737  -0.109   5.032   2.909
 6577TIP3    H219738  -0.075   4.955   3.034
 6578TIP3   OH219739   5.290   2.354   4.824
 6578TIP3    H119740   5.379   2.388   4.816
 6578TIP3    H219741   5.243   2.392   4.749
 6579TIP3   OH219742   0.692   1.924   0.813
 6579TIP3    H119743   0.654   1.966   0.736
 6579TIP3    H219744   0.734   1.845   0.778
 6580TIP3   OH219745   2.172   4.786   2.008
 6580TIP3    H119746   2.122   4.822   1.935
 6580TIP3    H219747   2.264   4.804   1.986
 6581TIP3   OH219748   1.618   2.522   0.555
 6581TIP3    H119749   1.571   2.595   0.513
 6581TIP3    H219750   1.710   2.542   0.539
 6582TIP3   OH219751   5.145   2.684   3.252
 6582TIP3    H119752   5.195   2.753   3.210
 6582TIP3    H219753   5.162   2.695   3.345
 6583TIP3   OH219754   3.774   4.309   2.972
 6583TIP3    H119755   3.852   4.300   2.917
 6583TIP3    H219756   3.774   4.230   3.026
 6584TIP3   OH219757   4.233   5.822   2.917
 6584TIP3    H119758   4.271   5.789   2.835
 6584TIP3    H219759   4.242   5.917   2.912
 6585TIP3   OH219760   3.645   2.112   5.200
 6585TIP3    H119761   3.599   2.143   5.122
 6585TIP3    H219762   3.720   2.170   5.209
 6586TIP3   OH219763   3.131   1.380   2.636
 6586TIP3    H119764   3.102   1.431   2.561
 6586TIP3    H219765   3.170   1.444   2.696
 6587TIP3   OH219766   1.804   3.619   3.416
 6587TIP3    H119767   1.772   3.693   3.364
 6587TIP3    H219768   1.875   3.582   3.364
 6588TIP3   OH219769   4.142   1.680   3.199
 6588TIP3    H119770   4.211   1.675   3.134
 6588TIP3    H219771   4.187   1.701   3.281
 6589TIP3   OH219772   2.703   0.016   3.481
 6589TIP3    H119773   2.771   0.021   3.548
 6589TIP3    H219774   2.624   0.045   3.526
 6590TIP3   OH219775   0.731   4.066   4.524
 6590TIP3    H119776   0.805   4.034   4.473
 6590TIP3    H219777   0.758   4.153   4.555
 6591TIP3   OH219778   0.567   4.106   1.548
 6591TIP3    H119779   0.584   4.176   1.612
 6591TIP3    H219780   0.644   4.049   1.555
 6592TIP3   OH219781   3.381   4.405   4.324
 6592TIP3    H119782   3.464   4.433   4.361
 6592TIP3    H219783   3.376   4.451   4.240
 6593TIP3   OH219784   6.304   1.720   2.064
 6593TIP3    H119785   6.271   1.705   1.976
 6593TIP3    H219786   6.227   1.716   2.120
 6594TIP3   OH219787   0.660   5.145   1.099
 6594TIP3    H119788   0.739   5.100   1.130
 6594TIP3    H219789   0.588   5.089   1.126
 6595TIP3   OH219790   5.348   2.930   1.991
 6595TIP3    H119791   5.382   2.845   2.017
 6595TIP3    H219792   5.362   2.934   1.897
 6596TIP3   OH219793   2.807   1.583   3.436
 6596TIP3    H119794   2.808   1.664   3.487
 6596TIP3    H219795   2.716   1.556   3.436
 6597TIP3   OH219796   5.400   1.403   2.253
 6597TIP3    H119797   5.388   1.462   2.178
 6597TIP3    H219798   5.341   1.437   2.320
 6598TIP3   OH219799   4.192   5.130   1.185
 6598TIP3    H119800   4.287   5.138   1.190
 6598TIP3    H219801   4.173   5.135   1.091
 6599TIP3   OH219802   0.727   1.286   4.074
 6599TIP3    H119803   0.783   1.210   4.061
 6599TIP3    H219804   0.705   1.285   4.167
 6600TIP3   OH219805   5.857   0.278   4.768
 6600TIP3    H119806   5.790   0.249   4.830
 6600TIP3    H219807   5.936   0.285   4.821
 6601TIP3   OH219808   0.931   1.550   0.190
 6601TIP3    H119809   1.002   1.538   0.128
 6601TIP3    H219810   0.974   1.563   0.275
 6602TIP3   OH219811   5.555   3.890   2.175
 6602TIP3    H119812   5.513   3.969   2.141
 6602TIP3    H219813   5.648   3.913   2.179
 6603TIP3   OH219814   2.416   1.752   4.272
 6603TIP3    H119815   2.336   1.705   4.295
 6603TIP3    H219816   2.481   1.684   4.258
 6604TIP3   OH219817   1.687   0.965   2.077
 6604TIP3    H119818   1.630   0.955   2.001
 6604TIP3    H219819   1.663   1.049   2.115
 6605TIP3   OH219820   1.085   0.044   4.922
 6605TIP3    H119821   1.042   0.054   5.007
 6605TIP3    H219822   1.178   0.047   4.941
 6606TIP3   OH219823   4.354   0.702   1.722
 6606TIP3    H119824   4.441   0.703   1.763
 6606TIP3    H219825   4.296   0.669   1.790
 6607TIP3   OH219826   3.298   3.927   0.265
 6607TIP3    H119827   3.260   3.839   0.267
 6607TIP3    H219828   3.229   3.983   0.299
 6608TIP3   OH219829   2.692   5.567   1.774
 6608TIP3    H119830   2.739   5.630   1.720
 6608TIP3    H219831   2.600   5.584   1.757
 6609TIP3   OH219832   1.481   2.141   2.491
 6609TIP3    H119833   1.536   2.215   2.517
 6609TIP3    H219834   1.397   2.158   2.534
 6610TIP3   OH219835   0.010   2.359   3.936
 6610TIP3    H119836   0.030   2.451   3.921
 6610TIP3    H219837   0.093   2.321   3.967
 6611TIP3   OH219838   1.635   4.297   3.638
 6611TIP3    H119839   1.676   4.280   3.554
 6611TIP3    H219840   1.635   4.213   3.683
 6612TIP3   OH219841   5.314   5.443   4.474
 6612TIP3    H119842   5.221   5.438   4.456
 6612TIP3    H219843   5.350   5.359   4.444
 6613TIP3   OH219844   1.271   2.578   3.817
 6613TIP3    H119845   1.353   2.603   3.858
 6613TIP3    H219846   1.232   2.661   3.790
 6614TIP3   OH219847   6.299   1.214   2.815
 6614TIP3    H119848   6.203   1.211   2.814
 6614TIP3    H219849   6.321   1.274   2.743
 6615TIP3   OH219850   0.492   3.713   0.911
 6615TIP3    H119851   0.542   3.776   0.860
 6615TIP3    H219852   0.465   3.760   0.990
 6616TIP3   OH219853   3.571   0.706   0.451
 6616TIP3    H119854   3.634   0.669   0.389
 6616TIP3    H219855   3.594   0.669   0.535
 6617TIP3   OH219856   0.112   5.320   3.151
 6617TIP3    H119857   0.197   5.291   3.186
 6617TIP3    H219858   0.124   5.413   3.136
 6618TIP3   OH219859   0.148   3.280   1.640
 6618TIP3    H119860   0.213   3.230   1.590
 6618TIP3    H219861   0.164   3.255   1.731
 6619TIP3   OH219862   3.514   4.826   3.947
 6619TIP3    H119863   3.587   4.883   3.973
 6619TIP3    H219864   3.499   4.847   3.855
 6620TIP3   OH219865   5.180   3.343   0.108
 6620TIP3    H119866   5.136   3.402   0.170
 6620TIP3    H219867   5.114   3.324   0.042
 6621TIP3   OH219868   2.236   2.957   4.982
 6621TIP3    H119869   2.317   2.998   4.949
 6621TIP3    H219870   2.263   2.910   5.061
 6622TIP3   OH219871   3.415   3.488   1.583
 6622TIP3    H119872   3.421   3.480   1.488
 6622TIP3    H219873   3.324   3.514   1.598
 6623TIP3   OH219874   5.560   4.214   1.863
 6623TIP3    H119875   5.467   4.193   1.859
 6623TIP3    H219876   5.591   4.205   1.773
 6624TIP3   OH219877   0.636   1.935   4.575
 6624TIP3    H119878   0.663   2.014   4.622
 6624TIP3    H219879   0.591   1.882   4.642
 6625TIP3   OH219880   1.545   3.524   2.285
 6625TIP3    H119881   1.451   3.534   2.270
 6625TIP3    H219882   1.577   3.614   2.295
 6626TIP3   OH219883   2.480   3.755   4.900
 6626TIP3    H119884   2.419   3.828   4.893
 6626TIP3    H219885   2.426   3.681   4.928
 6627TIP3   OH219886   5.067   2.360   4.150
 6627TIP3    H119887   5.143   2.405   4.188
 6627TIP3    H219888   5.075   2.375   4.056
 6628TIP3   OH219889   4.831   4.235   1.523
 6628TIP3    H119890   4.914   4.281   1.538
 6628TIP3    H219891   4.784   4.243   1.606
 6629TIP3   OH219892   2.133   4.780   2.604
 6629TIP3    H119893   2.056   4.761   2.549
 6629TIP3    H219894   2.102   4.766   2.693
 6630TIP3   OH219895   4.984   1.704   3.182
 6630TIP3    H119896   5.015   1.792   3.207
 6630TIP3    H219897   4.930   1.676   3.256
 6631TIP3   OH219898   6.326   2.273   5.073
 6631TIP3    H119899   6.258   2.283   5.006
 6631TIP3    H219900   6.307   2.343   5.135
 6632TIP3   OH219901   2.444   4.546   2.427
 6632TIP3    H119902   2.360   4.511   2.398
 6632TIP3    H219903   2.425   4.634   2.457
 6633TIP3   OH219904   5.756   4.488   2.472
 6633TIP3    H119905   5.812   4.562   2.494
 6633TIP3    H219906   5.785   4.417   2.529
 6634TIP3   OH219907   0.845   5.317   4.874
 6634TIP3    H119908   0.781   5.388   4.879
 6634TIP3    H219909   0.853   5.287   4.965
 6635TIP3   OH219910   5.213   3.096   2.538
 6635TIP3    H119911   5.161   3.138   2.470
 6635TIP3    H219912   5.271   3.165   2.571
 6636TIP3   OH219913   3.732   4.504   1.296
 6636TIP3    H119914   3.739   4.553   1.378
 6636TIP3    H219915   3.725   4.570   1.228
 6637TIP3   OH219916   1.076   3.669   1.714
 6637TIP3    H119917   1.026   3.652   1.634
 6637TIP3    H219918   1.034   3.746   1.752
 6638TIP3   OH219919   2.260   0.498   3.030
 6638TIP3    H119920   2.247   0.593   3.034
 6638TIP3    H219921   2.290   0.474   3.118
 6639TIP3   OH219922   4.053   1.219   3.105
 6639TIP3    H119923   4.023   1.219   3.014
 6639TIP3    H219924   4.075   1.128   3.123
 6640TIP3   OH219925   1.566   0.221   0.007
 6640TIP3    H119926   1.656   0.191   0.022
 6640TIP3    H219927   1.528   0.225   0.095
 6641TIP3   OH219928   6.189   2.606   4.805
 6641TIP3    H119929   6.132   2.676   4.835
 6641TIP3    H219930   6.132   2.548   4.755
 6642TIP3   OH219931   3.492   3.659   3.868
 6642TIP3    H119932   3.586   3.648   3.853
 6642TIP3    H219933   3.464   3.720   3.800
 6643TIP3   OH219934   1.852   0.750   1.059
 6643TIP3    H119935   1.870   0.658   1.042
 6643TIP3    H219936   1.768   0.750   1.106
 6644TIP3   OH219937   5.227   0.589   1.326
 6644TIP3    H119938   5.197   0.656   1.388
 6644TIP3    H219939   5.320   0.577   1.347
 6645TIP3   OH219940   1.291   2.709   3.039
 6645TIP3    H119941   1.298   2.673   3.128
 6645TIP3    H219942   1.213   2.667   3.002
   6.35583   5.99234   5.18952   0.00000   0.00000  -2.11862   0.00000  -2.11862  -2.99617
